Title
42773
    1SAPS     N    1   4.760   0.298   7.510  0.4678 -0.7017 -0.2353
    1SAPS   HN1    2   4.740   0.214   7.452  0.6150 -0.5079 -0.5702
    1SAPS   HN2    3   4.787   0.262   7.604  1.1888 -1.5325 -0.7383
    1SAPS   HN3    4   4.670   0.349   7.522 -0.1185 -1.7694  0.0239
    1SAPS   C12    5   4.858   0.380   7.441  0.7633  0.3559 -0.0989
    1SAPS  H12A    6   4.824   0.420   7.346  0.7898  0.6617  0.0210
    1SAPS   C13    7   4.902   0.506   7.520 -0.4621 -1.0430  0.1248
    1SAPS  O13A    8   4.860   0.534   7.630 -0.3948 -0.1837 -0.0779
    1SAPS  O13B    9   5.005   0.558   7.474  0.4605 -0.1072 -0.5826
    1SAPS   C11   10   4.981   0.293   7.410  0.0269 -0.4022  0.6339
    1SAPS  H11A   11   5.027   0.269   7.508  2.4267 -0.1104 -0.3630
    1SAPS  H11B   12   5.043   0.354   7.341 -0.0756  0.1158  0.9907
    1SAPS     P   13   4.973   0.154   7.184 -0.2038 -0.1002 -0.7352
    1SAPS   O13   14   5.120   0.156   7.168  0.6018  0.3405  0.7123
    1SAPS   O14   15   4.906   0.035   7.129  0.2505  0.3140  0.4698
    1SAPS   O12   16   4.931   0.177   7.335  0.4302 -0.0344  0.0706
    1SAPS   O11   17   4.917   0.291   7.117 -0.2616  0.2411 -0.1691
    1SAPS    C1   18   4.779   0.309   7.090  0.1731 -0.3286 -0.4344
    1SAPS    HA   19   4.721   0.263   7.173 -0.2134 -1.6196 -1.3947
    1SAPS    HB   20   4.748   0.416   7.090 -1.9372 -0.8796  0.6933
    1SAPS    C2   21   4.737   0.245   6.946  0.2169 -0.3348 -0.7851
    1SAPS    HS   22   4.759   0.136   6.952 -0.2414 -0.3865  0.3995
    1SAPS   O21   23   4.812   0.307   6.840 -0.5260 -0.3849 -0.0583
    1SAPS   C21   24   4.842   0.236   6.729 -0.0234  0.2687  0.3180
    1SAPS   O22   25   4.821   0.118   6.724 -0.4351  0.0682 -0.1868
    1SAPS   C22   26   4.879   0.324   6.615  0.2107 -0.3095  0.3189
    1SAPS   H2R   27   4.840   0.427   6.629 -3.2258 -1.7133  2.3170
    1SAPS   H2S   28   4.990   0.327   6.615  0.2162 -0.0859  1.2578
    1SAPS    C3   29   4.581   0.270   6.927 -0.7559 -0.5572 -0.0105
    1SAPS    HX   30   4.569   0.378   6.908  1.8533 -0.6516 -2.9096
    1SAPS    HY   31   4.531   0.235   7.020 -1.5810  3.1028  1.0501
    1SAPS   O31   32   4.528   0.213   6.808 -0.5606 -0.2449  0.4525
    1SAPS   C31   33   4.502   0.078   6.804 -0.1110 -0.5080  0.1585
    1SAPS   O32   34   4.504   0.008   6.902  0.1946 -0.3928 -0.3559
    1SAPS   C32   35   4.465   0.031   6.659 -0.0271  0.1545  0.5504
    1SAPS   H2X   36   4.356   0.044   6.644  0.1408 -0.2841 -1.1558
    1SAPS   H2Y   37   4.490  -0.077   6.654  1.9837  0.5556  0.8743
    1SAPS   C23   38   4.832   0.281   6.480  0.5565  0.1980 -0.1036
    1SAPS   H3R   39   4.723   0.295   6.463  0.5879  0.8819  0.2377
    1SAPS   H3S   40   4.868   0.177   6.465  1.7937  0.5061  0.5521
    1SAPS   C24   41   4.899   0.353   6.361 -0.9914  0.5753 -0.6150
    1SAPS   H4R   42   4.880   0.289   6.272  0.1119 -0.3198 -0.2327
    1SAPS   H4S   43   5.008   0.349   6.380 -1.2559  1.7161  1.4281
    1SAPS   C25   44   4.860   0.497   6.336  0.0057  1.0505  0.1830
    1SAPS   H5R   45   4.879   0.559   6.425  2.3207  0.5293  0.1044
    1SAPS   C26   46   4.819   0.549   6.219  0.1635 -0.7700  0.4968
    1SAPS   H6R   47   4.815   0.658   6.205  2.5683 -0.9847 -3.2001
    1SAPS   C27   48   4.807   0.478   6.088 -0.6151 -0.4292 -0.3236
    1SAPS   H7R   49   4.708   0.506   6.048 -1.1671 -1.2376  0.4504
    1SAPS   H7S   50   4.802   0.369   6.112 -1.6251  0.4070  3.9497
    1SAPS   C28   51   4.925   0.503   5.993 -0.1406 -0.0797  0.4899
    1SAPS   H8R   52   5.010   0.558   6.036  0.3281 -0.7510  0.4365
    1SAPS   C29   53   4.946   0.451   5.872  0.2466 -0.0436 -0.1170
    1SAPS   H9R   54   5.041   0.450   5.818  0.1939 -0.7407 -0.2154
    1SAPS  C210   55   4.831   0.379   5.809  0.1638 -0.0287 -0.3429
    1SAPS  H10R   56   4.762   0.451   5.758 -0.1664 -0.4594 -0.5087
    1SAPS  H10S   57   4.772   0.327   5.887  2.5502 -1.0772  0.8547
    1SAPS  C211   58   4.873   0.275   5.710  0.3758  0.4329 -0.2075
    1SAPS  H11R   59   4.876   0.177   5.759 -2.0452 -1.2176 -3.1071
    1SAPS  C212   60   4.872   0.281   5.577  0.3772  0.1683  0.2128
    1SAPS  H12R   61   4.889   0.182   5.532  1.3928  1.3136 -2.0508
    1SAPS  C213   62   4.838   0.405   5.491  0.6804  0.1507 -0.4938
    1SAPS  H13R   63   4.804   0.493   5.550  0.8783  1.0884 -1.7387
    1SAPS  H13S   64   4.752   0.384   5.423 -0.3742 -3.7420  1.7062
    1SAPS  C214   65   4.959   0.441   5.410  0.3961 -0.2958 -0.2604
    1SAPS  H14R   66   5.042   0.467   5.476  1.8699 -2.6274 -1.0978
    1SAPS  C215   67   4.984   0.442   5.277  0.0819 -0.0038 -0.6147
    1SAPS  H15R   68   5.070   0.492   5.230 -1.0605 -0.3836 -3.3128
    1SAPS  C216   69   4.884   0.392   5.174 -0.5892  0.1691 -0.4982
    1SAPS  H16R   70   4.870   0.471   5.098 -3.3392 -1.2949 -1.6381
    1SAPS  H16S   71   4.784   0.365   5.213  0.0833 -3.4162 -0.9249
    1SAPS  C217   72   4.931   0.273   5.086  0.0081 -0.2800  0.9274
    1SAPS  H17R   73   5.027   0.302   5.037  1.3488  0.7511  3.9366
    1SAPS  H17S   74   4.849   0.250   5.015 -0.0602 -0.2572  0.9995
    1SAPS  C218   75   4.952   0.137   5.156 -0.6137 -0.1509 -0.7035
    1SAPS  H18R   76   4.853   0.111   5.200 -0.3201 -1.4060 -0.7346
    1SAPS  H18S   77   5.023   0.151   5.241 -0.3848  0.8477 -1.0506
    1SAPS  C219   78   4.991   0.036   5.049 -0.3688  0.6005  0.0048
    1SAPS  H19R   79   5.089   0.046   4.999  0.6229 -4.8554  0.2080
    1SAPS  H19S   80   4.916   0.032   4.967 -0.2856 -0.2909 -0.0362
    1SAPS  C220   81   4.973  -0.113   5.093 -0.1587  0.2190 -0.0347
    1SAPS  H20R   82   4.881  -0.126   5.153  0.0786 -1.6074 -0.0026
    1SAPS  H20S   83   5.066  -0.150   5.141 -0.5536 -1.7195 -0.6565
    1SAPS  H20T   84   4.952  -0.184   5.009 -0.3082  0.5166 -0.2499
    1SAPS   C33   85   4.539   0.107   6.545 -0.1630  0.4660  0.4956
    1SAPS   H3X   86   4.645   0.085   6.568 -0.4445 -1.8784 -0.2211
    1SAPS   H3Y   87   4.509   0.214   6.555 -3.1232 -0.1733 -0.4090
    1SAPS   C34   88   4.502   0.043   6.413  0.1726  0.3852 -0.1351
    1SAPS   H4X   89   4.394   0.015   6.412 -0.0422  1.2017 -0.5624
    1SAPS   H4Y   90   4.561  -0.050   6.408  1.7133  1.3737 -1.3551
    1SAPS   C35   91   4.525   0.135   6.289  0.4879  0.0794  0.1241
    1SAPS   H5X   92   4.628   0.175   6.283 -0.9189  4.0458 -1.3866
    1SAPS   H5Y   93   4.463   0.228   6.294 -0.3755 -0.3526 -1.5510
    1SAPS   C36   94   4.499   0.059   6.153  0.3098 -0.1581 -0.2149
    1SAPS   H6X   95   4.391   0.037   6.143  0.4514 -0.5793 -0.9146
    1SAPS   H6Y   96   4.556  -0.036   6.144 -1.8462 -1.7525  1.7000
    1SAPS   C37   97   4.538   0.145   6.035  0.5946 -0.4844  0.2617
    1SAPS   H7X   98   4.648   0.139   6.018  0.5639  0.3735 -0.3046
    1SAPS   H7Y   99   4.509   0.251   6.047  2.4632  0.2138 -0.9308
    1SAPS   C38  100   4.475   0.106   5.901  0.0471  0.3360 -1.2106
    1SAPS   H8X  101   4.367   0.094   5.924 -0.1801  1.9992 -1.3106
    1SAPS   H8Y  102   4.512   0.010   5.859  0.7454  0.1833 -0.2875
    1SAPS   C39  103   4.483   0.215   5.797  0.1092  0.6586 -0.2134
    1SAPS   H9X  104   4.590   0.242   5.795  0.2931  0.0458  0.9092
    1SAPS   H9Y  105   4.431   0.304   5.839 -0.9217 -0.0705  0.1025
    1SAPS  C310  106   4.421   0.175   5.666 -0.0143 -0.3070 -0.1336
    1SAPS  H10X  107   4.316   0.143   5.681  0.3053 -0.4491  2.0096
    1SAPS  H10Y  108   4.473   0.082   5.634  2.5216  1.2988 -1.0617
    1SAPS  C311  109   4.436   0.271   5.549  0.0877  0.1361  0.5034
    1SAPS  H11X  110   4.541   0.303   5.537  0.2747  0.8259  3.3108
    1SAPS  H11Y  111   4.367   0.358   5.555 -0.0954  0.0059  0.3372
    1SAPS  C312  112   4.393   0.204   5.416 -0.3008 -0.2659  0.1506
    1SAPS  H12X  113   4.305   0.143   5.446  0.5175 -1.1560  0.8296
    1SAPS  H12Y  114   4.479   0.137   5.398  0.9531  1.6859 -1.6903
    1SAPS  C313  115   4.367   0.292   5.296  0.2955  0.1657  1.1646
    1SAPS  H13X  116   4.338   0.233   5.206  0.5228  2.5830 -0.5900
    1SAPS  H13Y  117   4.456   0.350   5.264  0.7951 -1.4976 -0.6616
    1SAPS  C314  118   4.248   0.386   5.313 -0.0721  1.2359  0.2902
    1SAPS  H14X  119   4.247   0.419   5.419  0.5902  0.6412  0.4879
    1SAPS  H14Y  120   4.160   0.319   5.310  0.7729  0.0591  1.1550
    1SAPS  C315  121   4.244   0.501   5.218  0.3989  0.2147  0.2630
    1SAPS  H15X  122   4.258   0.457   5.116  0.5689  1.4162 -0.2432
    1SAPS  H15Y  123   4.329   0.567   5.247  1.4749 -0.7811 -0.5089
    1SAPS  C316  124   4.114   0.576   5.235  1.0630  0.1792 -0.1965
    1SAPS  H16X  125   4.131   0.644   5.321  0.7500  1.5382 -1.1730
    1SAPS  H16Y  126   4.031   0.506   5.260  0.5016  0.5816 -0.8752
    1SAPS  C317  127   4.065   0.659   5.107 -0.3651  0.2674 -0.5116
    1SAPS  H17X  128   4.039   0.583   5.031  1.9921 -1.6071  0.4398
    1SAPS  H17Y  129   4.151   0.711   5.059  0.2310  1.0053  1.2690
    1SAPS  C318  130   3.945   0.746   5.134 -0.9876  0.1810 -0.5064
    1SAPS  H18X  131   3.871   0.694   5.199  0.7708 -0.6544  0.9243
    1SAPS  H18Y  132   3.901   0.793   5.044  1.8244 -0.1287 -2.1497
    1SAPS  H18Z  133   3.984   0.826   5.201 -0.4284 -0.5850  0.1099
    2SAPS     N  134   5.000   2.534   7.437 -0.1846 -0.4628 -0.4909
    2SAPS   HN1  135   5.078   2.577   7.384 -0.1944  0.5007  0.2503
    2SAPS   HN2  136   5.041   2.484   7.519 -1.9072 -0.8036  0.2184
    2SAPS   HN3  137   4.966   2.459   7.373 -0.6447 -1.9990  1.4436
    2SAPS   C12  138   4.890   2.625   7.464  0.0224 -0.2894 -0.4573
    2SAPS  H12A  139   4.810   2.577   7.518 -0.9829  1.3576 -0.4339
    2SAPS   C13  140   4.927   2.749   7.545 -0.0304 -0.3447 -0.1100
    2SAPS  O13A  141   5.038   2.757   7.601 -0.2252  0.1286  0.3628
    2SAPS  O13B  142   4.844   2.841   7.555 -0.2925  0.4409 -0.3025
    2SAPS   C11  143   4.834   2.668   7.328 -0.5002 -0.2316  0.0671
    2SAPS  H11A  144   4.913   2.723   7.272  0.4093 -1.1775  0.3932
    2SAPS  H11B  145   4.749   2.739   7.337 -0.5928 -0.2797 -0.3969
    2SAPS     P  146   4.658   2.488   7.257  0.1172 -0.1404 -0.2081
    2SAPS   O13  147   4.663   2.379   7.356  0.3979  0.5368  0.1075
    2SAPS   O14  148   4.550   2.591   7.278 -0.2520 -0.5335 -0.2117
    2SAPS   O12  149   4.797   2.557   7.250 -0.6460  0.2221  0.1357
    2SAPS   O11  150   4.639   2.439   7.113  0.4298 -0.5789  0.0451
    2SAPS    C1  151   4.709   2.328   7.054  0.2894  0.2282  0.0968
    2SAPS    HA  152   4.818   2.333   7.073  0.1651 -0.6878  1.1063
    2SAPS    HB  153   4.680   2.237   7.109 -1.6659 -0.6502 -2.1827
    2SAPS    C2  154   4.686   2.301   6.901 -0.7082  0.9167 -0.9510
    2SAPS    HS  155   4.765   2.229   6.869  1.5220  2.9094 -0.2586
    2SAPS   O21  156   4.694   2.422   6.827 -0.0373 -0.2021  0.3632
    2SAPS   C21  157   4.814   2.466   6.800  0.3902  0.0517 -0.8331
    2SAPS   O22  158   4.919   2.407   6.826  1.0874  0.3088  0.0013
    2SAPS   C22  159   4.797   2.607   6.735 -0.0139 -0.3534 -0.3617
    2SAPS   H2R  160   4.689   2.631   6.723  0.0663  1.2604  1.6528
    2SAPS   H2S  161   4.848   2.682   6.799 -0.2936 -0.0579 -0.4776
    2SAPS    C3  162   4.549   2.236   6.874  0.3564  0.0493 -0.7668
    2SAPS    HX  163   4.475   2.318   6.884  0.1043 -0.3959  1.6835
    2SAPS    HY  164   4.524   2.162   6.954  1.0909  0.3011 -0.2998
    2SAPS   O31  165   4.541   2.186   6.741 -1.1570  0.1983  0.0289
    2SAPS   C31  166   4.428   2.121   6.712  0.4686  0.0730 -0.3600
    2SAPS   O32  167   4.342   2.087   6.790 -0.4804 -0.4181 -0.0224
    2SAPS   C32  168   4.416   2.108   6.563 -0.2135 -0.8124  0.2115
    2SAPS   H2X  169   4.504   2.053   6.522 -0.3392 -0.3368 -0.7070
    2SAPS   H2Y  170   4.403   2.210   6.522  0.0054 -1.8121 -2.5650
    2SAPS   C23  171   4.848   2.622   6.592 -0.6273  0.2204  0.0670
    2SAPS   H3R  172   4.954   2.596   6.571 -0.0706  1.6896  0.8430
    2SAPS   H3S  173   4.845   2.733   6.584 -0.0575  0.2536  0.2142
    2SAPS   C24  174   4.757   2.572   6.479  0.6965  0.2925 -0.0138
    2SAPS   H4R  175   4.788   2.626   6.387  0.0327 -1.6362 -1.4401
    2SAPS   H4S  176   4.649   2.597   6.484  0.5362 -0.3213 -0.2568
    2SAPS   C25  177   4.767   2.422   6.462  0.5026  0.6877  0.2059
    2SAPS   H5R  178   4.789   2.377   6.560 -3.2955  2.3668  2.0229
    2SAPS   C26  179   4.740   2.346   6.352  0.0882 -0.2058  0.3010
    2SAPS   H6R  180   4.752   2.236   6.354 -2.2180 -0.5071  1.8147
    2SAPS   C27  181   4.693   2.395   6.221  0.0539 -0.6094 -0.5176
    2SAPS   H7R  182   4.677   2.505   6.227  1.9268 -0.3862  2.4890
    2SAPS   H7S  183   4.608   2.334   6.183 -0.4416 -0.2267 -0.0333
    2SAPS   C28  184   4.811   2.393   6.131 -0.2435 -0.4950 -0.3902
    2SAPS   H8R  185   4.883   2.470   6.159 -1.4480  0.0612  1.3652
    2SAPS   C29  186   4.825   2.326   6.014 -0.4812 -0.4883  0.4979
    2SAPS   H9R  187   4.921   2.327   5.959 -2.0288  1.4107 -2.3723
    2SAPS  C210  188   4.729   2.234   5.945  0.7883 -0.2663  0.1304
    2SAPS  H10R  189   4.668   2.181   6.021  1.0259 -1.5405 -0.5519
    2SAPS  H10S  190   4.777   2.143   5.904 -0.6070 -1.6148  1.3532
    2SAPS  C211  191   4.652   2.317   5.839 -0.3453  0.2230  0.0777
    2SAPS  H11R  192   4.612   2.415   5.869  1.9318  1.8015 -1.5966
    2SAPS  C212  193   4.617   2.286   5.713  0.1925  0.2929  0.6067
    2SAPS  H12R  194   4.549   2.358   5.664 -0.0475  0.6936  1.5189
    2SAPS  C213  195   4.657   2.160   5.639 -0.1627  0.1702 -0.1242
    2SAPS  H13R  196   4.708   2.099   5.716 -0.7931  0.9226  0.9185
    2SAPS  H13S  197   4.729   2.173   5.555  1.5138  2.1674  1.5073
    2SAPS  C214  198   4.525   2.091   5.611  0.1435  0.1151 -0.3980
    2SAPS  H14R  199   4.466   2.067   5.701 -1.8412 -1.0996 -1.9605
    2SAPS  C215  200   4.470   2.057   5.492  0.1367  0.3949 -0.3006
    2SAPS  H15R  201   4.367   2.018   5.491  0.9208 -1.7960 -0.3557
    2SAPS  C216  202   4.548   2.047   5.361  0.2971 -0.0715  0.0292
    2SAPS  H16R  203   4.588   2.146   5.329 -1.7242 -0.1227 -3.1157
    2SAPS  H16S  204   4.487   2.022   5.272 -0.0807  1.1402 -0.0742
    2SAPS  C217  205   4.673   1.961   5.370  0.6950 -0.0572 -0.4294
    2SAPS  H17R  206   4.650   1.856   5.397 -1.7256  0.1697 -1.3219
    2SAPS  H17S  207   4.757   1.992   5.435  1.5680 -1.5836 -0.7868
    2SAPS  C218  208   4.747   1.963   5.235 -0.5155 -0.1387 -0.0090
    2SAPS  H18R  209   4.800   2.059   5.225  0.8093 -0.5614  2.2745
    2SAPS  H18S  210   4.677   1.962   5.148  0.7404  0.5454 -1.0664
    2SAPS  C219  211   4.854   1.849   5.234  0.1672 -0.0523  0.1752
    2SAPS  H19R  212   4.797   1.753   5.236  0.6796 -0.3469  0.8117
    2SAPS  H19S  213   4.934   1.844   5.310  0.5445 -0.3796 -0.2334
    2SAPS  C220  214   4.931   1.859   5.100  0.1525  0.1172  0.8123
    2SAPS  H20R  215   5.012   1.935   5.101 -0.4483  0.8379 -0.7976
    2SAPS  H20S  216   4.862   1.866   5.013  1.4363 -2.4279 -0.5029
    2SAPS  H20T  217   4.986   1.764   5.086 -0.6870 -0.0812 -1.7122
    2SAPS   C33  218   4.292   2.033   6.518  0.0954 -0.3115  0.2867
    2SAPS   H3X  219   4.194   2.071   6.555  0.8634  3.4147 -1.1068
    2SAPS   H3Y  220   4.301   1.929   6.556 -1.7915 -0.7870 -0.4606
    2SAPS   C34  221   4.279   2.010   6.360 -0.2796  0.0980 -0.0623
    2SAPS   H4X  222   4.251   2.103   6.305 -1.1155 -0.2184 -0.1778
    2SAPS   H4Y  223   4.196   1.946   6.324 -1.6303  1.5018  0.4516
    2SAPS   C35  224   4.402   1.946   6.294 -0.5533  0.0922  0.3769
    2SAPS   H5X  225   4.425   1.845   6.333 -0.3826  0.1320  0.3765
    2SAPS   H5Y  226   4.496   2.000   6.317  0.7838 -2.1718  0.5704
    2SAPS   C36  227   4.381   1.927   6.145 -0.1428  0.8871  0.1897
    2SAPS   H6X  228   4.375   2.017   6.079 -1.6484  0.7010  0.0452
    2SAPS   H6Y  229   4.288   1.868   6.131  1.9391 -2.6182 -0.0814
    2SAPS   C37  230   4.489   1.840   6.086  0.3431 -0.1607  0.0267
    2SAPS   H7X  231   4.510   1.761   6.162 -0.7731  0.4897  1.0491
    2SAPS   H7Y  232   4.585   1.893   6.070  0.0881 -0.0330 -1.1667
    2SAPS   C38  233   4.456   1.780   5.953 -0.3050  0.1439 -0.1119
    2SAPS   H8X  234   4.520   1.690   5.944  1.7241  1.5405 -0.3503
    2SAPS   H8Y  235   4.482   1.857   5.877  0.3880  1.3466  1.2995
    2SAPS   C39  236   4.317   1.739   5.918  0.5388  0.2293  0.1329
    2SAPS   H9X  237   4.240   1.815   5.896 -1.7127 -2.0142 -0.2102
    2SAPS   H9Y  238   4.274   1.687   6.007 -0.0717  0.5129  0.0090
    2SAPS  C310  239   4.314   1.641   5.794 -0.3138 -0.1148 -0.5462
    2SAPS  H10X  240   4.213   1.598   5.778 -0.6588  0.8497 -1.0889
    2SAPS  H10Y  241   4.386   1.557   5.799  0.0269  0.2377  1.0102
    2SAPS  C311  242   4.337   1.710   5.663  0.2299 -0.1437 -0.2510
    2SAPS  H11X  243   4.439   1.748   5.642  0.5454 -0.9705 -0.2437
    2SAPS  H11Y  244   4.272   1.799   5.651  2.4757  1.7082  0.6518
    2SAPS  C312  245   4.304   1.623   5.540  0.2463 -0.1158  0.4968
    2SAPS  H12X  246   4.193   1.613   5.534  0.2822 -0.2798  0.1113
    2SAPS  H12Y  247   4.352   1.523   5.542 -1.0093 -0.7310  0.9212
    2SAPS  C313  248   4.332   1.693   5.400 -0.1294 -0.0536  0.0166
    2SAPS  H13X  249   4.441   1.713   5.390 -0.3991  0.5083 -2.7518
    2SAPS  H13Y  250   4.274   1.787   5.386  0.7151  0.4340 -0.3014
    2SAPS  C314  251   4.299   1.596   5.278 -0.3237  0.3927 -0.4251
    2SAPS  H14X  252   4.197   1.555   5.289 -0.7457  1.4967 -0.0101
    2SAPS  H14Y  253   4.367   1.508   5.281 -2.0404 -0.9718  0.4035
    2SAPS  C315  254   4.319   1.672   5.140  0.5980 -0.1511 -0.1650
    2SAPS  H15X  255   4.418   1.719   5.122 -1.0953  2.7642 -3.0517
    2SAPS  H15Y  256   4.253   1.762   5.148  0.2120 -0.4022 -0.4762
    2SAPS  C316  257   4.309   1.578   5.017  0.3722 -0.8391 -0.3744
    2SAPS  H16X  258   4.363   1.482   5.035  0.2712 -0.7030  0.7421
    2SAPS  H16Y  259   4.351   1.629   4.927  0.0110 -0.4909 -0.3479
    2SAPS  C317  260   4.163   1.535   4.984 -0.0198 -0.4148 -0.0693
    2SAPS  H17X  261   4.121   1.625   4.932  0.9416  1.7256  2.6207
    2SAPS  H17Y  262   4.100   1.519   5.074 -1.7846  0.7609 -1.0420
    2SAPS  C318  263   4.141   1.420   4.888  0.5068  0.2837  0.3761
    2SAPS  H18X  264   4.169   1.327   4.943  1.0145 -1.2025 -2.2060
    2SAPS  H18Y  265   4.214   1.417   4.804 -1.1242 -1.0535 -1.0736
    2SAPS  H18Z  266   4.036   1.407   4.853 -0.0740 -0.4695  2.2759
    3SAPS     N  267   4.764   0.973   7.707  0.6983  0.0652  0.0946
    3SAPS   HN1  268   4.749   0.891   7.645 -2.8486  0.5165  0.1152
    3SAPS   HN2  269   4.772   1.058   7.649 -2.7414 -0.6148 -1.6254
    3SAPS   HN3  270   4.849   0.960   7.766  0.1391  0.4326  0.9973
    3SAPS   C12  271   4.631   0.980   7.773  0.5199 -0.2902  0.2062
    3SAPS  H12A  272   4.622   0.885   7.825 -0.1726 -0.2256  0.2147
    3SAPS   C13  273   4.599   1.098   7.877 -0.4343  0.0648 -0.0693
    3SAPS  O13A  274   4.698   1.155   7.926 -0.1654 -0.3570  0.2442
    3SAPS  O13B  275   4.488   1.105   7.935  0.0394  0.4506  0.1200
    3SAPS   C11  276   4.523   0.983   7.660  0.6200 -0.5707 -0.9926
    3SAPS  H11A  277   4.560   0.921   7.575  1.1048 -1.0939 -0.4105
    3SAPS  H11B  278   4.513   1.085   7.619  4.6150 -0.4064 -2.0223
    3SAPS     P  279   4.352   0.796   7.754  0.1096 -0.2839  0.4460
    3SAPS   O13  280   4.471   0.715   7.788 -0.2699 -0.4664 -0.4094
    3SAPS   O14  281   4.250   0.817   7.859  0.1996 -0.9541  0.0356
    3SAPS   O12  282   4.395   0.938   7.703  0.3381 -0.1877 -0.4463
    3SAPS   O11  283   4.265   0.734   7.642  0.2847 -0.7448 -0.2932
    3SAPS    C1  284   4.214   0.836   7.551 -0.6091  0.0963  0.0853
    3SAPS    HA  285   4.152   0.909   7.608 -0.0901  1.0386 -0.5195
    3SAPS    HB  286   4.300   0.887   7.503  0.0595 -0.8043  0.3022
    3SAPS    C2  287   4.121   0.787   7.446  0.7259 -0.8609  0.2361
    3SAPS    HS  288   4.042   0.725   7.494  0.5065 -1.6168 -1.0548
    3SAPS   O21  289   4.195   0.713   7.352  0.0573  0.2053 -0.2447
    3SAPS   C21  290   4.119   0.629   7.280  1.0667 -0.2716  0.1426
    3SAPS   O22  291   3.995   0.623   7.280 -0.2334  0.1759  0.2478
    3SAPS   C22  292   4.209   0.528   7.216  0.3809  0.3996 -0.1234
    3SAPS   H2R  293   4.221   0.569   7.114  0.3840  1.8937  0.4554
    3SAPS   H2S  294   4.300   0.504   7.276  0.2067  1.2185  0.4801
    3SAPS    C3  295   4.035   0.904   7.383  0.0285  0.0479 -0.2412
    3SAPS    HX  296   3.991   0.963   7.467  2.1380  1.2501  0.0830
    3SAPS    HY  297   3.952   0.857   7.326  1.2217 -1.6798 -0.6068
    3SAPS   O31  298   4.116   0.980   7.303 -0.0248 -0.1884  0.0024
    3SAPS   C31  299   4.080   0.990   7.171 -0.1464 -0.0516 -0.4068
    3SAPS   O32  300   3.983   0.940   7.124  1.0188  0.1510  0.0923
    3SAPS   C32  301   4.187   1.064   7.083  0.2273  0.3298 -0.1805
    3SAPS   H2X  302   4.269   0.989   7.075  0.0232 -0.0946  1.4015
    3SAPS   H2Y  303   4.226   1.144   7.150  0.0945  2.1036 -2.0927
    3SAPS   C23  304   4.127   0.395   7.190  0.1005  0.3678  0.3116
    3SAPS   H3R  305   4.031   0.425   7.141  0.2415  0.7854  0.2836
    3SAPS   H3S  306   4.104   0.345   7.287  2.4640  1.5164  1.5534
    3SAPS   C24  307   4.208   0.304   7.092 -0.1317 -0.3312 -0.2186
    3SAPS   H4R  308   4.294   0.272   7.155 -0.9092  1.0483  1.6429
    3SAPS   H4S  309   4.255   0.358   7.007  3.2558 -1.1911  0.9639
    3SAPS   C25  310   4.130   0.190   7.043 -0.1751  0.8320  0.6199
    3SAPS   H5R  311   4.103   0.118   7.122 -2.5135 -1.1152 -1.7885
    3SAPS   C26  312   4.098   0.158   6.916  0.1671 -0.1018 -0.0093
    3SAPS   H6R  313   4.048   0.063   6.893  0.9940 -1.3535  2.9200
    3SAPS   C27  314   4.137   0.244   6.803 -0.2681 -0.0086  1.3307
    3SAPS   H7R  315   4.163   0.185   6.712 -0.9441 -0.1340  1.2152
    3SAPS   H7S  316   4.234   0.298   6.809 -0.0987  0.6678 -3.5348
    3SAPS   C28  317   4.018   0.338   6.776  0.7037 -0.1180  0.3698
    3SAPS   H8R  318   3.980   0.388   6.866 -0.3260 -1.3101  0.6326
    3SAPS   C29  319   3.951   0.358   6.661  0.4291  0.8888  0.5144
    3SAPS   H9R  320   3.863   0.423   6.653 -0.0105  0.0959 -1.5144
    3SAPS  C210  321   3.987   0.298   6.526 -0.0736  0.5711 -0.0728
    3SAPS  H10R  322   3.895   0.251   6.487  1.5413 -2.1035 -0.9403
    3SAPS  H10S  323   4.060   0.214   6.531  0.8362  1.2384 -1.5391
    3SAPS  C211  324   4.040   0.403   6.429 -1.1361  1.0445  0.7381
    3SAPS  H11R  325   4.039   0.506   6.468 -0.3986  1.1118  0.5946
    3SAPS  C212  326   4.088   0.375   6.304 -0.8579  0.2888 -0.1065
    3SAPS  H12R  327   4.128   0.454   6.239 -2.7711  0.9776 -0.5022
    3SAPS  C213  328   4.086   0.237   6.247  0.3491  0.4518  0.6634
    3SAPS  H13R  329   4.062   0.155   6.317 -0.5654  0.4495  0.3533
    3SAPS  H13S  330   4.183   0.211   6.199  0.6021 -0.6295  1.7244
    3SAPS  C214  331   3.979   0.217   6.141 -0.4399 -0.6792 -0.1480
    3SAPS  H14R  332   3.883   0.191   6.188  0.4877  1.1828  3.1267
    3SAPS  C215  333   3.988   0.223   6.007 -0.1170 -0.0413 -0.3061
    3SAPS  H15R  334   3.900   0.195   5.948  0.7231  0.0374 -1.6242
    3SAPS  C216  335   4.112   0.248   5.920 -0.0763  0.6163  0.4335
    3SAPS  H16R  336   4.155   0.149   5.891 -2.5971 -0.7173  0.8839
    3SAPS  H16S  337   4.198   0.284   5.979  0.0262 -1.2453  1.5168
    3SAPS  C217  338   4.092   0.331   5.795  0.0015  0.1664 -0.0816
    3SAPS  H17R  339   4.005   0.302   5.732 -0.5578  2.5184 -0.4975
    3SAPS  H17S  340   4.182   0.321   5.730  0.6750 -1.9290  1.1015
    3SAPS  C218  341   4.079   0.481   5.822  0.2399  0.5866  0.4392
    3SAPS  H18R  342   4.169   0.510   5.880  1.8547 -0.0365 -1.6389
    3SAPS  H18S  343   3.985   0.491   5.881 -0.9210  0.4665 -1.3347
    3SAPS  C219  344   4.074   0.577   5.706 -0.4618 -0.3321  0.5357
    3SAPS  H19R  345   4.074   0.682   5.742 -2.9658  0.7664 -2.2262
    3SAPS  H19S  346   4.163   0.568   5.640 -0.6578  0.1583  0.1966
    3SAPS  C220  347   3.946   0.563   5.620  0.5633  0.8802  0.3506
    3SAPS  H20R  348   3.854   0.585   5.679  0.5077  0.5244  0.3979
    3SAPS  H20S  349   3.945   0.457   5.587 -0.6333  1.0920 -0.3523
    3SAPS  H20T  350   3.946   0.628   5.530  2.6383 -1.2312 -1.2970
    3SAPS   C33  351   4.141   1.118   6.944  0.1869  0.8590  0.3070
    3SAPS   H3X  352   4.069   1.202   6.944 -0.4162  0.4083  2.2978
    3SAPS   H3Y  353   4.105   1.027   6.891  1.6403  0.1901  0.4125
    3SAPS   C34  354   4.264   1.164   6.873 -0.2014  0.5374 -0.7526
    3SAPS   H4X  355   4.335   1.081   6.855 -1.0858 -0.0782 -1.4732
    3SAPS   H4Y  356   4.313   1.238   6.940 -1.2326  1.0207 -0.5135
    3SAPS   C35  357   4.221   1.242   6.746 -0.0427  0.1983 -0.2489
    3SAPS   H5X  358   4.125   1.297   6.757 -1.1962 -2.1654  3.4216
    3SAPS   H5Y  359   4.300   1.320   6.740  0.0957 -0.0325 -1.9419
    3SAPS   C36  360   4.232   1.155   6.619 -0.4320  0.3196 -0.3395
    3SAPS   H6X  361   4.169   1.066   6.640 -0.8771  0.7377  0.1223
    3SAPS   H6Y  362   4.329   1.102   6.610 -0.4685 -0.2538  2.0020
    3SAPS   C37  363   4.184   1.212   6.489 -0.0764 -0.5368  0.8480
    3SAPS   H7X  364   4.237   1.308   6.473  0.3987 -0.6298  1.7826
    3SAPS   H7Y  365   4.077   1.236   6.511 -0.1407  1.1902 -1.0527
    3SAPS   C38  366   4.209   1.130   6.363  0.1284  0.5532  0.1785
    3SAPS   H8X  367   4.163   1.032   6.387  0.8016  0.2803  0.3605
    3SAPS   H8Y  368   4.317   1.111   6.348 -0.4314 -3.6666  0.2904
    3SAPS   C39  369   4.155   1.199   6.242 -0.7880  0.0022  1.0165
    3SAPS   H9X  370   4.211   1.292   6.221  0.7723 -1.0795  0.0999
    3SAPS   H9Y  371   4.047   1.216   6.261 -1.2101 -1.3209 -0.0191
    3SAPS  C310  372   4.172   1.108   6.113  0.0789 -0.3025 -0.5987
    3SAPS  H10X  373   4.135   1.006   6.136 -3.3290  1.1552  1.1363
    3SAPS  H10Y  374   4.279   1.111   6.084  0.1457  1.1067 -0.3035
    3SAPS  C311  375   4.089   1.175   5.999  0.6658 -0.4195 -0.0580
    3SAPS  H11X  376   4.128   1.278   5.982  1.9247 -0.8725 -0.0879
    3SAPS  H11Y  377   3.986   1.178   6.040  2.1553  0.2779  4.1597
    3SAPS  C312  378   4.092   1.091   5.876 -0.3295  0.4649  0.5061
    3SAPS  H12X  379   3.985   1.073   5.852  0.2651 -2.0637 -0.6577
    3SAPS  H12Y  380   4.127   0.989   5.904  1.2757  1.3155  1.7944
    3SAPS  C313  381   4.167   1.156   5.751  0.0730 -0.0195 -0.6428
    3SAPS  H13X  382   4.264   1.194   5.788  0.5576 -1.9084  0.0862
    3SAPS  H13Y  383   4.101   1.243   5.726  2.0793  1.4102 -1.2599
    3SAPS  C314  384   4.186   1.048   5.646  0.1563 -0.6712  0.6568
    3SAPS  H14X  385   4.088   1.011   5.608 -1.4834 -1.4358  5.1056
    3SAPS  H14Y  386   4.231   0.955   5.685 -0.1553 -1.2056 -0.2190
    3SAPS  C315  387   4.288   1.085   5.534 -0.3382 -1.0834  0.4245
    3SAPS  H15X  388   4.292   0.992   5.474 -0.7865 -0.2204 -0.9973
    3SAPS  H15Y  389   4.387   1.100   5.581  0.3287 -0.4288 -1.1366
    3SAPS  C316  390   4.253   1.204   5.441 -0.0070 -0.2847  0.2951
    3SAPS  H16X  391   4.347   1.226   5.387 -0.6412  1.8169 -0.0361
    3SAPS  H16Y  392   4.226   1.289   5.508  2.1842  0.4027  0.3553
    3SAPS  C317  393   4.134   1.186   5.347 -0.9079  0.0127  1.1114
    3SAPS  H17X  394   4.041   1.164   5.403  0.4432 -2.6310  2.5115
    3SAPS  H17Y  395   4.155   1.099   5.281 -1.3993  0.6489  0.0793
    3SAPS  C318  396   4.109   1.310   5.256  0.2571  0.2868  0.2669
    3SAPS  H18X  397   4.053   1.387   5.314  0.3934  0.9062 -0.4029
    3SAPS  H18Y  398   4.042   1.281   5.173 -0.9410 -0.5861  1.5034
    3SAPS  H18Z  399   4.200   1.347   5.203  0.0097 -0.4163 -0.6725
    4SAPS     N  400   2.808   4.243   7.438  0.0278  0.0071 -0.4653
    4SAPS   HN1  401   2.903   4.201   7.438  0.0395  0.0331 -0.3466
    4SAPS   HN2  402   2.746   4.176   7.388 -1.6286  0.8153  0.4380
    4SAPS   HN3  403   2.810   4.334   7.388 -2.1776  0.4590  0.1633
    4SAPS   C12  404   2.751   4.258   7.571 -0.2957  0.3198  0.2797
    4SAPS  H12A  405   2.650   4.219   7.562  0.5238 -1.7038 -0.6409
    4SAPS   C13  406   2.826   4.175   7.673 -0.2360 -0.8701  1.2188
    4SAPS  O13A  407   2.925   4.106   7.634 -0.2141  0.1793 -0.1125
    4SAPS  O13B  408   2.782   4.163   7.794  0.0082  0.3554 -0.4673
    4SAPS   C11  409   2.759   4.405   7.608  0.4615 -0.3499 -0.2480
    4SAPS  H11A  410   2.857   4.451   7.581 -0.0567 -0.1723 -1.9380
    4SAPS  H11B  411   2.745   4.407   7.718 -0.2216  0.5706 -0.3362
    4SAPS     P  412   2.673   4.587   7.440 -0.6147 -0.3173 -0.2214
    4SAPS   O13  413   2.562   4.602   7.340 -0.4250 -0.0390  0.2843
    4SAPS   O14  414   2.727   4.704   7.515 -0.2702  0.1616 -0.4875
    4SAPS   O12  415   2.639   4.475   7.551 -0.0974  0.0390  0.3426
    4SAPS   O11  416   2.793   4.518   7.366  0.5989 -0.4920 -0.7713
    4SAPS    C1  417   2.913   4.585   7.328 -0.1539  0.0539  0.2291
    4SAPS    HA  418   2.953   4.657   7.403 -1.9413  0.3849  0.9185
    4SAPS    HB  419   2.988   4.505   7.313 -1.7960 -1.6025  0.4783
    4SAPS    C2  420   2.912   4.671   7.202  0.1710  0.6074  0.3505
    4SAPS    HS  421   2.851   4.759   7.233  2.0749  2.0865  0.1023
    4SAPS   O21  422   2.843   4.604   7.097 -0.0089 -0.8323 -0.4471
    4SAPS   C21  423   2.799   4.684   6.997 -0.1684  0.7401 -0.6462
    4SAPS   O22  424   2.802   4.806   6.997  0.0528 -0.3694 -0.2610
    4SAPS   C22  425   2.758   4.597   6.880 -0.0021  0.0578  0.1809
    4SAPS   H2R  426   2.851   4.552   6.841 -0.4936 -0.5516 -0.3143
    4SAPS   H2S  427   2.688   4.514   6.908  0.6366 -0.6749 -0.3602
    4SAPS    C3  428   3.048   4.724   7.167 -0.3050 -0.1127  0.4875
    4SAPS    HX  429   3.085   4.786   7.252 -0.1663 -1.4692  1.4643
    4SAPS    HY  430   3.051   4.796   7.083  1.7139 -0.9210 -0.1996
    4SAPS   O31  431   3.144   4.616   7.145  0.0215 -0.1533 -0.3579
    4SAPS   C31  432   3.160   4.588   7.012  0.1639  0.7045 -0.7182
    4SAPS   O32  433   3.108   4.657   6.922 -0.3865 -0.3831  0.7307
    4SAPS   C32  434   3.230   4.452   7.001 -0.0566  1.0167 -0.4702
    4SAPS   H2X  435   3.280   4.429   7.097 -1.2452 -1.6582 -0.4229
    4SAPS   H2Y  436   3.312   4.463   6.928  0.9111  0.8954  0.5705
    4SAPS   C23  437   2.688   4.688   6.787  0.5299  0.3951  0.3577
    4SAPS   H3R  438   2.738   4.787   6.776 -0.6042  1.0500  0.9555
    4SAPS   H3S  439   2.591   4.718   6.832 -0.2463  0.1518 -1.0760
    4SAPS   C24  440   2.648   4.623   6.653 -0.9141  0.0998  0.1223
    4SAPS   H4R  441   2.562   4.679   6.610 -0.1558  0.6694 -0.6933
    4SAPS   H4S  442   2.624   4.516   6.670  1.1782 -0.2327  1.3962
    4SAPS   C25  443   2.769   4.624   6.563  0.1486  0.2093 -0.1701
    4SAPS   H5R  444   2.860   4.586   6.612  0.1572  1.2281  0.6344
    4SAPS   C26  445   2.769   4.674   6.437 -0.5503  0.2024  0.7205
    4SAPS   H6R  446   2.861   4.700   6.384 -0.5373  0.4885  0.8765
    4SAPS   C27  447   2.655   4.727   6.361  0.7627 -0.3391  0.2390
    4SAPS   H7R  448   2.619   4.808   6.428  0.7077  0.0334 -0.2378
    4SAPS   H7S  449   2.567   4.660   6.352  1.1308 -0.7439 -0.4483
    4SAPS   C28  450   2.691   4.776   6.217  0.3171  0.0067  0.1969
    4SAPS   H8R  451   2.728   4.879   6.222 -0.0820  0.1148  1.4190
    4SAPS   C29  452   2.705   4.695   6.107  0.2587  0.2286  0.6988
    4SAPS   H9R  453   2.745   4.744   6.016 -0.7736 -1.0952 -0.5106
    4SAPS  C210  454   2.678   4.550   6.087 -0.8206 -0.2366  0.0076
    4SAPS  H10R  455   2.583   4.530   6.032 -1.5516 -2.9815  2.0427
    4SAPS  H10S  456   2.659   4.495   6.182  2.8531  1.1460  1.7314
    4SAPS  C211  457   2.797   4.488   6.008  0.7822 -0.1688  0.4087
    4SAPS  H11R  458   2.878   4.462   6.078 -0.6039 -1.0045  1.7662
    4SAPS  C212  459   2.807   4.451   5.879  0.3115 -0.0014 -0.0648
    4SAPS  H12R  460   2.895   4.397   5.841  0.0613  0.2018 -0.9386
    4SAPS  C213  461   2.709   4.496   5.773  0.0030 -0.2306  0.4232
    4SAPS  H13R  462   2.751   4.584   5.719 -0.7707  1.3665  2.3202
    4SAPS  H13S  463   2.612   4.528   5.816  0.0023  0.5836 -0.1482
    4SAPS  C214  464   2.671   4.389   5.675 -0.1659  0.0663 -0.5160
    4SAPS  H14R  465   2.577   4.340   5.706  1.6460 -3.9823 -0.8657
    4SAPS  C215  466   2.735   4.350   5.567 -0.0873 -0.1292 -0.5090
    4SAPS  H15R  467   2.696   4.258   5.520 -3.6283  1.3320 -0.6553
    4SAPS  C216  468   2.868   4.406   5.520  0.4162  0.2121 -0.2574
    4SAPS  H16R  469   2.939   4.322   5.505 -1.4032 -1.4439 -0.0247
    4SAPS  H16S  470   2.898   4.488   5.588 -1.5673  0.7762  0.0094
    4SAPS  C217  471   2.847   4.479   5.384 -1.0114  0.0296 -0.7575
    4SAPS  H17R  472   2.787   4.570   5.405  0.4871  1.0053 -0.5509
    4SAPS  H17S  473   2.785   4.431   5.305 -0.9818  0.5476 -1.0993
    4SAPS  C218  474   2.985   4.512   5.309  0.2876  1.0870  0.6407
    4SAPS  H18R  475   3.049   4.424   5.290  1.5958  1.6925  2.0014
    4SAPS  H18S  476   3.038   4.579   5.381 -2.6860  2.4846  1.6974
    4SAPS  C219  477   2.964   4.581   5.173 -0.2514 -0.0976  0.6784
    4SAPS  H19R  478   2.893   4.512   5.124 -0.1680 -1.2246  2.0881
    4SAPS  H19S  479   3.055   4.592   5.109 -0.8705  0.3436 -0.1517
    4SAPS  C220  480   2.893   4.711   5.179 -0.2087 -0.9876 -0.3051
    4SAPS  H20R  481   2.791   4.700   5.220 -0.0077 -1.0359  0.1944
    4SAPS  H20S  482   2.872   4.761   5.082 -4.3991 -1.3517  0.2513
    4SAPS  H20T  483   2.947   4.780   5.249 -1.0747  0.2632 -0.8369
    4SAPS   C33  484   3.134   4.342   6.966 -0.6695 -0.2074 -0.3909
    4SAPS   H3X  485   3.038   4.353   7.020  0.0152  4.5155  0.2893
    4SAPS   H3Y  486   3.183   4.246   6.992 -0.9050 -0.0595  0.6261
    4SAPS   C34  487   3.105   4.351   6.811 -0.2804 -0.1328  0.1716
    4SAPS   H4X  488   3.204   4.348   6.761 -1.3132 -1.2292 -1.9351
    4SAPS   H4Y  489   3.052   4.446   6.786  0.0279 -0.4576 -1.9111
    4SAPS   C35  490   3.008   4.254   6.759  0.0268  1.2232  0.2738
    4SAPS   H5X  491   2.910   4.256   6.810 -0.0098 -0.3918  0.3289
    4SAPS   H5Y  492   3.039   4.147   6.762 -1.2310  0.8611  2.2081
    4SAPS   C36  493   2.988   4.279   6.612 -0.1668  0.0012  0.8249
    4SAPS   H6X  494   3.092   4.293   6.575  0.6839 -2.0392  2.2876
    4SAPS   H6Y  495   2.919   4.363   6.591  0.3168 -0.3083 -2.6326
    4SAPS   C37  496   2.935   4.156   6.531 -0.7117  0.0185 -0.2285
    4SAPS   H7X  497   2.841   4.136   6.586 -0.6690  0.6679  0.0875
    4SAPS   H7Y  498   3.008   4.075   6.551  0.4749  1.4535  1.5415
    4SAPS   C38  499   2.905   4.162   6.378  0.4940  0.2069  0.3123
    4SAPS   H8X  500   2.992   4.207   6.325 -0.7223  0.3563 -1.6615
    4SAPS   H8Y  501   2.824   4.238   6.376  0.3209  0.1026  2.1078
    4SAPS   C39  502   2.873   4.020   6.310 -0.9070 -0.5484 -0.0424
    4SAPS   H9X  503   2.782   3.979   6.357 -1.8593 -0.1517 -1.4799
    4SAPS   H9Y  504   2.947   3.944   6.344 -1.8295 -1.6851 -0.5168
    4SAPS  C310  505   2.865   4.026   6.159 -0.2667 -0.2854 -0.2831
    4SAPS  H10X  506   2.792   4.104   6.127 -0.4203 -1.5267 -3.2807
    4SAPS  H10Y  507   2.836   3.931   6.111  0.5935 -0.4570 -0.4624
    4SAPS  C311  508   2.998   4.062   6.090  0.0419 -0.0233 -0.2711
    4SAPS  H11X  509   3.078   3.991   6.117  2.3821  2.5077 -0.0558
    4SAPS  H11Y  510   3.038   4.159   6.128 -0.5221  0.8371 -1.7517
    4SAPS  C312  511   2.976   4.061   5.936  0.1913  0.1131  0.1280
    4SAPS  H12X  512   2.893   4.133   5.916  0.7602  0.9046  0.5831
    4SAPS  H12Y  513   2.942   3.959   5.907  1.6921 -0.4982  0.4550
    4SAPS  C313  514   3.104   4.080   5.851 -0.1191  0.6179 -1.1361
    4SAPS  H13X  515   3.180   4.003   5.872 -1.2699 -0.8733 -2.1715
    4SAPS  H13Y  516   3.149   4.179   5.871  0.7090 -0.1176  0.8785
    4SAPS  C314  517   3.063   4.082   5.702  0.4638 -0.0203 -0.0543
    4SAPS  H14X  518   2.996   4.169   5.691 -2.4488 -2.0534  0.4484
    4SAPS  H14Y  519   2.993   3.998   5.683 -1.4265  1.6819 -0.9899
    4SAPS  C315  520   3.182   4.062   5.600 -0.2869  0.4400 -0.3283
    4SAPS  H15X  521   3.267   4.019   5.657  0.8246  1.6119 -1.0318
    4SAPS  H15Y  522   3.215   4.165   5.573  0.3512  0.4731  0.5306
    4SAPS  C316  523   3.144   3.995   5.468 -0.4225  0.8188  0.0237
    4SAPS  H16X  524   3.107   3.893   5.490  0.5160  0.5075  0.2083
    4SAPS  H16Y  525   3.244   3.984   5.420 -0.7007 -1.6658 -0.1094
    4SAPS  C317  526   3.043   4.077   5.385 -0.2396 -0.4085  0.3387
    4SAPS  H17X  527   3.081   4.171   5.339 -0.6918 -0.8220 -0.9267
    4SAPS  H17Y  528   2.947   4.096   5.438 -1.9473 -1.1637 -2.2736
    4SAPS  C318  529   2.999   3.989   5.268  0.3998 -0.2477  0.7895
    4SAPS  H18X  530   2.929   4.051   5.208  0.4727 -0.2640  0.6895
    4SAPS  H18Y  531   2.951   3.891   5.287 -3.0674  1.3804  1.2361
    4SAPS  H18Z  532   3.081   3.978   5.195  0.7504 -0.3298  1.1898
    5SAPS     N  533   5.132   1.325   7.425  0.2458  0.5120 -0.2184
    5SAPS   HN1  534   5.177   1.282   7.341  2.1159  1.2357  0.3745
    5SAPS   HN2  535   5.104   1.418   7.386  0.6210 -0.1245 -2.1481
    5SAPS   HN3  536   5.200   1.336   7.502  0.4581  1.0221 -0.4714
    5SAPS   C12  537   5.017   1.236   7.465 -0.7289 -0.0783  0.4312
    5SAPS  H12A  538   5.055   1.139   7.495 -0.4396 -0.4301 -0.9899
    5SAPS   C13  539   4.934   1.279   7.585  0.6720  0.0872  0.2584
    5SAPS  O13A  540   4.958   1.384   7.649  0.0212 -0.6642  0.2654
    5SAPS  O13B  541   4.824   1.215   7.605 -0.4173  0.1629  0.1149
    5SAPS   C11  542   4.925   1.210   7.336  0.7749 -0.0730 -0.6368
    5SAPS  H11A  543   4.883   1.312   7.320 -0.5120 -0.6092 -0.7744
    5SAPS  H11B  544   4.843   1.147   7.376  0.2399  0.6081 -0.6383
    5SAPS     P  545   5.009   1.001   7.192 -0.5925  0.2104  0.1534
    5SAPS   O13  546   5.113   0.985   7.086  0.4707  0.2456  0.4064
    5SAPS   O14  547   5.038   0.930   7.320 -0.7390  0.2950 -0.0190
    5SAPS   O12  548   4.990   1.152   7.222 -0.0833 -1.2080 -0.2182
    5SAPS   O11  549   4.863   0.952   7.147 -0.0466 -0.2992 -0.7655
    5SAPS    C1  550   4.839   0.818   7.116  0.1265  0.0812 -0.0792
    5SAPS    HA  551   4.938   0.780   7.083  0.3542  2.7915 -2.9898
    5SAPS    HB  552   4.786   0.771   7.201 -0.6824  1.7311  0.3645
    5SAPS    C2  553   4.737   0.795   7.002  0.2333 -0.3623  0.1825
    5SAPS    HS  554   4.736   0.688   6.973  0.8058 -0.3622  0.1451
    5SAPS   O21  555   4.782   0.888   6.902 -0.5648  0.8011  0.3530
    5SAPS   C21  556   4.807   0.823   6.788  0.6974  0.5103 -0.1774
    5SAPS   O22  557   4.808   0.704   6.769 -0.0320  0.8209 -0.4426
    5SAPS   C22  558   4.830   0.917   6.669  0.9215  0.0864  0.3281
    5SAPS   H2R  559   4.753   0.996   6.680 -0.6319 -1.2770 -0.4136
    5SAPS   H2S  560   4.931   0.963   6.677  0.5258  1.3271 -1.1805
    5SAPS    C3  561   4.591   0.839   7.039 -0.2135 -0.4715 -0.9115
    5SAPS    HX  562   4.610   0.943   7.073  0.5852 -0.6175 -0.8842
    5SAPS    HY  563   4.551   0.788   7.129  2.0990 -1.4329 -0.3570
    5SAPS   O31  564   4.504   0.830   6.925 -0.4197 -0.6307  0.1367
    5SAPS   C31  565   4.454   0.710   6.903  1.1394 -0.0253 -0.2183
    5SAPS   O32  566   4.452   0.621   6.980  0.0615  0.0926  0.5550
    5SAPS   C32  567   4.369   0.715   6.777  0.3289 -0.1205  0.3166
    5SAPS   H2X  568   4.410   0.779   6.695 -2.8859 -1.3997 -2.5245
    5SAPS   H2Y  569   4.273   0.757   6.811  0.5241  1.0203 -0.4650
    5SAPS   C23  570   4.821   0.839   6.533 -0.7659 -0.6560 -0.2147
    5SAPS   H3R  571   4.732   0.772   6.524 -0.3538 -1.1878 -0.4000
    5SAPS   H3S  572   4.915   0.783   6.517 -0.0858  0.4562 -0.1539
    5SAPS   C24  573   4.814   0.939   6.417 -0.2022 -0.5646  0.6037
    5SAPS   H4R  574   4.727   1.005   6.439  0.2524  1.4263 -2.8554
    5SAPS   H4S  575   4.795   0.884   6.323  1.2765  0.8143 -0.5660
    5SAPS   C25  576   4.939   1.023   6.405  0.2518  0.7006  0.1651
    5SAPS   H5R  577   4.971   1.082   6.492 -0.0824 -0.2749  0.9613
    5SAPS   C26  578   5.021   1.021   6.297 -0.7644  0.5144  0.1333
    5SAPS   H6R  579   5.107   1.088   6.301 -1.0231  0.9578 -1.2320
    5SAPS   C27  580   5.009   0.945   6.171  0.3852  0.0999 -0.1155
    5SAPS   H7R  581   4.952   0.851   6.189  1.1335 -0.2555  0.4344
    5SAPS   H7S  582   5.108   0.922   6.126 -0.4803  2.2455 -3.4611
    5SAPS   C28  583   4.935   1.040   6.073 -0.0408 -0.4220  0.4192
    5SAPS   H8R  584   4.867   1.117   6.112  1.0503  0.2795  0.9902
    5SAPS   C29  585   4.945   1.036   5.938  0.5803 -0.0157  0.3206
    5SAPS   H9R  586   4.893   1.104   5.870  0.9743  1.7048  1.6762
    5SAPS  C210  587   5.022   0.934   5.864 -0.0174 -0.3298  0.1951
    5SAPS  H10R  588   5.083   0.864   5.925  0.9064 -0.5136 -0.9071
    5SAPS  H10S  589   5.095   0.992   5.803  1.2924 -1.5934  0.4988
    5SAPS  C211  590   4.918   0.857   5.773 -0.6230  0.9019 -0.6265
    5SAPS  H11R  591   4.849   0.790   5.826 -0.0037  1.9472  1.6464
    5SAPS  C212  592   4.930   0.861   5.638  0.7341  0.1050 -0.4110
    5SAPS  H12R  593   4.857   0.799   5.585  2.2133 -0.3878 -1.9673
    5SAPS  C213  594   5.027   0.943   5.549 -0.1857 -0.3689  0.1371
    5SAPS  H13R  595   5.028   0.884   5.455  0.5323  1.8126 -1.3215
    5SAPS  H13S  596   5.133   0.933   5.580 -0.1458 -1.9834 -0.4251
    5SAPS  C214  597   4.993   1.088   5.523  0.5870 -0.1114 -0.1071
    5SAPS  H14R  598   4.987   1.142   5.618  2.2235  0.3121 -0.2112
    5SAPS  C215  599   4.979   1.148   5.408 -0.2034 -0.3381  1.3633
    5SAPS  H15R  600   4.947   1.253   5.407  1.1063  0.1968 -2.5477
    5SAPS  C216  601   4.991   1.083   5.270 -0.0341  0.5993 -0.4289
    5SAPS  H16R  602   4.913   1.113   5.197  0.7980  0.6002 -1.3405
    5SAPS  H16S  603   4.970   0.976   5.291 -0.1344  0.7223  0.0964
    5SAPS  C217  604   5.119   1.092   5.182 -0.0300 -0.4237 -0.7362
    5SAPS  H17R  605   5.207   1.053   5.237  0.0603 -2.0592 -1.9488
    5SAPS  H17S  606   5.140   1.200   5.171 -3.8723  0.3861 -1.6823
    5SAPS  C218  607   5.108   1.023   5.045 -0.5124  0.5546  0.0641
    5SAPS  H18R  608   5.034   1.070   4.977  2.0469  0.9626 -2.6718
    5SAPS  H18S  609   5.089   0.917   5.071  1.3824  0.2836  0.5051
    5SAPS  C219  610   5.242   1.020   4.978 -0.4827 -0.0152  0.0051
    5SAPS  H19R  611   5.269   1.128   4.981  1.6938 -0.5154 -0.0688
    5SAPS  H19S  612   5.235   0.989   4.872  0.9223  1.3419 -0.5369
    5SAPS  C220  613   5.356   0.948   5.052  0.3262 -0.4157 -0.9499
    5SAPS  H20R  614   5.454   0.950   5.000  2.0808  0.9867  2.1445
    5SAPS  H20S  615   5.334   0.843   5.083 -2.0221  1.3078  4.3936
    5SAPS  H20T  616   5.372   1.006   5.145  3.1012 -0.2992 -1.4138
    5SAPS   C33  617   4.336   0.572   6.716 -1.0458 -0.5589 -0.0673
    5SAPS   H3X  618   4.247   0.589   6.652 -0.5936  0.0753 -0.5387
    5SAPS   H3Y  619   4.294   0.518   6.804 -2.6988  1.7476  0.6350
    5SAPS   C34  620   4.445   0.497   6.640  0.2672  1.1443 -0.2127
    5SAPS   H4X  621   4.406   0.396   6.615 -1.1536  1.5815  0.1192
    5SAPS   H4Y  622   4.527   0.476   6.711 -1.4532  0.4241  1.6677
    5SAPS   C35  623   4.495   0.546   6.505  0.2349 -0.0173  0.2689
    5SAPS   H5X  624   4.563   0.466   6.469 -1.0772 -1.1674  0.2840
    5SAPS   H5Y  625   4.563   0.626   6.543  2.6155 -1.8717  0.1025
    5SAPS   C36  626   4.391   0.599   6.402  0.4134  0.0531 -0.3687
    5SAPS   H6X  627   4.328   0.666   6.464  1.1538 -1.0147  1.6563
    5SAPS   H6Y  628   4.328   0.511   6.377  0.5176 -0.1453  0.0516
    5SAPS   C37  629   4.437   0.669   6.280  0.2702  0.2555  0.0394
    5SAPS   H7X  630   4.514   0.602   6.236 -1.4285 -0.3502 -2.1345
    5SAPS   H7Y  631   4.483   0.768   6.304 -1.5592  0.8633  1.2498
    5SAPS   C38  632   4.328   0.694   6.177  0.6489 -0.3205  0.0577
    5SAPS   H8X  633   4.233   0.727   6.224 -0.3738 -0.8953 -1.5005
    5SAPS   H8Y  634   4.318   0.596   6.126  0.8640 -0.0709 -0.4691
    5SAPS   C39  635   4.359   0.787   6.061 -0.2991 -0.3915 -0.0245
    5SAPS   H9X  636   4.383   0.883   6.112 -1.1732 -0.7705  1.1420
    5SAPS   H9Y  637   4.274   0.807   5.993  0.1591  0.1324 -0.4502
    5SAPS  C310  638   4.482   0.740   5.973  0.3516  0.3587  0.1343
    5SAPS  H10X  639   4.569   0.703   6.031 -0.8240 -3.2727 -0.1386
    5SAPS  H10Y  640   4.510   0.816   5.897  0.0923  0.1430 -0.1813
    5SAPS  C311  641   4.437   0.622   5.882  0.0713  0.3066  0.1093
    5SAPS  H11X  642   4.329   0.617   5.857  0.3311 -1.6617 -0.7654
    5SAPS  H11Y  643   4.464   0.521   5.920  1.7863 -0.9280 -3.8081
    5SAPS  C312  644   4.521   0.621   5.754  0.4165  0.0287  0.3527
    5SAPS  H12X  645   4.523   0.522   5.704 -1.1626  1.0480 -1.9105
    5SAPS  H12Y  646   4.630   0.637   5.770  0.1149  1.2837  1.2428
    5SAPS  C313  647   4.464   0.709   5.647  0.1393 -0.0809  0.4072
    5SAPS  H13X  648   4.490   0.815   5.671 -0.1406  0.1863 -0.4621
    5SAPS  H13Y  649   4.354   0.705   5.635  0.1404  1.2162 -0.1686
    5SAPS  C314  650   4.530   0.676   5.510  0.7884  0.7190 -0.5867
    5SAPS  H14X  651   4.500   0.575   5.476 -0.7976  0.9888 -0.0686
    5SAPS  H14Y  652   4.640   0.696   5.511  0.7863  0.7224 -0.3103
    5SAPS  C315  653   4.479   0.784   5.409  0.0320  0.4023 -0.6972
    5SAPS  H15X  654   4.496   0.879   5.463  2.1670  0.4304 -1.3007
    5SAPS  H15Y  655   4.372   0.759   5.395 -0.1086  1.2825 -1.2909
    5SAPS  C316  656   4.556   0.782   5.280 -0.1502  0.7458  0.6290
    5SAPS  H16X  657   4.547   0.682   5.232  2.3386  0.0601  1.4438
    5SAPS  H16Y  658   4.663   0.811   5.288 -0.2177  0.6439  2.3118
    5SAPS  C317  659   4.497   0.887   5.181  1.1808 -0.1135 -0.2553
    5SAPS  H17X  660   4.393   0.854   5.160  1.0406 -1.5209  2.3249
    5SAPS  H17Y  661   4.548   0.885   5.082  0.3302  0.0021 -0.7051
    5SAPS  C318  662   4.503   1.034   5.240  0.2335  1.2942 -0.2148
    5SAPS  H18X  663   4.431   1.035   5.325 -0.1177  0.8503 -0.4991
    5SAPS  H18Y  664   4.463   1.106   5.165 -0.2626 -0.1853 -1.4119
    5SAPS  H18Z  665   4.607   1.060   5.271  0.5970  1.2065 -1.3223
    6SAPS     N  666   1.458   6.482   7.485 -0.4230 -0.4491  0.0110
    6SAPS   HN1  667   1.520   6.514   7.562 -1.8183 -0.4250  1.1738
    6SAPS   HN2  668   1.384   6.552   7.461  1.6055  2.0912  0.7268
    6SAPS   HN3  669   1.404   6.403   7.525 -0.1555  0.8995  3.3444
    6SAPS   C12  670   1.532   6.427   7.358  0.3856 -0.2014  0.1673
    6SAPS  H12A  671   1.620   6.482   7.331  0.7343 -0.3475  0.9724
    6SAPS   C13  672   1.584   6.283   7.370  0.5086  0.2719  0.0076
    6SAPS  O13A  673   1.532   6.203   7.458  0.1148 -0.1631  0.4207
    6SAPS  O13B  674   1.672   6.235   7.293  0.1941  0.0636 -0.2507
    6SAPS   C11  675   1.435   6.429   7.236  0.3953 -0.3016 -0.0540
    6SAPS  H11A  676   1.358   6.356   7.269  0.5420 -0.5020 -0.1572
    6SAPS  H11B  677   1.486   6.387   7.147 -0.3294 -1.3178 -0.0039
    6SAPS     P  678   1.423   6.678   7.146 -0.2082  0.0934  0.4858
    6SAPS   O13  679   1.303   6.762   7.113 -0.3552 -0.1886  0.3945
    6SAPS   O14  680   1.528   6.741   7.227 -0.0950 -0.4675 -0.6518
    6SAPS   O12  681   1.372   6.554   7.226  0.4593  0.8269 -0.1374
    6SAPS   O11  682   1.474   6.604   7.013  0.3667  0.0249 -0.9193
    6SAPS    C1  683   1.560   6.670   6.922 -0.1329 -0.3779 -1.2547
    6SAPS    HA  684   1.644   6.722   6.973  1.1549 -1.2936 -2.4039
    6SAPS    HB  685   1.596   6.594   6.850  0.3491 -0.6119 -0.7762
    6SAPS    C2  686   1.489   6.780   6.845 -0.5739  0.3522  1.2621
    6SAPS    HS  687   1.441   6.857   6.910 -3.3474  0.9558 -1.3062
    6SAPS   O21  688   1.382   6.729   6.757 -0.2689 -0.1225 -1.3197
    6SAPS   C21  689   1.296   6.823   6.725  0.6165 -0.3313  0.0456
    6SAPS   O22  690   1.288   6.935   6.779 -0.2541  0.5591  0.0050
    6SAPS   C22  691   1.206   6.783   6.607  0.0191  0.3525 -0.1517
    6SAPS   H2R  692   1.238   6.682   6.572 -1.3199  0.0378 -0.5457
    6SAPS   H2S  693   1.104   6.780   6.652  0.1045  0.3586  0.0425
    6SAPS    C3  694   1.585   6.865   6.761 -0.2806  0.1729 -0.2137
    6SAPS    HX  695   1.660   6.915   6.826 -1.0722  3.0173 -1.3331
    6SAPS    HY  696   1.529   6.957   6.734 -2.5371 -0.5930  1.5598
    6SAPS   O31  697   1.634   6.801   6.639  0.1255  0.1189  0.3174
    6SAPS   C31  698   1.761   6.769   6.646  0.3080  0.4731  0.5696
    6SAPS   O32  699   1.836   6.780   6.741 -0.2091  0.2118 -0.3234
    6SAPS   C32  700   1.795   6.685   6.519  0.0799 -0.5351  0.0890
    6SAPS   H2X  701   1.719   6.713   6.443  0.7006 -1.3742 -0.8681
    6SAPS   H2Y  702   1.784   6.575   6.532 -2.4045 -0.3078  0.5386
    6SAPS   C23  703   1.209   6.888   6.494  0.8342 -0.2336 -0.1073
    6SAPS   H3R  704   1.193   6.987   6.543  0.8797 -1.3729  2.3280
    6SAPS   H3S  705   1.117   6.870   6.435  0.5224 -2.3548  0.9369
    6SAPS   C24  706   1.335   6.910   6.409 -0.5992 -0.5142  0.3105
    6SAPS   H4R  707   1.422   6.928   6.475 -0.0401  0.7210 -0.7291
    6SAPS   H4S  708   1.319   7.006   6.356 -1.5244 -2.1928 -2.6448
    6SAPS   C25  709   1.370   6.804   6.311 -0.6565  0.0375  0.3260
    6SAPS   H5R  710   1.298   6.722   6.299  0.4512 -1.3614  2.6145
    6SAPS   C26  711   1.470   6.820   6.221 -0.6523  0.4834  0.0750
    6SAPS   H6R  712   1.478   6.739   6.147  0.2468  0.0613  0.6200
    6SAPS   C27  713   1.565   6.931   6.205  0.3487 -0.3710 -0.4900
    6SAPS   H7R  714   1.666   6.890   6.182 -0.0094 -1.8992  0.5127
    6SAPS   H7S  715   1.572   6.982   6.303  3.6070  0.1147 -0.8645
    6SAPS   C28  716   1.531   7.030   6.102  0.1008  0.1148  0.5680
    6SAPS   H8R  717   1.481   7.115   6.150 -1.5736 -1.1560  1.1900
    6SAPS   C29  718   1.536   7.018   5.969  0.1538 -0.2730 -0.1124
    6SAPS   H9R  719   1.525   7.109   5.909  0.8403 -0.1888 -0.1150
    6SAPS  C210  720   1.580   6.907   5.880 -0.0789 -0.3018  0.1572
    6SAPS  H10R  721   1.604   6.811   5.932  1.1700 -0.6149 -0.9476
    6SAPS  H10S  722   1.672   6.929   5.822 -0.8129  1.0412 -0.5454
    6SAPS  C211  723   1.484   6.877   5.777  0.4488 -0.3270  0.3831
    6SAPS  H11R  724   1.382   6.866   5.817  0.2138  1.0709  0.2112
    6SAPS  C212  725   1.504   6.881   5.645 -0.0614 -0.1237  0.3630
    6SAPS  H12R  726   1.416   6.847   5.588  0.8957 -0.6560 -0.8438
    6SAPS  C213  727   1.625   6.896   5.568 -0.4477 -0.3191  0.4693
    6SAPS  H13R  728   1.612   6.842   5.471  0.8128  1.5691 -0.8280
    6SAPS  H13S  729   1.703   6.843   5.626 -2.0118 -2.5714  0.6581
    6SAPS  C214  730   1.650   7.042   5.548 -0.0189  0.0660 -0.6474
    6SAPS  H14R  731   1.678   7.091   5.642 -1.4645 -0.3962  0.0504
    6SAPS  C215  732   1.631   7.118   5.440  0.7725  0.5192  0.0137
    6SAPS  H15R  733   1.664   7.222   5.449 -1.5324  1.1517  2.5078
    6SAPS  C216  734   1.574   7.078   5.302  0.4507  0.2571 -0.0960
    6SAPS  H16R  735   1.475   7.030   5.315 -0.3470  1.7430 -0.4879
    6SAPS  H16S  736   1.637   6.998   5.256 -0.1399 -1.2003  1.5343
    6SAPS  C217  737   1.573   7.195   5.204 -0.2713  0.1097  0.2145
    6SAPS  H17R  738   1.666   7.257   5.210 -0.5475  0.4317  1.3346
    6SAPS  H17S  739   1.491   7.261   5.239 -0.4612 -0.5508  1.0224
    6SAPS  C218  740   1.538   7.159   5.057  0.2587  0.1406  0.0099
    6SAPS  H18R  741   1.495   7.248   5.007  3.7606  0.7096 -2.4054
    6SAPS  H18S  742   1.461   7.079   5.054  0.0612  0.2919  0.8894
    6SAPS  C219  743   1.650   7.106   4.969  0.6185  0.2809  0.4986
    6SAPS  H19R  744   1.699   7.021   5.021 -0.6485 -0.2636  0.8605
    6SAPS  H19S  745   1.720   7.191   4.955 -0.7791  1.3112 -0.5629
    6SAPS  C220  746   1.607   7.062   4.830 -0.2701  0.3041  0.2969
    6SAPS  H20R  747   1.601   7.149   4.761  1.7595 -0.0490 -0.4086
    6SAPS  H20S  748   1.508   7.015   4.846  0.1106 -0.2977  0.9335
    6SAPS  H20T  749   1.679   6.988   4.786 -1.7565  0.5958 -2.9193
    6SAPS   C33  750   1.936   6.723   6.465 -0.4147 -0.5602 -0.4100
    6SAPS   H3X  751   2.008   6.683   6.538 -1.4641 -0.4291  0.7342
    6SAPS   H3Y  752   1.942   6.833   6.483 -0.7370 -0.5160 -0.5479
    6SAPS   C34  753   1.980   6.665   6.328 -0.3842  0.2066  0.4270
    6SAPS   H4X  754   1.960   6.556   6.328  2.7911 -0.4876 -0.8643
    6SAPS   H4Y  755   2.090   6.670   6.320 -0.2761 -1.0540  0.9095
    6SAPS   C35  756   1.913   6.716   6.194  0.4414 -0.4337  0.5677
    6SAPS   H5X  757   1.935   6.824   6.182 -0.7853 -0.1057  1.1140
    6SAPS   H5Y  758   1.803   6.712   6.212 -0.3153  2.2772 -2.4101
    6SAPS   C36  759   1.945   6.629   6.070 -0.2466  0.8081 -1.0228
    6SAPS   H6X  760   1.930   6.522   6.098 -0.6706  1.1745  0.1969
    6SAPS   H6Y  761   2.055   6.627   6.054 -0.5090 -1.3179 -3.1335
    6SAPS   C37  762   1.869   6.672   5.946 -0.2552  0.1555  0.0635
    6SAPS   H7X  763   1.868   6.783   5.940 -3.1772  0.3268  1.7310
    6SAPS   H7Y  764   1.761   6.650   5.961 -0.2441  0.5278  0.7819
    6SAPS   C38  765   1.910   6.603   5.818  0.0663  0.1248  0.2069
    6SAPS   H8X  766   1.827   6.617   5.745 -2.1325 -0.6712  2.4074
    6SAPS   H8Y  767   1.913   6.493   5.833 -1.4860 -0.0489 -0.5306
    6SAPS   C39  768   2.044   6.647   5.758  0.5955 -0.2872 -0.0918
    6SAPS   H9X  769   2.121   6.640   5.837  0.8787  1.0632 -0.2173
    6SAPS   H9Y  770   2.035   6.756   5.737  1.1253  0.3161  2.4829
    6SAPS  C310  771   2.093   6.574   5.632  0.0739 -0.6232  0.1434
    6SAPS  H10X  772   2.100   6.470   5.671  0.8161 -0.2324  1.1016
    6SAPS  H10Y  773   2.197   6.610   5.618 -0.8123  1.9959 -0.2664
    6SAPS  C311  774   2.000   6.591   5.513 -0.4081 -0.1304  0.0682
    6SAPS  H11X  775   1.971   6.695   5.489  0.0191  0.4828  2.0125
    6SAPS  H11Y  776   1.903   6.542   5.539 -0.8587 -0.3883 -1.9205
    6SAPS  C312  777   2.063   6.522   5.392  0.3524  1.1192 -0.1829
    6SAPS  H12X  778   2.158   6.566   5.355  1.1937 -0.5137 -0.0342
    6SAPS  H12Y  779   1.990   6.539   5.310  0.2366  1.2898 -0.0462
    6SAPS  C313  780   2.079   6.368   5.408  0.2175  0.0629 -0.2218
    6SAPS  H13X  781   1.980   6.330   5.441  0.4681  0.5758  1.2008
    6SAPS  H13Y  782   2.149   6.341   5.490 -1.3613 -4.4032 -0.0320
    6SAPS  C314  783   2.121   6.298   5.270  0.0795 -0.4087  0.2076
    6SAPS  H14X  784   2.163   6.198   5.294  1.7238 -0.0219 -0.8319
    6SAPS  H14Y  785   2.202   6.362   5.227 -1.0836 -0.2837 -1.9490
    6SAPS  C315  786   2.015   6.299   5.153 -0.0208  0.8438 -0.2673
    6SAPS  H15X  787   2.010   6.404   5.117 -0.1832  0.2432 -2.0792
    6SAPS  H15Y  788   1.920   6.263   5.199  0.2611 -1.8935 -1.6133
    6SAPS  C316  789   2.050   6.210   5.026 -0.3021 -0.1153  0.3459
    6SAPS  H16X  790   1.950   6.170   4.996  0.6280 -1.1484 -1.5541
    6SAPS  H16Y  791   2.100   6.117   5.062  1.9000  0.7480 -0.3787
    6SAPS  C317  792   2.109   6.283   4.905  0.5242  0.2481 -0.1045
    6SAPS  H17X  793   2.038   6.332   4.836 -2.8488 -2.5847  1.0461
    6SAPS  H17Y  794   2.158   6.206   4.841 -0.6887 -0.2080 -0.5106
    6SAPS  C318  795   2.222   6.384   4.940  0.3846 -0.0400 -0.5411
    6SAPS  H18X  796   2.301   6.338   5.003 -1.2007 -1.8414  0.2589
    6SAPS  H18Y  797   2.186   6.474   4.994  1.2289 -0.3873  0.6362
    6SAPS  H18Z  798   2.279   6.422   4.853  2.2428  1.6200  1.3001
    7SAPS     N  799   1.656   2.795   7.577  1.0501  0.2899  0.0491
    7SAPS   HN1  800   1.580   2.857   7.543 -1.0857 -2.1046  0.1580
    7SAPS   HN2  801   1.655   2.711   7.516  0.2045 -0.0541  0.5134
    7SAPS   HN3  802   1.647   2.774   7.679  0.9352  1.7569  0.3705
    7SAPS   C12  803   1.783   2.871   7.552  0.3380  0.5081 -0.6254
    7SAPS  H12A  804   1.776   2.962   7.610 -1.3029  1.0270 -1.5792
    7SAPS   C13  805   1.901   2.788   7.605 -0.4628  0.3448 -0.4679
    7SAPS  O13A  806   1.885   2.665   7.637 -0.5695 -0.1605  0.1557
    7SAPS  O13B  807   2.015   2.841   7.598  0.1451  0.0038 -0.6247
    7SAPS   C11  808   1.807   2.912   7.406  0.2487 -0.2274  0.6589
    7SAPS  H11A  809   1.832   2.813   7.361  1.2337  0.9148 -1.4478
    7SAPS  H11B  810   1.900   2.972   7.408  0.0504  0.1464  3.7194
    7SAPS     P  811   1.696   3.114   7.271  0.3130 -0.0178 -0.0406
    7SAPS   O13  812   1.554   3.143   7.237 -0.5440  1.1961 -0.2526
    7SAPS   O14  813   1.783   3.214   7.341  0.8048  0.1876  0.0150
    7SAPS   O12  814   1.697   2.972   7.340  0.2160  0.3575  0.3605
    7SAPS   O11  815   1.766   3.089   7.138 -0.4079  0.0449  0.5654
    7SAPS    C1  816   1.904   3.045   7.121 -0.5753 -0.1080 -0.4080
    7SAPS    HA  817   1.975   3.078   7.200 -1.1952 -0.6430  0.3896
    7SAPS    HB  818   1.895   2.936   7.099  3.0885 -0.1363 -2.6923
    7SAPS    C2  819   1.956   3.100   6.979 -0.3220 -0.3539 -0.7528
    7SAPS    HS  820   2.062   3.067   6.970  0.4296  1.9164 -0.8957
    7SAPS   O21  821   1.960   3.243   6.965 -0.1986  0.0255  0.1306
    7SAPS   C21  822   2.032   3.315   7.054  0.6421 -0.0716  0.2830
    7SAPS   O22  823   2.108   3.266   7.136  0.3222 -0.4113 -0.6401
    7SAPS   C22  824   2.012   3.464   7.023  0.6056  0.5401  0.0120
    7SAPS   H2R  825   1.981   3.481   6.917 -0.5246 -0.1437  0.2183
    7SAPS   H2S  826   1.923   3.508   7.074 -0.8622 -1.2453 -0.8754
    7SAPS    C3  827   1.868   3.042   6.862 -0.3402 -0.1015 -0.0770
    7SAPS    HX  828   1.771   3.096   6.870  1.8235  4.2977 -0.3379
    7SAPS    HY  829   1.866   2.936   6.894 -0.6065  0.3392  1.4251
    7SAPS   O31  830   1.917   3.070   6.730 -0.1919 -0.0742 -0.3122
    7SAPS   C31  831   2.027   2.985   6.700  0.2941  0.2230 -0.4995
    7SAPS   O32  832   2.063   2.900   6.775  0.1837  0.4570  0.2354
    7SAPS   C32  833   2.091   3.036   6.572 -0.2602 -1.1562 -0.1519
    7SAPS   H2X  834   2.138   3.135   6.586 -0.4588 -1.2636  1.5594
    7SAPS   H2Y  835   2.009   3.048   6.498  0.4776 -2.0209 -1.1427
    7SAPS   C23  836   2.134   3.544   7.071  0.6058 -0.1405  0.3169
    7SAPS   H3R  837   2.169   3.520   7.174 -0.2859  0.5132  0.7804
    7SAPS   H3S  838   2.117   3.652   7.084 -0.1861  0.0390 -1.8924
    7SAPS   C24  839   2.247   3.544   6.970  0.0222  0.2298  0.1425
    7SAPS   H4R  840   2.320   3.622   7.000  0.7369 -0.3251 -0.0975
    7SAPS   H4S  841   2.210   3.583   6.873  1.7206 -0.3698 -0.7996
    7SAPS   C25  842   2.318   3.408   6.955  0.1621  0.2639  0.5437
    7SAPS   H5R  843   2.382   3.371   7.036  1.3266  1.2749  0.1156
    7SAPS   C26  844   2.328   3.337   6.839 -0.2107  0.2407 -0.3007
    7SAPS   H6R  845   2.396   3.251   6.829 -1.1350 -0.4879 -0.4575
    7SAPS   C27  846   2.263   3.367   6.708 -0.7260 -0.5644 -0.4078
    7SAPS   H7R  847   2.235   3.474   6.712  2.9797  0.4723  2.2301
    7SAPS   H7S  848   2.164   3.318   6.695 -1.3109  0.5051 -0.1465
    7SAPS   C28  849   2.336   3.337   6.581  0.2425  0.2444  1.1618
    7SAPS   H8R  850   2.349   3.229   6.565  1.1882  0.1804  2.2281
    7SAPS   C29  851   2.368   3.412   6.477 -0.2331 -0.2320  1.3829
    7SAPS   H9R  852   2.398   3.373   6.379  2.3223  0.7789  1.6757
    7SAPS  C210  853   2.345   3.560   6.470  0.9213 -0.2835 -0.4054
    7SAPS  H10R  854   2.297   3.615   6.554 -0.2942  0.0160 -1.2714
    7SAPS  H10S  855   2.259   3.578   6.403  0.9377 -0.7245 -0.5464
    7SAPS  C211  856   2.455   3.629   6.406  0.6047  0.2834  0.4338
    7SAPS  H11R  857   2.508   3.702   6.470  0.3970  2.9787 -2.2246
    7SAPS  C212  858   2.484   3.632   6.274  0.1932  0.6475  0.2022
    7SAPS  H12R  859   2.567   3.693   6.237 -2.2330  1.9467 -3.7005
    7SAPS  C213  860   2.424   3.542   6.170  0.4491 -0.0115 -0.9163
    7SAPS  H13R  861   2.346   3.476   6.215 -1.3047  0.6873 -2.7632
    7SAPS  H13S  862   2.518   3.492   6.138  1.5834  1.8122 -0.5540
    7SAPS  C214  863   2.374   3.625   6.059 -0.4241  0.1278  0.5131
    7SAPS  H14R  864   2.368   3.733   6.078  1.5659  0.7074 -1.5932
    7SAPS  C215  865   2.344   3.589   5.930  0.1055 -0.8675  0.1304
    7SAPS  H15R  866   2.300   3.662   5.861 -2.7674  0.3951  3.0023
    7SAPS  C216  867   2.348   3.453   5.869 -0.2493  0.1958  0.0990
    7SAPS  H16R  868   2.244   3.416   5.852  1.1612 -2.9267 -2.9574
    7SAPS  H16S  869   2.400   3.375   5.928  2.4027  2.4419  0.9277
    7SAPS  C217  870   2.418   3.458   5.735  0.3123  0.5601 -0.0652
    7SAPS  H17R  871   2.443   3.353   5.707  1.8338  0.7828  0.3696
    7SAPS  H17S  872   2.513   3.515   5.735  0.8154 -0.2583 -0.5331
    7SAPS  C218  873   2.327   3.505   5.621 -0.0588  0.4216 -0.4702
    7SAPS  H18R  874   2.306   3.613   5.631  1.7902  0.9136 -1.3791
    7SAPS  H18S  875   2.229   3.456   5.638 -0.4961  2.0879  2.6208
    7SAPS  C219  876   2.387   3.467   5.488  0.0338 -0.0101  1.1852
    7SAPS  H19R  877   2.435   3.368   5.505 -1.0726 -0.4622  1.7418
    7SAPS  H19S  878   2.470   3.539   5.473  0.3115 -0.7201 -0.9927
    7SAPS  C220  879   2.306   3.451   5.362 -0.0178 -0.0657 -0.1844
    7SAPS  H20R  880   2.288   3.552   5.320  2.1585 -0.0174 -1.1608
    7SAPS  H20S  881   2.214   3.395   5.391 -0.3816 -0.7735 -2.5297
    7SAPS  H20T  882   2.358   3.391   5.284 -2.2163 -2.0706 -0.2191
    7SAPS   C33  883   2.199   2.933   6.518 -0.2653 -0.1117 -0.6191
    7SAPS   H3X  884   2.164   2.828   6.514 -2.2704  0.3972  1.3686
    7SAPS   H3Y  885   2.281   2.932   6.593  0.0258  0.5453 -0.9192
    7SAPS   C34  886   2.266   2.977   6.380 -0.3528  0.0389  0.7611
    7SAPS   H4X  887   2.357   2.913   6.371  0.6355  1.3833  0.9917
    7SAPS   H4Y  888   2.297   3.083   6.390  2.3728 -0.6471  0.5179
    7SAPS   C35  889   2.179   2.971   6.250 -0.1626  0.5377 -0.1884
    7SAPS   H5X  890   2.090   3.035   6.271 -0.8670 -0.2320 -0.7626
    7SAPS   H5Y  891   2.151   2.864   6.239 -1.5630  0.8902 -0.2647
    7SAPS   C36  892   2.242   3.020   6.117 -0.6475  0.1842  0.3279
    7SAPS   H6X  893   2.351   3.006   6.107 -0.7233 -1.1863  1.2300
    7SAPS   H6Y  894   2.218   3.129   6.122 -1.1686  0.2157 -1.7565
    7SAPS   C37  895   2.163   2.976   5.990  0.0466  0.3081 -0.4318
    7SAPS   H7X  896   2.073   3.038   5.973  0.4259  0.2487 -2.9773
    7SAPS   H7Y  897   2.133   2.869   5.990  1.1957 -0.0637 -2.7027
    7SAPS   C38  898   2.251   3.000   5.863  0.0392 -0.1001  0.4075
    7SAPS   H8X  899   2.338   2.931   5.859  0.3323  0.3142 -1.7938
    7SAPS   H8Y  900   2.278   3.108   5.862 -1.1995  0.2595 -2.4513
    7SAPS   C39  901   2.171   2.974   5.735  0.0586  0.9902 -0.0962
    7SAPS   H9X  902   2.068   3.016   5.739  0.8450  3.1127 -0.6780
    7SAPS   H9Y  903   2.160   2.864   5.725  2.4895  0.7755 -1.3736
    7SAPS  C310  904   2.239   3.032   5.602  0.7513  0.2103 -0.0748
    7SAPS  H10X  905   2.310   2.952   5.571 -0.1699 -0.8104  0.3727
    7SAPS  H10Y  906   2.303   3.116   5.636 -0.6046  1.0211  0.5377
    7SAPS  C311  907   2.141   3.086   5.499  0.8851  0.5883 -0.1596
    7SAPS  H11X  908   2.188   3.138   5.413  1.0768  2.1525  0.8566
    7SAPS  H11Y  909   2.090   3.172   5.547 -1.4801 -0.0044 -1.4454
    7SAPS  C312  910   2.037   2.989   5.441  0.1756  0.2139  0.3108
    7SAPS  H12X  911   2.002   2.925   5.525  2.6326 -0.5616  0.8067
    7SAPS  H12Y  912   2.084   2.926   5.363  3.5856  0.7316  1.8002
    7SAPS  C313  913   1.934   3.057   5.358 -0.0097 -0.0672 -0.1214
    7SAPS  H13X  914   1.984   3.121   5.281  1.9104 -0.6490  0.5787
    7SAPS  H13Y  915   1.875   3.129   5.418 -1.1947 -0.0473 -1.2726
    7SAPS  C314  916   1.832   2.960   5.296 -0.2782  0.1091 -0.2172
    7SAPS  H14X  917   1.768   2.931   5.381 -2.4386  0.6702 -1.5630
    7SAPS  H14Y  918   1.896   2.875   5.264  0.9701  1.1903 -0.7121
    7SAPS  C315  919   1.754   3.025   5.186 -0.4170 -0.6913 -0.1369
    7SAPS  H15X  920   1.694   2.942   5.144 -1.6492 -1.1422  2.3383
    7SAPS  H15Y  921   1.821   3.064   5.106 -1.0170  0.7480  0.0232
    7SAPS  C316  922   1.656   3.130   5.228  0.7467 -0.1672  0.1845
    7SAPS  H16X  923   1.705   3.200   5.299  0.1442  1.1494 -0.6475
    7SAPS  H16Y  924   1.570   3.083   5.280 -1.3781  1.9312 -1.2071
    7SAPS  C317  925   1.606   3.204   5.109 -0.2827  0.2438 -0.7895
    7SAPS  H17X  926   1.547   3.132   5.049 -1.4373  0.5917 -0.1201
    7SAPS  H17Y  927   1.684   3.230   5.035  0.2150 -0.4987 -0.5354
    7SAPS  C318  928   1.522   3.334   5.140 -0.2670  0.6288  0.0092
    7SAPS  H18X  929   1.425   3.324   5.194  0.5756  4.4489  2.5414
    7SAPS  H18Y  930   1.503   3.371   5.037  2.6812 -1.5764 -1.4875
    7SAPS  H18Z  931   1.580   3.413   5.192 -0.9754  1.7882 -0.9004
    8SAPS     N  932   1.522   3.581   7.192 -0.4574  0.6580  0.2758
    8SAPS   HN1  933   1.536   3.593   7.089  1.2092  1.1418  0.5265
    8SAPS   HN2  934   1.610   3.552   7.239 -1.9842  0.2003  3.0655
    8SAPS   HN3  935   1.455   3.504   7.212 -2.4996  2.1807 -0.3577
    8SAPS   C12  936   1.477   3.707   7.254  0.5261 -0.1114 -0.1816
    8SAPS  H12A  937   1.551   3.781   7.225  1.6200 -1.7157 -1.6588
    8SAPS   C13  938   1.336   3.751   7.218  0.2886  0.3352 -0.3209
    8SAPS  O13A  939   1.272   3.677   7.135 -0.1229 -0.0698 -0.9527
    8SAPS  O13B  940   1.284   3.845   7.282 -0.2848  0.1114  0.5599
    8SAPS   C11  941   1.492   3.690   7.409 -0.0606  0.3037  0.1985
    8SAPS  H11A  942   1.423   3.607   7.438  1.1239 -0.9993 -0.5839
    8SAPS  H11B  943   1.445   3.774   7.464  1.2128 -0.8326  3.3116
    8SAPS     P  944   1.712   3.786   7.508 -0.2623 -0.3585 -0.2797
    8SAPS   O13  945   1.664   3.833   7.637 -0.0073  0.4302  0.5073
    8SAPS   O14  946   1.850   3.743   7.498 -0.1642  0.1415  0.1419
    8SAPS   O12  947   1.627   3.670   7.451 -0.2213 -0.0231  0.3576
    8SAPS   O11  948   1.686   3.898   7.397 -0.3657  0.0499 -0.4759
    8SAPS    C1  949   1.781   4.000   7.372 -0.2558  0.0732  0.0617
    8SAPS    HA  950   1.734   4.100   7.384 -0.6163 -0.0166 -0.5508
    8SAPS    HB  951   1.860   4.001   7.450 -0.0091 -1.0215 -0.1643
    8SAPS    C2  952   1.844   3.997   7.225  0.1044  0.3725 -0.0612
    8SAPS    HS  953   1.911   4.085   7.214 -1.4571  1.4724 -1.3221
    8SAPS   O21  954   1.745   4.012   7.118  0.2766 -0.5010 -0.3545
    8SAPS   C21  955   1.685   4.129   7.121  0.4913  0.1062  0.0855
    8SAPS   O22  956   1.714   4.231   7.182  0.4378  0.1211 -0.3794
    8SAPS   C22  957   1.602   4.136   6.993  0.4399  0.1163 -0.7932
    8SAPS   H2R  958   1.615   4.240   6.956  1.0806  0.4442  0.3059
    8SAPS   H2S  959   1.644   4.069   6.915  1.5125 -1.2265  0.8442
    8SAPS    C3  960   1.919   3.861   7.201  0.2109 -0.1970  0.5673
    8SAPS    HX  961   1.851   3.776   7.221  0.9778 -0.2993  3.1103
    8SAPS    HY  962   1.993   3.867   7.284 -0.2803  0.5776  0.9544
    8SAPS   O31  963   1.997   3.854   7.079  0.4870 -0.3798 -0.1695
    8SAPS   C31  964   1.929   3.804   6.977 -0.2135 -0.3516  0.3482
    8SAPS   O32  965   1.823   3.749   6.981  0.1185 -0.1086 -0.6938
    8SAPS   C32  966   2.008   3.830   6.848  0.2926  0.1241  0.3206
    8SAPS   H2X  967   2.107   3.781   6.857  0.1815 -0.0681  0.4981
    8SAPS   H2Y  968   2.022   3.940   6.836 -1.5159  0.3361 -0.2280
    8SAPS   C23  969   1.454   4.096   7.022  0.7999  0.4136 -0.2320
    8SAPS   H3R  970   1.395   4.178   7.067 -2.8256 -1.7745 -0.6139
    8SAPS   H3S  971   1.446   4.010   7.092 -4.2478  0.8656  0.0695
    8SAPS   C24  972   1.406   4.029   6.897  0.0525 -0.0805 -0.1016
    8SAPS   H4R  973   1.307   3.984   6.919  0.5724 -0.8329  0.7478
    8SAPS   H4S  974   1.468   3.950   6.850 -2.2780 -0.2411 -3.2642
    8SAPS   C25  975   1.374   4.131   6.792 -0.0948 -0.0780 -0.3971
    8SAPS   H5R  976   1.364   4.233   6.832 -1.0808 -0.3150 -0.0134
    8SAPS   C26  977   1.354   4.117   6.663  0.4256  0.0048  0.4071
    8SAPS   H6R  978   1.325   4.206   6.605 -0.9056 -0.5361  0.2108
    8SAPS   C27  979   1.376   3.991   6.585  0.0136  0.0124  0.7099
    8SAPS   H7R  980   1.467   3.930   6.603  0.9077  0.7673 -0.9748
    8SAPS   H7S  981   1.390   4.036   6.484  2.1336 -0.1855  0.8701
    8SAPS   C28  982   1.249   3.913   6.583  0.0585 -0.4974 -0.2140
    8SAPS   H8R  983   1.219   3.866   6.678 -1.5143  0.4941 -0.1905
    8SAPS   C29  984   1.172   3.894   6.476 -0.3912 -0.4323 -0.2171
    8SAPS   H9R  985   1.094   3.817   6.482 -0.2293 -0.4831  2.0776
    8SAPS  C210  986   1.193   3.948   6.328 -0.0327  0.3397 -0.4342
    8SAPS  H10R  987   1.140   3.888   6.250  1.2095 -0.7992 -0.4496
    8SAPS  H10S  988   1.296   3.917   6.300 -0.4537 -3.1316  1.2355
    8SAPS  C211  989   1.179   4.096   6.317 -0.4936  0.0298  0.9733
    8SAPS  H11R  990   1.166   4.154   6.410 -1.3653 -0.0384  0.9012
    8SAPS  C212  991   1.158   4.162   6.203 -0.1940  0.6607  0.2621
    8SAPS  H12R  992   1.151   4.271   6.211  0.5636  0.6169  1.8417
    8SAPS  C213  993   1.151   4.098   6.066 -0.2792  0.3372  0.4704
    8SAPS  H13R  994   1.066   4.137   6.006  0.2529  0.3105 -0.3169
    8SAPS  H13S  995   1.117   3.993   6.082 -0.3033  0.5698  2.1237
    8SAPS  C214  996   1.286   4.095   5.992 -0.0837 -0.6441  0.2373
    8SAPS  H14R  997   1.378   4.071   6.047  0.7993 -1.6985 -1.6383
    8SAPS  C215  998   1.305   4.121   5.863 -0.5583  0.2391 -0.0495
    8SAPS  H15R  999   1.403   4.099   5.818 -0.1979  0.0101  0.8156
    8SAPS  C216 1000   1.191   4.162   5.766 -0.6947 -0.4317  0.0772
    8SAPS  H16R 1001   1.143   4.257   5.796  0.3710  0.1447  0.0132
    8SAPS  H16S 1002   1.107   4.090   5.775 -0.4755 -0.8647 -1.0870
    8SAPS  C217 1003   1.231   4.174   5.614  0.3033 -0.0273  0.0285
    8SAPS  H17R 1004   1.268   4.075   5.581  2.6797  0.9161 -0.2849
    8SAPS  H17S 1005   1.305   4.255   5.598 -0.2367  0.4024 -0.3516
    8SAPS  C218 1006   1.098   4.195   5.537  0.7232 -0.6128  0.1104
    8SAPS  H18R 1007   1.061   4.299   5.548 -0.6775 -0.8910 -1.6014
    8SAPS  H18S 1008   1.021   4.124   5.574  1.8754 -0.4173  3.1720
    8SAPS  C219 1009   1.119   4.173   5.390 -0.4472  0.1867  0.2284
    8SAPS  H19R 1010   1.159   4.077   5.351 -0.2495  1.1841 -2.2202
    8SAPS  H19S 1011   1.188   4.252   5.352  2.0616 -0.7534  2.5088
    8SAPS  C220 1012   0.984   4.191   5.318 -0.5500 -0.3271 -0.6515
    8SAPS  H20R 1013   0.995   4.201   5.208  1.5946 -1.3485 -0.5741
    8SAPS  H20S 1014   0.940   4.288   5.350 -0.6503 -0.9087  1.0818
    8SAPS  H20T 1015   0.907   4.117   5.349 -1.6948  1.5755  1.3078
    8SAPS   C33 1016   1.950   3.778   6.715 -0.1393 -0.1139 -0.7722
    8SAPS   H3X 1017   1.845   3.810   6.697  0.5202  1.2183 -2.4669
    8SAPS   H3Y 1018   1.942   3.667   6.716 -1.1046 -0.2056  3.3639
    8SAPS   C34 1019   2.038   3.823   6.595  0.7698 -0.8060  0.0098
    8SAPS   H4X 1020   2.144   3.792   6.606  0.2127 -2.0436  2.7142
    8SAPS   H4Y 1021   2.034   3.934   6.592  0.7928 -0.6772  2.4920
    8SAPS   C35 1022   1.976   3.773   6.464  0.2853 -1.0106 -0.2035
    8SAPS   H5X 1023   1.866   3.781   6.468  0.2289  1.2759 -2.8079
    8SAPS   H5Y 1024   2.014   3.669   6.448 -0.9863 -1.2944 -1.5579
    8SAPS   C36 1025   2.016   3.839   6.328  0.5126 -0.2546 -0.1713
    8SAPS   H6X 1026   2.126   3.845   6.311  1.1745 -0.9829  3.0961
    8SAPS   H6Y 1027   1.991   3.945   6.350  0.8186  0.4127 -2.6747
    8SAPS   C37 1028   1.936   3.791   6.208  0.0351  0.6286  0.7515
    8SAPS   H7X 1029   1.829   3.813   6.224  0.0048  0.4508  0.7950
    8SAPS   H7Y 1030   1.946   3.682   6.187  0.3327  1.0986 -1.8914
    8SAPS   C38 1031   1.973   3.868   6.076 -0.0125  0.3859 -0.6579
    8SAPS   H8X 1032   2.068   3.825   6.037 -0.6748 -1.2970 -0.4992
    8SAPS   H8Y 1033   1.984   3.976   6.100  1.6385  0.3396 -1.0400
    8SAPS   C39 1034   1.866   3.846   5.968  0.2468 -0.3184  0.3854
    8SAPS   H9X 1035   1.765   3.886   5.990  1.1535  1.2993  1.8601
    8SAPS   H9Y 1036   1.851   3.736   5.961 -1.1753 -0.0913 -0.4792
    8SAPS  C310 1037   1.900   3.884   5.823 -0.6548  0.2823 -0.2952
    8SAPS  H10X 1038   1.999   3.839   5.798 -0.0390  0.5225  1.5939
    8SAPS  H10Y 1039   1.911   3.995   5.820 -0.2798  0.2351 -0.8379
    8SAPS  C311 1040   1.793   3.841   5.722  0.2549 -0.1594 -0.0433
    8SAPS  H11X 1041   1.771   3.732   5.722 -1.7713  0.2020  0.6580
    8SAPS  H11Y 1042   1.841   3.872   5.627  2.5788  1.6901  1.6280
    8SAPS  C312 1043   1.663   3.925   5.740 -0.6723  0.3103  0.2321
    8SAPS  H12X 1044   1.700   4.029   5.721  1.8697 -0.4472  0.5963
    8SAPS  H12Y 1045   1.620   3.912   5.842  2.7307 -0.2592  1.7580
    8SAPS  C313 1046   1.555   3.906   5.631  0.0479 -0.3979 -0.6426
    8SAPS  H13X 1047   1.495   3.999   5.636  0.1460 -0.3439 -0.4650
    8SAPS  H13Y 1048   1.490   3.819   5.654 -0.0361  0.2461  1.9580
    8SAPS  C314 1049   1.614   3.894   5.486 -0.4894  0.4222 -0.3990
    8SAPS  H14X 1050   1.681   3.806   5.484  0.3660  1.0290  0.7554
    8SAPS  H14Y 1051   1.669   3.988   5.463  0.4919  0.0943  0.5185
    8SAPS  C315 1052   1.509   3.864   5.373  0.5299 -0.3088 -0.0332
    8SAPS  H15X 1053   1.564   3.854   5.277  2.1669  1.8993  0.6008
    8SAPS  H15Y 1054   1.437   3.949   5.364 -0.8372 -1.3539  0.6649
    8SAPS  C316 1055   1.436   3.727   5.385 -0.1596  0.5718  0.1715
    8SAPS  H16X 1056   1.383   3.727   5.482 -1.6858 -0.3745 -0.6119
    8SAPS  H16Y 1057   1.509   3.643   5.388 -0.9204 -0.1622 -0.9657
    8SAPS  C317 1058   1.323   3.703   5.287 -0.1558  0.3269 -0.0238
    8SAPS  H17X 1059   1.364   3.695   5.184  0.1678  3.3526 -0.2247
    8SAPS  H17Y 1060   1.263   3.796   5.296  2.2511  2.0814 -0.7814
    8SAPS  C318 1061   1.238   3.587   5.323 -0.2404  0.0897 -0.1992
    8SAPS  H18X 1062   1.173   3.604   5.412  0.4520  1.1969  0.1120
    8SAPS  H18Y 1063   1.305   3.499   5.334  0.9407  1.0418  0.5136
    8SAPS  H18Z 1064   1.178   3.556   5.235 -0.6199 -1.6870  0.6367
    9SAPS     N 1065   0.694   1.029   7.164 -0.3336 -0.2288 -0.1738
    9SAPS   HN1 1066   0.741   0.975   7.089  0.6272  2.0660 -1.3492
    9SAPS   HN2 1067   0.624   0.970   7.212 -1.0382  0.7986  0.0923
    9SAPS   HN3 1068   0.644   1.103   7.110 -1.2696 -1.1167 -0.5645
    9SAPS   C12 1069   0.794   1.084   7.268  0.0738 -0.0451  0.3943
    9SAPS  H12A 1070   0.752   1.176   7.306 -0.5860 -0.1500 -0.0667
    9SAPS   C13 1071   0.838   0.983   7.381  0.8717 -0.2998 -0.2274
    9SAPS  O13A 1072   0.764   0.883   7.403 -0.1543  0.1968  0.1901
    9SAPS  O13B 1073   0.918   1.021   7.471 -0.5052  0.1855  0.3992
    9SAPS   C11 1074   0.916   1.137   7.197  0.1305  0.4773  1.0814
    9SAPS  H11A 1075   0.926   1.082   7.101 -0.8711  3.0562 -0.5878
    9SAPS  H11B 1076   1.004   1.116   7.262  0.1798 -0.8836  0.6168
    9SAPS     P 1077   1.018   1.372   7.121  0.0112  0.2482  0.0014
    9SAPS   O13 1078   0.981   1.511   7.154  0.1904  0.3252 -0.5734
    9SAPS   O14 1079   1.136   1.316   7.183 -0.4190  0.1437 -0.6541
    9SAPS   O12 1080   0.891   1.278   7.162 -0.7488 -0.3136 -0.0492
    9SAPS   O11 1081   1.033   1.355   6.964 -0.0226 -0.6092 -0.0362
    9SAPS    C1 1082   0.964   1.269   6.880  0.1544 -0.8304 -0.0264
    9SAPS    HA 1083   0.875   1.218   6.923 -0.0169 -0.0916  0.5015
    9SAPS    HB 1084   0.933   1.321   6.787 -1.4923 -2.6497 -0.5707
    9SAPS    C2 1085   1.069   1.167   6.820  0.4207  0.4750 -0.1081
    9SAPS    HS 1086   1.109   1.101   6.899 -0.3081  0.3962  0.1969
    9SAPS   O21 1087   1.173   1.245   6.753  0.0072  0.5713  0.0983
    9SAPS   C21 1088   1.300   1.243   6.789 -0.3195  0.0941 -0.4333
    9SAPS   O22 1089   1.333   1.186   6.887 -0.5105  0.1801 -1.4251
    9SAPS   C22 1090   1.387   1.336   6.700  0.1543  0.3566 -0.3706
    9SAPS   H2R 1091   1.416   1.428   6.755 -2.1411 -0.5983  2.7272
    9SAPS   H2S 1092   1.487   1.287   6.704  1.1066  2.0537 -1.7930
    9SAPS    C3 1093   0.999   1.085   6.711  0.3106  0.3344  0.3676
    9SAPS    HX 1094   0.946   1.156   6.645 -1.6916 -1.8934 -0.5891
    9SAPS    HY 1095   0.924   1.025   6.767 -0.4718 -0.8045 -1.7924
    9SAPS   O31 1096   1.074   0.982   6.639  0.9338  0.8920 -0.3341
    9SAPS   C31 1097   1.098   1.015   6.515 -1.2137 -0.2405  0.8976
    9SAPS   O32 1098   1.065   1.114   6.457  0.2998 -0.3314  0.4985
    9SAPS   C32 1099   1.180   0.899   6.439  0.1259 -0.2017  0.8781
    9SAPS   H2X 1100   1.155   0.800   6.483 -2.4889 -0.6024 -1.2625
    9SAPS   H2Y 1101   1.284   0.921   6.471 -0.6609  2.7743  1.6852
    9SAPS   C23 1102   1.327   1.354   6.559 -0.2393 -0.5612  0.1341
    9SAPS   H3R 1103   1.273   1.451   6.563 -0.2130 -0.5791  1.4198
    9SAPS   H3S 1104   1.256   1.279   6.518  1.4005 -0.5895 -2.9386
    9SAPS   C24 1105   1.433   1.340   6.444  0.2344 -0.1759 -0.7390
    9SAPS   H4R 1106   1.382   1.313   6.349 -1.0677 -1.6656  0.3353
    9SAPS   H4S 1107   1.500   1.257   6.474  2.0928  1.4724 -0.1282
    9SAPS   C25 1108   1.513   1.467   6.425 -0.2921  0.4258 -0.3850
    9SAPS   H5R 1109   1.541   1.507   6.523  0.8650 -0.8499 -0.1638
    9SAPS   C26 1110   1.538   1.529   6.311  0.3020  0.3647 -0.1434
    9SAPS   H6R 1111   1.599   1.621   6.309  2.9312 -1.2674 -0.5423
    9SAPS   C27 1112   1.490   1.482   6.175  0.5888 -0.2691 -0.5594
    9SAPS   H7R 1113   1.394   1.427   6.188  0.3475  0.3750  0.5219
    9SAPS   H7S 1114   1.562   1.406   6.137  0.4928 -2.5493  3.2699
    9SAPS   C28 1115   1.471   1.607   6.098 -0.2243  0.4031  0.2103
    9SAPS   H8R 1116   1.441   1.699   6.150 -1.2141  0.4427 -0.4103
    9SAPS   C29 1117   1.493   1.618   5.967 -0.1468 -0.2976 -0.7593
    9SAPS   H9R 1118   1.472   1.718   5.927 -1.7304 -1.5094 -3.2311
    9SAPS  C210 1119   1.544   1.513   5.872  0.2840  0.0514  0.0143
    9SAPS  H10R 1120   1.606   1.448   5.937 -1.4602 -2.1684 -0.4016
    9SAPS  H10S 1121   1.617   1.559   5.803  2.3709  0.0583  2.1238
    9SAPS  C211 1122   1.426   1.439   5.812  0.6718  0.4391  0.3248
    9SAPS  H11R 1123   1.348   1.398   5.878 -0.3743 -0.4740 -1.4053
    9SAPS  C212 1124   1.406   1.425   5.678 -0.5794  0.0695  0.2965
    9SAPS  H12R 1125   1.320   1.363   5.651  1.6610 -2.7591 -0.9000
    9SAPS  C213 1126   1.510   1.458   5.576  0.3106  0.6644  0.2248
    9SAPS  H13R 1127   1.616   1.437   5.603  0.5157  1.4579  0.0738
    9SAPS  H13S 1128   1.523   1.568   5.566 -1.8844  1.1198  1.6321
    9SAPS  C214 1129   1.464   1.393   5.445  0.2250  0.0578  0.4435
    9SAPS  H14R 1130   1.356   1.400   5.427  0.4071  0.6883 -0.5349
    9SAPS  C215 1131   1.531   1.341   5.339  0.3565  0.5188 -0.2006
    9SAPS  H15R 1132   1.473   1.313   5.250  0.5361 -0.2010 -0.1008
    9SAPS  C216 1133   1.674   1.315   5.324 -0.6460 -0.0555 -0.3444
    9SAPS  H16R 1134   1.689   1.207   5.301 -0.7867 -0.2055  0.2401
    9SAPS  H16S 1135   1.736   1.323   5.416 -1.2822  0.9003  0.0132
    9SAPS  C217 1136   1.740   1.397   5.216 -0.8111 -0.5331  0.0792
    9SAPS  H17R 1137   1.850   1.397   5.235 -0.5096  1.7502 -1.3799
    9SAPS  H17S 1138   1.697   1.499   5.209  0.7108  0.1989  0.7752
    9SAPS  C218 1139   1.718   1.331   5.078  0.0156 -0.1053 -0.1883
    9SAPS  H18R 1140   1.614   1.355   5.050 -1.0752 -0.7598  2.8801
    9SAPS  H18S 1141   1.712   1.220   5.081 -0.4505 -0.0656  0.7050
    9SAPS  C219 1142   1.810   1.365   4.967 -0.0966  0.1178  0.4795
    9SAPS  H19R 1143   1.917   1.360   4.997  0.0426 -0.8106 -0.1294
    9SAPS  H19S 1144   1.804   1.471   4.937 -1.4405  0.0696  0.5461
    9SAPS  C220 1145   1.781   1.283   4.840  0.3776  0.4400  0.2714
    9SAPS  H20R 1146   1.865   1.293   4.767  0.7637  1.4417  0.8301
    9SAPS  H20S 1147   1.687   1.317   4.793  0.1500  1.8511  1.6479
    9SAPS  H20T 1148   1.775   1.175   4.861 -0.3674  0.6518  1.1900
    9SAPS   C33 1149   1.160   0.902   6.286 -0.0168  0.3568  0.6678
    9SAPS   H3X 1150   1.249   0.849   6.246  0.4770  1.4580  0.2901
    9SAPS   H3Y 1151   1.172   1.008   6.255 -0.1284  0.1351 -0.1709
    9SAPS   C34 1152   1.025   0.830   6.242 -0.2026  0.2352 -0.4345
    9SAPS   H4X 1153   0.936   0.894   6.262  1.1483  1.7369  1.2355
    9SAPS   H4Y 1154   0.999   0.757   6.321 -1.9488  2.2769  1.0187
    9SAPS   C35 1155   1.016   0.774   6.101 -0.4685 -0.2826 -0.2109
    9SAPS   H5X 1156   0.927   0.707   6.101 -1.2745  0.7214  1.4790
    9SAPS   H5Y 1157   1.101   0.705   6.084  0.1523  0.4927 -0.3093
    9SAPS   C36 1158   1.030   0.869   5.991 -0.5803 -0.3360 -0.1258
    9SAPS   H6X 1159   1.130   0.916   5.999 -0.0923 -1.5748  1.3967
    9SAPS   H6Y 1160   0.957   0.952   5.999  0.6313  0.5961  1.9484
    9SAPS   C37 1161   1.042   0.789   5.858 -0.2035 -0.3481  0.1199
    9SAPS   H7X 1162   0.951   0.726   5.847  0.1393 -1.6233  3.3796
    9SAPS   H7Y 1163   1.125   0.714   5.864 -1.0331 -1.2861  0.1865
    9SAPS   C38 1164   1.064   0.885   5.728  0.3126  0.2460 -0.7450
    9SAPS   H8X 1165   0.967   0.934   5.705 -0.6117 -1.2318 -0.1483
    9SAPS   H8Y 1166   1.069   0.827   5.634  0.3229  1.5692 -1.5875
    9SAPS   C39 1167   1.166   0.996   5.751  0.0175 -0.1281 -0.2294
    9SAPS   H9X 1168   1.262   0.951   5.787 -0.9755 -2.0760  0.1468
    9SAPS   H9Y 1169   1.127   1.065   5.828 -3.5870 -1.4108 -0.7356
    9SAPS  C310 1170   1.193   1.079   5.619  0.1396  0.2581 -0.3891
    9SAPS  H10X 1171   1.259   1.165   5.641 -0.6296  0.9740 -0.8224
    9SAPS  H10Y 1172   1.094   1.122   5.593 -0.3398  1.0305  2.4319
    9SAPS  C311 1173   1.261   0.993   5.509 -0.2478 -0.1016 -0.1167
    9SAPS  H11X 1174   1.187   0.918   5.476 -1.6236  1.9847 -2.0727
    9SAPS  H11Y 1175   1.351   0.953   5.561  0.7883  3.2247  0.9536
    9SAPS  C312 1176   1.301   1.081   5.400 -0.2833  0.2002  0.0473
    9SAPS  H12X 1177   1.401   1.126   5.414  0.2101 -0.3729 -1.4099
    9SAPS  H12Y 1178   1.228   1.161   5.376  1.7676  2.1168 -0.0730
    9SAPS  C313 1179   1.309   0.998   5.276 -0.0659 -0.3071  0.0235
    9SAPS  H13X 1180   1.203   0.980   5.249 -0.1931 -1.6152  1.3284
    9SAPS  H13Y 1181   1.355   0.897   5.285  1.1602  0.2286  0.0658
    9SAPS  C314 1182   1.378   1.065   5.155 -0.6775 -0.3371 -0.8188
    9SAPS  H14X 1183   1.486   1.070   5.178 -1.2525  1.0543  1.9281
    9SAPS  H14Y 1184   1.347   1.171   5.149 -1.8720 -0.6004  0.3302
    9SAPS  C315 1185   1.354   1.004   5.026  0.3038 -0.0049  0.3459
    9SAPS  H15X 1186   1.250   1.028   4.998 -0.0932  1.0646  2.5431
    9SAPS  H15Y 1187   1.382   0.897   5.027 -0.4448 -0.1985  0.3398
    9SAPS  C316 1188   1.439   1.075   4.921  0.4595  0.7440  0.1710
    9SAPS  H16X 1189   1.546   1.072   4.952  1.1016 -0.4179 -1.9770
    9SAPS  H16Y 1190   1.405   1.181   4.912 -1.4999  0.2764  1.3701
    9SAPS  C317 1191   1.430   1.006   4.784  0.2668  0.0630  0.0437
    9SAPS  H17X 1192   1.325   0.976   4.766  0.6545  0.0783 -2.8305
    9SAPS  H17Y 1193   1.468   0.902   4.786 -0.7247 -0.3128 -0.0637
    9SAPS  C318 1194   1.492   1.076   4.667 -0.3545  0.9339  0.9905
    9SAPS  H18X 1195   1.588   1.125   4.695 -0.0888  0.0816  1.6468
    9SAPS  H18Y 1196   1.422   1.157   4.637 -1.7429 -0.7239 -0.4866
    9SAPS  H18Z 1197   1.522   1.004   4.588  1.7969  0.8389  1.8319
   10SAPS     N 1198   2.008   0.881   7.269 -0.4848  0.4400 -0.0667
   10SAPS   HN1 1199   1.996   0.817   7.188  1.7692 -0.9748  0.5991
   10SAPS   HN2 1200   1.921   0.882   7.325 -1.4917 -0.5308 -1.5499
   10SAPS   HN3 1201   2.025   0.978   7.237  2.5949  0.1743  0.4258
   10SAPS   C12 1202   2.120   0.838   7.355 -0.2789  0.7788 -0.3797
   10SAPS  H12A 1203   2.203   0.833   7.286 -1.1632  0.7239 -1.4549
   10SAPS   C13 1204   2.163   0.929   7.472 -0.7387  0.5699 -0.4712
   10SAPS  O13A 1205   2.097   1.031   7.508  0.4065  0.3880  0.0276
   10SAPS  O13B 1206   2.227   0.869   7.560  0.0209 -0.8203  0.2411
   10SAPS   C11 1207   2.080   0.695   7.408 -0.1337  0.2154 -0.0489
   10SAPS  H11A 1208   2.003   0.693   7.488 -0.3317 -1.2632 -0.2614
   10SAPS  H11B 1209   2.170   0.659   7.461  1.7474  0.7099 -2.6994
   10SAPS     P 1210   2.009   0.451   7.314 -0.3493 -0.0402 -0.2849
   10SAPS   O13 1211   1.967   0.433   7.457  0.1058  0.3251  0.6807
   10SAPS   O14 1212   1.910   0.432   7.208 -0.0431  0.2035 -0.5245
   10SAPS   O12 1213   2.052   0.606   7.299  0.3583  0.1807  0.6277
   10SAPS   O11 1214   2.137   0.368   7.272  0.3833  0.2821 -0.1456
   10SAPS    C1 1215   2.228   0.438   7.181 -0.0758  0.3230  0.0806
   10SAPS    HA 1216   2.171   0.480   7.095  1.6953  1.3137 -0.6724
   10SAPS    HB 1217   2.290   0.523   7.217  0.1178 -0.6917  2.2451
   10SAPS    C2 1218   2.331   0.344   7.111  0.6114  0.5444  0.0586
   10SAPS    HS 1219   2.390   0.308   7.198 -0.1557  1.2581  0.8907
   10SAPS   O21 1220   2.406   0.426   7.022 -0.1235 -0.2599  0.6469
   10SAPS   C21 1221   2.504   0.483   7.069 -0.3637  0.0490 -0.2905
   10SAPS   O22 1222   2.535   0.483   7.187  0.1070 -0.2090 -0.0803
   10SAPS   C22 1223   2.592   0.536   6.954  0.1673 -0.5393 -0.4395
   10SAPS   H2R 1224   2.579   0.461   6.872 -1.7572 -0.5426 -0.1785
   10SAPS   H2S 1225   2.558   0.632   6.911  3.2317  1.6053  1.5637
   10SAPS    C3 1226   2.278   0.216   7.043  0.1282  0.2309 -0.3507
   10SAPS    HX 1227   2.206   0.169   7.114  1.3563 -0.8518  0.2288
   10SAPS    HY 1228   2.367   0.148   7.044 -0.6331 -0.8217  1.3776
   10SAPS   O31 1229   2.222   0.246   6.911  0.0536 -0.3468 -0.1285
   10SAPS   C31 1230   2.238   0.150   6.822  0.0569  0.2399 -0.3350
   10SAPS   O32 1231   2.286   0.039   6.853  0.2482 -0.4417  0.0985
   10SAPS   C32 1232   2.190   0.192   6.685  0.1972  1.1208  0.1983
   10SAPS   H2X 1233   2.240   0.285   6.652 -1.0130  2.0095  0.7855
   10SAPS   H2Y 1234   2.083   0.224   6.686  0.5324  2.2623 -0.0489
   10SAPS   C23 1235   2.740   0.539   6.991  0.8235 -0.3611  0.1522
   10SAPS   H3R 1236   2.776   0.449   7.046  1.8121  1.0774  1.9569
   10SAPS   H3S 1237   2.761   0.621   7.064 -0.1384  0.6611 -0.6920
   10SAPS   C24 1238   2.820   0.553   6.864  0.0232  0.4670 -0.1007
   10SAPS   H4R 1239   2.771   0.499   6.780 -0.2536  0.0399  0.3325
   10SAPS   H4S 1240   2.911   0.490   6.875 -0.1400  0.0557 -1.0080
   10SAPS   C25 1241   2.857   0.697   6.813 -0.1289 -0.2974 -0.1735
   10SAPS   H5R 1242   2.887   0.768   6.891  0.6945 -1.0026  0.1719
   10SAPS   C26 1243   2.826   0.744   6.691  0.4088 -0.6127  0.1246
   10SAPS   H6R 1244   2.873   0.841   6.671  1.7410 -1.2365  0.1630
   10SAPS   C27 1245   2.771   0.676   6.571 -0.2706 -0.2824  0.6004
   10SAPS   H7R 1246   2.796   0.568   6.571  1.6418  0.1035 -1.0044
   10SAPS   H7S 1247   2.827   0.712   6.482  0.1319  0.1071  1.0080
   10SAPS   C28 1248   2.625   0.693   6.558  0.7273  0.0973  0.1579
   10SAPS   H8R 1249   2.569   0.735   6.643 -3.6712 -1.4394 -1.7130
   10SAPS   C29 1250   2.547   0.650   6.458  0.4225 -1.2773 -1.1713
   10SAPS   H9R 1251   2.438   0.656   6.468  0.7006  1.0538  2.3574
   10SAPS  C210 1252   2.608   0.578   6.336  0.7702 -0.7600  0.8080
   10SAPS  H10R 1253   2.656   0.487   6.378 -0.3578 -1.4356  0.6799
   10SAPS  H10S 1254   2.686   0.643   6.292  2.9836 -3.0541  1.1514
   10SAPS  C211 1255   2.500   0.540   6.242 -0.3219 -0.2196 -0.1654
   10SAPS  H11R 1256   2.418   0.486   6.292  0.7236  0.2734  2.2490
   10SAPS  C212 1257   2.480   0.576   6.117  0.5832  0.0201  0.1288
   10SAPS  H12R 1258   2.398   0.550   6.048 -0.8196  0.2093  1.6633
   10SAPS  C213 1259   2.570   0.666   6.033 -0.4563 -0.3835  0.1611
   10SAPS  H13R 1260   2.643   0.719   6.096  1.5867 -2.6656 -0.1245
   10SAPS  H13S 1261   2.512   0.743   5.978  0.6728 -0.6425 -1.4665
   10SAPS  C214 1262   2.641   0.583   5.926  0.2318 -0.3176  0.7240
   10SAPS  H14R 1263   2.736   0.536   5.954  1.0832  0.6040 -0.5176
   10SAPS  C215 1264   2.596   0.561   5.799 -0.2954 -0.7607 -1.1149
   10SAPS  H15R 1265   2.652   0.504   5.724 -0.2824 -0.0498 -1.6554
   10SAPS  C216 1266   2.473   0.613   5.732 -0.2967 -0.1792 -0.4368
   10SAPS  H16R 1267   2.500   0.708   5.683 -0.6328  0.5041  0.6683
   10SAPS  H16S 1268   2.395   0.644   5.805 -0.4528  2.8553 -1.7457
   10SAPS  C217 1269   2.397   0.523   5.630  0.1307  0.8818 -0.6131
   10SAPS  H17R 1270   2.302   0.579   5.613 -0.7524  0.0174  1.2048
   10SAPS  H17S 1271   2.378   0.425   5.678 -0.1578  0.9132 -0.6606
   10SAPS  C218 1272   2.474   0.513   5.491 -0.1846  0.0550 -0.1319
   10SAPS  H18R 1273   2.431   0.424   5.441 -1.4393  0.2259  0.6103
   10SAPS  H18S 1274   2.583   0.503   5.508 -0.2901  2.7456  3.1378
   10SAPS  C219 1275   2.459   0.631   5.399  0.6762  0.2351 -0.1148
   10SAPS  H19R 1276   2.521   0.713   5.442 -1.7369  1.9237  0.3942
   10SAPS  H19S 1277   2.352   0.659   5.390  0.5096 -0.8114 -1.7962
   10SAPS  C220 1278   2.510   0.608   5.253  0.2874 -0.4938  0.2405
   10SAPS  H20R 1279   2.447   0.523   5.221 -0.9981  0.6942 -0.5131
   10SAPS  H20S 1280   2.620   0.598   5.242  0.3510 -0.3766  0.7178
   10SAPS  H20T 1281   2.478   0.696   5.193  0.3522 -0.3926  0.3536
   10SAPS   C33 1282   2.230   0.101   6.566  0.0967  0.5573 -0.2880
   10SAPS   H3X 1283   2.171   0.007   6.559  0.6495  0.1429  0.4503
   10SAPS   H3Y 1284   2.336   0.075   6.589  0.0871  1.7141  1.2124
   10SAPS   C34 1285   2.212   0.174   6.427 -0.2454  0.3931 -0.4790
   10SAPS   H4X 1286   2.250   0.276   6.447 -2.0115  0.4826  3.1128
   10SAPS   H4Y 1287   2.103   0.185   6.409  0.2770  2.4437 -3.0430
   10SAPS   C35 1288   2.288   0.118   6.314  0.9808 -0.8018 -0.5371
   10SAPS   H5X 1289   2.278   0.007   6.314  3.8279 -1.1867  1.9603
   10SAPS   H5Y 1290   2.395   0.144   6.325  1.4593 -0.7577 -4.0930
   10SAPS   C36 1291   2.246   0.179   6.182  1.2758  0.0206 -0.4053
   10SAPS   H6X 1292   2.216   0.285   6.193  0.4530 -0.1112 -1.2158
   10SAPS   H6Y 1293   2.168   0.111   6.140  1.6543 -0.3715 -0.4874
   10SAPS   C37 1294   2.347   0.148   6.069  0.3590 -0.0323  0.4658
   10SAPS   H7X 1295   2.409   0.058   6.089 -1.6911 -1.6654 -0.1915
   10SAPS   H7Y 1296   2.408   0.240   6.056  0.0218 -0.2078 -4.2318
   10SAPS   C38 1297   2.273   0.123   5.931 -0.1174 -0.0117  0.1744
   10SAPS   H8X 1298   2.199   0.204   5.915  0.0122  0.6606  2.5094
   10SAPS   H8Y 1299   2.206   0.038   5.956 -1.4033  0.9221 -0.0277
   10SAPS   C39 1300   2.374   0.110   5.815  0.2357  0.1902  0.0186
   10SAPS   H9X 1301   2.457   0.038   5.830 -0.2376 -0.9208 -2.2729
   10SAPS   H9Y 1302   2.422   0.210   5.806  1.1805  0.1619  3.5198
   10SAPS  C310 1303   2.308   0.059   5.684  0.5130 -0.0118 -0.0061
   10SAPS  H10X 1304   2.211   0.113   5.675  0.4266 -0.4809 -2.3596
   10SAPS  H10Y 1305   2.291  -0.051   5.689  0.9109 -0.1486 -1.3414
   10SAPS  C311 1306   2.387   0.093   5.561 -0.4253  0.0884 -0.1841
   10SAPS  H11X 1307   2.480   0.033   5.550  0.7741  1.8870 -0.2389
   10SAPS  H11Y 1308   2.408   0.202   5.565 -0.2529  0.0519 -0.0692
   10SAPS  C312 1309   2.305   0.053   5.432  0.7771  0.2265  0.4346
   10SAPS  H12X 1310   2.258   0.142   5.385  0.2447 -0.4230 -0.3034
   10SAPS  H12Y 1311   2.222  -0.019   5.451  0.7535  0.5201  1.5103
   10SAPS  C313 1312   2.406  -0.011   5.328  0.5547 -0.1451  0.9070
   10SAPS  H13X 1313   2.417  -0.119   5.350  0.8238 -0.7206 -1.6634
   10SAPS  H13Y 1314   2.508   0.029   5.340  0.6073 -0.2916  0.9469
   10SAPS  C314 1315   2.357   0.010   5.187  0.0686 -0.0747  0.4328
   10SAPS  H14X 1316   2.421  -0.028   5.105 -1.5291  1.0071 -1.4038
   10SAPS  H14Y 1317   2.359   0.121   5.178  0.7400 -0.0456  0.8991
   10SAPS  C315 1318   2.214  -0.046   5.142 -1.0568  0.6667 -0.5413
   10SAPS  H15X 1319   2.135  -0.024   5.217  0.1831  0.5235  0.8343
   10SAPS  H15Y 1320   2.237  -0.155   5.139  1.1469  1.0977 -1.6272
   10SAPS  C316 1321   2.174   0.003   5.003  0.1558  0.4692  0.1263
   10SAPS  H16X 1322   2.265   0.002   4.940 -0.0170 -1.2883 -0.1563
   10SAPS  H16Y 1323   2.147   0.111   5.009  0.0398  0.3821  1.8134
   10SAPS  C317 1324   2.067  -0.081   4.927  0.5641 -0.8316  0.1408
   10SAPS  H17X 1325   1.976  -0.091   4.991  1.6910 -2.1931  1.6143
   10SAPS  H17Y 1326   2.111  -0.182   4.922 -0.6608 -1.4598  1.2780
   10SAPS  C318 1327   2.031  -0.041   4.788  0.3037  0.5525  0.1679
   10SAPS  H18X 1328   1.962  -0.120   4.752 -0.5818 -0.1149  3.0566
   10SAPS  H18Y 1329   2.123  -0.037   4.727  0.9493 -0.9675  0.9776
   10SAPS  H18Z 1330   1.971   0.052   4.791 -0.7196 -0.1010  0.5736
   11SAPS     N 1331   0.207   2.989   2.819  0.0953  0.0062  0.4949
   11SAPS   HN1 1332   0.293   3.018   2.768 -0.6376 -0.9426 -1.3801
   11SAPS   HN2 1333   0.170   3.066   2.879 -0.6099 -0.8451  1.1721
   11SAPS   HN3 1334   0.231   2.904   2.874 -1.8441 -1.9807 -1.5191
   11SAPS   C12 1335   0.095   2.949   2.733 -0.0183 -0.6570 -0.2862
   11SAPS  H12A 1336   0.005   2.965   2.789 -0.5870 -0.8529 -1.1219
   11SAPS   C13 1337   0.083   3.035   2.603  0.2924 -0.3723  0.6219
   11SAPS  O13A 1338   0.155   3.137   2.580  0.2390 -0.2065 -0.3350
   11SAPS  O13B 1339  -0.036   3.038   2.552 -0.0343 -0.3476  0.5380
   11SAPS   C11 1340   0.110   2.798   2.694  0.0360 -0.2134 -0.5092
   11SAPS  H11A 1341   0.202   2.789   2.633 -1.6415 -0.8619 -3.1232
   11SAPS  H11B 1342   0.024   2.764   2.633 -1.9701  3.2865  0.0841
   11SAPS     P 1343   0.241   2.623   2.847  0.0367 -0.0548 -0.0729
   11SAPS   O13 1344   0.219   2.570   2.985  0.3687 -0.7259  0.0473
   11SAPS   O14 1345   0.247   2.527   2.735 -0.3563  0.0258 -0.0699
   11SAPS   O12 1346   0.123   2.721   2.816  0.4535 -0.3343  0.0251
   11SAPS   O11 1347   0.363   2.720   2.846 -0.0252 -0.0338  0.2231
   11SAPS    C1 1348   0.480   2.713   2.775  1.0661 -0.3689 -0.4539
   11SAPS    HA 1349   0.487   2.627   2.705  0.5212  0.0813 -1.0730
   11SAPS    HB 1350   0.493   2.798   2.705 -1.4121 -0.7967 -1.5542
   11SAPS    C2 1351   0.603   2.696   2.874 -0.2821  0.0688  0.3153
   11SAPS    HS 1352   0.701   2.694   2.823  0.9863  0.6729  2.5988
   11SAPS   O21 1353   0.577   2.579   2.952 -0.7041  0.0559  0.2923
   11SAPS   C21 1354   0.592   2.464   2.882 -0.1567 -0.4045 -0.4043
   11SAPS   O22 1355   0.624   2.457   2.763  0.0910 -0.4562  0.4487
   11SAPS   C22 1356   0.559   2.350   2.971  0.3510  0.4258 -0.3086
   11SAPS   H2R 1357   0.640   2.335   3.046  0.2368  1.5676  0.0565
   11SAPS   H2S 1358   0.469   2.371   3.032  1.7292 -0.2838  2.1080
   11SAPS    C3 1359   0.610   2.811   2.968 -0.2190 -0.1730 -0.5175
   11SAPS    HX 1360   0.513   2.829   3.019  0.2807 -0.6701  0.6547
   11SAPS    HY 1361   0.627   2.903   2.907  1.6506  0.7249  1.2344
   11SAPS   O31 1362   0.720   2.809   3.062 -0.2148  0.1999  0.3653
   11SAPS   C31 1363   0.687   2.780   3.190 -0.4929 -0.5751  0.1653
   11SAPS   O32 1364   0.575   2.750   3.227 -0.5571  0.4431  0.4098
   11SAPS   C32 1365   0.809   2.773   3.288 -0.2410  0.2518  0.2829
   11SAPS   H2X 1366   0.872   2.864   3.277 -1.3458  1.4851  3.2740
   11SAPS   H2Y 1367   0.865   2.684   3.249  1.6174  1.1607  0.7715
   11SAPS   C23 1368   0.540   2.219   2.896  0.4566 -0.7251  0.7022
   11SAPS   H3R 1369   0.622   2.211   2.821  0.1812 -2.1301  0.5220
   11SAPS   H3S 1370   0.444   2.221   2.839  1.4855 -1.7285 -1.1945
   11SAPS   C24 1371   0.536   2.088   2.974 -0.5399 -0.0375 -0.1891
   11SAPS   H4R 1372   0.537   2.010   2.895  1.8300  0.1131 -0.3920
   11SAPS   H4S 1373   0.442   2.090   3.032 -0.3139  2.0006  0.1978
   11SAPS   C25 1374   0.647   2.062   3.070  0.5058  0.3235  0.4350
   11SAPS   H5R 1375   0.731   2.132   3.054 -1.0549  1.4895 -3.7381
   11SAPS   C26 1376   0.648   1.971   3.166  0.0185  0.1996 -0.0762
   11SAPS   H6R 1377   0.736   1.959   3.232 -0.0924  1.8883  0.4169
   11SAPS   C27 1378   0.531   1.881   3.196  0.4445 -0.4987 -0.2995
   11SAPS   H7R 1379   0.563   1.777   3.213 -1.8790 -0.8229  3.1566
   11SAPS   H7S 1380   0.460   1.876   3.110 -0.1840 -2.4460  0.2873
   11SAPS   C28 1381   0.456   1.925   3.321  0.0330  0.1606 -0.7903
   11SAPS   H8R 1382   0.386   2.007   3.300  1.5389  1.3267 -1.4470
   11SAPS   C29 1383   0.447   1.850   3.435 -0.3458  0.4063 -0.2315
   11SAPS   H9R 1384   0.384   1.889   3.517  2.2096  1.0759  1.5602
   11SAPS  C210 1385   0.514   1.716   3.465  0.7480 -0.1623  0.0227
   11SAPS  H10R 1386   0.546   1.733   3.570 -0.2938  1.3781  0.1251
   11SAPS  H10S 1387   0.604   1.697   3.403  1.8197 -0.4946  1.6186
   11SAPS  C211 1388   0.404   1.608   3.446  0.3032  0.3814 -0.3585
   11SAPS  H11R 1389   0.363   1.596   3.345 -1.4241 -1.5788  0.5028
   11SAPS  C212 1390   0.352   1.519   3.537  0.2513 -1.4662 -0.4307
   11SAPS  H12R 1391   0.262   1.462   3.513 -1.2443 -1.8256  4.7948
   11SAPS  C213 1392   0.383   1.518   3.689  0.5625 -0.4832  0.4759
   11SAPS  H13R 1393   0.289   1.484   3.737  0.8235 -3.3214 -0.8062
   11SAPS  H13S 1394   0.394   1.621   3.729 -1.4683 -0.2806  0.5971
   11SAPS  C214 1395   0.488   1.416   3.723 -0.3890 -0.1536  0.8877
   11SAPS  H14R 1396   0.545   1.372   3.640 -0.8380 -0.5803  0.8012
   11SAPS  C215 1397   0.520   1.386   3.849  0.6263 -0.1846 -1.3679
   11SAPS  H15R 1398   0.606   1.321   3.871  1.3388  1.0698 -0.2988
   11SAPS  C216 1399   0.457   1.426   3.983  0.0169  0.0331  0.3014
   11SAPS  H16R 1400   0.375   1.501   3.973  0.4100  0.5623  0.9030
   11SAPS  H16S 1401   0.537   1.475   4.043 -1.7013  1.1509  1.8070
   11SAPS  C217 1402   0.400   1.309   4.069 -0.7880 -0.2616  0.6076
   11SAPS  H17R 1403   0.472   1.225   4.074 -0.0837  0.3248  0.5918
   11SAPS  H17S 1404   0.299   1.277   4.036 -0.2451 -0.9952 -0.4211
   11SAPS  C218 1405   0.399   1.342   4.214 -0.0793 -0.3218  0.0730
   11SAPS  H18R 1406   0.338   1.268   4.271 -3.5493  3.0040  1.1299
   11SAPS  H18S 1407   0.354   1.443   4.223  1.4000  0.7151 -2.9478
   11SAPS  C219 1408   0.537   1.353   4.286 -0.2722 -0.4417  0.2568
   11SAPS  H19R 1409   0.605   1.426   4.237 -1.2444  0.2063 -0.1457
   11SAPS  H19S 1410   0.594   1.257   4.283  0.8108  0.0047  3.0078
   11SAPS  C220 1411   0.538   1.406   4.436  0.3223  0.4739 -0.3810
   11SAPS  H20R 1412   0.454   1.355   4.489 -0.4116  2.5021  0.5207
   11SAPS  H20S 1413   0.508   1.513   4.446 -0.3100  0.2931 -0.2557
   11SAPS  H20T 1414   0.633   1.387   4.490  0.5948  1.0383 -0.6632
   11SAPS   C33 1415   0.774   2.762   3.435 -0.2590  0.1811 -0.8546
   11SAPS   H3X 1416   0.747   2.657   3.460 -1.6978  0.7507  0.1425
   11SAPS   H3Y 1417   0.677   2.815   3.445  0.9874  2.6845 -1.3401
   11SAPS   C34 1418   0.873   2.830   3.531  0.5029 -0.2185  0.7356
   11SAPS   H4X 1419   0.871   2.938   3.507 -1.9977 -0.4326 -0.4246
   11SAPS   H4Y 1420   0.975   2.792   3.512  0.7390  0.4785  0.5917
   11SAPS   C35 1421   0.841   2.788   3.678 -0.0351 -0.5196 -0.5170
   11SAPS   H5X 1422   0.813   2.681   3.673 -1.2403 -0.1637 -1.7936
   11SAPS   H5Y 1423   0.754   2.842   3.720  0.3526 -0.1419 -0.1762
   11SAPS   C36 1424   0.968   2.799   3.765 -0.3590 -0.1509  0.5306
   11SAPS   H6X 1425   0.928   2.787   3.868  1.9477  1.5840  1.7409
   11SAPS   H6Y 1426   1.018   2.898   3.758  1.3452 -1.0470 -0.7275
   11SAPS   C37 1427   1.069   2.682   3.755 -0.2392  0.4623 -0.0533
   11SAPS   H7X 1428   1.125   2.689   3.659  2.3333  0.6804  1.3736
   11SAPS   H7Y 1429   1.011   2.588   3.750  0.5706 -0.1089  0.8939
   11SAPS   C38 1430   1.183   2.681   3.860  0.2615 -0.4606  0.7162
   11SAPS   H8X 1431   1.130   2.707   3.954 -0.8402  1.8814 -0.4346
   11SAPS   H8Y 1432   1.247   2.767   3.830 -1.8180  0.8281 -0.3204
   11SAPS   C39 1433   1.264   2.550   3.871  0.5900  0.0346 -0.5996
   11SAPS   H9X 1434   1.317   2.532   3.775  2.5391  0.8705  0.2717
   11SAPS   H9Y 1435   1.201   2.459   3.884 -0.0399  0.5506  0.0181
   11SAPS  C310 1436   1.363   2.566   3.987 -0.2096 -0.1741 -0.0685
   11SAPS  H10X 1437   1.418   2.656   3.953  0.6202 -0.5949  0.1395
   11SAPS  H10Y 1438   1.440   2.486   3.980  0.3949  0.3788  0.1534
   11SAPS  C311 1439   1.305   2.580   4.124  0.5482  1.0372 -0.2739
   11SAPS  H11X 1440   1.235   2.665   4.135  0.0299  0.5032  0.6734
   11SAPS  H11Y 1441   1.387   2.598   4.196  1.5210 -1.4507 -0.6540
   11SAPS  C312 1442   1.247   2.440   4.170 -0.1349 -0.4739  0.3861
   11SAPS  H12X 1443   1.168   2.408   4.099  2.7192 -0.5711 -3.0077
   11SAPS  H12Y 1444   1.202   2.457   4.270 -1.2840 -1.1155  0.0010
   11SAPS  C313 1445   1.349   2.323   4.187 -0.7284  0.2665  0.2238
   11SAPS  H13X 1446   1.408   2.304   4.096  0.6683 -1.0772  1.3629
   11SAPS  H13Y 1447   1.299   2.224   4.192 -0.1077 -0.3250 -3.0714
   11SAPS  C314 1448   1.447   2.346   4.302 -0.4081 -0.0101  0.1046
   11SAPS  H14X 1449   1.404   2.402   4.389 -0.0118 -1.2089  1.0966
   11SAPS  H14Y 1450   1.533   2.409   4.271 -1.9653  1.2645 -1.9144
   11SAPS  C315 1451   1.518   2.218   4.350  0.1284 -0.9644 -0.0571
   11SAPS  H15X 1452   1.578   2.178   4.266  0.7097 -1.9230  0.7910
   11SAPS  H15Y 1453   1.443   2.143   4.384  1.2239 -0.9257  2.7473
   11SAPS  C316 1454   1.627   2.234   4.456  0.0668 -0.0117 -0.9229
   11SAPS  H16X 1455   1.609   2.307   4.539  0.3936 -0.4625 -0.4500
   11SAPS  H16Y 1456   1.718   2.270   4.403 -0.1045  2.1042  0.0948
   11SAPS  C317 1457   1.647   2.103   4.542 -0.0550 -0.4987  0.5234
   11SAPS  H17X 1458   1.743   2.107   4.596 -0.1315 -0.3495  0.6483
   11SAPS  H17Y 1459   1.643   2.017   4.471 -2.2632  0.5439 -0.7205
   11SAPS  C318 1460   1.540   2.081   4.649 -0.3155  0.1291 -0.1394
   11SAPS  H18X 1461   1.536   1.970   4.659 -0.8686 -0.0860 -2.2954
   11SAPS  H18Y 1462   1.441   2.119   4.619  0.7150  2.9299 -0.2748
   11SAPS  H18Z 1463   1.581   2.122   4.744 -0.0236  1.1538 -0.6998
   12SAPS     N 1464   1.609   2.853   2.444  0.0674  0.2756 -0.1704
   12SAPS   HN1 1465   1.637   2.842   2.543 -2.5142  0.5709  0.6731
   12SAPS   HN2 1466   1.632   2.762   2.400  0.9446 -0.8292  2.3858
   12SAPS   HN3 1467   1.669   2.929   2.405  3.5847 -1.2873  1.7635
   12SAPS   C12 1468   1.468   2.872   2.436  0.7497  0.0489 -0.5947
   12SAPS  H12A 1469   1.450   2.953   2.506 -1.6438 -2.5532  2.0449
   12SAPS   C13 1470   1.419   2.914   2.291  0.4599 -0.8143  0.4678
   12SAPS  O13A 1471   1.501   2.924   2.196  0.0676  0.2681 -0.5218
   12SAPS  O13B 1472   1.297   2.933   2.269  0.5976  0.2716  0.2012
   12SAPS   C11 1473   1.381   2.749   2.472  0.3611  0.5459 -0.1373
   12SAPS  H11A 1474   1.415   2.668   2.404 -0.2108  1.1186 -1.1236
   12SAPS  H11B 1475   1.274   2.769   2.453  0.1122  0.2988  0.9326
   12SAPS     P 1476   1.315   2.760   2.730  0.0270 -0.0551 -0.0892
   12SAPS   O13 1477   1.399   2.844   2.821  0.3531 -0.6837  0.1398
   12SAPS   O14 1478   1.183   2.820   2.698 -0.3160  0.6124 -0.2971
   12SAPS   O12 1479   1.400   2.706   2.605  0.3607 -0.3404 -0.5000
   12SAPS   O11 1480   1.291   2.627   2.806 -0.3564 -0.2356  0.0983
   12SAPS    C1 1481   1.175   2.552   2.797 -0.3944  0.4038 -0.2919
   12SAPS    HA 1482   1.097   2.622   2.761 -1.2606 -0.0258  0.7111
   12SAPS    HB 1483   1.195   2.468   2.727 -2.0904  0.0717 -0.4217
   12SAPS    C2 1484   1.111   2.512   2.934  0.0642 -0.1602  0.0064
   12SAPS    HS 1485   1.104   2.609   2.988 -0.5782 -0.2083  0.0160
   12SAPS   O21 1486   1.193   2.412   3.000 -0.0225  0.0434  0.5466
   12SAPS   C21 1487   1.281   2.459   3.084  1.0197 -0.8969 -0.0550
   12SAPS   O22 1488   1.301   2.578   3.108  0.2397 -0.3892  0.3637
   12SAPS   C22 1489   1.377   2.346   3.129  0.2393 -0.1957 -0.3733
   12SAPS   H2R 1490   1.352   2.258   3.065 -1.4864 -0.7133  0.9341
   12SAPS   H2S 1491   1.475   2.393   3.108 -0.2017  1.4724  1.1020
   12SAPS    C3 1492   0.972   2.448   2.925  0.1685  0.0211  0.2982
   12SAPS    HX 1493   0.992   2.346   2.884 -0.7240 -0.2544  0.5144
   12SAPS    HY 1494   0.910   2.505   2.852 -1.2517 -0.6629  0.9186
   12SAPS   O31 1495   0.900   2.453   3.046 -0.5694  0.1187 -0.1989
   12SAPS   C31 1496   0.896   2.352   3.136 -0.5874 -0.0452 -0.1566
   12SAPS   O32 1497   0.937   2.237   3.113  0.1737 -0.2160  0.5763
   12SAPS   C32 1498   0.822   2.398   3.262  1.1976 -0.6376 -0.0757
   12SAPS   H2X 1499   0.734   2.452   3.221  1.0848 -1.1001 -0.4490
   12SAPS   H2Y 1500   0.882   2.470   3.321  1.3748 -0.8048 -0.0500
   12SAPS   C23 1501   1.375   2.308   3.284  1.4856 -0.5427 -0.9317
   12SAPS   H3R 1502   1.403   2.399   3.340 -1.3580 -1.7965  3.0430
   12SAPS   H3S 1503   1.459   2.239   3.308  0.9379 -0.3467  2.0142
   12SAPS   C24 1504   1.239   2.261   3.339 -0.5218  0.1496 -0.8445
   12SAPS   H4R 1505   1.208   2.168   3.286 -1.9095 -0.0588  0.2729
   12SAPS   H4S 1506   1.159   2.338   3.327 -0.7382 -0.0163 -0.4626
   12SAPS   C25 1507   1.250   2.228   3.491 -0.0534 -0.1104  0.8759
   12SAPS   H5R 1508   1.186   2.298   3.547  0.7843  0.8542  0.6593
   12SAPS   C26 1509   1.296   2.113   3.550  0.7840  0.5839 -0.1375
   12SAPS   H6R 1510   1.311   2.114   3.659  3.1884 -0.4276 -0.4165
   12SAPS   C27 1511   1.356   1.991   3.481  0.4293  0.1741  0.4119
   12SAPS   H7R 1512   1.457   1.970   3.521  0.7585 -0.8189 -0.8912
   12SAPS   H7S 1513   1.359   2.007   3.371 -0.9345  1.5998  0.5323
   12SAPS   C28 1514   1.259   1.876   3.516 -0.4550 -0.4010 -0.4205
   12SAPS   H8R 1515   1.155   1.898   3.491 -1.4971 -2.5553  1.6159
   12SAPS   C29 1516   1.274   1.768   3.586  0.3121 -0.3285  0.0007
   12SAPS   H9R 1517   1.201   1.688   3.567  1.4394 -1.6532  1.0462
   12SAPS  C210 1518   1.402   1.717   3.647 -0.3579  0.6245 -0.7937
   12SAPS  H10R 1519   1.481   1.794   3.650  2.9186 -2.4686 -1.4338
   12SAPS  H10S 1520   1.446   1.632   3.591  1.9580 -0.6641  2.6818
   12SAPS  C211 1521   1.380   1.661   3.786 -0.1018  0.2580  0.4667
   12SAPS  H11R 1522   1.401   1.732   3.867 -1.2751  0.2550  0.8033
   12SAPS  C212 1523   1.367   1.534   3.825  0.2791 -0.3382  0.3645
   12SAPS  H12R 1524   1.344   1.521   3.932 -0.1705  0.4361  0.3726
   12SAPS  C213 1525   1.362   1.410   3.742  0.3707 -0.3203 -0.1331
   12SAPS  H13R 1526   1.468   1.381   3.731  0.6657  0.8005 -0.4171
   12SAPS  H13S 1527   1.325   1.444   3.643  2.4968  4.4187  0.4264
   12SAPS  C214 1528   1.287   1.284   3.791 -0.7260  0.6006  0.1399
   12SAPS  H14R 1529   1.194   1.256   3.739 -0.4745  0.3399 -0.1703
   12SAPS  C215 1530   1.320   1.199   3.883  0.3100 -0.0696 -0.0614
   12SAPS  H15R 1531   1.251   1.118   3.910 -0.1917  1.0813  2.3783
   12SAPS  C216 1532   1.443   1.221   3.969 -0.4576 -0.3502  0.7208
   12SAPS  H16R 1533   1.498   1.316   3.956  1.9778 -1.7073  0.4701
   12SAPS  H16S 1534   1.512   1.136   3.951 -1.9397 -1.6068  0.7582
   12SAPS  C217 1535   1.410   1.229   4.119  0.3788  0.3277 -0.0380
   12SAPS  H17R 1536   1.349   1.142   4.152 -0.5258  0.4864 -1.2224
   12SAPS  H17S 1537   1.348   1.318   4.145  0.6447  0.4172  0.2953
   12SAPS  C218 1538   1.537   1.213   4.206  0.2561  0.0148  0.2263
   12SAPS  H18R 1539   1.623   1.260   4.155  0.5826  0.4124  1.1330
   12SAPS  H18S 1540   1.575   1.109   4.219 -1.2876 -0.5618  0.3827
   12SAPS  C219 1541   1.519   1.276   4.346  0.3408  0.7277 -0.0305
   12SAPS  H19R 1542   1.440   1.221   4.400  0.0341  0.0240 -1.1650
   12SAPS  H19S 1543   1.496   1.385   4.343 -0.1549  0.7083  2.0146
   12SAPS  C220 1544   1.644   1.277   4.435  0.3622  0.5243 -0.4090
   12SAPS  H20R 1545   1.618   1.313   4.536 -1.2048 -1.3385 -0.0951
   12SAPS  H20S 1546   1.724   1.341   4.390 -0.9748  1.4226 -1.5762
   12SAPS  H20T 1547   1.680   1.173   4.450 -1.1526  0.2173  1.4169
   12SAPS   C33 1548   0.766   2.293   3.353  0.0701  0.1520 -0.7982
   12SAPS   H3X 1549   0.682   2.238   3.306 -0.0391 -0.8570  0.5102
   12SAPS   H3Y 1550   0.727   2.344   3.444  0.9584  0.4661 -0.5808
   12SAPS   C34 1551   0.873   2.200   3.415  0.1142 -0.0915  0.8354
   12SAPS   H4X 1552   0.947   2.260   3.472  0.6314  0.6248 -0.5247
   12SAPS   H4Y 1553   0.922   2.138   3.337 -0.9003 -1.1194  0.9914
   12SAPS   C35 1554   0.802   2.104   3.511 -0.2185  0.3512  0.1974
   12SAPS   H5X 1555   0.862   2.011   3.514  2.0067  1.7560  2.5486
   12SAPS   H5Y 1556   0.698   2.074   3.484 -0.3119  1.6017 -1.0035
   12SAPS   C36 1557   0.799   2.156   3.660  0.4782 -0.2738 -0.1534
   12SAPS   H6X 1558   0.718   2.231   3.667  1.0039  0.2755  0.1089
   12SAPS   H6Y 1559   0.895   2.211   3.673 -1.1735  3.1959 -1.3602
   12SAPS   C37 1560   0.779   2.048   3.760  0.2328  0.5624 -0.3831
   12SAPS   H7X 1561   0.793   2.078   3.867  0.4182  2.3181 -0.8648
   12SAPS   H7Y 1562   0.857   1.974   3.734 -1.0823 -0.5931 -1.2013
   12SAPS   C38 1563   0.638   1.971   3.739 -1.2189 -0.4622  0.4606
   12SAPS   H8X 1564   0.638   1.899   3.654  2.1466 -0.2519  0.1426
   12SAPS   H8Y 1565   0.559   2.047   3.719  0.7032  0.9633 -2.4782
   12SAPS   C39 1566   0.594   1.890   3.862  0.3767  0.7496 -0.0086
   12SAPS   H9X 1567   0.496   1.843   3.845  2.3282 -3.9214  0.2950
   12SAPS   H9Y 1568   0.587   1.970   3.939  0.7390  0.8727 -0.0981
   12SAPS  C310 1569   0.700   1.792   3.910 -0.0818  0.1176  0.2049
   12SAPS  H10X 1570   0.804   1.833   3.902  0.5222 -1.5736 -1.1761
   12SAPS  H10Y 1571   0.703   1.703   3.844  0.4935 -0.3263  0.8107
   12SAPS  C311 1572   0.691   1.736   4.052  0.3119 -0.3539  1.1115
   12SAPS  H11X 1573   0.772   1.661   4.065  1.6364  0.6914 -0.6826
   12SAPS  H11Y 1574   0.603   1.668   4.061  0.6358 -0.8260  0.7758
   12SAPS  C312 1575   0.705   1.833   4.170 -0.2908  0.4420  0.0860
   12SAPS  H12X 1576   0.620   1.903   4.153 -1.0719 -1.0194 -2.6030
   12SAPS  H12Y 1577   0.799   1.891   4.163 -0.5000  0.7352 -0.3250
   12SAPS  C313 1578   0.690   1.762   4.307  0.0013 -0.1702 -0.5784
   12SAPS  H13X 1579   0.768   1.685   4.320  0.1963  0.3076  1.3711
   12SAPS  H13Y 1580   0.591   1.712   4.302  0.0287 -0.1520 -1.6703
   12SAPS  C314 1581   0.687   1.851   4.435  0.1974  0.2853  0.8428
   12SAPS  H14X 1582   0.648   1.791   4.520  1.2347 -1.5153  0.0931
   12SAPS  H14Y 1583   0.633   1.945   4.410  2.4457  1.3927 -0.1154
   12SAPS  C315 1584   0.826   1.895   4.473  0.2601 -0.0156 -0.5661
   12SAPS  H15X 1585   0.886   1.916   4.381  1.9654  1.0371  0.7183
   12SAPS  H15Y 1586   0.880   1.816   4.529  1.9320  0.4254 -1.4736
   12SAPS  C316 1587   0.824   2.019   4.566 -0.3213  0.6541  0.2023
   12SAPS  H16X 1588   0.818   1.988   4.673 -1.0455 -2.1858 -0.5671
   12SAPS  H16Y 1589   0.746   2.094   4.545 -1.6893 -0.2062  1.8933
   12SAPS  C317 1590   0.954   2.103   4.564  0.1942 -0.9157  0.5419
   12SAPS  H17X 1591   0.951   2.191   4.631 -2.8960 -0.8388  0.4471
   12SAPS  H17Y 1592   0.970   2.145   4.462  0.2882 -0.4152  0.7616
   12SAPS  C318 1593   1.085   2.027   4.597  0.1850  0.2282  0.1419
   12SAPS  H18X 1594   1.083   1.931   4.541  1.3844 -0.9036  1.9304
   12SAPS  H18Y 1595   1.077   2.009   4.707 -1.2022  0.6425  0.1275
   12SAPS  H18Z 1596   1.171   2.081   4.553 -0.4813  0.4532 -0.9124
   13SAPS     N 1597   4.185   6.086   2.558 -0.0138  0.6306 -0.8604
   13SAPS   HN1 1598   4.188   6.158   2.634  2.5187  0.1078 -0.3909
   13SAPS   HN2 1599   4.191   5.999   2.615 -0.7047  1.0011 -0.2057
   13SAPS   HN3 1600   4.266   6.103   2.495  0.7862  0.8660  0.2040
   13SAPS   C12 1601   4.052   6.091   2.492  0.2666  0.5885  0.3928
   13SAPS  H12A 1602   3.985   6.103   2.575  0.4485 -2.0213  1.0265
   13SAPS   C13 1603   4.030   6.208   2.388 -0.0113  0.2368 -0.3264
   13SAPS  O13A 1604   4.131   6.259   2.340 -0.4610 -0.0163 -0.0580
   13SAPS  O13B 1605   3.924   6.205   2.331  0.2371 -0.0208  0.5976
   13SAPS   C11 1606   4.035   5.955   2.427  0.3124 -0.5217 -0.0440
   13SAPS  H11A 1607   4.124   5.940   2.362 -0.7770 -0.8346 -1.5344
   13SAPS  H11B 1608   3.950   5.954   2.355  1.9248 -1.1865 -2.0475
   13SAPS     P 1609   4.004   5.707   2.505  0.6936 -0.0971 -0.1201
   13SAPS   O13 1610   3.864   5.680   2.458  0.7814  0.0488  0.6038
   13SAPS   O14 1611   4.114   5.674   2.414  1.0306 -0.2176  0.1052
   13SAPS   O12 1612   4.008   5.861   2.531  0.4877 -0.0467 -0.1950
   13SAPS   O11 1613   4.033   5.647   2.640  0.3122 -0.1543  0.3115
   13SAPS    C1 1614   3.930   5.629   2.742  0.1100 -0.1015 -0.4545
   13SAPS    HA 1615   3.842   5.688   2.709 -2.2388 -1.5167  2.8000
   13SAPS    HB 1616   3.904   5.526   2.772 -2.2882  0.7857  0.7681
   13SAPS    C2 1617   3.966   5.704   2.873 -0.2911  0.7285 -0.1584
   13SAPS    HS 1618   4.013   5.801   2.843  0.1286  0.5496 -0.0908
   13SAPS   O21 1619   4.060   5.620   2.942  0.2061 -0.1454  0.1359
   13SAPS   C21 1620   4.150   5.683   3.017 -0.3009  1.1169  0.3114
   13SAPS   O22 1621   4.182   5.801   3.014 -0.6344  0.0965  0.0556
   13SAPS   C22 1622   4.190   5.574   3.117 -0.5431  0.9982  0.0755
   13SAPS   H2R 1623   4.102   5.516   3.151  1.0677 -1.1739  0.7988
   13SAPS   H2S 1624   4.263   5.502   3.074 -1.7444 -0.4496  0.3733
   13SAPS    C3 1625   3.846   5.743   2.967 -0.3653 -0.1480  0.5381
   13SAPS    HX 1626   3.789   5.651   2.989 -2.0844  0.5522 -0.7746
   13SAPS    HY 1627   3.787   5.815   2.906  2.1915  0.7467 -1.0874
   13SAPS   O31 1628   3.886   5.800   3.099 -0.1620 -0.2191  0.5735
   13SAPS   C31 1629   3.863   5.932   3.122 -0.3742 -0.4999  0.3269
   13SAPS   O32 1630   3.823   6.016   3.039  0.1225  0.1674  0.2324
   13SAPS   C32 1631   3.902   5.969   3.257  0.5923  0.1562  0.5757
   13SAPS   H2X 1632   3.857   6.070   3.266 -0.6214 -0.3389  0.3040
   13SAPS   H2Y 1633   4.010   5.950   3.274  0.6275 -2.2894 -1.7183
   13SAPS   C23 1634   4.246   5.645   3.238 -0.1514 -0.3449  0.6446
   13SAPS   H3R 1635   4.302   5.737   3.210  1.0395 -0.9728  0.9118
   13SAPS   H3S 1636   4.317   5.579   3.292  3.1093  1.5877 -0.9472
   13SAPS   C24 1637   4.143   5.669   3.339  0.4208  0.4591 -0.0655
   13SAPS   H4R 1638   4.098   5.575   3.377 -1.8010  0.3759 -2.6370
   13SAPS   H4S 1639   4.060   5.726   3.293 -0.9553 -1.0036  0.5429
   13SAPS   C25 1640   4.185   5.748   3.461 -0.1728 -0.0139  0.1020
   13SAPS   H5R 1641   4.254   5.828   3.429  1.2117 -1.1528  0.1504
   13SAPS   C26 1642   4.138   5.751   3.587  0.3715  0.1569 -0.4507
   13SAPS   H6R 1643   4.192   5.818   3.656 -0.3218  0.8404 -0.5658
   13SAPS   C27 1644   4.051   5.654   3.659  0.9004 -0.2411 -0.1075
   13SAPS   H7R 1645   4.043   5.560   3.599 -0.1793 -1.1904  1.4312
   13SAPS   H7S 1646   3.946   5.689   3.667  0.6987 -0.4471 -1.6332
   13SAPS   C28 1647   4.109   5.615   3.791  0.1956  0.7928  0.4184
   13SAPS   H8R 1648   4.193   5.544   3.787 -0.4327 -0.0817  1.9277
   13SAPS   C29 1649   4.099   5.675   3.905  0.5291  0.1550 -0.0877
   13SAPS   H9R 1650   4.151   5.637   3.994  0.8629 -0.2695 -0.4597
   13SAPS  C210 1651   4.005   5.789   3.929  0.2572 -0.4559  0.0174
   13SAPS  H10R 1652   4.008   5.869   3.851  1.1235  1.4388  1.8990
   13SAPS  H10S 1653   4.036   5.856   4.012  2.0484  0.3512 -1.2401
   13SAPS  C211 1654   3.871   5.737   3.965  0.3165 -0.6052  0.2637
   13SAPS  H11R 1655   3.809   5.706   3.880 -0.2088 -1.7459  1.0463
   13SAPS  C212 1656   3.822   5.713   4.088 -0.4346 -0.2159  0.3774
   13SAPS  H12R 1657   3.731   5.652   4.091 -1.0765  0.7666  1.8930
   13SAPS  C213 1658   3.881   5.740   4.224  0.2833  0.3896 -0.7968
   13SAPS  H13R 1659   3.802   5.763   4.298  0.0563  1.9922 -1.4963
   13SAPS  H13S 1660   3.927   5.840   4.209  0.4315  0.2331 -1.4109
   13SAPS  C214 1661   3.978   5.641   4.273 -0.2799 -0.0819  0.5492
   13SAPS  H14R 1662   4.046   5.585   4.206 -1.5436 -3.0627  1.5686
   13SAPS  C215 1663   3.980   5.600   4.404 -0.1532  0.3695  0.3545
   13SAPS  H15R 1664   4.050   5.517   4.423 -2.6111 -1.7443  0.8249
   13SAPS  C216 1665   3.879   5.632   4.512  0.4605 -0.0511  0.4208
   13SAPS  H16R 1666   3.794   5.563   4.497 -0.1954  1.3096 -2.8673
   13SAPS  H16S 1667   3.851   5.739   4.505 -0.4063 -0.1951  1.4958
   13SAPS  C217 1668   3.922   5.610   4.654 -0.1016  0.3402 -0.0805
   13SAPS  H17R 1669   4.022   5.658   4.670 -0.8730  1.7087  0.8593
   13SAPS  H17S 1670   3.924   5.503   4.681 -1.8520  0.7073  1.7802
   13SAPS  C218 1671   3.818   5.667   4.754  0.4581 -0.1681  0.2174
   13SAPS  H18R 1672   3.727   5.604   4.740  0.5913 -0.8853  2.1827
   13SAPS  H18S 1673   3.789   5.770   4.726  0.2304 -0.1315  0.5747
   13SAPS  C219 1674   3.857   5.668   4.899  0.2143  0.2238 -0.0996
   13SAPS  H19R 1675   3.789   5.738   4.953  0.8067  0.2448  0.6257
   13SAPS  H19S 1676   3.960   5.709   4.902 -0.3858  1.7896 -0.2778
   13SAPS  C220 1677   3.856   5.528   4.974 -0.1106 -0.2158 -0.1965
   13SAPS  H20R 1678   3.888   5.549   5.079 -0.4928 -0.3937 -0.0453
   13SAPS  H20S 1679   3.928   5.462   4.921  0.8130  1.2961 -0.9043
   13SAPS  H20T 1680   3.754   5.485   4.970 -0.1175 -0.2707  0.4601
   13SAPS   C33 1681   3.823   5.888   3.364 -0.5849  0.2993  0.1329
   13SAPS   H3X 1682   3.875   5.790   3.366 -1.0038  0.0616 -0.3370
   13SAPS   H3Y 1683   3.715   5.881   3.338 -1.1892  1.6551  2.0450
   13SAPS   C34 1684   3.822   5.975   3.494 -0.0143  1.0002  0.2973
   13SAPS   H4X 1685   3.809   6.082   3.467  0.5939  0.7769 -0.9430
   13SAPS   H4Y 1686   3.927   5.949   3.519 -0.3699 -2.4993 -1.2681
   13SAPS   C35 1687   3.722   5.934   3.597 -0.0903  1.0639 -0.1648
   13SAPS   H5X 1688   3.715   5.825   3.617  1.6779  1.2811  2.1300
   13SAPS   H5Y 1689   3.623   5.966   3.558 -0.3630  1.6988  0.9873
   13SAPS   C36 1690   3.744   6.003   3.735  0.2160 -1.2777  0.5349
   13SAPS   H6X 1691   3.839   5.974   3.785  0.2537 -1.4356  0.3738
   13SAPS   H6Y 1692   3.659   5.967   3.797 -2.3559  2.4980 -0.3972
   13SAPS   C37 1693   3.730   6.163   3.739 -0.0397 -0.6628  0.2247
   13SAPS   H7X 1694   3.636   6.195   3.689  0.4899 -0.2956 -0.5637
   13SAPS   H7Y 1695   3.816   6.199   3.679  0.4575 -2.8757 -0.4573
   13SAPS   C38 1696   3.726   6.226   3.876 -0.3874 -0.2972  0.9324
   13SAPS   H8X 1697   3.649   6.177   3.939 -0.6197  0.4085  1.2073
   13SAPS   H8Y 1698   3.697   6.333   3.868  2.5653  0.4661 -0.9529
   13SAPS   C39 1699   3.860   6.222   3.956  0.5546  0.8188  0.3800
   13SAPS   H9X 1700   3.929   6.291   3.902  0.4636  0.4855 -0.1782
   13SAPS   H9Y 1701   3.891   6.115   3.957  0.5537  0.7215 -2.3207
   13SAPS  C310 1702   3.824   6.264   4.099  0.0224 -0.2135 -0.1863
   13SAPS  H10X 1703   3.721   6.231   4.122 -0.0652 -0.8486 -1.4224
   13SAPS  H10Y 1704   3.817   6.374   4.109  2.6131 -0.0981  1.6140
   13SAPS  C311 1705   3.924   6.217   4.208  0.3504 -0.3573 -1.0557
   13SAPS  H11X 1706   4.026   6.257   4.189  1.6212 -2.9650 -0.1021
   13SAPS  H11Y 1707   3.931   6.107   4.219 -0.1047 -0.3163 -0.1903
   13SAPS  C312 1708   3.879   6.264   4.354  0.1663  0.7278  0.4905
   13SAPS  H12X 1709   3.795   6.196   4.378  0.9719 -0.3664  0.2829
   13SAPS  H12Y 1710   3.835   6.364   4.378  0.8858  1.3186 -0.5681
   13SAPS  C313 1711   3.988   6.245   4.460 -0.1315  0.8308  0.6462
   13SAPS  H13X 1712   4.075   6.282   4.402  0.6739 -1.3664  0.3331
   13SAPS  H13Y 1713   4.003   6.137   4.481 -0.9330  0.4151 -0.8251
   13SAPS  C314 1714   3.967   6.333   4.580  0.9930  0.6734  0.1814
   13SAPS  H14X 1715   3.877   6.296   4.634  0.3900 -0.7808 -1.6967
   13SAPS  H14Y 1716   3.950   6.437   4.547 -0.0487  0.2549 -0.6695
   13SAPS  C315 1717   4.083   6.330   4.677 -0.1543 -0.0356  0.3942
   13SAPS  H15X 1718   4.152   6.406   4.635 -2.3447  2.1195  0.4331
   13SAPS  H15Y 1719   4.142   6.236   4.671  1.4495  1.0404 -2.3780
   13SAPS  C316 1720   4.036   6.367   4.813 -0.0465 -0.2990  0.3599
   13SAPS  H16X 1721   3.978   6.284   4.858 -0.0286  0.7663  2.4822
   13SAPS  H16Y 1722   3.986   6.466   4.814  2.6198  1.1453 -0.1489
   13SAPS  C317 1723   4.157   6.376   4.906  1.0510  0.2719  0.3644
   13SAPS  H17X 1724   4.235   6.448   4.872  3.6168 -2.2309  0.5015
   13SAPS  H17Y 1725   4.212   6.280   4.908 -0.0632 -0.3814  0.2908
   13SAPS  C318 1726   4.120   6.400   5.053 -0.5683 -0.0331 -0.3728
   13SAPS  H18X 1727   4.036   6.331   5.078 -0.8622  0.7971  1.1028
   13SAPS  H18Y 1728   4.075   6.500   5.073 -1.8505 -0.4555 -1.0139
   13SAPS  H18Z 1729   4.209   6.388   5.118  0.1612 -0.7963 -1.4814
   14SAPS     N 1730   5.798   2.803   2.725 -0.2387 -0.0832  0.2719
   14SAPS   HN1 1731   5.863   2.734   2.767  0.7610  1.1644  0.8498
   14SAPS   HN2 1732   5.862   2.878   2.692  1.1544 -1.9116 -1.4214
   14SAPS   HN3 1733   5.735   2.848   2.794 -2.0554  0.6663 -1.7562
   14SAPS   C12 1734   5.712   2.734   2.616 -0.0411  0.0616  0.3419
   14SAPS  H12A 1735   5.659   2.812   2.563  0.8899 -0.0240 -0.7821
   14SAPS   C13 1736   5.792   2.664   2.510 -0.2612 -0.1020  0.2381
   14SAPS  O13A 1737   5.914   2.666   2.511  0.5467 -0.0510 -0.2071
   14SAPS  O13B 1738   5.729   2.640   2.404  0.2921  0.8367  0.1969
   14SAPS   C11 1739   5.613   2.633   2.690  0.0180 -0.7917 -0.0093
   14SAPS  H11A 1740   5.665   2.563   2.759  0.1364  0.2892  1.0168
   14SAPS  H11B 1741   5.569   2.574   2.606  0.6558  0.6367 -1.3942
   14SAPS     P 1742   5.399   2.776   2.671 -0.4378 -0.3038 -0.1178
   14SAPS   O13 1743   5.464   2.908   2.633  0.2091 -0.0387 -0.1921
   14SAPS   O14 1744   5.353   2.692   2.561  0.3920  0.3201 -0.0558
   14SAPS   O12 1745   5.499   2.689   2.757  0.0463 -0.2495  0.6060
   14SAPS   O11 1746   5.282   2.799   2.773 -1.2283 -0.2946  0.6878
   14SAPS    C1 1747   5.261   2.731   2.897  0.2791  0.3108 -0.1942
   14SAPS    HA 1748   5.180   2.656   2.884 -1.8342  1.8480  2.7851
   14SAPS    HB 1749   5.352   2.681   2.937  0.8256  1.2576 -0.2218
   14SAPS    C2 1750   5.237   2.835   3.012 -0.0510 -0.1072  0.5895
   14SAPS    HS 1751   5.337   2.880   3.033 -0.7086  1.5399  0.4036
   14SAPS   O21 1752   5.177   2.777   3.120 -0.5403  0.3682 -0.2756
   14SAPS   C21 1753   5.191   2.837   3.238  0.3518 -0.0130  0.7790
   14SAPS   O22 1754   5.253   2.939   3.265  0.2442  0.3972  0.0184
   14SAPS   C22 1755   5.111   2.756   3.343 -0.2803  0.2060  0.4813
   14SAPS   H2R 1756   5.020   2.811   3.377 -0.5362 -0.2147  0.4813
   14SAPS   H2S 1757   5.077   2.657   3.307  0.0500  0.4830 -0.6268
   14SAPS    C3 1758   5.146   2.952   2.948 -0.2672 -0.3845  0.2066
   14SAPS    HX 1759   5.049   2.907   2.920 -0.4520  0.6735 -0.9026
   14SAPS    HY 1760   5.195   2.982   2.853  2.1719 -0.9035  1.2273
   14SAPS   O31 1761   5.130   3.063   3.050 -0.1292 -0.1515  0.3402
   14SAPS   C31 1762   5.224   3.156   3.040  0.3858 -1.1026 -0.6096
   14SAPS   O32 1763   5.318   3.147   2.965 -0.3924  0.0216  0.3778
   14SAPS   C32 1764   5.214   3.269   3.148 -0.2596 -0.5145 -0.0730
   14SAPS   H2X 1765   5.173   3.211   3.234  2.2929 -0.1289  1.4877
   14SAPS   H2Y 1766   5.140   3.350   3.134 -0.0642 -0.1683  0.8669
   14SAPS   C23 1767   5.205   2.722   3.464  0.3912 -0.4353 -0.3618
   14SAPS   H3R 1768   5.137   2.741   3.549  0.5419 -3.5374  0.5770
   14SAPS   H3S 1769   5.290   2.794   3.467  0.0730  0.0863 -2.5192
   14SAPS   C24 1770   5.249   2.576   3.474 -0.3661  0.1648 -0.0457
   14SAPS   H4R 1771   5.156   2.515   3.477  0.4095 -1.1670 -1.3051
   14SAPS   H4S 1772   5.297   2.556   3.572  1.1152  3.4513  0.0226
   14SAPS   C25 1773   5.336   2.530   3.360 -0.6246 -0.2762  0.0318
   14SAPS   H5R 1774   5.346   2.601   3.277 -2.9805  0.6575  0.4543
   14SAPS   C26 1775   5.395   2.409   3.348  0.2784 -0.1948  0.8921
   14SAPS   H6R 1776   5.441   2.387   3.250 -1.2238  0.0138  0.1056
   14SAPS   C27 1777   5.398   2.292   3.440 -0.2502  0.1584 -0.0477
   14SAPS   H7R 1778   5.431   2.334   3.538  2.3903  1.7180 -1.4952
   14SAPS   H7S 1779   5.480   2.222   3.415 -1.2457 -0.9088 -0.4033
   14SAPS   C28 1780   5.269   2.210   3.460  0.0113 -0.5237 -0.1062
   14SAPS   H8R 1781   5.216   2.188   3.366  1.8434 -0.9702 -1.0839
   14SAPS   C29 1782   5.221   2.157   3.577  0.2296  0.3972  0.0359
   14SAPS   H9R 1783   5.133   2.091   3.568  0.1137  0.7618 -1.7725
   14SAPS  C210 1784   5.287   2.170   3.717  0.7206  0.0133 -0.5193
   14SAPS  H10R 1785   5.394   2.195   3.702  0.9908 -0.8381 -0.0927
   14SAPS  H10S 1786   5.282   2.073   3.772 -0.2627  0.4114  0.1330
   14SAPS  C211 1787   5.217   2.277   3.795  0.5260  0.5236  0.5999
   14SAPS  H11R 1788   5.192   2.362   3.730 -1.0640 -1.4430 -1.5312
   14SAPS  C212 1789   5.188   2.278   3.926  0.3896 -0.5068 -0.7113
   14SAPS  H12R 1790   5.129   2.365   3.961  2.1122  1.0652 -1.5189
   14SAPS  C213 1791   5.197   2.156   4.019  0.5436 -0.1023 -0.7050
   14SAPS  H13R 1792   5.234   2.067   3.964 -2.7571 -0.9226 -1.7789
   14SAPS  H13S 1793   5.099   2.120   4.056  1.8173 -3.2980 -0.1101
   14SAPS  C214 1794   5.288   2.179   4.133 -0.0542 -0.1136  0.4124
   14SAPS  H14R 1795   5.352   2.267   4.117 -0.9917  0.2905 -1.2708
   14SAPS  C215 1796   5.290   2.113   4.250 -0.2076 -0.0286 -0.1597
   14SAPS  H15R 1797   5.373   2.137   4.318  0.9367  2.5725 -2.2950
   14SAPS  C216 1798   5.204   1.993   4.292 -0.5444  0.1758  0.5640
   14SAPS  H16R 1799   5.125   1.970   4.217  1.0882 -3.3675 -0.2470
   14SAPS  H16S 1800   5.151   2.006   4.389 -1.5836  2.3249 -0.2346
   14SAPS  C217 1801   5.287   1.851   4.301 -0.4284  0.5065 -0.7990
   14SAPS  H17R 1802   5.350   1.864   4.391 -0.1211  2.4361 -1.2412
   14SAPS  H17S 1803   5.354   1.842   4.212  2.0842  0.3837  1.0023
   14SAPS  C218 1804   5.197   1.732   4.323  0.1857  0.2888  0.1670
   14SAPS  H18R 1805   5.121   1.738   4.242 -0.3132  2.8784  0.7259
   14SAPS  H18S 1806   5.129   1.742   4.411 -1.4870  1.8867 -1.2300
   14SAPS  C219 1807   5.284   1.600   4.342  0.3601 -0.3824 -0.3377
   14SAPS  H19R 1808   5.365   1.601   4.266  0.2258 -0.0053 -0.4778
   14SAPS  H19S 1809   5.209   1.526   4.306 -0.4073  0.0038  0.4259
   14SAPS  C220 1810   5.333   1.567   4.483  0.0167 -1.1621 -0.3925
   14SAPS  H20R 1811   5.239   1.541   4.536  0.0297 -2.4694 -0.9579
   14SAPS  H20S 1812   5.392   1.648   4.530 -0.6449  1.4876 -3.7943
   14SAPS  H20T 1813   5.392   1.472   4.479  0.6199 -0.7911 -0.3924
   14SAPS   C33 1814   5.356   3.315   3.188  0.0183  0.2790  0.1813
   14SAPS   H3X 1815   5.422   3.341   3.103 -1.8389  0.1879 -1.3404
   14SAPS   H3Y 1816   5.410   3.235   3.243 -1.9905 -0.1374  1.6605
   14SAPS   C34 1817   5.358   3.433   3.289 -0.4958 -0.0280 -0.0122
   14SAPS   H4X 1818   5.296   3.516   3.249  0.5009  1.2074  0.8967
   14SAPS   H4Y 1819   5.460   3.477   3.297 -0.6948  0.2918  0.8420
   14SAPS   C35 1820   5.313   3.387   3.426  0.1789 -0.8853  0.2075
   14SAPS   H5X 1821   5.373   3.297   3.451  2.3483  0.4403  0.0275
   14SAPS   H5Y 1822   5.208   3.352   3.424  0.6068 -2.2747 -2.6413
   14SAPS   C36 1823   5.330   3.503   3.531  0.2766 -0.1326  0.4591
   14SAPS   H6X 1824   5.255   3.584   3.518  2.0692  1.4070 -0.8379
   14SAPS   H6Y 1825   5.423   3.560   3.510 -0.7101  0.8572 -1.4360
   14SAPS   C37 1826   5.343   3.454   3.679  0.0450  0.2864  0.3401
   14SAPS   H7X 1827   5.393   3.530   3.743  0.8286 -0.1273  0.2259
   14SAPS   H7Y 1828   5.418   3.372   3.680 -0.6593 -0.3953 -1.0178
   14SAPS   C38 1829   5.212   3.419   3.743  0.5481 -0.0121 -0.6451
   14SAPS   H8X 1830   5.178   3.320   3.707  0.5571  0.0081 -0.7092
   14SAPS   H8Y 1831   5.134   3.497   3.728 -0.5483  0.3133  4.6875
   14SAPS   C39 1832   5.223   3.398   3.894 -0.1339 -0.1975  0.1082
   14SAPS   H9X 1833   5.268   3.488   3.940  2.2633 -1.5292  0.5439
   14SAPS   H9Y 1834   5.281   3.306   3.914  2.5028  1.0311 -1.3079
   14SAPS  C310 1835   5.094   3.382   3.973 -0.3171  0.0444 -0.1214
   14SAPS  H10X 1836   5.039   3.292   3.939  0.0247 -0.5882  0.9210
   14SAPS  H10Y 1837   5.027   3.468   3.955 -0.7593 -0.5252 -1.2287
   14SAPS  C311 1838   5.108   3.383   4.127  0.0834  0.3646  0.3643
   14SAPS  H11X 1839   5.009   3.372   4.177  0.3122 -1.2443  0.5353
   14SAPS  H11Y 1840   5.160   3.475   4.163 -0.7509 -0.0093  2.7591
   14SAPS  C312 1841   5.222   3.270   4.173  0.8463 -0.1329 -0.8345
   14SAPS  H12X 1842   5.251   3.296   4.278 -0.0854 -1.5021 -0.2142
   14SAPS  H12Y 1843   5.309   3.293   4.108  0.7115  0.0281 -0.9579
   14SAPS  C313 1844   5.171   3.130   4.176 -0.3739  0.3391 -0.8028
   14SAPS  H13X 1845   5.107   3.102   4.090  0.0983 -0.8822 -0.7615
   14SAPS  H13Y 1846   5.106   3.125   4.266  1.3758  0.2948  0.4962
   14SAPS  C314 1847   5.288   3.040   4.196  0.1106  0.3732 -0.0118
   14SAPS  H14X 1848   5.256   2.935   4.215 -0.5882  0.6538  0.3826
   14SAPS  H14Y 1849   5.334   3.081   4.288  1.8847  0.2465 -0.8105
   14SAPS  C315 1850   5.394   3.026   4.091  0.2041 -0.5585  0.2791
   14SAPS  H15X 1851   5.474   2.961   4.132  2.4258  1.3206 -0.8800
   14SAPS  H15Y 1852   5.463   3.112   4.080  1.2032 -1.1493  1.6296
   14SAPS  C316 1853   5.344   2.974   3.959  0.0657 -0.4741  0.6016
   14SAPS  H16X 1854   5.277   3.049   3.911  2.2932  1.1931 -0.1514
   14SAPS  H16Y 1855   5.292   2.877   3.968  0.2708 -0.5379  1.0865
   14SAPS  C317 1856   5.459   2.957   3.856  0.4852  0.4179 -0.0245
   14SAPS  H17X 1857   5.522   2.873   3.893 -0.1882  0.3232  0.9593
   14SAPS  H17Y 1858   5.516   3.052   3.858 -0.5629  1.0769  2.7233
   14SAPS  C318 1859   5.405   2.927   3.717 -1.0570 -0.2180 -0.4034
   14SAPS  H18X 1860   5.493   2.927   3.649  0.2200  0.3520  1.1879
   14SAPS  H18Y 1861   5.340   3.007   3.676 -0.1437 -0.1712 -1.8472
   14SAPS  H18Z 1862   5.329   2.846   3.713 -0.3287 -1.0069  0.9021
   15SAPS     N 1863   2.040   2.779   2.618 -0.0316 -0.4729 -0.0262
   15SAPS   HN1 1864   1.955   2.767   2.677 -0.3989 -1.7568 -0.7810
   15SAPS   HN2 1865   2.017   2.800   2.518  2.2922 -0.8636 -0.6995
   15SAPS   HN3 1866   2.088   2.688   2.627  0.2108 -0.2219  1.5603
   15SAPS   C12 1867   2.136   2.875   2.685  0.2436 -0.5423 -0.6222
   15SAPS  H12A 1868   2.235   2.854   2.649  0.2204  0.8339 -1.5916
   15SAPS   C13 1869   2.091   3.019   2.658 -0.4153 -0.3211 -0.0316
   15SAPS  O13A 1870   1.992   3.040   2.583 -0.8943  0.1026  0.6775
   15SAPS  O13B 1871   2.150   3.117   2.721  0.5602  0.4295  0.1728
   15SAPS   C11 1872   2.139   2.869   2.840  0.2094 -0.0338  0.0435
   15SAPS  H11A 1873   2.036   2.880   2.878 -0.2110 -1.1760 -0.7164
   15SAPS  H11B 1874   2.203   2.948   2.886 -2.0553  1.4014  0.8631
   15SAPS     P 1875   2.125   2.661   2.995  0.1491 -0.3036 -0.0437
   15SAPS   O13 1876   2.157   2.733   3.123 -0.3613  0.6890  0.2038
   15SAPS   O14 1877   1.984   2.633   2.969  0.5729  0.2555 -0.2455
   15SAPS   O12 1878   2.189   2.738   2.869 -0.1301  0.5747 -0.0693
   15SAPS   O11 1879   2.201   2.525   2.978  0.6577  1.1900  0.0332
   15SAPS    C1 1880   2.317   2.486   3.048  0.3392 -0.0346 -0.4807
   15SAPS    HA 1881   2.388   2.431   2.983  0.6798 -0.3890  0.1850
   15SAPS    HB 1882   2.370   2.575   3.089 -1.2631  1.4100 -1.3967
   15SAPS    C2 1883   2.278   2.395   3.166 -0.2547  0.0531  0.3632
   15SAPS    HS 1884   2.228   2.305   3.123  0.5653 -1.0040  1.5233
   15SAPS   O21 1885   2.205   2.473   3.262  0.4501 -1.0870  0.8660
   15SAPS   C21 1886   2.101   2.405   3.315 -0.3886  0.4527  0.3750
   15SAPS   O22 1887   2.080   2.288   3.296 -0.4932 -0.0351  0.5912
   15SAPS   C22 1888   2.016   2.493   3.401 -0.1504  0.9284 -0.6054
   15SAPS   H2R 1889   2.082   2.571   3.446  0.2456 -0.5695  1.5431
   15SAPS   H2S 1890   1.938   2.545   3.342 -0.0679  0.5863 -1.0257
   15SAPS    C3 1891   2.418   2.355   3.226 -0.3474 -0.8757 -0.1751
   15SAPS    HX 1892   2.474   2.443   3.263 -2.0350  0.1751 -0.0268
   15SAPS    HY 1893   2.486   2.300   3.157 -2.3897 -2.4133 -1.0649
   15SAPS   O31 1894   2.385   2.276   3.340  0.1312 -0.4242  0.0063
   15SAPS   C31 1895   2.392   2.144   3.330  0.0680  0.0425  0.1226
   15SAPS   O32 1896   2.448   2.085   3.236 -0.4346 -0.0204 -0.0417
   15SAPS   C32 1897   2.319   2.076   3.441 -0.6248 -0.1922 -0.1560
   15SAPS   H2X 1898   2.341   1.967   3.436 -1.4839 -0.3588 -0.4042
   15SAPS   H2Y 1899   2.212   2.077   3.411 -1.8111 -1.2070  3.5665
   15SAPS   C23 1900   1.949   2.424   3.527 -0.2484 -0.0956  0.8755
   15SAPS   H3R 1901   1.883   2.344   3.487  0.2584  0.3557 -0.9325
   15SAPS   H3S 1902   1.894   2.509   3.573  1.2664  0.4829  1.7018
   15SAPS   C24 1903   2.041   2.381   3.645 -0.4209 -0.4126 -0.3278
   15SAPS   H4R 1904   2.081   2.469   3.700  0.5721 -0.6793 -0.6045
   15SAPS   H4S 1905   2.137   2.340   3.606 -0.3086 -0.1283 -0.3506
   15SAPS   C25 1906   1.960   2.287   3.736 -1.0246  0.2525 -0.0699
   15SAPS   H5R 1907   1.906   2.204   3.687  0.5228 -1.0516  0.3775
   15SAPS   C26 1908   1.956   2.301   3.866 -0.3938 -0.2923 -0.1157
   15SAPS   H6R 1909   1.904   2.230   3.932 -1.4154  1.7229  1.3535
   15SAPS   C27 1910   2.026   2.399   3.956 -0.4987  0.8993 -0.3708
   15SAPS   H7R 1911   2.103   2.456   3.898  0.6636 -2.1213 -2.0098
   15SAPS   H7S 1912   2.091   2.327   4.010 -2.4729  0.0466  0.9352
   15SAPS   C28 1913   1.962   2.492   4.049 -0.3967 -0.1061  0.5210
   15SAPS   H8R 1914   1.899   2.563   3.993  1.7468  1.8776  0.4668
   15SAPS   C29 1915   1.978   2.513   4.181 -0.1005  0.2753  0.0993
   15SAPS   H9R 1916   1.904   2.578   4.230 -1.9151 -2.1069  0.7051
   15SAPS  C210 1917   2.074   2.432   4.262 -0.4704 -0.2512 -0.4769
   15SAPS  H10R 1918   2.124   2.495   4.338 -0.2038 -1.4130  0.3439
   15SAPS  H10S 1919   2.155   2.393   4.197 -1.5543  0.7187 -2.5260
   15SAPS  C211 1920   1.998   2.304   4.312  0.4142  0.5826 -0.3615
   15SAPS  H11R 1921   1.921   2.262   4.245  3.4372 -2.2822 -2.3244
   15SAPS  C212 1922   2.000   2.262   4.438 -0.8023 -0.6205  0.6176
   15SAPS  H12R 1923   1.947   2.171   4.470 -0.0441 -1.2827  0.0485
   15SAPS  C213 1924   2.103   2.324   4.528 -0.2055  0.6343 -0.9555
   15SAPS  H13R 1925   2.191   2.352   4.467  0.5204  1.3279  0.3555
   15SAPS  H13S 1926   2.151   2.250   4.596  0.0830  0.6716 -1.1159
   15SAPS  C214 1927   2.047   2.442   4.609  0.2522  0.1189 -0.0023
   15SAPS  H14R 1928   2.012   2.526   4.548  0.4341  0.6620  0.6329
   15SAPS  C215 1929   2.064   2.453   4.748  0.2084  0.5466  0.0937
   15SAPS  H15R 1930   2.011   2.533   4.801  1.4637  0.6454  1.2572
   15SAPS  C216 1931   2.132   2.361   4.840  0.0147 -0.0625 -0.1643
   15SAPS  H16R 1932   2.198   2.412   4.913 -2.2856  1.2521  1.1353
   15SAPS  H16S 1933   2.191   2.288   4.780  1.3371 -0.2343  1.3052
   15SAPS  C217 1934   2.031   2.287   4.924  0.0321  0.6710 -0.3446
   15SAPS  H17R 1935   2.064   2.181   4.935 -0.0543  0.5396 -1.2996
   15SAPS  H17S 1936   1.936   2.280   4.867  0.5107  2.2158 -1.3725
   15SAPS  C218 1937   1.998   2.344   5.064 -0.1545  0.1384  0.6893
   15SAPS  H18R 1938   1.946   2.442   5.070 -2.2411 -0.7520 -1.3556
   15SAPS  H18S 1939   2.095   2.351   5.118 -0.2262  2.0828  0.6701
   15SAPS  C219 1940   1.908   2.250   5.149  0.1528  0.1209  0.2428
   15SAPS  H19R 1941   1.957   2.151   5.158 -0.8397 -0.3254  0.8909
   15SAPS  H19S 1942   1.807   2.233   5.105  0.0256 -0.3202  0.7029
   15SAPS  C220 1943   1.883   2.297   5.290 -0.0893 -0.5744 -0.3917
   15SAPS  H20R 1944   1.808   2.231   5.338  2.4898 -2.6691  1.0505
   15SAPS  H20S 1945   1.840   2.399   5.290  0.3333 -0.3918  0.2682
   15SAPS  H20T 1946   1.975   2.294   5.353 -1.8206 -0.0331  2.3421
   15SAPS   C33 1947   2.350   2.132   3.582  0.1739  0.0183  0.1783
   15SAPS   H3X 1948   2.296   2.229   3.593 -0.5548 -0.5320  1.7471
   15SAPS   H3Y 1949   2.460   2.145   3.591  0.5162  0.1566 -3.0688
   15SAPS   C34 1950   2.315   2.031   3.689  0.3441 -0.0725 -0.0190
   15SAPS   H4X 1951   2.364   1.931   3.690  0.2636 -0.1108  0.6259
   15SAPS   H4Y 1952   2.205   2.018   3.679 -0.2010  1.5238  2.8901
   15SAPS   C35 1953   2.318   2.091   3.835 -0.3386  0.5948  0.0732
   15SAPS   H5X 1954   2.220   2.141   3.845 -0.4772  0.9273 -2.2713
   15SAPS   H5Y 1955   2.397   2.169   3.833 -0.3315  0.6373  1.3447
   15SAPS   C36 1956   2.325   1.979   3.948  0.1245  0.5960 -0.1209
   15SAPS   H6X 1957   2.407   1.906   3.931 -2.3836 -2.3720 -0.1691
   15SAPS   H6Y 1958   2.234   1.917   3.941 -0.5562  1.6481 -0.8794
   15SAPS   C37 1959   2.337   2.047   4.081 -0.6942  0.6825  0.8950
   15SAPS   H7X 1960   2.242   2.101   4.102 -0.9714  0.7384 -0.4325
   15SAPS   H7Y 1961   2.427   2.113   4.075 -0.7057  0.6644  0.4970
   15SAPS   C38 1962   2.374   1.957   4.201 -0.4219  0.0794  0.0789
   15SAPS   H8X 1963   2.471   1.906   4.182 -0.2630  1.4513 -3.4556
   15SAPS   H8Y 1964   2.301   1.874   4.209 -0.3190 -0.0887 -0.6435
   15SAPS   C39 1965   2.384   2.028   4.340  0.5114  0.4953 -0.4135
   15SAPS   H9X 1966   2.297   2.096   4.352  0.2852  0.2093 -0.4065
   15SAPS   H9Y 1967   2.478   2.086   4.342  0.5104  0.4911  1.6696
   15SAPS  C310 1968   2.391   1.935   4.469 -0.1037 -0.1958  1.0101
   15SAPS  H10X 1969   2.461   1.851   4.445 -1.5361 -0.7878 -1.3648
   15SAPS  H10Y 1970   2.291   1.886   4.475 -0.4206  0.5562  2.0916
   15SAPS  C311 1971   2.432   1.994   4.608 -0.2266  0.0990 -0.2345
   15SAPS  H11X 1972   2.357   2.068   4.644 -1.5691 -1.9879  1.5038
   15SAPS  H11Y 1973   2.529   2.045   4.592 -1.1154  1.3714 -1.9660
   15SAPS  C312 1974   2.431   1.878   4.713 -0.1940 -0.4470 -0.0455
   15SAPS  H12X 1975   2.523   1.819   4.692  1.1816  1.7693 -0.6233
   15SAPS  H12Y 1976   2.340   1.816   4.698 -1.5131  1.5482 -0.6529
   15SAPS  C313 1977   2.447   1.942   4.853 -0.0346  0.3884  0.1992
   15SAPS  H13X 1978   2.368   2.018   4.871  1.7250  2.1563  0.8849
   15SAPS  H13Y 1979   2.543   1.998   4.854  0.5103 -0.5053 -0.5745
   15SAPS  C314 1980   2.443   1.831   4.959 -0.5009  0.4560 -0.2145
   15SAPS  H14X 1981   2.534   1.771   4.936 -0.6944 -0.9194  2.2628
   15SAPS  H14Y 1982   2.348   1.773   4.963  1.0666 -2.2340  0.6778
   15SAPS  C315 1983   2.463   1.882   5.103 -0.0734  0.0368  0.5364
   15SAPS  H15X 1984   2.368   1.936   5.123 -0.7506 -1.4426  1.5031
   15SAPS  H15Y 1985   2.548   1.953   5.105  0.0194 -0.0798  1.1075
   15SAPS  C316 1986   2.475   1.781   5.216 -0.3222  0.0307 -0.4340
   15SAPS  H16X 1987   2.577   1.738   5.210  0.1985  1.0290  0.8200
   15SAPS  H16Y 1988   2.408   1.694   5.201  0.9444 -1.3577  1.5706
   15SAPS  C317 1989   2.454   1.835   5.357 -0.8296 -0.1350  0.4495
   15SAPS  H17X 1990   2.457   1.747   5.425 -2.7331  1.0120  2.0983
   15SAPS  H17Y 1991   2.349   1.869   5.367 -0.8839 -0.1287 -0.0861
   15SAPS  C318 1992   2.561   1.939   5.398 -0.3209 -0.6676  0.3072
   15SAPS  H18X 1993   2.659   1.891   5.414  0.1152 -0.5313 -1.7260
   15SAPS  H18Y 1994   2.529   1.983   5.495  1.1017  2.1043 -0.3631
   15SAPS  H18Z 1995   2.562   2.019   5.320  0.7865 -1.6441 -0.7155
   16SAPS     N 1996   4.654   2.566   2.354 -0.5723 -0.1793  0.8229
   16SAPS   HN1 1997   4.603   2.656   2.364  0.3712  0.2682  1.8358
   16SAPS   HN2 1998   4.629   2.509   2.270  2.2993  0.9784 -0.9580
   16SAPS   HN3 1999   4.629   2.511   2.438 -1.6831  0.7154  1.1090
   16SAPS   C12 2000   4.803   2.582   2.344  0.4064  0.1439 -0.0057
   16SAPS  H12A 2001   4.829   2.478   2.330 -1.8810 -0.4950  0.1322
   16SAPS   C13 2002   4.856   2.652   2.220 -0.1050 -0.2444 -0.1321
   16SAPS  O13A 2003   4.769   2.688   2.130  0.3400  0.4547  0.3923
   16SAPS  O13B 2004   4.978   2.640   2.198  0.8568 -0.1959 -0.1408
   16SAPS   C11 2005   4.868   2.625   2.477  0.3940 -0.3429 -0.1450
   16SAPS  H11A 2006   4.849   2.731   2.503  0.2121 -0.1533 -1.0466
   16SAPS  H11B 2007   4.978   2.618   2.464  0.2425  1.4927 -3.1751
   16SAPS     P 2008   4.863   2.560   2.733  0.3050  0.1923 -0.1736
   16SAPS   O13 2009   4.970   2.469   2.792  0.0869  0.2269 -0.1259
   16SAPS   O14 2010   4.886   2.701   2.754  0.0552 -0.2392 -0.1262
   16SAPS   O12 2011   4.832   2.533   2.583  0.8327 -0.3819 -0.2185
   16SAPS   O11 2012   4.723   2.522   2.797  0.3011  0.4511 -0.0999
   16SAPS    C1 2013   4.694   2.393   2.847 -0.1420  0.2874  0.5182
   16SAPS    HA 2014   4.609   2.338   2.802 -0.6094 -0.0867  1.8221
   16SAPS    HB 2015   4.781   2.323   2.847 -1.4650 -1.4467  1.0948
   16SAPS    C2 2016   4.652   2.401   2.998  0.1484  0.3132  0.3784
   16SAPS    HS 2017   4.644   2.300   3.043  1.2105  0.3962  0.7878
   16SAPS   O21 2018   4.523   2.464   3.007 -0.4472 -0.1307 -0.3382
   16SAPS   C21 2019   4.434   2.430   3.093 -0.0181  0.6007  0.0642
   16SAPS   O22 2020   4.455   2.359   3.187  0.3046  0.1256 -0.4546
   16SAPS   C22 2021   4.308   2.503   3.056  0.3347  0.1990  0.1400
   16SAPS   H2R 2022   4.326   2.613   3.049  1.4504  0.1179  1.4539
   16SAPS   H2S 2023   4.291   2.467   2.952  3.7072  1.5449 -1.0381
   16SAPS    C3 2024   4.751   2.481   3.075 -0.3741 -0.6732  0.3087
   16SAPS    HX 2025   4.760   2.582   3.028  0.6713 -1.0451 -0.3281
   16SAPS    HY 2026   4.848   2.427   3.079 -0.1160 -0.5214 -2.0140
   16SAPS   O31 2027   4.706   2.511   3.213 -0.0662 -0.0812 -0.1776
   16SAPS   C31 2028   4.730   2.409   3.303 -0.4027  0.3665  0.5859
   16SAPS   O32 2029   4.781   2.301   3.271  0.5187  1.0047  0.1785
   16SAPS   C32 2030   4.682   2.438   3.448  0.3725  0.0166 -0.1599
   16SAPS   H2X 2031   4.630   2.348   3.485  0.9108 -0.5907 -0.8586
   16SAPS   H2Y 2032   4.613   2.525   3.445 -0.7314 -0.7360  1.8556
   16SAPS   C23 2033   4.196   2.485   3.162  0.3652  0.2424 -0.0212
   16SAPS   H3R 2034   4.184   2.375   3.173 -1.8307  0.0983 -2.6868
   16SAPS   H3S 2035   4.102   2.525   3.118 -0.0305 -1.2291 -0.5682
   16SAPS   C24 2036   4.218   2.554   3.300 -0.1366 -0.0607 -0.1568
   16SAPS   H4R 2037   4.318   2.533   3.342 -0.4071 -2.2947 -0.4843
   16SAPS   H4S 2038   4.138   2.504   3.359 -0.3209 -1.1986 -1.3221
   16SAPS   C25 2039   4.204   2.702   3.283 -0.3375  1.0250 -0.2440
   16SAPS   H5R 2040   4.114   2.725   3.225 -1.6013  0.8634  1.5732
   16SAPS   C26 2041   4.278   2.800   3.339 -0.4172  0.1956 -0.2132
   16SAPS   H6R 2042   4.264   2.905   3.310 -2.1210  0.3103  0.9055
   16SAPS   C27 2043   4.387   2.780   3.441 -0.2213  0.2863  0.2338
   16SAPS   H7R 2044   4.365   2.692   3.504  1.7050 -0.3199  0.1458
   16SAPS   H7S 2045   4.387   2.863   3.516 -1.1633  1.1531 -0.6929
   16SAPS   C28 2046   4.528   2.762   3.369  1.1317 -0.2503  0.0219
   16SAPS   H8R 2047   4.538   2.671   3.309  0.6345 -1.8349  2.2372
   16SAPS   C29 2048   4.634   2.837   3.388  0.6614 -0.6890 -0.3603
   16SAPS   H9R 2049   4.728   2.808   3.338  0.5786 -1.7173  0.0468
   16SAPS  C210 2050   4.644   2.949   3.487 -0.2718  0.0435 -0.7612
   16SAPS  H10R 2051   4.661   2.899   3.584  3.5390  0.1381 -1.2457
   16SAPS  H10S 2052   4.550   3.006   3.505  0.0797 -0.2443  2.6388
   16SAPS  C211 2053   4.761   3.032   3.457  1.0048  0.8114  0.8737
   16SAPS  H11R 2054   4.769   3.067   3.353 -0.9767  0.1986  0.4643
   16SAPS  C212 2055   4.850   3.079   3.544  0.1938 -0.6860  0.5304
   16SAPS  H12R 2056   4.927   3.152   3.516 -0.3885 -0.6191 -0.9948
   16SAPS  C213 2057   4.839   3.057   3.693  0.7839  0.9074  0.0579
   16SAPS  H13R 2058   4.933   3.099   3.734  0.3176  4.2716 -1.9449
   16SAPS  H13S 2059   4.838   2.947   3.708  0.2466  0.8477 -0.3997
   16SAPS  C214 2060   4.720   3.122   3.760  0.4420  0.0131 -0.1082
   16SAPS  H14R 2061   4.702   3.223   3.722 -1.0478 -0.4554 -0.7247
   16SAPS  C215 2062   4.661   3.085   3.872 -0.9211 -0.9944  0.0742
   16SAPS  H15R 2063   4.582   3.149   3.915 -0.2487 -0.4038  0.4577
   16SAPS  C216 2064   4.671   2.950   3.939  0.2167 -0.2268  0.1922
   16SAPS  H16R 2065   4.618   2.963   4.037 -0.6797  2.2034 -0.5567
   16SAPS  H16S 2066   4.779   2.932   3.959  0.0996 -3.1864 -1.2241
   16SAPS  C217 2067   4.615   2.830   3.869  0.3215 -0.0872 -0.1131
   16SAPS  H17R 2068   4.643   2.731   3.912  0.1797 -0.0276  0.1181
   16SAPS  H17S 2069   4.667   2.818   3.772  1.5431 -3.6815  0.8124
   16SAPS  C218 2070   4.463   2.849   3.847 -0.2470 -0.4825  0.0457
   16SAPS  H18R 2071   4.457   2.935   3.777 -0.1109  0.5848  1.3118
   16SAPS  H18S 2072   4.429   2.880   3.949  2.0371 -2.0931  1.3781
   16SAPS  C219 2073   4.390   2.724   3.789 -0.2169  0.8416 -0.3632
   16SAPS  H19R 2074   4.412   2.638   3.856 -0.6670  0.8688 -0.1837
   16SAPS  H19S 2075   4.432   2.701   3.688  0.3884  2.0447 -0.4113
   16SAPS  C220 2076   4.241   2.744   3.777  0.0170  0.0937 -0.6234
   16SAPS  H20R 2077   4.215   2.821   3.702 -0.8381  0.7551  0.3278
   16SAPS  H20S 2078   4.212   2.780   3.878  0.8504 -0.8372 -0.0290
   16SAPS  H20T 2079   4.189   2.649   3.753 -1.5486  0.9192 -0.6173
   16SAPS   C33 2080   4.798   2.470   3.546  0.6171 -0.2019 -0.5253
   16SAPS   H3X 2081   4.866   2.551   3.512  1.7663  0.1821  2.4129
   16SAPS   H3Y 2082   4.856   2.379   3.571  1.7204  0.8993  1.1094
   16SAPS   C34 2083   4.731   2.520   3.672  0.5972 -0.5332 -0.0169
   16SAPS   H4X 2084   4.657   2.446   3.709 -0.5241  0.4619 -0.2093
   16SAPS   H4Y 2085   4.686   2.618   3.647  1.4459 -0.2511 -0.5094
   16SAPS   C35 2086   4.835   2.533   3.791  0.3859 -0.2362 -0.5198
   16SAPS   H5X 2087   4.878   2.436   3.823  1.1930 -0.3206 -1.7737
   16SAPS   H5Y 2088   4.775   2.555   3.882  0.4691 -2.6188  0.1896
   16SAPS   C36 2089   4.953   2.633   3.775 -0.2542 -0.2787 -1.1548
   16SAPS   H6X 2090   4.917   2.736   3.754  1.6388  0.5220 -0.6301
   16SAPS   H6Y 2091   5.028   2.600   3.700  2.6492 -0.3155  1.5518
   16SAPS   C37 2092   5.036   2.639   3.908  0.0907  0.2008 -0.1755
   16SAPS   H7X 2093   5.137   2.640   3.862 -0.1802 -2.4661 -0.9974
   16SAPS   H7Y 2094   5.024   2.550   3.974  0.4925  1.1673  1.2419
   16SAPS   C38 2095   5.011   2.760   3.997  0.0863 -0.1014 -0.5248
   16SAPS   H8X 2096   4.979   2.846   3.933  0.5251 -0.7592 -1.6701
   16SAPS   H8Y 2097   5.111   2.777   4.043 -0.1892 -2.6077  1.2421
   16SAPS   C39 2098   4.913   2.729   4.110  0.6546  0.3270  0.1603
   16SAPS   H9X 2099   4.956   2.641   4.163  4.0105  3.0446  2.3334
   16SAPS   H9Y 2100   4.807   2.713   4.082  0.6755  0.2292  0.1363
   16SAPS  C310 2101   4.918   2.847   4.208 -0.2826 -0.5761  0.1499
   16SAPS  H10X 2102   4.862   2.926   4.153 -0.3369  1.0267  2.3367
   16SAPS  H10Y 2103   5.022   2.886   4.213 -0.8818  1.0467  1.0960
   16SAPS  C311 2104   4.852   2.812   4.340 -0.2628  0.3872 -0.6094
   16SAPS  H11X 2105   4.913   2.723   4.367 -1.7767 -1.3262 -2.5455
   16SAPS  H11Y 2106   4.746   2.777   4.335  0.0854 -0.9040  0.3379
   16SAPS  C312 2107   4.869   2.919   4.451  0.3084 -0.4934  0.5008
   16SAPS  H12X 2108   4.783   2.988   4.437 -0.8367 -1.6175  1.6169
   16SAPS  H12Y 2109   4.961   2.979   4.436 -0.8887  1.9416  2.3417
   16SAPS  C313 2110   4.879   2.860   4.595  0.1988  0.2496 -0.1032
   16SAPS  H13X 2111   4.978   2.815   4.617 -0.2802  0.3423  2.5101
   16SAPS  H13Y 2112   4.807   2.778   4.615  1.9769 -1.9543 -2.0135
   16SAPS  C314 2113   4.843   2.963   4.704 -0.0726 -0.3520  0.3118
   16SAPS  H14X 2114   4.808   2.918   4.799 -0.2604 -0.5617  0.1474
   16SAPS  H14Y 2115   4.763   3.021   4.653  1.4592 -0.3665 -2.2823
   16SAPS  C315 2116   4.962   3.064   4.742  0.1097  0.4043  0.3725
   16SAPS  H15X 2117   5.044   3.004   4.787 -0.0460  0.9509  1.4183
   16SAPS  H15Y 2118   4.920   3.131   4.821  1.5263 -0.3521  1.8281
   16SAPS  C316 2119   5.022   3.154   4.631  0.5833 -0.1267  0.8000
   16SAPS  H16X 2120   4.946   3.225   4.591 -0.0543 -1.1563  0.1184
   16SAPS  H16Y 2121   5.061   3.087   4.552 -0.6678  0.5069 -0.3996
   16SAPS  C317 2122   5.133   3.242   4.681  0.3058  0.9857 -0.0206
   16SAPS  H17X 2123   5.222   3.178   4.703  1.9644  2.8111 -1.0863
   16SAPS  H17Y 2124   5.113   3.304   4.771  2.2903  0.8919  0.5318
   16SAPS  C318 2125   5.177   3.339   4.577 -0.6249 -0.2862  0.2430
   16SAPS  H18X 2126   5.284   3.366   4.594 -1.7981  3.9040  2.4284
   16SAPS  H18Y 2127   5.118   3.432   4.566  0.1371  0.0389 -1.3060
   16SAPS  H18Z 2128   5.167   3.306   4.472  2.2585  0.6302 -0.4284
   17SAPS     N 2129   5.971   2.861   2.287 -0.3968  0.0536  0.2147
   17SAPS   HN1 2130   6.062   2.827   2.250  1.0578  1.7293  2.0350
   17SAPS   HN2 2131   5.958   2.818   2.381  0.3505  0.8759  0.7137
   17SAPS   HN3 2132   5.901   2.840   2.213  0.2374 -1.0668 -0.0836
   17SAPS   C12 2133   5.982   3.000   2.307 -0.1539  0.3416 -0.6883
   17SAPS  H12A 2134   6.089   3.003   2.322 -0.1440  1.2137 -0.8349
   17SAPS   C13 2135   5.930   3.095   2.198  0.0936 -1.0532  0.1722
   17SAPS  O13A 2136   5.898   3.050   2.084 -0.0899 -0.1083 -0.0063
   17SAPS  O13B 2137   5.945   3.218   2.216  0.7011  0.5280 -0.3824
   17SAPS   C11 2138   5.927   3.049   2.442 -0.6870  0.8400 -0.0373
   17SAPS  H11A 2139   5.816   3.047   2.439 -0.6810 -1.0067 -2.9538
   17SAPS  H11B 2140   5.970   3.148   2.470 -1.3602  0.8933  0.8547
   17SAPS     P 2141   6.089   2.973   2.641  0.1889  0.1781 -0.2566
   17SAPS   O13 2142   6.072   2.884   2.753 -0.0754  0.3155  0.1167
   17SAPS   O14 2143   6.201   2.956   2.549 -0.2076  0.0849 -0.0639
   17SAPS   O12 2144   5.957   2.959   2.551  0.3793 -0.0369  0.7052
   17SAPS   O11 2145   6.084   3.129   2.691  0.0743 -0.0714  0.1801
   17SAPS    C1 2146   5.970   3.195   2.745 -0.1868 -0.5225  0.6239
   17SAPS    HA 2147   5.907   3.251   2.672 -0.2140  1.0964  1.8170
   17SAPS    HB 2148   5.895   3.122   2.782 -0.6453 -1.0903 -1.2943
   17SAPS    C2 2149   6.006   3.273   2.873  0.8333 -0.8886 -0.2694
   17SAPS    HS 2150   6.075   3.356   2.846 -0.7571  1.2344  1.8089
   17SAPS   O21 2151   6.045   3.181   2.983  0.4007  0.2310 -0.1679
   17SAPS   C21 2152   6.171   3.180   3.005 -1.0016  0.0321  0.0204
   17SAPS   O22 2153   6.259   3.251   2.951 -0.8961  0.4430  0.4483
   17SAPS   C22 2154   6.204   3.076   3.122 -0.4019 -0.0691 -0.1035
   17SAPS   H2R 2155   6.110   3.019   3.139 -1.7882  1.9061 -0.8638
   17SAPS   H2S 2156   6.276   3.004   3.077  0.8330  0.8053  0.4121
   17SAPS    C3 2157   5.877   3.343   2.914 -0.2078  0.2368  0.2196
   17SAPS    HX 2158   5.821   3.264   2.967  3.3271 -1.9207  1.1058
   17SAPS    HY 2159   5.832   3.400   2.830  2.4668  2.1543 -0.0518
   17SAPS   O31 2160   5.908   3.444   3.012  0.1731 -0.0916  0.0666
   17SAPS   C31 2161   5.794   3.496   3.071 -0.8189  0.0482 -0.6031
   17SAPS   O32 2162   5.691   3.433   3.077  0.0327  0.1410 -0.8151
   17SAPS   C32 2163   5.832   3.609   3.153  0.0367 -0.0953 -0.5376
   17SAPS   H2X 2164   5.864   3.689   3.082 -0.4187 -0.0303 -0.6700
   17SAPS   H2Y 2165   5.926   3.580   3.205  0.4223 -1.1055 -1.7546
   17SAPS   C23 2166   6.269   3.142   3.243 -0.5310 -0.6929  0.5652
   17SAPS   H3R 2167   6.357   3.199   3.207 -1.0331  0.5031  1.1929
   17SAPS   H3S 2168   6.301   3.061   3.312  1.1303 -0.7968 -0.2773
   17SAPS   C24 2169   6.165   3.232   3.318 -0.2873 -0.0573 -0.3537
   17SAPS   H4R 2170   6.092   3.158   3.360 -0.1933 -0.0611 -0.1951
   17SAPS   H4S 2171   6.126   3.296   3.236 -0.6074 -0.9820 -0.9456
   17SAPS   C25 2172   6.220   3.318   3.426  0.0477  0.4907  0.6384
   17SAPS   H5R 2173   6.284   3.398   3.387  2.5905 -1.9027 -0.5119
   17SAPS   C26 2174   6.238   3.287   3.555  0.3090  0.0967  0.1879
   17SAPS   H6R 2175   6.289   3.358   3.621  1.0960  0.5945 -0.9261
   17SAPS   C27 2176   6.168   3.177   3.627  0.2438  0.2441 -0.1655
   17SAPS   H7R 2177   6.094   3.125   3.563  0.8648 -0.4156 -0.3656
   17SAPS   H7S 2178   6.128   3.219   3.722 -0.4323 -3.5626  1.4279
   17SAPS   C28 2179   6.277   3.084   3.676  0.1963 -0.4068  0.4003
   17SAPS   H8R 2180   6.310   3.022   3.591 -2.2591 -0.0286 -0.9472
   17SAPS   C29 2181   6.303   3.056   3.807 -0.1330 -0.4168  0.0142
   17SAPS   H9R 2182   6.376   2.980   3.838  1.6779  1.8988  1.7922
   17SAPS  C210 2183   6.243   3.133   3.926  0.2236 -0.9050  0.1333
   17SAPS  H10R 2184   6.247   3.242   3.905 -0.9862 -1.2119 -1.9909
   17SAPS  H10S 2185   6.316   3.110   4.007  1.7604 -2.2844 -1.5507
   17SAPS  C211 2186   6.107   3.070   3.967 -0.3175 -1.3828 -0.4201
   17SAPS  H11R 2187   6.020   3.096   3.905  0.2295  1.6591 -0.0668
   17SAPS  C212 2188   6.089   2.965   4.048  0.0620 -0.1232  0.2912
   17SAPS  H12R 2189   5.984   2.940   4.070 -1.1045  1.7984 -2.5799
   17SAPS  C213 2190   6.188   2.889   4.126 -0.2152  0.0274 -0.1836
   17SAPS  H13R 2191   6.275   2.859   4.064 -0.2152 -1.5426  0.4989
   17SAPS  H13S 2192   6.151   2.786   4.150  0.9138  0.2226  2.8768
   17SAPS  C214 2193   6.237   2.963   4.250  0.2691 -0.6516 -0.1141
   17SAPS  H14R 2194   6.215   3.071   4.244  0.8692 -0.4379  1.0848
   17SAPS  C215 2195   6.294   2.911   4.364  0.7882  0.4948  1.0078
   17SAPS  H15R 2196   6.337   2.977   4.441 -1.1657 -0.1004  2.6859
   17SAPS  C216 2197   6.336   2.769   4.384  0.3552 -0.3361 -0.5960
   17SAPS  H16R 2198   6.300   2.708   4.298  0.5701 -0.0722 -0.8799
   17SAPS  H16S 2199   6.289   2.724   4.473  0.3491  2.3970  0.8894
   17SAPS  C217 2200   6.488   2.754   4.412 -0.2492  0.0291  0.8777
   17SAPS  H17R 2201   6.513   2.646   4.399  0.0677  0.0417  1.3754
   17SAPS  H17S 2202   6.491   2.768   4.522 -0.9456 -2.7933  1.3420
   17SAPS  C218 2203   6.585   2.856   4.342  0.2877 -0.2029  0.5615
   17SAPS  H18R 2204   6.557   2.959   4.376 -1.4044 -0.8878  1.3651
   17SAPS  H18S 2205   6.566   2.857   4.232  1.2764  1.0420  0.3795
   17SAPS  C219 2206   6.732   2.830   4.341 -0.3458 -0.5664 -0.0179
   17SAPS  H19R 2207   6.770   2.934   4.334 -1.7675 -0.0666 -0.5220
   17SAPS  H19S 2208   6.762   2.776   4.248  0.8115  1.8517 -1.1339
   17SAPS  C220 2209   6.778   2.742   4.458  0.3735 -0.2713 -0.2196
   17SAPS  H20R 2210   6.889   2.736   4.466  0.2845 -0.5763  0.9665
   17SAPS  H20S 2211   6.745   2.637   4.448  1.2143 -0.6438  0.7225
   17SAPS  H20T 2212   6.739   2.792   4.549  0.0979  2.1303 -1.5717
   17SAPS   C33 2213   5.727   3.660   3.248 -0.5743 -0.6239 -0.1155
   17SAPS   H3X 2214   5.721   3.588   3.332  2.8701 -0.4265  0.4322
   17SAPS   H3Y 2215   5.638   3.698   3.191  0.7206  2.4709 -0.3044
   17SAPS   C34 2216   5.775   3.789   3.319  0.7158 -0.0886  0.3787
   17SAPS   H4X 2217   5.792   3.868   3.243 -0.8994  1.4616  1.5299
   17SAPS   H4Y 2218   5.867   3.759   3.374  0.9118  1.3871  0.9090
   17SAPS   C35 2219   5.678   3.846   3.420  0.4588 -0.2288 -0.4842
   17SAPS   H5X 2220   5.574   3.835   3.383  0.7074  0.6039 -1.4785
   17SAPS   H5Y 2221   5.703   3.954   3.426 -1.1661  0.0959  1.0234
   17SAPS   C36 2222   5.704   3.776   3.547  0.6321  0.8099 -0.4617
   17SAPS   H6X 2223   5.802   3.813   3.583  0.4436  1.1086 -0.2549
   17SAPS   H6Y 2224   5.716   3.666   3.535 -0.9925  0.5206  0.3684
   17SAPS   C37 2225   5.597   3.795   3.653 -0.0596 -0.2758  0.1377
   17SAPS   H7X 2226   5.503   3.748   3.617 -1.6956  0.9110  2.6328
   17SAPS   H7Y 2227   5.572   3.903   3.647  0.5093 -0.1414  0.1121
   17SAPS   C38 2228   5.635   3.744   3.793 -0.5189 -0.2851 -0.3023
   17SAPS   H8X 2229   5.732   3.779   3.833 -1.0307 -0.0244  0.7538
   17SAPS   H8Y 2230   5.659   3.637   3.773  0.7572  0.2508 -1.8714
   17SAPS   C39 2231   5.520   3.745   3.896  0.3714 -0.4717 -0.7275
   17SAPS   H9X 2232   5.431   3.700   3.846 -0.1790 -0.9319  0.6307
   17SAPS   H9Y 2233   5.503   3.849   3.932  1.1468 -0.2132 -1.0919
   17SAPS  C310 2234   5.577   3.665   4.012  0.2515  0.2349  0.4096
   17SAPS  H10X 2235   5.678   3.701   4.041  1.3819 -1.8338 -0.7169
   17SAPS  H10Y 2236   5.588   3.559   3.980  0.4669  0.3654  0.0438
   17SAPS  C311 2237   5.484   3.668   4.138  0.2819 -0.0957 -0.3354
   17SAPS  H11X 2238   5.388   3.636   4.091 -2.2812  1.9927  3.0445
   17SAPS  H11Y 2239   5.479   3.775   4.169 -1.4654 -0.5126  1.0162
   17SAPS  C312 2240   5.519   3.570   4.247  0.3139 -0.2029  0.5219
   17SAPS  H12X 2241   5.627   3.591   4.265  1.4715 -3.5087 -1.5864
   17SAPS  H12Y 2242   5.517   3.464   4.215  1.3507 -0.2315  0.5089
   17SAPS  C313 2243   5.434   3.592   4.376  0.1478  0.2727 -0.2041
   17SAPS  H13X 2244   5.336   3.541   4.361 -0.2061  0.8607  0.0380
   17SAPS  H13Y 2245   5.410   3.700   4.386 -1.3143 -0.0143 -0.3490
   17SAPS  C314 2246   5.506   3.541   4.504 -0.3373 -0.5462 -0.4930
   17SAPS  H14X 2247   5.454   3.579   4.594  1.0546  3.7510 -1.2592
   17SAPS  H14Y 2248   5.605   3.591   4.502 -0.0645 -0.9735  1.0753
   17SAPS  C315 2249   5.543   3.390   4.499 -0.1493 -0.0838  0.2844
   17SAPS  H15X 2250   5.603   3.372   4.407  0.3533 -0.7119  0.7330
   17SAPS  H15Y 2251   5.457   3.320   4.502  1.3796 -2.1650  4.9166
   17SAPS  C316 2252   5.630   3.349   4.616 -0.1767 -0.4736 -0.2526
   17SAPS  H16X 2253   5.728   3.401   4.607 -2.2345  3.7200 -0.9177
   17SAPS  H16Y 2254   5.645   3.240   4.603  0.6697 -0.9696  3.6502
   17SAPS  C317 2255   5.562   3.365   4.754 -0.5885 -0.3577 -0.0581
   17SAPS  H17X 2256   5.460   3.321   4.759 -0.0205 -1.6465  0.7635
   17SAPS  H17Y 2257   5.552   3.472   4.782 -1.9404  0.1311 -2.1877
   17SAPS  C318 2258   5.645   3.284   4.853 -0.4512 -0.1962 -0.6823
   17SAPS  H18X 2259   5.647   3.174   4.835  0.7745 -0.4479  0.8110
   17SAPS  H18Y 2260   5.621   3.309   4.959  2.1884 -1.7592  0.3889
   17SAPS  H18Z 2261   5.744   3.334   4.848 -1.4177  1.9589  0.4759
   18SAPS     N 2262   4.922   6.067   2.296  0.1608  0.3322  0.0696
   18SAPS   HN1 2263   4.964   6.003   2.226  2.9299 -1.4561  3.1008
   18SAPS   HN2 2264   4.914   6.013   2.384 -0.1103  1.7537  0.9485
   18SAPS   HN3 2265   4.826   6.090   2.262  0.4302  3.0700  0.8994
   18SAPS   C12 2266   4.988   6.199   2.334 -0.1282  0.6510  0.5706
   18SAPS  H12A 2267   5.089   6.166   2.350  0.2797 -0.2723 -3.0082
   18SAPS   C13 2268   5.000   6.308   2.226 -0.3722 -0.0370  0.7229
   18SAPS  O13A 2269   4.960   6.296   2.104 -0.7100  0.2642 -0.1102
   18SAPS  O13B 2270   5.052   6.419   2.261 -0.0932  0.1988  0.0308
   18SAPS   C11 2271   4.919   6.257   2.458  0.4149  1.2470 -0.6450
   18SAPS  H11A 2272   4.964   6.354   2.488  0.6255  0.5681  1.3382
   18SAPS  H11B 2273   4.926   6.192   2.548 -0.0881  2.1237  0.0349
   18SAPS     P 2274   4.664   6.241   2.530 -0.0060  0.2013 -0.1358
   18SAPS   O13 2275   4.547   6.332   2.512  0.1812  0.4070 -0.4627
   18SAPS   O14 2276   4.640   6.094   2.517 -0.4598 -0.2098 -0.1337
   18SAPS   O12 2277   4.779   6.280   2.428 -0.2187  0.1803 -0.5875
   18SAPS   O11 2278   4.733   6.286   2.666  0.1211 -0.4764  0.0160
   18SAPS    C1 2279   4.684   6.250   2.795  0.1528  1.0511 -0.1060
   18SAPS    HA 2280   4.576   6.225   2.789  0.4365 -0.9971  1.9549
   18SAPS    HB 2281   4.722   6.147   2.813 -1.5768  0.0395 -1.7830
   18SAPS    C2 2282   4.716   6.356   2.905 -0.2032  0.1275  0.4920
   18SAPS    HS 2283   4.698   6.306   3.002  1.7392 -0.5240  0.5564
   18SAPS   O21 2284   4.629   6.470   2.874 -0.0160 -0.1140 -0.3612
   18SAPS   C21 2285   4.520   6.473   2.950  0.5655 -0.0689 -0.1981
   18SAPS   O22 2286   4.500   6.394   3.040 -0.6621 -0.3172  0.2868
   18SAPS   C22 2287   4.429   6.590   2.933  0.0775  0.8787  0.1734
   18SAPS   H2R 2288   4.374   6.576   2.837 -0.0372 -0.2629  0.3836
   18SAPS   H2S 2289   4.348   6.581   3.007 -1.2000  2.5784 -0.9414
   18SAPS    C3 2290   4.857   6.397   2.922 -0.2337 -0.4259 -0.6752
   18SAPS    HX 2291   4.893   6.435   2.824  1.0488  0.1645 -0.0107
   18SAPS    HY 2292   4.927   6.311   2.934  1.7870  1.0874 -1.0927
   18SAPS   O31 2293   4.877   6.500   3.023  0.2943  0.3016 -0.0690
   18SAPS   C31 2294   4.866   6.441   3.147 -0.4412  0.1127  0.5224
   18SAPS   O32 2295   4.863   6.324   3.167  0.4437 -0.0316 -0.2756
   18SAPS   C32 2296   4.871   6.550   3.262 -0.5401  0.5448 -0.3127
   18SAPS   H2X 2297   4.764   6.580   3.257 -1.1030 -1.4837 -2.4065
   18SAPS   H2Y 2298   4.941   6.634   3.243  0.0254  0.7365  2.1871
   18SAPS   C23 2299   4.504   6.712   2.934  0.4827 -0.3113 -0.6577
   18SAPS   H3R 2300   4.443   6.788   2.880  1.4695 -0.3841 -1.9375
   18SAPS   H3S 2301   4.598   6.709   2.875  1.0748 -2.3597  0.2964
   18SAPS   C24 2302   4.533   6.759   3.076 -0.4951  0.4414  0.0753
   18SAPS   H4R 2303   4.604   6.844   3.077  1.8336 -1.3723  2.5836
   18SAPS   H4S 2304   4.589   6.676   3.124 -0.7343  1.0556  1.4326
   18SAPS   C25 2305   4.415   6.785   3.166  0.3187 -0.0709 -0.4863
   18SAPS   H5R 2306   4.336   6.850   3.126 -2.6438 -1.2937  2.9036
   18SAPS   C26 2307   4.396   6.721   3.281  0.0808  0.5900  0.1630
   18SAPS   H6R 2308   4.319   6.760   3.349  1.8113  0.5089  2.2834
   18SAPS   C27 2309   4.471   6.604   3.345  0.0566 -0.5639 -0.3425
   18SAPS   H7R 2310   4.523   6.547   3.265  0.3062 -0.4388 -0.2697
   18SAPS   H7S 2311   4.403   6.534   3.397  1.8871  0.2371  3.4994
   18SAPS   C28 2312   4.566   6.661   3.450  0.3816 -0.3117  0.2824
   18SAPS   H8R 2313   4.652   6.714   3.406  1.3218 -1.1034  1.1376
   18SAPS   C29 2314   4.553   6.682   3.585 -0.6871 -0.5041  1.0398
   18SAPS   H9R 2315   4.636   6.731   3.638  0.9932 -1.6569 -0.4422
   18SAPS  C210 2316   4.439   6.629   3.672  0.3960  0.3657  0.2116
   18SAPS  H10R 2317   4.363   6.580   3.607  1.7639 -0.1211 -1.0768
   18SAPS  H10S 2318   4.396   6.714   3.728 -0.4796 -0.3768  0.6957
   18SAPS  C211 2319   4.481   6.518   3.767  0.9675 -0.0755  1.0680
   18SAPS  H11R 2320   4.495   6.415   3.732  1.8802  0.0190  1.1359
   18SAPS  C212 2321   4.496   6.533   3.900 -0.0465  0.2063 -0.6519
   18SAPS  H12R 2322   4.524   6.439   3.949  0.1623  0.0094 -1.1461
   18SAPS  C213 2323   4.489   6.646   3.998 -0.1572  0.3948 -0.2673
   18SAPS  H13R 2324   4.416   6.613   4.076  0.3615  0.4913  0.2636
   18SAPS  H13S 2325   4.448   6.742   3.961 -1.3399  0.5276  1.2751
   18SAPS  C214 2326   4.623   6.679   4.060  0.3005  0.1121  0.1075
   18SAPS  H14R 2327   4.702   6.669   3.984 -1.9749  0.8837 -2.5216
   18SAPS  C215 2328   4.651   6.725   4.188 -0.0961  0.3066  1.0544
   18SAPS  H15R 2329   4.758   6.738   4.211 -0.8160  2.8571  3.5853
   18SAPS  C216 2330   4.560   6.742   4.305  0.5391  0.3227  0.7644
   18SAPS  H16R 2331   4.457   6.749   4.264  0.3986 -1.4453  0.7408
   18SAPS  H16S 2332   4.583   6.840   4.353  1.2575  1.4219 -1.6382
   18SAPS  C217 2333   4.573   6.627   4.405  0.5019 -0.0143 -0.6265
   18SAPS  H17R 2334   4.523   6.665   4.496  2.9306  2.4528 -0.1662
   18SAPS  H17S 2335   4.678   6.632   4.439 -0.1820  0.0225  1.5936
   18SAPS  C218 2336   4.508   6.495   4.360 -0.6094 -0.3237 -0.6774
   18SAPS  H18R 2337   4.555   6.447   4.271  1.9585 -2.0086  1.4409
   18SAPS  H18S 2338   4.401   6.504   4.330 -0.5071 -0.1590 -1.0000
   18SAPS  C219 2339   4.519   6.413   4.487  0.1576  0.5458  0.1596
   18SAPS  H19R 2340   4.490   6.462   4.582 -0.8085  0.3699 -0.0226
   18SAPS  H19S 2341   4.625   6.385   4.501  0.0186  0.9565  2.4651
   18SAPS  C220 2342   4.432   6.290   4.479  0.1182 -0.3762 -0.2581
   18SAPS  H20R 2343   4.329   6.331   4.475  0.5069  0.6548  0.1569
   18SAPS  H20S 2344   4.445   6.239   4.577 -3.5378  1.4940  1.4017
   18SAPS  H20T 2345   4.441   6.223   4.391  1.5686  1.0392 -1.2296
   18SAPS   C33 2346   4.907   6.477   3.392  0.3898  0.2242  0.1370
   18SAPS   H3X 2347   4.987   6.403   3.370  0.1955  0.1983 -0.4937
   18SAPS   H3Y 2348   4.817   6.422   3.428  0.1602  0.4312 -0.1181
   18SAPS   C34 2349   4.947   6.579   3.496  0.1877 -0.3742  0.3945
   18SAPS   H4X 2350   4.866   6.647   3.529  2.6661  1.3854  3.3881
   18SAPS   H4Y 2351   5.028   6.640   3.450  0.1475 -0.0018  0.8198
   18SAPS   C35 2352   4.990   6.513   3.623 -0.6968  0.0503  0.7535
   18SAPS   H5X 2353   5.062   6.579   3.676  0.8766 -1.8291  1.0840
   18SAPS   H5Y 2354   5.053   6.424   3.599  0.5795  0.8371  1.0950
   18SAPS   C36 2355   4.884   6.463   3.726 -0.1067 -0.6299  1.1939
   18SAPS   H6X 2356   4.813   6.401   3.667 -1.7209  1.6138  0.6508
   18SAPS   H6Y 2357   4.832   6.542   3.783 -0.1494  0.6556 -0.5379
   18SAPS   C37 2358   4.945   6.349   3.821 -0.9602  0.2503  0.3851
   18SAPS   H7X 2359   5.037   6.380   3.874 -0.7807 -1.5940  1.2382
   18SAPS   H7Y 2360   4.970   6.267   3.751 -0.5080 -1.6681  2.6942
   18SAPS   C38 2361   4.844   6.303   3.922 -0.0642  0.8688 -0.4731
   18SAPS   H8X 2362   4.753   6.252   3.884 -0.6006 -0.0765  1.8691
   18SAPS   H8Y 2363   4.797   6.386   3.980  0.0218  0.9283 -0.4891
   18SAPS   C39 2364   4.903   6.225   4.044  0.5398 -0.4249  0.4016
   18SAPS   H9X 2365   4.981   6.283   4.099  0.6971  0.5435 -0.7849
   18SAPS   H9Y 2366   4.952   6.133   4.006 -1.6400 -1.9822  1.1948
   18SAPS  C310 2367   4.800   6.183   4.155 -0.1816  0.0842  0.1629
   18SAPS  H10X 2368   4.756   6.086   4.124 -0.3031  0.0962  0.2912
   18SAPS  H10Y 2369   4.729   6.268   4.146 -0.3111 -0.0248  0.1484
   18SAPS  C311 2370   4.848   6.162   4.295  0.1197 -0.3428 -0.8412
   18SAPS  H11X 2371   4.857   6.265   4.336 -0.5834 -0.4084 -0.4977
   18SAPS  H11Y 2372   4.948   6.116   4.282  0.4802  0.8671 -2.8929
   18SAPS  C312 2373   4.745   6.076   4.373  0.6262 -0.0545 -0.3818
   18SAPS  H12X 2374   4.747   5.969   4.342 -0.5299 -0.2831  0.2682
   18SAPS  H12Y 2375   4.644   6.098   4.332  1.0001 -0.6625 -1.7127
   18SAPS  C313 2376   4.752   6.101   4.525 -0.8641  0.2068  0.9137
   18SAPS  H13X 2377   4.662   6.062   4.578 -0.8401 -1.5250 -0.2416
   18SAPS  H13Y 2378   4.746   6.212   4.527  0.2921  0.5180 -3.2688
   18SAPS  C314 2379   4.881   6.032   4.581  0.2357  0.0243  0.0626
   18SAPS  H14X 2380   4.957   6.025   4.500 -1.8636 -0.5257 -1.9804
   18SAPS  H14Y 2381   4.856   5.927   4.605  0.1577  0.0921  0.2746
   18SAPS  C315 2382   4.931   6.107   4.707  0.2849  1.0975  0.2469
   18SAPS  H15X 2383   4.952   6.212   4.678  1.3692  0.6835 -0.5273
   18SAPS  H15Y 2384   5.032   6.064   4.727 -0.6414 -0.8840  0.9601
   18SAPS  C316 2385   4.841   6.107   4.825  0.0555 -0.2454 -0.1672
   18SAPS  H16X 2386   4.745   6.154   4.793 -1.0337 -1.3542  1.3529
   18SAPS  H16Y 2387   4.868   6.177   4.907 -1.1295 -2.0158  1.8281
   18SAPS  C317 2388   4.828   5.973   4.896 -0.1425 -0.7213 -0.4156
   18SAPS  H17X 2389   4.922   5.928   4.937 -1.2034 -1.2520  1.5836
   18SAPS  H17Y 2390   4.783   5.906   4.820  0.4237 -0.0963 -1.3212
   18SAPS  C318 2391   4.745   5.984   5.021  0.1494  0.0767 -0.1487
   18SAPS  H18X 2392   4.795   6.035   5.107  1.6116 -2.2750  0.4904
   18SAPS  H18Y 2393   4.721   5.881   5.056  0.9224 -0.5345 -1.3456
   18SAPS  H18Z 2394   4.643   6.024   5.007  0.4771  1.0690  0.1993
   19SAPS     N 2395   5.631   4.058   2.361 -0.0203 -0.1810  0.2397
   19SAPS   HN1 2396   5.689   4.043   2.446  0.1987 -2.6013 -0.2474
   19SAPS   HN2 2397   5.581   3.967   2.354  2.4770 -1.5638 -1.1733
   19SAPS   HN3 2398   5.695   4.068   2.279  0.2706 -0.4961  0.4265
   19SAPS   C12 2399   5.548   4.180   2.377 -0.1531 -0.2912 -0.0724
   19SAPS  H12A 2400   5.602   4.267   2.342 -0.0384 -0.4872 -0.3916
   19SAPS   C13 2401   5.424   4.170   2.301  0.8265 -1.3744 -0.1504
   19SAPS  O13A 2402   5.396   4.075   2.221 -0.1934  0.0068 -0.3269
   19SAPS  O13B 2403   5.349   4.271   2.295 -0.9407  0.2195 -0.5789
   19SAPS   C11 2404   5.515   4.197   2.530 -0.4150 -0.1635  0.0927
   19SAPS  H11A 2405   5.440   4.119   2.557 -1.4560  0.8770  0.2861
   19SAPS  H11B 2406   5.459   4.293   2.533  1.5726  1.0681 -0.4888
   19SAPS     P 2407   5.709   4.313   2.644 -0.3055 -0.4255 -0.3225
   19SAPS   O13 2408   5.782   4.352   2.524 -0.5726  0.0793  0.0583
   19SAPS   O14 2409   5.613   4.412   2.714 -0.2793  0.0372  0.5400
   19SAPS   O12 2410   5.624   4.184   2.618  0.0678  0.2734  0.4854
   19SAPS   O11 2411   5.821   4.271   2.741 -0.1022 -0.6840 -0.2656
   19SAPS    C1 2412   5.804   4.152   2.825 -0.1520  0.2012  0.7982
   19SAPS    HA 2413   5.770   4.072   2.756  0.7184  0.7958 -0.3524
   19SAPS    HB 2414   5.897   4.119   2.875  1.3734  0.7618 -1.4797
   19SAPS    C2 2415   5.685   4.163   2.935 -0.2034 -0.1135  0.7157
   19SAPS    HS 2416   5.595   4.165   2.870  2.4832  0.6235 -3.3211
   19SAPS   O21 2417   5.705   4.282   3.016  0.1370 -0.2683  0.0911
   19SAPS   C21 2418   5.587   4.333   3.058  0.0692  0.0130 -0.4281
   19SAPS   O22 2419   5.479   4.291   3.021  0.0844 -0.0318  0.3008
   19SAPS   C22 2420   5.603   4.454   3.144 -0.1082 -0.0399  0.4084
   19SAPS   H2R 2421   5.651   4.532   3.081 -0.6525 -1.3130 -1.6889
   19SAPS   H2S 2422   5.501   4.492   3.166  0.0359  0.9154 -0.4774
   19SAPS    C3 2423   5.684   4.031   3.020 -0.1957 -0.2103 -0.2196
   19SAPS    HX 2424   5.782   4.037   3.073 -0.1931 -1.4489 -0.0408
   19SAPS    HY 2425   5.690   3.944   2.951 -3.3002 -0.2570 -0.5583
   19SAPS   O31 2426   5.579   4.017   3.119 -0.1475 -0.4512  0.0023
   19SAPS   C31 2427   5.488   3.926   3.113  0.8040 -0.7702  0.2765
   19SAPS   O32 2428   5.480   3.842   3.022 -0.1501 -0.3630 -0.9368
   19SAPS   C32 2429   5.369   3.951   3.213 -0.2224  0.2729 -0.1387
   19SAPS   H2X 2430   5.288   3.997   3.153  1.1137  1.7404 -0.9092
   19SAPS   H2Y 2431   5.409   4.025   3.285 -0.1012 -2.7016  3.0902
   19SAPS   C23 2432   5.670   4.418   3.280 -0.8347  0.6236 -0.2527
   19SAPS   H3R 2433   5.776   4.384   3.279 -1.1953 -0.5363 -0.3732
   19SAPS   H3S 2434   5.630   4.319   3.310 -0.3197  0.1238 -1.1463
   19SAPS   C24 2435   5.656   4.534   3.379 -0.6869  0.4796  0.2155
   19SAPS   H4R 2436   5.547   4.527   3.398 -0.4943 -1.4946  0.8602
   19SAPS   H4S 2437   5.670   4.634   3.333  2.2409  1.3153  2.5981
   19SAPS   C25 2438   5.744   4.533   3.494 -0.5383  0.2472  0.1255
   19SAPS   H5R 2439   5.849   4.561   3.477 -0.3579  1.5598  2.8090
   19SAPS   C26 2440   5.712   4.490   3.614  0.4318 -0.3344  0.5044
   19SAPS   H6R 2441   5.794   4.503   3.686  1.0478  1.3835 -0.4519
   19SAPS   C27 2442   5.584   4.429   3.670 -0.1729  0.5659 -0.8981
   19SAPS   H7R 2443   5.508   4.510   3.665 -0.2174  0.5640 -0.3212
   19SAPS   H7S 2444   5.585   4.422   3.781 -0.5834  0.5255 -0.8966
   19SAPS   C28 2445   5.526   4.306   3.608  0.5513  0.3572  0.0058
   19SAPS   H8R 2446   5.486   4.311   3.505  2.3916  0.8944 -0.7285
   19SAPS   C29 2447   5.516   4.186   3.668  0.8789  0.4490 -0.5587
   19SAPS   H9R 2448   5.470   4.098   3.619 -1.5478  1.0253  0.5320
   19SAPS  C210 2449   5.542   4.160   3.812  0.6273 -0.1480 -0.0690
   19SAPS  H10R 2450   5.619   4.229   3.852  0.0773  0.4175  0.0363
   19SAPS  H10S 2451   5.596   4.063   3.816 -0.5498 -0.7851  1.0407
   19SAPS  C211 2452   5.417   4.162   3.900 -0.8004  0.7950  0.4138
   19SAPS  H11R 2453   5.319   4.137   3.857 -0.1089 -0.1825 -0.6524
   19SAPS  C212 2454   5.417   4.184   4.035  0.4297 -0.3486  0.0303
   19SAPS  H12R 2455   5.322   4.167   4.088 -0.7990  0.6726 -1.7517
   19SAPS  C213 2456   5.544   4.216   4.111  0.7822  0.5531  0.1597
   19SAPS  H13R 2457   5.604   4.296   4.062  1.1747 -0.7432 -1.5946
   19SAPS  H13S 2458   5.612   4.129   4.124  0.0141  0.1164  1.4545
   19SAPS  C214 2459   5.501   4.267   4.249  0.0101  0.0345  0.3570
   19SAPS  H14R 2460   5.403   4.242   4.291 -0.5346 -0.1168 -0.9497
   19SAPS  C215 2461   5.559   4.362   4.321  0.2094 -0.4959 -0.2040
   19SAPS  H15R 2462   5.504   4.379   4.415  2.4722 -1.0066  1.2942
   19SAPS  C216 2463   5.691   4.437   4.301  0.2713 -0.2445 -0.3929
   19SAPS  H16R 2464   5.681   4.541   4.266  0.9712  0.5983  1.7363
   19SAPS  H16S 2465   5.755   4.383   4.229 -0.9551  0.2275 -1.8916
   19SAPS  C217 2466   5.766   4.442   4.434  0.0820  1.0554  0.2075
   19SAPS  H17R 2467   5.709   4.497   4.513  0.1127 -0.2828  1.1981
   19SAPS  H17S 2468   5.855   4.502   4.405  0.0380  1.4555  0.8749
   19SAPS  C218 2469   5.811   4.304   4.483 -0.4061 -0.4573  0.2236
   19SAPS  H18R 2470   5.836   4.239   4.396  2.8979  2.2063 -1.0481
   19SAPS  H18S 2471   5.726   4.240   4.516 -1.5947 -0.7085 -3.0054
   19SAPS  C219 2472   5.918   4.303   4.588 -0.0968  0.0542  0.2080
   19SAPS  H19R 2473   5.917   4.199   4.627 -0.2871 -0.8411 -2.0341
   19SAPS  H19S 2474   5.891   4.367   4.675 -1.6578  0.2428 -0.3969
   19SAPS  C220 2475   6.062   4.333   4.544 -0.9235 -0.4440  1.6155
   19SAPS  H20R 2476   6.133   4.326   4.629  1.6391  4.4861  0.2896
   19SAPS  H20S 2477   6.088   4.434   4.506 -0.1847 -1.4359 -0.7328
   19SAPS  H20T 2478   6.094   4.272   4.456 -0.0348  0.6396  1.1595
   19SAPS   C33 2479   5.308   3.824   3.278 -0.0454  0.6976  0.4388
   19SAPS   H3X 2480   5.391   3.764   3.321 -0.1882  0.0003 -0.2432
   19SAPS   H3Y 2481   5.271   3.754   3.200 -2.2901  2.1500  0.1166
   19SAPS   C34 2482   5.202   3.848   3.387  0.1810 -0.1404 -0.4965
   19SAPS   H4X 2483   5.169   3.754   3.436  1.1407 -0.2963 -0.1352
   19SAPS   H4Y 2484   5.109   3.886   3.338 -0.6651  1.7365  2.3014
   19SAPS   C35 2485   5.247   3.933   3.510 -0.3285  0.1851  0.6381
   19SAPS   H5X 2486   5.276   4.038   3.484 -0.7648  0.1658  0.0362
   19SAPS   H5Y 2487   5.338   3.883   3.548  1.4747  2.6934 -0.0423
   19SAPS   C36 2488   5.139   3.941   3.615 -0.0284  0.7412 -0.0593
   19SAPS   H6X 2489   5.039   3.955   3.568  0.2627  0.0166 -0.9276
   19SAPS   H6Y 2490   5.170   4.031   3.673 -0.4572 -0.4016  2.0402
   19SAPS   C37 2491   5.118   3.824   3.714 -0.7524 -0.1640 -0.1349
   19SAPS   H7X 2492   5.221   3.783   3.727  0.1886  0.6096 -3.7962
   19SAPS   H7Y 2493   5.048   3.747   3.674  0.5362 -1.5219  0.1375
   19SAPS   C38 2494   5.064   3.874   3.849  0.4080 -0.0997 -0.0871
   19SAPS   H8X 2495   4.957   3.892   3.827  1.1083  0.1878 -3.8256
   19SAPS   H8Y 2496   5.101   3.976   3.876  0.0872 -0.5688  2.3361
   19SAPS   C39 2497   5.104   3.784   3.970 -0.0587  0.2312 -0.4734
   19SAPS   H9X 2498   5.214   3.775   3.958 -0.1918  0.1600 -1.9012
   19SAPS   H9Y 2499   5.069   3.682   3.945  2.2072 -0.0727 -2.9024
   19SAPS  C310 2500   5.071   3.822   4.110 -0.1263  0.1623  0.0645
   19SAPS  H10X 2501   5.120   3.747   4.175  1.3874 -0.5183 -1.7605
   19SAPS  H10Y 2502   4.961   3.809   4.116  0.0189 -2.6265 -1.4542
   19SAPS  C311 2503   5.130   3.957   4.157 -0.0212  0.3408 -0.1557
   19SAPS  H11X 2504   5.098   4.034   4.084 -1.4318 -1.6140 -1.6774
   19SAPS  H11Y 2505   5.241   3.956   4.149  0.4088 -0.7043  3.6969
   19SAPS  C312 2506   5.095   3.990   4.306 -0.1983 -0.3345 -0.1017
   19SAPS  H12X 2507   4.984   3.987   4.304 -0.1868 -1.9776 -2.4403
   19SAPS  H12Y 2508   5.128   4.095   4.321  1.9612 -1.0534  0.6007
   19SAPS  C313 2509   5.154   3.900   4.415 -0.1997 -0.4985  0.3390
   19SAPS  H13X 2510   5.261   3.912   4.391  0.0551  0.1124  1.6763
   19SAPS  H13Y 2511   5.126   3.793   4.418 -2.4599  0.0442  2.4256
   19SAPS  C314 2512   5.129   3.949   4.568 -0.1529 -0.3082  0.4654
   19SAPS  H14X 2513   5.206   3.904   4.634 -1.9344 -1.4015  1.8966
   19SAPS  H14Y 2514   5.028   3.914   4.597 -0.2108  1.0150  2.0173
   19SAPS  C315 2515   5.152   4.100   4.574  0.4832  0.1747 -0.3464
   19SAPS  H15X 2516   5.077   4.149   4.508 -2.4695  0.0437  2.6492
   19SAPS  H15Y 2517   5.255   4.126   4.541  0.2024 -0.1704 -1.5629
   19SAPS  C316 2518   5.133   4.155   4.716  0.4246  0.4466  0.5220
   19SAPS  H16X 2519   5.205   4.102   4.782  0.9360 -0.0906 -0.4553
   19SAPS  H16Y 2520   5.033   4.137   4.761  0.5600 -1.4860  0.1113
   19SAPS  C317 2521   5.177   4.305   4.724  0.4845  0.0843  0.0682
   19SAPS  H17X 2522   5.107   4.368   4.664 -1.6274 -0.8657  1.4004
   19SAPS  H17Y 2523   5.282   4.320   4.693  1.2408 -0.7545  2.0514
   19SAPS  C318 2524   5.180   4.357   4.864  0.2762  0.1793 -1.2244
   19SAPS  H18X 2525   5.255   4.293   4.915 -1.2634 -0.1947  0.6945
   19SAPS  H18Y 2526   5.077   4.346   4.905  0.1005 -2.3700 -2.1499
   19SAPS  H18Z 2527   5.216   4.462   4.859 -2.5808  1.5109  2.0179
   20SAPS     N 2528   3.723   4.479   2.248  0.0807 -0.4462  0.0864
   20SAPS   HN1 2529   3.658   4.479   2.168 -0.0984 -3.7666  0.0799
   20SAPS   HN2 2530   3.780   4.396   2.223 -1.4708 -1.5173  0.0070
   20SAPS   HN3 2531   3.671   4.469   2.338 -0.8395 -0.5979 -0.4500
   20SAPS   C12 2532   3.811   4.607   2.266 -0.0810  0.8081 -0.1830
   20SAPS  H12A 2533   3.867   4.603   2.358 -2.3220  1.3663  1.2859
   20SAPS   C13 2534   3.915   4.634   2.155  0.6516  0.1123  0.7410
   20SAPS  O13A 2535   3.914   4.562   2.053  0.0164 -0.0191  0.1763
   20SAPS  O13B 2536   4.009   4.717   2.167  0.1512  0.1708  0.0432
   20SAPS   C11 2537   3.714   4.728   2.274 -1.1811  0.2451  0.1464
   20SAPS  H11A 2538   3.650   4.723   2.183 -0.3332 -0.6091 -0.4226
   20SAPS  H11B 2539   3.780   4.817   2.266  0.8517 -1.0396  1.7517
   20SAPS     P 2540   3.580   4.862   2.453 -0.4567  0.0684 -0.0568
   20SAPS   O13 2541   3.506   4.932   2.347 -0.4355 -0.0183 -0.0040
   20SAPS   O14 2542   3.508   4.830   2.583 -0.4940  0.0328  0.0666
   20SAPS   O12 2543   3.634   4.727   2.391  0.0636 -0.2502  0.1610
   20SAPS   O11 2544   3.712   4.944   2.492 -0.0885 -0.2331  0.0588
   20SAPS    C1 2545   3.815   4.878   2.574 -0.3179  0.2590  0.2701
   20SAPS    HA 2546   3.789   4.774   2.604 -0.7873  0.2810 -0.0575
   20SAPS    HB 2547   3.904   4.869   2.508 -0.1185  0.3393  0.5239
   20SAPS    C2 2548   3.853   4.949   2.703 -0.1838 -0.2148 -0.8158
   20SAPS    HS 2549   3.921   4.881   2.759  0.2612  0.4814 -0.4941
   20SAPS   O21 2550   3.728   4.980   2.772  0.3112 -0.4026  0.1919
   20SAPS   C21 2551   3.663   4.891   2.834  0.3394 -0.4987 -0.4902
   20SAPS   O22 2552   3.690   4.769   2.848 -0.2297 -0.0564  0.6643
   20SAPS   C22 2553   3.550   4.970   2.910 -0.6275 -0.0895  0.3620
   20SAPS   H2R 2554   3.594   5.048   2.975 -0.4912  0.2698 -0.1555
   20SAPS   H2S 2555   3.477   5.021   2.844 -2.4284 -2.2000  0.6101
   20SAPS    C3 2556   3.945   5.074   2.699  0.2610 -0.6314  0.5014
   20SAPS    HX 2557   3.904   5.149   2.628  3.3096  1.9716  1.2253
   20SAPS    HY 2558   4.038   5.036   2.650  0.9588  0.3523  1.0346
   20SAPS   O31 2559   3.988   5.135   2.821  0.5361 -0.0875 -0.4562
   20SAPS   C31 2560   3.923   5.242   2.851 -0.0437 -0.0382  0.1424
   20SAPS   O32 2561   3.842   5.302   2.785  0.7016 -0.0401 -0.1210
   20SAPS   C32 2562   3.974   5.285   2.990  0.3857 -0.2219  0.3204
   20SAPS   H2X 2563   4.030   5.380   2.975  0.1644 -0.1562 -0.1071
   20SAPS   H2Y 2564   4.047   5.213   3.031 -0.5708 -2.2299 -1.3578
   20SAPS   C23 2565   3.458   4.887   2.995  1.1088  0.3915 -0.9920
   20SAPS   H3R 2566   3.420   4.803   2.933  2.5428  0.5815 -2.1757
   20SAPS   H3S 2567   3.370   4.954   3.008  2.7658  2.1484  2.5274
   20SAPS   C24 2568   3.512   4.851   3.138  0.1411 -0.0335  0.9827
   20SAPS   H4R 2569   3.596   4.778   3.137  0.8683  0.7407  2.1186
   20SAPS   H4S 2570   3.425   4.795   3.179 -0.9894  1.0093  0.0747
   20SAPS   C25 2571   3.567   4.966   3.230  0.4413 -0.1094  0.1929
   20SAPS   H5R 2572   3.657   5.008   3.185  0.4731 -2.2831 -1.9912
   20SAPS   C26 2573   3.507   5.006   3.343 -0.3812 -0.3982  0.3044
   20SAPS   H6R 2574   3.559   5.080   3.407 -0.3822  0.3058 -0.4940
   20SAPS   C27 2575   3.382   4.941   3.410 -0.4457 -0.0944  0.6530
   20SAPS   H7R 2576   3.403   4.863   3.485 -1.2367  1.5275  2.6747
   20SAPS   H7S 2577   3.306   4.900   3.340  0.2998 -0.5936  0.1265
   20SAPS   C28 2578   3.320   5.063   3.482  0.0573  0.1517  0.1189
   20SAPS   H8R 2579   3.296   5.142   3.409 -2.7977 -0.7844 -0.0818
   20SAPS   C29 2580   3.303   5.088   3.612  0.0118  0.8679 -1.1399
   20SAPS   H9R 2581   3.277   5.189   3.644  1.6061  1.3249 -1.1786
   20SAPS  C210 2582   3.336   4.985   3.724 -0.6999  0.0944 -0.4512
   20SAPS  H10R 2583   3.383   5.042   3.806 -0.8622 -1.3101  0.6555
   20SAPS  H10S 2584   3.418   4.924   3.680 -1.3447  0.4359 -2.2264
   20SAPS  C211 2585   3.214   4.909   3.767 -0.1258  0.5330  0.4256
   20SAPS  H11R 2586   3.143   4.882   3.687 -0.4828  0.2837  0.8208
   20SAPS  C212 2587   3.183   4.881   3.895  0.1708  0.7585  0.3374
   20SAPS  H12R 2588   3.086   4.831   3.901  0.4993  0.0071 -0.4452
   20SAPS  C213 2589   3.273   4.911   4.008  0.7294  0.2153 -0.1734
   20SAPS  H13R 2590   3.375   4.951   3.990  0.6009  1.0565  0.8890
   20SAPS  H13S 2591   3.264   4.823   4.075  1.3427  0.3307  0.0679
   20SAPS  C214 2592   3.201   5.023   4.091 -0.0045 -0.3521  0.0853
   20SAPS  H14R 2593   3.155   5.104   4.033  1.1599 -0.7148 -1.4194
   20SAPS  C215 2594   3.215   5.042   4.222  0.4138 -0.7201 -0.3775
   20SAPS  H15R 2595   3.158   5.121   4.272  1.5903 -0.8703  1.2968
   20SAPS  C216 2596   3.293   4.957   4.321 -0.1229  0.2231  0.2820
   20SAPS  H16R 2597   3.404   4.957   4.320 -0.0818 -1.0822  1.4978
   20SAPS  H16S 2598   3.270   4.850   4.298  0.1006  0.3755 -0.6847
   20SAPS  C217 2599   3.248   4.984   4.466  0.1779 -0.2725 -0.2323
   20SAPS  H17R 2600   3.292   4.895   4.517  0.7793 -0.2645 -0.7268
   20SAPS  H17S 2601   3.138   4.984   4.478  0.1965  0.3535 -0.0210
   20SAPS  C218 2602   3.307   5.116   4.531 -0.3202 -0.3137  0.0178
   20SAPS  H18R 2603   3.269   5.207   4.479  2.2781  0.8884  0.0599
   20SAPS  H18S 2604   3.415   5.125   4.508 -0.1491 -2.6432 -0.3416
   20SAPS  C219 2605   3.268   5.125   4.681  0.0301  0.5307  0.0098
   20SAPS  H19R 2606   3.292   5.025   4.725 -0.6297  0.6866  0.7359
   20SAPS  H19S 2607   3.158   5.138   4.681 -0.4339 -2.4826  0.5577
   20SAPS  C220 2608   3.336   5.216   4.768 -0.7320  0.5603 -0.1987
   20SAPS  H20R 2609   3.438   5.233   4.728 -0.8579  0.2308 -0.6602
   20SAPS  H20S 2610   3.331   5.191   4.877  0.0994 -0.6854 -0.4208
   20SAPS  H20T 2611   3.282   5.313   4.769  0.5270  1.2894 -0.1925
   20SAPS   C33 2612   3.853   5.312   3.088  0.1244  0.0760  0.4770
   20SAPS   H3X 2613   3.797   5.217   3.103 -0.4441  0.3091 -0.1249
   20SAPS   H3Y 2614   3.774   5.370   3.037 -0.8276  1.0839  2.9478
   20SAPS   C34 2615   3.896   5.369   3.222  0.3761 -0.2721  0.3913
   20SAPS   H4X 2616   3.912   5.479   3.217 -0.7851 -0.0780 -5.0850
   20SAPS   H4Y 2617   3.993   5.328   3.257  0.4628 -1.7307 -1.4011
   20SAPS   C35 2618   3.788   5.330   3.321 -0.0604  0.2926 -0.5507
   20SAPS   H5X 2619   3.775   5.220   3.321 -0.0202  0.2647 -2.1650
   20SAPS   H5Y 2620   3.691   5.371   3.289 -0.2612  0.1163 -0.1776
   20SAPS   C36 2621   3.832   5.375   3.458 -0.6720  0.0352  0.5280
   20SAPS   H6X 2622   3.837   5.485   3.476 -0.7726 -0.0199  0.9075
   20SAPS   H6Y 2623   3.936   5.348   3.486 -0.9541 -0.1536  1.4455
   20SAPS   C37 2624   3.748   5.307   3.559 -0.7650  0.2502  0.7928
   20SAPS   H7X 2625   3.753   5.198   3.537  0.0774 -0.1397  2.7425
   20SAPS   H7Y 2626   3.643   5.344   3.564 -1.6159 -1.9488  0.2463
   20SAPS   C38 2627   3.803   5.324   3.701 -0.2621  0.3481 -0.2854
   20SAPS   H8X 2628   3.774   5.427   3.731  0.0498  0.6147 -0.8758
   20SAPS   H8Y 2629   3.914   5.332   3.699 -0.3120  1.1307 -1.2668
   20SAPS   C39 2630   3.768   5.220   3.801 -0.2655  0.0102 -0.5408
   20SAPS   H9X 2631   3.814   5.119   3.796  0.4502  0.3034 -0.0638
   20SAPS   H9Y 2632   3.657   5.216   3.809 -0.1756  0.4942  1.5684
   20SAPS  C310 2633   3.811   5.263   3.947 -0.4665 -0.5644  0.1174
   20SAPS  H10X 2634   3.774   5.365   3.971  1.7387  0.1631  0.6294
   20SAPS  H10Y 2635   3.919   5.286   3.944 -0.7473  0.6948 -2.1056
   20SAPS  C311 2636   3.768   5.156   4.052  0.2064  0.2522 -0.5577
   20SAPS  H11X 2637   3.815   5.056   4.039  2.2232  0.9670  0.7394
   20SAPS  H11Y 2638   3.658   5.145   4.056  0.2725 -0.1377  0.4575
   20SAPS  C312 2639   3.793   5.210   4.200  0.2630  0.1135 -0.2043
   20SAPS  H12X 2640   3.726   5.295   4.227 -0.8996 -1.0152  0.5820
   20SAPS  H12Y 2641   3.903   5.225   4.198  0.5418 -1.5665  0.7296
   20SAPS  C313 2642   3.767   5.107   4.321  0.6160  0.1866  0.3972
   20SAPS  H13X 2643   3.825   5.015   4.296  0.5672  1.1618 -4.1685
   20SAPS  H13Y 2644   3.659   5.084   4.318  0.5871 -0.2936  2.8927
   20SAPS  C314 2645   3.822   5.151   4.455 -0.2871  0.3547 -0.7395
   20SAPS  H14X 2646   3.772   5.249   4.471 -0.9540 -0.3007  1.6592
   20SAPS  H14Y 2647   3.932   5.162   4.448 -0.0659 -0.6253  0.7159
   20SAPS  C315 2648   3.792   5.049   4.569  0.7718  0.2161  0.4138
   20SAPS  H15X 2649   3.867   4.966   4.572 -1.1119 -1.5494  0.7138
   20SAPS  H15Y 2650   3.698   5.002   4.535  1.2235 -0.3310 -0.0949
   20SAPS  C316 2651   3.765   5.117   4.702 -0.5566 -0.3219 -0.0243
   20SAPS  H16X 2652   3.678   5.184   4.686 -0.4372 -0.0748  0.3441
   20SAPS  H16Y 2653   3.850   5.180   4.735  1.5092 -0.6439 -4.1321
   20SAPS  C317 2654   3.735   5.026   4.821  0.2884 -0.3466 -0.2976
   20SAPS  H17X 2655   3.650   4.963   4.788  0.5335 -0.7380 -0.1771
   20SAPS  H17Y 2656   3.697   5.084   4.908  0.0048  1.1564 -1.3785
   20SAPS  C318 2657   3.862   4.949   4.876 -0.2262 -0.4130  0.5398
   20SAPS  H18X 2658   3.837   4.896   4.970  1.1676 -0.4201  0.9207
   20SAPS  H18Y 2659   3.934   5.027   4.908 -1.7121  1.9675 -1.5718
   20SAPS  H18Z 2660   3.903   4.883   4.797 -3.0764 -0.7068 -0.8189
   21CHL1    C3 2661   2.203   6.480   6.710  0.0883 -0.4799  0.3967
   21CHL1    H3 2662   2.116   6.544   6.684 -0.2288 -0.4454  1.4869
   21CHL1    O3 2663   2.186   6.458   6.849  0.5196  0.3171 -0.4110
   21CHL1   H3' 2664   2.203   6.364   6.859  1.1618  0.4401 -0.3286
   21CHL1    C4 2665   2.186   6.352   6.628  0.3201 -0.2284  0.1397
   21CHL1   H4A 2666   2.256   6.273   6.665 -0.5702 -0.3036  1.7486
   21CHL1   H4B 2667   2.090   6.301   6.648  0.6170 -0.5098  0.8887
   21CHL1    C5 2668   2.211   6.372   6.477 -0.0827 -1.0246 -0.0730
   21CHL1    C6 2669   2.116   6.337   6.385  0.0721 -0.7163  0.8472
   21CHL1    H6 2670   2.018   6.296   6.414 -0.8453 -0.9221 -2.2637
   21CHL1    C7 2671   2.146   6.338   6.238  0.2454  0.6510 -0.9280
   21CHL1   H7A 2672   2.115   6.240   6.196  0.5324 -0.1672  0.6772
   21CHL1   H7B 2673   2.087   6.416   6.185  1.3968  1.4025 -1.1364
   21CHL1    C8 2674   2.292   6.367   6.199 -0.1772  0.0112  0.1279
   21CHL1    H8 2675   2.353   6.276   6.216  1.4271  1.0457  0.1354
   21CHL1   C14 2676   2.310   6.397   6.053  0.3997 -0.0206  0.3648
   21CHL1   H14 2677   2.257   6.494   6.038  0.2119 -0.2363 -0.3981
   21CHL1   C15 2678   2.232   6.307   5.956 -0.2180  0.3155  0.3620
   21CHL1  H15A 2679   2.241   6.198   5.973  1.6331  0.0708 -1.6955
   21CHL1  H15B 2680   2.123   6.318   5.941 -0.1456 -1.5349 -2.2176
   21CHL1   C16 2681   2.301   6.328   5.821  0.2190 -0.1108 -0.2007
   21CHL1  H16A 2682   2.335   6.228   5.786 -0.1164 -0.6090  0.8562
   21CHL1  H16B 2683   2.234   6.364   5.739  0.3986 -1.7728 -1.1157
   21CHL1   C17 2684   2.424   6.424   5.853  0.1516 -0.3485 -0.0836
   21CHL1   H17 2685   2.372   6.521   5.849  3.7441  1.8046  0.8525
   21CHL1   C13 2686   2.450   6.405   6.004 -0.1940  0.1002  0.2298
   21CHL1   C18 2687   2.528   6.273   6.019 -0.0331  0.2577  0.2097
   21CHL1  H18A 2688   2.542   6.250   6.127  0.1287  0.6790  0.2821
   21CHL1  H18B 2689   2.482   6.193   5.957  0.5911  0.6982 -0.8655
   21CHL1  H18C 2690   2.630   6.281   5.975 -0.7807 -1.4773 -2.0632
   21CHL1   C12 2691   2.513   6.510   6.093  0.0560  0.4426  0.1125
   21CHL1  H12A 2692   2.623   6.513   6.076 -0.0021 -2.9679 -1.6756
   21CHL1  H12B 2693   2.472   6.608   6.061  1.5909  0.5447 -1.7434
   21CHL1   C11 2694   2.502   6.499   6.246  0.4671 -0.1562 -0.4670
   21CHL1  H11A 2695   2.574   6.420   6.276 -1.8722 -1.7598  1.3385
   21CHL1  H11B 2696   2.534   6.595   6.292  1.1768 -1.1029  1.1308
   21CHL1    C9 2697   2.357   6.472   6.296  0.3438  0.6091  0.3135
   21CHL1    H9 2698   2.292   6.560   6.276 -0.5784 -0.0900  0.1505
   21CHL1   C10 2699   2.351   6.436   6.446 -0.0285 -0.2046  0.2614
   21CHL1   C19 2700   2.457   6.336   6.485  0.1446  0.7263 -0.4458
   21CHL1  H19A 2701   2.561   6.360   6.456 -0.0664  0.2960 -1.6434
   21CHL1  H19B 2702   2.462   6.308   6.592  1.3377  1.1634 -0.3727
   21CHL1  H19C 2703   2.446   6.242   6.427  0.4957 -0.0923  0.7727
   21CHL1    C1 2704   2.368   6.565   6.529 -0.0933 -0.0683  0.8839
   21CHL1   H1A 2705   2.472   6.600   6.511 -0.3676 -0.6897 -2.7807
   21CHL1   H1B 2706   2.295   6.635   6.484 -0.4221 -0.7968  0.2635
   21CHL1    C2 2707   2.334   6.553   6.681  0.1877 -0.3658 -0.0371
   21CHL1   H2A 2708   2.342   6.657   6.720  1.8697  0.0190 -1.2562
   21CHL1   H2B 2709   2.410   6.485   6.723 -0.0568  0.3677  1.6775
   21CHL1   C20 2710   2.530   6.419   5.745  0.4197 -1.1150  0.9657
   21CHL1   H20 2711   2.566   6.314   5.748 -0.3357 -1.3691  3.7749
   21CHL1   C21 2712   2.636   6.514   5.784 -0.1873 -0.5576 -0.1183
   21CHL1  H21A 2713   2.600   6.618   5.792 -1.1757 -0.9308  0.4429
   21CHL1  H21B 2714   2.717   6.516   5.708 -0.2050  1.2199 -0.1217
   21CHL1  H21C 2715   2.683   6.491   5.882 -0.1895  1.4955  0.4090
   21CHL1   C22 2716   2.461   6.460   5.609  0.9609 -0.4280 -0.6381
   21CHL1  H22A 2717   2.388   6.380   5.585 -0.6984  0.5602  0.8884
   21CHL1  H22B 2718   2.396   6.550   5.615 -3.9131 -3.6503  1.4591
   21CHL1   C23 2719   2.550   6.480   5.491 -0.3276  0.2343 -0.0642
   21CHL1  H23A 2720   2.564   6.589   5.475 -0.5774  0.0502 -1.6571
   21CHL1  H23B 2721   2.649   6.436   5.518 -0.2294  1.7691  2.3670
   21CHL1   C24 2722   2.508   6.434   5.351  1.0861  0.2710  0.7472
   21CHL1  H24A 2723   2.473   6.329   5.348  0.5909  0.3719  2.3372
   21CHL1  H24B 2724   2.430   6.507   5.321  1.4227  0.5278  0.4906
   21CHL1   C25 2725   2.613   6.440   5.247 -0.9152 -0.3230 -0.6011
   21CHL1   H25 2726   2.697   6.380   5.290 -0.3951  0.3275 -0.7009
   21CHL1   C26 2727   2.578   6.369   5.115  0.5741  0.0601 -0.1860
   21CHL1  H26A 2728   2.479   6.405   5.078  1.2301  1.1708 -0.9069
   21CHL1  H26B 2729   2.654   6.398   5.040  1.0842 -0.0560  0.2808
   21CHL1  H26C 2730   2.577   6.258   5.128 -0.2635  0.0874  0.0883
   21CHL1   C27 2731   2.649   6.586   5.218  0.4447  0.1321  1.0539
   21CHL1  H27A 2732   2.566   6.629   5.157  1.1564  0.7692  0.5215
   21CHL1  H27B 2733   2.665   6.651   5.306  0.4141  0.8897  0.5110
   21CHL1  H27C 2734   2.742   6.585   5.157  0.7971 -2.9731  1.4773
   22CHL1    C3 2735   6.003   0.617   6.270  0.1853 -0.5341  0.4027
   22CHL1    H3 2736   6.090   0.550   6.251 -0.6909 -1.3187 -0.9538
   22CHL1    O3 2737   5.990   0.668   6.401 -0.2236  0.3550  0.3343
   22CHL1   H3' 2738   5.896   0.683   6.397 -0.4821 -1.2346 -0.5697
   22CHL1    C4 2739   5.986   0.729   6.163  0.1237  0.2362  0.8255
   22CHL1   H4A 2740   5.889   0.781   6.175 -1.3280 -2.2614  0.5865
   22CHL1   H4B 2741   6.068   0.805   6.170 -2.0155  2.7126  0.5472
   22CHL1    C5 2742   5.985   0.671   6.020 -0.8712  0.0621 -0.3044
   22CHL1    C6 2743   6.078   0.704   5.929 -0.5414  0.6962  0.3558
   22CHL1    H6 2744   6.157   0.776   5.957  0.6614 -1.5347  3.1651
   22CHL1    C7 2745   6.079   0.638   5.787  0.1003 -0.3279 -0.1831
   22CHL1   H7A 2746   6.111   0.711   5.710 -0.3015 -1.3076 -1.3034
   22CHL1   H7B 2747   6.163   0.567   5.777  1.1208  0.6865  0.8017
   22CHL1    C8 2748   5.951   0.572   5.739 -0.5306 -0.0945  0.8207
   22CHL1    H8 2749   5.881   0.655   5.717 -0.5748 -0.3228  0.0700
   22CHL1   C14 2750   5.973   0.495   5.606  0.2044 -0.7642 -0.0523
   22CHL1   H14 2751   6.052   0.421   5.629  0.2513 -0.3681  1.1502
   22CHL1   C15 2752   6.022   0.579   5.481  0.1083  0.8940 -0.6929
   22CHL1  H15A 2753   5.972   0.678   5.489 -1.2309  0.2496 -0.8247
   22CHL1  H15B 2754   6.133   0.579   5.488  0.2036 -0.7919 -1.6801
   22CHL1   C16 2755   5.971   0.492   5.365 -0.3183 -0.5725 -0.0848
   22CHL1  H16A 2756   5.910   0.553   5.295 -2.2383 -4.2196 -1.8734
   22CHL1  H16B 2757   6.057   0.454   5.306  0.6567  0.3653  0.7003
   22CHL1   C17 2758   5.886   0.379   5.422 -0.4910  0.6616 -0.8093
   22CHL1   H17 2759   5.959   0.300   5.449 -0.0367  0.6108 -2.1204
   22CHL1   C13 2760   5.840   0.430   5.561 -0.2004  1.6092  0.1855
   22CHL1   C18 2761   5.730   0.536   5.533  0.4103 -0.1315  0.3017
   22CHL1  H18A 2762   5.692   0.590   5.622  0.1095 -1.1534  0.8123
   22CHL1  H18B 2763   5.764   0.607   5.455 -1.1379 -0.9448 -1.1713
   22CHL1  H18C 2764   5.635   0.491   5.497 -0.2476  0.7390  0.9242
   22CHL1   C12 2765   5.801   0.326   5.668 -0.0880 -0.1777 -0.1273
   22CHL1  H12A 2766   5.710   0.267   5.641  0.3371 -2.0708  2.2189
   22CHL1  H12B 2767   5.889   0.258   5.662  1.4098  1.7096 -0.4070
   22CHL1   C11 2768   5.783   0.392   5.805 -0.1856 -0.0006  0.4321
   22CHL1  H11A 2769   5.695   0.460   5.809 -0.2720 -0.0366 -0.5943
   22CHL1  H11B 2770   5.782   0.317   5.887  1.8991  0.0938  0.5890
   22CHL1    C9 2771   5.902   0.486   5.849 -0.9514 -0.7625  0.4662
   22CHL1    H9 2772   5.986   0.417   5.869  1.1207  0.6742 -2.5758
   22CHL1   C10 2773   5.879   0.562   5.982 -0.4102  0.1651 -0.6552
   22CHL1   C19 2774   5.746   0.641   5.978 -0.5797  0.6271 -0.4421
   22CHL1  H19A 2775   5.755   0.718   5.899 -1.3236  2.2655  1.0203
   22CHL1  H19B 2776   5.660   0.574   5.956 -1.1650  0.4430  2.1267
   22CHL1  H19C 2777   5.724   0.698   6.070  0.7492  3.5424 -1.8009
   22CHL1    C1 2778   5.874   0.464   6.102 -0.3090 -0.2063  0.0934
   22CHL1   H1A 2779   5.789   0.393   6.093  0.9424 -1.5284 -2.2257
   22CHL1   H1B 2780   5.962   0.400   6.080 -0.1403  0.9205 -2.9474
   22CHL1    C2 2781   5.884   0.522   6.244  1.0423  0.0600  0.3718
   22CHL1   H2A 2782   5.887   0.451   6.329 -1.9660  0.6977  1.0996
   22CHL1   H2B 2783   5.786   0.567   6.271 -0.4561 -2.1451 -1.0636
   22CHL1   C20 2784   5.788   0.332   5.317  0.3345 -0.1040  0.9496
   22CHL1   H20 2785   5.725   0.419   5.286 -2.2952 -1.9967  0.6410
   22CHL1   C21 2786   5.678   0.233   5.370 -0.2615  0.7633  0.2791
   22CHL1  H21A 2787   5.599   0.279   5.433 -0.3461 -1.2391  1.7412
   22CHL1  H21B 2788   5.732   0.156   5.429  1.0587  0.5575 -1.1566
   22CHL1  H21C 2789   5.634   0.182   5.282  2.0310  1.2027 -1.1950
   22CHL1   C22 2790   5.864   0.269   5.194  0.2898 -0.2202  0.3506
   22CHL1  H22A 2791   5.797   0.261   5.107  0.9537  1.4984 -0.3807
   22CHL1  H22B 2792   5.934   0.337   5.140 -2.9318  0.9447 -2.7256
   22CHL1   C23 2793   5.937   0.142   5.227  0.4579  0.2390  0.1026
   22CHL1  H23A 2794   6.019   0.171   5.297  0.6493 -0.0108 -0.0183
   22CHL1  H23B 2795   5.872   0.072   5.282 -0.6872  0.6120 -0.7388
   22CHL1   C24 2796   5.990   0.087   5.094  0.6951 -0.3238 -0.0100
   22CHL1  H24A 2797   5.916   0.095   5.011  2.6735  1.0094 -1.7490
   22CHL1  H24B 2798   6.078   0.148   5.062 -0.0574  1.0089  0.3898
   22CHL1   C25 2799   6.037  -0.059   5.104 -0.2808  0.3319 -0.3500
   22CHL1   H25 2800   6.096  -0.075   5.196  1.3014  0.5452 -1.2771
   22CHL1   C26 2801   5.914  -0.154   5.109 -0.2534  0.0880  0.0896
   22CHL1  H26A 2802   5.950  -0.246   5.161  1.3642 -0.2871 -1.6051
   22CHL1  H26B 2803   5.832  -0.106   5.166 -0.9121 -0.9770  0.0830
   22CHL1  H26C 2804   5.880  -0.168   5.004  0.3382 -0.8603  0.0112
   22CHL1   C27 2805   6.130  -0.107   4.994  0.3997  0.1950 -0.2272
   22CHL1  H27A 2806   6.155  -0.215   5.008 -4.3564 -1.1446 -0.2369
   22CHL1  H27B 2807   6.079  -0.101   4.896  0.1760  0.3915 -0.0995
   22CHL1  H27C 2808   6.226  -0.052   4.984 -0.2985  1.5249  0.2755
   23CHL1    C3 2809   1.139   6.229   6.601  0.6582 -0.2543  0.5621
   23CHL1    H3 2810   1.234   6.195   6.648  1.4942  0.8319 -0.2748
   23CHL1    O3 2811   1.035   6.260   6.692 -0.0768  0.3781 -0.4262
   23CHL1   H3' 2812   0.971   6.315   6.646  0.6818  1.9608  0.3162
   23CHL1    C4 2813   1.183   6.369   6.535  0.2219  0.3751 -0.4855
   23CHL1   H4A 2814   1.086   6.419   6.516  0.3475  0.4697 -0.8977
   23CHL1   H4B 2815   1.231   6.436   6.610  0.2163  1.8103 -1.7204
   23CHL1    C5 2816   1.250   6.366   6.401  0.4042  0.7379 -0.5436
   23CHL1    C6 2817   1.366   6.428   6.376  0.7379 -0.0271  0.1618
   23CHL1    H6 2818   1.418   6.481   6.457 -0.9208 -0.0391  1.2844
   23CHL1    C7 2819   1.451   6.422   6.249 -0.0335  0.1047 -0.3875
   23CHL1   H7A 2820   1.522   6.507   6.237  2.4699 -1.7284  0.4264
   23CHL1   H7B 2821   1.517   6.333   6.258 -0.4221  0.0622  3.5395
   23CHL1    C8 2822   1.354   6.383   6.128 -0.2644 -0.7323 -0.2990
   23CHL1    H8 2823   1.282   6.467   6.114  0.8834  0.3220 -0.0304
   23CHL1   C14 2824   1.441   6.358   6.005 -0.5072 -1.1122  1.0416
   23CHL1   H14 2825   1.497   6.265   6.033  2.1898 -0.1340 -0.7490
   23CHL1   C15 2826   1.547   6.465   5.960  0.0337  0.6562 -0.2170
   23CHL1  H15A 2827   1.518   6.572   5.958  1.5919  1.1033 -0.1532
   23CHL1  H15B 2828   1.640   6.456   6.020 -0.5981  1.6453  0.9496
   23CHL1   C16 2829   1.580   6.420   5.815 -0.2362 -0.0969 -1.1444
   23CHL1  H16A 2830   1.572   6.499   5.737  0.6077  0.1028 -1.0294
   23CHL1  H16B 2831   1.684   6.382   5.808 -0.7435 -2.1155  0.8281
   23CHL1   C17 2832   1.483   6.300   5.771  0.4097 -0.5216  0.1177
   23CHL1   H17 2833   1.542   6.209   5.794 -0.7346 -1.3640 -0.1956
   23CHL1   C13 2834   1.367   6.310   5.878  0.3770  0.0784  0.3559
   23CHL1   C18 2835   1.255   6.413   5.824 -0.0475 -0.4188 -0.5350
   23CHL1  H18A 2836   1.203   6.355   5.746 -0.4443 -0.0729 -0.5314
   23CHL1  H18B 2837   1.184   6.446   5.903  3.2451  1.8133  1.7332
   23CHL1  H18C 2838   1.301   6.510   5.796 -2.9900  0.8250 -1.4161
   23CHL1   C12 2839   1.297   6.184   5.910  0.5582  0.1108 -0.3214
   23CHL1  H12A 2840   1.229   6.148   5.830  0.2023 -0.0152  0.0393
   23CHL1  H12B 2841   1.366   6.097   5.922 -0.1683 -0.2733  1.3635
   23CHL1   C11 2842   1.203   6.202   6.036  1.4164  0.6791  0.0826
   23CHL1  H11A 2843   1.124   6.275   6.008  0.7657 -1.0788 -3.2187
   23CHL1  H11B 2844   1.151   6.108   6.064 -3.1789  2.9352 -0.0375
   23CHL1    C9 2845   1.275   6.260   6.167 -0.2329  0.5864 -0.2805
   23CHL1    H9 2846   1.356   6.188   6.189 -1.5484 -2.0170 -3.1297
   23CHL1   C10 2847   1.185   6.278   6.294 -0.1411  0.0488 -0.6788
   23CHL1   C19 2848   1.044   6.324   6.254 -0.3365 -0.3129 -1.0878
   23CHL1  H19A 2849   1.002   6.253   6.179  0.0520 -1.1038 -0.5776
   23CHL1  H19B 2850   0.979   6.314   6.343 -0.8368  0.2156 -1.3837
   23CHL1  H19C 2851   1.031   6.427   6.213 -1.2672  0.1587  0.3337
   23CHL1    C1 2852   1.175   6.133   6.358  0.2778  0.3169  0.2965
   23CHL1   H1A 2853   1.122   6.074   6.281  2.9707  1.1810 -2.4042
   23CHL1   H1B 2854   1.275   6.087   6.371 -0.5924 -1.4322  1.1190
   23CHL1    C2 2855   1.089   6.124   6.490  0.6050 -1.2553 -0.2654
   23CHL1   H2A 2856   1.078   6.021   6.529  0.1320  0.3309  4.3842
   23CHL1   H2B 2857   0.986   6.158   6.464  1.3435  1.9616  0.5883
   23CHL1   C20 2858   1.455   6.284   5.618  0.6550 -0.1030 -0.2256
   23CHL1   H20 2859   1.381   6.365   5.597  0.2212  0.4142  2.8224
   23CHL1   C21 2860   1.383   6.150   5.593 -0.4399 -0.0478 -0.3176
   23CHL1  H21A 2861   1.374   6.135   5.483 -2.3960 -0.6678 -0.1071
   23CHL1  H21B 2862   1.276   6.163   5.620 -0.5741 -0.7953 -0.4632
   23CHL1  H21C 2863   1.436   6.065   5.640 -0.4909 -0.0834 -0.3243
   23CHL1   C22 2864   1.573   6.312   5.529  0.2348  0.2628 -0.1374
   23CHL1  H22A 2865   1.614   6.413   5.553  0.0933 -0.0494  1.5000
   23CHL1  H22B 2866   1.652   6.235   5.546 -1.0583 -0.9280  0.6606
   23CHL1   C23 2867   1.521   6.320   5.379 -0.1337  0.3955  0.3734
   23CHL1  H23A 2868   1.525   6.223   5.326  0.4773  0.3058  0.5798
   23CHL1  H23B 2869   1.416   6.356   5.382  0.0660  1.2094 -1.1486
   23CHL1   C24 2870   1.595   6.426   5.298  0.0660 -0.6903 -0.0010
   23CHL1  H24A 2871   1.571   6.523   5.347  0.8858 -0.3570 -0.2335
   23CHL1  H24B 2872   1.702   6.404   5.319 -0.0447 -1.0271  0.1953
   23CHL1   C25 2873   1.558   6.436   5.147  0.1873  0.0908 -0.0397
   23CHL1   H25 2874   1.589   6.343   5.094 -2.9585  1.2257 -4.4048
   23CHL1   C26 2875   1.415   6.449   5.121 -0.2174 -0.1019  0.0389
   23CHL1  H26A 2876   1.344   6.372   5.157  0.1058 -0.0424  0.8169
   23CHL1  H26B 2877   1.386   6.553   5.150 -0.6439 -0.4986  1.0640
   23CHL1  H26C 2878   1.398   6.443   5.011  1.6066  0.1786 -0.2911
   23CHL1   C27 2879   1.637   6.553   5.090  0.7538  0.4646 -0.4749
   23CHL1  H27A 2880   1.606   6.645   5.143 -1.6668 -0.2505 -0.5542
   23CHL1  H27B 2881   1.746   6.532   5.098  0.6058 -0.5027 -0.8235
   23CHL1  H27C 2882   1.625   6.561   4.980 -1.4523  0.0538 -0.3095
   24CHL1    C3 2883   3.610   6.274   6.866  0.2880  0.8887  0.1248
   24CHL1    H3 2884   3.560   6.175   6.859  1.1146  0.3588  1.3020
   24CHL1    O3 2885   3.638   6.320   6.998 -0.4966 -0.0817 -0.3885
   24CHL1   H3' 2886   3.678   6.406   6.983 -0.8381  0.0109 -0.8042
   24CHL1    C4 2887   3.742   6.274   6.785  0.6721 -0.3994 -0.0570
   24CHL1   H4A 2888   3.802   6.365   6.806 -1.6248  0.6871  2.2626
   24CHL1   H4B 2889   3.810   6.197   6.828  0.6358 -0.4336 -0.0607
   24CHL1    C5 2890   3.727   6.258   6.635 -0.3304  0.3786  1.0721
   24CHL1    C6 2891   3.784   6.167   6.563 -0.0082  0.4761 -0.2488
   24CHL1    H6 2892   3.853   6.096   6.611  0.3267  1.4809  0.8175
   24CHL1    C7 2893   3.784   6.148   6.411  0.1112 -0.3420  0.4458
   24CHL1   H7A 2894   3.882   6.122   6.368 -1.2370  0.7945 -3.7949
   24CHL1   H7B 2895   3.724   6.056   6.394 -1.2693  0.3831  1.2237
   24CHL1    C8 2896   3.715   6.265   6.336 -0.4456  0.0780  0.1497
   24CHL1    H8 2897   3.791   6.345   6.342  0.3735 -0.7098  0.5843
   24CHL1   C14 2898   3.677   6.240   6.184 -0.1976 -0.2051  0.8698
   24CHL1   H14 2899   3.606   6.155   6.186 -1.2584  0.5968 -0.5440
   24CHL1   C15 2900   3.787   6.183   6.089  0.3202 -0.6658  0.3385
   24CHL1  H15A 2901   3.890   6.225   6.094 -0.4139  1.2574  0.3424
   24CHL1  H15B 2902   3.800   6.076   6.115  1.5151 -0.7651 -0.5846
   24CHL1   C16 2903   3.721   6.203   5.952  0.7196 -0.5197 -0.4383
   24CHL1  H16A 2904   3.795   6.258   5.888  0.9345 -0.5330 -0.2016
   24CHL1  H16B 2905   3.688   6.107   5.907 -0.4934  0.0916 -0.8988
   24CHL1   C17 2906   3.591   6.288   5.969  0.0678 -0.0082  0.1904
   24CHL1   H17 2907   3.506   6.218   5.984 -0.1052  0.1841  0.1168
   24CHL1   C13 2908   3.609   6.349   6.106 -0.3070 -0.4120 -0.2819
   24CHL1   C18 2909   3.704   6.474   6.109 -0.2393  0.1033  0.2733
   24CHL1  H18A 2910   3.807   6.454   6.075  0.2099  1.4700  0.7616
   24CHL1  H18B 2911   3.669   6.560   6.047  0.1210  1.1022  1.4136
   24CHL1  H18C 2912   3.711   6.510   6.214  1.7148  1.7162 -0.3616
   24CHL1   C12 2913   3.475   6.380   6.189 -0.9166  0.0587  0.0265
   24CHL1  H12A 2914   3.411   6.463   6.152  0.5872  0.1700 -2.5070
   24CHL1  H12B 2915   3.416   6.288   6.205 -1.5455  0.8695  3.1108
   24CHL1   C11 2916   3.503   6.414   6.336  0.9608  0.0278  0.0054
   24CHL1  H11A 2917   3.547   6.516   6.336  1.3470 -0.1085 -2.2496
   24CHL1  H11B 2918   3.408   6.419   6.395  0.1285  1.7145 -1.4032
   24CHL1    C9 2919   3.594   6.312   6.414 -0.3889 -0.2402 -0.0803
   24CHL1    H9 2920   3.529   6.222   6.427 -2.6189  0.9295 -2.3844
   24CHL1   C10 2921   3.624   6.355   6.562 -0.3397 -0.2095 -0.0136
   24CHL1   C19 2922   3.688   6.491   6.567 -0.2195 -0.5954  0.4282
   24CHL1  H19A 2923   3.778   6.497   6.503  0.8303 -0.4263  1.8818
   24CHL1  H19B 2924   3.618   6.574   6.543 -0.4381 -0.8431  0.2092
   24CHL1  H19C 2925   3.723   6.521   6.668  2.1087 -0.6818 -0.3070
   24CHL1    C1 2926   3.496   6.357   6.648 -0.4331  0.2890 -0.6033
   24CHL1   H1A 2927   3.446   6.447   6.606 -1.4896 -0.5795 -1.2610
   24CHL1   H1B 2928   3.426   6.273   6.632 -0.2996 -0.1649  1.0158
   24CHL1    C2 2929   3.518   6.383   6.801  0.5615  0.3686  0.0234
   24CHL1   H2A 2930   3.424   6.367   6.858  1.2529 -1.0896  0.8169
   24CHL1   H2B 2931   3.553   6.487   6.823 -3.4692  2.1592 -1.1808
   24CHL1   C20 2932   3.557   6.370   5.846 -0.6814  0.1642  0.2325
   24CHL1   H20 2933   3.640   6.444   5.843  1.0548 -1.4307  3.3688
   24CHL1   C21 2934   3.429   6.448   5.870 -0.7871  0.5075 -0.3618
   24CHL1  H21A 2935   3.350   6.381   5.912 -1.4951  0.1650 -2.1259
   24CHL1  H21B 2936   3.386   6.489   5.776  0.0415  1.0498 -0.5153
   24CHL1  H21C 2937   3.441   6.523   5.951  0.4879 -0.1827  0.1230
   24CHL1   C22 2938   3.550   6.296   5.710 -0.6665 -0.3345  0.1814
   24CHL1  H22A 2939   3.633   6.223   5.705  0.8312  1.3763 -1.5949
   24CHL1  H22B 2940   3.452   6.243   5.703 -0.1646 -1.8716  3.1710
   24CHL1   C23 2941   3.554   6.383   5.590  0.5448  0.5067  0.2091
   24CHL1  H23A 2942   3.488   6.470   5.611 -1.2411 -0.8811  0.4597
   24CHL1  H23B 2943   3.656   6.424   5.574 -0.1807  1.8986 -1.1347
   24CHL1   C24 2944   3.508   6.319   5.463 -0.1013  0.1860  0.1303
   24CHL1  H24A 2945   3.600   6.267   5.429 -0.1926 -0.8130  1.3081
   24CHL1  H24B 2946   3.439   6.233   5.478 -1.4261  0.7840 -2.0571
   24CHL1   C25 2947   3.452   6.412   5.355 -0.1189  0.1513 -0.0907
   24CHL1   H25 2948   3.352   6.451   5.385 -0.5311 -1.7273  1.2183
   24CHL1   C26 2949   3.553   6.524   5.320  0.1643 -0.0434  0.2122
   24CHL1  H26A 2950   3.644   6.480   5.274 -0.2803  0.6739 -1.4249
   24CHL1  H26B 2951   3.508   6.595   5.248  0.5413  0.5602  0.5665
   24CHL1  H26C 2952   3.580   6.582   5.411  0.4037 -0.0623  0.1522
   24CHL1   C27 2953   3.417   6.329   5.239  0.1320 -0.2994  0.9515
   24CHL1  H27A 2954   3.501   6.271   5.195  0.2802 -0.0806  0.9439
   24CHL1  H27B 2955   3.346   6.246   5.258  0.8471 -1.7582 -2.0373
   24CHL1  H27C 2956   3.375   6.396   5.161  1.9427  0.9437  0.9757
   25CHL1    C3 2957   6.185   1.083   6.570 -0.2578 -0.1402  0.2088
   25CHL1    H3 2958   6.253   0.997   6.554 -2.2926 -1.3512 -2.9552
   25CHL1    O3 2959   6.173   1.107   6.707  0.7790  0.2470 -0.0843
   25CHL1   H3' 2960   6.114   1.182   6.711  0.8206  0.3501 -1.0169
   25CHL1    C4 2961   6.240   1.209   6.505 -0.2843 -0.0522  0.8623
   25CHL1   H4A 2962   6.175   1.288   6.548 -0.9715 -0.4848  0.6260
   25CHL1   H4B 2963   6.342   1.234   6.542 -0.1249 -0.3003  0.5997
   25CHL1    C5 2964   6.239   1.214   6.349  0.1972 -0.1249 -0.2958
   25CHL1    C6 2965   6.348   1.229   6.277 -0.7279  0.2762 -0.1809
   25CHL1    H6 2966   6.440   1.255   6.331 -0.8811  1.1159 -0.3134
   25CHL1    C7 2967   6.352   1.232   6.127  0.0249  0.3841  0.6102
   25CHL1   H7A 2968   6.416   1.318   6.097  0.0781  0.2627  0.3753
   25CHL1   H7B 2969   6.395   1.134   6.097 -2.6794 -0.5723 -0.3840
   25CHL1    C8 2970   6.217   1.235   6.056  0.7365 -0.4794 -0.0915
   25CHL1    H8 2971   6.175   1.337   6.053 -1.3252 -1.1223  3.0293
   25CHL1   C14 2972   6.224   1.179   5.914 -0.1200  1.2291  0.3932
   25CHL1   H14 2973   6.259   1.075   5.926  2.3608  1.9442  0.0260
   25CHL1   C15 2974   6.317   1.241   5.810 -0.0293  0.2312  0.3325
   25CHL1  H15A 2975   6.302   1.352   5.810  1.7249  0.5135  1.7269
   25CHL1  H15B 2976   6.426   1.223   5.811 -0.1215 -0.3701 -0.3699
   25CHL1   C16 2977   6.275   1.173   5.681  0.4607 -0.4684  0.9128
   25CHL1  H16A 2978   6.282   1.250   5.601  0.1475 -0.9305  0.4311
   25CHL1  H16B 2979   6.339   1.089   5.649  0.5199 -0.2604  0.4802
   25CHL1   C17 2980   6.121   1.126   5.700 -0.5506  0.2858  0.6061
   25CHL1   H17 2981   6.140   1.017   5.713  1.6646  0.6488  0.8522
   25CHL1   C13 2982   6.084   1.168   5.846 -0.0371  0.3511 -0.2693
   25CHL1   C18 2983   6.019   1.308   5.827 -0.2884  0.0279 -0.2895
   25CHL1  H18A 2984   6.000   1.352   5.928 -1.3285 -1.9132  0.4167
   25CHL1  H18B 2985   6.092   1.372   5.773  1.5179 -1.2974  0.4771
   25CHL1  H18C 2986   5.928   1.306   5.763 -0.2112 -2.4147 -0.4209
   25CHL1   C12 2987   5.984   1.078   5.919 -0.5760 -0.5001 -0.3384
   25CHL1  H12A 2988   5.887   1.070   5.867 -1.1899  0.4844  0.6197
   25CHL1  H12B 2989   6.035   0.979   5.921 -0.4921 -0.4474  0.3251
   25CHL1   C11 2990   5.974   1.133   6.057 -0.1125  0.0904 -0.5590
   25CHL1  H11A 2991   5.919   1.230   6.064 -1.1590 -0.5501  0.2728
   25CHL1  H11B 2992   5.906   1.061   6.105  0.5968 -1.2921 -1.5728
   25CHL1    C9 2993   6.109   1.144   6.134 -0.7134  0.0435 -0.1328
   25CHL1    H9 2994   6.161   1.047   6.129  2.7307  1.6915  0.5678
   25CHL1   C10 2995   6.103   1.177   6.291 -0.5289  0.5913  0.3995
   25CHL1   C19 2996   6.003   1.287   6.309 -0.4675  0.0038 -0.5659
   25CHL1  H19A 2997   5.901   1.241   6.312 -0.2424 -0.4280  1.1642
   25CHL1  H19B 2998   6.015   1.340   6.406  1.5562 -0.5682 -0.4746
   25CHL1  H19C 2999   5.999   1.364   6.228 -1.2069 -1.0928 -1.6146
   25CHL1    C1 3000   6.054   1.040   6.351 -0.1629 -0.5041  0.5282
   25CHL1   H1A 3001   5.954   1.012   6.312 -1.1384  2.7431  0.3636
   25CHL1   H1B 3002   6.126   0.961   6.322 -0.3239 -0.3991 -0.1771
   25CHL1    C2 3003   6.052   1.041   6.506  0.7701  0.1550 -0.3596
   25CHL1   H2A 3004   6.023   0.941   6.545  0.4625 -0.3247 -1.7576
   25CHL1   H2B 3005   5.980   1.119   6.540  0.1062  0.2419 -1.8839
   25CHL1   C20 3006   6.035   1.131   5.573 -0.1510  1.4069  0.1543
   25CHL1   H20 3007   5.932   1.100   5.602  0.1249  0.4363  0.1561
   25CHL1   C21 3008   6.097   1.011   5.488  0.3054 -0.5927  0.3272
   25CHL1  H21A 3009   6.092   0.910   5.535 -4.1430 -0.0830  1.4213
   25CHL1  H21B 3010   6.199   1.041   5.456 -1.0577  1.5426 -2.4938
   25CHL1  H21C 3011   6.049   1.002   5.389  0.9005 -1.6091  0.1205
   25CHL1   C22 3012   6.040   1.260   5.496 -0.3825  0.3343  0.8873
   25CHL1  H22A 3013   6.040   1.354   5.555  1.5221  2.4259 -2.1281
   25CHL1  H22B 3014   6.135   1.270   5.438 -1.0049 -0.4818 -0.3194
   25CHL1   C23 3015   5.921   1.276   5.398 -0.2950 -0.8395 -0.5410
   25CHL1  H23A 3016   5.932   1.199   5.318  0.9430 -3.2446  1.7716
   25CHL1  H23B 3017   5.826   1.267   5.454 -0.9399  1.1606 -1.2385
   25CHL1   C24 3018   5.922   1.416   5.336  0.3191 -0.4073 -0.5134
   25CHL1  H24A 3019   5.926   1.493   5.416  1.1704  0.0071 -0.9439
   25CHL1  H24B 3020   6.015   1.423   5.275 -0.9892 -1.8229 -2.8214
   25CHL1   C25 3021   5.796   1.471   5.261 -0.0620 -0.1101  0.3004
   25CHL1   H25 3022   5.807   1.578   5.234 -0.0036 -0.1409  0.1993
   25CHL1   C26 3023   5.763   1.396   5.131  0.4980  0.7090 -0.4885
   25CHL1  H26A 3024   5.838   1.414   5.052  0.2972  0.7929 -0.6625
   25CHL1  H26B 3025   5.759   1.285   5.131 -0.4711  0.6833 -2.7940
   25CHL1  H26C 3026   5.663   1.416   5.088  0.6155 -1.2851 -1.7871
   25CHL1   C27 3027   5.675   1.456   5.349  0.4599  0.0069  0.4112
   25CHL1  H27A 3028   5.582   1.506   5.314  0.1548 -0.0376  1.1526
   25CHL1  H27B 3029   5.653   1.348   5.362 -1.5865  0.3565  0.3063
   25CHL1  H27C 3030   5.693   1.497   5.451  2.1477  2.3761 -0.7359
   26CHL1    C3 3031   4.017   4.468   6.734 -0.4028  0.2937  0.3179
   26CHL1    H3 3032   3.911   4.498   6.720 -1.2437 -1.2207  2.7299
   26CHL1    O3 3033   4.051   4.458   6.870 -0.2921  0.0136 -0.2694
   26CHL1   H3' 3034   4.056   4.553   6.888  0.7692  0.0605 -0.6985
   26CHL1    C4 3035   4.026   4.327   6.672  0.1245  0.2841  0.5353
   26CHL1   H4A 3036   4.125   4.283   6.696  1.5469  2.8946 -0.2360
   26CHL1   H4B 3037   3.943   4.268   6.717  0.3841 -1.4577 -1.1479
   26CHL1    C5 3038   4.010   4.328   6.520 -0.0220  0.0676  0.3493
   26CHL1    C6 3039   3.913   4.251   6.471 -0.4455 -0.5088  0.0814
   26CHL1    H6 3040   3.864   4.178   6.537 -0.2867 -0.7441 -0.0584
   26CHL1    C7 3041   3.888   4.245   6.319 -0.5188 -0.5406  0.1889
   26CHL1   H7A 3042   3.887   4.140   6.283  0.1305 -0.2115 -0.8480
   26CHL1   H7B 3043   3.800   4.303   6.282 -0.1640  0.8533  1.4209
   26CHL1    C8 3044   4.011   4.301   6.235  0.0555 -0.4731 -0.0884
   26CHL1    H8 3045   4.094   4.228   6.245  2.0059  1.4698 -1.3124
   26CHL1   C14 3046   3.978   4.310   6.085  0.1944 -0.7526 -0.3562
   26CHL1   H14 3047   3.895   4.383   6.072  0.5840 -0.4579 -1.2012
   26CHL1   C15 3048   3.947   4.178   6.019  0.5393  0.1770 -0.1388
   26CHL1  H15A 3049   4.028   4.104   6.035 -0.9719 -1.7640 -1.0422
   26CHL1  H15B 3050   3.853   4.122   6.034  2.3012 -2.9080  0.3020
   26CHL1   C16 3051   3.946   4.221   5.871 -0.0058  0.5922  0.0020
   26CHL1  H16A 3052   4.019   4.151   5.823 -0.7667 -0.2946  0.1143
   26CHL1  H16B 3053   3.845   4.206   5.829  0.6591  0.2205 -1.5560
   26CHL1   C17 3054   4.008   4.363   5.863 -0.2364 -0.9105 -0.6693
   26CHL1   H17 3055   3.932   4.444   5.866  2.2484  1.6524 -1.6190
   26CHL1   C13 3056   4.086   4.380   5.998  0.1858 -0.1174  0.1657
   26CHL1   C18 3057   4.217   4.313   5.995 -0.4426 -0.2946  0.7467
   26CHL1  H18A 3058   4.267   4.309   6.094  1.8887  0.3016 -0.3524
   26CHL1  H18B 3059   4.201   4.216   5.945 -3.0905  0.3894  0.1028
   26CHL1  H18C 3060   4.269   4.384   5.927 -2.2530  1.3232  0.9542
   26CHL1   C12 3061   4.102   4.524   6.052  0.7274 -0.7538 -0.4240
   26CHL1  H12A 3062   4.172   4.585   5.992  0.1436  1.0321  0.6282
   26CHL1  H12B 3063   4.011   4.588   6.046  2.7831  2.5178  0.2441
   26CHL1   C11 3064   4.144   4.527   6.204  0.8518 -0.6434  0.3512
   26CHL1  H11A 3065   4.254   4.510   6.210  0.8994 -0.9244 -0.9593
   26CHL1  H11B 3066   4.123   4.631   6.236  0.2980 -0.5821 -0.1876
   26CHL1    C9 3067   4.051   4.435   6.292 -0.0823 -0.3321 -0.1367
   26CHL1    H9 3068   3.962   4.497   6.313  2.9822  4.3523  0.4791
   26CHL1   C10 3069   4.096   4.428   6.443  0.4189  0.2102  0.1135
   26CHL1   C19 3070   4.235   4.374   6.456  0.8164 -0.2017  0.5413
   26CHL1  H19A 3071   4.269   4.355   6.560 -1.2170 -2.1482  0.9199
   26CHL1  H19B 3072   4.244   4.279   6.399  0.4709  0.7946 -1.2529
   26CHL1  H19C 3073   4.313   4.436   6.405 -1.1167  2.0278  0.1236
   26CHL1    C1 3074   4.096   4.572   6.510 -0.4078  0.2227  0.5964
   26CHL1   H1A 3075   4.173   4.630   6.456 -0.3336  0.6525  1.1643
   26CHL1   H1B 3076   3.999   4.619   6.482  0.2738  0.4799 -1.5127
   26CHL1    C2 3077   4.114   4.562   6.662  0.4145 -0.5158  0.9500
   26CHL1   H2A 3078   4.108   4.670   6.690  0.7685  0.3132 -1.8125
   26CHL1   H2B 3079   4.217   4.527   6.685  0.1359 -1.1392  1.2730
   26CHL1   C20 3080   4.077   4.386   5.725 -0.2733 -0.3181  0.1613
   26CHL1   H20 3081   4.150   4.304   5.714 -1.3192 -1.4483  1.2427
   26CHL1   C21 3082   4.137   4.523   5.725 -0.4664 -0.2599  0.2651
   26CHL1  H21A 3083   4.222   4.539   5.796 -1.4900 -3.2772  2.3858
   26CHL1  H21B 3084   4.052   4.592   5.743 -0.6989 -0.5642  0.3407
   26CHL1  H21C 3085   4.187   4.543   5.628 -0.7542  0.8739  0.3354
   26CHL1   C22 3086   3.976   4.366   5.611 -0.4698  0.2816 -0.3237
   26CHL1  H22A 3087   3.932   4.266   5.628  0.9653 -0.2295  0.6137
   26CHL1  H22B 3088   3.899   4.445   5.624 -1.0361 -0.5923  2.0567
   26CHL1   C23 3089   4.046   4.363   5.472 -0.2055  0.1323  0.3252
   26CHL1  H23A 3090   4.082   4.467   5.455  2.2465 -0.3552  1.9488
   26CHL1  H23B 3091   4.141   4.306   5.468 -0.5025 -0.3258 -1.9464
   26CHL1   C24 3092   3.949   4.319   5.366  0.7420  0.4377 -0.0241
   26CHL1  H24A 3093   3.929   4.212   5.391  1.0115  0.6754  1.2772
   26CHL1  H24B 3094   3.860   4.382   5.387  0.8613  1.0633 -1.3023
   26CHL1   C25 3095   3.993   4.340   5.220  0.2450  0.1902  0.4733
   26CHL1   H25 3096   4.004   4.450   5.212  1.9562 -0.0236 -0.6512
   26CHL1   C26 3097   4.127   4.275   5.182  0.4966  0.4528 -0.7822
   26CHL1  H26A 3098   4.214   4.309   5.241  1.1560 -1.4704 -0.5900
   26CHL1  H26B 3099   4.118   4.168   5.209 -0.8888  0.8717  0.5314
   26CHL1  H26C 3100   4.152   4.274   5.073  2.0298 -1.8597 -0.4793
   26CHL1   C27 3101   3.883   4.283   5.125 -0.1869 -0.5026  0.0544
   26CHL1  H27A 3102   3.803   4.360   5.123  1.7387  1.6050 -2.3440
   26CHL1  H27B 3103   3.919   4.261   5.022 -2.3663  0.9205 -1.0691
   26CHL1  H27C 3104   3.847   4.186   5.164 -0.3662 -0.3309  0.3166
   27CHL1    C3 3105   1.532   6.212   6.729  0.4230 -0.1599  0.0718
   27CHL1    H3 3106   1.455   6.264   6.668 -2.0125 -1.4436  1.8622
   27CHL1    O3 3107   1.503   6.243   6.862 -0.2734 -0.6202 -0.2296
   27CHL1   H3' 3108   1.581   6.208   6.906  1.2605  0.9420 -1.5735
   27CHL1    C4 3109   1.527   6.065   6.706 -0.3438  0.4390 -0.2824
   27CHL1   H4A 3110   1.605   6.017   6.769 -1.4891 -0.8671  0.1983
   27CHL1   H4B 3111   1.431   6.020   6.740  1.1438 -2.9574 -0.1868
   27CHL1    C5 3112   1.558   6.030   6.563 -0.2078  0.0596 -0.8360
   27CHL1    C6 3113   1.481   5.942   6.490 -0.2889  0.0955  0.6685
   27CHL1    H6 3114   1.393   5.898   6.539  0.5287 -2.8781 -0.3130
   27CHL1    C7 3115   1.508   5.888   6.349  0.1431 -0.0212  0.2390
   27CHL1   H7A 3116   1.495   5.778   6.363 -2.4324  0.1749 -0.0809
   27CHL1   H7B 3117   1.428   5.919   6.279 -0.4734  1.1061  1.4083
   27CHL1    C8 3118   1.655   5.931   6.303 -0.4974 -0.5861 -0.1823
   27CHL1    H8 3119   1.727   5.856   6.342 -1.7310 -1.1059  1.1381
   27CHL1   C14 3120   1.654   5.931   6.154 -0.6556  0.0570  0.3858
   27CHL1   H14 3121   1.580   6.007   6.121 -0.1076 -0.5434 -2.5152
   27CHL1   C15 3122   1.621   5.802   6.081 -0.6852 -0.2498 -0.3843
   27CHL1  H15A 3123   1.698   5.727   6.108 -0.0914  0.4953  0.0250
   27CHL1  H15B 3124   1.515   5.773   6.100 -1.1903  1.5206 -0.2206
   27CHL1   C16 3125   1.646   5.827   5.933 -0.3559  0.0954 -0.2547
   27CHL1  H16A 3126   1.696   5.738   5.890 -0.3254  0.0468 -0.1181
   27CHL1  H16B 3127   1.557   5.848   5.869 -0.5770 -0.2627 -0.0674
   27CHL1   C17 3128   1.736   5.957   5.929  0.1034 -0.3564  0.0263
   27CHL1   H17 3129   1.670   6.045   5.909 -0.1974 -0.6189 -0.1444
   27CHL1   C13 3130   1.778   5.986   6.080 -0.1537  0.8643 -0.0606
   27CHL1   C18 3131   1.902   5.894   6.125  0.6385 -0.1970 -0.0936
   27CHL1  H18A 3132   1.999   5.946   6.109  1.2397 -0.4039  2.4112
   27CHL1  H18B 3133   1.899   5.861   6.231 -0.5996  0.1151 -0.0229
   27CHL1  H18C 3134   1.900   5.804   6.060  0.5353 -1.4654  1.6021
   27CHL1   C12 3135   1.810   6.125   6.132  0.0968 -0.1275 -0.5190
   27CHL1  H12A 3136   1.902   6.165   6.084 -0.5868  2.8281  0.4443
   27CHL1  H12B 3137   1.723   6.190   6.112  0.6045  0.5339 -0.6151
   27CHL1   C11 3138   1.816   6.137   6.285 -0.4392  0.1709  0.5056
   27CHL1  H11A 3139   1.904   6.091   6.334 -1.8208 -1.4131  1.6500
   27CHL1  H11B 3140   1.818   6.244   6.313 -1.8471  0.7026 -1.2303
   27CHL1    C9 3141   1.693   6.075   6.353  0.0654  0.5503 -0.4104
   27CHL1    H9 3142   1.608   6.138   6.317  0.4004  0.5594 -1.2153
   27CHL1   C10 3143   1.692   6.095   6.507  0.1313  0.1125 -0.3117
   27CHL1   C19 3144   1.814   6.018   6.574 -0.2428  0.7373 -0.4421
   27CHL1  H19A 3145   1.812   6.027   6.685 -0.5314  3.1473 -0.5963
   27CHL1  H19B 3146   1.799   5.911   6.546 -2.4523  0.5843  1.0373
   27CHL1  H19C 3147   1.903   6.072   6.535  0.1383  2.1160  2.1286
   27CHL1    C1 3148   1.696   6.247   6.543  0.3653  0.6238  0.5829
   27CHL1   H1A 3149   1.799   6.283   6.522  1.3447 -1.6661  1.1568
   27CHL1   H1B 3150   1.635   6.300   6.467  0.4977  0.8678  0.6447
   27CHL1    C2 3151   1.662   6.281   6.691  0.2158 -0.5035 -0.0291
   27CHL1   H2A 3152   1.659   6.391   6.708  0.1736  0.1589 -3.6559
   27CHL1   H2B 3153   1.739   6.245   6.763  0.9818  1.6278  0.2798
   27CHL1   C20 3154   1.851   5.957   5.830 -0.0871  0.2600 -0.2029
   27CHL1   H20 3155   1.915   5.871   5.858  0.8321  1.1103  0.3570
   27CHL1   C21 3156   1.928   6.089   5.835 -0.2800  0.9446 -0.5247
   27CHL1  H21A 3157   1.871   6.184   5.823  1.1512  2.3226  2.6582
   27CHL1  H21B 3158   1.997   6.091   5.748 -2.2863 -0.8043 -2.2941
   27CHL1  H21C 3159   2.004   6.089   5.915 -0.1533 -1.0769 -0.5895
   27CHL1   C22 3160   1.795   5.922   5.690  0.0565  0.3515  0.4343
   27CHL1  H22A 3161   1.743   5.824   5.695  0.1299  0.1751 -1.4465
   27CHL1  H22B 3162   1.730   6.004   5.653  0.3127 -0.1365 -1.1731
   27CHL1   C23 3163   1.906   5.899   5.582 -0.4951 -0.2597 -0.5076
   27CHL1  H23A 3164   1.939   6.002   5.560  1.0358 -0.0844  2.1540
   27CHL1  H23B 3165   1.992   5.853   5.635 -1.0423  0.8644  1.4460
   27CHL1   C24 3166   1.860   5.810   5.465  0.7634 -0.1508  0.1641
   27CHL1  H24A 3167   1.823   5.713   5.506 -1.1483  0.0822 -0.8786
   27CHL1  H24B 3168   1.772   5.848   5.408 -1.3410 -1.3263  2.4197
   27CHL1   C25 3169   1.984   5.775   5.379 -0.4654  0.5544 -0.4000
   27CHL1   H25 3170   2.066   5.760   5.452 -2.3084  1.4201  1.9795
   27CHL1   C26 3171   1.968   5.644   5.305 -0.2301  0.3079 -0.0754
   27CHL1  H26A 3172   1.871   5.641   5.250 -0.8925  1.7853  0.9493
   27CHL1  H26B 3173   2.049   5.634   5.230  0.8519  0.8704  0.9745
   27CHL1  H26C 3174   1.980   5.561   5.378 -0.4947  1.2198  1.0222
   27CHL1   C27 3175   2.024   5.882   5.281  0.1018 -0.8880 -0.1209
   27CHL1  H27A 3176   2.028   5.987   5.316  0.3867  0.4776 -3.8128
   27CHL1  H27B 3177   1.971   5.882   5.184  1.6586 -0.4226 -1.0106
   27CHL1  H27C 3178   2.127   5.882   5.240 -0.2444  4.4249 -1.6512
   28CHL1    C3 3179   6.627   0.210   6.500 -0.6517 -0.1994  0.2740
   28CHL1    H3 3180   6.709   0.145   6.462 -0.1299  0.0693  0.9070
   28CHL1    O3 3181   6.658   0.240   6.640 -0.0237  0.4341 -0.3979
   28CHL1   H3' 3182   6.616   0.325   6.656 -1.1071 -0.5631  2.8203
   28CHL1    C4 3183   6.618   0.336   6.422  0.3518 -0.0081 -0.4298
   28CHL1   H4A 3184   6.533   0.399   6.455  1.0700 -0.1503  1.8552
   28CHL1   H4B 3185   6.715   0.387   6.439  0.0208  0.1463  1.1183
   28CHL1    C5 3186   6.596   0.303   6.275 -0.1224  0.5338 -0.4949
   28CHL1    C6 3187   6.682   0.337   6.180  0.2924  0.1192  0.1355
   28CHL1    H6 3188   6.777   0.379   6.216  0.5371 -2.1952  2.4167
   28CHL1    C7 3189   6.657   0.310   6.028  0.1984 -0.0566 -0.0144
   28CHL1   H7A 3190   6.650   0.399   5.963  0.8019  0.7109  0.9410
   28CHL1   H7B 3191   6.737   0.249   5.982  1.9463  0.1567  2.5159
   28CHL1    C8 3192   6.502   0.266   6.004 -0.2050 -0.5266 -1.2479
   28CHL1    H8 3193   6.443   0.357   6.026  0.7763 -0.2833  0.6068
   28CHL1   C14 3194   6.489   0.213   5.860  1.0493  0.6059 -0.6609
   28CHL1   H14 3195   6.542   0.115   5.864 -0.1378 -0.0273  0.9014
   28CHL1   C15 3196   6.558   0.274   5.742 -0.8426 -0.0181  0.1497
   28CHL1  H15A 3197   6.541   0.383   5.740 -1.2559 -0.0396 -3.0883
   28CHL1  H15B 3198   6.667   0.255   5.755 -0.9557  0.1437  1.4879
   28CHL1   C16 3199   6.493   0.211   5.619 -0.0341  0.1237  0.6467
   28CHL1  H16A 3200   6.472   0.288   5.542  1.1026 -0.3201 -0.1292
   28CHL1  H16B 3201   6.570   0.155   5.562 -0.6037 -1.7258  1.6155
   28CHL1   C17 3202   6.377   0.129   5.671  0.2451 -0.0671  0.0385
   28CHL1   H17 3203   6.417   0.028   5.692 -1.3532 -0.6696  0.3069
   28CHL1   C13 3204   6.347   0.168   5.825 -0.4647 -0.6252 -0.5004
   28CHL1   C18 3205   6.261   0.297   5.831  0.1503  0.1179  1.6507
   28CHL1  H18A 3206   6.259   0.346   5.930 -3.2278  0.9973  1.2749
   28CHL1  H18B 3207   6.297   0.373   5.758  0.0958 -0.7327  0.7202
   28CHL1  H18C 3208   6.155   0.267   5.816  0.0680  1.0302  0.1232
   28CHL1   C12 3209   6.299   0.066   5.933  0.2627  0.3483  0.2138
   28CHL1  H12A 3210   6.192   0.036   5.930  0.4888 -0.6611  1.4944
   28CHL1  H12B 3211   6.357  -0.029   5.933  4.5794  2.6871  2.2985
   28CHL1   C11 3212   6.306   0.120   6.075 -0.1689  0.0225 -0.0645
   28CHL1  H11A 3213   6.220   0.190   6.086 -1.4750 -0.4582 -4.8317
   28CHL1  H11B 3214   6.288   0.031   6.140 -0.3540  0.3045  0.2777
   28CHL1    C9 3215   6.449   0.169   6.110 -0.3488  0.0911  0.6618
   28CHL1    H9 3216   6.510   0.077   6.096 -1.4612 -0.6212  0.3991
   28CHL1   C10 3217   6.466   0.216   6.256  0.1132 -0.1819  0.0287
   28CHL1   C19 3218   6.350   0.308   6.291  0.6899  1.1313  0.1273
   28CHL1  H19A 3219   6.338   0.393   6.220 -0.7186 -0.3953 -1.5523
   28CHL1  H19B 3220   6.259   0.246   6.277  1.8223  0.0354 -3.6339
   28CHL1  H19C 3221   6.346   0.336   6.398  0.5456  2.4743 -0.2086
   28CHL1    C1 3222   6.456   0.092   6.349  0.1603  0.5901  0.2891
   28CHL1   H1A 3223   6.353   0.051   6.343 -1.1942  3.6401  0.6364
   28CHL1   H1B 3224   6.524   0.013   6.310 -0.7194 -0.1988  0.3210
   28CHL1    C2 3225   6.494   0.136   6.495  0.2885 -0.4425 -0.2848
   28CHL1   H2A 3226   6.496   0.044   6.558  2.1088 -0.3318 -0.1378
   28CHL1   H2B 3227   6.413   0.202   6.532 -0.2433  0.4943 -2.8929
   28CHL1   C20 3228   6.262   0.118   5.579 -0.0893 -0.5705 -0.1993
   28CHL1   H20 3229   6.217   0.219   5.567 -0.1213 -0.8012 -2.3889
   28CHL1   C21 3230   6.161   0.016   5.636  0.3663 -0.0290  0.1830
   28CHL1  H21A 3231   6.093  -0.014   5.553  2.3043 -1.9405 -0.8146
   28CHL1  H21B 3232   6.090   0.060   5.709  1.9327  1.6542  0.7960
   28CHL1  H21C 3233   6.213  -0.073   5.677  0.3727 -0.1563 -0.1006
   28CHL1   C22 3234   6.313   0.080   5.435 -0.7755 -0.6856 -0.3420
   28CHL1  H22A 3235   6.226   0.066   5.367 -0.1685 -0.8053 -1.1093
   28CHL1  H22B 3236   6.379   0.160   5.394  1.4356 -1.4963  1.4140
   28CHL1   C23 3237   6.398  -0.049   5.405  0.4342  0.3627  0.1327
   28CHL1  H23A 3238   6.467  -0.063   5.491 -0.6116 -0.3569  0.8850
   28CHL1  H23B 3239   6.337  -0.142   5.414  0.1111  0.3923 -1.5186
   28CHL1   C24 3240   6.463  -0.052   5.271 -0.8788  0.2604  0.2187
   28CHL1  H24A 3241   6.392  -0.058   5.185  0.2915  0.7135 -0.8091
   28CHL1  H24B 3242   6.525   0.040   5.264 -1.3276  0.5029 -0.8101
   28CHL1   C25 3243   6.555  -0.179   5.251  0.6456 -0.3097 -0.0163
   28CHL1   H25 3244   6.624  -0.177   5.339 -2.1384 -1.0198  2.3567
   28CHL1   C26 3245   6.468  -0.309   5.245  0.4627 -0.2689  0.6147
   28CHL1  H26A 3246   6.426  -0.320   5.348  0.4623  1.6023  0.8526
   28CHL1  H26B 3247   6.383  -0.297   5.174  1.4439  2.2844 -0.2479
   28CHL1  H26C 3248   6.523  -0.395   5.202 -2.0986 -1.0496 -1.3322
   28CHL1   C27 3249   6.623  -0.159   5.115  0.2479  0.0740  0.1672
   28CHL1  H27A 3250   6.541  -0.153   5.041  0.2564 -2.5403 -0.1768
   28CHL1  H27B 3251   6.695  -0.075   5.124  0.5088 -0.2639  1.4541
   28CHL1  H27C 3252   6.689  -0.242   5.081 -0.9845 -0.4876 -0.9440
   29CHL1    C3 3253   2.887   0.060   6.628  0.1841 -1.1511 -0.4836
   29CHL1    H3 3254   2.993   0.035   6.603  0.6040 -2.7237  2.3947
   29CHL1    O3 3255   2.859   0.065   6.771 -0.0480 -0.3566  0.2169
   29CHL1   H3' 3256   2.849  -0.021   6.813 -1.4622 -0.4544 -0.2691
   29CHL1    C4 3257   2.864   0.208   6.569  0.9372  0.2589  0.0250
   29CHL1   H4A 3258   2.759   0.227   6.599  0.6322 -2.4861  1.0157
   29CHL1   H4B 3259   2.916   0.285   6.630 -3.3565  2.0850  1.7638
   29CHL1    C5 3260   2.892   0.207   6.424  0.2793  0.0023  0.6887
   29CHL1    C6 3261   2.983   0.296   6.370  0.8376  0.3926  0.4932
   29CHL1    H6 3262   3.038   0.360   6.440  0.7286 -0.3967  1.3283
   29CHL1    C7 3263   3.002   0.309   6.219  0.1800 -0.2580 -0.5215
   29CHL1   H7A 3264   3.005   0.414   6.184 -0.2219 -0.1243 -0.1639
   29CHL1   H7B 3265   3.096   0.252   6.202  0.1701 -0.5306  0.2735
   29CHL1    C8 3266   2.905   0.227   6.138 -0.2455 -0.8223  0.1366
   29CHL1    H8 3267   2.812   0.288   6.138 -0.6000 -1.3600 -0.0272
   29CHL1   C14 3268   2.949   0.207   5.997  0.2381  0.0521  0.1671
   29CHL1   H14 3269   3.037   0.140   6.001 -0.2836 -0.6805 -0.3410
   29CHL1   C15 3270   2.986   0.330   5.913 -0.4997 -0.2542 -0.5288
   29CHL1  H15A 3271   2.915   0.411   5.939 -2.3723 -1.2743 -2.1225
   29CHL1  H15B 3272   3.084   0.368   5.946 -0.8187 -1.1546  1.6523
   29CHL1   C16 3273   2.969   0.285   5.771 -0.1120 -0.5825  0.4007
   29CHL1  H16A 3274   2.898   0.359   5.728  1.4693  0.7836  0.0412
   29CHL1  H16B 3275   3.056   0.300   5.704 -3.2601  1.1243 -3.7520
   29CHL1   C17 3276   2.910   0.146   5.764 -0.6363  0.2271 -0.1992
   29CHL1   H17 3277   2.990   0.068   5.771  0.0630  1.0346  1.3129
   29CHL1   C13 3278   2.848   0.127   5.908 -0.4405  0.0248 -0.8583
   29CHL1   C18 3279   2.720   0.207   5.909  0.1151 -0.0001  0.3667
   29CHL1  H18A 3280   2.736   0.304   5.857  2.2921  0.3754  1.6099
   29CHL1  H18B 3281   2.652   0.155   5.838 -0.3823  2.6645 -1.2328
   29CHL1  H18C 3282   2.670   0.224   6.007  0.3906 -0.8492  0.6687
   29CHL1   C12 3283   2.843  -0.018   5.964 -0.0805 -0.2096 -0.7790
   29CHL1  H12A 3284   2.774  -0.083   5.906  0.5945 -1.3694 -0.3226
   29CHL1  H12B 3285   2.945  -0.059   5.951 -0.8048 -1.8946 -1.5739
   29CHL1   C11 3286   2.791  -0.001   6.108 -0.8405  0.0824 -0.6677
   29CHL1  H11A 3287   2.684   0.024   6.094  0.0356  2.7168 -3.6642
   29CHL1  H11B 3288   2.776  -0.100   6.158 -0.1244 -0.4228 -1.4267
   29CHL1    C9 3289   2.872   0.089   6.203  0.4447  0.5003  0.6053
   29CHL1    H9 3290   2.974   0.045   6.215  0.3901  0.7614  2.2578
   29CHL1   C10 3291   2.821   0.093   6.346 -0.1312 -0.3537 -0.3296
   29CHL1   C19 3292   2.673   0.124   6.341  0.5966 -0.1765  0.7480
   29CHL1  H19A 3293   2.654   0.215   6.280  0.5365  0.3881  1.5961
   29CHL1  H19B 3294   2.619   0.045   6.284  0.0448  1.6303 -1.4346
   29CHL1  H19C 3295   2.621   0.130   6.439  0.6200  0.1890  0.7395
   29CHL1    C1 3296   2.846  -0.045   6.412 -0.4423  0.0844  0.5292
   29CHL1   H1A 3297   2.800  -0.132   6.360  1.1625 -0.5365  0.1103
   29CHL1   H1B 3298   2.955  -0.060   6.399 -0.8551 -1.0913 -2.3626
   29CHL1    C2 3299   2.803  -0.048   6.558 -0.6579  0.2662 -0.7507
   29CHL1   H2A 3300   2.818  -0.149   6.603  0.6261  0.9607  0.4467
   29CHL1   H2B 3301   2.694  -0.035   6.575 -0.3902  1.7232 -0.0200
   29CHL1   C20 3302   2.818   0.125   5.644  0.2555 -1.2891  0.3384
   29CHL1   H20 3303   2.740   0.202   5.629  1.1000 -0.4113  0.3732
   29CHL1   C21 3304   2.753  -0.016   5.645 -0.7573 -0.7027 -0.3762
   29CHL1  H21A 3305   2.831  -0.095   5.654  0.2607  0.2943 -0.1049
   29CHL1  H21B 3306   2.685  -0.026   5.558  1.9024 -2.0334 -2.4587
   29CHL1  H21C 3307   2.687  -0.018   5.734 -1.3977 -0.6757 -0.8439
   29CHL1   C22 3308   2.897   0.137   5.513  0.0003 -0.2581  0.2202
   29CHL1  H22A 3309   2.966   0.224   5.509 -0.7268  0.2871 -3.3983
   29CHL1  H22B 3310   2.955   0.044   5.495 -0.8765 -1.1326  1.6696
   29CHL1   C23 3311   2.805   0.162   5.390  0.0041  0.1527  0.5987
   29CHL1  H23A 3312   2.736   0.076   5.373 -0.6827  0.9144 -0.6411
   29CHL1  H23B 3313   2.743   0.252   5.408  0.2136 -0.2292  3.8278
   29CHL1   C24 3314   2.876   0.167   5.259 -0.3285  0.3529 -0.0328
   29CHL1  H24A 3315   2.952   0.248   5.255  0.6846 -0.5161  1.0765
   29CHL1  H24B 3316   2.939   0.076   5.259 -0.7614  0.0397 -0.8908
   29CHL1   C25 3317   2.801   0.151   5.119 -0.1172 -0.0211 -0.1646
   29CHL1   H25 3318   2.741   0.058   5.124  4.2511 -3.2731 -1.6241
   29CHL1   C26 3319   2.709   0.275   5.098 -0.1079  0.5996  0.5289
   29CHL1  H26A 3320   2.765   0.370   5.094  1.6659 -0.3075  2.3165
   29CHL1  H26B 3321   2.652   0.263   5.003  2.8516  0.9115 -1.3997
   29CHL1  H26C 3322   2.636   0.286   5.182 -0.3649  2.9459  0.0737
   29CHL1   C27 3323   2.890   0.128   4.998 -0.1823 -0.2338  0.4860
   29CHL1  H27A 3324   2.952   0.038   5.017  1.0190  0.7976  1.6485
   29CHL1  H27B 3325   2.826   0.099   4.912  1.2342  1.2298 -1.1382
   29CHL1  H27C 3326   2.950   0.218   4.972  0.6601 -0.2125  2.3427
   30CHL1    C3 3327   4.171   6.560   6.997 -0.0174  0.4619  0.0831
   30CHL1    H3 3328   4.207   6.663   7.014 -0.1601  0.7653 -1.3890
   30CHL1    O3 3329   4.129   6.501   7.124 -0.5996  0.8618 -0.3488
   30CHL1   H3' 3330   4.076   6.426   7.097 -1.1164  0.8521  0.6625
   30CHL1    C4 3331   4.054   6.576   6.907  0.9606  0.7379 -0.4620
   30CHL1   H4A 3332   3.998   6.479   6.904  2.1483  0.0603 -1.2575
   30CHL1   H4B 3333   3.979   6.643   6.955 -1.6270 -1.5577 -1.0051
   30CHL1    C5 3334   4.074   6.603   6.759  0.2732 -0.5472  0.0751
   30CHL1    C6 3335   4.020   6.706   6.695 -0.2991 -0.2340  0.6935
   30CHL1    H6 3336   3.945   6.774   6.738 -0.4463 -0.0597  0.1703
   30CHL1    C7 3337   4.038   6.724   6.547  0.1362  0.7216 -0.0100
   30CHL1   H7A 3338   3.935   6.738   6.509  0.0034 -0.9317 -0.3220
   30CHL1   H7B 3339   4.091   6.819   6.523 -1.8485  1.6853 -0.7653
   30CHL1    C8 3340   4.095   6.594   6.474 -1.0237 -0.3360  0.2357
   30CHL1    H8 3341   4.018   6.514   6.468 -1.2079 -0.2172  0.9277
   30CHL1   C14 3342   4.120   6.635   6.329  0.6795 -0.1602 -0.7534
   30CHL1   H14 3343   4.190   6.721   6.333  0.7300 -0.2339  0.0885
   30CHL1   C15 3344   3.995   6.670   6.247 -0.4744 -0.5379 -0.3573
   30CHL1  H15A 3345   3.921   6.592   6.275 -2.2239  1.7555  1.8757
   30CHL1  H15B 3346   3.951   6.766   6.279 -0.0391 -0.3865 -0.2073
   30CHL1   C16 3347   4.052   6.668   6.105  0.3465  0.2435 -0.2068
   30CHL1  H16A 3348   3.976   6.618   6.041  0.1406  0.6059 -0.2431
   30CHL1  H16B 3349   4.073   6.768   6.063  2.1781 -1.3566 -3.5192
   30CHL1   C17 3350   4.198   6.602   6.113  0.7200  0.0602  0.0701
   30CHL1   H17 3351   4.268   6.689   6.116  0.3206  0.4234 -0.7765
   30CHL1   C13 3352   4.195   6.527   6.246  0.8593 -0.0797  0.6375
   30CHL1   C18 3353   4.122   6.394   6.222 -0.3876 -0.0077 -0.0490
   30CHL1  H18A 3354   4.046   6.411   6.143 -0.1429 -1.3780 -0.5910
   30CHL1  H18B 3355   4.195   6.315   6.196 -1.1581  0.2076 -3.1906
   30CHL1  H18C 3356   4.070   6.363   6.315 -1.9421 -0.0909 -0.9085
   30CHL1   C12 3357   4.329   6.506   6.320 -0.8466 -0.0683 -0.0465
   30CHL1  H12A 3358   4.378   6.431   6.255 -1.9941  0.4429 -1.5489
   30CHL1  H12B 3359   4.401   6.591   6.314 -1.0961  0.0633 -1.8814
   30CHL1   C11 3360   4.308   6.452   6.461  0.0475 -0.7123 -0.1369
   30CHL1  H11A 3361   4.258   6.352   6.455 -1.7415  0.1606 -0.3968
   30CHL1  H11B 3362   4.400   6.450   6.523 -0.3198 -0.2396  0.4316
   30CHL1    C9 3363   4.220   6.550   6.547  0.8817  0.3759  0.7051
   30CHL1    H9 3364   4.275   6.646   6.558  0.0648  0.8325  0.8661
   30CHL1   C10 3365   4.181   6.507   6.683 -0.2786 -0.0715  0.2034
   30CHL1   C19 3366   4.114   6.368   6.679  0.1893 -0.0614  1.4065
   30CHL1  H19A 3367   4.080   6.328   6.777  2.7979 -2.2774  1.5152
   30CHL1  H19B 3368   4.026   6.380   6.613  0.6425  0.2883  0.8536
   30CHL1  H19C 3369   4.178   6.288   6.636 -2.4671 -1.5444 -0.0266
   30CHL1    C1 3370   4.309   6.505   6.777  0.1913 -0.1759  0.5389
   30CHL1   H1A 3371   4.386   6.437   6.735  0.5714  0.6455 -0.1271
   30CHL1   H1B 3372   4.353   6.607   6.776  0.4255 -0.2798  0.2622
   30CHL1    C2 3373   4.271   6.469   6.922 -0.5081  0.7878 -0.1833
   30CHL1   H2A 3374   4.359   6.472   6.989 -1.4260 -0.5813  1.1410
   30CHL1   H2B 3375   4.234   6.364   6.929  1.2486  0.1938  1.0118
   30CHL1   C20 3376   4.235   6.528   5.983 -0.3841 -0.2527 -1.1124
   30CHL1   H20 3377   4.169   6.440   5.969  0.1711 -0.7713 -0.5874
   30CHL1   C21 3378   4.379   6.467   5.994 -0.0188  0.0811 -0.9780
   30CHL1  H21A 3379   4.368   6.384   6.067  0.9792 -0.9840 -1.9914
   30CHL1  H21B 3380   4.460   6.539   6.017  1.0005 -1.6052  1.1348
   30CHL1  H21C 3381   4.399   6.416   5.897 -1.2444 -0.9654 -0.7100
   30CHL1   C22 3382   4.230   6.617   5.854 -0.2220  0.2816  0.3779
   30CHL1  H22A 3383   4.293   6.705   5.876  2.0712 -1.3693  0.8632
   30CHL1  H22B 3384   4.294   6.565   5.779 -0.9993 -0.4949  0.2267
   30CHL1   C23 3385   4.093   6.644   5.787 -0.4701  0.8380 -0.0928
   30CHL1  H23A 3386   4.027   6.559   5.816 -0.6072  0.8358 -0.4012
   30CHL1  H23B 3387   4.058   6.727   5.852  2.2117  0.9671  1.3016
   30CHL1   C24 3388   4.117   6.659   5.639 -0.4148 -0.4599  0.9168
   30CHL1  H24A 3389   4.223   6.688   5.621  0.6064 -3.9086  0.7093
   30CHL1  H24B 3390   4.105   6.562   5.585  0.1599  0.2146 -0.4837
   30CHL1   C25 3391   4.020   6.772   5.571 -0.1147  0.3571 -0.1893
   30CHL1   H25 3392   4.032   6.862   5.635 -3.0155  1.8141 -1.4914
   30CHL1   C26 3393   4.078   6.793   5.428  0.4393 -0.6636 -0.1074
   30CHL1  H26A 3394   4.037   6.709   5.368  1.6066 -3.3341  2.5855
   30CHL1  H26B 3395   4.041   6.885   5.378 -1.6891 -0.7309  1.2132
   30CHL1  H26C 3396   4.188   6.792   5.416  0.2833 -1.1914 -1.8752
   30CHL1   C27 3397   3.872   6.729   5.575  0.7895  0.5369  0.0702
   30CHL1  H27A 3398   3.797   6.811   5.580 -0.6317 -0.6797 -0.5490
   30CHL1  H27B 3399   3.851   6.668   5.485  1.4014 -0.9980  0.9270
   30CHL1  H27C 3400   3.864   6.654   5.656 -1.0707  1.3026  0.6576
   31CHL1    C3 3401   1.219   5.649   6.504 -0.0860  0.1930 -0.0590
   31CHL1    H3 3402   1.304   5.719   6.490  0.4045 -0.5649 -0.8836
   31CHL1    O3 3403   1.160   5.645   6.635  0.0261 -0.5385 -0.1942
   31CHL1   H3' 3404   1.095   5.574   6.639  0.6573 -1.0969  0.3664
   31CHL1    C4 3405   1.108   5.681   6.404  0.4634  0.2458 -0.6889
   31CHL1   H4A 3406   1.030   5.602   6.415  0.6814 -0.3068 -2.7073
   31CHL1   H4B 3407   1.069   5.779   6.439  2.3113 -0.4150  3.8052
   31CHL1    C5 3408   1.153   5.676   6.262 -0.0027  0.0926 -0.2253
   31CHL1    C6 3409   1.146   5.778   6.173 -1.1444 -0.0235  0.0577
   31CHL1    H6 3410   1.112   5.876   6.208  2.5532  2.4520 -2.5210
   31CHL1    C7 3411   1.194   5.783   6.029  0.0215  0.3891 -0.0075
   31CHL1   H7A 3412   1.121   5.838   5.965  1.6006  1.5718 -0.8607
   31CHL1   H7B 3413   1.295   5.828   6.018  0.7121 -1.3744 -1.4126
   31CHL1    C8 3414   1.208   5.639   5.976 -0.3344  0.3422  0.4039
   31CHL1    H8 3415   1.108   5.596   5.952  0.1783  0.1105 -1.4519
   31CHL1   C14 3416   1.293   5.640   5.847 -0.2823  0.5742 -0.1670
   31CHL1   H14 3417   1.389   5.678   5.889 -0.4961  0.1291  0.7502
   31CHL1   C15 3418   1.267   5.744   5.740 -0.3847 -0.7884  0.7698
   31CHL1  H15A 3419   1.157   5.747   5.723 -0.0003 -0.9410 -2.4418
   31CHL1  H15B 3420   1.299   5.847   5.766  0.1792 -1.0195  1.0066
   31CHL1   C16 3421   1.347   5.694   5.623  0.5657 -0.1398  0.6592
   31CHL1  H16A 3422   1.288   5.685   5.530  3.7750  1.0594 -1.6872
   31CHL1  H16B 3423   1.437   5.757   5.606 -0.3749  0.8039 -1.1237
   31CHL1   C17 3424   1.406   5.551   5.669 -0.7877 -0.2334  0.5456
   31CHL1   H17 3425   1.507   5.571   5.712  0.1876 -2.7239 -0.3904
   31CHL1   C13 3426   1.319   5.508   5.787  0.1079 -0.1306 -0.6890
   31CHL1   C18 3427   1.185   5.450   5.736 -0.6476  0.3059  0.6628
   31CHL1  H18A 3428   1.215   5.355   5.686 -1.4688 -1.5427  3.4462
   31CHL1  H18B 3429   1.114   5.432   5.819  0.1367 -0.4318  1.1893
   31CHL1  H18C 3430   1.138   5.519   5.663 -0.0402 -0.3857 -0.4082
   31CHL1   C12 3431   1.391   5.412   5.888 -0.4939 -0.0703  0.1488
   31CHL1  H12A 3432   1.407   5.308   5.850  0.7882  0.5459 -1.1044
   31CHL1  H12B 3433   1.493   5.454   5.901  0.0574  0.5136 -4.3945
   31CHL1   C11 3434   1.312   5.411   6.016 -0.5045  0.1267  0.6582
   31CHL1  H11A 3435   1.216   5.361   5.992  0.4852 -0.7743 -1.7143
   31CHL1  H11B 3436   1.360   5.343   6.090 -1.1154  0.3894  1.3111
   31CHL1    C9 3437   1.282   5.549   6.081 -0.4463 -0.5285 -0.2471
   31CHL1    H9 3438   1.380   5.599   6.095 -0.6379 -0.7699  2.4840
   31CHL1   C10 3439   1.227   5.544   6.221  0.2164 -0.1751 -0.1844
   31CHL1   C19 3440   1.114   5.434   6.226  0.0538  0.2540  0.8489
   31CHL1  H19A 3441   1.057   5.428   6.321  2.2669 -0.5686  2.1973
   31CHL1  H19B 3442   1.042   5.443   6.142  1.6849 -0.6995 -0.7260
   31CHL1  H19C 3443   1.167   5.336   6.219  0.2805  0.3826  0.7656
   31CHL1    C1 3444   1.331   5.509   6.326  0.6386  0.0555 -1.1182
   31CHL1   H1A 3445   1.365   5.404   6.314 -0.0742 -0.7118  2.5276
   31CHL1   H1B 3446   1.417   5.580   6.320 -1.2532  2.4661 -1.5126
   31CHL1    C2 3447   1.284   5.514   6.479  0.2525  0.3554  0.8089
   31CHL1   H2A 3448   1.368   5.508   6.552 -0.0505  0.0067  1.1274
   31CHL1   H2B 3449   1.206   5.436   6.490 -0.2049  1.0706  3.2146
   31CHL1   C20 3450   1.437   5.463   5.549  0.3243  0.2177 -0.7505
   31CHL1   H20 3451   1.341   5.428   5.506 -0.1384 -0.8483  1.0467
   31CHL1   C21 3452   1.496   5.328   5.586 -0.5244  0.7423  1.0432
   31CHL1  H21A 3453   1.499   5.267   5.493  1.1694 -0.6550  1.9514
   31CHL1  H21B 3454   1.430   5.268   5.652 -0.1197 -0.2982  0.5203
   31CHL1  H21C 3455   1.601   5.343   5.621 -0.9439  0.3005  2.5680
   31CHL1   C22 3456   1.522   5.532   5.436  0.2502  0.8199  0.4730
   31CHL1  H22A 3457   1.465   5.620   5.400 -2.4083 -0.0873  2.2088
   31CHL1  H22B 3458   1.629   5.556   5.454  1.8824 -2.4509 -3.4002
   31CHL1   C23 3459   1.517   5.439   5.308 -0.2136  0.1214 -0.9401
   31CHL1  H23A 3460   1.579   5.347   5.320  0.4124  0.6378 -0.0782
   31CHL1  H23B 3461   1.415   5.399   5.288 -0.6670 -0.6217  2.3237
   31CHL1   C24 3462   1.563   5.512   5.190 -0.0812  0.2126 -0.3264
   31CHL1  H24A 3463   1.483   5.585   5.168 -0.1512 -0.2202 -1.6202
   31CHL1  H24B 3464   1.665   5.548   5.217  1.1843 -3.8300  0.9402
   31CHL1   C25 3465   1.572   5.427   5.065 -0.1836 -0.6530 -0.3204
   31CHL1   H25 3466   1.473   5.378   5.054 -1.6639  2.3462 -1.7072
   31CHL1   C26 3467   1.585   5.519   4.944 -0.4752  0.2089 -0.1964
   31CHL1  H26A 3468   1.668   5.592   4.960 -0.3537 -0.5416  3.6412
   31CHL1  H26B 3469   1.602   5.452   4.857  0.1698 -2.3781  1.7829
   31CHL1  H26C 3470   1.492   5.579   4.935  0.3670  1.4715 -0.8071
   31CHL1   C27 3471   1.679   5.322   5.063 -0.3134  1.1369 -0.7064
   31CHL1  H27A 3472   1.660   5.251   5.146 -3.5214  2.2322 -0.3558
   31CHL1  H27B 3473   1.685   5.266   4.967 -2.6205  1.2869 -0.9863
   31CHL1  H27C 3474   1.780   5.365   5.081 -0.7476  2.4301 -1.2213
   32CHL1    C3 3475   2.222   5.864   6.790 -0.5388  0.6684 -0.0373
   32CHL1    H3 3476   2.328   5.900   6.784 -0.4420  0.3745 -0.1004
   32CHL1    O3 3477   2.174   5.891   6.917  0.5777  0.4379 -0.2507
   32CHL1   H3' 3478   2.081   5.872   6.909  0.1601  1.6695  1.2402
   32CHL1    C4 3479   2.139   5.933   6.680 -0.3873  0.3007  0.8415
   32CHL1   H4A 3480   2.034   5.896   6.681 -0.2509 -0.1910 -0.9192
   32CHL1   H4B 3481   2.140   6.043   6.695 -1.0327  0.2481  1.3001
   32CHL1    C5 3482   2.204   5.902   6.547 -0.4430 -0.2969 -0.3877
   32CHL1    C6 3483   2.249   5.993   6.461  0.5285  0.3907  0.1770
   32CHL1    H6 3484   2.235   6.099   6.485 -4.1499 -0.0319  0.2663
   32CHL1    C7 3485   2.295   5.958   6.320 -0.2574 -0.1695 -0.2387
   32CHL1   H7A 3486   2.261   6.036   6.249  1.5422  0.1224 -0.8365
   32CHL1   H7B 3487   2.405   5.974   6.328 -0.6029  2.0616  0.9848
   32CHL1    C8 3488   2.255   5.816   6.268 -0.6043 -1.5213 -0.1050
   32CHL1    H8 3489   2.144   5.816   6.259 -0.5690 -1.7169 -0.5660
   32CHL1   C14 3490   2.336   5.783   6.144  0.2179 -0.1991  0.1945
   32CHL1   H14 3491   2.443   5.787   6.175 -0.3552 -0.0493  2.3107
   32CHL1   C15 3492   2.324   5.875   6.018 -0.7027 -0.5322  0.6512
   32CHL1  H15A 3493   2.224   5.918   5.997  0.5335  1.2234 -2.4269
   32CHL1  H15B 3494   2.387   5.967   6.027  1.1936 -1.8313  1.2951
   32CHL1   C16 3495   2.368   5.782   5.900  0.0151 -0.2601  0.6110
   32CHL1  H16A 3496   2.281   5.766   5.833 -0.9186 -1.0027  1.9648
   32CHL1  H16B 3497   2.452   5.823   5.838  1.3784 -2.3472  0.9931
   32CHL1   C17 3498   2.400   5.641   5.961  0.2647 -0.5739 -0.3554
   32CHL1   H17 3499   2.507   5.638   5.990  0.1425 -4.7901  0.2852
   32CHL1   C13 3500   2.315   5.640   6.094 -0.0088  0.0953  0.8674
   32CHL1   C18 3501   2.172   5.614   6.054 -0.3712 -0.4309  0.8264
   32CHL1  H18A 3502   2.139   5.665   5.961  0.0173 -0.0196  0.9102
   32CHL1  H18B 3503   2.155   5.505   6.042 -0.9620 -0.1331 -1.5798
   32CHL1  H18C 3504   2.102   5.652   6.131 -1.4055 -1.2091  0.2874
   32CHL1   C12 3505   2.364   5.546   6.208  0.3426 -0.2924 -0.0472
   32CHL1  H12A 3506   2.341   5.439   6.190 -1.1722  0.0225 -0.1003
   32CHL1  H12B 3507   2.469   5.576   6.229  0.1076  1.1806 -0.8467
   32CHL1   C11 3508   2.276   5.565   6.330 -0.1561 -0.3309 -0.2555
   32CHL1  H11A 3509   2.170   5.536   6.312  0.2280 -1.6534 -0.4435
   32CHL1  H11B 3510   2.320   5.502   6.410 -0.4165 -1.2319 -0.8160
   32CHL1    C9 3511   2.281   5.715   6.378 -0.8034  0.8813  0.0216
   32CHL1    H9 3512   2.387   5.740   6.402 -0.8209 -1.1013  2.5450
   32CHL1   C10 3513   2.212   5.749   6.514 -0.3559  0.1642 -0.7237
   32CHL1   C19 3514   2.071   5.689   6.510 -0.5393  0.3719 -0.2330
   32CHL1  H19A 3515   2.014   5.737   6.428  1.0142  0.3550 -1.3890
   32CHL1  H19B 3516   2.077   5.579   6.491 -1.4405  0.1890  0.4753
   32CHL1  H19C 3517   2.022   5.710   6.607  1.8063 -1.1528  1.3905
   32CHL1    C1 3518   2.283   5.675   6.625 -0.5342  0.3250 -0.4342
   32CHL1   H1A 3519   2.260   5.567   6.613  0.2468 -0.0294  0.9745
   32CHL1   H1B 3520   2.394   5.688   6.619 -0.4472 -0.1851 -0.0445
   32CHL1    C2 3521   2.231   5.708   6.766  0.0804  0.1575  0.9105
   32CHL1   H2A 3522   2.290   5.656   6.845  1.1245  0.2126  0.1845
   32CHL1   H2B 3523   2.125   5.673   6.768  0.7361 -2.0719 -0.2714
   32CHL1   C20 3524   2.406   5.515   5.874  0.1695  0.1600  0.6423
   32CHL1   H20 3525   2.299   5.493   5.853 -0.5997  2.6742  1.5253
   32CHL1   C21 3526   2.484   5.402   5.936 -0.4951  0.0459 -0.4162
   32CHL1  H21A 3527   2.576   5.445   5.983 -0.9772  0.2437  0.3553
   32CHL1  H21B 3528   2.513   5.328   5.858  0.3999  1.5290 -1.5581
   32CHL1  H21C 3529   2.422   5.360   6.018 -0.7697  3.0604  1.0954
   32CHL1   C22 3530   2.454   5.556   5.737 -0.4011  0.4074 -0.2006
   32CHL1  H22A 3531   2.405   5.649   5.700 -1.3844  0.8825  2.1279
   32CHL1  H22B 3532   2.562   5.577   5.737  0.5507 -3.5636  1.0178
   32CHL1   C23 3533   2.421   5.446   5.629  0.3424 -0.4462 -0.0919
   32CHL1  H23A 3534   2.455   5.350   5.672 -0.5468  0.3308  2.6141
   32CHL1  H23B 3535   2.310   5.446   5.627  0.3613 -0.0839 -1.3795
   32CHL1   C24 3536   2.474   5.489   5.494 -0.4986 -0.5298  0.6584
   32CHL1  H24A 3537   2.417   5.582   5.475 -1.8558 -1.3379  0.6347
   32CHL1  H24B 3538   2.584   5.505   5.495 -0.7768  1.9365 -0.3292
   32CHL1   C25 3539   2.448   5.387   5.383 -0.1001 -0.3689  0.4645
   32CHL1   H25 3540   2.343   5.351   5.383  0.7864 -3.2097  0.6035
   32CHL1   C26 3541   2.485   5.449   5.245  0.2593 -0.5933 -0.8207
   32CHL1  H26A 3542   2.453   5.382   5.163 -0.8738 -0.3854 -0.5668
   32CHL1  H26B 3543   2.439   5.550   5.236  1.2121 -0.0566  0.1682
   32CHL1  H26C 3544   2.595   5.465   5.242  0.5788 -1.2270  2.9906
   32CHL1   C27 3545   2.539   5.267   5.405 -0.1663  0.9782  0.3787
   32CHL1  H27A 3546   2.549   5.197   5.319  0.9429  0.7368  0.6897
   32CHL1  H27B 3547   2.641   5.301   5.433 -0.6035  1.0862  1.9390
   32CHL1  H27C 3548   2.509   5.199   5.487 -0.4616  0.6542  0.0048
   33CHL1    C3 3549   0.124   5.367   6.554 -0.6129  0.2578 -0.2484
   33CHL1    H3 3550   0.018   5.337   6.559 -0.9732  1.5039 -0.0906
   33CHL1    O3 3551   0.173   5.403   6.681  0.6272  0.0394  0.6285
   33CHL1   H3' 3552   0.220   5.486   6.664  3.2045 -1.3477  0.3791
   33CHL1    C4 3553   0.216   5.252   6.505 -0.5165  0.1230  1.2483
   33CHL1   H4A 3554   0.319   5.296   6.506 -0.8649  0.9826  0.4811
   33CHL1   H4B 3555   0.221   5.163   6.572  2.2960  0.2562  1.3627
   33CHL1    C5 3556   0.176   5.220   6.359 -0.3102  0.1479 -0.7597
   33CHL1    C6 3557   0.140   5.097   6.323 -0.4770  0.5063  0.6474
   33CHL1    H6 3558   0.159   5.014   6.393  1.7337 -0.6860 -1.1961
   33CHL1    C7 3559   0.111   5.054   6.184  0.0047 -0.7084  0.0273
   33CHL1   H7A 3560   0.142   4.951   6.157 -0.7560 -0.9072 -0.1294
   33CHL1   H7B 3561  -0.000   5.050   6.185 -0.1336  1.4788  0.8577
   33CHL1    C8 3562   0.144   5.161   6.075  0.0365 -0.2087 -0.6845
   33CHL1    H8 3563   0.254   5.152   6.069 -0.0752 -2.1192 -0.5744
   33CHL1   C14 3564   0.070   5.145   5.945 -0.2098 -0.2048  0.3785
   33CHL1   H14 3565  -0.039   5.160   5.961 -0.8949 -2.9300 -1.1676
   33CHL1   C15 3566   0.086   5.008   5.886  0.3683  0.7435  0.3970
   33CHL1  H15A 3567   0.188   4.967   5.904 -0.7720 -1.9756  1.2612
   33CHL1  H15B 3568   0.028   4.922   5.927  2.0524 -0.4873  0.3372
   33CHL1   C16 3569   0.048   5.025   5.740 -0.0147 -0.6210  0.2613
   33CHL1  H16A 3570   0.128   4.989   5.671  0.3315 -0.7517  0.7310
   33CHL1  H16B 3571  -0.049   4.976   5.718 -0.5059  1.0766 -1.7355
   33CHL1   C17 3572   0.024   5.180   5.717 -0.3395  0.1771  0.2759
   33CHL1   H17 3573  -0.077   5.213   5.746 -0.2087  0.9677 -0.1555
   33CHL1   C13 3574   0.105   5.239   5.835 -0.9652  1.0049 -0.2209
   33CHL1   C18 3575   0.249   5.229   5.792  0.3784 -0.0297  0.0845
   33CHL1  H18A 3576   0.273   5.308   5.718  1.5824  3.4558  3.8435
   33CHL1  H18B 3577   0.316   5.247   5.879  1.9823 -2.2001 -0.6142
   33CHL1  H18C 3578   0.271   5.125   5.758  0.8671 -1.0260  3.1301
   33CHL1   C12 3579   0.066   5.376   5.887  1.0703  0.1507 -0.1802
   33CHL1  H12A 3580   0.092   5.456   5.814 -0.9095 -0.2430 -1.3985
   33CHL1  H12B 3581  -0.045   5.368   5.893  1.2646 -1.9544  1.4812
   33CHL1   C11 3582   0.128   5.415   6.022  0.0941  0.0414 -0.0493
   33CHL1  H11A 3583   0.236   5.430   6.002 -0.1122  1.3777 -0.2743
   33CHL1  H11B 3584   0.090   5.514   6.056 -2.0188 -1.3778  2.0266
   33CHL1    C9 3585   0.108   5.305   6.128  0.0920  0.1287 -0.1318
   33CHL1    H9 3586   0.000   5.300   6.154  0.2163  0.6040  0.5087
   33CHL1   C10 3587   0.173   5.338   6.264 -0.0976  0.3246 -0.1484
   33CHL1   C19 3588   0.320   5.368   6.242 -0.0240 -0.0781 -0.1916
   33CHL1  H19A 3589   0.334   5.464   6.187 -0.3583 -0.3005 -0.6763
   33CHL1  H19B 3590   0.380   5.388   6.333  0.5164 -2.7275  0.1178
   33CHL1  H19C 3591   0.373   5.288   6.186 -0.9710 -0.7119 -0.2055
   33CHL1    C1 3592   0.097   5.460   6.331 -0.3934 -0.3104 -0.3023
   33CHL1   H1A 3593   0.105   5.551   6.267  1.4964 -0.9472 -1.0149
   33CHL1   H1B 3594  -0.012   5.436   6.330  0.0799 -2.6656  0.2423
   33CHL1    C2 3595   0.143   5.489   6.474 -0.1986 -0.6800  0.0578
   33CHL1   H2A 3596   0.084   5.572   6.516  3.2918  1.3147  1.4828
   33CHL1   H2B 3597   0.248   5.526   6.466 -0.5913  0.4078 -0.2401
   33CHL1   C20 3598   0.046   5.218   5.577 -0.2101 -0.3534 -0.0009
   33CHL1   H20 3599   0.150   5.197   5.544 -0.0046 -0.0090  0.4367
   33CHL1   C21 3600   0.009   5.367   5.566 -0.5708 -0.4648 -0.6521
   33CHL1  H21A 3601   0.016   5.395   5.458 -2.3342  2.0774 -0.1928
   33CHL1  H21B 3602   0.077   5.432   5.625  0.4352 -0.7309 -1.4948
   33CHL1  H21C 3603  -0.096   5.386   5.598 -0.2014  0.6067 -0.0456
   33CHL1   C22 3604  -0.044   5.144   5.481  0.0896  0.3833 -0.1781
   33CHL1  H22A 3605  -0.040   5.033   5.492 -0.6434  0.4040  0.3229
   33CHL1  H22B 3606  -0.150   5.175   5.469  0.0522  0.2421 -0.2167
   33CHL1   C23 3607   0.007   5.164   5.340 -0.5099  0.5233 -0.3050
   33CHL1  H23A 3608  -0.028   5.261   5.298 -0.0310  2.2393  2.9048
   33CHL1  H23B 3609   0.116   5.145   5.338 -0.8328 -1.5991  0.2437
   33CHL1   C24 3610  -0.047   5.052   5.244  0.1419 -0.3627  0.2217
   33CHL1  H24A 3611  -0.004   4.951   5.258 -0.3715 -0.7731 -1.0619
   33CHL1  H24B 3612  -0.156   5.042   5.263  0.1149 -1.0227 -0.2418
   33CHL1   C25 3613  -0.036   5.082   5.093  0.2408  0.2876  0.5811
   33CHL1   H25 3614   0.071   5.097   5.066 -0.3409  1.6928 -1.1675
   33CHL1   C26 3615  -0.084   4.956   5.011 -0.1896  0.6431  0.4310
   33CHL1  H26A 3616  -0.067   4.861   5.066 -2.0004 -1.2260 -1.9756
   33CHL1  H26B 3617  -0.194   4.955   4.991 -0.3102  0.1890  1.0726
   33CHL1  H26C 3618  -0.021   4.937   4.922  2.8990 -0.6131  2.7212
   33CHL1   C27 3619  -0.122   5.202   5.045  0.4056 -0.2358 -0.5535
   33CHL1  H27A 3620  -0.109   5.213   4.936  0.5570 -2.1710 -0.7707
   33CHL1  H27B 3621  -0.230   5.187   5.068 -0.1744 -0.5245 -3.1224
   33CHL1  H27C 3622  -0.098   5.289   5.109  0.6756  0.3374 -1.4188
   34CHL1    C3 3623   0.952   1.438   6.321  0.8276 -0.9593 -0.0002
   34CHL1    H3 3624   0.906   1.538   6.338  0.1405 -1.1528 -0.6394
   34CHL1    O3 3625   0.983   1.390   6.446 -0.2287  0.2853  0.0124
   34CHL1   H3' 3626   1.029   1.307   6.427 -0.8797 -0.0126 -0.2837
   34CHL1    C4 3627   0.845   1.354   6.255 -0.4694  0.1779 -0.3917
   34CHL1   H4A 3628   0.880   1.249   6.245  0.6942  0.5639 -0.5421
   34CHL1   H4B 3629   0.751   1.346   6.313 -0.3450 -1.3616 -0.3826
   34CHL1    C5 3630   0.813   1.390   6.109  0.2486 -0.1796 -0.1785
   34CHL1    C6 3631   0.689   1.409   6.070  0.0665  0.3347 -0.0182
   34CHL1    H6 3632   0.610   1.386   6.143  1.1514 -2.2809  0.4643
   34CHL1    C7 3633   0.653   1.439   5.924  0.0536 -0.2204 -0.3061
   34CHL1   H7A 3634   0.566   1.375   5.898  0.3434 -1.4134  1.5078
   34CHL1   H7B 3635   0.617   1.544   5.927 -0.8857 -0.5578  1.9750
   34CHL1    C8 3636   0.773   1.414   5.824 -0.1185  0.0391  0.5606
   34CHL1    H8 3637   0.785   1.304   5.816 -1.3741 -0.4055  3.3429
   34CHL1   C14 3638   0.742   1.463   5.680 -0.1162  0.2415 -0.0988
   34CHL1   H14 3639   0.736   1.573   5.696 -1.3507  0.1292  0.3775
   34CHL1   C15 3640   0.611   1.422   5.612 -0.1862  0.1519 -0.2044
   34CHL1  H15A 3641   0.586   1.315   5.627 -0.0581  0.1096 -0.2934
   34CHL1  H15B 3642   0.531   1.491   5.645 -0.7344  0.1244 -1.4248
   34CHL1   C16 3643   0.647   1.440   5.465 -0.2591 -0.6584 -0.4074
   34CHL1  H16A 3644   0.630   1.343   5.413  1.2452 -0.2803 -1.6733
   34CHL1  H16B 3645   0.577   1.507   5.411  0.6817  1.0668  0.4396
   34CHL1   C17 3646   0.797   1.485   5.448  1.4430  0.1318 -1.1910
   34CHL1   H17 3647   0.795   1.594   5.468  0.3391 -0.0562 -0.1490
   34CHL1   C13 3648   0.856   1.435   5.577  0.3576 -0.2030  0.1508
   34CHL1   C18 3649   0.869   1.279   5.564  0.5058 -0.3526  0.6704
   34CHL1  H18A 3650   0.935   1.262   5.477 -1.9532 -0.8291 -1.2038
   34CHL1  H18B 3651   0.921   1.230   5.649 -0.5751 -0.2063  1.4437
   34CHL1  H18C 3652   0.775   1.223   5.542 -0.3621  1.3887 -0.2465
   34CHL1   C12 3653   0.979   1.505   5.624 -0.2995  0.0935 -0.5449
   34CHL1  H12A 3654   1.060   1.504   5.548  0.0550  0.1102 -0.1724
   34CHL1  H12B 3655   0.961   1.611   5.649 -1.1799 -0.2942  0.5704
   34CHL1   C11 3656   1.024   1.459   5.767 -0.8122 -0.5047  0.2387
   34CHL1  H11A 3657   1.064   1.356   5.758  0.9499  0.1981 -0.7161
   34CHL1  H11B 3658   1.106   1.529   5.796 -1.6497  2.0836 -2.9177
   34CHL1    C9 3659   0.913   1.465   5.873  0.5412  0.7854  0.4760
   34CHL1    H9 3660   0.899   1.573   5.894  0.4058  0.5771  1.4943
   34CHL1   C10 3661   0.944   1.407   6.020  0.2947  0.3468  0.2721
   34CHL1   C19 3662   1.009   1.265   5.996 -0.2667  0.2415 -0.7247
   34CHL1  H19A 3663   1.101   1.259   5.934 -0.2257 -1.9975 -0.5384
   34CHL1  H19B 3664   1.038   1.204   6.085  0.9546  0.8126 -0.7103
   34CHL1  H19C 3665   0.928   1.210   5.943 -1.7179  0.2191  1.3682
   34CHL1    C1 3666   1.037   1.503   6.086  0.2028 -0.0587 -0.4210
   34CHL1   H1A 3667   1.119   1.526   6.015  0.1378  0.5093 -0.3248
   34CHL1   H1B 3668   0.991   1.604   6.099 -0.5340 -0.6702  2.6445
   34CHL1    C2 3669   1.083   1.463   6.228  0.2595  0.1645 -0.2641
   34CHL1   H2A 3670   1.156   1.536   6.269  0.8554 -0.9962  0.8104
   34CHL1   H2B 3671   1.124   1.360   6.234 -0.7154 -0.1940  0.6616
   34CHL1   C20 3672   0.853   1.466   5.305  0.5788 -0.0158 -0.5493
   34CHL1   H20 3673   0.823   1.360   5.295  0.6805 -0.0041 -1.0076
   34CHL1   C21 3674   1.003   1.452   5.294 -0.0386  0.5213  0.1061
   34CHL1  H21A 3675   1.023   1.441   5.185 -1.7921 -0.4771 -0.1522
   34CHL1  H21B 3676   1.035   1.364   5.354 -0.5164  1.9591  2.5634
   34CHL1  H21C 3677   1.064   1.538   5.326 -0.7898 -0.0103  3.2648
   34CHL1   C22 3678   0.795   1.553   5.188  0.0122  0.1952  0.1724
   34CHL1  H22A 3679   0.773   1.654   5.231 -0.2372  0.1773  0.0893
   34CHL1  H22B 3680   0.875   1.571   5.113  0.3482  1.9437  0.8878
   34CHL1   C23 3681   0.669   1.500   5.115  0.2052 -0.5923  1.0843
   34CHL1  H23A 3682   0.682   1.391   5.102  1.1266 -0.3139 -0.6943
   34CHL1  H23B 3683   0.580   1.520   5.178 -0.2812 -0.6257  0.4210
   34CHL1   C24 3684   0.651   1.563   4.979 -1.1929 -0.4124  0.6628
   34CHL1  H24A 3685   0.665   1.672   4.994 -1.1185 -0.4397  0.7898
   34CHL1  H24B 3686   0.721   1.514   4.908 -2.8491 -1.3858 -0.3584
   34CHL1   C25 3687   0.515   1.534   4.916  0.3420 -0.2827 -0.7910
   34CHL1   H25 3688   0.435   1.571   4.983  0.8958 -1.4750  0.5715
   34CHL1   C26 3689   0.487   1.604   4.785 -0.0753 -0.1589  0.4964
   34CHL1  H26A 3690   0.391   1.569   4.741 -0.0540 -2.0183  1.8415
   34CHL1  H26B 3691   0.487   1.715   4.795 -1.2343 -0.0375 -0.5265
   34CHL1  H26C 3692   0.566   1.580   4.711 -0.2694  2.2098 -0.5790
   34CHL1   C27 3693   0.473   1.388   4.889 -0.0614  0.3157  0.4184
   34CHL1  H27A 3694   0.522   1.320   4.962 -1.1859  0.5823  1.4493
   34CHL1  H27B 3695   0.364   1.367   4.898  0.5005 -3.1876  0.6599
   34CHL1  H27C 3696   0.513   1.352   4.791  3.4551 -0.0506  1.8382
   35CHL1    C3 3697   2.523   1.634   6.505 -0.6218 -0.1441  0.4266
   35CHL1    H3 3698   2.625   1.676   6.501 -0.8803  0.4022 -0.7982
   35CHL1    O3 3699   2.469   1.648   6.636 -0.1217  0.5719 -0.2548
   35CHL1   H3' 3700   2.394   1.705   6.617  0.4913  1.2126 -0.8007
   35CHL1    C4 3701   2.444   1.724   6.405 -0.0137  0.4692 -0.6896
   35CHL1   H4A 3702   2.335   1.701   6.405  0.5899 -2.7985 -1.2703
   35CHL1   H4B 3703   2.463   1.829   6.437  0.0601  0.2836 -0.1206
   35CHL1    C5 3704   2.504   1.693   6.266  0.3334  0.2205 -0.2689
   35CHL1    C6 3705   2.564   1.800   6.207 -0.0819 -0.0380  0.3900
   35CHL1    H6 3706   2.572   1.895   6.263 -0.1864  1.7353 -2.3679
   35CHL1    C7 3707   2.627   1.806   6.070 -0.3863  0.4973  0.4182
   35CHL1   H7A 3708   2.604   1.894   6.006  0.8768 -0.0208 -0.7861
   35CHL1   H7B 3709   2.737   1.797   6.082 -0.6882 -0.6069  3.3834
   35CHL1    C8 3710   2.574   1.678   5.992 -0.1288  0.0843 -0.0110
   35CHL1    H8 3711   2.471   1.706   5.962 -1.5224 -2.8406  1.5992
   35CHL1   C14 3712   2.670   1.660   5.879 -0.4111  0.2045  0.7414
   35CHL1   H14 3713   2.774   1.638   5.910  0.5548 -0.7945 -2.7437
   35CHL1   C15 3714   2.691   1.781   5.785 -0.1841 -0.1887 -0.7558
   35CHL1  H15A 3715   2.595   1.825   5.748  0.8744  0.8529 -2.3776
   35CHL1  H15B 3716   2.747   1.866   5.830 -1.1189 -0.2824  0.6628
   35CHL1   C16 3717   2.761   1.720   5.666  0.4512  0.0124 -0.6402
   35CHL1  H16A 3718   2.725   1.766   5.572  2.3702  0.9580 -0.9612
   35CHL1  H16B 3719   2.867   1.751   5.676 -0.1611  2.2366 -0.5397
   35CHL1   C17 3720   2.739   1.560   5.672 -0.7475 -0.3887  0.1657
   35CHL1   H17 3721   2.828   1.512   5.716  0.0693 -0.4013 -1.4233
   35CHL1   C13 3722   2.630   1.546   5.783 -0.3315  0.6021  0.1056
   35CHL1   C18 3723   2.494   1.574   5.712  0.0031  0.6507 -0.4126
   35CHL1  H18A 3724   2.490   1.673   5.662 -1.4359  0.4161 -0.8060
   35CHL1  H18B 3725   2.454   1.503   5.638 -0.2903 -0.1951  0.5346
   35CHL1  H18C 3726   2.413   1.573   5.788 -0.2091  1.8206 -0.6020
   35CHL1   C12 3727   2.632   1.416   5.861  0.3640 -0.4905 -0.0845
   35CHL1  H12A 3728   2.602   1.327   5.802  0.8929 -1.2376  0.7412
   35CHL1  H12B 3729   2.738   1.419   5.893  0.3920  1.6432 -0.2306
   35CHL1   C11 3730   2.538   1.422   5.986  0.1852 -0.3619  0.4711
   35CHL1  H11A 3731   2.430   1.420   5.960  0.3919  1.4076 -0.7303
   35CHL1  H11B 3732   2.557   1.331   6.046 -2.5239 -0.0416  1.9924
   35CHL1    C9 3733   2.566   1.548   6.076  0.0465  0.1333  0.3164
   35CHL1    H9 3734   2.673   1.531   6.100  0.1643 -0.5996 -0.6648
   35CHL1   C10 3735   2.492   1.549   6.209  0.0544  0.9545 -1.2651
   35CHL1   C19 3736   2.340   1.522   6.184 -0.1092 -0.2218 -0.0048
   35CHL1  H19A 3737   2.303   1.567   6.089 -3.0431 -0.9128  0.7106
   35CHL1  H19B 3738   2.328   1.411   6.178 -0.2122 -0.2458  0.5894
   35CHL1  H19C 3739   2.271   1.558   6.262 -1.1815 -0.3035 -0.8891
   35CHL1    C1 3740   2.552   1.458   6.318 -0.0453  0.2362 -0.0963
   35CHL1   H1A 3741   2.534   1.351   6.292 -0.5721  0.9296 -2.9688
   35CHL1   H1B 3742   2.663   1.461   6.312 -0.1105  1.1780 -1.0784
   35CHL1    C2 3743   2.515   1.489   6.466 -0.0745 -0.1151  0.0942
   35CHL1   H2A 3744   2.577   1.424   6.532  1.7500 -0.1805 -1.6016
   35CHL1   H2B 3745   2.413   1.456   6.496  1.0828 -4.0723  0.3545
   35CHL1   C20 3746   2.719   1.498   5.535 -0.6455  0.0336 -0.0592
   35CHL1   H20 3747   2.647   1.563   5.480  0.1881  3.6514  2.7242
   35CHL1   C21 3748   2.673   1.353   5.544 -0.0884 -0.3692 -0.1194
   35CHL1  H21A 3749   2.659   1.307   5.444 -1.2590  1.9173 -1.0899
   35CHL1  H21B 3750   2.573   1.345   5.592 -2.1081  4.0995 -2.8986
   35CHL1  H21C 3751   2.750   1.290   5.594 -2.5626 -2.8397  0.8579
   35CHL1   C22 3752   2.851   1.502   5.457 -0.3125  0.5317  0.7778
   35CHL1  H22A 3753   2.885   1.606   5.440  0.1599  0.6314  2.1501
   35CHL1  H22B 3754   2.927   1.452   5.521 -0.2129  1.1312  1.1386
   35CHL1   C23 3755   2.866   1.421   5.321  0.3710  0.5781  0.1016
   35CHL1  H23A 3756   2.968   1.425   5.277  0.0628  0.7720 -0.6075
   35CHL1  H23B 3757   2.841   1.312   5.326  0.1235  0.4775 -2.1478
   35CHL1   C24 3758   2.755   1.458   5.221 -0.0527  0.3549 -0.7454
   35CHL1  H24A 3759   2.657   1.420   5.257 -0.0933 -0.9219 -2.1057
   35CHL1  H24B 3760   2.725   1.564   5.231 -1.6773 -0.3226  3.8378
   35CHL1   C25 3761   2.779   1.422   5.075 -0.3340  0.6666 -0.2831
   35CHL1   H25 3762   2.822   1.321   5.059 -0.1949  0.8476 -1.0672
   35CHL1   C26 3763   2.650   1.448   5.004 -0.2942  0.9051  0.4401
   35CHL1  H26A 3764   2.626   1.556   4.993  1.5706  1.2977 -0.2586
   35CHL1  H26B 3765   2.662   1.404   4.902 -0.1113 -2.2684  1.7271
   35CHL1  H26C 3766   2.566   1.396   5.053 -1.1571  1.9238  0.0927
   35CHL1   C27 3767   2.901   1.493   5.008  0.4444  0.2678  0.0759
   35CHL1  H27A 3768   2.973   1.531   5.084 -0.8586  0.2385  1.3866
   35CHL1  H27B 3769   2.955   1.439   4.928  1.7645  2.0778 -0.3036
   35CHL1  H27C 3770   2.860   1.580   4.953 -0.8673 -0.7680 -0.6651
   36CHL1    C3 3771   0.752   5.969   6.604 -0.5691 -0.8811  0.2962
   36CHL1    H3 3772   0.848   6.025   6.596 -0.9140 -0.5154 -2.1038
   36CHL1    O3 3773   0.720   5.950   6.742 -1.0969  0.5794  0.0429
   36CHL1   H3' 3774   0.789   5.897   6.783 -0.7173  0.5151 -0.6707
   36CHL1    C4 3775   0.634   6.048   6.533  0.2344  0.2656  0.2850
   36CHL1   H4A 3776   0.546   5.981   6.543  0.7022 -0.5087 -0.5983
   36CHL1   H4B 3777   0.626   6.136   6.599  1.4623  2.1464 -1.9205
   36CHL1    C5 3778   0.668   6.073   6.386 -0.0814 -0.9395  0.1970
   36CHL1    C6 3779   0.671   6.200   6.350  0.5054 -0.0708  0.4509
   36CHL1    H6 3780   0.639   6.281   6.417 -0.6147 -0.6797  0.6760
   36CHL1    C7 3781   0.688   6.240   6.210 -0.1112  0.7205 -0.0928
   36CHL1   H7A 3782   0.610   6.306   6.168 -0.1864 -1.4961 -3.9057
   36CHL1   H7B 3783   0.788   6.288   6.212 -0.0622  0.5879  1.0815
   36CHL1    C8 3784   0.696   6.120   6.104  0.0042  0.1242 -0.9635
   36CHL1    H8 3785   0.594   6.078   6.090  0.5044 -1.0326 -1.2642
   36CHL1   C14 3786   0.757   6.162   5.974 -0.1872  0.1517  0.6211
   36CHL1   H14 3787   0.859   6.202   5.993 -0.2515  0.7192 -0.2098
   36CHL1   C15 3788   0.694   6.277   5.899 -0.1182 -0.6412 -0.0871
   36CHL1  H15A 3789   0.587   6.257   5.877 -0.0274 -0.6468 -0.5326
   36CHL1  H15B 3790   0.711   6.372   5.954  1.1850 -0.2699 -1.0727
   36CHL1   C16 3791   0.778   6.275   5.768 -0.1618  0.1552  0.2867
   36CHL1  H16A 3792   0.698   6.289   5.692  0.6552 -1.4926 -0.9578
   36CHL1  H16B 3793   0.856   6.353   5.755  1.9278 -1.6761  1.0996
   36CHL1   C17 3794   0.838   6.134   5.752  0.1993 -0.6404 -0.1503
   36CHL1   H17 3795   0.942   6.156   5.786  0.5422 -1.6559 -0.4975
   36CHL1   C13 3796   0.771   6.053   5.867  0.3561 -0.2188 -0.2010
   36CHL1   C18 3797   0.631   5.996   5.820  0.2179  0.2132 -0.2929
   36CHL1  H18A 3798   0.565   6.072   5.772  1.9761  0.6380 -2.1751
   36CHL1  H18B 3799   0.654   5.918   5.745 -1.0610 -0.5974  0.1239
   36CHL1  H18C 3800   0.572   5.947   5.901  0.8537  1.9799  1.3269
   36CHL1   C12 3801   0.859   5.943   5.933 -0.4472  0.3643 -0.5895
   36CHL1  H12A 3802   0.855   5.851   5.871  4.3562  0.4065 -1.2901
   36CHL1  H12B 3803   0.962   5.976   5.956 -0.8979  1.6062 -0.2802
   36CHL1   C11 3804   0.787   5.896   6.060  0.0488  0.5692  0.5804
   36CHL1  H11A 3805   0.684   5.862   6.035 -0.2031  1.9764 -0.4522
   36CHL1  H11B 3806   0.829   5.801   6.099  2.1134  0.9277 -0.6107
   36CHL1    C9 3807   0.771   5.997   6.173 -0.3864 -0.1052  0.2240
   36CHL1    H9 3808   0.870   6.034   6.206 -0.5210 -0.2128  0.7538
   36CHL1   C10 3809   0.707   5.951   6.305 -0.4767  0.5653  0.6202
   36CHL1   C19 3810   0.567   5.882   6.271 -0.3434 -1.0035 -0.8472
   36CHL1  H19A 3811   0.591   5.799   6.201 -0.0845 -0.1840 -1.7545
   36CHL1  H19B 3812   0.518   5.842   6.362 -1.4746  0.0630 -0.9524
   36CHL1  H19C 3813   0.489   5.950   6.230  1.0080  1.4093  0.3538
   36CHL1    C1 3814   0.793   5.840   6.376  0.4403  0.7234  0.2630
   36CHL1   H1A 3815   0.769   5.741   6.332  1.4049  1.2023 -1.3930
   36CHL1   H1B 3816   0.897   5.870   6.356  0.3738  0.9718  0.2848
   36CHL1    C2 3817   0.769   5.829   6.532  0.3560 -0.0330 -0.7676
   36CHL1   H2A 3818   0.851   5.775   6.585 -0.4962 -1.6782 -1.0555
   36CHL1   H2B 3819   0.671   5.785   6.560 -1.0478  3.1726 -0.1661
   36CHL1   C20 3820   0.838   6.063   5.617 -0.1596 -0.4347  0.9181
   36CHL1   H20 3821   0.739   6.019   5.591 -1.4024  2.1409  0.9707
   36CHL1   C21 3822   0.944   5.952   5.612 -0.2518  0.0644 -0.4525
   36CHL1  H21A 3823   1.038   5.983   5.662  0.0951 -0.4195 -0.7962
   36CHL1  H21B 3824   0.967   5.926   5.506 -3.7255  2.6871 -2.0933
   36CHL1  H21C 3825   0.898   5.870   5.670  2.5921 -1.2352  0.1016
   36CHL1   C22 3826   0.875   6.160   5.502  0.3535  0.1744 -0.4693
   36CHL1  H22A 3827   0.888   6.101   5.409  0.9356 -4.2040  2.1072
   36CHL1  H22B 3828   0.800   6.242   5.501 -0.0364 -0.1828 -0.3545
   36CHL1   C23 3829   1.010   6.235   5.515 -0.3913 -0.0658  0.0049
   36CHL1  H23A 3830   1.004   6.295   5.608 -3.2646  0.9395 -0.7268
   36CHL1  H23B 3831   1.097   6.167   5.519  0.9099  1.5412 -0.0158
   36CHL1   C24 3832   1.028   6.342   5.412  0.3137  0.1084 -0.1689
   36CHL1  H24A 3833   1.088   6.293   5.332 -0.2916 -0.0460 -0.5352
   36CHL1  H24B 3834   0.931   6.377   5.372 -0.4991  1.2869  2.6296
   36CHL1   C25 3835   1.106   6.470   5.447 -0.0328 -0.2149 -0.4103
   36CHL1   H25 3836   1.207   6.439   5.483 -0.0397 -1.2669 -1.2567
   36CHL1   C26 3837   1.116   6.567   5.332 -0.1463  0.3743 -0.8398
   36CHL1  H26A 3838   1.172   6.659   5.356  0.3993 -0.3086  0.6018
   36CHL1  H26B 3839   1.178   6.523   5.251 -0.4018 -1.4271 -0.0928
   36CHL1  H26C 3840   1.016   6.599   5.295  0.0448  0.7813 -1.0151
   36CHL1   C27 3841   1.038   6.550   5.558 -0.0695  0.2825 -0.5345
   36CHL1  H27A 3842   0.930   6.566   5.538 -0.3958 -1.5980 -0.4832
   36CHL1  H27B 3843   1.043   6.496   5.655 -3.3362 -0.5984 -0.7265
   36CHL1  H27C 3844   1.091   6.644   5.582 -0.0621  0.5217 -1.4455
   37CHL1    C3 3845   0.356   2.542   6.095 -0.6552 -0.0568 -0.3010
   37CHL1    H3 3846   0.361   2.652   6.085  1.2558 -0.1655 -1.0030
   37CHL1    O3 3847   0.355   2.523   6.242  0.4838 -0.2324  0.2708
   37CHL1   H3' 3848   0.448   2.510   6.262  0.5402 -1.5625 -0.6873
   37CHL1    C4 3849   0.226   2.480   6.040  0.5443 -0.0031  0.0307
   37CHL1   H4A 3850   0.204   2.379   6.081 -0.5454  0.2384  0.0855
   37CHL1   H4B 3851   0.142   2.544   6.075  0.4077  1.6045 -2.9233
   37CHL1    C5 3852   0.214   2.471   5.885  0.5091  0.1652 -0.6487
   37CHL1    C6 3853   0.106   2.516   5.818  0.1443 -0.4876  0.0027
   37CHL1    H6 3854   0.031   2.557   5.887  1.2092 -0.1629  0.9933
   37CHL1    C7 3855   0.092   2.522   5.668 -0.0713  0.4878 -0.4202
   37CHL1   H7A 3856  -0.005   2.475   5.643 -0.2793  1.0504 -0.6865
   37CHL1   H7B 3857   0.102   2.630   5.644  0.9645  0.2202 -1.2907
   37CHL1    C8 3858   0.203   2.447   5.592  0.0835  0.3042  0.3374
   37CHL1    H8 3859   0.178   2.339   5.596  0.8198  0.1624  1.9830
   37CHL1   C14 3860   0.210   2.494   5.443 -0.0057 -0.4368 -0.6692
   37CHL1   H14 3861   0.248   2.598   5.445  0.1047 -0.4917  0.2630
   37CHL1   C15 3862   0.089   2.500   5.355  0.6202 -0.1237  0.6320
   37CHL1  H15A 3863   0.023   2.416   5.385 -0.9006  1.1960  1.0924
   37CHL1  H15B 3864   0.023   2.585   5.380  0.4236 -0.6232  1.9021
   37CHL1   C16 3865   0.139   2.492   5.210  0.2193  0.1187  0.1147
   37CHL1  H16A 3866   0.112   2.398   5.157 -0.3595  1.2348 -1.6492
   37CHL1  H16B 3867   0.118   2.571   5.135  0.9404 -0.8448 -1.1400
   37CHL1   C17 3868   0.297   2.486   5.229  0.0540  0.4095  0.5031
   37CHL1   H17 3869   0.335   2.590   5.232  0.4126  0.3357 -0.8167
   37CHL1   C13 3870   0.323   2.418   5.365 -0.2312  0.0759 -0.1740
   37CHL1   C18 3871   0.269   2.273   5.348 -1.0808  0.3451 -0.2830
   37CHL1  H18A 3872   0.171   2.254   5.299 -1.3193 -0.7045  0.5577
   37CHL1  H18B 3873   0.344   2.218   5.288  2.5026  3.7245  0.6627
   37CHL1  H18C 3874   0.264   2.226   5.449  1.0208  0.9591  0.1618
   37CHL1   C12 3875   0.459   2.428   5.432 -0.4336 -0.2600 -0.0638
   37CHL1  H12A 3876   0.535   2.366   5.379 -1.7155 -1.0736 -0.9865
   37CHL1  H12B 3877   0.489   2.534   5.422  1.2297 -0.5432  1.2305
   37CHL1   C11 3878   0.450   2.386   5.580  0.3380 -0.3888 -0.3665
   37CHL1  H11A 3879   0.432   2.276   5.578  0.4528 -0.4298 -3.3021
   37CHL1  H11B 3880   0.552   2.404   5.622  0.1208  0.3707 -0.1486
   37CHL1    C9 3881   0.335   2.460   5.661 -0.8356 -0.2485 -0.8024
   37CHL1    H9 3882   0.375   2.563   5.658  0.3895 -0.6938 -0.3750
   37CHL1   C10 3883   0.339   2.422   5.810 -0.3680  0.8178  0.3162
   37CHL1   C19 3884   0.342   2.265   5.814 -0.5978  0.5854 -1.1215
   37CHL1  H19A 3885   0.253   2.217   5.767 -2.1812  1.4533  0.8642
   37CHL1  H19B 3886   0.429   2.211   5.771 -0.3441 -1.4547  1.6652
   37CHL1  H19C 3887   0.344   2.233   5.920 -0.2569  0.3166 -1.2052
   37CHL1    C1 3888   0.471   2.476   5.881  0.4047 -0.4707 -0.2593
   37CHL1   H1A 3889   0.560   2.428   5.835 -1.3402 -1.9049 -2.3924
   37CHL1   H1B 3890   0.478   2.581   5.846  1.0597 -1.2079 -2.5407
   37CHL1    C2 3891   0.483   2.477   6.035 -0.1429 -0.9214  0.5934
   37CHL1   H2A 3892   0.572   2.529   6.077  0.1303 -2.3048  1.8037
   37CHL1   H2B 3893   0.482   2.371   6.069 -1.1183 -1.0199  0.2994
   37CHL1   C20 3894   0.365   2.429   5.103 -0.0503 -0.5102  0.4817
   37CHL1   H20 3895   0.358   2.318   5.103 -1.6083 -0.4374 -0.3177
   37CHL1   C21 3896   0.513   2.478   5.107 -0.1451 -0.1023  0.3068
   37CHL1  H21A 3897   0.564   2.461   5.205 -0.2790 -2.0087  0.0922
   37CHL1  H21B 3898   0.523   2.587   5.092  2.0218 -0.4753 -1.5081
   37CHL1  H21C 3899   0.574   2.410   5.044  1.5349 -0.5052  2.2455
   37CHL1   C22 3900   0.304   2.478   4.967  0.1367 -0.0359 -0.0319
   37CHL1  H22A 3901   0.203   2.432   4.965  0.3887 -0.5885 -0.2583
   37CHL1  H22B 3902   0.295   2.589   4.975 -1.3148 -0.1292  0.0403
   37CHL1   C23 3903   0.382   2.435   4.840 -0.3200  0.4856 -0.4907
   37CHL1  H23A 3904   0.483   2.479   4.831  0.1408 -0.6982 -1.2407
   37CHL1  H23B 3905   0.399   2.325   4.841  0.9747  0.6439  1.5988
   37CHL1   C24 3906   0.310   2.484   4.712 -0.1636 -0.2905 -0.3481
   37CHL1  H24A 3907   0.208   2.456   4.746  0.1396 -0.8604  0.1188
   37CHL1  H24B 3908   0.326   2.593   4.701  0.2074 -0.3423 -0.3633
   37CHL1   C25 3909   0.351   2.408   4.590  0.8087 -0.6208  0.1945
   37CHL1   H25 3910   0.332   2.300   4.608 -0.6780 -0.4680 -0.3364
   37CHL1   C26 3911   0.277   2.449   4.463  0.5454 -0.0428  0.3565
   37CHL1  H26A 3912   0.169   2.433   4.484  0.8418 -2.5980  0.2919
   37CHL1  H26B 3913   0.291   2.554   4.430 -0.4957 -0.4107 -1.3425
   37CHL1  H26C 3914   0.308   2.378   4.384 -0.9755 -1.4813  0.9766
   37CHL1   C27 3915   0.504   2.412   4.553 -0.3065  0.4324 -0.4588
   37CHL1  H27A 3916   0.537   2.505   4.501  0.9878 -1.2898 -2.9573
   37CHL1  H27B 3917   0.558   2.397   4.649 -1.0686  2.7753  0.4127
   37CHL1  H27C 3918   0.527   2.324   4.489  0.3592  0.5310 -0.3686
   38CHL1    C3 3919   2.630   5.860   6.827 -0.7406 -0.4222 -0.1614
   38CHL1    H3 3920   2.550   5.787   6.804 -0.0115 -1.2582 -0.1281
   38CHL1    O3 3921   2.640   5.878   6.971  0.0978  0.6514  0.1835
   38CHL1   H3' 3922   2.667   5.968   6.990 -0.1000  1.5668 -3.1418
   38CHL1    C4 3923   2.752   5.792   6.777 -0.3727 -0.8977 -0.0719
   38CHL1   H4A 3924   2.841   5.853   6.807 -0.3754  0.0679 -1.8725
   38CHL1   H4B 3925   2.757   5.690   6.820  1.4361 -2.1999 -3.0572
   38CHL1    C5 3926   2.736   5.770   6.625 -0.8219 -0.4070 -0.4223
   38CHL1    C6 3927   2.732   5.652   6.565 -0.0455  0.6538 -0.8390
   38CHL1    H6 3928   2.724   5.562   6.627 -0.6226  1.5220  0.3900
   38CHL1    C7 3929   2.733   5.645   6.418  0.3377  0.5383  0.7952
   38CHL1   H7A 3930   2.801   5.562   6.390  0.6120  0.3696  1.9109
   38CHL1   H7B 3931   2.633   5.624   6.375  0.7897  0.9025 -0.4630
   38CHL1    C8 3932   2.775   5.770   6.339 -0.2866  1.1552 -0.6238
   38CHL1    H8 3933   2.884   5.775   6.360 -0.2150  0.7901 -0.8941
   38CHL1   C14 3934   2.753   5.754   6.186  0.0952  0.7923 -0.1428
   38CHL1   H14 3935   2.643   5.742   6.185  0.3060 -1.8273 -1.7798
   38CHL1   C15 3936   2.792   5.630   6.109  0.2055  0.4663 -0.7949
   38CHL1  H15A 3937   2.899   5.606   6.119 -0.0976 -0.4067  0.5699
   38CHL1  H15B 3938   2.716   5.556   6.143 -1.1643  2.3505  0.4384
   38CHL1   C16 3939   2.779   5.676   5.961  0.0615  0.2849  0.2285
   38CHL1  H16A 3940   2.882   5.666   5.920  0.9875  0.1141  2.4217
   38CHL1  H16B 3941   2.716   5.611   5.897  1.2501 -1.3098  0.6091
   38CHL1   C17 3942   2.745   5.830   5.959  0.3256 -0.4166 -0.0150
   38CHL1   H17 3943   2.636   5.843   5.941  0.5846  1.8051 -0.2459
   38CHL1   C13 3944   2.783   5.882   6.103  0.6771  0.1048  0.6499
   38CHL1   C18 3945   2.935   5.917   6.115 -0.0645 -0.1636  0.4613
   38CHL1  H18A 3946   2.939   6.014   6.061  0.0894  1.3933  3.1379
   38CHL1  H18B 3947   2.975   5.932   6.217  0.9853  3.2055 -0.3279
   38CHL1  H18C 3948   3.000   5.840   6.068 -0.2808  1.2435 -2.3823
   38CHL1   C12 3949   2.711   6.002   6.156 -0.6021 -0.0905  0.1332
   38CHL1  H12A 3950   2.726   6.100   6.106 -0.9886  0.3552  0.8683
   38CHL1  H12B 3951   2.603   5.983   6.140 -0.8884  1.1356  0.5005
   38CHL1   C11 3952   2.731   6.020   6.305  0.8428  0.1064 -0.0890
   38CHL1  H11A 3953   2.832   6.066   6.314 -0.0410  2.7257 -2.1362
   38CHL1  H11B 3954   2.660   6.094   6.349  0.1327 -0.9024  0.4899
   38CHL1    C9 3955   2.698   5.889   6.389  0.3856  0.5228 -0.2875
   38CHL1    H9 3956   2.591   5.866   6.372  1.3675 -2.8814 -3.0567
   38CHL1   C10 3957   2.729   5.903   6.540  0.2034  0.2781 -0.9095
   38CHL1   C19 3958   2.854   5.985   6.568 -0.4193  0.3358  0.4020
   38CHL1  H19A 3959   2.938   5.950   6.504 -0.6430  0.2376  0.1599
   38CHL1  H19B 3960   2.828   6.088   6.533  1.0747  0.0286 -1.8350
   38CHL1  H19C 3961   2.880   5.986   6.676 -1.4751  2.6398  0.6919
   38CHL1    C1 3962   2.603   5.978   6.597 -0.6472  0.9207  0.1674
   38CHL1   H1A 3963   2.595   6.075   6.544 -1.0979 -0.0625 -1.6751
   38CHL1   H1B 3964   2.507   5.925   6.577  0.8127 -1.5324 -0.8899
   38CHL1    C2 3965   2.602   5.995   6.754 -0.4408  0.1002  0.0921
   38CHL1   H2A 3966   2.512   6.047   6.793 -0.9950 -0.7884  0.0037
   38CHL1   H2B 3967   2.682   6.068   6.780 -0.2672 -0.3333  0.8029
   38CHL1   C20 3968   2.806   5.915   5.840  0.7869 -0.2618 -0.0612
   38CHL1   H20 3969   2.914   5.928   5.863  0.3209 -0.6378  2.7699
   38CHL1   C21 3970   2.746   6.055   5.827  0.2269 -0.4915  0.2917
   38CHL1  H21A 3971   2.778   6.108   5.735  1.1863 -1.4592  0.0510
   38CHL1  H21B 3972   2.772   6.125   5.909  2.6828 -0.6329 -0.2810
   38CHL1  H21C 3973   2.635   6.056   5.822  0.2440 -0.1634 -0.0603
   38CHL1   C22 3974   2.823   5.833   5.712  0.4565  0.1219 -0.3421
   38CHL1  H22A 3975   2.903   5.759   5.734  1.8991  1.6121 -0.3590
   38CHL1  H22B 3976   2.734   5.774   5.682  2.7049 -2.0034 -3.4526
   38CHL1   C23 3977   2.869   5.928   5.597 -0.0676  1.2544 -0.2656
   38CHL1  H23A 3978   2.789   6.004   5.581 -0.2065  1.0659 -0.4689
   38CHL1  H23B 3979   2.967   5.973   5.625 -0.0831  0.0979  1.7723
   38CHL1   C24 3980   2.883   5.850   5.464 -1.0353  0.2204 -0.0163
   38CHL1  H24A 3981   2.946   5.761   5.485 -0.1304  0.8746  0.1024
   38CHL1  H24B 3982   2.782   5.812   5.436 -0.3635 -0.3819 -1.7637
   38CHL1   C25 3983   2.926   5.938   5.346 -0.7703  0.1091 -0.5288
   38CHL1   H25 3984   2.908   5.865   5.263  2.1349 -2.3914  0.8464
   38CHL1   C26 3985   2.856   6.073   5.317 -0.1316  0.2350  0.0304
   38CHL1  H26A 3986   2.901   6.125   5.230  1.2092 -2.2953 -0.8965
   38CHL1  H26B 3987   2.747   6.057   5.307 -0.0488 -1.0627  0.9206
   38CHL1  H26C 3988   2.879   6.142   5.401  4.9058 -0.8902 -0.0995
   38CHL1   C27 3989   3.077   5.952   5.361 -0.6720 -0.1082  0.7641
   38CHL1  H27A 3990   3.131   5.855   5.365 -0.3001  0.1097  1.2221
   38CHL1  H27B 3991   3.112   6.000   5.267 -0.3698 -0.2206  0.8165
   38CHL1  H27C 3992   3.106   6.018   5.446 -1.9015  0.9113  0.4194
   39CHL1    C3 3993   3.055   4.874   6.668 -0.3084  0.7613  0.5112
   39CHL1    H3 3994   2.951   4.842   6.645  0.5902 -0.2612 -2.7610
   39CHL1    O3 3995   3.064   4.891   6.809  0.4685 -0.3786 -0.3031
   39CHL1   H3' 3996   3.074   4.802   6.842  0.3513 -0.7272 -1.1932
   39CHL1    C4 3997   3.168   4.778   6.623  0.9419 -0.2154  0.8398
   39CHL1   H4A 3998   3.265   4.817   6.662  0.6087  2.0803 -0.4677
   39CHL1   H4B 3999   3.148   4.686   6.682 -1.4497  0.1132  0.6086
   39CHL1    C5 4000   3.163   4.761   6.468  0.4361 -0.2866 -0.1517
   39CHL1    C6 4001   3.131   4.638   6.417 -0.7437 -0.4151 -0.2855
   39CHL1    H6 4002   3.104   4.546   6.470  0.1072 -2.9241 -3.8304
   39CHL1    C7 4003   3.124   4.619   6.266  0.0976  0.7571 -1.2696
   39CHL1   H7A 4004   3.172   4.523   6.238  1.6514  1.2091 -0.2870
   39CHL1   H7B 4005   3.017   4.603   6.239 -0.8197  1.9523  1.2384
   39CHL1    C8 4006   3.191   4.729   6.183 -0.8364 -0.1265  0.0914
   39CHL1    H8 4007   3.301   4.715   6.188 -0.6550  0.9185 -0.6662
   39CHL1   C14 4008   3.146   4.709   6.038 -0.6721 -0.0963  0.0677
   39CHL1   H14 4009   3.036   4.720   6.035 -0.5949  0.9499  0.4214
   39CHL1   C15 4010   3.165   4.575   5.959  0.6916  0.1095 -0.2461
   39CHL1  H15A 4011   3.262   4.522   5.963  0.3539 -0.5808 -0.9781
   39CHL1  H15B 4012   3.093   4.505   6.007 -0.4403  2.0583  1.0487
   39CHL1   C16 4013   3.131   4.607   5.817 -0.1119  0.1827  0.2543
   39CHL1  H16A 4014   3.219   4.575   5.757  1.1370  0.1475  2.0395
   39CHL1  H16B 4015   3.039   4.556   5.780 -1.6688  1.2566  2.4672
   39CHL1   C17 4016   3.123   4.761   5.815 -0.3589  0.6009  0.0701
   39CHL1   H17 4017   3.018   4.784   5.842 -1.4527 -1.3015 -2.1835
   39CHL1   C13 4018   3.188   4.813   5.946  0.3712 -0.1395 -0.2605
   39CHL1   C18 4019   3.340   4.820   5.938 -0.7581  0.4756 -0.6319
   39CHL1  H18A 4020   3.383   4.740   5.874 -1.3689 -1.7663  1.5970
   39CHL1  H18B 4021   3.369   4.916   5.890  2.3484  0.7101  1.4560
   39CHL1  H18C 4022   3.390   4.819   6.037 -1.1521 -1.9228 -0.3827
   39CHL1   C12 4023   3.129   4.948   5.998  0.3539 -0.0368  0.2497
   39CHL1  H12A 4024   3.158   5.016   5.915  0.5586 -0.2318  0.1606
   39CHL1  H12B 4025   3.018   4.935   5.997  0.1901  1.0018 -1.7272
   39CHL1   C11 4026   3.187   4.982   6.139  0.6109 -0.2988 -0.1251
   39CHL1  H11A 4027   3.298   4.986   6.138  0.6676  0.5507  2.4750
   39CHL1  H11B 4028   3.150   5.082   6.170  3.6617  0.6688  0.7890
   39CHL1    C9 4029   3.143   4.872   6.236 -0.6681 -0.3422 -0.3000
   39CHL1    H9 4030   3.032   4.880   6.229 -0.5485  0.7145 -1.3523
   39CHL1   C10 4031   3.182   4.895   6.385  0.1539  0.0221  0.6938
   39CHL1   C19 4032   3.333   4.939   6.394  0.3849 -0.4808  0.3639
   39CHL1  H19A 4033   3.402   4.874   6.335 -0.6580 -0.3843 -1.0002
   39CHL1  H19B 4034   3.354   5.036   6.344 -0.5657 -1.1787 -1.5047
   39CHL1  H19C 4035   3.372   4.963   6.495 -2.2385  0.0211  1.3195
   39CHL1    C1 4036   3.079   4.996   6.448 -0.1306  0.2353 -0.1030
   39CHL1   H1A 4037   3.084   5.096   6.400 -1.9644 -0.2791 -1.4810
   39CHL1   H1B 4038   2.979   4.950   6.433 -0.5744  0.7182  1.2155
   39CHL1    C2 4039   3.085   5.005   6.600  0.0592 -0.2987  0.2248
   39CHL1   H2A 4040   3.015   5.088   6.623 -0.9866 -0.9196 -0.5962
   39CHL1   H2B 4041   3.185   5.028   6.643 -0.2761  0.4603  0.6269
   39CHL1   C20 4042   3.152   4.841   5.682 -1.1380 -0.6510  0.3810
   39CHL1   H20 4043   3.170   4.949   5.703 -1.7870 -0.6803  1.1326
   39CHL1   C21 4044   3.013   4.842   5.618 -0.2293  0.2426  0.1629
   39CHL1  H21A 4045   3.020   4.860   5.508 -0.5961 -3.5437 -0.6199
   39CHL1  H21B 4046   2.943   4.914   5.666 -1.5369 -1.7891  1.4440
   39CHL1  H21C 4047   2.958   4.745   5.622 -0.9205  0.6654  1.1901
   39CHL1   C22 4048   3.263   4.788   5.583 -0.4878 -0.1389 -0.0170
   39CHL1  H22A 4049   3.360   4.764   5.630  0.3398  1.3768 -0.8799
   39CHL1  H22B 4050   3.228   4.698   5.527  1.8567  0.0007 -1.8566
   39CHL1   C23 4051   3.288   4.885   5.464 -0.3810  0.2568  0.1217
   39CHL1  H23A 4052   3.199   4.933   5.419 -0.3492  1.8056  1.6153
   39CHL1  H23B 4053   3.345   4.972   5.503  0.4581  1.1676 -2.8976
   39CHL1   C24 4054   3.382   4.839   5.352  0.6542 -0.4786  0.6463
   39CHL1  H24A 4055   3.469   4.784   5.394  1.0894 -1.5678 -1.5050
   39CHL1  H24B 4056   3.322   4.764   5.296  1.4152 -0.5314 -0.1235
   39CHL1   C25 4057   3.436   4.956   5.265  0.0809 -0.1945  0.1306
   39CHL1   H25 4058   3.456   5.026   5.349 -2.8693  0.0232  0.7710
   39CHL1   C26 4059   3.569   4.931   5.194 -0.0399 -0.6369 -0.5222
   39CHL1  H26A 4060   3.573   5.007   5.113 -1.1619 -1.0793 -1.0208
   39CHL1  H26B 4061   3.654   4.935   5.266 -0.6634 -1.6904  0.3023
   39CHL1  H26C 4062   3.576   4.828   5.152  0.1705 -0.8071 -0.0743
   39CHL1   C27 4063   3.319   4.993   5.176  0.3009  0.3735 -0.5081
   39CHL1  H27A 4064   3.302   4.907   5.108  0.0929  0.0539 -0.0509
   39CHL1  H27B 4065   3.223   5.020   5.225  1.3269 -1.0816  2.4918
   39CHL1  H27C 4066   3.359   5.079   5.118  1.5359 -0.4496 -0.9212
   40CHL1    C3 4067   2.982   1.421   6.377 -0.2233  0.0646 -0.3651
   40CHL1    H3 4068   2.908   1.340   6.359  0.4701 -0.6094 -0.2248
   40CHL1    O3 4069   2.970   1.479   6.504 -0.1753  0.0799 -0.2321
   40CHL1   H3' 4070   2.999   1.570   6.496 -0.3073 -0.0262 -2.6156
   40CHL1    C4 4071   3.113   1.339   6.363 -0.6744 -0.4303  0.0244
   40CHL1   H4A 4072   3.194   1.403   6.403 -0.1166 -1.0604 -0.0778
   40CHL1   H4B 4073   3.100   1.264   6.444 -0.2082 -0.0906  0.4223
   40CHL1    C5 4074   3.134   1.277   6.224  0.0842  0.1918  0.1636
   40CHL1    C6 4075   3.150   1.145   6.198 -0.1072 -0.6213  0.2285
   40CHL1    H6 4076   3.175   1.067   6.271 -0.6102 -0.7474  0.2651
   40CHL1    C7 4077   3.171   1.095   6.057  0.2401 -1.2274 -0.3361
   40CHL1   H7A 4078   3.258   1.027   6.049 -0.1826 -1.6264 -1.7137
   40CHL1   H7B 4079   3.079   1.047   6.019 -0.2376 -0.9759  0.4800
   40CHL1    C8 4080   3.208   1.211   5.950 -0.5043 -0.8855 -0.8184
   40CHL1    H8 4081   3.310   1.250   5.972  0.3718 -3.0046 -0.8927
   40CHL1   C14 4082   3.199   1.158   5.811  0.2728  0.2222  0.6619
   40CHL1   H14 4083   3.091   1.140   5.792 -0.0744  0.6369  2.1127
   40CHL1   C15 4084   3.273   1.028   5.774 -0.0718  0.8819  0.9835
   40CHL1  H15A 4085   3.381   1.039   5.798  0.9179 -2.3701 -1.2908
   40CHL1  H15B 4086   3.230   0.949   5.839 -0.4949  2.2084  2.3972
   40CHL1   C16 4087   3.260   1.026   5.620  0.3476 -0.4608 -0.0206
   40CHL1  H16A 4088   3.356   0.985   5.582  0.2998 -1.1762  0.6006
   40CHL1  H16B 4089   3.181   0.965   5.571 -0.0924  1.6374 -2.0541
   40CHL1   C17 4090   3.218   1.169   5.576  0.3558 -0.4086  0.4790
   40CHL1   H17 4091   3.110   1.171   5.548  0.7736  3.1571 -1.6022
   40CHL1   C13 4092   3.238   1.255   5.699 -0.4678  0.3711 -0.6392
   40CHL1   C18 4093   3.382   1.302   5.712 -1.2527  0.3440 -0.3709
   40CHL1  H18A 4094   3.463   1.228   5.694 -0.0416  1.0139  1.9615
   40CHL1  H18B 4095   3.397   1.389   5.644 -0.6077  1.8039  1.5612
   40CHL1  H18C 4096   3.406   1.343   5.812 -0.6829 -1.2239  0.1683
   40CHL1   C12 4097   3.143   1.374   5.709  0.4505  0.1098 -0.1213
   40CHL1  H12A 4098   3.187   1.450   5.641 -0.1541 -0.9983 -1.8235
   40CHL1  H12B 4099   3.044   1.341   5.670 -0.4846  1.1581  1.2397
   40CHL1   C11 4100   3.128   1.431   5.855 -0.6564 -0.4045 -0.4068
   40CHL1  H11A 4101   3.222   1.488   5.863 -0.4707 -0.4399 -1.9806
   40CHL1  H11B 4102   3.039   1.498   5.856  0.4208  1.0791  0.4342
   40CHL1    C9 4103   3.112   1.326   5.971 -0.0459  0.2942 -0.2717
   40CHL1    H9 4104   3.010   1.287   5.953  0.3234  0.5672 -3.4496
   40CHL1   C10 4105   3.112   1.385   6.114 -0.3814  0.2817  0.5627
   40CHL1   C19 4106   3.232   1.483   6.126  0.1528  0.1666 -0.4648
   40CHL1  H19A 4107   3.331   1.442   6.097  0.1049  1.2281 -2.2777
   40CHL1  H19B 4108   3.208   1.572   6.064 -0.1639 -1.1728 -2.3564
   40CHL1  H19C 4109   3.245   1.520   6.230 -0.8289 -0.1746 -0.2099
   40CHL1    C1 4110   2.979   1.460   6.134 -0.3226  0.6281  0.1923
   40CHL1   H1A 4111   2.967   1.534   6.052  1.9728 -0.5643 -1.3432
   40CHL1   H1B 4112   2.890   1.394   6.130 -0.6233  1.0390  0.0449
   40CHL1    C2 4113   2.966   1.526   6.266 -0.3818 -0.4886 -0.3548
   40CHL1   H2A 4114   2.871   1.581   6.279  0.2034 -0.0991  3.4937
   40CHL1   H2B 4115   3.039   1.609   6.274  0.6589 -1.5553  2.5823
   40CHL1   C20 4116   3.285   1.214   5.442 -0.6727  0.8244  0.2476
   40CHL1   H20 4117   3.392   1.238   5.458 -0.4570  0.0954 -0.0365
   40CHL1   C21 4118   3.226   1.346   5.401  1.0912  0.0766  0.3048
   40CHL1  H21A 4119   3.248   1.372   5.295  1.1252 -1.0639  0.0186
   40CHL1  H21B 4120   3.270   1.426   5.463  1.8139 -0.2018  0.1613
   40CHL1  H21C 4121   3.115   1.350   5.415  0.4785 -1.6033 -2.9396
   40CHL1   C22 4122   3.275   1.114   5.316 -0.1515 -0.3076 -0.1986
   40CHL1  H22A 4123   3.333   1.161   5.234  3.3946 -0.2116  2.1226
   40CHL1  H22B 4124   3.325   1.019   5.348 -0.4104 -0.8963 -1.4988
   40CHL1   C23 4125   3.134   1.089   5.261 -0.2959 -0.1091 -0.7197
   40CHL1  H23A 4126   3.063   1.071   5.344 -0.9245 -1.9844 -1.5981
   40CHL1  H23B 4127   3.099   1.180   5.208 -2.7900 -0.8508 -0.4509
   40CHL1   C24 4128   3.125   0.962   5.179 -0.6982  0.5781  0.3028
   40CHL1  H24A 4129   3.211   0.965   5.109 -1.6352 -0.5709 -0.9488
   40CHL1  H24B 4130   3.134   0.871   5.243 -2.2752 -0.8604 -1.3987
   40CHL1   C25 4131   2.995   0.948   5.096  0.4553  0.2950 -0.4607
   40CHL1   H25 4132   3.012   0.853   5.040 -0.9331 -0.4444  0.2881
   40CHL1   C26 4133   2.869   0.925   5.183  0.4865  0.5879  0.6181
   40CHL1  H26A 4134   2.884   0.846   5.259  1.6236  1.6571  1.5503
   40CHL1  H26B 4135   2.842   1.016   5.240 -0.2059 -0.8911  2.7805
   40CHL1  H26C 4136   2.788   0.896   5.112  0.2348  1.2029  0.6520
   40CHL1   C27 4137   2.972   1.052   4.991 -0.6321 -0.1363 -0.4255
   40CHL1  H27A 4138   3.043   1.047   4.907  0.6233  3.4746  0.2658
   40CHL1  H27B 4139   2.872   1.042   4.942 -0.5840 -0.2551 -0.5001
   40CHL1  H27C 4140   2.970   1.157   5.026 -0.8958  0.3775 -1.9306
   41CHL1    C3 4141   0.637   3.038   6.317  0.6031 -0.2197  0.5333
   41CHL1    H3 4142   0.594   3.132   6.276  1.3367 -0.5754 -1.1271
   41CHL1    O3 4143   0.622   3.039   6.459 -0.0649 -0.2538 -0.3621
   41CHL1   H3' 4144   0.640   2.946   6.479  0.3122 -0.5593 -2.0036
   41CHL1    C4 4145   0.556   2.929   6.261  0.4426 -0.2203  0.4260
   41CHL1   H4A 4146   0.578   2.825   6.292  1.6658  0.1748  0.9154
   41CHL1   H4B 4147   0.456   2.957   6.302  0.8953 -0.5546  1.7888
   41CHL1    C5 4148   0.552   2.935   6.107  0.3322  1.0103  0.3307
   41CHL1    C6 4149   0.437   2.954   6.037  0.1755  0.0381 -0.0561
   41CHL1    H6 4150   0.344   2.974   6.094 -0.3839 -1.1711 -0.5206
   41CHL1    C7 4151   0.429   2.968   5.891 -0.0229  0.0872 -0.8211
   41CHL1   H7A 4152   0.340   2.912   5.854 -0.5138 -0.0096  0.4539
   41CHL1   H7B 4153   0.408   3.076   5.877  0.5821  0.7474  2.6036
   41CHL1    C8 4154   0.563   2.919   5.822  0.8153  0.2014 -0.6286
   41CHL1    H8 4155   0.565   2.808   5.821  0.0357  0.1742 -1.2616
   41CHL1   C14 4156   0.559   2.948   5.671 -0.0732  0.4323 -0.3721
   41CHL1   H14 4157   0.539   3.057   5.671  0.7561  0.5979  0.7788
   41CHL1   C15 4158   0.439   2.890   5.594 -0.9736  0.3288  0.6070
   41CHL1  H15A 4159   0.442   2.780   5.609  4.3328  0.0318 -0.5498
   41CHL1  H15B 4160   0.340   2.924   5.630 -2.4001 -1.0059 -1.7769
   41CHL1   C16 4161   0.478   2.915   5.449  0.0128  0.0494  0.7333
   41CHL1  H16A 4162   0.463   2.823   5.389  3.2749 -1.2125  1.6458
   41CHL1  H16B 4163   0.405   2.989   5.410  0.1459 -0.2037  0.0031
   41CHL1   C17 4164   0.631   2.963   5.452 -0.2308 -0.3509  0.7212
   41CHL1   H17 4165   0.636   3.074   5.459  2.6305 -0.4669  1.7829
   41CHL1   C13 4166   0.684   2.912   5.590 -0.3352  0.4368  0.0193
   41CHL1   C18 4167   0.702   2.759   5.594 -0.6170 -0.1197  0.2679
   41CHL1  H18A 4168   0.614   2.702   5.556 -2.4928  2.4433  0.4448
   41CHL1  H18B 4169   0.794   2.720   5.546 -0.1358 -0.3636  1.3567
   41CHL1  H18C 4170   0.721   2.732   5.700  5.3399 -2.5855 -1.0242
   41CHL1   C12 4171   0.798   2.989   5.653 -0.0324 -0.0053 -0.2914
   41CHL1  H12A 4172   0.890   2.966   5.596  0.1105  0.4549 -0.2446
   41CHL1  H12B 4173   0.790   3.096   5.624  2.1916  0.0960 -0.7378
   41CHL1   C11 4174   0.812   2.961   5.807  1.0327  0.9601  0.3726
   41CHL1  H11A 4175   0.849   2.856   5.803 -2.6584 -0.5428  1.1615
   41CHL1  H11B 4176   0.885   3.027   5.858  0.6459  0.2418  1.9470
   41CHL1    C9 4177   0.681   2.976   5.892  0.5360 -0.1973  0.6570
   41CHL1    H9 4178   0.686   3.087   5.894  3.1102 -0.2393  0.4662
   41CHL1   C10 4179   0.690   2.929   6.041 -0.0417  0.6142 -0.1567
   41CHL1   C19 4180   0.756   2.786   6.042 -0.0359 -0.6968 -0.3281
   41CHL1  H19A 4181   0.737   2.748   6.145  0.4261 -1.4690 -0.5177
   41CHL1  H19B 4182   0.700   2.731   5.964 -1.1194  0.1216 -0.1437
   41CHL1  H19C 4183   0.862   2.793   6.010 -0.0787 -2.7426 -1.0398
   41CHL1    C1 4184   0.784   3.021   6.117  0.7086  0.9134  0.0016
   41CHL1   H1A 4185   0.890   3.021   6.083  0.2200  1.3034 -1.6370
   41CHL1   H1B 4186   0.753   3.126   6.098 -3.4584 -0.1202  0.2100
   41CHL1    C2 4187   0.780   3.013   6.275 -0.0893  0.0157 -0.0344
   41CHL1   H2A 4188   0.855   3.086   6.312 -1.5376  1.8250 -0.5573
   41CHL1   H2B 4189   0.807   2.912   6.313 -0.1856 -0.4678 -1.1935
   41CHL1   C20 4190   0.698   2.915   5.322 -0.6194  0.3826 -1.2718
   41CHL1   H20 4191   0.709   2.804   5.321 -1.1317  0.3017  0.0105
   41CHL1   C21 4192   0.837   2.969   5.327  0.2187 -0.5715  0.9411
   41CHL1  H21A 4193   0.830   3.080   5.334  0.5419 -0.4376 -0.4274
   41CHL1  H21B 4194   0.892   2.953   5.232 -4.0578 -0.3764 -1.8717
   41CHL1  H21C 4195   0.912   2.925   5.395  1.5101  1.0306  0.6131
   41CHL1   C22 4196   0.625   2.966   5.204  0.2980  0.2159  0.2482
   41CHL1  H22A 4197   0.521   2.928   5.214  0.2839 -0.2897 -1.4087
   41CHL1  H22B 4198   0.618   3.077   5.212 -1.0015  0.1544  0.2153
   41CHL1   C23 4199   0.661   2.919   5.063 -0.4608 -0.1369 -0.1468
   41CHL1  H23A 4200   0.759   2.967   5.037  0.0952 -1.6303 -0.9015
   41CHL1  H23B 4201   0.687   2.811   5.057  0.1962 -0.1657  2.1024
   41CHL1   C24 4202   0.561   2.963   4.956  0.1606  0.4961  0.5682
   41CHL1  H24A 4203   0.459   2.927   4.982  0.2343 -1.1618 -1.1592
   41CHL1  H24B 4204   0.557   3.074   4.953 -0.7114  0.4537 -0.4561
   41CHL1   C25 4205   0.594   2.891   4.819  0.1010 -0.1733 -0.1889
   41CHL1   H25 4206   0.620   2.784   4.833 -0.7297 -0.3104  0.3491
   41CHL1   C26 4207   0.474   2.904   4.721  0.5325 -0.3227 -0.1984
   41CHL1  H26A 4208   0.376   2.873   4.765  0.6466  0.5547  0.7052
   41CHL1  H26B 4209   0.459   3.011   4.694 -0.1652  0.0674  1.6257
   41CHL1  H26C 4210   0.494   2.842   4.631 -1.9943 -3.7332  1.3412
   41CHL1   C27 4211   0.716   2.951   4.753  0.3471 -0.1124  0.0258
   41CHL1  H27A 4212   0.805   2.904   4.800 -0.3318 -2.8705 -1.2017
   41CHL1  H27B 4213   0.714   2.927   4.645 -0.3860  2.2601 -0.5379
   41CHL1  H27C 4214   0.720   3.062   4.755 -2.6304  0.0908 -0.0111
   42CHL1    C3 4215   5.924   4.040   6.446 -1.0988  1.3234 -0.2167
   42CHL1    H3 4216   5.879   4.133   6.406 -1.5723  1.3772  0.4160
   42CHL1    O3 4217   5.912   4.028   6.584 -0.1797 -0.4412 -0.4071
   42CHL1   H3' 4218   5.970   3.955   6.610  3.1155  2.2500  0.5625
   42CHL1    C4 4219   5.857   3.923   6.379 -0.0948  0.2312 -0.1838
   42CHL1   H4A 4220   5.872   3.833   6.443  0.1384 -0.3300 -1.0122
   42CHL1   H4B 4221   5.747   3.939   6.381 -0.6721 -2.2059 -3.6384
   42CHL1    C5 4222   5.899   3.891   6.238  0.3399 -0.7667 -0.6649
   42CHL1    C6 4223   5.811   3.882   6.136  0.9722 -0.3300 -0.1700
   42CHL1    H6 4224   5.703   3.900   6.152  1.2669  0.3736  1.2051
   42CHL1    C7 4225   5.853   3.857   5.992 -0.0751  0.3915 -0.1028
   42CHL1   H7A 4226   5.776   3.790   5.947 -2.5886  2.6713  0.5047
   42CHL1   H7B 4227   5.854   3.953   5.935  0.4446  0.0572 -0.6577
   42CHL1    C8 4228   5.996   3.791   5.992 -0.1916 -0.2126 -0.8805
   42CHL1    H8 4229   5.987   3.690   6.037  0.2701  0.8149  1.6637
   42CHL1   C14 4230   6.047   3.764   5.853 -0.0954 -0.3327  0.3150
   42CHL1   H14 4231   6.052   3.866   5.809 -0.0037 -0.5003 -0.0637
   42CHL1   C15 4232   5.952   3.700   5.748 -0.0010  0.4628  0.3081
   42CHL1  H15A 4233   5.887   3.619   5.788 -1.5567  0.1416 -2.5749
   42CHL1  H15B 4234   5.886   3.779   5.704  1.3976  0.9448 -1.0124
   42CHL1   C16 4235   6.046   3.643   5.637  0.6261 -0.0858  1.0417
   42CHL1  H16A 4236   6.026   3.534   5.634 -0.6416  0.1181  1.6354
   42CHL1  H16B 4237   6.025   3.689   5.538  0.8431 -0.4201  0.8366
   42CHL1   C17 4238   6.189   3.677   5.687 -0.1847 -0.4131  0.0094
   42CHL1   H17 4239   6.212   3.779   5.648 -1.3440 -1.0138 -2.4498
   42CHL1   C13 4240   6.185   3.700   5.845  0.4670  0.2370 -0.0836
   42CHL1   C18 4241   6.171   3.565   5.916  0.5430  0.3144  0.7458
   42CHL1  H18A 4242   6.147   3.574   6.024 -4.1717 -1.9393  0.1383
   42CHL1  H18B 4243   6.083   3.508   5.881  2.6466 -3.5889  1.2064
   42CHL1  H18C 4244   6.260   3.499   5.902  0.4663 -0.5458  3.7204
   42CHL1   C12 4245   6.288   3.795   5.911 -0.1159  0.0953  0.0423
   42CHL1  H12A 4246   6.390   3.751   5.906  0.8375  2.1902 -0.0540
   42CHL1  H12B 4247   6.289   3.884   5.845 -0.6036 -0.3173 -0.5274
   42CHL1   C11 4248   6.251   3.829   6.057 -0.3451  0.1400 -0.1185
   42CHL1  H11A 4249   6.279   3.745   6.124 -0.1892  0.6770  0.4971
   42CHL1  H11B 4250   6.313   3.918   6.082  0.8808 -0.7081 -0.0589
   42CHL1    C9 4251   6.099   3.872   6.079 -0.8653 -0.9988 -0.8746
   42CHL1    H9 4252   6.087   3.972   6.031  2.9895 -0.2967 -0.7282
   42CHL1   C10 4253   6.052   3.892   6.223 -0.2618  0.5257 -0.4363
   42CHL1   C19 4254   6.106   3.771   6.310  0.1195 -0.6973  0.0035
   42CHL1  H19A 4255   6.216   3.784   6.310 -0.0949  1.6198 -0.9241
   42CHL1  H19B 4256   6.074   3.782   6.416 -1.3558  2.8276 -0.6490
   42CHL1  H19C 4257   6.072   3.672   6.274  0.6797 -1.1775  0.7587
   42CHL1    C1 4258   6.113   4.022   6.275  0.4238 -0.1420  0.2723
   42CHL1   H1A 4259   6.222   4.021   6.256  0.1115  1.7474 -2.1685
   42CHL1   H1B 4260   6.072   4.103   6.211  0.1019 -1.3479 -1.1173
   42CHL1    C2 4261   6.073   4.053   6.422 -0.0600  0.7849  0.7780
   42CHL1   H2A 4262   6.113   4.152   6.456 -2.5698  1.4640  2.0405
   42CHL1   H2B 4263   6.122   3.967   6.472 -0.1777  0.5085  0.4175
   42CHL1   C20 4264   6.298   3.582   5.625  0.5479  0.1133  0.0317
   42CHL1   H20 4265   6.276   3.487   5.678 -1.2370  0.7904  0.5800
   42CHL1   C21 4266   6.443   3.635   5.660  0.1900  0.6010 -0.7812
   42CHL1  H21A 4267   6.454   3.736   5.615  1.9689  0.7017 -0.2289
   42CHL1  H21B 4268   6.509   3.559   5.613 -2.6539 -2.6070  0.0255
   42CHL1  H21C 4269   6.460   3.629   5.770  4.8397  2.2322 -1.1696
   42CHL1   C22 4270   6.295   3.558   5.473  0.5962 -0.6540 -0.1698
   42CHL1  H22A 4271   6.392   3.517   5.439  1.5562  2.3434 -1.3531
   42CHL1  H22B 4272   6.215   3.487   5.444  1.1961 -1.8593  1.0399
   42CHL1   C23 4273   6.275   3.693   5.398 -0.1126 -0.0670 -0.2409
   42CHL1  H23A 4274   6.195   3.761   5.435  2.1160  2.7019 -0.1006
   42CHL1  H23B 4275   6.369   3.745   5.426  0.0424 -0.2125 -0.4889
   42CHL1   C24 4276   6.276   3.700   5.242 -0.2850 -0.1618 -0.5980
   42CHL1  H24A 4277   6.376   3.665   5.211  0.5475  1.7891 -0.2585
   42CHL1  H24B 4278   6.192   3.640   5.200 -0.4420  0.2798 -0.9123
   42CHL1   C25 4279   6.258   3.842   5.181 -0.6288  0.2658  0.4328
   42CHL1   H25 4280   6.337   3.905   5.228  1.2506 -0.6731 -1.2581
   42CHL1   C26 4281   6.298   3.838   5.033 -0.6145 -0.6702  0.5196
   42CHL1  H26A 4282   6.239   3.763   4.975  0.6642 -0.2608 -1.4142
   42CHL1  H26B 4283   6.291   3.938   4.985 -1.8335 -0.6704  0.6737
   42CHL1  H26C 4284   6.405   3.814   5.016 -0.2201 -0.4881  2.4593
   42CHL1   C27 4285   6.117   3.886   5.187  0.0903 -0.7672 -0.1121
   42CHL1  H27A 4286   6.118   3.995   5.162 -0.4433 -0.4104  1.3655
   42CHL1  H27B 4287   6.054   3.833   5.112  0.7327 -3.1186  0.9231
   42CHL1  H27C 4288   6.076   3.881   5.290 -0.5900  0.6579 -0.2795
   43CHL1    C3 4289   6.577   4.410   6.351 -0.0533  0.0170  0.2242
   43CHL1    H3 4290   6.558   4.495   6.283 -0.1117  0.4056  0.7232
   43CHL1    O3 4291   6.544   4.454   6.480 -0.4167  0.0989  0.0985
   43CHL1   H3' 4292   6.459   4.421   6.512  0.4368 -1.1884  1.1380
   43CHL1    C4 4293   6.491   4.290   6.312  0.0335 -0.4711  0.1950
   43CHL1   H4A 4294   6.536   4.203   6.365  2.3063  1.0334  0.8455
   43CHL1   H4B 4295   6.384   4.295   6.342 -0.2285 -0.8092 -0.6439
   43CHL1    C5 4296   6.513   4.257   6.166  0.1193  0.8330 -0.6255
   43CHL1    C6 4297   6.410   4.252   6.079  0.3838 -0.4144 -0.3430
   43CHL1    H6 4298   6.312   4.292   6.108  1.6266  3.3506 -0.7615
   43CHL1    C7 4299   6.422   4.184   5.942  0.3855  0.1876 -0.3472
   43CHL1   H7A 4300   6.349   4.103   5.923  1.1993 -0.4978 -0.6394
   43CHL1   H7B 4301   6.399   4.266   5.871 -2.2664  0.2299  0.4541
   43CHL1    C8 4302   6.566   4.127   5.913  0.0913  0.5380  0.2350
   43CHL1    H8 4303   6.559   4.021   5.947 -2.3114  0.4341 -0.3835
   43CHL1   C14 4304   6.589   4.121   5.763  0.4500  0.0360 -0.3095
   43CHL1   H14 4305   6.586   4.226   5.727 -1.3253 -0.0863 -0.5877
   43CHL1   C15 4306   6.479   4.050   5.673  0.2362 -0.0684  0.0956
   43CHL1  H15A 4307   6.452   3.952   5.717 -1.2806 -0.0622 -0.7520
   43CHL1  H15B 4308   6.382   4.102   5.667 -0.9677 -2.2003 -0.0220
   43CHL1   C16 4309   6.555   4.038   5.540  0.2373 -0.0440 -0.1799
   43CHL1  H16A 4310   6.533   3.936   5.501 -0.2818 -0.1506  0.3775
   43CHL1  H16B 4311   6.507   4.116   5.477  0.3802  0.3443  0.1878
   43CHL1   C17 4312   6.704   4.052   5.563 -0.8254  0.1233 -0.6271
   43CHL1   H17 4313   6.743   4.150   5.527  1.7363 -0.9857 -1.0608
   43CHL1   C13 4314   6.723   4.052   5.724 -0.4544  0.0306 -0.0655
   43CHL1   C18 4315   6.722   3.900   5.765  0.6894  0.2156  0.7302
   43CHL1  H18A 4316   6.647   3.833   5.718 -0.7337  0.5198  2.4711
   43CHL1  H18B 4317   6.819   3.857   5.730  0.7067  2.5984 -2.6299
   43CHL1  H18C 4318   6.720   3.888   5.875 -0.7343 -1.6140  0.5450
   43CHL1   C12 4319   6.832   4.132   5.783 -0.0445 -0.6122  0.3032
   43CHL1  H12A 4320   6.927   4.082   5.755  0.2149  0.6688 -1.2964
   43CHL1  H12B 4321   6.831   4.234   5.737 -3.2147 -1.6535 -2.3285
   43CHL1   C11 4322   6.819   4.148   5.936 -0.1514 -0.6435  0.0343
   43CHL1  H11A 4323   6.840   4.046   5.975  1.5433 -0.1024  0.6016
   43CHL1  H11B 4324   6.897   4.210   5.985 -0.1520 -0.9113  0.3790
   43CHL1    C9 4325   6.683   4.208   5.979 -0.3281 -0.2582 -0.3595
   43CHL1    H9 4326   6.672   4.309   5.934 -0.3062 -0.0371  0.1203
   43CHL1   C10 4327   6.657   4.214   6.135 -0.1492 -0.1235 -0.2052
   43CHL1   C19 4328   6.695   4.077   6.193 -0.4360  0.3303 -0.2762
   43CHL1  H19A 4329   6.680   4.068   6.302  0.9115 -0.6373 -0.1445
   43CHL1  H19B 4330   6.640   3.991   6.148 -0.8487  1.1188 -1.2987
   43CHL1  H19C 4331   6.802   4.046   6.182 -0.4641 -0.1031  0.6240
   43CHL1    C1 4332   6.751   4.325   6.192 -0.1387  0.4240  0.2710
   43CHL1   H1A 4333   6.855   4.284   6.189 -0.1955  0.3207 -0.5274
   43CHL1   H1B 4334   6.743   4.417   6.130 -0.2881  0.2581  0.0441
   43CHL1    C2 4335   6.723   4.375   6.341  0.0472  0.2198 -0.2758
   43CHL1   H2A 4336   6.790   4.460   6.365  0.1490 -0.2288  1.0867
   43CHL1   H2B 4337   6.737   4.293   6.414 -0.9163 -0.6750 -1.0653
   43CHL1   C20 4338   6.780   3.936   5.485  0.0155 -0.2186  0.2482
   43CHL1   H20 4339   6.744   3.837   5.521 -0.6719 -0.5995 -1.3852
   43CHL1   C21 4340   6.934   3.946   5.503 -0.0802 -0.4867  0.0278
   43CHL1  H21A 4341   6.950   4.047   5.461 -0.9567 -0.4822 -0.3219
   43CHL1  H21B 4342   6.990   3.882   5.432 -0.1566 -1.7308  1.0516
   43CHL1  H21C 4343   6.975   3.931   5.605 -1.9074 -0.9609  0.7432
   43CHL1   C22 4344   6.758   3.940   5.330  0.4110  0.5787  0.4884
   43CHL1  H22A 4345   6.808   3.853   5.282  0.4977  1.0491 -0.2921
   43CHL1  H22B 4346   6.651   3.925   5.303  0.5762  1.1133 -0.5185
   43CHL1   C23 4347   6.791   4.066   5.257  0.7763 -0.3071 -0.2289
   43CHL1  H23A 4348   6.728   4.146   5.302 -2.2505 -2.6626  0.0811
   43CHL1  H23B 4349   6.899   4.082   5.277  0.3657  0.9916  1.0963
   43CHL1   C24 4350   6.785   4.059   5.101 -0.3336 -0.1649 -0.2933
   43CHL1  H24A 4351   6.836   4.147   5.056  2.1950 -0.9746  0.8269
   43CHL1  H24B 4352   6.852   3.977   5.067  3.0776  1.8838  1.0874
   43CHL1   C25 4353   6.641   4.037   5.045 -0.1168 -0.2976 -0.3115
   43CHL1   H25 4354   6.608   3.937   5.081 -0.4982  1.2711  4.3742
   43CHL1   C26 4355   6.544   4.142   5.089  0.6375  0.4863  0.4477
   43CHL1  H26A 4356   6.601   4.233   5.063  2.5164 -0.9179 -0.6233
   43CHL1  H26B 4357   6.441   4.132   5.047  0.2915  2.2923  0.7878
   43CHL1  H26C 4358   6.532   4.143   5.199  0.1271 -1.4150  0.4445
   43CHL1   C27 4359   6.648   4.025   4.891  0.0641  0.4235  0.0289
   43CHL1  H27A 4360   6.545   4.020   4.849 -0.9775  0.0458  2.4611
   43CHL1  H27B 4361   6.695   4.117   4.851  1.4147 -1.3371 -2.6981
   43CHL1  H27C 4362   6.700   3.936   4.850 -0.9925 -0.6461  0.9381
   44CHL1    C3 4363   5.377   5.913   6.594  0.0566 -0.2360  0.2556
   44CHL1    H3 4364   5.426   5.962   6.508 -2.7649  1.2311 -0.6298
   44CHL1    O3 4365   5.384   6.005   6.706 -0.5331  0.9161 -0.0439
   44CHL1   H3' 4366   5.413   5.951   6.780  2.5806  1.2705 -0.8526
   44CHL1    C4 4367   5.225   5.885   6.551 -0.3808 -0.1008 -0.1371
   44CHL1   H4A 4368   5.176   5.840   6.640  2.2815 -1.0351  0.9593
   44CHL1   H4B 4369   5.188   5.984   6.517  1.6038  0.2860 -1.3210
   44CHL1    C5 4370   5.225   5.799   6.427 -0.5858 -0.0214  0.4543
   44CHL1    C6 4371   5.153   5.831   6.317 -0.5867  0.1236  0.7170
   44CHL1    H6 4372   5.087   5.919   6.318  0.3177  0.8983 -1.3490
   44CHL1    C7 4373   5.159   5.755   6.185  0.7450 -0.1343 -0.0349
   44CHL1   H7A 4374   5.059   5.751   6.139  0.2742 -0.2067  0.9711
   44CHL1   H7B 4375   5.235   5.792   6.112 -0.9094  2.8461 -0.4023
   44CHL1    C8 4376   5.196   5.611   6.215 -0.1315 -0.5946 -0.0384
   44CHL1    H8 4377   5.116   5.554   6.266  0.2689 -1.6761 -0.5639
   44CHL1   C14 4378   5.223   5.544   6.082  0.1011  0.7904 -0.6131
   44CHL1   H14 4379   5.308   5.595   6.033 -0.8813  2.9760 -0.1801
   44CHL1   C15 4380   5.105   5.548   5.976  0.1266  0.6417 -0.1965
   44CHL1  H15A 4381   5.016   5.501   6.024  0.5776 -0.3790 -0.3383
   44CHL1  H15B 4382   5.078   5.651   5.947 -1.0423  0.3038 -0.3797
   44CHL1   C16 4383   5.153   5.452   5.873  0.2673 -0.1418  0.4523
   44CHL1  H16A 4384   5.074   5.382   5.838  0.6157  0.8229 -2.5807
   44CHL1  H16B 4385   5.200   5.502   5.786 -0.9525 -0.9270 -0.6959
   44CHL1   C17 4386   5.275   5.376   5.940 -0.5149  0.7947 -0.4175
   44CHL1   H17 4387   5.369   5.423   5.903  0.3248  0.4560  1.2147
   44CHL1   C13 4388   5.267   5.405   6.092  0.4512 -0.2687 -0.1458
   44CHL1   C18 4389   5.157   5.307   6.144 -0.7788  0.5718 -0.2300
   44CHL1  H18A 4390   5.199   5.207   6.169 -1.2138  0.0104 -1.6534
   44CHL1  H18B 4391   5.116   5.344   6.240  1.4460 -0.1994  1.0962
   44CHL1  H18C 4392   5.083   5.298   6.061  0.0683 -1.1058 -0.8604
   44CHL1   C12 4393   5.393   5.387   6.177 -0.6089  0.4697 -0.4273
   44CHL1  H12A 4394   5.421   5.281   6.196  1.1835  0.8043 -1.0133
   44CHL1  H12B 4395   5.473   5.433   6.115 -0.7557  1.0981 -0.1580
   44CHL1   C11 4396   5.375   5.454   6.312  0.0391 -0.1205 -0.0582
   44CHL1  H11A 4397   5.313   5.385   6.373  1.1874 -0.5423  0.6529
   44CHL1  H11B 4398   5.473   5.452   6.364  0.8028  2.9701 -1.1785
   44CHL1    C9 4399   5.319   5.596   6.302  0.1551 -0.2989  0.3854
   44CHL1    H9 4400   5.396   5.657   6.250 -1.2819  1.4346  0.2192
   44CHL1   C10 4401   5.312   5.670   6.441 -0.5533  0.2666 -0.4234
   44CHL1   C19 4402   5.221   5.576   6.530 -0.9532 -0.4117 -0.3972
   44CHL1  H19A 4403   5.270   5.482   6.561  0.4727 -0.0018 -1.2899
   44CHL1  H19B 4404   5.190   5.615   6.629 -0.7089 -1.0675 -0.0579
   44CHL1  H19C 4405   5.130   5.542   6.475 -2.3191  0.5984  1.1565
   44CHL1    C1 4406   5.460   5.693   6.508  0.1585 -0.3536  1.0916
   44CHL1   H1A 4407   5.512   5.597   6.529  3.4583  0.7523 -1.1348
   44CHL1   H1B 4408   5.515   5.749   6.429 -1.2596 -0.2474  0.1462
   44CHL1    C2 4409   5.458   5.786   6.620 -0.0323  0.0131  0.1731
   44CHL1   H2A 4410   5.560   5.802   6.663 -0.9007  0.5345  2.1618
   44CHL1   H2B 4411   5.415   5.725   6.703 -0.4364  1.8209  1.3501
   44CHL1   C20 4412   5.292   5.230   5.892  0.6353 -0.3081 -0.7441
   44CHL1   H20 4413   5.197   5.173   5.901  1.8378 -2.2140  0.7906
   44CHL1   C21 4414   5.381   5.136   5.975 -0.4386  0.2651  0.7065
   44CHL1  H21A 4415   5.392   5.035   5.930  1.0871  0.5408  0.3910
   44CHL1  H21B 4416   5.352   5.135   6.083  0.5411  1.5450  1.0029
   44CHL1  H21C 4417   5.485   5.173   5.966  0.8107 -2.8027  0.9655
   44CHL1   C22 4418   5.324   5.220   5.737 -0.7145  0.6107  0.0156
   44CHL1  H22A 4419   5.386   5.308   5.707 -2.6039  1.5405 -1.3672
   44CHL1  H22B 4420   5.375   5.123   5.719 -1.7563 -0.0081  0.3424
   44CHL1   C23 4421   5.198   5.214   5.646  0.0455  0.6412  1.0978
   44CHL1  H23A 4422   5.118   5.158   5.699  2.7387 -2.5862  2.1586
   44CHL1  H23B 4423   5.178   5.323   5.637  1.2607  0.8054  0.0445
   44CHL1   C24 4424   5.221   5.155   5.507  0.4360  0.0545  0.7041
   44CHL1  H24A 4425   5.132   5.173   5.444  1.2649 -0.6169 -0.7004
   44CHL1  H24B 4426   5.291   5.228   5.461 -0.3964  2.1618  2.5972
   44CHL1   C25 4427   5.276   5.013   5.492 -0.4267  0.6364 -0.1480
   44CHL1   H25 4428   5.381   5.021   5.528  0.1329  0.3548 -1.6473
   44CHL1   C26 4429   5.203   4.910   5.587  0.5582 -0.3312 -0.0200
   44CHL1  H26A 4430   5.228   4.945   5.690 -0.3348  1.0792 -0.2541
   44CHL1  H26B 4431   5.099   4.928   5.554  1.3321 -0.5033 -2.8501
   44CHL1  H26C 4432   5.245   4.810   5.565 -1.0896 -1.3200  1.1382
   44CHL1   C27 4433   5.263   4.966   5.346  0.0303 -0.4712 -0.4532
   44CHL1  H27A 4434   5.303   4.862   5.338 -0.8749 -0.9219  0.5685
   44CHL1  H27B 4435   5.158   4.962   5.310 -0.0642  0.6646 -0.3419
   44CHL1  H27C 4436   5.322   5.037   5.285 -1.4759  0.4942 -0.8447
   45CHL1    C3 4437   0.476   1.096   6.190 -0.4395 -0.2665 -0.2848
   45CHL1    H3 4438   0.504   1.199   6.160  0.5938 -0.4065  0.1322
   45CHL1    O3 4439   0.437   1.088   6.325  0.7688  0.0737  0.2214
   45CHL1   H3' 4440   0.507   1.078   6.391  0.6280 -3.6805  0.0344
   45CHL1    C4 4441   0.350   1.068   6.103 -0.8321 -0.2005 -0.0081
   45CHL1   H4A 4442   0.308   0.976   6.149 -1.7336  1.5878  3.0287
   45CHL1   H4B 4443   0.271   1.144   6.120  1.8910  3.0261 -0.6795
   45CHL1    C5 4444   0.386   1.060   5.952  0.4904  0.4472 -0.5486
   45CHL1    C6 4445   0.326   1.133   5.858  0.5909 -0.1722  0.6779
   45CHL1    H6 4446   0.239   1.193   5.886  0.2654 -0.4938  0.3706
   45CHL1    C7 4447   0.342   1.129   5.704 -0.1552 -0.6288  1.1429
   45CHL1   H7A 4448   0.242   1.109   5.661  0.8694 -0.4430 -1.5748
   45CHL1   H7B 4449   0.378   1.225   5.661 -1.6318 -0.0186  1.2127
   45CHL1    C8 4450   0.440   1.010   5.673  0.0508 -0.2103  0.5107
   45CHL1    H8 4451   0.380   0.917   5.682  0.6930 -0.6393  0.3864
   45CHL1   C14 4452   0.495   1.029   5.534 -0.6963 -0.1221 -0.0458
   45CHL1   H14 4453   0.547   1.126   5.551 -2.5097  0.5760  1.9806
   45CHL1   C15 4454   0.406   1.063   5.416  0.5210 -0.5429 -1.3354
   45CHL1  H15A 4455   0.324   0.992   5.389  2.7408 -2.7267 -2.8782
   45CHL1  H15B 4456   0.366   1.166   5.415  0.1169 -0.6986 -2.4584
   45CHL1   C16 4457   0.502   1.052   5.295  0.1354 -0.4410  0.7558
   45CHL1  H16A 4458   0.459   0.995   5.210 -1.8960 -2.0827  2.7767
   45CHL1  H16B 4459   0.532   1.153   5.258 -2.2505  0.1973  0.4129
   45CHL1   C17 4460   0.629   0.986   5.352 -0.4986 -0.1951  0.1192
   45CHL1   H17 4461   0.691   1.070   5.391  0.6167 -1.2486  0.6798
   45CHL1   C13 4462   0.589   0.918   5.485 -0.0167 -0.4311  0.6700
   45CHL1   C18 4463   0.509   0.795   5.457 -0.0085  0.7592  0.0277
   45CHL1  H18A 4464   0.589   0.727   5.421  0.7741  1.1955  0.9084
   45CHL1  H18B 4465   0.466   0.755   5.551  0.4075 -1.3214 -0.6271
   45CHL1  H18C 4466   0.424   0.800   5.386  1.4027 -1.1127 -1.9196
   45CHL1   C12 4467   0.706   0.905   5.584  0.0360 -0.3589  0.4548
   45CHL1  H12A 4468   0.771   0.819   5.556  0.1163  0.3983 -1.9379
   45CHL1  H12B 4469   0.760   1.001   5.567 -0.1810 -0.5696 -1.6347
   45CHL1   C11 4470   0.663   0.890   5.731 -0.5309  0.0738  0.4656
   45CHL1  H11A 4471   0.608   0.794   5.731  0.4686 -0.5140  1.4282
   45CHL1  H11B 4472   0.752   0.874   5.795  1.1789 -1.3651 -2.0572
   45CHL1    C9 4473   0.557   0.999   5.776  0.1668 -0.4838  0.4344
   45CHL1    H9 4474   0.620   1.090   5.772  0.9582 -1.0267  0.2263
   45CHL1   C10 4475   0.503   0.973   5.922  0.0303  0.0480 -0.4086
   45CHL1   C19 4476   0.451   0.822   5.930 -0.0893  0.6776  0.2299
   45CHL1  H19A 4477   0.541   0.756   5.925  0.1163  1.0066 -0.8447
   45CHL1  H19B 4478   0.388   0.794   6.017 -0.0737 -1.4227 -0.3763
   45CHL1  H19C 4479   0.387   0.803   5.841 -1.0717  1.0788  0.8461
   45CHL1    C1 4480   0.624   0.998   6.019  0.2458  0.0016  0.0914
   45CHL1   H1A 4481   0.702   0.926   5.987  0.3689  1.3012 -2.9014
   45CHL1   H1B 4482   0.667   1.098   5.992  0.1681  0.2066  0.7185
   45CHL1    C2 4483   0.592   1.003   6.169 -0.4725 -0.8136  0.6169
   45CHL1   H2A 4484   0.676   1.043   6.229 -1.4085 -0.4206  1.7047
   45CHL1   H2B 4485   0.565   0.900   6.200 -0.4179 -1.4867 -1.4256
   45CHL1   C20 4486   0.715   0.914   5.247 -0.1176  1.4477 -0.3314
   45CHL1   H20 4487   0.766   0.838   5.309 -2.8755  0.3573  0.7884
   45CHL1   C21 4488   0.820   1.010   5.201  0.3884 -0.6689 -0.1055
   45CHL1  H21A 4489   0.893   0.957   5.136  1.0731  1.3327 -1.0634
   45CHL1  H21B 4490   0.874   1.058   5.286 -0.4779  2.1499 -1.0515
   45CHL1  H21C 4491   0.782   1.090   5.135  1.1482 -1.5687 -1.6790
   45CHL1   C22 4492   0.644   0.838   5.129 -0.4621 -0.4354 -0.8307
   45CHL1  H22A 4493   0.560   0.784   5.177 -0.2920  0.9217  1.1152
   45CHL1  H22B 4494   0.607   0.922   5.066  1.0588  2.5439  1.9535
   45CHL1   C23 4495   0.740   0.741   5.055 -0.0296  0.2991  0.1646
   45CHL1  H23A 4496   0.809   0.804   4.994 -3.5587  1.5644 -2.8569
   45CHL1  H23B 4497   0.801   0.690   5.133 -0.9256 -1.3210 -0.1600
   45CHL1   C24 4498   0.663   0.651   4.971 -0.9468  0.4685 -0.4758
   45CHL1  H24A 4499   0.594   0.586   5.029  0.9656 -0.1568  1.1872
   45CHL1  H24B 4500   0.594   0.702   4.899 -0.3421 -1.8008 -2.8213
   45CHL1   C25 4501   0.759   0.567   4.887  0.1534  0.1386  0.0547
   45CHL1   H25 4502   0.839   0.637   4.854 -1.4200  1.1265 -1.8527
   45CHL1   C26 4503   0.820   0.445   4.970  0.1989 -0.1057 -0.4186
   45CHL1  H26A 4504   0.898   0.399   4.905  1.1409  0.6606  0.1551
   45CHL1  H26B 4505   0.877   0.473   5.061  0.4481 -0.4206 -0.4744
   45CHL1  H26C 4506   0.731   0.384   4.998 -1.1950  3.0950  2.9226
   45CHL1   C27 4507   0.692   0.509   4.762 -0.2119 -0.0886  0.2851
   45CHL1  H27A 4508   0.629   0.426   4.802 -1.7481  1.6250  1.6243
   45CHL1  H27B 4509   0.628   0.587   4.717  1.0613  0.2326 -1.0335
   45CHL1  H27C 4510   0.782   0.482   4.704 -0.0844 -1.5469  1.0994
   46CHL1    C3 4511   3.420   6.772   6.739 -0.4733 -0.3557 -0.0006
   46CHL1    H3 4512   3.495   6.693   6.718 -1.3474 -0.6280 -2.3713
   46CHL1    O3 4513   3.401   6.783   6.880  0.4562  0.3365 -0.2280
   46CHL1   H3' 4514   3.349   6.863   6.892 -0.4130  0.2831 -2.8458
   46CHL1    C4 4515   3.468   6.908   6.680  0.2824  0.0030  0.1850
   46CHL1   H4A 4516   3.387   6.981   6.705 -0.2489 -0.4622 -0.1561
   46CHL1   H4B 4517   3.563   6.940   6.729  0.6176  0.5839 -0.8197
   46CHL1    C5 4518   3.488   6.905   6.532  0.2822 -0.8758  0.3381
   46CHL1    C6 4519   3.602   6.926   6.475 -0.2019 -0.2119  0.2598
   46CHL1    H6 4520   3.686   6.949   6.542 -1.5160  1.2105  1.4974
   46CHL1    C7 4521   3.635   6.910   6.334  0.4925 -0.6778  0.1635
   46CHL1   H7A 4522   3.704   6.988   6.297 -0.0360 -0.6729 -0.8703
   46CHL1   H7B 4523   3.682   6.813   6.307  0.9184  0.0161 -1.7422
   46CHL1    C8 4524   3.499   6.922   6.258  1.2674  0.1328 -0.4899
   46CHL1    H8 4525   3.448   7.021   6.270 -0.4458 -0.7206 -0.4127
   46CHL1   C14 4526   3.525   6.883   6.110 -0.0911 -1.0141 -0.0126
   46CHL1   H14 4527   3.549   6.776   6.125 -0.6644 -0.9408  1.6026
   46CHL1   C15 4528   3.652   6.934   6.041 -0.0083 -0.0946 -0.4817
   46CHL1  H15A 4529   3.659   7.045   6.044  0.3499 -0.0950 -1.1901
   46CHL1  H15B 4530   3.743   6.881   6.077 -0.5217  0.1738  1.3410
   46CHL1   C16 4531   3.629   6.895   5.890  0.5635  0.4686  0.8991
   46CHL1  H16A 4532   3.635   6.977   5.815 -0.5364 -0.2306  0.0230
   46CHL1  H16B 4533   3.698   6.809   5.876  0.3905  0.2822  1.1830
   46CHL1   C17 4534   3.482   6.847   5.876 -0.1535 -0.0603  0.2526
   46CHL1   H17 4535   3.484   6.736   5.886  0.5793  0.1488  3.7150
   46CHL1   C13 4536   3.409   6.886   6.017  0.4070 -0.2507  0.6140
   46CHL1   C18 4537   3.362   7.030   6.010  0.0949 -0.6181 -0.0354
   46CHL1  H18A 4538   3.277   7.038   5.938  1.2700 -0.3822 -1.4383
   46CHL1  H18B 4539   3.332   7.059   6.113  0.0989 -0.9098  0.0493
   46CHL1  H18C 4540   3.439   7.102   5.976 -0.7282  1.4613  2.2385
   46CHL1   C12 4541   3.308   6.780   6.076  0.0769 -0.0090  0.1047
   46CHL1  H12A 4542   3.210   6.794   6.025 -0.9667  0.0322  2.0339
   46CHL1  H12B 4543   3.345   6.675   6.072 -0.9236 -0.5008  2.2437
   46CHL1   C11 4544   3.278   6.796   6.220  0.3536  0.2386  0.0708
   46CHL1  H11A 4545   3.219   6.889   6.218  0.4518  0.2930 -1.6007
   46CHL1  H11B 4546   3.215   6.712   6.256  0.8234 -0.2657 -0.2680
   46CHL1    C9 4547   3.403   6.814   6.307 -0.1504  0.1782 -0.3958
   46CHL1    H9 4548   3.458   6.718   6.304 -0.4423 -0.1372  2.1627
   46CHL1   C10 4549   3.363   6.852   6.456  0.4005 -0.3569  0.2925
   46CHL1   C19 4550   3.244   6.951   6.453  0.0144  0.9064  0.1993
   46CHL1  H19A 4551   3.146   6.907   6.424  0.7512 -0.2628 -0.6347
   46CHL1  H19B 4552   3.226   6.991   6.555  1.2603  1.0409  0.3795
   46CHL1  H19C 4553   3.266   7.034   6.383  0.6148  0.5253 -0.0697
   46CHL1    C1 4554   3.311   6.722   6.527  0.0614 -0.4865  0.3440
   46CHL1   H1A 4555   3.220   6.680   6.480 -0.2938  1.2843 -0.6385
   46CHL1   H1B 4556   3.389   6.643   6.517  0.0422 -0.7483  2.0024
   46CHL1    C2 4557   3.289   6.732   6.681  0.4072  0.5703  0.2300
   46CHL1   H2A 4558   3.248   6.637   6.721 -0.4764  0.6975 -0.3535
   46CHL1   H2B 4559   3.221   6.816   6.706  1.6318  1.3442  1.0792
   46CHL1   C20 4560   3.407   6.881   5.747 -0.1945 -0.1458  0.6251
   46CHL1   H20 4561   3.401   6.989   5.724 -0.5836 -0.7035 -2.2791
   46CHL1   C21 4562   3.260   6.822   5.746 -0.5232 -0.1090 -0.1055
   46CHL1  H21A 4563   3.213   6.887   5.823  4.0129  2.5640  0.7832
   46CHL1  H21B 4564   3.244   6.718   5.780  2.2088 -0.4172  0.4813
   46CHL1  H21C 4565   3.209   6.840   5.649 -0.8114  2.7665  0.4867
   46CHL1   C22 4566   3.484   6.823   5.623  0.3165  0.3405  0.1893
   46CHL1  H22A 4567   3.591   6.851   5.636  0.4387 -0.2895  0.5483
   46CHL1  H22B 4568   3.490   6.712   5.622  0.9393  0.3543 -1.4480
   46CHL1   C23 4569   3.440   6.859   5.479 -0.0837  0.7095 -0.4961
   46CHL1  H23A 4570   3.464   6.766   5.423 -0.7522  1.4751 -2.1027
   46CHL1  H23B 4571   3.330   6.861   5.473 -0.1069  0.4308 -0.1793
   46CHL1   C24 4572   3.526   6.976   5.425 -1.0019 -0.1420 -0.4925
   46CHL1  H24A 4573   3.505   7.068   5.483  1.0825  0.1436 -0.1225
   46CHL1  H24B 4574   3.633   6.945   5.431 -1.2194 -0.7646  0.4757
   46CHL1   C25 4575   3.481   7.012   5.282 -0.1119 -0.0308  0.4220
   46CHL1   H25 4576   3.497   6.919   5.223  1.7691 -0.2533  1.1886
   46CHL1   C26 4577   3.341   7.060   5.278  0.1256  0.3649  0.2048
   46CHL1  H26A 4578   3.324   7.138   5.355  0.7498 -1.0582  1.8513
   46CHL1  H26B 4579   3.306   7.099   5.180 -0.4946  0.6828  0.5502
   46CHL1  H26C 4580   3.271   6.978   5.307 -0.2094  1.2057  1.9206
   46CHL1   C27 4581   3.584   7.105   5.215 -0.6076 -0.2778 -0.0425
   46CHL1  H27A 4582   3.681   7.051   5.217 -0.5235 -0.1007  0.7359
   46CHL1  H27B 4583   3.556   7.133   5.111  1.6876  0.8947 -0.3979
   46CHL1  H27C 4584   3.589   7.200   5.272  2.7730 -0.4530  0.1116
   47CHL1    C3 4585   1.760   0.581   6.775  0.5892 -0.0082 -1.0467
   47CHL1    H3 4586   1.868   0.600   6.797 -0.0394  2.8269 -0.0633
   47CHL1    O3 4587   1.678   0.590   6.894  0.0396 -1.0412  0.3211
   47CHL1   H3' 4588   1.588   0.574   6.864  0.8343 -2.0419 -1.6899
   47CHL1    C4 4589   1.711   0.686   6.674  0.3111 -0.0473  0.0177
   47CHL1   H4A 4590   1.602   0.677   6.652  0.4801  1.0780 -1.4282
   47CHL1   H4B 4591   1.716   0.790   6.713  0.2645  0.3085 -0.9044
   47CHL1    C5 4592   1.777   0.681   6.535  0.7673 -0.1799 -0.1632
   47CHL1    C6 4593   1.842   0.783   6.476 -0.2940 -0.2318  0.1380
   47CHL1    H6 4594   1.853   0.882   6.522 -0.1752 -0.1391 -0.0869
   47CHL1    C7 4595   1.899   0.782   6.337  0.8911  0.2565  0.1843
   47CHL1   H7A 4596   1.857   0.869   6.281 -2.5756 -0.8397  0.8200
   47CHL1   H7B 4597   2.010   0.774   6.334  0.8973 -0.1484  1.1909
   47CHL1    C8 4598   1.860   0.655   6.254  0.6777  0.1166  0.1377
   47CHL1    H8 4599   1.756   0.668   6.218  0.8677 -1.5576 -1.1117
   47CHL1   C14 4600   1.937   0.625   6.130  0.1383 -0.3570  0.8635
   47CHL1   H14 4601   2.035   0.590   6.170  0.5173 -0.9306 -0.5112
   47CHL1   C15 4602   1.979   0.733   6.031  0.0811  0.4255  0.1616
   47CHL1  H15A 4603   1.896   0.807   6.027  0.2855  0.6942  0.7285
   47CHL1  H15B 4604   2.076   0.776   6.065 -0.5595  0.4407  2.1059
   47CHL1   C16 4605   2.006   0.660   5.888 -0.2460 -0.0323 -0.5552
   47CHL1  H16A 4606   1.929   0.689   5.814 -1.4084 -2.2113 -0.2929
   47CHL1  H16B 4607   2.100   0.694   5.840 -0.9333  0.8444 -1.3011
   47CHL1   C17 4608   1.992   0.508   5.919 -0.2527 -0.7600 -0.1463
   47CHL1   H17 4609   2.091   0.479   5.961 -0.4328  0.0740  0.9097
   47CHL1   C13 4610   1.899   0.505   6.043 -0.6354 -0.0763  0.8198
   47CHL1   C18 4611   1.756   0.521   6.001 -0.0134  0.4356  0.0052
   47CHL1  H18A 4612   1.690   0.516   6.091  1.7282  0.6031  1.3438
   47CHL1  H18B 4613   1.739   0.618   5.949  1.5908 -0.1919 -1.7985
   47CHL1  H18C 4614   1.728   0.438   5.933  0.7120  0.3768 -0.2244
   47CHL1   C12 4615   1.919   0.380   6.131  0.0216  0.5623 -0.3241
   47CHL1  H12A 4616   1.879   0.296   6.070  2.5021 -1.2919  0.4440
   47CHL1  H12B 4617   2.023   0.351   6.157  1.2515  2.7142 -2.4210
   47CHL1   C11 4618   1.833   0.389   6.261  0.6271 -0.0206  0.0869
   47CHL1  H11A 4619   1.730   0.367   6.224  1.1231  0.7958 -1.9103
   47CHL1  H11B 4620   1.863   0.305   6.326 -1.8415 -1.3346 -0.3408
   47CHL1    C9 4621   1.854   0.525   6.344 -0.1770 -0.5789  0.1961
   47CHL1    H9 4622   1.957   0.517   6.384 -0.5352 -1.2855  1.0149
   47CHL1   C10 4623   1.766   0.546   6.467 -0.5078 -0.1909  0.3084
   47CHL1   C19 4624   1.621   0.513   6.428 -0.4772  0.3165  0.0135
   47CHL1  H19A 4625   1.584   0.578   6.346  0.5529  1.2797  0.3033
   47CHL1  H19B 4626   1.622   0.405   6.400 -1.0677  0.1293  0.6899
   47CHL1  H19C 4627   1.545   0.528   6.507 -1.4463 -2.8711 -0.1673
   47CHL1    C1 4628   1.809   0.441   6.579  0.0940  0.0340 -0.0507
   47CHL1   H1A 4629   1.795   0.340   6.535 -0.3907  1.2159 -2.8637
   47CHL1   H1B 4630   1.919   0.452   6.587 -0.0454  2.6365 -0.7012
   47CHL1    C2 4631   1.740   0.446   6.712 -0.4567  0.2400 -0.4353
   47CHL1   H2A 4632   1.774   0.367   6.782  0.4983 -1.3016 -2.5425
   47CHL1   H2B 4633   1.632   0.425   6.691 -0.2895 -0.9300 -0.1671
   47CHL1   C20 4634   1.962   0.426   5.789  0.5374 -0.3210 -0.1599
   47CHL1   H20 4635   1.868   0.473   5.754  0.6314  1.8650  2.1866
   47CHL1   C21 4636   1.931   0.276   5.818 -0.6813  0.3692 -0.2993
   47CHL1  H21A 4637   1.824   0.272   5.848 -0.2288  0.7576  1.5171
   47CHL1  H21B 4638   1.991   0.227   5.897 -1.8788 -0.0761  0.3689
   47CHL1  H21C 4639   1.961   0.211   5.734  0.2553  1.1185 -0.5602
   47CHL1   C22 4640   2.063   0.441   5.672  0.0033 -0.0611 -0.2915
   47CHL1  H22A 4641   2.085   0.549   5.671 -0.1409 -0.0314 -0.2789
   47CHL1  H22B 4642   2.143   0.367   5.696 -1.5396 -2.1278 -1.1499
   47CHL1   C23 4643   2.019   0.403   5.529 -0.6435  0.4504 -0.0398
   47CHL1  H23A 4644   2.002   0.293   5.536  0.1189  0.1794 -1.9146
   47CHL1  H23B 4645   1.924   0.460   5.518 -0.9374 -0.1319 -0.6161
   47CHL1   C24 4646   2.118   0.421   5.411  0.1161  0.7220  0.6226
   47CHL1  H24A 4647   2.142   0.529   5.420 -2.4014  1.2451  1.8763
   47CHL1  H24B 4648   2.213   0.363   5.418 -0.1305 -0.4254 -3.1972
   47CHL1   C25 4649   2.064   0.393   5.266 -0.0623  0.2958 -0.9100
   47CHL1   H25 4650   2.150   0.383   5.196  1.5822 -0.7934  1.1604
   47CHL1   C26 4651   1.990   0.256   5.277 -0.6443  0.2187 -0.4751
   47CHL1  H26A 4652   1.885   0.272   5.307 -0.2786  1.2147  0.3297
   47CHL1  H26B 4653   1.980   0.220   5.172 -0.4714  1.3197 -0.8809
   47CHL1  H26C 4654   2.041   0.183   5.344  0.5517 -0.6280 -2.2275
   47CHL1   C27 4655   1.969   0.502   5.214 -0.0994 -0.3565 -0.2330
   47CHL1  H27A 4656   2.020   0.600   5.219 -0.5466  0.0235 -2.1853
   47CHL1  H27B 4657   1.948   0.479   5.107  0.2996 -1.2780 -0.1234
   47CHL1  H27C 4658   1.879   0.506   5.279  0.2825  0.1205  0.2720
   48CHL1    C3 4659   6.455   4.826   6.306 -0.5425  1.0152 -0.3435
   48CHL1    H3 4660   6.448   4.719   6.335  1.8725  0.9386  0.1905
   48CHL1    O3 4661   6.471   4.904   6.421  0.6141  0.4911 -0.5791
   48CHL1   H3' 4662   6.417   4.982   6.408 -2.0007 -1.0803 -0.0126
   48CHL1    C4 4663   6.573   4.856   6.211  0.0255  0.1509  0.2383
   48CHL1   H4A 4664   6.566   4.964   6.186 -1.6258 -0.6538 -3.4426
   48CHL1   H4B 4665   6.669   4.832   6.263 -0.0237  0.8705  0.6743
   48CHL1    C5 4666   6.558   4.780   6.081  0.0868 -0.1937  1.2232
   48CHL1    C6 4667   6.659   4.704   6.030  0.5211 -0.3824 -0.0567
   48CHL1    H6 4668   6.755   4.700   6.083  1.6911  1.8546 -1.7856
   48CHL1    C7 4669   6.655   4.627   5.902  0.5992  0.5865  0.7120
   48CHL1   H7A 4670   6.750   4.639   5.846  0.7647 -0.0368  0.8538
   48CHL1   H7B 4671   6.642   4.522   5.935 -1.1401 -0.4022 -2.6213
   48CHL1    C8 4672   6.528   4.666   5.817 -0.3657  0.4694 -0.0160
   48CHL1    H8 4673   6.542   4.762   5.763  0.8473  0.1371 -0.3281
   48CHL1   C14 4674   6.505   4.553   5.719  0.1829 -0.1720 -0.3434
   48CHL1   H14 4675   6.491   4.461   5.779  0.5122 -2.1722 -3.1340
   48CHL1   C15 4676   6.627   4.510   5.631  0.0587 -0.6523  0.6821
   48CHL1  H15A 4677   6.686   4.602   5.608 -3.4950  1.3829 -1.2144
   48CHL1  H15B 4678   6.693   4.434   5.677  0.5158 -1.4073 -1.1406
   48CHL1   C16 4679   6.558   4.457   5.505 -0.1153  0.8684  0.2077
   48CHL1  H16A 4680   6.562   4.534   5.426  3.1330  0.9956  0.3431
   48CHL1  H16B 4681   6.581   4.357   5.463 -0.4070  1.0373 -0.3584
   48CHL1   C17 4682   6.403   4.447   5.546 -0.7087 -0.0953 -0.1002
   48CHL1   H17 4683   6.390   4.359   5.612 -0.2915 -0.0619  0.0300
   48CHL1   C13 4684   6.376   4.573   5.631 -0.1849 -0.5824 -0.0948
   48CHL1   C18 4685   6.371   4.702   5.556 -0.0795 -0.0122  0.1259
   48CHL1  H18A 4686   6.444   4.707   5.473 -0.4686  0.5861 -0.1943
   48CHL1  H18B 4687   6.270   4.732   5.519  0.8900  1.4906 -1.4292
   48CHL1  H18C 4688   6.396   4.789   5.620 -2.7093 -0.3122  1.7260
   48CHL1   C12 4689   6.255   4.568   5.732 -0.2625 -0.7289 -0.3349
   48CHL1  H12A 4690   6.167   4.566   5.664 -1.7233 -0.9536  1.4968
   48CHL1  H12B 4691   6.276   4.469   5.778 -0.1719 -0.5649 -0.0206
   48CHL1   C11 4692   6.268   4.684   5.825 -0.6745 -0.9952  0.2377
   48CHL1  H11A 4693   6.250   4.784   5.782  0.8629 -1.1766 -0.9094
   48CHL1  H11B 4694   6.189   4.682   5.902  0.6748  0.2614  1.7348
   48CHL1    C9 4695   6.403   4.678   5.905 -0.0533  0.4747  1.0670
   48CHL1    H9 4696   6.408   4.580   5.959  0.6891  0.8533  1.7061
   48CHL1   C10 4697   6.422   4.792   6.009  0.5694 -0.1102  0.3164
   48CHL1   C19 4698   6.407   4.932   5.945  0.0642 -0.0804 -0.4137
   48CHL1  H19A 4699   6.469   4.949   5.854  2.3356 -0.3860  0.9940
   48CHL1  H19B 4700   6.302   4.965   5.936 -0.7515 -1.8734  1.7890
   48CHL1  H19C 4701   6.448   5.010   6.014 -0.2449 -0.0768 -0.2337
   48CHL1    C1 4702   6.305   4.779   6.108  0.3553  0.3081 -0.8262
   48CHL1   H1A 4703   6.208   4.804   6.060 -0.3563 -2.7188 -1.1704
   48CHL1   H1B 4704   6.300   4.673   6.140 -1.8543 -0.2714 -2.7980
   48CHL1    C2 4705   6.321   4.858   6.240  0.4164  0.0218 -0.0561
   48CHL1   H2A 4706   6.245   4.823   6.313  1.4029 -0.5667  0.7095
   48CHL1   H2B 4707   6.300   4.966   6.222 -2.2409 -0.6038 -1.3134
   48CHL1   C20 4708   6.300   4.430   5.435 -0.1007 -0.3307  0.3178
   48CHL1   H20 4709   6.202   4.471   5.468  0.7296  1.4177  0.7227
   48CHL1   C21 4710   6.270   4.281   5.418  0.2691 -0.3185 -0.0078
   48CHL1  H21A 4711   6.363   4.226   5.391  0.4500 -0.0720  0.1175
   48CHL1  H21B 4712   6.236   4.243   5.517  2.5509 -1.1540  0.5184
   48CHL1  H21C 4713   6.191   4.267   5.341  0.5177  0.3976 -0.4044
   48CHL1   C22 4714   6.342   4.495   5.302  0.0974  0.2856  0.8194
   48CHL1  H22A 4715   6.375   4.601   5.308 -1.6382  1.0135 -1.1574
   48CHL1  H22B 4716   6.434   4.441   5.269 -0.8445 -0.8016 -0.1346
   48CHL1   C23 4717   6.239   4.497   5.184  1.0667 -0.4811 -0.3234
   48CHL1  H23A 4718   6.201   4.394   5.170  0.1104  0.0400 -1.8907
   48CHL1  H23B 4719   6.159   4.572   5.201  2.1573  0.9152 -1.0678
   48CHL1   C24 4720   6.295   4.539   5.045 -0.2499  0.6982  0.0348
   48CHL1  H24A 4721   6.331   4.645   5.043 -0.4216  0.7534 -1.9641
   48CHL1  H24B 4722   6.387   4.477   5.038 -0.3215  0.6514 -0.5039
   48CHL1   C25 4723   6.196   4.518   4.932 -0.0103  0.3533  0.6631
   48CHL1   H25 4724   6.164   4.411   4.937  0.4764  0.1800  0.2443
   48CHL1   C26 4725   6.070   4.605   4.943 -0.4369  0.0532  0.1756
   48CHL1  H26A 4726   6.095   4.713   4.941 -1.8075  0.4110 -2.9935
   48CHL1  H26B 4727   6.001   4.600   4.856  0.5838  0.9227 -0.7096
   48CHL1  H26C 4728   6.010   4.576   5.032  1.2389 -1.8874  0.7772
   48CHL1   C27 4729   6.259   4.548   4.795 -0.7070 -0.7418  0.3384
   48CHL1  H27A 4730   6.348   4.482   4.784  0.7311  0.9667  1.0447
   48CHL1  H27B 4731   6.184   4.530   4.716  0.7537  2.5829 -2.0622
   48CHL1  H27C 4732   6.302   4.650   4.780  0.7823 -1.1849  1.3308
   49CHL1    C3 4733   2.227   3.468   3.504 -0.1137 -0.4574 -0.2001
   49CHL1    H3 4734   2.149   3.542   3.535 -1.1165 -2.1987  1.6847
   49CHL1    O3 4735   2.283   3.495   3.377 -0.2900 -0.6045 -0.3817
   49CHL1   H3' 4736   2.216   3.471   3.312  0.0985 -0.3119 -0.8892
   49CHL1    C4 4737   2.342   3.489   3.613  0.3789  0.2114 -0.4717
   49CHL1   H4A 4738   2.428   3.433   3.572  0.4424 -2.2493  2.6691
   49CHL1   H4B 4739   2.363   3.598   3.607 -0.4909  0.3562 -1.0633
   49CHL1    C5 4740   2.292   3.443   3.749  0.0903 -0.3752 -0.1256
   49CHL1    C6 4741   2.292   3.527   3.851 -0.3840  0.2063 -0.4247
   49CHL1    H6 4742   2.336   3.625   3.828 -1.2065  0.6437 -0.1649
   49CHL1    C7 4743   2.256   3.502   3.992 -0.1783 -0.0854  0.0639
   49CHL1   H7A 4744   2.329   3.539   4.067 -0.1320 -1.9734  0.9912
   49CHL1   H7B 4745   2.158   3.553   4.007 -0.0521  0.3048 -0.3963
   49CHL1    C8 4746   2.243   3.346   4.013 -0.2182 -0.3824 -0.5778
   49CHL1    H8 4747   2.342   3.295   4.014 -0.2784 -0.5905 -2.2620
   49CHL1   C14 4748   2.173   3.320   4.144  0.1665 -0.0266 -0.1382
   49CHL1   H14 4749   2.077   3.375   4.140  0.1146 -0.0655  0.4956
   49CHL1   C15 4750   2.236   3.368   4.280  0.4884 -0.7513  0.0361
   49CHL1  H15A 4751   2.342   3.333   4.279  0.6251 -0.3547  0.7417
   49CHL1  H15B 4752   2.240   3.477   4.299  0.2668 -0.5601 -0.9557
   49CHL1   C16 4753   2.166   3.292   4.386  1.2730  1.0279  0.5004
   49CHL1  H16A 4754   2.230   3.235   4.458  0.4532 -1.8090 -0.8634
   49CHL1  H16B 4755   2.110   3.364   4.448  0.4235 -0.8339  2.0035
   49CHL1   C17 4756   2.066   3.199   4.322 -0.2711  0.5666  0.1774
   49CHL1   H17 4757   1.975   3.257   4.297 -1.6111 -0.3373  2.6289
   49CHL1   C13 4758   2.132   3.175   4.183  0.0385  0.5188 -0.6953
   49CHL1   C18 4759   2.242   3.070   4.207 -0.0155 -0.0552 -0.3838
   49CHL1  H18A 4760   2.324   3.065   4.132  0.7621 -0.0886  0.4458
   49CHL1  H18B 4761   2.297   3.086   4.302 -1.2359 -0.1332  0.3571
   49CHL1  H18C 4762   2.210   2.963   4.200 -0.6513 -0.0213  1.5363
   49CHL1   C12 4763   2.039   3.126   4.071  0.1551  0.4366  0.1985
   49CHL1  H12A 4764   2.016   3.018   4.079 -1.4038  0.3864 -3.0477
   49CHL1  H12B 4765   1.946   3.187   4.083 -0.0210  0.4469 -1.0233
   49CHL1   C11 4766   2.112   3.138   3.934 -0.2149 -0.3697  0.1502
   49CHL1  H11A 4767   2.199   3.068   3.927  1.3716  1.6448 -1.8184
   49CHL1  H11B 4768   2.039   3.102   3.859 -1.4875 -1.1178  1.6821
   49CHL1    C9 4769   2.158   3.282   3.896  0.3674  0.1495 -0.6557
   49CHL1    H9 4770   2.060   3.334   3.894 -0.1213 -0.7512 -0.4222
   49CHL1   C10 4771   2.226   3.301   3.755  0.2098  0.2059  0.2190
   49CHL1   C19 4772   2.349   3.204   3.750 -0.3964  0.4951 -0.1209
   49CHL1  H19A 4773   2.398   3.174   3.845  0.9474 -1.1415 -1.2665
   49CHL1  H19B 4774   2.310   3.110   3.704  1.3925  0.1787 -1.0637
   49CHL1  H19C 4775   2.424   3.235   3.675 -0.7447  1.9102  0.0817
   49CHL1    C1 4776   2.126   3.282   3.638  0.0089  0.3096  0.6629
   49CHL1   H1A 4777   2.099   3.174   3.637 -2.7063  0.9389  0.4614
   49CHL1   H1B 4778   2.035   3.343   3.653  0.2018  1.1028 -1.1525
   49CHL1    C2 4779   2.180   3.323   3.502  0.5077  0.1783  0.8176
   49CHL1   H2A 4780   2.096   3.304   3.432  2.4028 -1.3227 -1.2011
   49CHL1   H2B 4781   2.265   3.255   3.481  0.0169 -0.0630 -0.4308
   49CHL1   C20 4782   2.030   3.075   4.407  0.4790 -0.6436  0.1735
   49CHL1   H20 4783   2.117   3.006   4.403  1.4788  0.2114  3.5882
   49CHL1   C21 4784   1.904   3.018   4.352  0.1117  0.3698 -0.0952
   49CHL1  H21A 4785   1.855   2.947   4.422 -0.1553 -0.9810 -1.5890
   49CHL1  H21B 4786   1.927   2.956   4.263  1.3619 -1.2376  1.2765
   49CHL1  H21C 4787   1.824   3.089   4.324 -1.1756 -1.4719 -1.3691
   49CHL1   C22 4788   2.016   3.101   4.560  0.2085  0.9120  0.0277
   49CHL1  H22A 4789   2.103   3.159   4.596 -0.7126  1.3349  1.6480
   49CHL1  H22B 4790   1.916   3.147   4.577 -1.1188 -1.9484  0.5533
   49CHL1   C23 4791   2.030   2.976   4.650  0.4621 -0.1405  0.0238
   49CHL1  H23A 4792   1.960   2.900   4.611 -0.8981  1.9013 -1.7481
   49CHL1  H23B 4793   2.132   2.935   4.634 -0.3587 -2.1296 -0.4314
   49CHL1   C24 4794   2.004   3.011   4.796 -0.4398 -0.4069  0.3567
   49CHL1  H24A 4795   2.078   3.091   4.817  1.3275 -1.1107 -2.5806
   49CHL1  H24B 4796   1.903   3.051   4.820 -0.8917  0.6375 -2.8271
   49CHL1   C25 4797   2.028   2.894   4.895 -0.1644  0.0167 -0.5179
   49CHL1   H25 4798   2.041   2.948   4.992 -1.7695  1.6732 -1.1484
   49CHL1   C26 4799   1.906   2.794   4.915  0.2302 -0.0129 -0.7465
   49CHL1  H26A 4800   1.941   2.708   4.976  2.4743  1.1314 -0.3154
   49CHL1  H26B 4801   1.814   2.837   4.959  1.1640  1.5008 -0.1522
   49CHL1  H26C 4802   1.877   2.766   4.811 -1.4307  1.8269 -0.8350
   49CHL1   C27 4803   2.157   2.816   4.871 -0.0415  0.1116 -0.1012
   49CHL1  H27A 4804   2.241   2.883   4.842  1.2994 -1.2879  0.4480
   49CHL1  H27B 4805   2.188   2.757   4.960  0.7283  1.3405  0.4792
   49CHL1  H27C 4806   2.158   2.735   4.796  1.2027 -1.5085  1.5738
   50CHL1    C3 4807   1.905   1.787   3.410 -0.0374 -0.6438  0.7567
   50CHL1    H3 4808   1.969   1.697   3.413 -1.5709 -1.7714  0.7878
   50CHL1    O3 4809   1.886   1.826   3.279  0.4423 -0.8007  0.1979
   50CHL1   H3' 4810   1.806   1.781   3.252 -0.3759  0.2713  0.7917
   50CHL1    C4 4811   1.773   1.744   3.470  0.2047  0.4607 -0.3657
   50CHL1   H4A 4812   1.704   1.829   3.457  1.0707  1.6793  2.2922
   50CHL1   H4B 4813   1.733   1.657   3.414  0.8004 -1.1201  1.5252
   50CHL1    C5 4814   1.785   1.710   3.622  0.4925 -0.2400  1.2249
   50CHL1    C6 4815   1.755   1.591   3.680 -0.2154 -0.2931  0.2275
   50CHL1    H6 4816   1.699   1.519   3.618  1.6832  1.1442 -3.4483
   50CHL1    C7 4817   1.762   1.564   3.831 -0.6169  0.4707 -0.0966
   50CHL1   H7A 4818   1.667   1.519   3.866  0.5173 -1.0139  1.2316
   50CHL1   H7B 4819   1.843   1.489   3.847 -0.4985  0.6883  0.3733
   50CHL1    C8 4820   1.793   1.696   3.913  0.2717  0.2852 -0.0827
   50CHL1    H8 4821   1.695   1.748   3.927 -0.2845 -0.2020 -1.9239
   50CHL1   C14 4822   1.845   1.664   4.053 -0.1729 -0.2982 -0.1009
   50CHL1   H14 4823   1.948   1.627   4.037  0.0128 -0.8270  1.9977
   50CHL1   C15 4824   1.773   1.555   4.136  0.5710  0.7282 -0.6599
   50CHL1  H15A 4825   1.662   1.561   4.128  0.3630  0.4756  1.5245
   50CHL1  H15B 4826   1.811   1.461   4.090 -0.7008  0.9100 -2.1574
   50CHL1   C16 4827   1.822   1.582   4.273 -0.2747  0.2259 -0.0856
   50CHL1  H16A 4828   1.737   1.581   4.344 -0.5370  0.5624 -0.3929
   50CHL1  H16B 4829   1.886   1.499   4.310  0.9048  1.2833  0.3177
   50CHL1   C17 4830   1.909   1.706   4.279 -0.7868 -0.7385  0.2399
   50CHL1   H17 4831   2.016   1.684   4.258 -0.3736  1.5361 -0.3613
   50CHL1   C13 4832   1.871   1.777   4.151  0.0333  0.1707 -0.5745
   50CHL1   C18 4833   1.737   1.857   4.176  0.6599 -0.8949 -0.4048
   50CHL1  H18A 4834   1.767   1.941   4.242  0.0879 -2.1175  1.4733
   50CHL1  H18B 4835   1.696   1.890   4.078  0.3830  0.6574  0.2154
   50CHL1  H18C 4836   1.658   1.794   4.221  0.1007 -0.7306 -1.1425
   50CHL1   C12 4837   1.980   1.865   4.085 -0.5028 -0.1455 -0.2453
   50CHL1  H12A 4838   1.997   1.959   4.141  0.3702  0.2266 -1.1191
   50CHL1  H12B 4839   2.072   1.806   4.063 -0.0678  1.2123 -2.3652
   50CHL1   C11 4840   1.929   1.907   3.948 -0.6078  0.2517 -0.1051
   50CHL1  H11A 4841   1.837   1.965   3.967 -0.6854  0.5093 -1.2008
   50CHL1  H11B 4842   1.999   1.977   3.896 -3.0353  1.9822 -1.2505
   50CHL1    C9 4843   1.892   1.793   3.846  0.4876 -0.3026 -0.4583
   50CHL1    H9 4844   1.987   1.736   3.833  0.7118 -0.1793  0.6090
   50CHL1   C10 4845   1.841   1.833   3.702 -0.4024 -0.5711 -0.1459
   50CHL1   C19 4846   1.726   1.937   3.726  0.2033 -0.3876  0.2613
   50CHL1  H19A 4847   1.749   2.019   3.798 -1.5550 -0.7038  1.2541
   50CHL1  H19B 4848   1.701   1.999   3.637  1.1356 -0.7160 -0.2418
   50CHL1  H19C 4849   1.637   1.879   3.760 -1.5685  2.4994  0.9355
   50CHL1    C1 4850   1.966   1.897   3.628  0.2382 -0.2052 -0.2213
   50CHL1   H1A 4851   1.963   1.998   3.674  1.7353  0.9370 -2.4329
   50CHL1   H1B 4852   2.057   1.836   3.650  0.1375  0.8071  3.6547
   50CHL1    C2 4853   1.949   1.916   3.479 -0.1358 -0.4550  0.3270
   50CHL1   H2A 4854   2.037   1.967   3.434 -1.2886  2.5873  1.1972
   50CHL1   H2B 4855   1.869   1.993   3.464  0.9485  0.5266 -0.6527
   50CHL1   C20 4856   1.915   1.778   4.420  0.8184  0.3271 -0.0017
   50CHL1   H20 4857   1.814   1.787   4.465  1.3988  2.2499  1.0416
   50CHL1   C21 4858   1.978   1.917   4.411 -0.7220  0.1954 -0.4075
   50CHL1  H21A 4859   1.999   1.950   4.515  1.3908  0.0806 -0.7423
   50CHL1  H21B 4860   1.920   1.996   4.358 -0.9419 -1.1508 -2.2760
   50CHL1  H21C 4861   2.083   1.922   4.374 -0.2049 -1.3342  0.7802
   50CHL1   C22 4862   1.989   1.683   4.511  0.1833 -0.2081  0.0531
   50CHL1  H22A 4863   1.933   1.587   4.526  2.2637 -1.1362  2.6757
   50CHL1  H22B 4864   2.085   1.662   4.460 -0.9133 -0.6613 -1.9254
   50CHL1   C23 4865   2.017   1.725   4.659  0.3578 -0.5764 -0.6203
   50CHL1  H23A 4866   2.048   1.629   4.705 -0.9904 -1.7350 -2.0311
   50CHL1  H23B 4867   2.103   1.796   4.661  0.7862 -1.1096 -0.0121
   50CHL1   C24 4868   1.906   1.798   4.737 -0.5292 -0.4713 -0.0565
   50CHL1  H24A 4869   1.858   1.887   4.689  1.1879  2.1666  2.7640
   50CHL1  H24B 4870   1.829   1.722   4.760 -0.5373 -0.3590  0.2851
   50CHL1   C25 4871   1.965   1.867   4.866  0.0418  0.0047 -0.3161
   50CHL1   H25 4872   2.021   1.959   4.837 -1.1366  0.3848 -1.4926
   50CHL1   C26 4873   1.842   1.917   4.951  0.4098 -0.1778 -0.0592
   50CHL1  H26A 4874   1.877   1.946   5.052 -1.5024  1.5515  0.1724
   50CHL1  H26B 4875   1.791   2.002   4.900  1.1040 -0.0359 -0.5397
   50CHL1  H26C 4876   1.771   1.836   4.977  0.4953 -0.4639 -0.6927
   50CHL1   C27 4877   2.042   1.773   4.956 -0.0669  0.5834 -0.4259
   50CHL1  H27A 4878   2.138   1.739   4.911  0.3607 -0.3058  1.0721
   50CHL1  H27B 4879   2.059   1.820   5.055  0.4956  2.4141 -1.3463
   50CHL1  H27C 4880   1.986   1.678   4.973  1.5645 -0.0907  1.7080
   51CHL1    C3 4881   1.025   0.852   3.258  0.0315  0.3777  0.1490
   51CHL1    H3 4882   0.919   0.822   3.241  0.2703 -2.9237  3.2124
   51CHL1    O3 4883   1.088   0.877   3.134  0.2679 -0.4076 -0.4024
   51CHL1   H3' 4884   1.183   0.863   3.146  0.5067  0.2457 -1.4070
   51CHL1    C4 4885   1.032   0.981   3.339 -0.4428 -0.4248 -0.0847
   51CHL1   H4A 4886   1.140   1.002   3.355 -0.2651 -1.8693  0.8783
   51CHL1   H4B 4887   0.994   1.059   3.270 -0.5588 -2.1600 -2.0906
   51CHL1    C5 4888   0.976   0.972   3.475 -0.3637 -0.2069 -0.4711
   51CHL1    C6 4889   0.872   1.055   3.513  0.5871  0.3872  0.2040
   51CHL1    H6 4890   0.845   1.139   3.448 -3.6600 -0.0177  1.1327
   51CHL1    C7 4891   0.804   1.057   3.643  0.5667  0.3143 -0.0714
   51CHL1   H7A 4892   0.784   1.163   3.669  0.8011  1.1889 -3.0877
   51CHL1   H7B 4893   0.708   1.002   3.636  0.2292  0.8106  0.5985
   51CHL1    C8 4894   0.892   0.974   3.745  0.6784 -0.4711 -1.0095
   51CHL1    H8 4895   0.970   1.041   3.786  1.5634 -1.8822 -0.3137
   51CHL1   C14 4896   0.801   0.940   3.861  0.1206 -0.1758 -0.5193
   51CHL1   H14 4897   0.719   0.873   3.828 -1.1240  1.8297 -1.6916
   51CHL1   C15 4898   0.726   1.055   3.926 -0.3873  0.0131 -0.5334
   51CHL1  H15A 4899   0.791   1.143   3.948 -0.2829 -0.0047 -0.7760
   51CHL1  H15B 4900   0.642   1.097   3.866 -0.8214 -0.7750 -0.4899
   51CHL1   C16 4901   0.680   0.998   4.065 -0.3759 -0.9392 -0.1441
   51CHL1  H16A 4902   0.719   1.070   4.140  2.1539 -0.6857 -1.5690
   51CHL1  H16B 4903   0.570   0.991   4.075 -0.5634  3.0039  3.1618
   51CHL1   C17 4904   0.759   0.866   4.089 -0.0953 -0.5943 -0.6013
   51CHL1   H17 4905   0.690   0.784   4.062  1.1726 -1.8635 -0.0914
   51CHL1   C13 4906   0.871   0.859   3.979  0.0912 -0.8952 -0.7320
   51CHL1   C18 4907   0.995   0.932   4.037 -0.1112 -0.2589  0.2267
   51CHL1  H18A 4908   1.049   0.863   4.104 -1.6161 -0.7607  0.9774
   51CHL1  H18B 4909   1.071   0.960   3.960  1.1892 -0.5014  1.3980
   51CHL1  H18C 4910   0.965   1.018   4.101 -3.3020 -0.7845 -0.3476
   51CHL1   C12 4911   0.911   0.721   3.913  0.7763  0.1965 -0.0476
   51CHL1  H12A 4912   0.969   0.653   3.979 -0.4538 -0.5075  0.3184
   51CHL1  H12B 4913   0.821   0.663   3.885  0.8033 -1.6654  3.1948
   51CHL1   C11 4914   1.000   0.746   3.795  0.7440  0.0677 -0.0692
   51CHL1  H11A 4915   1.093   0.793   3.830  1.6301 -1.2875 -0.5251
   51CHL1  H11B 4916   1.033   0.646   3.758  0.3344 -1.1132  2.5265
   51CHL1    C9 4917   0.944   0.845   3.685  0.3474 -0.0458  0.5788
   51CHL1    H9 4918   0.854   0.795   3.644  0.6816 -0.0254 -0.1860
   51CHL1   C10 4919   1.035   0.861   3.559 -0.4122 -0.7944  0.1391
   51CHL1   C19 4920   1.169   0.912   3.599  0.6203  0.1940 -0.6256
   51CHL1  H19A 4921   1.154   0.988   3.679  0.0995 -0.0459 -0.4920
   51CHL1  H19B 4922   1.226   0.827   3.642 -1.4861 -1.2290 -0.5280
   51CHL1  H19C 4923   1.238   0.954   3.522 -0.0548  1.2268 -0.6912
   51CHL1    C1 4924   1.043   0.728   3.473  0.2483 -0.3889 -0.7892
   51CHL1   H1A 4925   1.107   0.653   3.523  0.9912  0.5262 -0.3317
   51CHL1   H1B 4926   0.941   0.684   3.462 -0.5729  1.4595 -0.9549
   51CHL1    C2 4927   1.108   0.742   3.332  0.5635 -0.7997 -0.0738
   51CHL1   H2A 4928   1.095   0.648   3.275  0.7075  1.1233 -3.5285
   51CHL1   H2B 4929   1.215   0.771   3.335  0.8675 -1.8294 -0.6011
   51CHL1   C20 4930   0.795   0.850   4.239 -0.7733  0.3212  0.3307
   51CHL1   H20 4931   0.871   0.926   4.267  0.3546 -0.9466  0.8075
   51CHL1   C21 4932   0.852   0.706   4.249  0.1440 -0.9276  0.7659
   51CHL1  H21A 4933   0.787   0.624   4.211  0.1683 -0.9072  0.6811
   51CHL1  H21B 4934   0.871   0.673   4.354  0.2355 -1.5179  0.5684
   51CHL1  H21C 4935   0.952   0.689   4.204 -1.1727 -0.2892 -2.6615
   51CHL1   C22 4936   0.669   0.860   4.323  0.8462 -0.2203  0.0892
   51CHL1  H22A 4937   0.600   0.939   4.288 -0.3443 -1.0299  0.5243
   51CHL1  H22B 4938   0.614   0.763   4.315  0.4973 -0.0965  0.9285
   51CHL1   C23 4939   0.699   0.887   4.474 -0.4796 -0.1623 -1.0575
   51CHL1  H23A 4940   0.753   0.802   4.520  2.1827  1.9415  0.0338
   51CHL1  H23B 4941   0.771   0.972   4.472 -1.6141  0.8522 -3.9277
   51CHL1   C24 4942   0.574   0.915   4.561 -0.3990 -0.2514 -0.8688
   51CHL1  H24A 4943   0.502   0.985   4.514 -1.9781  0.5586  2.4334
   51CHL1  H24B 4944   0.529   0.814   4.569  0.8201 -0.7517  0.1443
   51CHL1   C25 4945   0.590   0.967   4.707  0.0974  0.0859  0.1370
   51CHL1   H25 4946   0.669   0.904   4.754  1.7273  1.3913 -0.7513
   51CHL1   C26 4947   0.660   1.104   4.709  0.2439  0.3477 -0.7975
   51CHL1  H26A 4948   0.769   1.102   4.692  0.4726  0.9959  0.4394
   51CHL1  H26B 4949   0.617   1.167   4.628  1.1794  1.1940 -0.6543
   51CHL1  H26C 4950   0.647   1.152   4.809 -0.6542 -1.3239 -0.0630
   51CHL1   C27 4951   0.456   0.968   4.765  0.8429 -0.5248  0.0335
   51CHL1  H27A 4952   0.431   0.862   4.787 -1.1179 -0.5319 -1.8192
   51CHL1  H27B 4953   0.456   1.022   4.862  0.6636  0.3770 -0.4576
   51CHL1  H27C 4954   0.374   1.009   4.701 -1.0152  0.5659  2.9203
   52CHL1    C3 4955   3.405   2.585   3.599  0.1238 -0.0675 -0.0622
   52CHL1    H3 4956   3.467   2.493   3.593 -1.3269 -1.1646  1.1559
   52CHL1    O3 4957   3.362   2.625   3.470 -0.1669  0.0228 -0.3302
   52CHL1   H3' 4958   3.440   2.649   3.418  0.6564 -1.4080  0.1895
   52CHL1    C4 4959   3.276   2.567   3.681  0.3265 -1.1195 -0.1702
   52CHL1   H4A 4960   3.211   2.656   3.672  0.5164 -1.0786 -1.2228
   52CHL1   H4B 4961   3.228   2.478   3.634  1.2821 -1.0228 -1.3916
   52CHL1    C5 4962   3.308   2.529   3.825 -0.3980  0.0635  0.0768
   52CHL1    C6 4963   3.267   2.415   3.879  0.6512 -0.1778  0.0281
   52CHL1    H6 4964   3.203   2.339   3.833 -0.2337  0.7756 -0.3359
   52CHL1    C7 4965   3.304   2.368   4.020  0.1820 -0.9316  0.4371
   52CHL1   H7A 4966   3.229   2.306   4.073 -0.5697  0.9656  1.6865
   52CHL1   H7B 4967   3.382   2.289   4.013  2.8926  1.6337 -0.6622
   52CHL1    C8 4968   3.356   2.482   4.105  1.3536  1.0464 -0.4641
   52CHL1    H8 4969   3.266   2.544   4.131 -0.2595 -2.3225  3.0232
   52CHL1   C14 4970   3.421   2.416   4.225  0.2258  0.4922 -0.2122
   52CHL1   H14 4971   3.505   2.356   4.184 -2.0229 -1.2145 -2.6413
   52CHL1   C15 4972   3.339   2.313   4.314  0.0663  0.1423 -0.1282
   52CHL1  H15A 4973   3.231   2.335   4.322  0.1683  0.9511 -0.7889
   52CHL1  H15B 4974   3.355   2.218   4.258 -2.3059 -0.6908  0.5042
   52CHL1   C16 4975   3.417   2.313   4.453  0.3289  0.0696 -0.1558
   52CHL1  H16A 4976   3.348   2.346   4.534  0.8427  0.6162  0.0723
   52CHL1  H16B 4977   3.444   2.206   4.467 -0.4056 -0.1948 -0.7404
   52CHL1   C17 4978   3.538   2.409   4.432 -0.3927 -0.4550 -0.5522
   52CHL1   H17 4979   3.620   2.348   4.387  1.5930  0.5869  1.4411
   52CHL1   C13 4980   3.491   2.507   4.324  0.0351  0.5543 -0.4997
   52CHL1   C18 4981   3.396   2.610   4.398  0.1179  0.0259 -0.1160
   52CHL1  H18A 4982   3.322   2.654   4.327 -0.7954  1.1804  1.4795
   52CHL1  H18B 4983   3.325   2.549   4.458  0.0515 -1.0840 -1.2882
   52CHL1  H18C 4984   3.450   2.679   4.467 -1.5095 -0.3304  1.6011
   52CHL1   C12 4985   3.596   2.596   4.245  0.3649  0.5529 -0.1456
   52CHL1  H12A 4986   3.653   2.664   4.313  0.7508  0.0427  0.0439
   52CHL1  H12B 4987   3.676   2.532   4.202  0.6348  0.7363  0.0762
   52CHL1   C11 4988   3.522   2.669   4.129 -0.5155 -0.1649 -0.2766
   52CHL1  H11A 4989   3.444   2.735   4.172  1.3960  1.7286  0.4506
   52CHL1  H11B 4990   3.591   2.734   4.071  1.8164 -1.1539  1.2000
   52CHL1    C9 4991   3.458   2.566   4.036 -0.0334  0.8262 -0.0602
   52CHL1    H9 4992   3.539   2.495   4.007 -0.3212  0.5566 -0.2138
   52CHL1   C10 4993   3.404   2.626   3.900 -0.4554 -0.4934  0.8853
   52CHL1   C19 4994   3.328   2.759   3.934  0.1604  0.2813  0.0438
   52CHL1  H19A 4995   3.296   2.815   3.843 -0.1963  1.4693  0.8776
   52CHL1  H19B 4996   3.243   2.744   4.003  1.9357 -1.6201  1.9613
   52CHL1  H19C 4997   3.391   2.839   3.979 -0.6445 -0.9848  3.7227
   52CHL1    C1 4998   3.525   2.660   3.804 -0.2469 -0.0856  0.5084
   52CHL1   H1A 4999   3.596   2.736   3.842  1.5538 -0.2624 -2.2032
   52CHL1   H1B 5000   3.592   2.576   3.777 -0.4531  0.3622 -1.5067
   52CHL1    C2 5001   3.495   2.695   3.658  0.0336 -0.3747 -0.1409
   52CHL1   H2A 5002   3.590   2.698   3.600  0.6491  0.8401  0.8599
   52CHL1   H2B 5003   3.452   2.798   3.657  3.2313  1.0723 -0.9662
   52CHL1   C20 5004   3.589   2.450   4.570 -0.1639 -0.3819  0.0210
   52CHL1   H20 5005   3.513   2.490   4.640 -0.3637  0.1644 -0.4944
   52CHL1   C21 5006   3.701   2.552   4.561 -0.9633 -0.0482 -0.4467
   52CHL1  H21A 5007   3.756   2.570   4.656 -0.3612  1.4413 -1.0377
   52CHL1  H21B 5008   3.662   2.654   4.539 -1.0912  0.2933  1.2228
   52CHL1  H21C 5009   3.785   2.525   4.494  0.2421  1.1142  0.5276
   52CHL1   C22 5010   3.651   2.323   4.652 -0.2626  0.3450  0.2642
   52CHL1  H22A 5011   3.681   2.356   4.753  0.2083 -0.1048  0.2789
   52CHL1  H22B 5012   3.570   2.248   4.651  0.0522 -0.0215 -1.5691
   52CHL1   C23 5013   3.787   2.263   4.603  0.0321  0.1006 -0.3861
   52CHL1  H23A 5014   3.778   2.217   4.502  0.2732  0.0738 -0.3953
   52CHL1  H23B 5015   3.869   2.337   4.596 -0.2021  0.4296  0.2537
   52CHL1   C24 5016   3.838   2.155   4.705 -0.4428 -0.1145  0.7687
   52CHL1  H24A 5017   3.819   2.190   4.808 -0.9212  2.6766 -0.1802
   52CHL1  H24B 5018   3.770   2.070   4.685  1.0925 -1.6156  1.6642
   52CHL1   C25 5019   3.989   2.117   4.694 -0.2405  0.0993 -0.3263
   52CHL1   H25 5020   4.000   2.102   4.584 -1.0357  2.2896 -0.7590
   52CHL1   C26 5021   4.081   2.229   4.733  0.4132 -0.2557 -0.2071
   52CHL1  H26A 5022   4.189   2.208   4.720  0.3396 -0.4835 -0.4666
   52CHL1  H26B 5023   4.067   2.323   4.675 -1.5124 -0.7759 -0.6785
   52CHL1  H26C 5024   4.047   2.248   4.837 -1.7117 -0.7667 -0.7653
   52CHL1   C27 5025   4.020   1.986   4.755  0.2860  0.5445 -0.0378
   52CHL1  H27A 5026   3.994   1.970   4.862 -1.0691  1.1135 -0.2611
   52CHL1  H27B 5027   3.966   1.907   4.699  1.6974 -0.0506 -0.6106
   52CHL1  H27C 5028   4.127   1.959   4.739 -0.0390  0.7267 -3.0468
   53CHL1    C3 5029   1.771   3.475   3.604  0.9244 -0.1696 -0.1077
   53CHL1    H3 5030   1.828   3.384   3.634 -0.4750 -0.3212  2.3762
   53CHL1    O3 5031   1.743   3.481   3.469 -0.4396  0.0750  0.2540
   53CHL1   H3' 5032   1.726   3.573   3.449 -0.3219 -0.0501 -0.4506
   53CHL1    C4 5033   1.640   3.456   3.675 -0.6171 -0.0581  0.4621
   53CHL1   H4A 5034   1.575   3.546   3.672 -0.3351  0.1630  0.8476
   53CHL1   H4B 5035   1.579   3.372   3.635  0.6298 -2.2421  2.8725
   53CHL1    C5 5036   1.664   3.439   3.821 -0.1486 -0.1945 -0.3247
   53CHL1    C6 5037   1.617   3.332   3.887 -0.2988  0.3376 -0.1679
   53CHL1    H6 5038   1.553   3.258   3.837 -1.6489  1.1998  0.2212
   53CHL1    C7 5039   1.641   3.321   4.033  0.7240 -0.1087 -0.2356
   53CHL1   H7A 5040   1.550   3.294   4.091  2.1697 -0.5468  1.9497
   53CHL1   H7B 5041   1.714   3.240   4.050 -0.4690 -1.3068 -0.6551
   53CHL1    C8 5042   1.679   3.452   4.102  0.2133  0.6729 -0.6037
   53CHL1    H8 5043   1.600   3.530   4.099  0.5211  1.0427  0.3506
   53CHL1   C14 5044   1.708   3.418   4.254  0.1358  0.3126  0.5697
   53CHL1   H14 5045   1.795   3.350   4.240 -0.7571 -0.7566 -0.0049
   53CHL1   C15 5046   1.614   3.342   4.346 -0.1010 -0.0884 -0.2923
   53CHL1  H15A 5047   1.515   3.390   4.349  1.5837  3.7139  0.1975
   53CHL1  H15B 5048   1.610   3.233   4.322  0.3649 -0.0649 -0.5024
   53CHL1   C16 5049   1.669   3.362   4.485 -0.0970  0.0294  0.0204
   53CHL1  H16A 5050   1.592   3.402   4.555 -0.6502  1.5112 -1.3805
   53CHL1  H16B 5051   1.703   3.265   4.529 -0.5548 -0.6848 -1.1787
   53CHL1   C17 5052   1.786   3.472   4.476 -0.2617 -0.2219  0.5352
   53CHL1   H17 5053   1.881   3.415   4.461  0.4476  1.1611 -0.5355
   53CHL1   C13 5054   1.758   3.536   4.338 -0.5050  0.3647  0.4280
   53CHL1   C18 5055   1.657   3.653   4.347  0.5906 -0.4573 -0.5216
   53CHL1  H18A 5056   1.571   3.611   4.404  0.9603 -3.8499 -2.2028
   53CHL1  H18B 5057   1.697   3.735   4.410 -0.6292 -1.2470  1.3728
   53CHL1  H18C 5058   1.628   3.688   4.246 -0.5711  1.2066  0.3547
   53CHL1   C12 5059   1.881   3.596   4.264  0.0878  0.5260  0.2701
   53CHL1  H12A 5060   1.914   3.682   4.326 -1.5210 -0.4065  2.5966
   53CHL1  H12B 5061   1.964   3.523   4.269  1.2003  1.6656 -0.9165
   53CHL1   C11 5062   1.855   3.636   4.114  0.0868  1.0475 -0.4189
   53CHL1  H11A 5063   1.785   3.722   4.122 -1.4699 -0.1230 -0.9286
   53CHL1  H11B 5064   1.952   3.661   4.067 -0.3813 -0.0266 -2.0594
   53CHL1    C9 5065   1.795   3.517   4.033  0.3986  0.1719  0.4535
   53CHL1    H9 5066   1.878   3.446   4.013 -0.3710 -0.0162 -2.7354
   53CHL1   C10 5067   1.755   3.554   3.882  0.3230  0.2081 -0.2041
   53CHL1   C19 5068   1.679   3.694   3.878 -0.1188  0.1504 -0.2146
   53CHL1  H19A 5069   1.623   3.718   3.785  1.0702  1.1273 -0.7156
   53CHL1  H19B 5070   1.610   3.708   3.964 -1.5352  1.0158 -1.4636
   53CHL1  H19C 5071   1.759   3.769   3.902 -0.0570 -0.5969  2.2573
   53CHL1    C1 5072   1.880   3.575   3.794 -0.5227 -0.0596  0.9450
   53CHL1   H1A 5073   1.933   3.665   3.832 -0.3417 -0.8740  2.7177
   53CHL1   H1B 5074   1.948   3.488   3.807  0.0108 -0.0722 -1.5276
   53CHL1    C2 5075   1.850   3.598   3.649 -0.3343 -0.5270  0.2815
   53CHL1   H2A 5076   1.944   3.619   3.593  0.4252  0.7884  1.9421
   53CHL1   H2B 5077   1.778   3.683   3.648  0.6930  0.4059  1.2897
   53CHL1   C20 5078   1.793   3.561   4.597 -0.2299 -0.7295  0.2898
   53CHL1   H20 5079   1.702   3.618   4.625  0.1111 -1.2502  2.7509
   53CHL1   C21 5080   1.894   3.670   4.568 -0.0791  0.4059 -0.4574
   53CHL1  H21A 5081   1.943   3.706   4.661  0.8845 -0.3373 -0.6608
   53CHL1  H21B 5082   1.854   3.751   4.502  1.1281  0.6004 -0.9983
   53CHL1  H21C 5083   1.981   3.623   4.518 -0.4953 -4.0979  2.5126
   53CHL1   C22 5084   1.831   3.482   4.725 -0.2517  0.1040 -0.2268
   53CHL1  H22A 5085   1.745   3.413   4.739 -0.4828 -0.1373 -2.4992
   53CHL1  H22B 5086   1.924   3.424   4.709 -0.9135 -1.1099  0.2041
   53CHL1   C23 5087   1.852   3.559   4.854 -0.3231  0.0559  0.2750
   53CHL1  H23A 5088   1.936   3.630   4.840 -0.0783 -0.3679 -0.4660
   53CHL1  H23B 5089   1.752   3.602   4.877 -0.4507  0.4720 -0.9965
   53CHL1   C24 5090   1.896   3.460   4.968 -0.0646 -0.5101 -0.5562
   53CHL1  H24A 5091   1.812   3.388   4.970 -1.2260  0.8139 -0.1887
   53CHL1  H24B 5092   1.992   3.409   4.945  2.2139  3.4383 -0.7308
   53CHL1   C25 5093   1.900   3.539   5.110  0.1324 -0.0570  0.1903
   53CHL1   H25 5094   1.989   3.605   5.110  0.5373 -0.5772 -0.6489
   53CHL1   C26 5095   1.776   3.631   5.133 -0.4058 -0.0909 -0.4026
   53CHL1  H26A 5096   1.778   3.655   5.241 -0.8725  0.3648 -0.4884
   53CHL1  H26B 5097   1.795   3.730   5.085 -0.2159  0.4182  0.7030
   53CHL1  H26C 5098   1.689   3.580   5.087 -0.0647 -0.1862 -0.9492
   53CHL1   C27 5099   1.926   3.443   5.229  0.8073 -0.3383  0.5718
   53CHL1  H27A 5100   2.015   3.383   5.203  2.6625  3.1598 -1.8399
   53CHL1  H27B 5101   1.943   3.494   5.326 -1.5310  0.8050  0.4581
   53CHL1  H27C 5102   1.836   3.378   5.237 -0.5088  1.4602  1.0908
   54CHL1    C3 5103   2.832   3.089   3.407 -0.0799 -0.3962  0.1857
   54CHL1    H3 5104   2.740   3.032   3.432 -0.4304 -0.1249 -0.4883
   54CHL1    O3 5105   2.840   3.119   3.269 -0.1276 -0.3887  0.5468
   54CHL1   H3' 5106   2.920   3.172   3.271 -0.4872  0.3292  4.6457
   54CHL1    C4 5107   2.844   3.220   3.490  0.7034  0.3217  0.4731
   54CHL1   H4A 5108   2.948   3.255   3.474  0.0632  2.2556  0.2800
   54CHL1   H4B 5109   2.776   3.292   3.439  0.9361 -0.6430 -1.2947
   54CHL1    C5 5110   2.820   3.182   3.635 -1.5151 -0.5060  0.2047
   54CHL1    C6 5111   2.713   3.220   3.707  0.1446 -0.1439 -0.0129
   54CHL1    H6 5112   2.639   3.288   3.664 -0.6940 -0.1993  1.2935
   54CHL1    C7 5113   2.695   3.191   3.851  1.0061 -0.3825 -0.1641
   54CHL1   H7A 5114   2.662   3.289   3.892 -0.0241  0.0121 -1.8544
   54CHL1   H7B 5115   2.610   3.121   3.869 -0.0447  0.9866  0.3757
   54CHL1    C8 5116   2.829   3.150   3.924  0.6368  0.4146  0.2629
   54CHL1    H8 5117   2.891   3.240   3.940  0.4446  0.6793 -0.4374
   54CHL1   C14 5118   2.796   3.070   4.054  0.6051  0.8259  0.8336
   54CHL1   H14 5119   2.756   2.976   4.010  1.5074  0.8668 -0.1133
   54CHL1   C15 5120   2.684   3.122   4.151  0.1196 -0.2872 -1.3652
   54CHL1  H15A 5121   2.680   3.233   4.147  0.3156 -0.1479  1.0971
   54CHL1  H15B 5122   2.582   3.084   4.128 -0.6819  0.7448  0.2910
   54CHL1   C16 5123   2.733   3.079   4.291 -0.0255  1.0880  0.4079
   54CHL1  H16A 5124   2.760   3.157   4.366  1.9966  0.6442  0.2138
   54CHL1  H16B 5125   2.657   3.022   4.349 -0.5098  1.3405  0.0255
   54CHL1   C17 5126   2.855   2.986   4.269  0.1840 -0.0210  0.7281
   54CHL1   H17 5127   2.813   2.887   4.243 -0.8217  0.3218  0.9844
   54CHL1   C13 5128   2.916   3.039   4.144 -0.8069 -0.5769  0.2062
   54CHL1   C18 5129   3.005   3.167   4.176  0.1680 -0.0707  0.1977
   54CHL1  H18A 5130   2.946   3.231   4.245  1.6830  0.1944  1.2992
   54CHL1  H18B 5131   3.090   3.133   4.238  1.7743  0.9391 -1.3820
   54CHL1  H18C 5132   3.044   3.211   4.082  0.7737 -1.2283 -0.1021
   54CHL1   C12 5133   2.994   2.936   4.061 -0.2938 -0.3521 -0.2427
   54CHL1  H12A 5134   3.089   2.910   4.113 -1.4135 -0.1810  1.9575
   54CHL1  H12B 5135   2.932   2.845   4.047  0.3148 -0.9527  0.8487
   54CHL1   C11 5136   3.030   2.996   3.924 -0.1184  0.1511 -0.1675
   54CHL1  H11A 5137   3.097   3.084   3.935 -1.3075  0.8853  1.6237
   54CHL1  H11B 5138   3.092   2.917   3.875  0.9485 -0.5313  2.1187
   54CHL1    C9 5139   2.904   3.049   3.839 -0.4827 -0.2502 -0.3809
   54CHL1    H9 5140   2.838   2.960   3.827 -0.4574 -0.2387 -0.6205
   54CHL1   C10 5141   2.935   3.088   3.685  0.7326 -0.1798  0.2147
   54CHL1   C19 5142   3.063   3.168   3.689 -0.5492  0.2771  0.7910
   54CHL1  H19A 5143   3.045   3.246   3.767 -1.0100  0.0046  0.9621
   54CHL1  H19B 5144   3.148   3.107   3.727  0.1305  0.8486  0.2087
   54CHL1  H19C 5145   3.099   3.205   3.591  1.7868 -0.1226  1.4271
   54CHL1    C1 5146   2.951   2.961   3.595 -0.4797 -0.2614 -1.2767
   54CHL1   H1A 5147   3.052   2.918   3.612 -0.4697 -0.0171 -0.7134
   54CHL1   H1B 5148   2.871   2.889   3.620 -1.4446  0.6224 -1.7484
   54CHL1    C2 5149   2.945   2.993   3.444 -0.5502 -0.7766 -0.0519
   54CHL1   H2A 5150   2.921   2.892   3.405  2.6773 -1.8253  0.3938
   54CHL1   H2B 5151   3.041   3.026   3.401 -0.8947 -0.1474 -0.3527
   54CHL1   C20 5152   2.942   2.970   4.400 -0.6416  0.2862 -0.6290
   54CHL1   H20 5153   2.981   3.069   4.432  1.3309 -1.1636  1.9064
   54CHL1   C21 5154   3.059   2.879   4.372  0.0752  0.6285  0.2108
   54CHL1  H21A 5155   3.130   2.929   4.302  1.9329  0.6991  2.0592
   54CHL1  H21B 5156   3.022   2.783   4.330  2.4331 -0.7865  1.1202
   54CHL1  H21C 5157   3.125   2.866   4.460  0.2766  2.6967  0.4202
   54CHL1   C22 5158   2.865   2.914   4.522  0.0796  0.2991  0.1094
   54CHL1  H22A 5159   2.784   2.987   4.542 -0.1271  0.0307  0.2715
   54CHL1  H22B 5160   2.807   2.826   4.486 -1.5200  1.4603 -0.2635
   54CHL1   C23 5161   2.942   2.889   4.650  0.4548  0.3861 -0.0511
   54CHL1  H23A 5162   3.025   2.819   4.629 -0.5962 -0.6895 -0.6693
   54CHL1  H23B 5163   2.982   2.991   4.670  1.1512  0.1939 -0.4353
   54CHL1   C24 5164   2.851   2.841   4.768  0.1752 -0.3695  0.4683
   54CHL1  H24A 5165   2.771   2.918   4.783 -0.3362 -0.7835 -0.0856
   54CHL1  H24B 5166   2.796   2.747   4.746 -2.6822  1.6525 -1.8045
   54CHL1   C25 5167   2.929   2.823   4.898  0.8342  0.7495 -0.0208
   54CHL1   H25 5168   3.017   2.759   4.875  0.5127  0.8284 -1.5632
   54CHL1   C26 5169   2.988   2.952   4.945  0.0480 -0.3801 -0.1401
   54CHL1  H26A 5170   2.916   3.035   4.959  2.7969  2.8178 -3.1656
   54CHL1  H26B 5171   3.052   2.932   5.034 -0.3256 -0.2911  0.1473
   54CHL1  H26C 5172   3.064   2.990   4.873  2.7100 -1.1478  2.0654
   54CHL1   C27 5173   2.839   2.759   5.001  0.5875  0.6578 -0.2128
   54CHL1  H27A 5174   2.899   2.751   5.095  0.2841 -0.6639 -0.1165
   54CHL1  H27B 5175   2.746   2.817   5.020  0.2129  0.3956 -1.2192
   54CHL1  H27C 5176   2.805   2.658   4.970  1.0556  0.1324  0.9181
   55CHL1    C3 5177   4.813   5.073   3.370 -0.0588  0.0415 -0.5818
   55CHL1    H3 5178   4.709   5.114   3.375 -0.8083 -1.7903  4.7533
   55CHL1    O3 5179   4.848   5.032   3.240 -0.7956  0.6390 -0.0201
   55CHL1   H3' 5180   4.783   4.967   3.212  0.4366 -1.0043  0.8035
   55CHL1    C4 5181   4.920   5.155   3.438  0.0088  0.5469 -1.2482
   55CHL1   H4A 5182   5.022   5.114   3.421  0.9100  1.4901  1.3393
   55CHL1   H4B 5183   4.914   5.256   3.391  0.2970  0.8562 -0.6295
   55CHL1    C5 5184   4.902   5.164   3.588 -0.6151  0.1027 -0.2007
   55CHL1    C6 5185   4.913   5.283   3.653 -0.1574  0.5256 -0.4345
   55CHL1    H6 5186   4.930   5.370   3.589  0.9516  1.3893  0.9812
   55CHL1    C7 5187   4.902   5.300   3.805 -0.6412 -0.0049  0.6407
   55CHL1   H7A 5188   4.981   5.376   3.825  0.4849 -0.3314 -2.1395
   55CHL1   H7B 5189   4.800   5.335   3.830 -0.1608  1.7481  0.2553
   55CHL1    C8 5190   4.918   5.167   3.886 -0.4469 -0.2094 -0.7271
   55CHL1    H8 5191   5.025   5.140   3.900 -1.0432 -1.8475  1.0972
   55CHL1   C14 5192   4.862   5.173   4.030  0.3987  0.2958  0.5550
   55CHL1   H14 5193   4.752   5.190   4.025  0.5005  0.7628 -0.2999
   55CHL1   C15 5194   4.900   5.296   4.114  0.0048  0.0717  0.0540
   55CHL1  H15A 5195   5.007   5.317   4.092  0.2843 -0.5245  0.8060
   55CHL1  H15B 5196   4.828   5.380   4.109 -2.0421 -1.6461 -0.4467
   55CHL1   C16 5197   4.880   5.245   4.253  0.6585  0.6837  0.4614
   55CHL1  H16A 5198   4.979   5.229   4.302  0.3090  1.0665  1.3027
   55CHL1  H16B 5199   4.816   5.308   4.318 -0.6848  0.5618 -0.6979
   55CHL1   C17 5200   4.812   5.100   4.240 -0.3287  0.4332  0.3772
   55CHL1   H17 5201   4.702   5.109   4.224 -0.7147 -1.4012  1.7321
   55CHL1   C13 5202   4.872   5.044   4.109  0.4578 -0.5018 -0.2869
   55CHL1   C18 5203   5.021   5.012   4.130 -0.3520  0.8886  1.3926
   55CHL1  H18A 5204   5.086   5.090   4.174  1.1736 -0.3642  1.4105
   55CHL1  H18B 5205   5.032   4.934   4.208 -1.3335  1.5110  2.1872
   55CHL1  H18C 5206   5.069   4.980   4.035  0.5417  0.8251  1.8596
   55CHL1   C12 5207   4.796   4.930   4.043 -0.4708 -0.1491 -1.1369
   55CHL1  H12A 5208   4.830   4.841   4.101  2.3713  1.6274  0.1086
   55CHL1  H12B 5209   4.690   4.954   4.066  0.5601  2.4869  1.6116
   55CHL1   C11 5210   4.844   4.924   3.904  0.0999  0.4736  0.6131
   55CHL1  H11A 5211   4.948   4.885   3.900 -0.2085 -0.2842 -1.8384
   55CHL1  H11B 5212   4.772   4.850   3.863  1.1789 -0.7106  0.7790
   55CHL1    C9 5213   4.846   5.055   3.816  0.2490  0.5277  0.2038
   55CHL1    H9 5214   4.741   5.090   3.821 -0.9778 -2.7885 -0.2763
   55CHL1   C10 5215   4.885   5.031   3.664 -0.0789 -0.9271  0.0351
   55CHL1   C19 5216   5.027   4.950   3.663 -0.2902 -0.2527  0.0408
   55CHL1  H19A 5217   5.079   4.948   3.565 -2.0386  3.7367 -1.1799
   55CHL1  H19B 5218   5.082   4.994   3.749  1.8270  0.9705 -1.8364
   55CHL1  H19C 5219   5.009   4.842   3.683  0.7191 -0.4424 -0.0029
   55CHL1    C1 5220   4.775   4.942   3.593 -0.4940  0.2128 -0.3745
   55CHL1   H1A 5221   4.790   4.847   3.649 -1.3054 -0.5063 -1.3543
   55CHL1   H1B 5222   4.675   4.984   3.619 -0.3258 -0.4265  1.4228
   55CHL1    C2 5223   4.806   4.936   3.446  0.4956 -0.2885 -0.0185
   55CHL1   H2A 5224   4.721   4.884   3.397  0.7829 -0.5175 -0.2724
   55CHL1   H2B 5225   4.896   4.872   3.436  0.4890  0.0830 -3.3025
   55CHL1   C20 5226   4.820   5.036   4.375  0.1912  0.1345  0.3661
   55CHL1   H20 5227   4.923   5.052   4.413 -0.0338 -1.7399  1.9173
   55CHL1   C21 5228   4.793   4.886   4.371 -1.0081  0.0354 -0.9091
   55CHL1  H21A 5229   4.881   4.830   4.334 -0.6319  1.5077 -2.3434
   55CHL1  H21B 5230   4.703   4.863   4.311 -1.7153 -1.0622  0.5139
   55CHL1  H21C 5231   4.776   4.844   4.473  0.8907 -1.7190 -1.2229
   55CHL1   C22 5232   4.718   5.103   4.479 -0.5898  0.7919  0.5416
   55CHL1  H22A 5233   4.726   5.213   4.469 -0.4475  0.5582 -4.6253
   55CHL1  H22B 5234   4.614   5.071   4.459  0.2095 -0.8115 -1.3647
   55CHL1   C23 5235   4.754   5.072   4.622  0.3073  0.0749 -0.7391
   55CHL1  H23A 5236   4.742   4.966   4.654  1.3767 -0.0968 -0.8628
   55CHL1  H23B 5237   4.858   5.102   4.648 -0.0464  1.3303 -0.7202
   55CHL1   C24 5238   4.671   5.148   4.725 -0.7193  0.6147  0.0442
   55CHL1  H24A 5239   4.678   5.257   4.704 -1.0218  0.8112  0.9126
   55CHL1  H24B 5240   4.564   5.119   4.714 -1.0230  1.8176 -0.3976
   55CHL1   C25 5241   4.724   5.128   4.872  0.1874  1.1088  0.0857
   55CHL1   H25 5242   4.817   5.189   4.876 -0.0744  1.4777  0.5225
   55CHL1   C26 5243   4.630   5.190   4.972 -0.2348  0.5823 -0.4661
   55CHL1  H26A 5244   4.620   5.301   4.972  0.0969  0.6393 -1.8539
   55CHL1  H26B 5245   4.528   5.147   4.971 -0.6312  1.5001 -1.3360
   55CHL1  H26C 5246   4.677   5.163   5.069 -2.1262 -1.6008 -0.0681
   55CHL1   C27 5247   4.749   4.980   4.918  0.1895 -0.3011 -0.1662
   55CHL1  H27A 5248   4.758   4.970   5.028  0.2049 -3.4238 -0.3712
   55CHL1  H27B 5249   4.668   4.918   4.875 -0.4756 -0.0558  0.7039
   55CHL1  H27C 5250   4.847   4.943   4.880 -1.0959 -2.8444 -1.3001
   56CHL1    C3 5251   4.049   6.712   3.464  0.0271 -0.1940 -0.5061
   56CHL1    H3 5252   4.156   6.685   3.452  0.6791  1.1021  1.7538
   56CHL1    O3 5253   3.993   6.703   3.333  0.8897  0.0996  0.4427
   56CHL1   H3' 5254   4.014   6.789   3.297  0.0602 -0.5339 -1.7064
   56CHL1    C4 5255   3.991   6.604   3.562  0.7972 -0.4916 -0.6568
   56CHL1   H4A 5256   3.883   6.610   3.536  0.4003 -2.5337  0.3477
   56CHL1   H4B 5257   4.018   6.502   3.527  1.4157  0.3141 -2.6930
   56CHL1    C5 5258   4.028   6.620   3.711 -0.3521  0.0112  0.0802
   56CHL1    C6 5259   4.078   6.519   3.785 -0.1040 -0.9934  0.1095
   56CHL1    H6 5260   4.092   6.426   3.729 -1.7163 -0.9140 -0.4606
   56CHL1    C7 5261   4.119   6.538   3.927 -0.4856 -0.1803  0.6713
   56CHL1   H7A 5262   4.101   6.441   3.979  0.0117 -1.8017 -2.0066
   56CHL1   H7B 5263   4.230   6.541   3.925 -0.5249  1.3961 -0.0724
   56CHL1    C8 5264   4.047   6.661   3.994 -0.3024 -0.2839  0.1858
   56CHL1    H8 5265   3.938   6.641   4.000 -0.8423  1.9912 -0.6800
   56CHL1   C14 5266   4.102   6.697   4.133  0.4532 -0.1130  0.6382
   56CHL1   H14 5267   4.210   6.726   4.133  0.2969  0.9772 -3.0460
   56CHL1   C15 5268   4.092   6.576   4.234  0.0397 -0.0023  0.0176
   56CHL1  H15A 5269   3.996   6.522   4.222 -1.6491  3.1522 -2.2336
   56CHL1  H15B 5270   4.171   6.499   4.216 -0.9108 -0.8812 -0.4806
   56CHL1   C16 5271   4.109   6.649   4.363 -0.2930 -0.0056  0.0016
   56CHL1  H16A 5272   4.033   6.618   4.438 -1.2140  0.5850 -0.6564
   56CHL1  H16B 5273   4.210   6.612   4.391  0.5315  1.0906 -1.3852
   56CHL1   C17 5274   4.105   6.807   4.329  0.1876 -0.2205 -0.1202
   56CHL1   H17 5275   4.209   6.841   4.314 -0.4291  1.9898  0.2826
   56CHL1   C13 5276   4.029   6.815   4.195 -0.2804 -0.1693 -0.4118
   56CHL1   C18 5277   3.881   6.786   4.224  0.0933 -0.0293 -0.0189
   56CHL1  H18A 5278   3.864   6.682   4.260 -1.7782  0.1683 -0.2271
   56CHL1  H18B 5279   3.846   6.863   4.296  1.0235  1.9326 -1.5688
   56CHL1  H18C 5280   3.828   6.797   4.127  1.2847  0.2550 -0.6541
   56CHL1   C12 5281   4.054   6.937   4.117 -0.1141 -0.5688  0.2184
   56CHL1  H12A 5282   3.992   7.012   4.171 -2.1932 -2.6902  0.9953
   56CHL1  H12B 5283   4.158   6.972   4.128  0.2115 -1.2425 -0.6441
   56CHL1   C11 5284   4.013   6.922   3.971 -0.6277  0.4177  0.9013
   56CHL1  H11A 5285   3.903   6.938   3.977 -0.1878  4.5859  0.9762
   56CHL1  H11B 5286   4.053   7.009   3.915 -3.0226 -0.7949 -3.0856
   56CHL1    C9 5287   4.060   6.783   3.904  0.4433 -0.1187  0.3441
   56CHL1    H9 5288   4.171   6.793   3.897  0.5215 -1.0011  0.2776
   56CHL1   C10 5289   4.003   6.760   3.759 -0.7366  0.0746 -0.1841
   56CHL1   C19 5290   3.849   6.782   3.772  0.2375  0.1742 -0.0795
   56CHL1  H19A 5291   3.799   6.740   3.863  2.1246  1.1107  1.4541
   56CHL1  H19B 5292   3.834   6.891   3.765  1.6212  0.3186 -1.1933
   56CHL1  H19C 5293   3.802   6.721   3.692 -1.2374 -0.6225  1.3102
   56CHL1    C1 5294   4.079   6.859   3.668  0.3863  0.0649 -0.3078
   56CHL1   H1A 5295   4.059   6.961   3.707  2.4222 -0.7242  3.1424
   56CHL1   H1B 5296   4.185   6.831   3.683  0.2037 -0.7706 -0.5116
   56CHL1    C2 5297   4.036   6.854   3.517 -0.2755 -0.2381 -0.0250
   56CHL1   H2A 5298   4.096   6.928   3.460 -0.1447 -0.2739  0.0656
   56CHL1   H2B 5299   3.933   6.895   3.513  0.0446  0.6520  0.5806
   56CHL1   C20 5300   4.057   6.889   4.443  0.3309 -0.4890  0.5019
   56CHL1   H20 5301   3.948   6.887   4.465  0.2158  1.0477  0.2380
   56CHL1   C21 5302   4.105   7.033   4.424  0.4392  0.1141  0.4520
   56CHL1  H21A 5303   4.056   7.093   4.504  1.3680  1.1378  0.2822
   56CHL1  H21B 5304   4.078   7.083   4.328  0.1089 -1.9429 -0.5697
   56CHL1  H21C 5305   4.212   7.051   4.445  0.7037 -2.5067  1.6268
   56CHL1   C22 5306   4.119   6.848   4.581  1.2230 -0.2228  0.8459
   56CHL1  H22A 5307   4.097   6.742   4.608  1.6636 -0.4018  0.5167
   56CHL1  H22B 5308   4.229   6.860   4.570  0.9298  0.3522 -2.2771
   56CHL1   C23 5309   4.073   6.922   4.707  0.9352  0.0959  0.6327
   56CHL1  H23A 5310   4.107   7.027   4.706 -0.8779  0.7616 -1.8942
   56CHL1  H23B 5311   3.962   6.910   4.706  1.1816 -3.0304  0.7186
   56CHL1   C24 5312   4.138   6.873   4.836 -0.2011  0.5317  0.3315
   56CHL1  H24A 5313   4.114   6.764   4.845 -0.9300  0.6094 -0.4967
   56CHL1  H24B 5314   4.245   6.901   4.832 -0.0947  0.4951  2.2364
   56CHL1   C25 5315   4.078   6.935   4.963  0.5976  0.2534  0.3835
   56CHL1   H25 5316   3.967   6.927   4.954  0.6543  0.9149 -1.1790
   56CHL1   C26 5317   4.125   6.865   5.086 -0.0219  0.1797  0.0217
   56CHL1  H26A 5318   4.232   6.888   5.104  0.1671  0.9484 -1.8930
   56CHL1  H26B 5319   4.064   6.896   5.174 -0.9380 -0.7032 -0.2871
   56CHL1  H26C 5320   4.109   6.755   5.086 -2.2909  0.4578 -0.4929
   56CHL1   C27 5321   4.112   7.081   4.985  0.8251 -0.1204 -0.2093
   56CHL1  H27A 5322   4.085   7.136   4.892  1.2221  1.1947  0.4243
   56CHL1  H27B 5323   4.041   7.133   5.054 -3.6450 -2.0220 -2.9405
   56CHL1  H27C 5324   4.214   7.107   5.022  0.0609 -0.0770  2.0514
   57CHL1    C3 5325   2.830   5.403   3.466  0.1915 -0.5769  0.2214
   57CHL1    H3 5326   2.745   5.475   3.460 -2.0891 -3.1015  0.3564
   57CHL1    O3 5327   2.845   5.355   3.336 -0.2092 -0.5855  0.1799
   57CHL1   H3' 5328   2.762   5.314   3.310 -1.1288  1.4482 -0.3532
   57CHL1    C4 5329   2.959   5.462   3.525  1.2835 -0.7185 -0.2176
   57CHL1   H4A 5330   3.043   5.394   3.502  1.7986 -0.0445 -0.3857
   57CHL1   H4B 5331   2.975   5.557   3.469 -2.4570  1.4564  1.9283
   57CHL1    C5 5332   2.958   5.494   3.669  0.2042  0.0087 -0.7533
   57CHL1    C6 5333   2.982   5.615   3.718 -0.5266 -0.8292  0.1376
   57CHL1    H6 5334   3.004   5.697   3.648 -1.2127  0.6150  1.5737
   57CHL1    C7 5335   2.996   5.644   3.866  0.3958  0.2310  0.7738
   57CHL1   H7A 5336   3.087   5.707   3.874  1.1838 -0.7713  0.0310
   57CHL1   H7B 5337   2.907   5.703   3.897  0.5379 -0.0360  1.7166
   57CHL1    C8 5338   3.003   5.523   3.959  0.2024 -0.0622 -0.9945
   57CHL1    H8 5339   3.105   5.481   3.942 -0.4412 -0.6410 -4.0800
   57CHL1   C14 5340   2.961   5.565   4.094  0.3839 -0.3886 -0.2144
   57CHL1   H14 5341   2.852   5.583   4.100 -0.2844 -3.4845 -1.0219
   57CHL1   C15 5342   3.039   5.698   4.149  0.1420  0.0056 -0.3026
   57CHL1  H15A 5343   3.142   5.686   4.108  0.4617 -1.4612  0.8388
   57CHL1  H15B 5344   2.988   5.787   4.107 -0.2774  0.0240  0.2417
   57CHL1   C16 5345   3.010   5.690   4.299 -0.3854 -0.1827 -0.3307
   57CHL1  H16A 5346   3.103   5.711   4.356  0.8165  0.3424 -2.4112
   57CHL1  H16B 5347   2.918   5.748   4.323 -0.2816 -0.0439 -0.2687
   57CHL1   C17 5348   2.960   5.543   4.328  0.2279 -1.3202  0.2123
   57CHL1   H17 5349   2.851   5.551   4.344 -0.7067 -2.5667 -4.1617
   57CHL1   C13 5350   2.985   5.456   4.201  0.1243 -1.0645 -1.2821
   57CHL1   C18 5351   3.130   5.405   4.193 -0.3178 -0.2042 -0.6397
   57CHL1  H18A 5352   3.148   5.362   4.092 -0.6386 -0.9417 -0.3962
   57CHL1  H18B 5353   3.195   5.493   4.210 -2.6216  1.4662 -0.0165
   57CHL1  H18C 5354   3.145   5.332   4.275 -1.6823  1.2977  1.0203
   57CHL1   C12 5355   2.879   5.347   4.163 -0.4673  0.0000 -0.1199
   57CHL1  H12A 5356   2.874   5.260   4.231  2.4942 -1.4709 -1.6326
   57CHL1  H12B 5357   2.784   5.403   4.179  0.3045  0.4801  3.8817
   57CHL1   C11 5358   2.887   5.305   4.014 -0.1687  0.4427  0.2346
   57CHL1  H11A 5359   2.967   5.228   4.011 -0.8467 -0.2528 -0.2797
   57CHL1  H11B 5360   2.792   5.252   3.991  0.7198 -1.2565  0.3131
   57CHL1    C9 5361   2.903   5.425   3.915 -0.0398  0.4154 -0.4560
   57CHL1    H9 5362   2.805   5.477   3.911 -0.2117  0.0587 -1.2676
   57CHL1   C10 5363   2.916   5.380   3.765  0.5048  0.3429  0.4204
   57CHL1   C19 5364   3.022   5.270   3.766 -0.0943 -0.0772  0.0703
   57CHL1  H19A 5365   2.974   5.172   3.788  3.1016 -1.5304  1.0343
   57CHL1  H19B 5366   3.074   5.255   3.669  1.0380 -0.1782  0.6765
   57CHL1  H19C 5367   3.093   5.291   3.849  0.7004  0.0229 -0.6274
   57CHL1    C1 5368   2.773   5.336   3.709 -0.0423 -0.0056 -0.3113
   57CHL1   H1A 5369   2.729   5.252   3.767 -0.1015  0.5398  0.4534
   57CHL1   H1B 5370   2.699   5.415   3.735  0.4100 -0.1966  1.6877
   57CHL1    C2 5371   2.763   5.298   3.563 -0.2671 -0.2310 -0.1098
   57CHL1   H2A 5372   2.655   5.286   3.542 -0.0693  2.1031 -3.2019
   57CHL1   H2B 5373   2.811   5.199   3.547 -1.4917 -0.8649  0.0279
   57CHL1   C20 5374   3.015   5.490   4.464 -0.3206  1.1230  0.3928
   57CHL1   H20 5375   3.125   5.476   4.457 -0.5002 -0.3611  0.3174
   57CHL1   C21 5376   2.960   5.347   4.486  1.0378  0.1166  0.6438
   57CHL1  H21A 5377   2.850   5.350   4.471  1.2706  1.0792 -1.1336
   57CHL1  H21B 5378   2.986   5.303   4.585 -0.5184  1.1456  1.5408
   57CHL1  H21C 5379   2.996   5.292   4.396  2.0342  3.7032 -1.3717
   57CHL1   C22 5380   3.000   5.577   4.589 -0.3009  0.7703  0.8414
   57CHL1  H22A 5381   3.056   5.536   4.676 -1.4418 -0.2958  1.1026
   57CHL1  H22B 5382   3.052   5.674   4.574  1.7531 -0.3099  0.7064
   57CHL1   C23 5383   2.845   5.602   4.621 -0.5278 -0.5434  0.1896
   57CHL1  H23A 5384   2.793   5.640   4.530 -0.4263 -0.8035  0.0217
   57CHL1  H23B 5385   2.805   5.508   4.666  2.0583 -1.8192  0.0076
   57CHL1   C24 5386   2.830   5.715   4.727 -0.0507 -0.1171 -0.7141
   57CHL1  H24A 5387   2.930   5.764   4.732  0.2893 -0.9675  1.3982
   57CHL1  H24B 5388   2.751   5.785   4.692 -0.7705 -0.7102 -0.3006
   57CHL1   C25 5389   2.806   5.671   4.868  0.1438 -0.4209  0.5417
   57CHL1   H25 5390   2.882   5.596   4.899 -0.0469 -0.1173  1.8127
   57CHL1   C26 5391   2.809   5.791   4.958  0.2955 -0.2785  0.2003
   57CHL1  H26A 5392   2.741   5.870   4.918 -0.9809 -1.7130 -0.5633
   57CHL1  H26B 5393   2.769   5.766   5.059 -0.0924 -2.1697 -0.3890
   57CHL1  H26C 5394   2.910   5.834   4.971 -0.6100  1.8683  0.6294
   57CHL1   C27 5395   2.677   5.590   4.894  1.4060 -0.2150  0.4048
   57CHL1  H27A 5396   2.665   5.575   5.003 -3.0295  1.1089  0.3218
   57CHL1  H27B 5397   2.584   5.634   4.853  1.1895 -1.2793 -0.3113
   57CHL1  H27C 5398   2.687   5.494   4.838  0.7395  1.3163 -2.5619
   58CHL1    C3 5399   2.504   4.305   3.215 -0.4599  0.3098  0.0898
   58CHL1    H3 5400   2.578   4.388   3.218 -2.9583  2.6594  2.4007
   58CHL1    O3 5401   2.456   4.297   3.082  0.2029 -0.4116  0.3013
   58CHL1   H3' 5402   2.394   4.224   3.089  0.7229 -1.1545 -1.9833
   58CHL1    C4 5403   2.555   4.158   3.252  0.7046 -0.3907  0.1798
   58CHL1   H4A 5404   2.472   4.087   3.236  1.2589 -1.1482  0.5785
   58CHL1   H4B 5405   2.635   4.132   3.179  2.0205  2.0411  0.6507
   58CHL1    C5 5406   2.603   4.159   3.400 -0.9725 -0.0841 -0.4253
   58CHL1    C6 5407   2.726   4.124   3.430 -0.3722 -0.3641  0.6950
   58CHL1    H6 5408   2.792   4.100   3.345 -2.0181 -0.2042 -0.6982
   58CHL1    C7 5409   2.771   4.129   3.569 -0.8748 -0.1221 -0.1415
   58CHL1   H7A 5410   2.852   4.057   3.590 -1.1089 -1.0359 -2.2280
   58CHL1   H7B 5411   2.812   4.224   3.610 -0.3798 -1.5952  3.0548
   58CHL1    C8 5412   2.656   4.092   3.667  0.2846 -0.4549 -1.0676
   58CHL1    H8 5413   2.627   3.985   3.662  0.9961 -0.6993 -0.2234
   58CHL1   C14 5414   2.712   4.109   3.814 -0.1972  0.0414 -0.2788
   58CHL1   H14 5415   2.749   4.214   3.810  0.0598 -0.0740 -1.0921
   58CHL1   C15 5416   2.838   4.031   3.856 -0.3173 -0.1537 -0.6654
   58CHL1  H15A 5417   2.808   3.925   3.842  0.6555 -0.4662 -0.4174
   58CHL1  H15B 5418   2.928   4.078   3.811  0.0776 -1.7292 -1.6136
   58CHL1   C16 5419   2.846   4.053   4.006 -0.1578 -0.2203  0.0925
   58CHL1  H16A 5420   2.854   3.960   4.066  1.6508  1.1600  2.1595
   58CHL1  H16B 5421   2.932   4.123   4.015 -0.8567  1.1070 -2.5616
   58CHL1   C17 5422   2.713   4.133   4.045  0.6937  0.0374 -0.5640
   58CHL1   H17 5423   2.735   4.242   4.044 -0.0218  0.1860 -0.3207
   58CHL1   C13 5424   2.607   4.102   3.929  0.2444 -0.0526  0.7787
   58CHL1   C18 5425   2.549   3.960   3.951 -0.2334  0.4693 -0.1419
   58CHL1  H18A 5426   2.513   3.934   3.849  0.9880  0.8084 -0.6857
   58CHL1  H18B 5427   2.623   3.882   3.979 -1.9015 -1.1970 -0.1776
   58CHL1  H18C 5428   2.473   3.955   4.031 -0.0468 -0.6471 -0.0159
   58CHL1   C12 5429   2.499   4.213   3.898 -0.3902 -0.7169 -0.4318
   58CHL1  H12A 5430   2.414   4.207   3.970 -1.6213 -0.8566 -1.8362
   58CHL1  H12B 5431   2.542   4.314   3.883 -0.6532 -0.5604 -0.1330
   58CHL1   C11 5432   2.433   4.186   3.759 -1.0429  0.1100 -0.8398
   58CHL1  H11A 5433   2.408   4.078   3.763 -0.0594 -0.1000 -0.0529
   58CHL1  H11B 5434   2.349   4.252   3.728  0.1431  1.5591 -1.1224
   58CHL1    C9 5435   2.538   4.188   3.645 -0.1481 -0.0792  0.1162
   58CHL1    H9 5436   2.592   4.285   3.651  0.4527 -0.0886 -3.3678
   58CHL1   C10 5437   2.490   4.192   3.499  0.3296  0.1651 -0.3077
   58CHL1   C19 5438   2.368   4.090   3.490 -0.4871  0.1384 -0.0698
   58CHL1  H19A 5439   2.340   4.071   3.384  1.2331 -2.1613 -0.1843
   58CHL1  H19B 5440   2.390   3.995   3.543 -0.2755  2.1120  3.6503
   58CHL1  H19C 5441   2.280   4.136   3.538  0.5707 -1.2197  3.4784
   58CHL1    C1 5442   2.441   4.336   3.456 -0.3574  0.3950  0.0811
   58CHL1   H1A 5443   2.349   4.357   3.514 -1.3261  1.0633 -1.6445
   58CHL1   H1B 5444   2.525   4.405   3.479 -0.5621  0.5833  0.2612
   58CHL1    C2 5445   2.390   4.349   3.309  0.1326  0.6699  0.1202
   58CHL1   H2A 5446   2.361   4.455   3.291  0.7809  1.1494  1.6795
   58CHL1   H2B 5447   2.303   4.284   3.289  1.2971 -0.5223 -1.3552
   58CHL1   C20 5448   2.676   4.093   4.193 -0.1721  0.3331  0.0184
   58CHL1   H20 5449   2.633   3.990   4.202  0.7222 -0.2417 -1.7949
   58CHL1   C21 5450   2.570   4.196   4.232  0.0974  0.2250  0.3991
   58CHL1  H21A 5451   2.481   4.167   4.172  1.5152 -1.3987 -1.0189
   58CHL1  H21B 5452   2.603   4.301   4.221 -1.6795  0.9634  1.7801
   58CHL1  H21C 5453   2.540   4.181   4.338 -1.6511  1.7864  0.1757
   58CHL1   C22 5454   2.796   4.100   4.288 -0.2113  0.2194  0.6048
   58CHL1  H22A 5455   2.856   4.009   4.268 -1.1567 -0.6560  1.6082
   58CHL1  H22B 5456   2.855   4.194   4.275  1.2557 -0.5986  1.1792
   58CHL1   C23 5457   2.769   4.074   4.443  0.2272  0.3541  0.1138
   58CHL1  H23A 5458   2.694   4.153   4.466  0.1673  0.5836 -0.8304
   58CHL1  H23B 5459   2.721   3.976   4.459  1.0782 -0.0778  0.0687
   58CHL1   C24 5460   2.891   4.077   4.535 -0.6135  0.3989 -0.2790
   58CHL1  H24A 5461   2.969   4.016   4.485  0.8029  1.5114  0.5273
   58CHL1  H24B 5462   2.937   4.178   4.539  1.2732 -0.4633  1.8938
   58CHL1   C25 5463   2.854   4.034   4.678 -0.2482  0.4512  0.0338
   58CHL1   H25 5464   2.750   4.067   4.698 -0.2144  1.1315 -0.8630
   58CHL1   C26 5465   2.844   3.880   4.694  0.2426 -0.0334 -0.0068
   58CHL1  H26A 5466   2.932   3.824   4.654  1.1455  0.4895  1.1741
   58CHL1  H26B 5467   2.833   3.842   4.797  2.6762  0.9929  0.7118
   58CHL1  H26C 5468   2.753   3.860   4.634 -0.1182  1.9341 -0.1905
   58CHL1   C27 5469   2.956   4.097   4.769 -0.1690  0.5824  0.8494
   58CHL1  H27A 5470   2.939   4.057   4.871 -0.9987 -1.3619  0.0195
   58CHL1  H27B 5471   3.060   4.069   4.744 -0.9786 -1.2258 -0.7840
   58CHL1  H27C 5472   2.945   4.207   4.769 -1.6881  0.4536  1.3008
   59CHL1    C3 5473   3.023   6.005   3.482 -0.0013  0.1406  0.3766
   59CHL1    H3 5474   2.968   5.921   3.531 -0.2551  0.6220  0.9288
   59CHL1    O3 5475   2.976   6.027   3.354  0.1173  0.2990  0.1385
   59CHL1   H3' 5476   2.985   6.121   3.333  1.0526  0.2590  0.2927
   59CHL1    C4 5477   3.004   6.128   3.577 -0.1128 -0.7583  0.3371
   59CHL1   H4A 5478   3.049   6.223   3.541 -0.1059 -1.3392 -1.2923
   59CHL1   H4B 5479   2.900   6.165   3.575  0.2882  0.3752 -0.8046
   59CHL1    C5 5480   3.051   6.102   3.717 -0.3847 -0.2948  0.3037
   59CHL1    C6 5481   2.968   6.096   3.825  0.0395 -0.2251  0.8464
   59CHL1    H6 5482   2.861   6.120   3.812  0.2049  0.7181  1.1890
   59CHL1    C7 5483   3.020   6.070   3.959 -0.1930  0.3450 -0.4671
   59CHL1   H7A 5484   2.973   6.131   4.039 -0.4545 -1.5713  0.8932
   59CHL1   H7B 5485   3.004   5.963   3.986 -0.5410  0.3047 -0.8241
   59CHL1    C8 5486   3.172   6.092   3.974  0.8965  0.4838 -0.0465
   59CHL1    H8 5487   3.185   6.202   3.979  0.0341  0.5485  1.0381
   59CHL1   C14 5488   3.214   6.034   4.107 -0.6399 -0.0469 -0.1119
   59CHL1   H14 5489   3.206   5.923   4.109 -2.0959 -0.0049 -1.6049
   59CHL1   C15 5490   3.135   6.075   4.227  0.2574  0.4006 -0.5940
   59CHL1  H15A 5491   3.110   6.183   4.225  0.6529  0.4912 -0.6850
   59CHL1  H15B 5492   3.039   6.020   4.235  0.7576 -0.2247  1.9995
   59CHL1   C16 5493   3.229   6.067   4.345 -0.8630 -0.4832 -0.0017
   59CHL1  H16A 5494   3.230   6.169   4.387  1.0846  0.3332 -1.8484
   59CHL1  H16B 5495   3.190   5.998   4.423 -1.8886  0.4477  0.3377
   59CHL1   C17 5496   3.366   6.019   4.286  0.0927 -0.0073 -0.3342
   59CHL1   H17 5497   3.359   5.909   4.291  0.4452 -0.0057  0.2847
   59CHL1   C13 5498   3.365   6.063   4.141 -0.2271 -0.6073  0.1969
   59CHL1   C18 5499   3.380   6.223   4.126 -0.1858  0.4346  0.1806
   59CHL1  H18A 5500   3.477   6.255   4.169  1.0587 -2.3675 -0.3011
   59CHL1  H18B 5501   3.377   6.257   4.020  0.7881  0.6498  0.2140
   59CHL1  H18C 5502   3.298   6.271   4.183 -1.3955  0.3996 -1.4473
   59CHL1   C12 5503   3.442   5.980   4.036 -0.3850  0.1836  0.0776
   59CHL1  H12A 5504   3.551   5.982   4.059 -0.6765 -1.2019  1.8618
   59CHL1  H12B 5505   3.420   5.872   4.037  2.5048 -0.5286 -1.5537
   59CHL1   C11 5506   3.409   6.026   3.896  0.1581 -0.1270  0.4592
   59CHL1  H11A 5507   3.460   6.125   3.885  2.1160 -0.9741  1.5119
   59CHL1  H11B 5508   3.456   5.956   3.824 -1.0732  0.2849 -0.7839
   59CHL1    C9 5509   3.255   6.021   3.867  0.2175 -0.0834 -0.0877
   59CHL1    H9 5510   3.225   5.914   3.862 -0.0930  0.0454 -2.2672
   59CHL1   C10 5511   3.205   6.065   3.725 -1.1004 -0.2237  0.0649
   59CHL1   C19 5512   3.285   6.193   3.680 -0.3707  0.5675  0.1209
   59CHL1  H19A 5513   3.266   6.214   3.572  1.8967  1.4136 -0.1581
   59CHL1  H19B 5514   3.260   6.285   3.737  0.8110  1.0874 -0.1772
   59CHL1  H19C 5515   3.395   6.190   3.671 -0.4303  2.6653 -3.0906
   59CHL1    C1 5516   3.233   5.957   3.619  0.4521  0.2086  0.4777
   59CHL1   H1A 5517   3.343   5.943   3.623  0.6722  1.5934 -0.3072
   59CHL1   H1B 5518   3.198   5.860   3.661  1.6327 -0.2711  0.3926
   59CHL1    C2 5519   3.174   5.975   3.479 -0.1128 -1.2069 -0.0326
   59CHL1   H2A 5520   3.187   5.894   3.404 -0.9284  1.0920 -2.8532
   59CHL1   H2B 5521   3.237   6.048   3.423  0.1906 -0.8906  0.6997
   59CHL1   C20 5522   3.484   6.062   4.372  0.6882  0.4228 -0.0857
   59CHL1   H20 5523   3.487   6.171   4.354 -0.0290  0.0054 -3.2554
   59CHL1   C21 5524   3.605   5.998   4.312 -0.5601  0.3811  0.4103
   59CHL1  H21A 5525   3.639   6.049   4.220  0.5689  0.1721  0.6908
   59CHL1  H21B 5526   3.591   5.891   4.287 -1.9490  0.6172  0.1116
   59CHL1  H21C 5527   3.687   6.008   4.387 -1.9646 -1.5952  2.3258
   59CHL1   C22 5528   3.458   6.039   4.524  0.0111  0.3130  0.3597
   59CHL1  H22A 5529   3.361   6.083   4.553  0.3412  0.6713  0.9335
   59CHL1  H22B 5530   3.442   5.930   4.541 -0.5529  0.4770  0.8857
   59CHL1   C23 5531   3.571   6.086   4.618  0.0834 -0.1058 -0.4537
   59CHL1  H23A 5532   3.666   6.050   4.571 -0.4041  0.3816 -1.8868
   59CHL1  H23B 5533   3.574   6.197   4.605 -2.2430 -0.0384 -0.7859
   59CHL1   C24 5534   3.537   6.055   4.765  0.2917  0.0057  0.4148
   59CHL1  H24A 5535   3.454   6.125   4.786  1.6176  1.5115  0.8626
   59CHL1  H24B 5536   3.498   5.953   4.782  0.8989 -0.4825 -0.9650
   59CHL1   C25 5537   3.655   6.088   4.860 -0.4957  0.5898 -0.0805
   59CHL1   H25 5538   3.749   6.055   4.810 -0.4172  1.1769 -0.3260
   59CHL1   C26 5539   3.670   6.234   4.874  0.3022  1.0009 -0.3860
   59CHL1  H26A 5540   3.580   6.282   4.918  1.3168  1.5834  1.1582
   59CHL1  H26B 5541   3.762   6.260   4.932  1.0672  0.1018 -1.1668
   59CHL1  H26C 5542   3.675   6.293   4.780 -2.1477 -2.3099 -2.8133
   59CHL1   C27 5543   3.648   6.019   4.994  0.0800  0.4079  0.0177
   59CHL1  H27A 5544   3.555   6.040   5.053  0.8268 -0.5872  1.6388
   59CHL1  H27B 5545   3.659   5.909   4.989  1.3556  0.5650 -1.0699
   59CHL1  H27C 5546   3.722   6.054   5.070 -0.5571  1.7007  0.0741
   60CHL1    C3 5547   3.270   4.101   3.472  0.0559  0.5043  0.5269
   60CHL1    H3 5548   3.209   4.194   3.471  0.3116  0.6770  0.8341
   60CHL1    O3 5549   3.294   4.058   3.335 -0.7604 -0.2764 -0.6565
   60CHL1   H3' 5550   3.375   4.006   3.339  0.4043  1.5347  0.8012
   60CHL1    C4 5551   3.408   4.122   3.523 -0.2051 -0.1077 -0.3465
   60CHL1   H4A 5552   3.476   4.041   3.488  0.1282  0.8229 -1.9338
   60CHL1   H4B 5553   3.446   4.210   3.466  2.4664 -0.6159  0.4768
   60CHL1    C5 5554   3.425   4.133   3.675  0.2047 -0.1259 -0.1110
   60CHL1    C6 5555   3.488   4.241   3.715  0.0819 -0.1547 -0.6128
   60CHL1    H6 5556   3.540   4.308   3.645  1.8636  1.0022  1.7041
   60CHL1    C7 5557   3.505   4.271   3.865  0.3924 -0.4170 -0.6809
   60CHL1   H7A 5558   3.606   4.302   3.899 -0.2235  2.6463 -1.4228
   60CHL1   H7B 5559   3.439   4.357   3.890 -0.8903 -1.7151  0.5944
   60CHL1    C8 5560   3.465   4.154   3.950  0.7578 -0.1295 -0.1774
   60CHL1    H8 5561   3.550   4.082   3.953  1.0112 -0.1164 -3.4527
   60CHL1   C14 5562   3.453   4.198   4.100 -0.4397 -0.2257  0.5405
   60CHL1   H14 5563   3.359   4.256   4.092 -1.2278 -1.4734  0.3989
   60CHL1   C15 5564   3.561   4.282   4.164 -0.0086  0.6483 -0.2151
   60CHL1  H15A 5565   3.660   4.236   4.144 -0.9824 -0.6566 -2.4597
   60CHL1  H15B 5566   3.568   4.387   4.129 -0.0219  0.9325  0.6106
   60CHL1   C16 5567   3.536   4.283   4.317  0.7425  0.6670 -0.4404
   60CHL1  H16A 5568   3.625   4.242   4.369 -0.4647  1.3194  2.3491
   60CHL1  H16B 5569   3.535   4.389   4.350  1.7948 -0.0762  2.2327
   60CHL1   C17 5570   3.409   4.179   4.334  0.2279  0.1829  0.0205
   60CHL1   H17 5571   3.314   4.236   4.325 -0.8040 -1.7235 -1.7808
   60CHL1   C13 5572   3.417   4.093   4.204 -0.3801  0.2587 -0.2123
   60CHL1   C18 5573   3.529   3.993   4.231  0.6209 -0.2026 -0.3819
   60CHL1  H18A 5574   3.609   4.046   4.288 -0.5529  1.1827  0.0570
   60CHL1  H18B 5575   3.482   3.910   4.287 -0.8009  1.8160  1.6189
   60CHL1  H18C 5576   3.577   3.954   4.139  1.5817  0.3265 -0.1228
   60CHL1   C12 5577   3.279   4.030   4.153  0.0931  0.8578  0.1803
   60CHL1  H12A 5578   3.261   3.936   4.210  1.6804  0.4514  0.0654
   60CHL1  H12B 5579   3.193   4.098   4.168 -0.4681  0.6304 -1.7441
   60CHL1   C11 5580   3.304   3.976   4.013  0.1180 -0.1345  0.4671
   60CHL1  H11A 5581   3.395   3.913   4.020  0.8634  0.9673  0.8088
   60CHL1  H11B 5582   3.212   3.927   3.974  0.3577  1.0821 -1.7781
   60CHL1    C9 5583   3.342   4.084   3.905 -0.2028 -0.4834  0.1631
   60CHL1    H9 5584   3.251   4.148   3.911  0.5370  0.5137  1.0332
   60CHL1   C10 5585   3.353   4.034   3.762  0.1147  0.1995  0.3380
   60CHL1   C19 5586   3.437   3.905   3.748  0.1984  0.0133 -0.3105
   60CHL1  H19A 5587   3.469   3.881   3.644  0.2379  2.0722 -0.8258
   60CHL1  H19B 5588   3.533   3.917   3.802 -0.0232 -0.3340  0.1659
   60CHL1  H19C 5589   3.391   3.819   3.801  0.0274  1.2739  1.6749
   60CHL1    C1 5590   3.210   4.012   3.702 -0.0263  0.1410 -0.0195
   60CHL1   H1A 5591   3.156   3.929   3.752  2.5014 -0.6914  1.4841
   60CHL1   H1B 5592   3.157   4.105   3.732  1.6222  0.7417  1.1961
   60CHL1    C2 5593   3.201   3.988   3.553 -0.6793  0.1523  0.5362
   60CHL1   H2A 5594   3.098   3.988   3.511 -0.1799  2.1506 -0.8501
   60CHL1   H2B 5595   3.243   3.888   3.528 -3.0620 -0.3045 -2.1416
   60CHL1   C20 5596   3.392   4.117   4.472 -0.3398  0.6596 -0.0749
   60CHL1   H20 5597   3.488   4.067   4.497 -2.2556 -1.9832  2.7150
   60CHL1   C21 5598   3.279   4.002   4.475 -0.5070  0.2156 -0.0282
   60CHL1  H21A 5599   3.243   3.982   4.578 -0.5496  2.3573  0.4221
   60CHL1  H21B 5600   3.336   3.910   4.450 -0.2507  1.0739 -2.9224
   60CHL1  H21C 5601   3.196   4.022   4.403 -0.1354  0.6383 -0.3429
   60CHL1   C22 5602   3.367   4.226   4.577  0.5987  0.6707 -0.1537
   60CHL1  H22A 5603   3.425   4.320   4.561  1.7755  0.2732  1.5500
   60CHL1  H22B 5604   3.260   4.257   4.577  1.0366  2.3568 -1.7335
   60CHL1   C23 5605   3.411   4.177   4.717 -0.1430 -0.3229  0.4194
   60CHL1  H23A 5606   3.356   4.081   4.731 -3.2183  1.3189  0.4968
   60CHL1  H23B 5607   3.521   4.159   4.721  0.0985  1.2107  1.7837
   60CHL1   C24 5608   3.349   4.272   4.823 -0.2190 -0.2611 -0.3190
   60CHL1  H24A 5609   3.401   4.369   4.809  3.1568 -1.7196  1.0574
   60CHL1  H24B 5610   3.244   4.285   4.788  0.0868 -0.6337 -1.3989
   60CHL1   C25 5611   3.350   4.220   4.975 -0.0936  0.3085  0.2265
   60CHL1   H25 5612   3.452   4.196   5.009  0.0936  1.7495  0.7634
   60CHL1   C26 5613   3.290   4.332   5.058 -0.1887  0.0906 -0.3204
   60CHL1  H26A 5614   3.300   4.323   5.168  0.0339  2.0740 -0.1433
   60CHL1  H26B 5615   3.344   4.423   5.025  1.6461 -0.6930  0.3707
   60CHL1  H26C 5616   3.181   4.335   5.037 -0.4662 -0.2178  1.0228
   60CHL1   C27 5617   3.254   4.097   4.989  0.6942 -0.6295  0.6808
   60CHL1  H27A 5618   3.234   4.069   5.095 -2.0211  0.9337  0.6847
   60CHL1  H27B 5619   3.154   4.120   4.945  1.8194  0.5654 -1.3910
   60CHL1  H27C 5620   3.292   4.011   4.930  1.4986 -0.0905  0.3967
   61CHL1    C3 5621   4.652   6.010   3.258 -0.5618 -0.2944  0.3900
   61CHL1    H3 5622   4.565   5.952   3.221 -1.1240  0.6648  0.1522
   61CHL1    O3 5623   4.747   6.041   3.154 -0.0709 -0.4226  0.2443
   61CHL1   H3' 5624   4.787   6.124   3.181 -0.6787  0.4668 -1.5009
   61CHL1    C4 5625   4.595   6.141   3.317  0.0459 -0.1338  0.1649
   61CHL1   H4A 5626   4.673   6.220   3.328 -0.6823  0.7265 -0.6566
   61CHL1   H4B 5627   4.522   6.191   3.249 -0.1365  1.1546  1.2582
   61CHL1    C5 5628   4.517   6.127   3.445  0.2559  0.6331  0.3529
   61CHL1    C6 5629   4.390   6.175   3.461  0.6814  0.5499 -0.1876
   61CHL1    H6 5630   4.338   6.229   3.381 -0.4172 -0.8576 -0.4628
   61CHL1    C7 5631   4.323   6.161   3.603  0.2014  0.7907  0.2734
   61CHL1   H7A 5632   4.272   6.256   3.627 -1.8513  0.0462 -0.8824
   61CHL1   H7B 5633   4.244   6.084   3.591  1.5682 -0.5316 -0.5509
   61CHL1    C8 5634   4.419   6.124   3.727  0.6551 -0.2286  0.2123
   61CHL1    H8 5635   4.476   6.214   3.759 -0.8928  0.6571  0.5557
   61CHL1   C14 5636   4.331   6.077   3.839  0.3136 -0.7511  0.1380
   61CHL1   H14 5637   4.291   5.979   3.806  1.1285 -0.9110 -0.4128
   61CHL1   C15 5638   4.214   6.165   3.898  0.8515  0.1500  0.4354
   61CHL1  H15A 5639   4.238   6.274   3.893 -0.2537  0.5108  2.1460
   61CHL1  H15B 5640   4.119   6.159   3.841  0.7341  0.3376  0.6061
   61CHL1   C16 5641   4.194   6.108   4.037  0.9563 -0.8666 -0.1703
   61CHL1  H16A 5642   4.209   6.198   4.100  2.2134  0.8719 -2.7854
   61CHL1  H16B 5643   4.094   6.063   4.050  0.1273  0.8202 -0.5499
   61CHL1   C17 5644   4.305   6.000   4.055  0.0727  0.4117 -0.8757
   61CHL1   H17 5645   4.254   5.908   4.019  1.2742 -0.0778 -1.4000
   61CHL1   C13 5646   4.417   6.034   3.961 -0.3148 -0.6006  0.1567
   61CHL1   C18 5647   4.491   6.160   4.021  0.3961  0.7459 -0.3784
   61CHL1  H18A 5648   4.420   6.239   4.054  1.6935  1.8709 -0.1840
   61CHL1  H18B 5649   4.548   6.125   4.109  3.0529 -1.9154 -2.9168
   61CHL1  H18C 5650   4.557   6.209   3.946 -0.1450  0.3408 -1.1404
   61CHL1   C12 5651   4.528   5.930   3.918 -0.2820  0.2758  0.2477
   61CHL1  H12A 5652   4.589   5.875   3.992 -1.6673 -2.0458 -0.2138
   61CHL1  H12B 5653   4.469   5.847   3.874 -1.4208  1.5176 -0.6476
   61CHL1   C11 5654   4.616   5.975   3.803 -0.1729  0.1025 -0.2563
   61CHL1  H11A 5655   4.683   6.057   3.838 -0.2348 -0.5795  1.5827
   61CHL1  H11B 5656   4.689   5.896   3.777 -0.7991 -0.1485 -1.3117
   61CHL1    C9 5657   4.525   6.012   3.679 -0.3772  0.8849 -0.6151
   61CHL1    H9 5658   4.468   5.918   3.660 -1.2310  0.7043  2.3273
   61CHL1   C10 5659   4.605   6.045   3.546 -0.3048 -0.2141  0.2831
   61CHL1   C19 5660   4.719   6.140   3.587  0.5840  0.6562 -0.0956
   61CHL1  H19A 5661   4.678   6.213   3.659  1.4991  0.8120  0.2874
   61CHL1  H19B 5662   4.801   6.088   3.642 -0.4481 -0.7208  0.1950
   61CHL1  H19C 5663   4.759   6.207   3.508 -0.0583  1.2454  0.0741
   61CHL1    C1 5664   4.666   5.916   3.479  0.1526  0.0795 -0.2783
   61CHL1   H1A 5665   4.733   5.871   3.555 -2.2075 -1.1831  1.1865
   61CHL1   H1B 5666   4.582   5.844   3.468  0.9627 -0.9870  0.2958
   61CHL1    C2 5667   4.738   5.929   3.347 -0.3097 -0.3218  0.4555
   61CHL1   H2A 5668   4.760   5.836   3.291  0.7239 -0.1761  0.6042
   61CHL1   H2B 5669   4.830   5.983   3.380 -0.9157  0.2449  1.2679
   61CHL1   C20 5670   4.343   5.972   4.208  0.7171 -0.5302 -0.5031
   61CHL1   H20 5671   4.396   6.061   4.250  0.6972 -0.4971 -0.5475
   61CHL1   C21 5672   4.433   5.845   4.219 -0.7180  0.3017 -0.4903
   61CHL1  H21A 5673   4.534   5.877   4.184 -0.3887 -0.3561 -0.1669
   61CHL1  H21B 5674   4.400   5.765   4.149  0.4799 -1.7087  1.1337
   61CHL1  H21C 5675   4.447   5.814   4.324  0.7534  1.0478 -0.4383
   61CHL1   C22 5676   4.217   5.959   4.301 -0.2712  0.1177  0.8391
   61CHL1  H22A 5677   4.157   6.052   4.303 -2.1691 -1.0594  1.5245
   61CHL1  H22B 5678   4.154   5.885   4.247 -0.7958 -0.4339  2.1653
   61CHL1   C23 5679   4.224   5.897   4.442 -0.2361  0.3472  0.3028
   61CHL1  H23A 5680   4.121   5.870   4.474 -0.9502  1.5128 -0.9287
   61CHL1  H23B 5681   4.271   5.796   4.435 -0.6138  0.1898  0.0043
   61CHL1   C24 5682   4.291   5.983   4.547 -0.6808 -0.0284  0.1440
   61CHL1  H24A 5683   4.396   5.998   4.514 -0.0159 -1.1285  1.6550
   61CHL1  H24B 5684   4.246   6.084   4.560  1.2322  0.9837 -0.6522
   61CHL1   C25 5685   4.283   5.914   4.687 -0.9157 -0.7598  0.9074
   61CHL1   H25 5686   4.292   5.804   4.676  1.3430 -0.3917 -2.8025
   61CHL1   C26 5687   4.387   5.974   4.779 -0.1418  0.8483  0.4188
   61CHL1  H26A 5688   4.490   5.943   4.750 -0.1184  0.1329  1.2041
   61CHL1  H26B 5689   4.374   6.084   4.792  0.1674  0.8846  0.4389
   61CHL1  H26C 5690   4.372   5.934   4.882  2.4081 -2.4471 -0.3158
   61CHL1   C27 5691   4.147   5.933   4.754  0.2148  0.2364 -0.7007
   61CHL1  H27A 5692   4.136   5.863   4.839 -0.3657  1.5318  0.3307
   61CHL1  H27B 5693   4.140   6.039   4.788 -0.8032  0.1151 -0.5024
   61CHL1  H27C 5694   4.068   5.911   4.679  0.0350 -1.2465 -0.1021
   62CHL1    C3 5695   6.767   2.058   3.520 -0.2461  0.4735 -0.7265
   62CHL1    H3 5696   6.710   2.127   3.586 -0.4182 -1.5715  1.3897
   62CHL1    O3 5697   6.718   2.060   3.388 -0.4201 -0.8723 -0.6804
   62CHL1   H3' 5698   6.783   2.118   3.347 -1.5239 -1.0924 -2.9421
   62CHL1    C4 5699   6.918   2.082   3.537  0.1460 -0.3418  0.3566
   62CHL1   H4A 5700   6.971   1.999   3.484  0.6784 -0.3573  0.9020
   62CHL1   H4B 5701   6.954   2.175   3.489 -1.6150  1.5486  2.4907
   62CHL1    C5 5702   6.959   2.070   3.682 -0.6872  0.1206 -0.7327
   62CHL1    C6 5703   7.020   2.168   3.752 -0.2287  0.0459 -0.4972
   62CHL1    H6 5704   7.037   2.268   3.710 -0.4088  0.3969  0.2498
   62CHL1    C7 5705   7.061   2.170   3.901  0.0204 -0.1895 -0.1955
   62CHL1   H7A 5706   7.157   2.224   3.914 -0.2766  0.6722 -1.3356
   62CHL1   H7B 5707   6.996   2.248   3.945 -1.3767 -1.6167  0.3766
   62CHL1    C8 5708   7.043   2.026   3.966  0.3320 -0.2370 -0.2582
   62CHL1    H8 5709   7.140   1.977   3.942  2.6222  3.1315  1.4316
   62CHL1   C14 5710   7.037   2.026   4.115 -0.1292  0.5212 -0.3156
   62CHL1   H14 5711   6.944   2.082   4.140 -0.8311 -1.0770  0.8460
   62CHL1   C15 5712   7.153   2.086   4.192 -0.2795 -0.3473 -0.1754
   62CHL1  H15A 5713   7.253   2.052   4.156 -1.5438 -1.9039 -2.4317
   62CHL1  H15B 5714   7.145   2.196   4.178 -0.2042 -0.3442 -0.1984
   62CHL1   C16 5715   7.131   2.041   4.338  0.4222  0.1844 -0.1526
   62CHL1  H16A 5716   7.226   2.023   4.394  0.3213  3.0986  1.1145
   62CHL1  H16B 5717   7.078   2.117   4.399 -0.9699 -1.6054  1.0014
   62CHL1   C17 5718   7.035   1.917   4.337  0.2960 -0.1970 -0.4561
   62CHL1   H17 5719   6.933   1.949   4.365  0.3564 -1.7376  1.8334
   62CHL1   C13 5720   7.031   1.886   4.181 -0.5210 -0.4454  0.7136
   62CHL1   C18 5721   7.149   1.795   4.138 -0.1249 -0.1104  0.4190
   62CHL1  H18A 5722   7.145   1.778   4.028  0.8819 -0.3145  0.4000
   62CHL1  H18B 5723   7.253   1.831   4.154  0.1966 -0.9276  0.2735
   62CHL1  H18C 5724   7.148   1.696   4.188  0.7506 -0.1868  0.3045
   62CHL1   C12 5725   6.900   1.816   4.133 -0.5613 -0.3713 -0.5825
   62CHL1  H12A 5726   6.905   1.709   4.163  2.5033  0.1195  1.0416
   62CHL1  H12B 5727   6.821   1.861   4.196 -0.8242 -0.7559 -0.6324
   62CHL1   C11 5728   6.884   1.826   3.986  0.5402 -0.3731 -0.2776
   62CHL1  H11A 5729   6.935   1.739   3.939 -0.9739 -1.9576  0.8661
   62CHL1  H11B 5730   6.776   1.811   3.965  0.6870 -2.4398  0.2569
   62CHL1    C9 5731   6.924   1.958   3.910  0.5255  0.7040  0.2264
   62CHL1    H9 5732   6.837   2.026   3.925  1.4450  1.8921  0.3219
   62CHL1   C10 5733   6.922   1.943   3.754  0.9577 -0.0154 -0.1582
   62CHL1   C19 5734   7.017   1.828   3.720 -0.0825 -0.1308 -0.2378
   62CHL1  H19A 5735   6.969   1.728   3.733 -0.5332  0.1893  0.6451
   62CHL1  H19B 5736   7.036   1.838   3.611  1.1534  3.5977  0.1788
   62CHL1  H19C 5737   7.107   1.826   3.787 -0.3745 -0.1909  0.1581
   62CHL1    C1 5738   6.775   1.904   3.716 -0.1850 -0.1414 -0.2316
   62CHL1   H1A 5739   6.771   1.797   3.748 -2.6795 -0.6790 -2.0220
   62CHL1   H1B 5740   6.704   1.969   3.771  1.2749  1.1961  0.1319
   62CHL1    C2 5741   6.735   1.921   3.571 -0.2329  0.0720  0.0075
   62CHL1   H2A 5742   6.626   1.901   3.570  0.1686 -2.5694 -1.6572
   62CHL1   H2B 5743   6.777   1.847   3.500 -0.5880  0.4279 -0.5795
   62CHL1   C20 5744   7.079   1.804   4.430  0.6530  0.3459 -0.0057
   62CHL1   H20 5745   7.173   1.758   4.392  1.6196  1.4073  0.9921
   62CHL1   C21 5746   6.972   1.692   4.424 -0.1340  0.5064  0.1720
   62CHL1  H21A 5747   6.984   1.627   4.335 -1.0466  0.4669  0.0710
   62CHL1  H21B 5748   6.869   1.733   4.427  0.5768  2.3728  2.8714
   62CHL1  H21C 5749   6.977   1.623   4.512 -0.4538  0.3958  0.1042
   62CHL1   C22 5750   7.097   1.843   4.577  0.0891  0.4817 -0.4110
   62CHL1  H22A 5751   7.102   1.753   4.640 -3.2048  0.8593  0.6010
   62CHL1  H22B 5752   7.191   1.902   4.586  0.2840 -0.0578  1.3755
   62CHL1   C23 5753   6.977   1.915   4.634 -0.2117 -0.3097  0.2610
   62CHL1  H23A 5754   6.964   2.004   4.570  0.3672 -0.7906 -0.5435
   62CHL1  H23B 5755   6.883   1.857   4.618  0.0756 -0.4259 -1.1886
   62CHL1   C24 5756   6.989   1.975   4.778 -0.6911 -0.1710 -0.4267
   62CHL1  H24A 5757   6.996   1.919   4.874 -0.0022  0.7695  0.0974
   62CHL1  H24B 5758   7.089   2.024   4.772 -0.1871 -0.9220  1.2334
   62CHL1   C25 5759   6.882   2.078   4.800 -0.0938 -0.1245 -0.1655
   62CHL1   H25 5760   6.867   2.149   4.717  1.0589  0.7738  0.3654
   62CHL1   C26 5761   6.748   2.008   4.831  0.7314 -0.5270 -0.0390
   62CHL1  H26A 5762   6.709   1.950   4.745  0.2501  1.4114 -1.1924
   62CHL1  H26B 5763   6.772   1.933   4.910 -1.1747  0.1083  1.1971
   62CHL1  H26C 5764   6.663   2.065   4.874 -0.6203 -2.5250  0.0643
   62CHL1   C27 5765   6.913   2.154   4.929 -0.0097  0.1836 -0.5674
   62CHL1  H27A 5766   6.848   2.244   4.928 -2.3307 -1.4102 -0.3072
   62CHL1  H27B 5767   6.909   2.104   5.027 -0.8048 -0.0683 -0.7274
   62CHL1  H27C 5768   7.014   2.201   4.925  0.0925  0.4524  2.8546
   63CHL1    C3 5769   2.730   0.611   3.337 -0.3023 -0.1583 -0.7389
   63CHL1    H3 5770   2.644   0.676   3.362 -2.4725 -2.5468 -1.6334
   63CHL1    O3 5771   2.725   0.587   3.197 -0.5531 -0.5588  0.3188
   63CHL1   H3' 5772   2.658   0.521   3.177 -0.6745 -0.1076 -0.8481
   63CHL1    C4 5773   2.864   0.662   3.385  0.7421  0.4772 -0.6805
   63CHL1   H4A 5774   2.941   0.586   3.360 -0.1282 -0.2390 -1.2307
   63CHL1   H4B 5775   2.893   0.754   3.331  2.3937  1.2353  1.3428
   63CHL1    C5 5776   2.858   0.697   3.532  0.8175  0.0123 -0.3217
   63CHL1    C6 5777   2.878   0.819   3.575  0.7900 -0.4541 -0.7832
   63CHL1    H6 5778   2.902   0.896   3.501  4.4772 -0.9458 -0.2760
   63CHL1    C7 5779   2.855   0.864   3.722 -0.9018 -0.3962  0.5631
   63CHL1   H7A 5780   2.927   0.942   3.755 -2.6226  2.1014 -1.2455
   63CHL1   H7B 5781   2.757   0.915   3.722 -1.0337 -0.6153 -0.4179
   63CHL1    C8 5782   2.861   0.736   3.816 -0.1447 -0.0763  0.1088
   63CHL1    H8 5783   2.967   0.702   3.820  0.3005  1.3548  1.5387
   63CHL1   C14 5784   2.822   0.771   3.959 -0.0419  0.0473 -0.1357
   63CHL1   H14 5785   2.718   0.809   3.952 -0.7389 -1.3387  1.7816
   63CHL1   C15 5786   2.895   0.890   4.026  1.1565 -0.1107  0.3040
   63CHL1  H15A 5787   2.998   0.877   3.988  0.5137  2.4555 -2.8162
   63CHL1  H15B 5788   2.852   0.988   3.994  0.0619 -0.8323 -0.5278
   63CHL1   C16 5789   2.878   0.869   4.173  0.1243 -0.1072  0.0841
   63CHL1  H16A 5790   2.979   0.879   4.218  0.3462  0.2396 -0.4831
   63CHL1  H16B 5791   2.807   0.944   4.214 -0.4810 -0.5701 -0.1172
   63CHL1   C17 5792   2.799   0.733   4.192 -0.6003  0.3490  0.4660
   63CHL1   H17 5793   2.690   0.751   4.183 -0.7227  0.2246  1.5462
   63CHL1   C13 5794   2.829   0.652   4.054 -0.7096 -0.5543 -0.3865
   63CHL1   C18 5795   2.975   0.595   4.069 -0.3011 -0.2147  0.0545
   63CHL1  H18A 5796   3.008   0.548   3.974  0.1556  0.6261 -0.2130
   63CHL1  H18B 5797   3.048   0.672   4.102  1.6592 -0.7013 -2.8226
   63CHL1  H18C 5798   2.969   0.514   4.145 -4.2301  1.0749  1.4221
   63CHL1   C12 5799   2.721   0.559   4.006 -0.4333 -0.2376 -0.0915
   63CHL1  H12A 5800   2.698   0.471   4.069 -2.5108  0.0508 -0.3769
   63CHL1  H12B 5801   2.627   0.613   3.983  0.9682  1.8244 -1.2654
   63CHL1   C11 5802   2.757   0.502   3.863  0.4158 -0.6088 -0.0417
   63CHL1  H11A 5803   2.840   0.430   3.877 -0.2403 -1.5630 -0.8852
   63CHL1  H11B 5804   2.667   0.448   3.826 -1.4219  2.4257 -0.3689
   63CHL1    C9 5805   2.778   0.625   3.763 -0.3696  0.4564 -0.5089
   63CHL1    H9 5806   2.677   0.669   3.748 -0.6205  0.0588  0.0057
   63CHL1   C10 5807   2.815   0.583   3.617 -0.4740  0.2972 -0.3141
   63CHL1   C19 5808   2.941   0.488   3.634 -0.3310  0.5680 -0.3730
   63CHL1  H19A 5809   2.985   0.460   3.536 -2.4979 -1.3678 -0.8829
   63CHL1  H19B 5810   3.019   0.540   3.693  0.5175  0.5020 -1.4101
   63CHL1  H19C 5811   2.905   0.397   3.687 -2.0778  1.5313  0.2101
   63CHL1    C1 5812   2.691   0.508   3.561  0.2677  0.1246  0.1816
   63CHL1   H1A 5813   2.666   0.415   3.616  0.6717 -0.9373 -1.3397
   63CHL1   H1B 5814   2.611   0.582   3.580  0.2786  0.3313 -0.5600
   63CHL1    C2 5815   2.699   0.483   3.409 -0.1418 -0.4405  0.0457
   63CHL1   H2A 5816   2.604   0.443   3.367 -1.6296 -0.5886  3.2678
   63CHL1   H2B 5817   2.781   0.411   3.390 -0.8161 -1.3561  0.5355
   63CHL1   C20 5818   2.821   0.667   4.330 -0.6342 -0.4139 -0.7993
   63CHL1   H20 5819   2.929   0.667   4.358 -0.7017  0.8201 -0.4545
   63CHL1   C21 5820   2.767   0.524   4.332 -0.1557 -0.3217  0.1165
   63CHL1  H21A 5821   2.809   0.444   4.266 -1.9516  0.4315 -2.0552
   63CHL1  H21B 5822   2.659   0.525   4.308  0.0427 -5.0593 -2.1889
   63CHL1  H21C 5823   2.771   0.480   4.434 -3.3959  0.7913  0.8227
   63CHL1   C22 5824   2.746   0.741   4.451  0.0848  0.1648  0.3770
   63CHL1  H22A 5825   2.771   0.849   4.442 -0.7872  0.4156  0.7941
   63CHL1  H22B 5826   2.638   0.727   4.429  0.7057 -2.4742 -1.4352
   63CHL1   C23 5827   2.788   0.689   4.588 -0.0283  0.1302  0.1599
   63CHL1  H23A 5828   2.750   0.589   4.615  3.2995 -1.0017  1.0809
   63CHL1  H23B 5829   2.899   0.680   4.582 -0.0281 -0.1382  0.5875
   63CHL1   C24 5830   2.759   0.792   4.701 -0.1764 -0.2127 -0.3701
   63CHL1  H24A 5831   2.834   0.770   4.781 -0.5056  0.2378  0.0707
   63CHL1  H24B 5832   2.783   0.888   4.651 -3.1879 -0.5050 -2.6713
   63CHL1   C25 5833   2.616   0.791   4.767  0.5126  0.0764  0.1862
   63CHL1   H25 5834   2.614   0.860   4.854 -0.8420 -0.7028  0.8147
   63CHL1   C26 5835   2.506   0.848   4.678  0.2600  0.1371  0.4785
   63CHL1  H26A 5836   2.414   0.846   4.739  0.1023 -0.5795  0.2230
   63CHL1  H26B 5837   2.531   0.951   4.641 -1.7385  0.2933 -0.5832
   63CHL1  H26C 5838   2.498   0.783   4.588  1.2069 -0.5696  0.8893
   63CHL1   C27 5839   2.583   0.652   4.817  0.7095  0.6728 -0.8283
   63CHL1  H27A 5840   2.490   0.648   4.879  0.2357  0.0863 -1.5687
   63CHL1  H27B 5841   2.556   0.578   4.740  0.0488 -0.8077  0.7574
   63CHL1  H27C 5842   2.670   0.615   4.875 -0.1543 -1.7550 -0.9877
   64CHL1    C3 5843   2.432   2.826   3.367  0.0001  0.8105  0.3018
   64CHL1    H3 5844   2.531   2.782   3.341 -1.4509 -0.8090 -3.1663
   64CHL1    O3 5845   2.373   2.853   3.240  0.1713 -0.2929  0.1606
   64CHL1   H3' 5846   2.295   2.798   3.231  0.3077 -0.8681  2.0857
   64CHL1    C4 5847   2.355   2.702   3.424 -0.8394 -0.6271 -0.3305
   64CHL1   H4A 5848   2.245   2.717   3.417 -1.0737 -1.3908  1.1656
   64CHL1   H4B 5849   2.373   2.618   3.353 -0.6616  0.8638 -2.1119
   64CHL1    C5 5850   2.396   2.664   3.565 -0.3856 -0.3388 -0.2087
   64CHL1    C6 5851   2.430   2.542   3.604  0.1546  0.4981  0.2025
   64CHL1    H6 5852   2.423   2.462   3.528  3.0026  2.7054 -2.6686
   64CHL1    C7 5853   2.466   2.501   3.747 -0.4951 -0.9180 -0.7470
   64CHL1   H7A 5854   2.408   2.408   3.764 -0.2923 -0.8730  0.2592
   64CHL1   H7B 5855   2.575   2.478   3.751  0.2233  2.1632  0.8411
   64CHL1    C8 5856   2.419   2.613   3.852 -0.1482  0.1807 -0.2860
   64CHL1    H8 5857   2.310   2.597   3.865  0.0076 -0.7300 -0.0287
   64CHL1   C14 5858   2.471   2.583   3.994  0.5964  0.1377  0.7532
   64CHL1   H14 5859   2.580   2.587   3.975  0.5603 -3.1740 -0.8260
   64CHL1   C15 5860   2.439   2.439   4.046 -0.6552  0.6776  0.4843
   64CHL1  H15A 5861   2.334   2.413   4.020  0.2339 -0.3973 -2.4748
   64CHL1  H15B 5862   2.505   2.359   4.008 -0.4695 -0.0453  2.2529
   64CHL1   C16 5863   2.468   2.460   4.194 -0.2156 -0.5256 -0.5398
   64CHL1  H16A 5864   2.376   2.444   4.253 -0.3488 -1.4264 -0.9895
   64CHL1  H16B 5865   2.551   2.403   4.242 -0.3673 -0.9352 -0.7620
   64CHL1   C17 5866   2.495   2.611   4.224 -0.8857 -0.0742  0.3038
   64CHL1   H17 5867   2.604   2.629   4.219 -0.4147 -2.5886  0.1978
   64CHL1   C13 5868   2.439   2.681   4.101  0.3299  0.4252  0.0539
   64CHL1   C18 5869   2.283   2.684   4.114  0.1405 -0.4551 -0.0069
   64CHL1  H18A 5870   2.236   2.754   4.188 -0.2192  1.4061 -1.9033
   64CHL1  H18B 5871   2.242   2.725   4.020 -1.1721 -0.9582  0.3144
   64CHL1  H18C 5872   2.246   2.580   4.115 -1.7118  0.0846 -2.6746
   64CHL1   C12 5873   2.499   2.814   4.054  0.0385 -0.6742  0.3441
   64CHL1  H12A 5874   2.482   2.895   4.128  0.2493 -1.8540  1.7185
   64CHL1  H12B 5875   2.608   2.799   4.038  0.1964  1.0243 -0.4001
   64CHL1   C11 5876   2.439   2.856   3.918  0.1997 -0.3302 -0.2161
   64CHL1  H11A 5877   2.335   2.893   3.926  0.2892  0.7052 -2.9699
   64CHL1  H11B 5878   2.492   2.951   3.893  0.1870 -0.5475 -1.0822
   64CHL1    C9 5879   2.460   2.754   3.803  0.0982 -0.4765  0.2015
   64CHL1    H9 5880   2.570   2.748   3.789  0.0259 -1.8283  0.0691
   64CHL1   C10 5881   2.395   2.782   3.665  0.8401 -0.6286 -0.3851
   64CHL1   C19 5882   2.245   2.824   3.685 -0.5491  0.7431  0.5266
   64CHL1  H19A 5883   2.205   2.859   3.588  1.5199  1.7960  0.0164
   64CHL1  H19B 5884   2.184   2.740   3.726  0.5962  0.0603  0.8799
   64CHL1  H19C 5885   2.244   2.909   3.757  0.6072  0.7453  0.5571
   64CHL1    C1 5886   2.477   2.896   3.596  0.0695  0.5171 -0.3383
   64CHL1   H1A 5887   2.476   2.981   3.667  0.5213 -2.1857  3.2104
   64CHL1   H1B 5888   2.583   2.869   3.576  0.7382  2.1580  0.8118
   64CHL1    C2 5889   2.431   2.941   3.455 -0.3348  0.0624 -0.1255
   64CHL1   H2A 5890   2.508   3.011   3.418 -0.5151  0.5993  0.5011
   64CHL1   H2B 5891   2.330   2.988   3.451 -0.9198 -1.2439 -1.5881
   64CHL1   C20 5892   2.442   2.643   4.362  0.1294  0.8772 -0.9789
   64CHL1   H20 5893   2.342   2.600   4.383  1.7158 -1.5216  2.7453
   64CHL1   C21 5894   2.422   2.783   4.403 -0.3174 -0.7059 -0.0862
   64CHL1  H21A 5895   2.355   2.789   4.492 -3.4486  0.6310 -2.3076
   64CHL1  H21B 5896   2.380   2.836   4.314 -0.0854 -0.6279 -0.1496
   64CHL1  H21C 5897   2.522   2.823   4.429 -0.3661 -0.3895 -0.3659
   64CHL1   C22 5898   2.525   2.571   4.472  0.8172  0.0530  0.9153
   64CHL1  H22A 5899   2.563   2.474   4.435  0.9097  1.2487 -2.4932
   64CHL1  H22B 5900   2.606   2.639   4.504  0.2755  0.9810  0.3531
   64CHL1   C23 5901   2.454   2.553   4.609 -0.0815 -0.0738 -0.1382
   64CHL1  H23A 5902   2.434   2.648   4.661  0.8892 -0.8476  1.7432
   64CHL1  H23B 5903   2.355   2.503   4.595 -0.1685 -0.0552  0.3903
   64CHL1   C24 5904   2.554   2.475   4.698 -0.0466  0.1947  0.3568
   64CHL1  H24A 5905   2.601   2.383   4.655  2.5961  0.3937  2.5208
   64CHL1  H24B 5906   2.645   2.534   4.724 -0.5613  0.4941  1.5201
   64CHL1   C25 5907   2.497   2.434   4.841 -0.7895  0.1201  0.8817
   64CHL1   H25 5908   2.405   2.376   4.819 -2.5392  2.9256  0.2485
   64CHL1   C26 5909   2.598   2.345   4.917  0.3661 -0.6067 -0.1405
   64CHL1  H26A 5910   2.544   2.289   4.997  0.4742  0.8833  1.0192
   64CHL1  H26B 5911   2.649   2.282   4.840 -1.4696  0.4491 -2.3504
   64CHL1  H26C 5912   2.677   2.414   4.953  0.8788  1.0488 -3.9840
   64CHL1   C27 5913   2.452   2.554   4.930 -0.1991  0.9792 -0.1922
   64CHL1  H27A 5914   2.402   2.637   4.875  0.3605  1.9458  0.7000
   64CHL1  H27B 5915   2.388   2.516   5.012  0.1229  1.7409  0.4258
   64CHL1  H27C 5916   2.550   2.599   4.957  0.4942  0.5288 -1.8382
   65CHL1    C3 5917   6.810   6.820   3.192 -0.7653  0.3665  0.3046
   65CHL1    H3 5918   6.919   6.816   3.213 -0.6688 -3.6731 -0.2580
   65CHL1    O3 5919   6.803   6.850   3.049  0.0604 -0.2057 -0.1902
   65CHL1   H3' 5920   6.779   6.942   3.039 -0.9180 -0.3527  0.6632
   65CHL1    C4 5921   6.746   6.679   3.220 -0.3182 -0.5994  0.7037
   65CHL1   H4A 5922   6.639   6.674   3.191 -0.7944  2.6545  1.5430
   65CHL1   H4B 5923   6.803   6.618   3.148 -0.9336 -1.3830  0.8615
   65CHL1    C5 5924   6.763   6.643   3.367 -0.5778  0.1785  0.7411
   65CHL1    C6 5925   6.831   6.530   3.409 -0.8605 -0.2246 -0.2333
   65CHL1    H6 5926   6.879   6.468   3.331 -0.1968  0.5689 -0.4709
   65CHL1    C7 5927   6.859   6.485   3.549 -0.6257 -0.0567 -0.1767
   65CHL1   H7A 5928   6.860   6.374   3.550  0.7906 -0.0679  1.7682
   65CHL1   H7B 5929   6.960   6.526   3.568 -0.0396 -1.2699 -0.5860
   65CHL1    C8 5930   6.769   6.558   3.645  1.1011 -0.4136 -1.3228
   65CHL1    H8 5931   6.665   6.521   3.633 -0.7039  2.2424  3.5224
   65CHL1   C14 5932   6.809   6.540   3.785  0.1932 -0.0465 -0.7192
   65CHL1   H14 5933   6.906   6.592   3.801 -0.8430  1.5349  0.6934
   65CHL1   C15 5934   6.837   6.393   3.824  0.0917  0.5798 -0.0143
   65CHL1  H15A 5935   6.753   6.327   3.793  0.5771  0.2642 -0.6704
   65CHL1  H15B 5936   6.936   6.364   3.784  0.3244  0.5305  0.5942
   65CHL1   C16 5937   6.843   6.408   3.978 -0.8570  0.2890 -0.3354
   65CHL1  H16A 5938   6.790   6.324   4.028  0.1754 -0.0354  0.2401
   65CHL1  H16B 5939   6.948   6.399   4.011 -0.3868  0.8237 -1.6372
   65CHL1   C17 5940   6.797   6.547   4.020  0.2582 -0.1478 -0.3156
   65CHL1   H17 5941   6.885   6.614   4.031 -1.3903  2.1767 -0.5890
   65CHL1   C13 5942   6.719   6.602   3.891 -0.3550  0.0209 -0.4987
   65CHL1   C18 5943   6.570   6.555   3.884  0.1459 -0.1195 -0.1403
   65CHL1  H18A 5944   6.510   6.620   3.952  0.9689 -1.9607  2.5217
   65CHL1  H18B 5945   6.545   6.561   3.776  0.6496  1.8684 -0.1870
   65CHL1  H18C 5946   6.562   6.448   3.914 -1.1050 -0.3343 -1.1603
   65CHL1   C12 5947   6.731   6.753   3.875 -0.2273  0.4279  0.2261
   65CHL1  H12A 5948   6.674   6.805   3.954  0.5415 -0.1968  1.2241
   65CHL1  H12B 5949   6.834   6.789   3.897 -0.7449  1.7681  0.5569
   65CHL1   C11 5950   6.682   6.788   3.731 -0.5474 -0.2728 -0.3667
   65CHL1  H11A 5951   6.576   6.753   3.732 -1.4160  2.2220 -0.3139
   65CHL1  H11B 5952   6.685   6.899   3.733  0.5574 -0.2657  2.1990
   65CHL1    C9 5953   6.762   6.712   3.614 -0.4916 -0.1580 -0.2616
   65CHL1    H9 5954   6.867   6.747   3.627 -0.0261 -0.9497 -1.7362
   65CHL1   C10 5955   6.718   6.745   3.470  0.0729  0.3465  0.2773
   65CHL1   C19 5956   6.563   6.744   3.461 -0.6796  0.1768 -0.1016
   65CHL1  H19A 5957   6.522   6.789   3.369 -2.9050  2.4088  1.8361
   65CHL1  H19B 5958   6.540   6.637   3.479  3.5992 -0.7446  1.3512
   65CHL1  H19C 5959   6.505   6.802   3.536 -1.1647  0.7560 -0.9241
   65CHL1    C1 5960   6.768   6.889   3.427  0.5494  0.2583 -0.2813
   65CHL1   H1A 5961   6.706   6.952   3.495 -0.3323 -0.5067 -0.3630
   65CHL1   H1B 5962   6.872   6.914   3.456 -0.3132  2.2548  1.3921
   65CHL1    C2 5963   6.754   6.929   3.282  0.0432 -0.4024 -0.4436
   65CHL1   H2A 5964   6.803   7.022   3.247 -0.3524 -1.1768 -3.3645
   65CHL1   H2B 5965   6.644   6.935   3.263  0.3323  0.1858 -2.1292
   65CHL1   C20 5966   6.723   6.547   4.161 -0.1357  0.4022  0.7411
   65CHL1   H20 5967   6.636   6.480   4.145 -1.0560  2.0797 -2.0827
   65CHL1   C21 5968   6.681   6.689   4.199 -0.1344  0.2742  0.5459
   65CHL1  H21A 5969   6.606   6.714   4.120 -1.0371 -0.3483  1.1879
   65CHL1  H21B 5970   6.779   6.738   4.181  1.6074 -3.0181  0.2902
   65CHL1  H21C 5971   6.641   6.708   4.300  0.3656  0.6558  0.6763
   65CHL1   C22 5972   6.809   6.483   4.270  0.1197 -0.1198 -0.1477
   65CHL1  H22A 5973   6.837   6.381   4.236  1.5584  1.0250 -2.7180
   65CHL1  H22B 5974   6.903   6.542   4.279 -0.7148  1.2230  0.0025
   65CHL1   C23 5975   6.758   6.496   4.414  0.6951  0.1991  0.4878
   65CHL1  H23A 5976   6.826   6.447   4.487  1.8416 -0.6417 -1.0543
   65CHL1  H23B 5977   6.762   6.604   4.440  2.2910 -0.0504  1.4035
   65CHL1   C24 5978   6.619   6.430   4.437  0.1422 -0.0209  0.2818
   65CHL1  H24A 5979   6.553   6.468   4.357  0.9692  2.6012  0.7436
   65CHL1  H24B 5980   6.633   6.320   4.441 -0.9289 -0.2129 -0.8122
   65CHL1   C25 5981   6.559   6.475   4.571  0.2164  0.2602  0.0637
   65CHL1   H25 5982   6.555   6.586   4.576 -0.0393  0.3621 -1.7621
   65CHL1   C26 5983   6.417   6.416   4.583 -0.6409  0.4400 -0.5220
   65CHL1  H26A 5984   6.415   6.309   4.614  1.7128  0.8195  1.2525
   65CHL1  H26B 5985   6.382   6.460   4.679  1.9971 -0.1646  0.8117
   65CHL1  H26C 5986   6.357   6.430   4.490  1.0261  1.3601 -1.4994
   65CHL1   C27 5987   6.649   6.427   4.697  0.3475  0.4011  0.1638
   65CHL1  H27A 5988   6.757   6.455   4.701  0.1763  1.0652  0.2374
   65CHL1  H27B 5989   6.604   6.452   4.796 -0.1643  0.9863 -0.2166
   65CHL1  H27C 5990   6.642   6.316   4.696 -0.6937  0.4600 -0.9519
   66CHL1    C3 5991   4.939   1.014   2.981 -0.5239  0.6094 -0.0737
   66CHL1    H3 5992   4.955   0.905   2.989  0.5828  0.7854  0.3051
   66CHL1    O3 5993   4.971   1.055   2.846 -0.1173 -0.0727 -0.1242
   66CHL1   H3' 5994   4.984   1.150   2.856  0.7175 -0.1352 -0.5252
   66CHL1    C4 5995   4.800   1.053   3.017 -0.0331  0.0846  0.5959
   66CHL1   H4A 5996   4.782   1.162   3.013  1.1256  0.2896  0.6778
   66CHL1   H4B 5997   4.736   0.998   2.945  2.4478 -3.2146  0.6494
   66CHL1    C5 5998   4.772   1.010   3.156  0.8217 -0.2305  0.2298
   66CHL1    C6 5999   4.671   0.930   3.190  0.3098  0.0871 -0.4727
   66CHL1    H6 6000   4.614   0.882   3.109  0.0933 -0.3441 -0.0689
   66CHL1    C7 6001   4.627   0.906   3.334 -0.6751  0.1173 -0.4447
   66CHL1   H7A 6002   4.517   0.923   3.334 -0.9958 -1.7354 -1.3350
   66CHL1   H7B 6003   4.639   0.800   3.363 -2.5727  0.0831  0.3665
   66CHL1    C8 6004   4.691   1.003   3.446 -0.5586  0.2677 -0.4880
   66CHL1    H8 6005   4.636   1.098   3.463 -0.5778 -0.1042  1.8601
   66CHL1   C14 6006   4.677   0.940   3.584  0.4114 -0.1099  0.2190
   66CHL1   H14 6007   4.732   0.843   3.584  1.1433  0.2973  0.0271
   66CHL1   C15 6008   4.540   0.904   3.643  0.2828  0.1333  0.1102
   66CHL1  H15A 6009   4.465   0.979   3.608 -0.7933 -1.2413 -0.6025
   66CHL1  H15B 6010   4.519   0.806   3.596  2.6808 -0.2375 -0.3207
   66CHL1   C16 6011   4.559   0.900   3.793 -0.1202  0.3123  0.3931
   66CHL1  H16A 6012   4.489   0.972   3.843  1.4990  2.2325  0.0134
   66CHL1  H16B 6013   4.541   0.795   3.823 -0.5016 -0.2737 -1.7410
   66CHL1   C17 6014   4.709   0.941   3.822  0.0869  0.2604 -0.1763
   66CHL1   H17 6015   4.769   0.848   3.810  3.1347  1.6854  2.5104
   66CHL1   C13 6016   4.747   1.019   3.695 -0.2784  0.1052  0.6524
   66CHL1   C18 6017   4.684   1.163   3.705 -0.1840 -0.2490 -0.4647
   66CHL1  H18A 6018   4.744   1.223   3.776 -1.1082  0.5359 -0.3248
   66CHL1  H18B 6019   4.675   1.235   3.621 -1.3612  0.3049  0.1085
   66CHL1  H18C 6020   4.584   1.158   3.753 -0.5271  2.3526 -0.7661
   66CHL1   C12 6021   4.898   1.028   3.665  0.4450  0.3550  0.5887
   66CHL1  H12A 6022   4.946   1.104   3.730  2.2915  1.6831 -2.1271
   66CHL1  H12B 6023   4.946   0.928   3.669 -0.7649 -0.3962 -1.6225
   66CHL1   C11 6024   4.925   1.078   3.527  1.1371  0.6176  0.5157
   66CHL1  H11A 6025   4.902   1.186   3.528  0.5086  0.5065 -0.4608
   66CHL1  H11B 6026   5.034   1.067   3.508  0.8603  0.1289 -0.9198
   66CHL1    C9 6027   4.836   1.012   3.411 -0.4221  0.5230 -0.4246
   66CHL1    H9 6028   4.857   0.903   3.418 -2.6610 -0.0526 -1.7464
   66CHL1   C10 6029   4.857   1.071   3.264 -0.3534 -0.4970  0.1704
   66CHL1   C19 6030   4.841   1.227   3.268 -0.1804 -0.0600  0.2415
   66CHL1  H19A 6031   4.859   1.272   3.168 -2.6338 -0.8429 -0.6216
   66CHL1  H19B 6032   4.738   1.242   3.307 -1.2510  1.0293 -2.6708
   66CHL1  H19C 6033   4.914   1.272   3.338  0.7561 -1.6340  0.3175
   66CHL1    C1 6034   5.006   1.038   3.224  0.7327  0.5657  0.3344
   66CHL1   H1A 6035   5.070   1.081   3.304 -0.0877 -1.2746  2.0540
   66CHL1   H1B 6036   5.013   0.928   3.239 -0.3736  0.3836 -0.3679
   66CHL1    C2 6037   5.039   1.075   3.080 -0.4496 -0.8916  0.5278
   66CHL1   H2A 6038   5.140   1.041   3.050 -0.2916  0.7924 -1.0101
   66CHL1   H2B 6039   5.044   1.186   3.077 -2.3698 -0.7469  1.1370
   66CHL1   C20 6040   4.742   0.995   3.964 -0.4046 -0.2065 -0.0255
   66CHL1   H20 6041   4.700   1.097   3.973  1.1110  0.4185  0.3123
   66CHL1   C21 6042   4.893   1.020   3.976 -0.0509 -0.0875  0.3670
   66CHL1  H21A 6043   4.923   1.030   4.082 -1.6947 -0.2783  0.8691
   66CHL1  H21B 6044   4.922   1.116   3.930  0.1170 -0.4848 -0.3742
   66CHL1  H21C 6045   4.952   0.940   3.925 -2.8604  0.3489 -4.1114
   66CHL1   C22 6046   4.675   0.907   4.070  0.7254  0.4391  0.0113
   66CHL1  H22A 6047   4.567   0.921   4.048  0.9571  2.7091 -0.0086
   66CHL1  H22B 6048   4.697   0.802   4.043  0.0118  0.0209  0.9917
   66CHL1   C23 6049   4.697   0.951   4.215  0.0509 -0.5002 -0.1994
   66CHL1  H23A 6050   4.806   0.952   4.232  0.2710 -0.7730 -1.5111
   66CHL1  H23B 6051   4.654   1.053   4.229  0.6884 -0.5385  2.6519
   66CHL1   C24 6052   4.618   0.866   4.311  0.1459 -0.1313 -0.0708
   66CHL1  H24A 6053   4.512   0.846   4.282 -0.6034  2.8174  0.3026
   66CHL1  H24B 6054   4.659   0.764   4.304 -1.3303 -0.8491  1.0722
   66CHL1   C25 6055   4.619   0.909   4.454 -0.4034 -0.7387  0.1189
   66CHL1   H25 6056   4.713   0.965   4.479  0.7185 -1.7395 -1.6433
   66CHL1   C26 6057   4.499   0.997   4.495 -0.3424 -0.0387 -0.0943
   66CHL1  H26A 6058   4.411   0.930   4.507  0.3852 -0.6452  2.3923
   66CHL1  H26B 6059   4.527   1.058   4.584  1.0786 -1.0785  0.1951
   66CHL1  H26C 6060   4.483   1.074   4.416  0.7599  0.1929 -0.1015
   66CHL1   C27 6061   4.609   0.782   4.541 -0.2126  0.1593  0.5837
   66CHL1  H27A 6062   4.712   0.743   4.560 -0.5243 -0.5255  0.9148
   66CHL1  H27B 6063   4.538   0.707   4.499  1.6744 -0.9378 -0.8212
   66CHL1  H27C 6064   4.553   0.801   4.635 -1.8378 -0.2019 -0.2749
   67CHL1    C3 6065   2.830   4.764   3.450  0.5877  0.3277 -0.5858
   67CHL1    H3 6066   2.909   4.688   3.466 -0.7460 -1.3939 -1.7207
   67CHL1    O3 6067   2.824   4.773   3.307 -0.1673  0.1347  0.5672
   67CHL1   H3' 6068   2.768   4.850   3.295 -0.6800 -0.2216  0.5993
   67CHL1    C4 6069   2.700   4.700   3.501  0.4347 -0.4528 -0.2608
   67CHL1   H4A 6070   2.623   4.759   3.446 -0.4966 -2.2332 -0.9526
   67CHL1   H4B 6071   2.688   4.596   3.464 -0.2094 -0.6013  0.3381
   67CHL1    C5 6072   2.684   4.705   3.654  0.1730 -0.6436 -0.0479
   67CHL1    C6 6073   2.652   4.594   3.725 -0.2607 -0.0056 -0.3219
   67CHL1    H6 6074   2.620   4.510   3.661  1.0450 -0.4442 -0.4445
   67CHL1    C7 6075   2.641   4.584   3.877  0.4582  0.1891 -0.5751
   67CHL1   H7A 6076   2.544   4.539   3.906  0.5645 -0.2416 -0.8886
   67CHL1   H7B 6077   2.720   4.518   3.919 -0.2686 -1.0435 -1.1180
   67CHL1    C8 6078   2.637   4.725   3.928 -0.0810 -0.8273 -0.8115
   67CHL1    H8 6079   2.535   4.768   3.922  0.1304  0.1722  1.6482
   67CHL1   C14 6080   2.671   4.719   4.074 -0.3185  0.2963  0.5655
   67CHL1   H14 6081   2.773   4.676   4.083 -0.5930 -0.1078  2.0456
   67CHL1   C15 6082   2.587   4.617   4.160  0.4028  0.0586 -0.7809
   67CHL1  H15A 6083   2.479   4.626   4.139  0.5114 -0.8177 -1.8087
   67CHL1  H15B 6084   2.616   4.512   4.141  2.5019  0.2089  1.1296
   67CHL1   C16 6085   2.605   4.667   4.309  0.1730  0.3518  0.1601
   67CHL1  H16A 6086   2.512   4.711   4.351 -0.0143 -1.6654  2.0049
   67CHL1  H16B 6087   2.651   4.598   4.382  0.0093  1.4778  1.3618
   67CHL1   C17 6088   2.703   4.791   4.293 -0.0456 -0.2791 -1.0686
   67CHL1   H17 6089   2.804   4.745   4.286  0.0548 -0.3336  0.5176
   67CHL1   C13 6090   2.677   4.849   4.152 -0.6929 -0.2576 -1.0351
   67CHL1   C18 6091   2.541   4.923   4.154 -0.1063  0.4084 -0.9005
   67CHL1  H18A 6092   2.546   5.020   4.209 -0.1243 -0.5183  0.8041
   67CHL1  H18B 6093   2.519   4.947   4.048  1.8023  0.9755 -1.2162
   67CHL1  H18C 6094   2.465   4.854   4.196  0.7703 -1.0919 -1.6949
   67CHL1   C12 6095   2.790   4.934   4.089 -0.1096 -0.8369 -0.0856
   67CHL1  H12A 6096   2.786   5.039   4.124  0.1601  0.9532 -4.6624
   67CHL1  H12B 6097   2.879   4.873   4.117 -1.0474 -3.2308 -1.9275
   67CHL1   C11 6098   2.776   4.953   3.937 -0.2190  0.3091  0.7062
   67CHL1  H11A 6099   2.695   5.024   3.913 -0.5361 -0.5522 -0.9262
   67CHL1  H11B 6100   2.870   4.989   3.890 -0.6008  0.5215  0.1010
   67CHL1    C9 6101   2.739   4.823   3.864  0.7678 -0.2175  0.8883
   67CHL1    H9 6102   2.824   4.753   3.878 -1.5461 -3.5942 -0.5436
   67CHL1   C10 6103   2.727   4.840   3.708 -0.1990  0.4431 -0.2011
   67CHL1   C19 6104   2.608   4.940   3.689  0.2412 -0.5168  0.1180
   67CHL1  H19A 6105   2.655   5.040   3.699  1.0449 -0.9139  0.4153
   67CHL1  H19B 6106   2.566   4.929   3.587  0.9090  0.3638 -0.2605
   67CHL1  H19C 6107   2.522   4.917   3.755 -0.4057  1.5266  0.0343
   67CHL1    C1 6108   2.864   4.904   3.652  0.4990  0.0183  0.0952
   67CHL1   H1A 6109   2.879   5.002   3.701  0.5037 -0.2397  0.6151
   67CHL1   H1B 6110   2.947   4.835   3.680  0.8441 -0.1818 -1.3480
   67CHL1    C2 6111   2.872   4.899   3.495  0.0254  0.1792  0.3198
   67CHL1   H2A 6112   2.970   4.932   3.456  0.0566 -0.8450 -0.5094
   67CHL1   H2B 6113   2.794   4.973   3.469 -1.3459 -1.8185 -1.6750
   67CHL1   C20 6114   2.714   4.885   4.414  0.3132 -0.4165 -0.4548
   67CHL1   H20 6115   2.658   4.977   4.384  0.9056 -0.0374 -0.4026
   67CHL1   C21 6116   2.857   4.931   4.434  0.5876 -0.4601 -0.2950
   67CHL1  H21A 6117   2.858   5.016   4.507  0.7701 -0.7067 -0.0083
   67CHL1  H21B 6118   2.889   4.970   4.335 -0.3502 -0.1906 -0.5042
   67CHL1  H21C 6119   2.920   4.853   4.481  1.9341  1.5789  1.5334
   67CHL1   C22 6120   2.651   4.837   4.550  0.0945 -0.6014 -0.4405
   67CHL1  H22A 6121   2.652   4.926   4.616  3.5195 -0.9234  0.1233
   67CHL1  H22B 6122   2.544   4.819   4.525  0.5139 -2.1976 -1.2647
   67CHL1   C23 6123   2.706   4.719   4.623  0.3932  0.8801 -1.0041
   67CHL1  H23A 6124   2.750   4.650   4.548 -2.4367 -1.0613 -1.0142
   67CHL1  H23B 6125   2.783   4.753   4.696 -0.2198  1.0564 -0.4286
   67CHL1   C24 6126   2.602   4.636   4.703 -0.5237 -0.7811 -0.7886
   67CHL1  H24A 6127   2.576   4.693   4.795  1.1075  0.6576 -1.1753
   67CHL1  H24B 6128   2.504   4.616   4.654 -0.0889 -1.0344 -1.5757
   67CHL1   C25 6129   2.660   4.500   4.744 -0.2316 -0.2340  0.0456
   67CHL1   H25 6130   2.581   4.475   4.818 -0.2456 -1.0561 -0.2428
   67CHL1   C26 6131   2.663   4.393   4.635 -0.3764  0.0309  0.4492
   67CHL1  H26A 6132   2.688   4.291   4.671  0.2582  0.1756  0.4267
   67CHL1  H26B 6133   2.563   4.386   4.587 -0.1858 -1.8199  0.2623
   67CHL1  H26C 6134   2.734   4.429   4.558  1.4958 -0.7750  1.7167
   67CHL1   C27 6135   2.808   4.504   4.802 -0.2846 -0.4429  0.4996
   67CHL1  H27A 6136   2.822   4.404   4.849  0.6130  0.2328  1.7202
   67CHL1  H27B 6137   2.888   4.530   4.730  1.2927 -3.9079  0.7670
   67CHL1  H27C 6138   2.816   4.584   4.878  0.0358  0.8812 -0.8964
   68CHL1    C3 6139   6.681   3.949   3.001  0.7642 -0.2230  0.2500
   68CHL1    H3 6140   6.583   3.897   3.005  0.3732 -0.2964 -4.4838
   68CHL1    O3 6141   6.708   3.965   2.862  0.3811 -0.0135  0.2053
   68CHL1   H3' 6142   6.795   4.006   2.855 -0.3309  1.5610 -0.0510
   68CHL1    C4 6143   6.658   4.091   3.057  0.5159  0.5871 -0.1377
   68CHL1   H4A 6144   6.755   4.146   3.055  0.8349  0.0198 -0.8451
   68CHL1   H4B 6145   6.581   4.146   3.000 -1.3065 -1.6056  0.0675
   68CHL1    C5 6146   6.619   4.080   3.208  0.5957 -0.7149  0.9541
   68CHL1    C6 6147   6.506   4.142   3.250 -0.0212 -0.7106 -0.5594
   68CHL1    H6 6148   6.454   4.200   3.173 -1.7685 -2.7790 -1.0331
   68CHL1    C7 6149   6.462   4.139   3.399 -0.5608  0.2737 -0.4095
   68CHL1   H7A 6150   6.416   4.236   3.429  1.5774  0.6081  2.1754
   68CHL1   H7B 6151   6.384   4.061   3.402  0.9315 -1.3906 -2.2389
   68CHL1    C8 6152   6.576   4.101   3.493  0.3238  0.6739 -0.7185
   68CHL1    H8 6153   6.648   4.185   3.507  0.2214  0.5762  0.4441
   68CHL1   C14 6154   6.517   4.073   3.630  0.2892 -0.2217 -0.1899
   68CHL1   H14 6155   6.460   3.978   3.621 -3.4701  1.6040  1.7472
   68CHL1   C15 6156   6.415   4.171   3.695 -0.3253 -0.6354  0.1121
   68CHL1  H15A 6157   6.448   4.276   3.681 -1.7694  0.2816  2.8141
   68CHL1  H15B 6158   6.312   4.186   3.655 -0.0261 -0.1808 -0.5037
   68CHL1   C16 6159   6.413   4.141   3.839  0.8090  0.0000 -0.3885
   68CHL1  H16A 6160   6.440   4.228   3.902  0.9180 -1.4663  1.7065
   68CHL1  H16B 6161   6.313   4.111   3.877 -0.1923  2.8851 -0.5146
   68CHL1   C17 6162   6.505   4.024   3.856 -0.5129 -0.0018 -0.2747
   68CHL1   H17 6163   6.449   3.931   3.832 -1.5466  0.1321  1.4345
   68CHL1   C13 6164   6.613   4.040   3.739 -0.0269  0.6119 -0.2762
   68CHL1   C18 6165   6.708   4.152   3.777 -0.3738 -0.3661  0.3445
   68CHL1  H18A 6166   6.775   4.139   3.865  3.1939  0.1722 -2.0288
   68CHL1  H18B 6167   6.776   4.170   3.691 -1.5566  1.7622 -0.2124
   68CHL1  H18C 6168   6.661   4.252   3.789  1.3237  0.2345  2.8322
   68CHL1   C12 6169   6.685   3.908   3.689  0.1974 -0.8233  0.5431
   68CHL1  H12A 6170   6.762   3.873   3.761 -0.9315 -0.2052  2.1065
   68CHL1  H12B 6171   6.612   3.824   3.690 -1.2651  0.4069  1.5869
   68CHL1   C11 6172   6.753   3.925   3.550  0.5070  0.0067  0.6640
   68CHL1  H11A 6173   6.853   3.972   3.558  0.2638  0.6072  0.1963
   68CHL1  H11B 6174   6.783   3.822   3.523  1.9870  0.8933 -1.2981
   68CHL1    C9 6175   6.648   3.979   3.445 -0.4098 -0.4270 -0.3510
   68CHL1    H9 6176   6.562   3.910   3.430 -1.1270 -0.5219  3.2554
   68CHL1   C10 6177   6.712   3.993   3.297 -0.0268  0.4073  0.0529
   68CHL1   C19 6178   6.844   4.069   3.328 -0.4214 -0.1803 -0.0547
   68CHL1  H19A 6179   6.885   4.100   3.230  1.1212  0.3940  0.7423
   68CHL1  H19B 6180   6.832   4.161   3.389  0.5575 -0.1595  0.1221
   68CHL1  H19C 6181   6.927   4.009   3.370  1.3734  2.1323 -0.0986
   68CHL1    C1 6182   6.746   3.855   3.237 -0.1247  0.0787  0.1262
   68CHL1   H1A 6183   6.830   3.799   3.284 -0.0314  1.3702  1.5766
   68CHL1   H1B 6184   6.651   3.798   3.249 -0.5694  0.7806  0.0175
   68CHL1    C2 6185   6.780   3.857   3.082  0.1659  0.8796 -0.3941
   68CHL1   H2A 6186   6.764   3.754   3.043 -1.0592 -0.2667  2.8278
   68CHL1   H2B 6187   6.883   3.899   3.081  0.5578  0.2145  2.3132
   68CHL1   C20 6188   6.549   4.002   4.001  0.5193 -0.4833  0.3693
   68CHL1   H20 6189   6.616   4.088   4.020 -0.5588  0.3575  0.4663
   68CHL1   C21 6190   6.633   3.868   4.018  0.6852  0.0132  0.0583
   68CHL1  H21A 6191   6.641   3.838   4.125 -2.0397  0.6277  0.5128
   68CHL1  H21B 6192   6.734   3.897   3.981  0.1524  2.1750  0.1570
   68CHL1  H21C 6193   6.586   3.784   3.962 -1.5332  2.8087 -2.6012
   68CHL1   C22 6194   6.423   3.996   4.093 -0.2249  0.1881  0.3046
   68CHL1  H22A 6195   6.370   4.093   4.085  0.5990  0.5788 -0.5153
   68CHL1  H22B 6196   6.348   3.919   4.064  0.4947 -0.7192  0.7883
   68CHL1   C23 6197   6.455   3.984   4.242  0.0452  0.8772 -0.1825
   68CHL1  H23A 6198   6.514   3.892   4.260 -1.1056  0.4294  1.5982
   68CHL1  H23B 6199   6.515   4.070   4.279  1.0815  0.1253 -0.1037
   68CHL1   C24 6200   6.327   3.966   4.331 -0.5714  0.0028 -0.1291
   68CHL1  H24A 6201   6.263   4.052   4.302 -3.0875 -1.8473 -0.3330
   68CHL1  H24B 6202   6.280   3.873   4.294  0.7568 -0.4373 -0.7811
   68CHL1   C25 6203   6.338   3.956   4.484  1.0909 -0.0780  0.4472
   68CHL1   H25 6204   6.404   3.872   4.514  0.3077 -0.2915  1.6235
   68CHL1   C26 6205   6.409   4.085   4.536  0.5083 -0.3591 -0.3429
   68CHL1  H26A 6206   6.410   4.098   4.647 -0.5347 -0.4507 -0.3144
   68CHL1  H26B 6207   6.516   4.087   4.504  0.6463 -0.9746  0.0613
   68CHL1  H26C 6208   6.348   4.169   4.496  0.4789 -0.8871 -1.4344
   68CHL1   C27 6209   6.207   3.924   4.551  0.2439 -0.5287 -0.2078
   68CHL1  H27A 6210   6.130   3.986   4.500  2.0082  1.0524 -1.0386
   68CHL1  H27B 6211   6.161   3.827   4.521 -0.9550  0.0374 -0.2793
   68CHL1  H27C 6212   6.202   3.937   4.661 -2.7145 -0.0534 -0.3268
   69CHL1    C3 6213   5.416   0.710   3.181 -0.0264 -0.0363  0.1676
   69CHL1    H3 6214   5.356   0.621   3.210  0.7207 -0.6551 -0.1420
   69CHL1    O3 6215   5.411   0.736   3.045 -0.2901  0.1330  0.4221
   69CHL1   H3' 6216   5.457   0.819   3.032 -0.9729  0.3979 -0.4319
   69CHL1    C4 6217   5.352   0.834   3.260 -0.5749  0.7386  0.6427
   69CHL1   H4A 6218   5.396   0.925   3.213 -0.1434 -0.6359 -1.7961
   69CHL1   H4B 6219   5.246   0.833   3.227 -0.8837 -1.7149  1.5157
   69CHL1    C5 6220   5.377   0.830   3.406  0.6371 -0.2198 -0.3315
   69CHL1    C6 6221   5.271   0.833   3.493 -0.1330  0.4933 -0.3086
   69CHL1    H6 6222   5.166   0.841   3.461 -0.1774  0.7128 -0.1116
   69CHL1    C7 6223   5.283   0.825   3.639  0.3974 -0.3656 -0.3779
   69CHL1   H7A 6224   5.213   0.898   3.686 -1.6008 -1.4724 -1.5395
   69CHL1   H7B 6225   5.240   0.733   3.684 -0.9345  0.6031  0.4222
   69CHL1    C8 6226   5.428   0.841   3.689 -0.2475 -0.6135  0.0591
   69CHL1    H8 6227   5.450   0.950   3.692 -2.0470 -0.2326  2.3674
   69CHL1   C14 6228   5.449   0.794   3.829  0.2264  0.1127  0.1528
   69CHL1   H14 6229   5.432   0.685   3.815 -0.3979  0.4237 -1.8494
   69CHL1   C15 6230   5.344   0.822   3.929 -0.1777 -0.0925 -0.7096
   69CHL1  H15A 6231   5.313   0.928   3.924  0.3670  0.3054  2.4168
   69CHL1  H15B 6232   5.245   0.772   3.917 -0.6769  0.4545  0.8410
   69CHL1   C16 6233   5.410   0.784   4.067  0.4369 -0.4248  0.2293
   69CHL1  H16A 6234   5.399   0.860   4.148  0.1764  0.1077 -0.3002
   69CHL1  H16B 6235   5.366   0.698   4.122  2.2329 -1.8348 -0.4351
   69CHL1   C17 6236   5.562   0.757   4.039  0.5210 -0.0745 -0.3424
   69CHL1   H17 6237   5.558   0.646   4.028 -2.6847 -0.0289 -0.6423
   69CHL1   C13 6238   5.585   0.814   3.898 -0.4522  0.3620  0.9769
   69CHL1   C18 6239   5.608   0.968   3.910  0.6499  0.2941  0.4010
   69CHL1  H18A 6240   5.599   1.017   3.811 -1.0128  0.7600  0.7593
   69CHL1  H18B 6241   5.532   1.005   3.982  0.1220 -1.6404  0.9168
   69CHL1  H18C 6242   5.713   0.988   3.940  1.2474 -1.4707 -0.3401
   69CHL1   C12 6243   5.691   0.746   3.804  0.1867  0.4477  0.5026
   69CHL1  H12A 6244   5.793   0.776   3.835 -0.0313  0.1436  1.5566
   69CHL1  H12B 6245   5.674   0.636   3.808 -0.9386  0.5994  0.4159
   69CHL1   C11 6246   5.671   0.793   3.659 -0.4903  0.2588 -0.1814
   69CHL1  H11A 6247   5.708   0.898   3.652  0.6731 -0.2257 -2.0953
   69CHL1  H11B 6248   5.751   0.745   3.598  0.1585  1.9606 -0.7376
   69CHL1    C9 6249   5.533   0.773   3.602 -0.9839 -0.2666 -0.5648
   69CHL1    H9 6250   5.517   0.663   3.607  0.5138 -0.5592 -1.3971
   69CHL1   C10 6251   5.524   0.801   3.450  0.0796 -0.3909  0.1749
   69CHL1   C19 6252   5.600   0.936   3.425  0.0925 -0.2931  0.2001
   69CHL1  H19A 6253   5.708   0.912   3.422  0.0885 -0.3988  0.8599
   69CHL1  H19B 6254   5.573   0.972   3.323  0.7852  1.0664  0.4742
   69CHL1  H19C 6255   5.574   1.018   3.495 -1.6895  0.7560 -1.5920
   69CHL1    C1 6256   5.579   0.683   3.370  0.0409  0.1548  0.6527
   69CHL1   H1A 6257   5.687   0.658   3.380 -0.9039 -5.3569 -0.2129
   69CHL1   H1B 6258   5.520   0.598   3.411 -1.4835  1.3502  1.0441
   69CHL1    C2 6259   5.559   0.698   3.219 -0.5041  0.6784 -0.2426
   69CHL1   H2A 6260   5.615   0.621   3.164  1.9908 -0.5259  3.5889
   69CHL1   H2B 6261   5.611   0.788   3.180  1.2440 -0.5431 -0.8206
   69CHL1   C20 6262   5.660   0.796   4.152  0.0223 -0.1511  0.1488
   69CHL1   H20 6263   5.645   0.905   4.170  0.7439 -0.2345  1.3851
   69CHL1   C21 6264   5.807   0.763   4.113  0.2426  0.9799 -0.6943
   69CHL1  H21A 6265   5.817   0.656   4.084 -0.5681  0.3572  1.1246
   69CHL1  H21B 6266   5.864   0.776   4.208 -0.6161  0.3201 -0.0773
   69CHL1  H21C 6267   5.838   0.833   4.033 -1.5249  0.6122 -1.7393
   69CHL1   C22 6268   5.620   0.731   4.285  0.4131 -0.2765  0.1100
   69CHL1  H22A 6269   5.519   0.686   4.287  0.4519 -0.3853 -0.3468
   69CHL1  H22B 6270   5.690   0.645   4.300  1.0301  0.3164  0.7286
   69CHL1   C23 6271   5.615   0.826   4.400  0.8123  0.3412 -0.0729
   69CHL1  H23A 6272   5.698   0.899   4.395 -0.7529  2.3380  1.2103
   69CHL1  H23B 6273   5.523   0.888   4.404  0.9873  0.5201  1.5927
   69CHL1   C24 6274   5.631   0.756   4.542 -0.2672 -0.3906  0.4678
   69CHL1  H24A 6275   5.551   0.679   4.545  0.3109 -0.9800  1.1113
   69CHL1  H24B 6276   5.723   0.696   4.555  0.6350  0.7225 -0.5029
   69CHL1   C25 6277   5.634   0.845   4.661 -0.0977  0.4989  0.0370
   69CHL1   H25 6278   5.717   0.917   4.649 -0.8300  1.9072  2.5946
   69CHL1   C26 6279   5.509   0.934   4.667  0.6149 -0.0224 -0.6118
   69CHL1  H26A 6280   5.416   0.874   4.659 -0.1625  1.1130 -0.3537
   69CHL1  H26B 6281   5.510   1.006   4.751  2.3230 -1.7699  0.9516
   69CHL1  H26C 6282   5.507   0.995   4.574 -1.6759 -0.4205 -0.8832
   69CHL1   C27 6283   5.641   0.774   4.793  0.1492  0.1319  0.5391
   69CHL1  H27A 6284   5.640   0.846   4.877  1.5723  1.4044 -0.4751
   69CHL1  H27B 6285   5.563   0.696   4.802  0.2850 -0.2415 -1.0727
   69CHL1  H27C 6286   5.734   0.714   4.801 -0.3515 -0.5507  1.4726
   70CHL1    C3 6287   0.964   6.700   3.685 -0.0583 -0.2114  0.1812
   70CHL1    H3 6288   1.067   6.673   3.714 -0.2436  0.7556  1.9082
   70CHL1    O3 6289   0.934   6.700   3.545  0.0649  0.1550 -0.5532
   70CHL1   H3' 6290   1.017   6.728   3.506 -0.4569 -2.0454 -3.5999
   70CHL1    C4 6291   0.868   6.607   3.756 -0.4548  0.3755 -0.3531
   70CHL1   H4A 6292   0.765   6.627   3.719 -0.0155  0.9191 -1.3134
   70CHL1   H4B 6293   0.890   6.508   3.713  0.5889  1.1585 -1.7125
   70CHL1    C5 6294   0.873   6.615   3.901 -0.1330  0.4539 -0.5398
   70CHL1    C6 6295   0.908   6.515   3.985  0.5754 -0.0734 -0.6476
   70CHL1    H6 6296   0.918   6.415   3.939 -0.1646  0.1298 -1.2762
   70CHL1    C7 6297   0.895   6.524   4.135  0.4632 -0.2327 -0.2037
   70CHL1   H7A 6298   0.840   6.435   4.172 -0.2623 -0.0112 -0.7138
   70CHL1   H7B 6299   1.001   6.518   4.169 -0.0375 -0.1851  1.4464
   70CHL1    C8 6300   0.829   6.650   4.195 -0.6509 -0.6161  0.2322
   70CHL1    H8 6301   0.719   6.635   4.203 -0.3643 -2.6082  1.0609
   70CHL1   C14 6302   0.874   6.669   4.333 -0.0748 -0.1680 -0.3753
   70CHL1   H14 6303   0.980   6.700   4.319  0.2071  0.9029  2.9645
   70CHL1   C15 6304   0.884   6.548   4.437 -0.0965 -0.7457  0.9780
   70CHL1  H15A 6305   0.785   6.498   4.443 -0.9735  0.8383  0.2903
   70CHL1  H15B 6306   0.975   6.488   4.415 -0.5104 -0.5446 -1.5765
   70CHL1   C16 6307   0.895   6.624   4.577  0.1107  0.5593  0.9070
   70CHL1  H16A 6308   0.804   6.600   4.636  0.0124  0.9641  0.9174
   70CHL1  H16B 6309   0.988   6.596   4.632  0.4727 -0.2632 -0.0728
   70CHL1   C17 6310   0.900   6.772   4.538  0.1745  0.5328  0.6557
   70CHL1   H17 6311   1.007   6.797   4.521  0.0631 -0.8143 -3.1619
   70CHL1   C13 6312   0.826   6.790   4.407 -0.0928 -0.7632 -0.3126
   70CHL1   C18 6313   0.673   6.779   4.429 -0.6757  0.2239 -1.1093
   70CHL1  H18A 6314   0.636   6.862   4.492  0.2213 -0.7608  0.7861
   70CHL1  H18B 6315   0.623   6.767   4.330  0.6168 -0.9045 -1.6570
   70CHL1  H18C 6316   0.646   6.688   4.487 -1.7541  1.8020  1.0081
   70CHL1   C12 6317   0.854   6.915   4.320  0.0838 -0.1466  0.4516
   70CHL1  H12A 6318   0.815   7.012   4.357  1.9966  0.7549  0.2287
   70CHL1  H12B 6319   0.964   6.927   4.329  0.3259 -2.6008  1.8559
   70CHL1   C11 6320   0.802   6.896   4.169 -0.2277  0.5398 -0.0879
   70CHL1  H11A 6321   0.692   6.879   4.171 -0.2040 -0.3976 -2.9127
   70CHL1  H11B 6322   0.835   6.979   4.103  1.4482  0.2108  0.2812
   70CHL1    C9 6323   0.862   6.774   4.108  0.2143  0.2461  0.3381
   70CHL1    H9 6324   0.972   6.788   4.116  0.2824 -0.7286  1.3463
   70CHL1   C10 6325   0.839   6.754   3.956  0.1633  0.0138  0.1192
   70CHL1   C19 6326   0.696   6.795   3.936  0.5536 -0.0180  0.4626
   70CHL1  H19A 6327   0.664   6.771   3.832 -0.2610  1.4901  0.3502
   70CHL1  H19B 6328   0.630   6.733   4.000  2.0392 -1.4723  0.6755
   70CHL1  H19C 6329   0.670   6.899   3.961  1.0575 -0.4112  2.8461
   70CHL1    C1 6330   0.931   6.862   3.883 -0.3243  0.8780  0.5321
   70CHL1   H1A 6331   0.897   6.964   3.908  0.4104  1.1770  0.3432
   70CHL1   H1B 6332   1.038   6.858   3.915 -0.9933  1.7859  3.0725
   70CHL1    C2 6333   0.937   6.846   3.727 -0.0268  0.0988 -0.3416
   70CHL1   H2A 6334   1.007   6.921   3.684 -1.0406  1.5571  0.4678
   70CHL1   H2B 6335   0.843   6.881   3.679 -1.2324 -0.7945  1.2666
   70CHL1   C20 6336   0.870   6.868   4.658 -0.2127 -0.0391 -0.7947
   70CHL1   H20 6337   0.773   6.845   4.706  0.8312  3.2224  3.6903
   70CHL1   C21 6338   0.867   7.015   4.621  0.3043  0.5491 -0.2180
   70CHL1  H21A 6339   0.950   7.048   4.555  0.8332 -1.1268 -0.4453
   70CHL1  H21B 6340   0.871   7.080   4.711  2.2473  2.9475 -1.9032
   70CHL1  H21C 6341   0.769   7.026   4.569 -0.6080 -2.0641  0.7509
   70CHL1   C22 6342   0.979   6.843   4.766  0.3061  0.1463 -0.1268
   70CHL1  H22A 6343   1.005   6.736   4.780 -1.7870 -0.2201  1.3443
   70CHL1  H22B 6344   1.070   6.898   4.731  1.4416 -1.0064  0.8964
   70CHL1   C23 6345   0.922   6.886   4.903 -0.5494 -0.4583 -0.3829
   70CHL1  H23A 6346   0.900   6.995   4.903  1.8046  0.0608  0.1431
   70CHL1  H23B 6347   0.839   6.819   4.933  0.6053 -1.1258  1.4736
   70CHL1   C24 6348   1.035   6.877   5.004  0.2291 -0.2052 -0.2006
   70CHL1  H24A 6349   1.068   6.774   5.028  0.1962 -0.4502 -1.1382
   70CHL1  H24B 6350   1.127   6.926   4.964 -0.9439 -0.0207 -2.8980
   70CHL1   C25 6351   0.998   6.950   5.142 -0.1979 -0.4594 -0.6853
   70CHL1   H25 6352   0.969   7.054   5.113 -0.6536 -0.8815 -1.8017
   70CHL1   C26 6353   0.881   6.881   5.212  0.3759 -0.7959 -0.1059
   70CHL1  H26A 6354   0.915   6.779   5.240 -2.7793 -2.0921 -0.5645
   70CHL1  H26B 6355   0.854   6.930   5.308  1.1330  0.4999 -0.5308
   70CHL1  H26C 6356   0.804   6.884   5.132  1.5436 -1.2770 -1.2715
   70CHL1   C27 6357   1.116   6.958   5.237  0.1129 -0.8850  0.8724
   70CHL1  H27A 6358   1.167   6.860   5.236 -0.6673 -1.3305 -1.5482
   70CHL1  H27B 6359   1.187   7.030   5.190 -1.4447 -1.2173 -2.2822
   70CHL1  H27C 6360   1.075   7.002   5.330  1.1662  0.8503  0.5748
   71CHL1    C3 6361   5.493   5.438   3.198  0.3217 -0.0177 -0.3491
   71CHL1    H3 6362   5.569   5.511   3.232 -0.1278 -0.7032  2.3750
   71CHL1    O3 6363   5.483   5.433   3.056  0.3636  0.0600 -0.1610
   71CHL1   H3' 6364   5.451   5.346   3.034 -1.4448  0.5934  0.1542
   71CHL1    C4 6365   5.532   5.299   3.257 -0.2320  0.1129 -0.1432
   71CHL1   H4A 6366   5.469   5.212   3.230 -1.2115 -0.2511  2.8837
   71CHL1   H4B 6367   5.638   5.279   3.228  0.0450  0.1115  0.8228
   71CHL1    C5 6368   5.531   5.304   3.413 -0.3148  0.3211  0.4013
   71CHL1    C6 6369   5.637   5.266   3.485  0.9260  0.5312  1.0292
   71CHL1    H6 6370   5.724   5.223   3.433 -1.3193  0.3696 -2.9574
   71CHL1    C7 6371   5.634   5.254   3.636  0.3064 -0.0621 -0.3370
   71CHL1   H7A 6372   5.670   5.157   3.678  0.2590 -0.5588 -1.3932
   71CHL1   H7B 6373   5.694   5.341   3.669 -0.0282 -0.1932  0.6501
   71CHL1    C8 6374   5.492   5.271   3.698 -0.9171 -0.2512  0.3242
   71CHL1    H8 6375   5.442   5.173   3.681 -0.2985 -0.6560  0.7849
   71CHL1   C14 6376   5.509   5.312   3.842  0.4240  0.0534  0.3884
   71CHL1   H14 6377   5.555   5.413   3.838 -1.3085  0.8593 -0.0598
   71CHL1   C15 6378   5.609   5.226   3.926 -0.3816 -0.6636  0.2778
   71CHL1  H15A 6379   5.608   5.117   3.906  0.6234 -0.5151 -0.6923
   71CHL1  H15B 6380   5.715   5.256   3.907 -0.7418 -0.2886 -1.2357
   71CHL1   C16 6381   5.566   5.252   4.076 -0.6281 -0.3946 -0.1087
   71CHL1  H16A 6382   5.527   5.156   4.118 -2.0651 -0.4090 -1.3911
   71CHL1  H16B 6383   5.650   5.294   4.135  2.4816 -2.2090 -2.9118
   71CHL1   C17 6384   5.448   5.347   4.068  0.9543 -0.6131 -0.6134
   71CHL1   H17 6385   5.490   5.450   4.077 -0.1978 -0.1155 -0.7060
   71CHL1   C13 6386   5.392   5.337   3.926  0.6737  0.1432 -0.1200
   71CHL1   C18 6387   5.304   5.206   3.931 -0.4303  0.5726  0.3511
   71CHL1  H18A 6388   5.361   5.126   3.982 -0.9971 -0.3846 -0.4767
   71CHL1  H18B 6389   5.203   5.204   3.978 -0.8126 -1.0071 -0.4461
   71CHL1  H18C 6390   5.285   5.168   3.828 -2.7249  2.7012 -0.1180
   71CHL1   C12 6391   5.310   5.450   3.856  0.2756 -0.2132 -0.2901
   71CHL1  H12A 6392   5.209   5.460   3.903 -0.7156 -0.5507 -2.2488
   71CHL1  H12B 6393   5.354   5.551   3.873 -0.3927  0.4719 -2.2925
   71CHL1   C11 6394   5.293   5.430   3.700  0.2698 -0.6696 -0.1630
   71CHL1  H11A 6395   5.207   5.360   3.688 -2.0743  1.7681  1.2707
   71CHL1  H11B 6396   5.262   5.525   3.651  1.9564 -0.1642 -0.2935
   71CHL1    C9 6397   5.419   5.387   3.620 -0.1873  0.2225 -0.2128
   71CHL1    H9 6398   5.489   5.472   3.630 -1.1629  1.0259 -0.1138
   71CHL1   C10 6399   5.390   5.356   3.470 -0.3189  0.0796 -0.2780
   71CHL1   C19 6400   5.274   5.254   3.459  0.0263  0.5383  0.4865
   71CHL1  H19A 6401   5.269   5.219   3.353 -1.5004 -0.6662  0.9269
   71CHL1  H19B 6402   5.293   5.170   3.529 -2.3538 -1.0845 -0.6727
   71CHL1  H19C 6403   5.175   5.289   3.494 -1.0391 -1.3695 -0.5073
   71CHL1    C1 6404   5.350   5.492   3.408  0.0661 -0.5995  0.8833
   71CHL1   H1A 6405   5.251   5.528   3.444 -0.7676 -0.8891 -1.0075
   71CHL1   H1B 6406   5.425   5.565   3.445  0.2528 -0.8365  0.9778
   71CHL1    C2 6407   5.355   5.493   3.251  0.0774 -0.3582 -0.4374
   71CHL1   H2A 6408   5.325   5.590   3.204 -1.1914 -0.7094 -0.3984
   71CHL1   H2B 6409   5.273   5.427   3.216 -0.0394  0.6006 -2.0720
   71CHL1   C20 6410   5.345   5.335   4.187 -0.7528  0.0701  0.6240
   71CHL1   H20 6411   5.281   5.247   4.160 -0.4241  0.0452 -0.1119
   71CHL1   C21 6412   5.253   5.460   4.183  0.3237 -0.4004 -0.0143
   71CHL1  H21A 6413   5.316   5.550   4.162  2.1555 -1.2322  1.5992
   71CHL1  H21B 6414   5.195   5.477   4.276 -2.0565  0.0659 -1.4725
   71CHL1  H21C 6415   5.185   5.450   4.095 -2.8459 -4.1050  2.5212
   71CHL1   C22 6416   5.415   5.317   4.325  0.1604 -0.1666 -0.3430
   71CHL1  H22A 6417   5.512   5.264   4.318 -0.2892 -0.9498 -0.6821
   71CHL1  H22B 6418   5.427   5.420   4.365 -0.9620 -0.2653  0.3042
   71CHL1   C23 6419   5.326   5.244   4.431 -0.4584  0.1933  0.0219
   71CHL1  H23A 6420   5.236   5.306   4.451 -1.1476 -0.6160 -0.4379
   71CHL1  H23B 6421   5.291   5.147   4.390  2.1337 -1.1489  0.7702
   71CHL1   C24 6422   5.410   5.238   4.558 -0.2619 -0.2827  0.0001
   71CHL1  H24A 6423   5.508   5.189   4.539 -0.0506  0.4769 -0.9568
   71CHL1  H24B 6424   5.427   5.343   4.589  0.7381 -1.2235  3.0704
   71CHL1   C25 6425   5.361   5.159   4.679  0.9340 -0.1690 -0.6061
   71CHL1   H25 6426   5.338   5.055   4.647 -0.0833  0.5922 -2.5214
   71CHL1   C26 6427   5.467   5.155   4.793 -0.1339  0.3278  0.1092
   71CHL1  H26A 6428   5.433   5.082   4.871 -1.6434  1.5186  0.6052
   71CHL1  H26B 6429   5.565   5.124   4.750 -0.8427 -0.1989 -1.1744
   71CHL1  H26C 6430   5.475   5.258   4.832  0.9030  0.8911 -1.5088
   71CHL1   C27 6431   5.229   5.218   4.727  0.3561 -0.1687 -1.2155
   71CHL1  H27A 6432   5.185   5.166   4.815  1.2940 -0.1256 -0.7119
   71CHL1  H27B 6433   5.245   5.324   4.757  2.5830 -0.1928 -2.1456
   71CHL1  H27C 6434   5.156   5.239   4.646  0.5798 -0.1920 -1.4250
   72CHL1    C3 6435   4.372   0.492   3.174  0.0474  0.3105 -0.8572
   72CHL1    H3 6436   4.481   0.475   3.159  0.9563  2.9821  1.6060
   72CHL1    O3 6437   4.319   0.525   3.048  0.0076 -0.1492  0.5791
   72CHL1   H3' 6438   4.226   0.503   3.049 -0.6972  2.3864 -0.1615
   72CHL1    C4 6439   4.309   0.362   3.236  0.3576 -0.9551  0.9177
   72CHL1   H4A 6440   4.199   0.377   3.238  0.5759  1.6827 -1.4465
   72CHL1   H4B 6441   4.327   0.273   3.172  2.3137 -0.5436  0.8418
   72CHL1    C5 6442   4.354   0.336   3.378 -0.4724 -0.3533  0.0521
   72CHL1    C6 6443   4.429   0.233   3.414 -0.2871 -0.4163 -0.5961
   72CHL1    H6 6444   4.443   0.161   3.333  2.7009  0.2942 -0.8028
   72CHL1    C7 6445   4.477   0.195   3.552  0.3531  0.1920  0.0203
   72CHL1   H7A 6446   4.440   0.091   3.558 -0.2147  0.3986  0.1584
   72CHL1   H7B 6447   4.587   0.206   3.550  0.3746  0.9340  2.1370
   72CHL1    C8 6448   4.415   0.285   3.664 -0.7282  0.3550 -0.4481
   72CHL1    H8 6449   4.311   0.248   3.682 -0.9027 -0.6900 -3.1225
   72CHL1   C14 6450   4.489   0.273   3.790  0.0509  0.0822 -0.1819
   72CHL1   H14 6451   4.592   0.310   3.770 -0.6497  0.7720 -2.9694
   72CHL1   C15 6452   4.515   0.140   3.858  1.4067 -0.7705 -0.2810
   72CHL1  H15A 6453   4.415   0.092   3.859  0.9558  0.1419 -0.4614
   72CHL1  H15B 6454   4.577   0.069   3.800  1.5662  0.1021 -1.2188
   72CHL1   C16 6455   4.560   0.178   3.996  0.0208 -0.1457 -0.8859
   72CHL1  H16A 6456   4.511   0.118   4.075  2.0163 -2.0197 -0.9560
   72CHL1  H16B 6457   4.668   0.158   4.013 -0.5162 -0.8506  2.2677
   72CHL1   C17 6458   4.536   0.328   4.018  0.2818  0.5236 -0.8385
   72CHL1   H17 6459   4.633   0.372   3.990  1.0099  0.7526  1.7790
   72CHL1   C13 6460   4.436   0.367   3.912  0.2894 -0.4183  0.1920
   72CHL1   C18 6461   4.288   0.333   3.954 -0.2208  0.1890 -0.0142
   72CHL1  H18A 6462   4.225   0.338   3.863  0.3920  1.0969 -0.4098
   72CHL1  H18B 6463   4.274   0.234   4.003  3.5861 -1.5255 -1.9538
   72CHL1  H18C 6464   4.259   0.408   4.031 -1.2854 -1.9080  1.7309
   72CHL1   C12 6465   4.462   0.513   3.860 -0.0991  0.8510  0.5972
   72CHL1  H12A 6466   4.431   0.588   3.936  1.8247  2.3563 -0.0294
   72CHL1  H12B 6467   4.568   0.535   3.834 -0.2776 -0.1552 -1.1398
   72CHL1   C11 6468   4.376   0.532   3.727  0.8263  0.6973 -0.4780
   72CHL1  H11A 6469   4.271   0.515   3.760  1.2191 -0.2074  0.3334
   72CHL1  H11B 6470   4.389   0.638   3.698 -2.1131  0.8291 -1.7379
   72CHL1    C9 6471   4.415   0.427   3.620  0.4795  0.3301  0.9790
   72CHL1    H9 6472   4.521   0.443   3.594  0.4092 -0.4054  0.2263
   72CHL1   C10 6473   4.332   0.446   3.489 -0.3909  0.1921 -0.2381
   72CHL1   C19 6474   4.182   0.464   3.527  0.4120 -0.2877  1.0163
   72CHL1  H19A 6475   4.171   0.565   3.573 -0.4461  1.0227 -1.8156
   72CHL1  H19B 6476   4.126   0.458   3.430  2.1108  0.8608 -0.0960
   72CHL1  H19C 6477   4.158   0.386   3.602  1.9620 -1.4216  0.3737
   72CHL1    C1 6478   4.390   0.575   3.416 -1.1457 -0.1871  0.3265
   72CHL1   H1A 6479   4.371   0.664   3.480  0.6285  1.0763 -0.8128
   72CHL1   H1B 6480   4.501   0.573   3.410 -1.1280  0.3843  0.4529
   72CHL1    C2 6481   4.340   0.607   3.280  0.0988  0.0879  1.0815
   72CHL1   H2A 6482   4.396   0.694   3.240 -1.0393  0.1730 -0.4270
   72CHL1   H2B 6483   4.233   0.637   3.277  0.5415  1.6924  0.0320
   72CHL1   C20 6484   4.520   0.362   4.169 -0.1372  0.3262  0.2991
   72CHL1   H20 6485   4.437   0.297   4.206  1.7793 -2.4171  0.0543
   72CHL1   C21 6486   4.485   0.513   4.190 -0.2647 -0.3916  0.8889
   72CHL1  H21A 6487   4.553   0.568   4.121 -0.3534 -2.0684 -0.5802
   72CHL1  H21B 6488   4.497   0.554   4.293 -0.1368  3.0314 -0.3457
   72CHL1  H21C 6489   4.382   0.532   4.150  0.3894  1.0817 -0.2020
   72CHL1   C22 6490   4.656   0.323   4.244  0.0534 -0.1598 -0.5965
   72CHL1  H22A 6491   4.670   0.214   4.224  0.2605 -0.1328 -0.5966
   72CHL1  H22B 6492   4.740   0.382   4.202  1.1301 -0.4937  1.0073
   72CHL1   C23 6493   4.663   0.356   4.402 -0.6572  0.1987  0.7539
   72CHL1  H23A 6494   4.759   0.310   4.434 -0.4111  2.7866  4.1690
   72CHL1  H23B 6495   4.657   0.463   4.431 -0.5961  0.3651  0.1734
   72CHL1   C24 6496   4.565   0.260   4.480 -0.4722 -0.1698 -0.1212
   72CHL1  H24A 6497   4.472   0.272   4.419  0.7111  1.5804 -1.6908
   72CHL1  H24B 6498   4.596   0.154   4.474 -0.5982 -0.4278  2.4088
   72CHL1   C25 6499   4.542   0.315   4.623 -0.0342  0.0878 -0.4102
   72CHL1   H25 6500   4.557   0.425   4.621  1.1465 -0.0793 -1.8933
   72CHL1   C26 6501   4.407   0.279   4.686  0.0640 -0.3121 -0.3493
   72CHL1  H26A 6502   4.319   0.304   4.624  0.4062 -1.1052 -1.1842
   72CHL1  H26B 6503   4.412   0.172   4.716 -1.3826 -0.4909 -0.6968
   72CHL1  H26C 6504   4.402   0.323   4.788 -0.5890 -1.6074  0.2066
   72CHL1   C27 6505   4.663   0.268   4.715  0.0913  0.5200  0.2215
   72CHL1  H27A 6506   4.653   0.302   4.821 -0.2351  0.9729  0.0514
   72CHL1  H27B 6507   4.663   0.157   4.717  0.4662  0.4032 -2.5810
   72CHL1  H27C 6508   4.759   0.302   4.671 -0.9045  0.2469 -2.3683
   73CHL1    C3 6509   1.837   5.337   3.525 -0.4533  0.2466  0.2005
   73CHL1    H3 6510   1.946   5.358   3.526 -0.3064 -0.3163 -1.2128
   73CHL1    O3 6511   1.782   5.387   3.407  0.6310 -0.1036 -0.1894
   73CHL1   H3' 6512   1.751   5.311   3.357 -1.9247  1.8616 -1.8174
   73CHL1    C4 6513   1.810   5.193   3.540 -0.1370  0.2319 -0.1462
   73CHL1   H4A 6514   1.700   5.179   3.536 -0.1843 -0.0854  1.5273
   73CHL1   H4B 6515   1.850   5.135   3.454  0.1229 -0.1849  0.2529
   73CHL1    C5 6516   1.865   5.134   3.665 -0.0952 -0.9905  0.1373
   73CHL1    C6 6517   1.947   5.032   3.663  0.7699 -0.2892 -0.1546
   73CHL1    H6 6518   1.986   4.994   3.568  1.8199  3.2142 -1.2599
   73CHL1    C7 6519   2.015   4.983   3.787 -0.6513 -0.8465  0.0394
   73CHL1   H7A 6520   1.999   4.873   3.787 -1.2614 -0.7591 -0.1512
   73CHL1   H7B 6521   2.126   4.992   3.783 -0.8724  2.7233 -0.6403
   73CHL1    C8 6522   1.958   5.035   3.927 -0.3429 -0.0871 -0.0024
   73CHL1    H8 6523   1.871   4.972   3.956 -0.1299 -1.2010 -1.6561
   73CHL1   C14 6524   2.056   5.012   4.040  0.7775  0.6456 -0.0517
   73CHL1   H14 6525   2.142   5.081   4.022  1.5467 -0.5288 -1.1313
   73CHL1   C15 6526   2.125   4.879   4.051 -0.4027 -0.0488  0.0253
   73CHL1  H15A 6527   2.045   4.814   4.009 -1.5558  1.6743 -0.5975
   73CHL1  H15B 6528   2.211   4.890   3.981 -0.0123  3.0328  0.8458
   73CHL1   C16 6529   2.157   4.860   4.197  0.0776 -0.2928 -0.1009
   73CHL1  H16A 6530   2.079   4.796   4.243 -0.3558  2.1199  2.8797
   73CHL1  H16B 6531   2.254   4.815   4.226  0.4332  0.2776 -0.3964
   73CHL1   C17 6532   2.122   5.001   4.267 -0.6961  0.6235  0.1765
   73CHL1   H17 6533   2.210   5.062   4.238 -0.6444 -0.7732 -3.0420
   73CHL1   C13 6534   1.999   5.048   4.177  0.0183 -0.5370  0.2970
   73CHL1   C18 6535   1.876   4.972   4.226 -0.3041  0.4764 -0.1090
   73CHL1  H18A 6536   1.782   4.982   4.167 -0.3345 -0.2639 -0.1885
   73CHL1  H18B 6537   1.892   4.863   4.234 -0.1046  0.6195  1.8026
   73CHL1  H18C 6538   1.856   5.008   4.329  0.3093  2.4305 -0.6339
   73CHL1   C12 6539   1.965   5.194   4.169 -0.0032 -0.7030  0.2989
   73CHL1  H12A 6540   1.916   5.228   4.263  1.2276  0.0263  0.6971
   73CHL1  H12B 6541   2.055   5.256   4.151 -1.1099  0.3502 -2.0479
   73CHL1   C11 6542   1.865   5.222   4.054 -0.7668  0.2740 -0.3325
   73CHL1  H11A 6543   1.773   5.160   4.065 -0.9279  0.6233  0.3346
   73CHL1  H11B 6544   1.833   5.328   4.045  0.3924  0.5847 -1.0398
   73CHL1    C9 6545   1.921   5.179   3.916 -0.0184  0.7500 -0.1109
   73CHL1    H9 6546   2.014   5.238   3.896 -0.0742  0.8194 -0.1682
   73CHL1   C10 6547   1.823   5.201   3.797  0.3131 -0.0460  0.1571
   73CHL1   C19 6548   1.680   5.146   3.835  0.7512 -0.1524 -0.8863
   73CHL1  H19A 6549   1.639   5.206   3.919  1.4154  0.3879 -0.9346
   73CHL1  H19B 6550   1.611   5.161   3.750 -1.3240 -0.9068  0.5874
   73CHL1  H19C 6551   1.674   5.039   3.864 -0.6189  0.1574  0.0794
   73CHL1    C1 6552   1.821   5.356   3.775 -0.6061  0.4006 -0.3011
   73CHL1   H1A 6553   1.793   5.418   3.863  0.3865 -0.4968  0.6761
   73CHL1   H1B 6554   1.929   5.382   3.768 -0.7254  1.2291  0.6251
   73CHL1    C2 6555   1.762   5.400   3.642 -0.0995 -0.3533  0.2883
   73CHL1   H2A 6556   1.764   5.510   3.627 -0.5779  0.1796  3.5311
   73CHL1   H2B 6557   1.656   5.370   3.634  0.0366 -0.4468 -1.8271
   73CHL1   C20 6558   2.103   4.989   4.427 -0.5262 -0.0101 -0.5996
   73CHL1   H20 6559   2.004   4.951   4.458  0.0402 -0.1653  1.0978
   73CHL1   C21 6560   2.108   5.127   4.480  0.6237  0.2303  0.8226
   73CHL1  H21A 6561   2.058   5.142   4.579  0.5869 -0.4862  0.9142
   73CHL1  H21B 6562   2.062   5.183   4.396 -0.9673 -0.2648  1.3232
   73CHL1  H21C 6563   2.212   5.161   4.498  1.3706 -1.6576  0.2247
   73CHL1   C22 6564   2.208   4.900   4.504  0.1159  0.2427 -0.0975
   73CHL1  H22A 6565   2.204   4.796   4.464  3.3148 -0.5052  1.2163
   73CHL1  H22B 6566   2.308   4.942   4.484  0.4996  0.0165  1.2210
   73CHL1   C23 6567   2.184   4.903   4.652  0.5035 -0.0973 -0.1259
   73CHL1  H23A 6568   2.181   5.010   4.684 -2.2529  0.0159 -0.5075
   73CHL1  H23B 6569   2.083   4.862   4.672  0.1523  0.6480 -0.3178
   73CHL1   C24 6570   2.280   4.825   4.742  0.6351  0.2780  0.3619
   73CHL1  H24A 6571   2.303   4.727   4.694 -0.0234 -0.6074  1.7763
   73CHL1  H24B 6572   2.381   4.865   4.764  1.4483 -1.3847 -0.1161
   73CHL1   C25 6573   2.217   4.790   4.880 -0.4436 -0.3922 -0.5518
   73CHL1   H25 6574   2.127   4.729   4.861 -0.5230 -0.8446  1.0918
   73CHL1   C26 6575   2.306   4.704   4.967 -0.4809 -0.2032  0.2764
   73CHL1  H26A 6576   2.402   4.758   4.978 -1.1590  1.3563 -1.1758
   73CHL1  H26B 6577   2.270   4.677   5.069 -0.7527 -0.4850  0.1068
   73CHL1  H26C 6578   2.342   4.620   4.904  0.0007  0.7154 -0.6966
   73CHL1   C27 6579   2.178   4.924   4.959  0.2652 -0.0134  0.1006
   73CHL1  H27A 6580   2.104   4.898   5.037 -0.8373  1.9377 -0.2414
   73CHL1  H27B 6581   2.269   4.967   5.006  1.7077 -2.4670 -0.2226
   73CHL1  H27C 6582   2.134   4.998   4.890 -1.7180  0.1942  1.5152
   74CHL1    C3 6583   4.039   4.049   3.087 -0.4682 -0.6774 -0.1483
   74CHL1    H3 6584   4.089   3.956   3.122 -1.7174 -0.9824  0.8950
   74CHL1    O3 6585   4.033   4.062   2.944 -0.2056 -0.6410 -0.3878
   74CHL1   H3' 6586   3.949   4.103   2.922 -1.2786 -2.0893  0.8179
   74CHL1    C4 6587   3.898   4.057   3.144  0.3498 -0.2668 -0.7054
   74CHL1   H4A 6588   3.853   4.152   3.107  1.1288  0.5854  0.4509
   74CHL1   H4B 6589   3.844   3.968   3.105 -1.4440  0.1172  0.7771
   74CHL1    C5 6590   3.894   4.062   3.303  0.5950  0.9804 -0.2179
   74CHL1    C6 6591   3.817   3.971   3.373 -0.8179 -0.0603 -0.0386
   74CHL1    H6 6592   3.749   3.901   3.322  1.3682 -1.9447 -0.5340
   74CHL1    C7 6593   3.810   3.966   3.519  0.4565  0.0374 -0.5073
   74CHL1   H7A 6594   3.703   3.955   3.549  0.7084  0.7019  0.6879
   74CHL1   H7B 6595   3.858   3.873   3.557 -1.3560  0.5233  3.4734
   74CHL1    C8 6596   3.881   4.089   3.586 -0.6887  0.0565  0.3551
   74CHL1    H8 6597   3.807   4.171   3.597 -0.4988  0.2253  0.3693
   74CHL1   C14 6598   3.920   4.043   3.729  0.5997 -0.2712 -0.4228
   74CHL1   H14 6599   3.995   3.962   3.715  0.0874 -0.6284 -1.1841
   74CHL1   C15 6600   3.807   3.991   3.820  0.6926  0.0854 -0.8550
   74CHL1  H15A 6601   3.710   4.045   3.809  1.2046  0.5048 -4.1893
   74CHL1  H15B 6602   3.785   3.883   3.802 -1.5795  0.2211  0.6188
   74CHL1   C16 6603   3.861   4.015   3.961 -0.0139  0.5378  0.3975
   74CHL1  H16A 6604   3.790   4.083   4.013  0.9685  1.8720  0.0550
   74CHL1  H16B 6605   3.870   3.920   4.017  3.4185 -0.0264 -0.9117
   74CHL1   C17 6606   3.992   4.091   3.948 -0.7372  0.1101 -0.4522
   74CHL1   H17 6607   4.077   4.020   3.935 -0.9818  0.1288 -2.4701
   74CHL1   C13 6608   3.983   4.155   3.811 -0.6150  0.1176  0.2225
   74CHL1   C18 6609   3.887   4.278   3.818  0.3669  0.6407 -0.0982
   74CHL1  H18A 6610   3.892   4.335   3.723  0.2264  2.4742  0.9373
   74CHL1  H18B 6611   3.784   4.244   3.842  1.3331 -3.0858 -0.6836
   74CHL1  H18C 6612   3.939   4.344   3.891 -0.6748 -0.6790  1.9577
   74CHL1   C12 6613   4.115   4.197   3.741  0.5400 -0.0171 -0.1497
   74CHL1  H12A 6614   4.147   4.288   3.796 -0.1321 -0.7603  1.5385
   74CHL1  H12B 6615   4.177   4.106   3.756  0.9870  0.0442 -1.5300
   74CHL1   C11 6616   4.104   4.220   3.593 -0.4570 -0.5513 -0.5562
   74CHL1  H11A 6617   4.066   4.324   3.583  0.2617  0.1246  2.7968
   74CHL1  H11B 6618   4.206   4.221   3.549  0.2525  0.6810  1.0408
   74CHL1    C9 6619   4.017   4.116   3.516  0.2783 -0.2094 -0.3568
   74CHL1    H9 6620   4.077   4.023   3.510  2.5456  0.9481  2.3040
   74CHL1   C10 6621   3.996   4.160   3.363  0.4421 -0.7854 -0.4026
   74CHL1   C19 6622   3.940   4.309   3.353 -0.5928  0.1543  0.0128
   74CHL1  H19A 6623   4.024   4.371   3.317 -0.9841  1.1266  0.7496
   74CHL1  H19B 6624   3.861   4.317   3.275  0.1193 -2.1559 -1.0533
   74CHL1  H19C 6625   3.889   4.338   3.447 -0.5133 -0.6237  0.3033
   74CHL1    C1 6626   4.131   4.145   3.294  0.2143  0.0033 -0.3453
   74CHL1   H1A 6627   4.203   4.220   3.333  2.0148 -1.5614 -0.5190
   74CHL1   H1B 6628   4.172   4.042   3.307  1.8574  0.7634  1.0138
   74CHL1    C2 6629   4.127   4.159   3.144 -0.3879 -0.4339 -0.2137
   74CHL1   H2A 6630   4.233   4.148   3.113 -0.1798 -0.1089  0.3703
   74CHL1   H2B 6631   4.091   4.258   3.110 -1.7393 -1.6855 -2.7612
   74CHL1   C20 6632   4.038   4.170   4.082  0.2537 -0.2891 -0.1325
   74CHL1   H20 6633   3.984   4.266   4.096  0.0492 -0.3897 -0.2206
   74CHL1   C21 6634   4.191   4.214   4.082  0.1902  0.3913  0.6069
   74CHL1  H21A 6635   4.204   4.283   3.996  1.8209 -0.2983  0.2652
   74CHL1  H21B 6636   4.250   4.122   4.060  2.1212  1.9438 -1.1143
   74CHL1  H21C 6637   4.221   4.260   4.179  2.0738 -0.3681  0.4250
   74CHL1   C22 6638   4.002   4.093   4.216  0.6451 -0.4966 -0.3296
   74CHL1  H22A 6639   3.910   4.034   4.195 -0.1267  0.5280  0.0981
   74CHL1  H22B 6640   4.086   4.026   4.245  2.0622  0.7865 -1.3541
   74CHL1   C23 6641   3.963   4.187   4.331  0.2809 -0.9244  0.3024
   74CHL1  H23A 6642   4.041   4.265   4.344 -0.3681 -0.5777  2.7240
   74CHL1  H23B 6643   3.875   4.247   4.301  0.3932 -0.8987  0.0245
   74CHL1   C24 6644   3.935   4.110   4.464 -0.0932 -0.9850 -0.3401
   74CHL1  H24A 6645   3.850   4.045   4.434  0.6384 -1.0867 -2.2859
   74CHL1  H24B 6646   4.021   4.044   4.489 -0.6225 -1.5033  0.1582
   74CHL1   C25 6647   3.910   4.199   4.583  0.5763  0.6175  0.2082
   74CHL1   H25 6648   3.837   4.281   4.567  0.0156 -0.0815 -0.9525
   74CHL1   C26 6649   3.854   4.117   4.700  0.5022  0.8781  0.2886
   74CHL1  H26A 6650   3.853   4.179   4.792 -1.4786  0.0044  0.9003
   74CHL1  H26B 6651   3.755   4.070   4.680  1.9526 -2.2145 -0.2803
   74CHL1  H26C 6652   3.932   4.042   4.726 -1.2259 -1.3377 -0.6050
   74CHL1   C27 6653   4.043   4.246   4.639 -0.0890  0.2508 -0.4414
   74CHL1  H27A 6654   4.093   4.311   4.564 -3.1316  1.1304 -1.8259
   74CHL1  H27B 6655   4.034   4.302   4.735  0.3806 -1.9637  0.9846
   74CHL1  H27C 6656   4.114   4.162   4.654 -0.5676  0.1159  1.2862
   75CHL1    C3 6657   1.200   3.461   3.593  0.3832 -0.2043  0.4989
   75CHL1    H3 6658   1.279   3.386   3.570  0.7526  0.5950 -0.9516
   75CHL1    O3 6659   1.164   3.540   3.475 -0.4128 -0.0805 -0.0014
   75CHL1   H3' 6660   1.151   3.481   3.401  0.7886 -1.7299  1.0341
   75CHL1    C4 6661   1.073   3.384   3.648  0.0159 -0.2181 -0.0943
   75CHL1   H4A 6662   0.987   3.454   3.654  0.7417  0.5479  4.4810
   75CHL1   H4B 6663   1.043   3.311   3.570  0.1618 -0.1420 -0.2223
   75CHL1    C5 6664   1.092   3.318   3.781 -0.0166 -0.8338 -0.0027
   75CHL1    C6 6665   1.075   3.187   3.802  0.1179 -0.0931  1.1315
   75CHL1    H6 6666   1.051   3.131   3.710 -0.1821 -1.4674  2.0183
   75CHL1    C7 6667   1.090   3.126   3.942  0.5063  0.1043  0.5220
   75CHL1   H7A 6668   0.999   3.065   3.962  0.7271 -1.0930 -1.8060
   75CHL1   H7B 6669   1.175   3.056   3.944  1.0504  0.7737  1.4926
   75CHL1    C8 6670   1.098   3.226   4.056  0.4399 -0.6609 -0.0077
   75CHL1    H8 6671   0.994   3.257   4.079  0.1847 -1.0544 -0.5962
   75CHL1   C14 6672   1.161   3.153   4.177 -0.6140 -0.2032 -0.5256
   75CHL1   H14 6673   1.264   3.132   4.140  0.3497  1.4156  1.0291
   75CHL1   C15 6674   1.117   3.005   4.213  0.6377  0.5441 -0.6468
   75CHL1  H15A 6675   1.007   2.996   4.198  0.7789  1.1663 -2.1348
   75CHL1  H15B 6676   1.161   2.924   4.151 -0.7039 -0.6078 -0.1420
   75CHL1   C16 6677   1.147   3.000   4.360 -0.2725  0.2665  0.5301
   75CHL1  H16A 6678   1.046   3.003   4.407 -0.1821  0.4703  0.7148
   75CHL1  H16B 6679   1.200   2.910   4.397 -0.6053 -1.3159 -2.5368
   75CHL1   C17 6680   1.224   3.132   4.393 -0.5793 -0.2219 -0.0949
   75CHL1   H17 6681   1.329   3.122   4.358 -0.8181  1.4590 -1.4279
   75CHL1   C13 6682   1.169   3.242   4.306 -0.2543 -0.5433  0.9669
   75CHL1   C18 6683   1.024   3.286   4.343  0.5094  0.1915 -0.0285
   75CHL1  H18A 6684   0.957   3.198   4.352 -0.6928  1.0534 -0.2844
   75CHL1  H18B 6685   1.025   3.357   4.428 -0.6585 -1.5247  1.4817
   75CHL1  H18C 6686   0.971   3.346   4.266  0.6104 -1.8537 -1.8070
   75CHL1   C12 6687   1.262   3.364   4.270 -0.2847  0.0707 -0.4487
   75CHL1  H12A 6688   1.270   3.428   4.361  0.6614 -3.9131  2.5133
   75CHL1  H12B 6689   1.356   3.314   4.241 -0.9349 -0.7135 -1.2473
   75CHL1   C11 6690   1.218   3.439   4.142  0.1175  0.1023 -0.1623
   75CHL1  H11A 6691   1.132   3.507   4.160  0.6477  0.7114  0.0954
   75CHL1  H11B 6692   1.303   3.506   4.118 -0.9531  1.4353 -0.3323
   75CHL1    C9 6693   1.188   3.347   4.019 -0.1956 -0.0672 -0.1886
   75CHL1    H9 6694   1.286   3.299   3.995  0.0926 -0.6938  1.9973
   75CHL1   C10 6695   1.149   3.424   3.884  0.0801  0.1950  0.0368
   75CHL1   C19 6696   1.023   3.511   3.919  0.5022 -0.7083 -0.1264
   75CHL1  H19A 6697   0.949   3.457   3.981 -0.9336  0.1355 -1.0643
   75CHL1  H19B 6698   1.062   3.596   3.979 -0.3110 -0.0069 -0.5756
   75CHL1  H19C 6699   0.983   3.563   3.831  0.2018 -0.9873 -0.1554
   75CHL1    C1 6700   1.274   3.504   3.836 -0.4596  0.3523 -0.2968
   75CHL1   H1A 6701   1.300   3.586   3.907  1.0243 -0.0719 -0.3290
   75CHL1   H1B 6702   1.365   3.443   3.822 -1.3684 -0.5098 -3.0101
   75CHL1    C2 6703   1.242   3.564   3.695 -0.0122  0.1678 -0.0028
   75CHL1   H2A 6704   1.331   3.615   3.652 -0.6811  1.9025  0.5832
   75CHL1   H2B 6705   1.154   3.632   3.709  0.9814  1.1688  1.6813
   75CHL1   C20 6706   1.235   3.174   4.543 -0.3845  0.4424 -0.6642
   75CHL1   H20 6707   1.256   3.283   4.549  0.8585  0.1353  3.0059
   75CHL1   C21 6708   1.370   3.107   4.591  0.4776  0.3749  0.5469
   75CHL1  H21A 6709   1.359   2.996   4.602 -1.6359  0.6564  2.0856
   75CHL1  H21B 6710   1.402   3.126   4.696  1.7566 -0.5713  0.3562
   75CHL1  H21C 6711   1.461   3.133   4.535  2.0511 -0.9979  2.3270
   75CHL1   C22 6712   1.109   3.147   4.631  0.0928 -0.1822 -0.4630
   75CHL1  H22A 6713   1.018   3.190   4.584 -0.1030  0.0077  0.0875
   75CHL1  H22B 6714   1.096   3.038   4.652  0.0459 -0.2356 -0.7584
   75CHL1   C23 6715   1.121   3.206   4.773  0.3312 -0.5428 -0.1258
   75CHL1  H23A 6716   1.195   3.159   4.842  1.5381  2.0655  0.4662
   75CHL1  H23B 6717   1.160   3.310   4.766  0.2596 -0.2688  2.6126
   75CHL1   C24 6718   0.981   3.208   4.856 -0.3010  0.3240 -0.0934
   75CHL1  H24A 6719   0.898   3.238   4.789  0.9157 -1.0400 -2.3516
   75CHL1  H24B 6720   0.941   3.108   4.882  1.3486 -1.3720 -3.3657
   75CHL1   C25 6721   0.984   3.306   4.972 -0.2145 -0.7852 -0.2962
   75CHL1   H25 6722   0.986   3.410   4.935  1.4726 -0.8157 -0.3453
   75CHL1   C26 6723   0.840   3.293   5.034 -0.1350  0.4524 -0.2957
   75CHL1  H26A 6724   0.767   3.315   4.952 -1.8936  0.6492  1.2510
   75CHL1  H26B 6725   0.822   3.189   5.069 -0.1317  0.8015  0.7896
   75CHL1  H26C 6726   0.811   3.357   5.120  0.2956 -0.3184  0.4356
   75CHL1   C27 6727   1.091   3.276   5.074  0.1589 -0.3664  0.1166
   75CHL1  H27A 6728   1.058   3.325   5.168 -2.3485 -1.1719 -0.2648
   75CHL1  H27B 6729   1.095   3.168   5.099  0.0739 -0.2844  0.4930
   75CHL1  H27C 6730   1.192   3.309   5.040 -0.8926  1.8143 -1.1077
   76CHL1    C3 6731   3.397   2.175   3.333  0.0720 -0.4505  0.1497
   76CHL1    H3 6732   3.346   2.272   3.348 -1.1167 -0.8778 -0.9372
   76CHL1    O3 6733   3.350   2.115   3.214  0.0937  0.7423  0.1672
   76CHL1   H3' 6734   3.416   2.048   3.192 -1.1658 -0.8295  0.9476
   76CHL1    C4 6735   3.550   2.205   3.316  0.4781 -0.4540  0.3533
   76CHL1   H4A 6736   3.593   2.111   3.275  0.5849  0.0421 -0.7190
   76CHL1   H4B 6737   3.547   2.287   3.241 -2.5193 -0.8759 -0.1195
   76CHL1    C5 6738   3.620   2.251   3.442  0.1766 -0.0390  0.4964
   76CHL1    C6 6739   3.691   2.365   3.449 -0.2722 -0.2063 -0.0408
   76CHL1    H6 6740   3.706   2.427   3.360 -1.5591 -0.5465 -0.5229
   76CHL1    C7 6741   3.764   2.412   3.571 -0.0769 -0.1939 -0.0422
   76CHL1   H7A 6742   3.856   2.467   3.538 -0.9298  2.3071  1.4715
   76CHL1   H7B 6743   3.711   2.501   3.611  1.5358  0.6772  0.2510
   76CHL1    C8 6744   3.779   2.303   3.680 -0.1584 -0.1426  1.7008
   76CHL1    H8 6745   3.853   2.231   3.637 -0.7211  0.0925  0.2974
   76CHL1   C14 6746   3.818   2.351   3.815 -0.5443 -0.2657  0.4086
   76CHL1   H14 6747   3.736   2.423   3.837 -0.9797 -0.0991 -1.5596
   76CHL1   C15 6748   3.947   2.430   3.821 -1.1452 -0.0949  0.1809
   76CHL1  H15A 6749   4.020   2.363   3.771 -1.8511 -1.5401  1.0146
   76CHL1  H15B 6750   3.949   2.532   3.777  0.1718 -0.3461 -0.3828
   76CHL1   C16 6751   3.991   2.434   3.970  0.0209 -0.2528  0.8732
   76CHL1  H16A 6752   4.086   2.381   3.993  0.9581 -0.1213 -2.2182
   76CHL1  H16B 6753   3.995   2.536   4.014  0.0577  0.7751 -1.3644
   76CHL1   C17 6754   3.892   2.344   4.038  0.2083 -0.3279 -0.9640
   76CHL1   H17 6755   3.800   2.401   4.062  1.2433  0.6830  0.8600
   76CHL1   C13 6756   3.825   2.251   3.923  0.1170 -0.1333 -0.0014
   76CHL1   C18 6757   3.924   2.138   3.900 -0.4949  0.0694 -0.1297
   76CHL1  H18A 6758   3.890   2.082   3.810 -2.0261 -2.9055  2.1328
   76CHL1  H18B 6759   4.026   2.182   3.895  1.1030 -3.4281 -1.4017
   76CHL1  H18C 6760   3.916   2.064   3.982 -2.9320 -1.3034 -1.5086
   76CHL1   C12 6761   3.677   2.209   3.947  0.5777  0.6084  0.0029
   76CHL1  H12A 6762   3.673   2.133   4.028  1.1030 -0.6076 -1.0640
   76CHL1  H12B 6763   3.608   2.294   3.959 -2.5306 -1.5576 -1.2415
   76CHL1   C11 6764   3.630   2.144   3.814  0.6478  0.0458  0.8539
   76CHL1  H11A 6765   3.692   2.052   3.806 -1.3499 -1.3243  0.6488
   76CHL1  H11B 6766   3.524   2.113   3.816  0.4168  0.8391  1.2786
   76CHL1    C9 6767   3.640   2.235   3.691 -0.5192  0.0378 -0.0138
   76CHL1    H9 6768   3.565   2.315   3.711 -1.3050 -0.7149  0.0944
   76CHL1   C10 6769   3.595   2.167   3.559  0.8202 -1.0651  0.1356
   76CHL1   C19 6770   3.668   2.030   3.541  0.2100  0.1049 -0.6517
   76CHL1  H19A 6771   3.778   2.047   3.549 -0.0708  2.4879 -1.2504
   76CHL1  H19B 6772   3.647   1.959   3.624  2.7522  1.7403  1.5593
   76CHL1  H19C 6773   3.635   1.988   3.443 -2.3233  1.0483 -0.2664
   76CHL1    C1 6774   3.440   2.149   3.574 -0.6204 -0.5773  0.3206
   76CHL1   H1A 6775   3.417   2.073   3.651  0.9741 -1.0225  0.4073
   76CHL1   H1B 6776   3.397   2.250   3.589  0.2539  0.3316 -2.5053
   76CHL1    C2 6777   3.378   2.089   3.451 -0.5121  0.3618  0.3540
   76CHL1   H2A 6778   3.267   2.087   3.463 -0.6672 -0.0357 -1.0084
   76CHL1   H2B 6779   3.408   1.984   3.433  0.6368  0.3933  1.9150
   76CHL1   C20 6780   3.935   2.281   4.170 -0.2909 -0.5127 -0.5487
   76CHL1   H20 6781   4.022   2.213   4.156  0.7260  0.5435  0.3878
   76CHL1   C21 6782   3.816   2.194   4.232  0.1146  0.3692  0.1217
   76CHL1  H21A 6783   3.807   2.101   4.171  1.1493  0.0826  0.3727
   76CHL1  H21B 6784   3.720   2.249   4.233 -0.3058 -0.3450 -0.0336
   76CHL1  H21C 6785   3.835   2.145   4.330  0.4733 -1.0085 -0.6100
   76CHL1   C22 6786   3.979   2.383   4.273  0.2178  0.2055 -0.5798
   76CHL1  H22A 6787   3.939   2.486   4.260 -0.5001  0.1549  0.9692
   76CHL1  H22B 6788   3.931   2.346   4.366  0.3487  0.4573 -0.4108
   76CHL1   C23 6789   4.125   2.402   4.297 -0.0248 -0.2984 -0.8269
   76CHL1  H23A 6790   4.177   2.308   4.327 -0.4659 -0.6473 -1.1328
   76CHL1  H23B 6791   4.176   2.434   4.204 -0.5075 -0.2653 -1.0873
   76CHL1   C24 6792   4.157   2.509   4.402  0.2061  0.4787  0.4159
   76CHL1  H24A 6793   4.114   2.608   4.376 -1.0298  0.2748  1.5541
   76CHL1  H24B 6794   4.112   2.495   4.503 -0.1493  3.2005  0.6984
   76CHL1   C25 6795   4.305   2.549   4.407 -0.4147  0.1317 -0.1135
   76CHL1   H25 6796   4.351   2.535   4.307 -0.1278  1.9820 -0.2677
   76CHL1   C26 6797   4.331   2.696   4.444  0.6952  0.2957  0.2240
   76CHL1  H26A 6798   4.438   2.713   4.464  0.7080 -0.1755  0.5730
   76CHL1  H26B 6799   4.301   2.756   4.355 -1.8316  0.8178  1.3266
   76CHL1  H26C 6800   4.272   2.722   4.535  0.1153 -0.9246  0.2144
   76CHL1   C27 6801   4.372   2.455   4.514  0.8011  0.1495  0.0068
   76CHL1  H27A 6802   4.380   2.351   4.474  2.0295  0.5706 -0.9014
   76CHL1  H27B 6803   4.471   2.502   4.530  0.6766  0.6666 -0.6996
   76CHL1  H27C 6804   4.319   2.453   4.612 -0.7406 -2.2685 -0.7866
   77SOPE     N 6805   5.412   6.625   7.342  0.0045 -0.0280 -0.1201
   77SOPE   HN1 6806   5.410   6.668   7.437  0.3751  0.6736 -0.4183
   77SOPE   HN2 6807   5.509   6.626   7.303 -0.1424  0.1050 -0.4856
   77SOPE   HN3 6808   5.355   6.674   7.270  1.3984  0.9387 -0.6247
   77SOPE   C12 6809   5.374   6.483   7.360  0.5851 -0.7043  0.5674
   77SOPE  H12A 6810   5.357   6.434   7.262 -0.0726 -1.6214  1.1338
   77SOPE  H12B 6811   5.275   6.475   7.410  0.8504 -3.2783  0.8177
   77SOPE   C11 6812   5.474   6.400   7.443  0.6352 -0.3070  0.2051
   77SOPE  H11A 6813   5.465   6.290   7.433 -0.2335 -0.1504 -0.9902
   77SOPE  H11B 6814   5.459   6.421   7.551  1.3363 -2.7264  0.8295
   77SOPE     P 6815   5.715   6.351   7.337  0.3494 -0.0588 -0.0004
   77SOPE   O13 6816   5.699   6.215   7.375  0.4058 -0.1353 -0.0452
   77SOPE   O14 6817   5.849   6.411   7.355  0.0904  0.3660 -0.1139
   77SOPE   O12 6818   5.609   6.440   7.408 -0.4486 -0.2097 -0.3499
   77SOPE   O11 6819   5.677   6.373   7.188  0.3931  0.5640 -0.2691
   77SOPE    C1 6820   5.749   6.462   7.101  0.0857 -0.8287 -0.4087
   77SOPE    HA 6821   5.830   6.408   7.048 -1.5386 -2.1495 -1.6918
   77SOPE    HB 6822   5.787   6.547   7.161 -0.0802 -2.8714  2.8335
   77SOPE    C2 6823   5.669   6.525   6.991  0.0632 -0.1867  0.1675
   77SOPE    HS 6824   5.583   6.586   7.026  1.1015 -0.4183  3.4644
   77SOPE   O21 6825   5.626   6.407   6.917 -0.9827  0.2168 -0.1413
   77SOPE   C21 6826   5.545   6.434   6.818  0.3286 -0.1333 -0.1168
   77SOPE   O22 6827   5.523   6.548   6.782  0.5694  0.0702 -0.4655
   77SOPE   C22 6828   5.499   6.311   6.739  0.2764 -0.5718 -0.0493
   77SOPE   H2R 6829   5.420   6.257   6.796  0.0347  0.5707  0.7225
   77SOPE   H2S 6830   5.582   6.240   6.718  0.1063 -0.4895 -1.0483
   77SOPE    C3 6831   5.767   6.620   6.915 -0.4020  0.1783 -0.7490
   77SOPE    HX 6832   5.779   6.700   6.991 -0.3287 -0.3003 -0.2549
   77SOPE    HY 6833   5.706   6.655   6.829  0.1080  0.7108 -0.8944
   77SOPE   O31 6834   5.884   6.545   6.872 -0.1701  0.2729  0.1043
   77SOPE   C31 6835   5.983   6.625   6.842  0.9031 -0.1553  0.8406
   77SOPE   O32 6836   5.987   6.747   6.856  0.3549  0.2720  0.6418
   77SOPE   C32 6837   6.097   6.529   6.801 -0.0894 -0.7860 -0.1367
   77SOPE   H2X 6838   6.061   6.454   6.728 -0.3996  0.3888 -1.2295
   77SOPE   H2Y 6839   6.129   6.490   6.900 -0.3024  0.4747  0.4526
   77SOPE   C23 6840   5.435   6.359   6.604 -0.6613 -0.3188 -0.5163
   77SOPE   H3R 6841   5.514   6.405   6.542  0.6859 -1.0801  0.5545
   77SOPE   H3S 6842   5.362   6.440   6.626  0.3701  0.0755  1.8066
   77SOPE   C24 6843   5.358   6.258   6.523  0.4870 -0.2192  0.3975
   77SOPE   H4R 6844   5.422   6.175   6.487 -0.3025 -0.7009  0.0788
   77SOPE   H4S 6845   5.275   6.209   6.577 -0.4443 -0.7137 -1.4146
   77SOPE   C25 6846   5.297   6.320   6.394 -0.0990 -0.6680 -0.0055
   77SOPE   H5R 6847   5.213   6.388   6.421 -0.9357 -0.9760 -1.7308
   77SOPE   H5S 6848   5.372   6.384   6.343  0.8804  1.5897  3.8444
   77SOPE   C26 6849   5.239   6.211   6.303 -0.0899  0.9571  0.6821
   77SOPE   H6R 6850   5.315   6.133   6.288 -0.5593  0.7786 -0.9082
   77SOPE   H6S 6851   5.150   6.172   6.357 -0.6954  2.4668  0.8383
   77SOPE   C27 6852   5.200   6.263   6.163 -0.3381  0.0167 -0.3827
   77SOPE   H7R 6853   5.123   6.343   6.160  0.7316  1.1171  0.4966
   77SOPE   H7S 6854   5.286   6.310   6.112 -0.7083  1.2769  0.1064
   77SOPE   C28 6855   5.160   6.152   6.066  0.1203 -0.1759 -0.3622
   77SOPE   H8R 6856   5.069   6.099   6.102  0.4298  1.5250  3.4929
   77SOPE   H8S 6857   5.126   6.202   5.973 -0.1199  0.3114 -0.0172
   77SOPE   C29 6858   5.270   6.058   6.019  0.1223  0.3370 -0.1181
   77SOPE   H91 6859   5.332   6.017   6.100 -0.7216  0.2730  0.5105
   77SOPE  C210 6860   5.313   6.043   5.891  0.2942 -0.5374 -0.2119
   77SOPE  H101 6861   5.409   5.990   5.880  0.6652  0.4978 -2.4786
   77SOPE  C211 6862   5.250   6.093   5.761 -0.1079 -0.0099 -0.3787
   77SOPE  H11R 6863   5.321   6.068   5.680  1.0926 -1.7187  1.1247
   77SOPE  H11S 6864   5.222   6.200   5.750 -2.1783 -0.2414  1.7288
   77SOPE  C212 6865   5.109   6.023   5.737 -0.0737 -0.7104 -0.0749
   77SOPE  H12R 6866   5.063   6.066   5.645  3.3311  1.0272 -1.1126
   77SOPE  H12S 6867   5.037   6.045   5.819 -3.9455 -0.0844 -3.3017
   77SOPE  C213 6868   5.125   5.875   5.691  0.0099 -0.8369 -0.2155
   77SOPE  H13R 6869   5.194   5.832   5.767 -0.1248  0.7812  0.8728
   77SOPE  H13S 6870   5.171   5.865   5.590 -2.1073 -1.3739 -1.1687
   77SOPE  C214 6871   4.993   5.807   5.691  0.3549  0.3349 -0.4335
   77SOPE  H14R 6872   4.944   5.820   5.789  2.2956  1.0390  0.5069
   77SOPE  H14S 6873   4.990   5.697   5.671 -0.8482  0.0527  1.0784
   77SOPE  C215 6874   4.887   5.873   5.597  0.2947  0.4643 -0.4877
   77SOPE  H15R 6875   4.854   5.974   5.628 -0.2700  0.5094 -1.2033
   77SOPE  H15S 6876   4.792   5.815   5.595  2.1291 -2.7985 -0.6736
   77SOPE  C216 6877   4.926   5.881   5.449 -0.1595  0.3803 -0.6274
   77SOPE  H16R 6878   5.007   5.954   5.428  0.1832 -0.6895 -3.4611
   77SOPE  H16S 6879   4.835   5.911   5.392 -1.9473 -2.5763  0.4213
   77SOPE  C217 6880   4.965   5.735   5.400 -0.2531 -0.7660  0.6006
   77SOPE  H17R 6881   5.053   5.698   5.457 -0.8854  1.1398  2.9783
   77SOPE  H17S 6882   4.991   5.742   5.292  0.4312 -4.0744  0.4453
   77SOPE  C218 6883   4.857   5.624   5.407 -0.6771  0.1379  0.1854
   77SOPE  H18R 6884   4.896   5.528   5.366 -1.8371 -0.4736  0.4961
   77SOPE  H18S 6885   4.769   5.657   5.348 -2.1133 -0.5391  1.8760
   77SOPE  H18T 6886   4.827   5.610   5.513 -1.5832 -0.5705 -0.1490
   77SOPE   C33 6887   6.228   6.603   6.759 -0.3393  0.5404  0.2587
   77SOPE   H3X 6888   6.292   6.512   6.769 -0.6021  0.3941  0.6155
   77SOPE   H3Y 6889   6.256   6.684   6.830  0.8102 -0.6559  1.2274
   77SOPE   C34 6890   6.240   6.659   6.615  0.0454 -0.2841  0.0170
   77SOPE   H4X 6891   6.335   6.716   6.617 -0.5825  0.8429 -1.2330
   77SOPE   H4Y 6892   6.160   6.729   6.583 -0.9202 -1.3285  0.0760
   77SOPE   C35 6893   6.243   6.556   6.499 -0.2634  0.5583  0.0514
   77SOPE   H5X 6894   6.155   6.489   6.509  0.9167 -0.7333  4.0564
   77SOPE   H5Y 6895   6.327   6.487   6.523 -2.1630 -2.0548 -0.4775
   77SOPE   C36 6896   6.262   6.614   6.362  0.0760  0.2709  0.2390
   77SOPE   H6X 6897   6.344   6.688   6.371 -1.8609  2.4498  1.0326
   77SOPE   H6Y 6898   6.171   6.678   6.351  0.6306  0.8093 -1.6520
   77SOPE   C37 6899   6.271   6.506   6.247  0.2517  0.5715  0.4180
   77SOPE   H7X 6900   6.241   6.403   6.275  3.0653 -1.1384 -2.2188
   77SOPE   H7Y 6901   6.381   6.497   6.234 -0.0665 -2.7262 -0.8901
   77SOPE   C38 6902   6.194   6.531   6.113 -0.3696 -0.4249  0.0375
   77SOPE   H8X 6903   6.217   6.631   6.069 -0.2132 -0.6864 -0.4841
   77SOPE   H8Y 6904   6.087   6.532   6.141 -0.3062 -1.6588  0.3777
   77SOPE   C39 6905   6.238   6.424   6.009  0.7014 -0.2515 -0.5881
   77SOPE   H9X 6906   6.184   6.328   6.024  0.1615  0.2970  1.1736
   77SOPE   H9Y 6907   6.345   6.396   6.018  0.1051 -1.8601  3.1573
   77SOPE  C310 6908   6.216   6.472   5.867 -0.2693  0.7783  1.2721
   77SOPE  H10X 6909   6.275   6.561   5.838  0.4363 -0.5228 -1.7023
   77SOPE  H10Y 6910   6.108   6.484   5.842 -0.0409  0.3688  0.0035
   77SOPE  C311 6911   6.266   6.370   5.766  0.3527  0.2694  0.4808
   77SOPE  H11X 6912   6.218   6.271   5.781 -0.5131  0.9457  2.6197
   77SOPE  H11Y 6913   6.371   6.340   5.787  0.0930 -0.6958  0.4668
   77SOPE  C312 6914   6.247   6.405   5.617  0.0974  0.3259 -0.6033
   77SOPE  H12X 6915   6.298   6.325   5.558  1.1333  0.3294  0.2556
   77SOPE  H12Y 6916   6.309   6.495   5.597  1.9374 -0.5691  0.7657
   77SOPE  C313 6917   6.101   6.417   5.565 -0.3143 -0.1093 -0.6453
   77SOPE  H13X 6918   6.057   6.507   5.614  0.8167  0.5770 -0.8532
   77SOPE  H13Y 6919   6.046   6.326   5.596  1.6116 -0.7402  1.1116
   77SOPE  C314 6920   6.079   6.432   5.416  0.7233  0.2859  0.3524
   77SOPE  H14X 6921   6.123   6.528   5.383 -0.3044  0.6257 -0.0854
   77SOPE  H14Y 6922   5.970   6.420   5.395  1.2200 -2.3458 -1.2053
   77SOPE  C315 6923   6.138   6.316   5.339 -0.4432 -0.4125 -0.4001
   77SOPE  H15X 6924   6.103   6.218   5.380  0.4193  0.3845  2.4694
   77SOPE  H15Y 6925   6.249   6.320   5.348 -0.1553 -1.4056 -2.8228
   77SOPE  C316 6926   6.112   6.323   5.188 -0.2568 -1.1732 -0.0220
   77SOPE  H16X 6927   6.159   6.421   5.164  2.4887 -3.0072 -2.8673
   77SOPE  H16Y 6928   6.004   6.339   5.165  0.0377  1.1996 -0.0440
   77SOPE  C317 6929   6.190   6.225   5.107  0.0553 -0.4263 -0.0424
   77SOPE  H17X 6930   6.142   6.125   5.116  0.5844 -0.5832  1.2430
   77SOPE  H17Y 6931   6.295   6.224   5.143  0.1248  1.4300 -0.1006
   77SOPE  C318 6932   6.198   6.270   4.958  0.3072  0.0583  0.4249
   77SOPE  H18X 6933   6.102   6.283   4.902  1.1281  3.0704 -0.4302
   77SOPE  H18Y 6934   6.263   6.194   4.909  0.7548  1.0668 -0.6048
   77SOPE  H18Z 6935   6.242   6.369   4.937  2.6796 -1.2706 -1.4637
   78SOPE     N 6936   4.406   6.060   7.514  0.2317  0.7315 -0.1173
   78SOPE   HN1 6937   4.490   6.002   7.531 -0.4350 -0.6191 -1.1675
   78SOPE   HN2 6938   4.331   6.011   7.567 -0.6733  1.6970 -0.4679
   78SOPE   HN3 6939   4.371   6.036   7.418 -3.2086  1.8904  0.7003
   78SOPE   C12 6940   4.427   6.202   7.553 -0.1680  0.4118  0.3216
   78SOPE  H12A 6941   4.460   6.200   7.659  0.0015  1.1558  0.2900
   78SOPE  H12B 6942   4.335   6.264   7.547  0.3923  1.1866 -0.6175
   78SOPE   C11 6943   4.533   6.269   7.465  0.0111 -0.4298  0.1214
   78SOPE  H11A 6944   4.628   6.217   7.489 -0.8211 -0.2706  4.8675
   78SOPE  H11B 6945   4.544   6.370   7.509 -1.3625 -0.2427  0.1035
   78SOPE     P 6946   4.583   6.350   7.227 -0.6067 -0.0962 -0.5201
   78SOPE   O13 6947   4.729   6.302   7.236  0.5987 -0.6063 -0.1561
   78SOPE   O14 6948   4.569   6.495   7.258 -0.5027  0.2642  0.2809
   78SOPE   O12 6949   4.491   6.270   7.328 -0.3231  0.0717  0.1983
   78SOPE   O11 6950   4.524   6.314   7.083  0.1753  0.1732  0.1251
   78SOPE    C1 6951   4.467   6.195   7.036 -0.7316  0.3654 -0.3700
   78SOPE    HA 6952   4.396   6.219   6.954  0.1345  1.2804 -0.8805
   78SOPE    HB 6953   4.402   6.148   7.113 -1.0555  2.2558  0.5595
   78SOPE    C2 6954   4.571   6.082   6.990 -0.5870 -0.0088 -0.2406
   78SOPE    HS 6955   4.620   6.035   7.079  0.4842 -1.4308 -1.5215
   78SOPE   O21 6956   4.664   6.151   6.912 -0.1362  0.6645 -0.0298
   78SOPE   C21 6957   4.764   6.076   6.873  0.1051  0.2198  0.6301
   78SOPE   O22 6958   4.797   5.968   6.908  0.7125 -0.4900 -0.0399
   78SOPE   C22 6959   4.832   6.151   6.741 -0.3364  0.1358 -0.4341
   78SOPE   H2R 6960   4.909   6.208   6.798 -2.1595  0.9546  1.3528
   78SOPE   H2S 6961   4.749   6.216   6.707 -0.3521  0.0461 -0.5650
   78SOPE    C3 6962   4.494   5.970   6.911 -0.1574 -0.1071  0.2561
   78SOPE    HX 6963   4.430   5.916   6.984  1.0334 -0.7946  0.8029
   78SOPE    HY 6964   4.561   5.892   6.870  0.5477  1.2425 -1.2584
   78SOPE   O31 6965   4.433   6.027   6.792  0.1792 -0.1585 -0.2806
   78SOPE   C31 6966   4.355   5.952   6.719 -0.3496 -0.7452 -0.1310
   78SOPE   O32 6967   4.346   5.837   6.728  0.2622 -0.0690  0.9486
   78SOPE   C32 6968   4.285   6.039   6.614  1.0746 -0.3680  0.0446
   78SOPE   H2X 6969   4.341   6.133   6.594 -0.1771  0.3037 -0.4180
   78SOPE   H2Y 6970   4.192   6.072   6.665  0.2627  1.4411 -2.3970
   78SOPE   C23 6971   4.881   6.052   6.634  0.1719 -0.0726  0.1360
   78SOPE   H3R 6972   4.935   5.972   6.689 -3.0306 -2.7247 -0.2707
   78SOPE   H3S 6973   4.949   6.113   6.571 -0.2016  2.0735  1.6793
   78SOPE   C24 6974   4.773   5.987   6.552 -0.4829  0.3871  0.2840
   78SOPE   H4R 6975   4.824   5.914   6.486  0.3074  0.5101  0.7479
   78SOPE   H4S 6976   4.702   5.938   6.622 -0.9694  2.9521  1.7376
   78SOPE   C25 6977   4.675   6.078   6.466 -0.6909  0.3043 -0.6608
   78SOPE   H5R 6978   4.614   6.007   6.406 -0.3756 -0.2376 -0.3507
   78SOPE   H5S 6979   4.615   6.136   6.539  1.4280  0.2482  1.2469
   78SOPE   C26 6980   4.751   6.165   6.366  0.9894 -0.4411 -0.6629
   78SOPE   H6R 6981   4.813   6.240   6.419  1.7842  0.2298 -2.4544
   78SOPE   H6S 6982   4.806   6.101   6.294  1.5498 -2.0042  1.0515
   78SOPE   C27 6983   4.642   6.248   6.284  0.2932 -0.5446 -0.9735
   78SOPE   H7R 6984   4.575   6.170   6.242  1.7517 -1.7241 -1.1969
   78SOPE   H7S 6985   4.570   6.299   6.351 -0.1591 -1.9402 -0.3706
   78SOPE   C28 6986   4.700   6.343   6.175  0.2957  0.1807 -0.0326
   78SOPE   H8R 6987   4.623   6.387   6.108 -0.4896 -1.0004  0.0762
   78SOPE   H8S 6988   4.743   6.429   6.231  0.0658  0.5335 -0.3871
   78SOPE   C29 6989   4.806   6.272   6.097 -0.0396  0.4587  0.1933
   78SOPE   H91 6990   4.896   6.254   6.157 -0.7842 -1.0482  0.9207
   78SOPE  C210 6991   4.788   6.220   5.971 -0.6065  0.4279 -0.2769
   78SOPE  H101 6992   4.868   6.155   5.932 -0.0662 -1.0000  2.8485
   78SOPE  C211 6993   4.671   6.240   5.883  0.6497 -0.6670  0.2855
   78SOPE  H11R 6994   4.634   6.344   5.868 -2.5340 -2.0718 -2.8076
   78SOPE  H11S 6995   4.579   6.187   5.914  0.4955  0.0335  1.0652
   78SOPE  C212 6996   4.702   6.177   5.749 -0.7704  0.7325  0.2950
   78SOPE  H12R 6997   4.708   6.066   5.754  1.8412  0.7971 -0.1360
   78SOPE  H12S 6998   4.804   6.203   5.714 -0.9432  1.0108 -0.0027
   78SOPE  C213 6999   4.598   6.217   5.636 -0.3322 -0.0522  0.0973
   78SOPE  H13R 7000   4.581   6.327   5.643  0.2676  0.2230 -1.9839
   78SOPE  H13S 7001   4.501   6.166   5.653 -1.5764  1.4013 -2.0775
   78SOPE  C214 7002   4.644   6.183   5.497  0.4856 -0.3164  0.4967
   78SOPE  H14R 7003   4.670   6.075   5.495  0.6886 -0.2737  0.7411
   78SOPE  H14S 7004   4.730   6.247   5.468 -1.5012  2.1214 -0.4016
   78SOPE  C215 7005   4.522   6.203   5.404  0.3291 -0.1563 -0.2138
   78SOPE  H15R 7006   4.510   6.313   5.399  2.9869  0.1507 -1.0957
   78SOPE  H15S 7007   4.426   6.174   5.452  0.0719  0.7399 -0.1722
   78SOPE  C216 7008   4.545   6.148   5.265 -0.3725  0.5562 -0.8706
   78SOPE  H16R 7009   4.529   6.038   5.275  0.3401  0.5331  0.0807
   78SOPE  H16S 7010   4.653   6.163   5.244 -0.1877  1.8394  0.8159
   78SOPE  C217 7011   4.461   6.209   5.154 -0.1595 -0.1125 -0.4195
   78SOPE  H17R 7012   4.383   6.268   5.207  0.0385 -0.7843  0.6517
   78SOPE  H17S 7013   4.410   6.138   5.086 -0.7789  2.3856 -2.7145
   78SOPE  C218 7014   4.549   6.304   5.069 -0.2379 -0.6887 -0.3058
   78SOPE  H18R 7015   4.618   6.245   5.005 -2.0116 -1.9297 -1.1345
   78SOPE  H18S 7016   4.611   6.372   5.132 -1.2973  2.6923 -2.6206
   78SOPE  H18T 7017   4.488   6.359   4.994  1.6879 -0.1054 -1.5227
   78SOPE   C33 7018   4.231   5.965   6.485 -0.6292 -0.0025 -0.3415
   78SOPE   H3X 7019   4.153   5.890   6.508 -1.2023 -0.9071 -4.3984
   78SOPE   H3Y 7020   4.316   5.907   6.443 -0.7272 -2.5346  2.6186
   78SOPE   C34 7021   4.180   6.066   6.382 -0.3262  0.2285 -0.3286
   78SOPE   H4X 7022   4.264   6.132   6.352 -1.0571  1.5161  0.4083
   78SOPE   H4Y 7023   4.103   6.134   6.425  0.2805  1.0851 -0.5732
   78SOPE   C35 7024   4.113   5.999   6.258  0.3405  0.0615  0.4140
   78SOPE   H5X 7025   4.071   6.079   6.193 -1.0794 -1.0137 -0.0471
   78SOPE   H5Y 7026   4.023   5.948   6.298 -0.0476 -0.5811 -1.2008
   78SOPE   C36 7027   4.205   5.904   6.176  0.2764  0.4975  0.0625
   78SOPE   H6X 7028   4.138   5.844   6.111 -1.9237  1.5330  1.2552
   78SOPE   H6Y 7029   4.252   5.834   6.250 -2.1389 -1.2594  0.0554
   78SOPE   C37 7030   4.314   5.976   6.103 -0.8333 -0.1249 -0.1964
   78SOPE   H7X 7031   4.379   5.895   6.063 -0.8277 -0.9519  1.4015
   78SOPE   H7Y 7032   4.382   6.026   6.175 -2.1438  0.1347  0.9008
   78SOPE   C38 7033   4.280   6.088   6.003  0.4044 -0.1901 -0.9233
   78SOPE   H8X 7034   4.368   6.124   5.946  0.1481  3.0230  0.5142
   78SOPE   H8Y 7035   4.237   6.175   6.057  2.8037  0.8751 -0.6290
   78SOPE   C39 7036   4.185   6.056   5.891 -0.3876  0.3955 -0.4406
   78SOPE   H9X 7037   4.103   5.992   5.930 -1.2770  1.8016  0.0949
   78SOPE   H9Y 7038   4.235   5.986   5.821 -1.4288 -0.6028 -0.2097
   78SOPE  C310 7039   4.138   6.164   5.803  0.3609  0.4010 -0.6377
   78SOPE  H10X 7040   4.219   6.212   5.743  0.7707 -1.5061 -1.6976
   78SOPE  H10Y 7041   4.082   6.230   5.872  0.2602  0.1586 -0.4871
   78SOPE  C311 7042   4.039   6.128   5.699 -0.2335 -0.1548 -0.5939
   78SOPE  H11X 7043   3.944   6.082   5.735  0.4885 -3.3103 -2.2800
   78SOPE  H11Y 7044   4.078   6.046   5.635  0.1593 -0.2382 -0.2480
   78SOPE  C312 7045   3.995   6.250   5.609 -0.3205  0.2365  0.1536
   78SOPE  H12X 7046   3.979   6.339   5.674  1.5233  1.1438 -0.5533
   78SOPE  H12Y 7047   3.898   6.224   5.562 -0.3015 -3.3731  1.7873
   78SOPE  C313 7048   4.105   6.281   5.499  1.0273  1.0367 -0.1003
   78SOPE  H13X 7049   4.189   6.321   5.560  0.0851  1.4696  0.9331
   78SOPE  H13Y 7050   4.079   6.368   5.435 -0.5224  1.1785  0.6770
   78SOPE  C314 7051   4.143   6.170   5.406  0.2008 -0.7883  0.1918
   78SOPE  H14X 7052   4.189   6.084   5.459  0.4526  0.5152  2.2240
   78SOPE  H14Y 7053   4.214   6.204   5.327  1.5913 -0.8572  1.3619
   78SOPE  C315 7054   4.027   6.106   5.318 -0.4017  0.1548 -0.4365
   78SOPE  H15X 7055   3.975   6.174   5.247  1.0888  1.6030 -0.1958
   78SOPE  H15Y 7056   3.950   6.071   5.390 -0.0489  1.6599  0.7194
   78SOPE  C316 7057   4.078   5.977   5.236 -0.0259  0.4717  0.4098
   78SOPE  H16X 7058   4.122   5.910   5.313 -0.2885 -0.9728 -0.6461
   78SOPE  H16Y 7059   4.162   6.004   5.168  1.3132 -1.9557  0.9588
   78SOPE  C317 7060   3.984   5.900   5.142 -0.0353  0.3984  0.3867
   78SOPE  H17X 7061   4.034   5.812   5.096 -0.3594  0.0184  0.7461
   78SOPE  H17Y 7062   3.956   5.965   5.057  0.3308 -0.8818 -0.7628
   78SOPE  C318 7063   3.863   5.847   5.218  0.8246  0.0231  0.1660
   78SOPE  H18X 7064   3.896   5.785   5.304 -0.5647 -0.2873  0.4929
   78SOPE  H18Y 7065   3.793   5.794   5.150 -2.3879  1.5116  2.0536
   78SOPE  H18Z 7066   3.797   5.931   5.247  0.8449  1.0194 -2.4011
   79SOPE     N 7067   4.298   4.057   7.224 -0.1812 -0.4257  0.0856
   79SOPE   HN1 7068   4.377   3.999   7.190  0.4534 -0.1591  1.0805
   79SOPE   HN2 7069   4.252   4.118   7.154  0.1801  1.7503  1.6498
   79SOPE   HN3 7070   4.327   4.122   7.300 -3.6770 -0.1483  1.3697
   79SOPE   C12 7071   4.203   3.975   7.303  0.2914 -0.3822 -0.4259
   79SOPE  H12A 7072   4.258   3.933   7.389 -1.1921 -2.4254 -0.3865
   79SOPE  H12B 7073   4.175   3.889   7.238 -1.3916 -1.8020  2.0088
   79SOPE   C11 7074   4.077   4.052   7.343 -0.2584 -0.2257 -0.3853
   79SOPE  H11A 7075   4.007   3.973   7.378  0.8393 -1.0304  0.0359
   79SOPE  H11B 7076   4.038   4.096   7.249 -0.4210 -1.3656 -0.8722
   79SOPE     P 7077   3.968   4.232   7.508 -0.4595 -0.0478 -0.1781
   79SOPE   O13 7078   4.005   4.322   7.619 -0.3600  0.0913 -0.3738
   79SOPE   O14 7079   3.856   4.143   7.540  0.4220  0.1693  0.2013
   79SOPE   O12 7080   4.098   4.148   7.448  0.2764 -0.4062 -0.4912
   79SOPE   O11 7081   3.922   4.318   7.385  0.2096  0.0810 -0.3984
   79SOPE    C1 7082   4.006   4.416   7.328  0.2960 -0.9779 -0.1132
   79SOPE    HA 7083   4.086   4.376   7.263  0.4000 -4.1462  1.7826
   79SOPE    HB 7084   4.061   4.467   7.410  1.1371 -3.1469  0.7427
   79SOPE    C2 7085   3.921   4.513   7.230 -0.7327  0.1028 -0.4594
   79SOPE    HS 7086   3.848   4.570   7.292 -1.6215 -0.7026 -0.7419
   79SOPE   O21 7087   3.857   4.439   7.127 -0.2968 -0.1030  0.1417
   79SOPE   C21 7088   3.753   4.491   7.073 -0.1993  0.5134 -0.1912
   79SOPE   O22 7089   3.690   4.590   7.109 -0.0549  0.1951 -0.3752
   79SOPE   C22 7090   3.716   4.404   6.947  0.7016  0.0579 -0.0989
   79SOPE   H2R 7091   3.801   4.335   6.932  1.1403  0.3476  0.9766
   79SOPE   H2S 7092   3.717   4.476   6.863  2.7327  0.4196  0.1877
   79SOPE    C3 7093   4.015   4.627   7.173 -0.3437  1.0267 -0.2593
   79SOPE    HX 7094   4.091   4.571   7.114  0.4102 -1.5705  2.8628
   79SOPE    HY 7095   4.084   4.669   7.250 -0.7863  1.6905 -0.2195
   79SOPE   O31 7096   3.950   4.737   7.120 -0.3412  0.0414  0.3044
   79SOPE   C31 7097   3.983   4.763   6.992  0.5626 -0.1944 -0.0056
   79SOPE   O32 7098   4.063   4.703   6.925 -0.1299  0.3536  0.3580
   79SOPE   C32 7099   3.912   4.892   6.947 -0.1166 -0.1702 -0.2229
   79SOPE   H2X 7100   3.938   4.979   7.012 -2.1997  0.7826 -0.5701
   79SOPE   H2Y 7101   3.804   4.874   6.962 -0.5789  2.6321  0.4668
   79SOPE   C23 7102   3.577   4.332   6.952 -0.1859  0.1829  0.2005
   79SOPE   H3R 7103   3.502   4.400   6.997 -0.8460 -1.1208  1.1626
   79SOPE   H3S 7104   3.583   4.241   7.015 -0.8211  0.4010  0.5910
   79SOPE   C24 7105   3.528   4.295   6.814  0.5512 -0.6376  0.3865
   79SOPE   H4R 7106   3.427   4.251   6.827  0.2958 -0.6978 -1.4819
   79SOPE   H4S 7107   3.507   4.384   6.752  0.5630 -0.5451  0.5163
   79SOPE   C25 7108   3.627   4.204   6.741  0.3349  0.6932  0.1064
   79SOPE   H5R 7109   3.703   4.264   6.687 -1.3027  1.0202 -1.9433
   79SOPE   H5S 7110   3.663   4.134   6.820  0.0003  0.3548 -0.0360
   79SOPE   C26 7111   3.563   4.126   6.630  0.4189 -0.5299 -0.5560
   79SOPE   H6R 7112   3.649   4.093   6.568  0.3475  0.6120 -1.2771
   79SOPE   H6S 7113   3.503   4.045   6.678  1.0597 -1.7272 -1.7128
   79SOPE   C27 7114   3.475   4.201   6.534  0.2877  0.2232  0.3303
   79SOPE   H7R 7115   3.397   4.260   6.588  0.7173 -0.2842  1.5225
   79SOPE   H7S 7116   3.535   4.264   6.464 -0.4751  0.8135  0.1887
   79SOPE   C28 7117   3.401   4.097   6.434 -0.6017 -0.1456  0.3036
   79SOPE   H8R 7118   3.480   4.036   6.384  0.0011  1.1793 -0.4238
   79SOPE   H8S 7119   3.330   4.032   6.490  0.3406  1.0809  3.0728
   79SOPE   C29 7120   3.327   4.172   6.325 -0.4803  1.1361  0.1297
   79SOPE   H91 7121   3.228   4.211   6.353 -0.9997  0.3443 -0.5643
   79SOPE  C210 7122   3.355   4.159   6.195 -0.2016 -0.5933 -0.1091
   79SOPE  H101 7123   3.287   4.210   6.125  1.1824  1.0040 -0.3506
   79SOPE  C211 7124   3.476   4.085   6.134  0.0911 -0.8704 -0.1242
   79SOPE  H11R 7125   3.460   3.977   6.153  2.5850 -1.2278  0.2821
   79SOPE  H11S 7126   3.569   4.108   6.191  0.8373 -0.7285 -1.3635
   79SOPE  C212 7127   3.501   4.111   5.984  0.0597  0.3618  0.2352
   79SOPE  H12R 7128   3.416   4.060   5.934 -0.1567  0.0267  0.9288
   79SOPE  H12S 7129   3.594   4.062   5.947 -0.1872 -0.1034  0.2244
   79SOPE  C213 7130   3.511   4.259   5.938  0.0163 -0.4730  0.4277
   79SOPE  H13R 7131   3.597   4.307   5.989  0.4799  1.8474 -2.2847
   79SOPE  H13S 7132   3.422   4.309   5.982 -0.2298 -1.0429  0.5867
   79SOPE  C214 7133   3.527   4.270   5.780  0.3383 -0.7886 -0.4810
   79SOPE  H14R 7134   3.440   4.221   5.731 -0.5620  1.4334 -1.2278
   79SOPE  H14S 7135   3.620   4.211   5.767  1.6270  1.0587 -0.0408
   79SOPE  C215 7136   3.549   4.418   5.730  0.2528  0.1265 -0.4856
   79SOPE  H15R 7137   3.616   4.471   5.801  0.7212 -0.3505 -0.5605
   79SOPE  H15S 7138   3.449   4.466   5.723  0.2160 -0.0588 -1.2494
   79SOPE  C216 7139   3.603   4.416   5.582 -0.3410 -0.2188  0.6726
   79SOPE  H16R 7140   3.699   4.361   5.589  0.5840  1.4484  1.8744
   79SOPE  H16S 7141   3.623   4.523   5.558  2.8775 -1.5060 -3.6739
   79SOPE  C217 7142   3.511   4.355   5.480  0.1954  0.5513 -0.0068
   79SOPE  H17R 7143   3.424   4.424   5.471 -0.1708  0.0252 -0.6166
   79SOPE  H17S 7144   3.476   4.252   5.504  2.9109 -0.6700 -0.9191
   79SOPE  C218 7145   3.572   4.335   5.338  0.0385  0.4381 -0.2382
   79SOPE  H18R 7146   3.603   4.437   5.307 -0.2580  1.0910  1.4735
   79SOPE  H18S 7147   3.497   4.297   5.265 -1.4278  1.4343  0.6885
   79SOPE  H18T 7148   3.659   4.266   5.332  0.0065  0.4355 -0.6915
   79SOPE   C33 7149   3.934   4.931   6.803 -0.5957  0.2968 -0.4967
   79SOPE   H3X 7150   3.846   4.994   6.778  0.4933  1.2699 -2.1429
   79SOPE   H3Y 7151   3.929   4.842   6.736  0.4767 -0.2107  0.0638
   79SOPE   C34 7152   4.052   5.017   6.765  0.5895 -0.3588 -0.0235
   79SOPE   H4X 7153   4.147   4.987   6.813  0.6197 -1.5056 -0.7677
   79SOPE   H4Y 7154   4.027   5.112   6.817 -0.2718 -0.6702  0.1575
   79SOPE   C35 7155   4.060   5.038   6.614 -0.0140  0.0745  0.8701
   79SOPE   H5X 7156   4.099   5.140   6.597  0.0084 -0.2349 -1.2064
   79SOPE   H5Y 7157   3.957   5.042   6.571 -0.3858  2.3115  1.8541
   79SOPE   C36 7158   4.151   4.944   6.533 -0.1128  0.0683  0.0889
   79SOPE   H6X 7159   4.104   4.844   6.526  1.0098 -0.5696  1.2032
   79SOPE   H6Y 7160   4.240   4.927   6.597 -1.5274 -0.1621  2.0805
   79SOPE   C37 7161   4.175   5.010   6.393 -0.1102  0.4022 -0.0508
   79SOPE   H7X 7162   4.229   5.099   6.429  0.8252 -0.1376 -0.0809
   79SOPE   H7Y 7163   4.075   5.021   6.345 -0.5908 -0.3307  0.7405
   79SOPE   C38 7164   4.269   4.925   6.308 -0.3152 -0.0418  0.0480
   79SOPE   H8X 7165   4.237   4.820   6.327 -0.6007  0.1692  0.8038
   79SOPE   H8Y 7166   4.376   4.925   6.339  0.7000 -3.5966 -2.7033
   79SOPE   C39 7167   4.284   4.952   6.156  0.5376  0.8346  0.5644
   79SOPE   H9X 7168   4.361   4.888   6.109  0.1363  1.2594 -0.6946
   79SOPE   H9Y 7169   4.310   5.060   6.145 -0.0877  0.8281 -1.3623
   79SOPE  C310 7170   4.149   4.938   6.082  0.3032 -0.3350  0.7252
   79SOPE  H10X 7171   4.079   5.009   6.130  2.4263  0.3133  3.1043
   79SOPE  H10Y 7172   4.104   4.841   6.112 -1.2997 -0.7809 -2.6240
   79SOPE  C311 7173   4.157   4.958   5.924 -0.6786  0.1528 -0.3364
   79SOPE  H11X 7174   4.174   5.068   5.919  1.2056 -0.0860 -0.0051
   79SOPE  H11Y 7175   4.065   4.924   5.872  0.9912 -3.2506 -1.3700
   79SOPE  C312 7176   4.274   4.888   5.855 -0.9768  0.3884  0.0139
   79SOPE  H12X 7177   4.269   4.778   5.868 -1.3098  0.1871 -1.6224
   79SOPE  H12Y 7178   4.373   4.928   5.886 -0.4763  2.2530 -3.5024
   79SOPE  C313 7179   4.262   4.924   5.703  0.7107  0.9630  0.2610
   79SOPE  H13X 7180   4.278   5.034   5.699  2.0438  0.8630  1.5977
   79SOPE  H13Y 7181   4.159   4.907   5.665  1.2575 -1.1348 -0.4046
   79SOPE  C314 7182   4.360   4.839   5.618 -0.0888  0.3577  0.4152
   79SOPE  H14X 7183   4.349   4.729   5.628 -0.0528  0.3366  0.2134
   79SOPE  H14Y 7184   4.466   4.860   5.644  0.1234 -1.7434  1.5070
   79SOPE  C315 7185   4.340   4.856   5.464 -0.3539  1.0233 -0.9675
   79SOPE  H15X 7186   4.353   4.965   5.447 -0.5171  1.2229  0.0938
   79SOPE  H15Y 7187   4.237   4.819   5.448 -0.1427  0.1521 -0.3802
   79SOPE  C316 7188   4.428   4.768   5.377  0.7445 -0.3652  0.4401
   79SOPE  H16X 7189   4.385   4.734   5.281  0.7775  1.5529 -0.3098
   79SOPE  H16Y 7190   4.445   4.677   5.438  1.5955  1.0463  2.4644
   79SOPE  C317 7191   4.551   4.846   5.338 -0.0049  0.1001  0.7178
   79SOPE  H17X 7192   4.621   4.853   5.424 -1.0385  0.7009  1.5229
   79SOPE  H17Y 7193   4.515   4.948   5.313 -0.1096 -0.0911  0.0745
   79SOPE  C318 7194   4.633   4.783   5.226  0.4705 -0.2104  0.0587
   79SOPE  H18X 7195   4.641   4.674   5.249 -1.1415 -0.1167  1.2236
   79SOPE  H18Y 7196   4.737   4.822   5.228  0.2220  0.4862 -0.4018
   79SOPE  H18Z 7197   4.582   4.798   5.129 -0.3685 -0.1236  0.5065
   80SOPE     N 7198   2.763   6.500   7.363  0.5657  0.2384 -0.7907
   80SOPE   HN1 7199   2.781   6.602   7.361 -1.0013  0.6084  0.8338
   80SOPE   HN2 7200   2.672   6.476   7.320 -0.1903  0.1795  0.7587
   80SOPE   HN3 7201   2.758   6.459   7.459  0.8127 -1.4541 -1.4488
   80SOPE   C12 7202   2.891   6.445   7.305  0.6977  0.1830  0.2284
   80SOPE  H12A 7203   2.976   6.499   7.351 -0.2417  2.6270 -0.7158
   80SOPE  H12B 7204   2.889   6.459   7.194 -1.1748  1.1070  0.3322
   80SOPE   C11 7205   2.890   6.294   7.340 -0.4150  0.2924 -0.3500
   80SOPE  H11A 7206   2.885   6.277   7.450  2.7239  1.7102  0.1498
   80SOPE  H11B 7207   2.993   6.261   7.312  0.5328  0.7209  2.3331
   80SOPE     P 7208   2.803   6.129   7.149  0.3753  0.1383  0.0549
   80SOPE   O13 7209   2.676   6.107   7.085 -0.4524 -0.2570 -0.2275
   80SOPE   O14 7210   2.882   6.008   7.188 -0.2144  0.7350 -0.2092
   80SOPE   O12 7211   2.786   6.218   7.280 -0.5123  0.2981  0.2028
   80SOPE   O11 7212   2.892   6.223   7.058 -0.0034  0.1078  0.4682
   80SOPE    C1 7213   3.038   6.234   7.057  0.2011  0.6793  0.0016
   80SOPE    HA 7214   3.085   6.170   7.135 -1.7195 -2.3367 -1.1364
   80SOPE    HB 7215   3.060   6.342   7.068 -0.4381  0.9040 -0.8371
   80SOPE    C2 7216   3.093   6.178   6.925  0.7042 -0.1779 -0.7444
   80SOPE    HS 7217   3.203   6.194   6.931  0.7578  0.2705 -2.3723
   80SOPE   O21 7218   3.039   6.243   6.809  0.4225 -0.3137 -0.4712
   80SOPE   C21 7219   3.082   6.358   6.791  0.0901 -0.4954  0.1704
   80SOPE   O22 7220   3.167   6.417   6.854  0.1053  0.3892  0.4037
   80SOPE   C22 7221   3.018   6.425   6.662  0.1668  0.4438 -0.3156
   80SOPE   H2R 7222   3.052   6.527   6.638 -0.2552  0.6091 -0.2276
   80SOPE   H2S 7223   2.911   6.440   6.689 -0.0597 -1.3152 -0.0696
   80SOPE    C3 7224   3.078   6.016   6.923 -1.0154 -0.3675  0.0408
   80SOPE    HX 7225   2.970   5.990   6.933 -1.6366  1.3892 -1.6407
   80SOPE    HY 7226   3.126   5.971   7.012  0.5861  2.1077  0.5184
   80SOPE   O31 7227   3.122   5.958   6.805 -0.3693 -0.0292  0.3920
   80SOPE   C31 7228   3.256   5.947   6.794 -0.0043  0.3309 -0.1027
   80SOPE   O32 7229   3.333   5.981   6.885  0.3441 -0.2162 -0.1962
   80SOPE   C32 7230   3.294   5.892   6.663  0.3370  0.0869  0.9211
   80SOPE   H2X 7231   3.205   5.862   6.604  1.0278 -1.1247  0.4332
   80SOPE   H2Y 7232   3.348   5.796   6.683 -1.0251 -1.2081 -1.2053
   80SOPE   C23 7233   3.018   6.332   6.537  0.1146  0.3930 -0.4207
   80SOPE   H3R 7234   3.005   6.228   6.573 -0.1228  1.3544  2.5606
   80SOPE   H3S 7235   3.124   6.329   6.504  0.0031 -0.9243 -0.6955
   80SOPE   C24 7236   2.924   6.370   6.426 -0.3984  0.1509  0.3036
   80SOPE   H4R 7237   2.873   6.276   6.395  0.2608  0.5786 -2.3738
   80SOPE   H4S 7238   2.838   6.432   6.458 -0.6615  1.0297 -1.9088
   80SOPE   C25 7239   2.997   6.448   6.309 -0.3071  0.2656  0.0804
   80SOPE   H5R 7240   3.015   6.551   6.347  0.6548 -0.0931  0.6296
   80SOPE   H5S 7241   3.093   6.405   6.273 -0.8488  1.4271 -3.0221
   80SOPE   C26 7242   2.904   6.469   6.196  0.6426 -0.1061  0.3475
   80SOPE   H6R 7243   2.852   6.374   6.170 -0.4037  0.2435  1.0898
   80SOPE   H6S 7244   2.828   6.546   6.222  0.7893 -0.1775  1.0016
   80SOPE   C27 7245   2.978   6.522   6.068  0.1887 -0.3724  0.2353
   80SOPE   H7R 7246   2.891   6.520   5.998 -1.1943  1.9661  1.7383
   80SOPE   H7S 7247   3.003   6.628   6.092 -0.6616 -0.2356  0.5598
   80SOPE   C28 7248   3.100   6.451   6.022 -0.0729 -0.1429  0.2984
   80SOPE   H8R 7249   3.141   6.489   5.926  0.5184 -0.7285  0.3115
   80SOPE   H8S 7250   3.176   6.464   6.102  1.4926  0.9668 -1.2899
   80SOPE   C29 7251   3.067   6.301   6.012  0.5820 -0.2570 -0.0618
   80SOPE   H91 7252   3.018   6.259   6.101 -2.3783  0.8333 -1.0550
   80SOPE  C210 7253   3.069   6.219   5.901 -0.1537 -0.0601 -0.6518
   80SOPE  H101 7254   3.034   6.115   5.907  0.3239 -0.1402  1.4879
   80SOPE  C211 7255   3.118   6.260   5.772 -0.5916 -0.5196 -0.1300
   80SOPE  H11R 7256   3.162   6.169   5.727  1.5455 -0.9119  2.5002
   80SOPE  H11S 7257   3.209   6.323   5.782 -0.4108 -0.8933  0.7016
   80SOPE  C212 7258   3.013   6.346   5.691 -0.4672  0.0821 -0.2630
   80SOPE  H12R 7259   2.979   6.438   5.742 -0.6861 -0.6620  0.9759
   80SOPE  H12S 7260   2.918   6.290   5.674 -0.5540  0.8648 -2.7537
   80SOPE  C213 7261   3.068   6.405   5.563  0.0295 -0.5634 -0.3214
   80SOPE  H13R 7262   3.089   6.313   5.505 -1.6025 -0.2629 -1.4571
   80SOPE  H13S 7263   3.165   6.459   5.571  0.8999 -1.9982 -0.8668
   80SOPE  C214 7264   2.961   6.497   5.505  0.4588 -0.4413 -0.1023
   80SOPE  H14R 7265   2.931   6.577   5.576  1.4731 -0.7411  0.7094
   80SOPE  H14S 7266   2.877   6.430   5.481  0.2400  0.5717 -2.4348
   80SOPE  C215 7267   3.017   6.558   5.370 -0.6306  0.4733  0.3719
   80SOPE  H15R 7268   3.102   6.619   5.408  0.1223 -1.1092  1.3176
   80SOPE  H15S 7269   2.935   6.613   5.319 -0.4475 -1.3981 -2.1367
   80SOPE  C216 7270   3.056   6.449   5.263 -0.2751 -0.2786 -0.2026
   80SOPE  H16R 7271   2.981   6.367   5.270 -0.1178 -0.3018  2.7819
   80SOPE  H16S 7272   3.154   6.408   5.294 -1.1403 -2.8693 -0.6849
   80SOPE  C217 7273   3.064   6.481   5.109 -0.2634 -0.1785 -0.2905
   80SOPE  H17R 7274   2.965   6.478   5.060  0.5737 -1.8130 -1.9860
   80SOPE  H17S 7275   3.115   6.395   5.062  0.2054  0.6293 -1.3053
   80SOPE  C218 7276   3.149   6.604   5.084  0.2829  0.7463  0.1801
   80SOPE  H18R 7277   3.160   6.613   4.974 -2.7587 -0.3668 -0.3211
   80SOPE  H18S 7278   3.244   6.593   5.140  0.2024 -1.0386  0.0252
   80SOPE  H18T 7279   3.113   6.701   5.125  0.4685  0.3577  1.2919
   80SOPE   C33 7280   3.368   5.999   6.584  0.1430  0.6122  0.3173
   80SOPE   H3X 7281   3.471   6.008   6.625  0.7031  0.8071 -1.0449
   80SOPE   H3Y 7282   3.313   6.095   6.576  0.2471  0.5651 -1.3829
   80SOPE   C34 7283   3.390   5.953   6.443 -0.3002 -0.6069  0.1437
   80SOPE   H4X 7284   3.433   5.851   6.443 -4.5528 -2.7315  2.9373
   80SOPE   H4Y 7285   3.467   6.015   6.392 -1.3100  0.4519 -0.1559
   80SOPE   C35 7286   3.271   5.959   6.347  0.0095 -0.7919  0.0143
   80SOPE   H5X 7287   3.205   6.043   6.375  0.8204 -0.3538  0.6748
   80SOPE   H5Y 7288   3.207   5.869   6.350  2.7913 -2.9067  0.2389
   80SOPE   C36 7289   3.309   5.982   6.196  0.0661 -0.2813 -0.2606
   80SOPE   H6X 7290   3.366   6.076   6.177  1.7984 -1.1842  0.3064
   80SOPE   H6Y 7291   3.218   6.011   6.139 -0.5284  0.0109  0.8098
   80SOPE   C37 7292   3.390   5.863   6.146  0.1829 -0.0255  0.3084
   80SOPE   H7X 7293   3.328   5.771   6.143 -1.5362  1.1041 -0.5135
   80SOPE   H7Y 7294   3.465   5.835   6.222 -2.3327  0.9921  3.4163
   80SOPE   C38 7295   3.449   5.880   6.010 -0.0783  0.0283  0.2171
   80SOPE   H8X 7296   3.507   5.790   5.982 -0.7658 -0.2845 -0.2261
   80SOPE   H8Y 7297   3.520   5.966   6.013  0.5420 -0.0863 -4.3076
   80SOPE   C39 7298   3.351   5.911   5.898 -0.1170  0.8714 -0.4747
   80SOPE   H9X 7299   3.289   5.998   5.930 -1.5532 -1.0468  2.3044
   80SOPE   H9Y 7300   3.286   5.822   5.883 -0.0192  0.2947  2.1408
   80SOPE  C310 7301   3.422   5.941   5.765 -0.1398 -0.2346 -0.0004
   80SOPE  H10X 7302   3.496   6.023   5.766  0.1552 -0.4926 -0.5287
   80SOPE  H10Y 7303   3.345   5.989   5.702  2.9576  0.9633 -3.1629
   80SOPE  C311 7304   3.479   5.822   5.690 -0.3209 -0.5551 -0.1796
   80SOPE  H11X 7305   3.408   5.737   5.687  0.6784 -1.4122  0.1171
   80SOPE  H11Y 7306   3.565   5.786   5.749  0.2326 -1.7682 -1.6551
   80SOPE  C312 7307   3.521   5.853   5.544 -0.1704 -0.7312 -0.2492
   80SOPE  H12X 7308   3.609   5.787   5.526 -0.7721 -1.4429 -0.6617
   80SOPE  H12Y 7309   3.553   5.956   5.520  0.7654 -0.7184  0.9837
   80SOPE  C313 7310   3.414   5.814   5.436  0.6540 -0.5476 -0.6117
   80SOPE  H13X 7311   3.319   5.866   5.462  0.8254 -1.0784  1.2232
   80SOPE  H13Y 7312   3.397   5.705   5.446 -0.4939 -0.4330 -1.2117
   80SOPE  C314 7313   3.457   5.841   5.291  0.2574 -0.2549 -0.7667
   80SOPE  H14X 7314   3.516   5.935   5.297  1.2474 -0.9539  2.2763
   80SOPE  H14Y 7315   3.375   5.865   5.220  0.9752  1.1714 -1.1270
   80SOPE  C315 7316   3.541   5.742   5.225 -0.4779 -0.0326 -0.1540
   80SOPE  H15X 7317   3.634   5.719   5.282 -0.0514 -2.3937 -1.6928
   80SOPE  H15Y 7318   3.575   5.782   5.127  1.7590 -1.9393 -0.2418
   80SOPE  C316 7319   3.469   5.604   5.211 -1.3141 -0.1385 -0.7594
   80SOPE  H16X 7320   3.469   5.570   5.105 -0.1964 -2.0596 -0.1906
   80SOPE  H16Y 7321   3.363   5.600   5.242 -1.1163  0.3265 -0.0008
   80SOPE  C317 7322   3.555   5.502   5.291 -0.0682 -0.2631  0.4167
   80SOPE  H17X 7323   3.531   5.519   5.398 -1.2480  1.3365 -0.0657
   80SOPE  H17Y 7324   3.663   5.524   5.275  0.5281 -0.6221  3.4270
   80SOPE  C318 7325   3.527   5.350   5.250  0.0584 -0.0692 -0.0732
   80SOPE  H18X 7326   3.420   5.323   5.261  0.7142 -1.8866  2.9154
   80SOPE  H18Y 7327   3.590   5.288   5.318 -0.0359 -2.5690 -2.0934
   80SOPE  H18Z 7328   3.563   5.331   5.146  1.0626 -0.0623  0.2622
   81SOPE     N 7329   6.183   3.168   7.156 -0.1016  0.0524 -0.1372
   81SOPE   HN1 7330   6.142   3.149   7.062 -0.7746 -0.4415  0.2398
   81SOPE   HN2 7331   6.101   3.186   7.217 -1.4308  1.9491 -2.3014
   81SOPE   HN3 7332   6.231   3.260   7.155 -0.9306  0.5122  0.8669
   81SOPE   C12 7333   6.256   3.043   7.194 -0.0723  0.0587 -0.1197
   81SOPE  H12A 7334   6.186   2.957   7.207  1.9090 -1.5482  0.4536
   81SOPE  H12B 7335   6.312   3.059   7.288 -0.3764  3.6820 -0.4244
   81SOPE   C11 7336   6.359   3.008   7.094  0.2343  0.2155  0.6385
   81SOPE  H11A 7337   6.420   2.918   7.114 -0.6245 -1.3004 -2.8676
   81SOPE  H11B 7338   6.428   3.095   7.086 -0.2051  0.7293  2.0735
   81SOPE     P 7339   6.269   2.847   6.912  0.2549 -0.5487  0.1781
   81SOPE   O13 7340   6.186   2.876   6.789 -0.7478  0.0546 -0.5946
   81SOPE   O14 7341   6.199   2.778   7.023  0.3199 -0.5071 -0.1273
   81SOPE   O12 7342   6.311   2.988   6.962  0.6417 -0.4378  1.1104
   81SOPE   O11 7343   6.409   2.785   6.893 -0.1731 -0.5546 -0.7270
   81SOPE    C1 7344   6.525   2.853   6.841  0.2481 -0.2108  0.5611
   81SOPE    HA 7345   6.606   2.835   6.916 -0.3681 -0.2678  1.2278
   81SOPE    HB 7346   6.508   2.961   6.825  0.6623 -0.2622 -0.2658
   81SOPE    C2 7347   6.579   2.799   6.701 -0.5981 -0.8720  0.1742
   81SOPE    HS 7348   6.675   2.852   6.680 -1.3567  0.8135  0.7524
   81SOPE   O21 7349   6.488   2.834   6.595 -0.2348 -0.6781  1.0229
   81SOPE   C21 7350   6.516   2.871   6.473  0.1197  0.1577 -0.1469
   81SOPE   O22 7351   6.628   2.894   6.433  0.0987  0.0763  0.0139
   81SOPE   C22 7352   6.392   2.890   6.392 -0.3112 -0.3304 -0.6458
   81SOPE   H2R 7353   6.337   2.970   6.446  0.1729 -0.8532  0.6806
   81SOPE   H2S 7354   6.327   2.800   6.396 -0.1167 -0.4425  2.3678
   81SOPE    C3 7355   6.590   2.650   6.713  0.3513 -0.1911  1.3816
   81SOPE    HX 7356   6.493   2.597   6.723  0.1719  0.3230  2.4594
   81SOPE    HY 7357   6.648   2.628   6.805 -0.0979 -4.6324  0.8394
   81SOPE   O31 7358   6.668   2.601   6.601 -0.3351  0.1785 -0.4292
   81SOPE   C31 7359   6.616   2.556   6.493 -0.1458 -0.1979 -0.6501
   81SOPE   O32 7360   6.498   2.523   6.477  0.2977  0.1339 -0.5810
   81SOPE   C32 7361   6.719   2.565   6.383 -0.3065 -0.2116 -0.1774
   81SOPE   H2X 7362   6.821   2.558   6.427 -0.2827  1.0596  0.0159
   81SOPE   H2Y 7363   6.710   2.665   6.335 -1.4195 -0.5697 -0.7471
   81SOPE   C23 7364   6.419   2.957   6.253 -0.0956  0.4201  0.7297
   81SOPE   H3R 7365   6.488   3.044   6.262 -0.3811  0.6725  0.4999
   81SOPE   H3S 7366   6.322   3.001   6.222  0.3011  0.0008 -1.2317
   81SOPE   C24 7367   6.466   2.861   6.141  0.9210 -0.3937 -0.4004
   81SOPE   H4R 7368   6.499   2.906   6.045  1.7508 -0.4607 -0.1547
   81SOPE   H4S 7369   6.560   2.811   6.172  1.8438  1.6664  0.3115
   81SOPE   C25 7370   6.347   2.767   6.115  0.3905 -0.3691 -0.2485
   81SOPE   H5R 7371   6.381   2.661   6.113 -0.2564 -0.5802 -1.7566
   81SOPE   H5S 7372   6.270   2.783   6.192  1.0519  1.5217  0.0841
   81SOPE   C26 7373   6.276   2.815   5.983  0.1780  0.7216  0.0100
   81SOPE   H6R 7374   6.248   2.921   5.999 -1.6687  0.0877  1.3292
   81SOPE   H6S 7375   6.347   2.812   5.898 -0.0089 -1.3407 -0.1311
   81SOPE   C27 7376   6.150   2.726   5.937 -0.3916 -0.9759  0.1642
   81SOPE   H7R 7377   6.185   2.621   5.926  2.4122 -0.1748  0.6329
   81SOPE   H7S 7378   6.069   2.736   6.013 -2.4465  1.5943 -2.1455
   81SOPE   C28 7379   6.086   2.782   5.804  0.4091 -0.2411 -0.2410
   81SOPE   H8R 7380   6.086   2.891   5.825  2.1393 -0.6925  2.5765
   81SOPE   H8S 7381   6.159   2.781   5.720 -0.2075 -0.4626 -0.7875
   81SOPE   C29 7382   5.942   2.735   5.765 -0.4665 -0.5606 -0.1366
   81SOPE   H91 7383   5.876   2.715   5.850 -1.3081  0.2340 -0.5829
   81SOPE  C210 7384   5.905   2.693   5.643 -0.4316  0.4900  0.0286
   81SOPE  H101 7385   5.801   2.661   5.627  0.5678 -1.0766 -5.2069
   81SOPE  C211 7386   5.991   2.692   5.520 -0.3557 -0.3053 -0.1794
   81SOPE  H11R 7387   6.024   2.588   5.500  3.4968  0.5450  0.8160
   81SOPE  H11S 7388   6.083   2.753   5.537 -1.2014  1.3247 -1.1240
   81SOPE  C212 7389   5.916   2.750   5.398  0.3259 -0.0414 -0.3162
   81SOPE  H12R 7390   5.867   2.849   5.412  0.2552  0.2520 -2.3914
   81SOPE  H12S 7391   5.842   2.672   5.373 -0.9435 -0.3902  3.7436
   81SOPE  C213 7392   6.002   2.772   5.271 -0.5772 -0.1422 -0.5839
   81SOPE  H13R 7393   6.067   2.857   5.300 -0.6539 -1.5100  4.7693
   81SOPE  H13S 7394   5.935   2.794   5.185 -2.8750 -1.7970  0.6741
   81SOPE  C214 7395   6.092   2.653   5.223  0.9257 -0.1380  0.4282
   81SOPE  H14R 7396   6.047   2.556   5.191  0.0099  0.7499 -1.1048
   81SOPE  H14S 7397   6.160   2.634   5.308 -1.2963 -0.7490  2.1749
   81SOPE  C215 7398   6.175   2.680   5.094 -0.1487  0.0148 -1.0451
   81SOPE  H15R 7399   6.256   2.604   5.093  0.7551  0.9533 -0.9837
   81SOPE  H15S 7400   6.222   2.776   5.124  0.1443  0.1090 -1.7894
   81SOPE  C216 7401   6.105   2.695   4.961  0.1098 -0.3153 -0.2139
   81SOPE  H16R 7402   6.029   2.775   4.972  2.0453  1.3606  2.2287
   81SOPE  H16S 7403   6.052   2.602   4.931 -2.3335 -0.0235  2.6947
   81SOPE  C217 7404   6.199   2.726   4.853  0.3323  0.1176 -0.5064
   81SOPE  H17R 7405   6.258   2.816   4.880 -0.7005  0.2869  1.3652
   81SOPE  H17S 7406   6.135   2.745   4.764 -0.3182  0.3675  0.0102
   81SOPE  C218 7407   6.294   2.624   4.802 -0.3133 -0.3077  0.9028
   81SOPE  H18R 7408   6.248   2.529   4.767 -0.6937  0.0796  0.3352
   81SOPE  H18S 7409   6.365   2.592   4.882  0.1398 -1.4937  0.0575
   81SOPE  H18T 7410   6.359   2.653   4.718 -0.0511 -1.0294  0.8431
   81SOPE   C33 7411   6.712   2.443   6.279 -0.4827  0.2608 -0.9831
   81SOPE   H3X 7412   6.689   2.344   6.324  0.2070  0.6213  0.2200
   81SOPE   H3Y 7413   6.816   2.428   6.244  0.0571 -0.4573  0.7996
   81SOPE   C34 7414   6.613   2.472   6.167  0.5191  0.1010  0.4301
   81SOPE   H4X 7415   6.626   2.578   6.135 -0.6886 -0.5635 -2.5780
   81SOPE   H4Y 7416   6.510   2.459   6.205  0.5255 -0.4040  0.2740
   81SOPE   C35 7417   6.640   2.386   6.047 -0.6178  0.2406 -0.1199
   81SOPE   H5X 7418   6.658   2.287   6.093 -0.9126  0.4169  0.3867
   81SOPE   H5Y 7419   6.734   2.419   6.000 -0.8129  1.5961  0.3921
   81SOPE   C36 7420   6.531   2.394   5.947  0.1016 -0.6542  0.4243
   81SOPE   H6X 7421   6.442   2.436   5.997  0.3962  1.5906 -0.8008
   81SOPE   H6Y 7422   6.518   2.292   5.905 -2.8097 -0.2896  0.2531
   81SOPE   C37 7423   6.572   2.494   5.835 -0.0252 -0.4656  0.0846
   81SOPE   H7X 7424   6.668   2.451   5.798 -1.0353 -1.9459 -0.9244
   81SOPE   H7Y 7425   6.594   2.597   5.868  1.9339 -0.8494  0.1241
   81SOPE   C38 7426   6.471   2.496   5.718  0.0966 -0.0522  0.4623
   81SOPE   H8X 7427   6.375   2.534   5.759  0.9639 -0.4665  3.0948
   81SOPE   H8Y 7428   6.451   2.394   5.680  0.7199 -0.0592  0.1351
   81SOPE   C39 7429   6.512   2.588   5.600  0.0002  0.3333  0.1857
   81SOPE   H9X 7430   6.601   2.540   5.555  0.6987  0.1688  1.6866
   81SOPE   H9Y 7431   6.550   2.687   5.632  1.4940 -0.1692  0.0559
   81SOPE  C310 7432   6.405   2.615   5.495 -0.4241  0.4140  0.2741
   81SOPE  H10X 7433   6.320   2.677   5.531 -2.4952  0.4245 -3.9611
   81SOPE  H10Y 7434   6.352   2.522   5.469  2.4107 -1.3806  0.4939
   81SOPE  C311 7435   6.461   2.673   5.361 -0.8523  0.3423  0.8299
   81SOPE  H11X 7436   6.529   2.756   5.389 -1.1277  0.9050 -0.1573
   81SOPE  H11Y 7437   6.379   2.713   5.298  1.0140 -3.8076 -5.0928
   81SOPE  C312 7438   6.537   2.563   5.284 -0.6488 -0.0525  0.2613
   81SOPE  H12X 7439   6.458   2.500   5.238 -0.3697  0.4019 -0.8655
   81SOPE  H12Y 7440   6.604   2.493   5.339 -0.0704  0.6400  0.4577
   81SOPE  C313 7441   6.610   2.632   5.163 -0.2478 -0.4204  0.2185
   81SOPE  H13X 7442   6.703   2.684   5.194  0.5621 -0.9890 -1.1855
   81SOPE  H13Y 7443   6.545   2.717   5.135 -2.1718 -1.5997  0.9486
   81SOPE  C314 7444   6.627   2.531   5.060 -0.5443  0.2504  0.2115
   81SOPE  H14X 7445   6.529   2.486   5.033 -0.6509 -1.3816  2.9140
   81SOPE  H14Y 7446   6.701   2.452   5.085  0.9987  1.9569  1.2342
   81SOPE  C315 7447   6.693   2.602   4.932 -0.1348 -0.1784 -0.3781
   81SOPE  H15X 7448   6.785   2.643   4.977 -0.1662  0.6511 -1.0471
   81SOPE  H15Y 7449   6.629   2.683   4.890 -1.3288  0.3078  2.1277
   81SOPE  C316 7450   6.734   2.506   4.816  0.4181  0.3128  0.3038
   81SOPE  H16X 7451   6.777   2.415   4.864 -0.4325 -0.7177 -0.8394
   81SOPE  H16Y 7452   6.818   2.544   4.753 -0.1788  0.3763 -0.4658
   81SOPE  C317 7453   6.615   2.470   4.717  0.6264  0.6052 -0.2387
   81SOPE  H17X 7454   6.598   2.574   4.681  2.4806  1.5336  1.3488
   81SOPE  H17Y 7455   6.517   2.429   4.751  0.1730 -1.5053 -3.6425
   81SOPE  C318 7456   6.645   2.381   4.590  0.7991 -0.8159 -0.5541
   81SOPE  H18X 7457   6.730   2.433   4.542  0.7902  1.6600  1.8204
   81SOPE  H18Y 7458   6.571   2.379   4.507  1.2157  0.1398 -0.9607
   81SOPE  H18Z 7459   6.674   2.277   4.615  1.4404 -0.2993  0.9835
   82SOPE     N 7460   6.163   2.220   6.795  0.7236  0.1243  0.1557
   82SOPE   HN1 7461   6.081   2.278   6.823  1.2712  1.5272 -1.0566
   82SOPE   HN2 7462   6.177   2.163   6.881  0.3101  0.8742  0.7301
   82SOPE   HN3 7463   6.244   2.282   6.775  2.0335 -1.8765 -1.0854
   82SOPE   C12 7464   6.124   2.138   6.672 -0.5119 -0.4097 -0.1517
   82SOPE  H12A 7465   6.136   2.208   6.586  1.0188 -0.7732 -0.2687
   82SOPE  H12B 7466   6.020   2.107   6.694  0.0685 -1.7202  0.8842
   82SOPE   C11 7467   6.226   2.023   6.660 -0.5411 -0.0559 -0.7952
   82SOPE  H11A 7468   6.205   1.982   6.559  0.1376  1.4789 -1.5962
   82SOPE  H11B 7469   6.213   1.948   6.741  2.5573 -0.5722 -0.6705
   82SOPE     P 7470   6.482   1.962   6.628 -0.2291 -0.3696  0.2670
   82SOPE   O13 7471   6.467   1.850   6.727  0.1030 -0.3873 -0.4121
   82SOPE   O14 7472   6.616   2.029   6.627 -0.2707  0.7345  0.2102
   82SOPE   O12 7473   6.363   2.069   6.653  0.0957  0.2327 -0.2644
   82SOPE   O11 7474   6.446   1.906   6.484  0.2307 -0.1222  0.1173
   82SOPE    C1 7475   6.486   1.992   6.372 -0.2431 -0.6613 -0.2664
   82SOPE    HA 7476   6.505   1.922   6.288  0.0034 -3.8383  2.2490
   82SOPE    HB 7477   6.580   2.049   6.391  0.1545 -1.6921  1.0118
   82SOPE    C2 7478   6.371   2.096   6.334 -0.3568 -0.5612 -0.0668
   82SOPE    HS 7479   6.364   2.165   6.422  0.3010 -0.2898 -0.2197
   82SOPE   O21 7480   6.247   2.020   6.304 -0.1205  0.5436  0.8050
   82SOPE   C21 7481   6.145   2.103   6.291  0.4896  0.2987 -0.3884
   82SOPE   O22 7482   6.144   2.215   6.331 -0.0494  0.1182  0.4940
   82SOPE   C22 7483   6.031   2.021   6.224 -0.4073  0.6298  0.1944
   82SOPE   H2R 7484   6.005   1.946   6.302  3.2609  0.9123  1.8831
   82SOPE   H2S 7485   6.067   1.977   6.128 -2.3637 -0.3178 -0.1645
   82SOPE    C3 7486   6.424   2.180   6.220 -0.2107  0.5765 -0.5364
   82SOPE    HX 7487   6.518   2.228   6.253 -1.3937  1.8542  1.1155
   82SOPE    HY 7488   6.355   2.265   6.203  0.2156  1.0871  0.2765
   82SOPE   O31 7489   6.453   2.095   6.112  0.6305 -0.5715 -0.0994
   82SOPE   C31 7490   6.360   2.098   6.011 -0.6728  0.0081  0.4757
   82SOPE   O32 7491   6.257   2.161   6.017  0.1228 -0.1236 -0.0999
   82SOPE   C32 7492   6.399   2.011   5.888 -0.0925 -0.0090  0.2290
   82SOPE   H2X 7493   6.395   1.909   5.932  2.8695 -0.3145  0.0165
   82SOPE   H2Y 7494   6.507   2.018   5.862 -0.4461 -0.8310 -1.6432
   82SOPE   C23 7495   5.900   2.100   6.198  0.6935 -0.0382  0.2092
   82SOPE   H3R 7496   5.924   2.163   6.110  0.9549  1.2425  1.1721
   82SOPE   H3S 7497   5.871   2.168   6.281  0.1069 -1.0849  0.8957
   82SOPE   C24 7498   5.779   2.014   6.178  0.1549 -0.1344 -0.0660
   82SOPE   H4R 7499   5.740   1.967   6.272  0.3249  1.4549  0.8398
   82SOPE   H4S 7500   5.690   2.073   6.147  0.7730  0.4554 -0.7511
   82SOPE   C25 7501   5.792   1.899   6.065 -0.5615 -0.2585 -1.0160
   82SOPE   H5R 7502   5.848   1.940   5.978  1.2256  0.5428  0.4356
   82SOPE   H5S 7503   5.851   1.822   6.120 -2.2049 -0.2851  0.8181
   82SOPE   C26 7504   5.658   1.850   6.006  0.1729  0.4458 -0.3179
   82SOPE   H6R 7505   5.677   1.750   5.963  1.9438  0.4814  0.2988
   82SOPE   H6S 7506   5.590   1.842   6.094  1.5926 -0.4570  0.7316
   82SOPE   C27 7507   5.605   1.941   5.893 -0.2139  0.4531 -1.3170
   82SOPE   H7R 7508   5.496   1.922   5.892 -0.3048 -0.1380  2.4254
   82SOPE   H7S 7509   5.637   2.042   5.926  2.3584 -0.4006 -0.9769
   82SOPE   C28 7510   5.664   1.908   5.754 -0.3249 -0.0416 -0.7956
   82SOPE   H8R 7511   5.772   1.934   5.742  0.1330 -2.5735 -3.1569
   82SOPE   H8S 7512   5.650   1.800   5.735 -1.3528 -0.5184  2.2422
   82SOPE   C29 7513   5.594   1.990   5.650 -0.3760 -0.0310  0.0395
   82SOPE   H91 7514   5.580   2.097   5.675 -1.7996 -0.2359  0.1423
   82SOPE  C210 7515   5.569   1.952   5.524  0.8238  0.3015 -0.2763
   82SOPE  H101 7516   5.525   2.029   5.459 -3.8434 -1.3613  0.5058
   82SOPE  C211 7517   5.587   1.819   5.461 -0.0460  0.3835  0.5049
   82SOPE  H11R 7518   5.492   1.761   5.458  1.3145 -1.9534  0.4847
   82SOPE  H11S 7519   5.645   1.751   5.527 -0.9148 -1.4614 -0.5552
   82SOPE  C212 7520   5.659   1.827   5.324  0.2438 -0.6769 -0.0482
   82SOPE  H12R 7521   5.683   1.722   5.296  1.1857  0.1360 -2.5258
   82SOPE  H12S 7522   5.759   1.867   5.350  0.3353 -1.9851  1.8068
   82SOPE  C213 7523   5.593   1.912   5.208 -0.1472 -0.4021 -0.6388
   82SOPE  H13R 7524   5.553   2.010   5.242  0.1354  0.0444 -1.5664
   82SOPE  H13S 7525   5.510   1.856   5.159 -0.1637  0.4030 -1.5656
   82SOPE  C214 7526   5.693   1.927   5.093  0.6143 -0.2028 -0.0907
   82SOPE  H14R 7527   5.786   1.977   5.127  0.7257  0.2168 -0.9841
   82SOPE  H14S 7528   5.652   1.989   5.011  0.8229 -2.0717 -1.6849
   82SOPE  C215 7529   5.716   1.790   5.026  0.0017 -0.1674  0.1064
   82SOPE  H15R 7530   5.618   1.758   4.984 -0.5518  1.0141  0.4624
   82SOPE  H15S 7531   5.747   1.715   5.103 -0.2102  0.8634  1.2196
   82SOPE  C216 7532   5.813   1.793   4.908 -0.2564  0.0727 -0.1774
   82SOPE  H16R 7533   5.919   1.821   4.930 -0.3677  0.7625 -0.4811
   82SOPE  H16S 7534   5.779   1.878   4.845 -1.4337 -1.9184 -2.3844
   82SOPE  C217 7535   5.800   1.665   4.819 -0.3009 -0.0511 -0.8701
   82SOPE  H17R 7536   5.691   1.646   4.810 -0.2463 -1.0678  0.3483
   82SOPE  H17S 7537   5.852   1.599   4.892  1.0628  1.4817 -0.4254
   82SOPE  C218 7538   5.878   1.664   4.687  0.2750 -0.1546  0.4908
   82SOPE  H18R 7539   5.988   1.650   4.686  0.3120 -0.1120 -2.1676
   82SOPE  H18S 7540   5.877   1.762   4.636  1.8124  0.5647  1.7497
   82SOPE  H18T 7541   5.846   1.578   4.624  1.2656  0.6439 -1.1676
   82SOPE   C33 7542   6.311   2.028   5.764  0.2189  0.2443  0.3748
   82SOPE   H3X 7543   6.207   2.019   5.801 -0.0688 -0.9822 -0.6599
   82SOPE   H3Y 7544   6.336   1.943   5.697  1.2882 -0.2132  1.3108
   82SOPE   C34 7545   6.320   2.173   5.701 -0.4166  0.9782  0.2007
   82SOPE   H4X 7546   6.427   2.197   5.689 -0.1536 -0.0737  0.3189
   82SOPE   H4Y 7547   6.279   2.241   5.779  0.8539 -0.1199  1.9072
   82SOPE   C35 7548   6.236   2.188   5.578 -0.4766  0.2908 -0.0876
   82SOPE   H5X 7549   6.250   2.102   5.509  2.4419  1.4140 -1.0790
   82SOPE   H5Y 7550   6.269   2.280   5.524  0.8902 -0.5083 -0.6702
   82SOPE   C36 7551   6.087   2.184   5.613  0.3306 -0.1639 -0.4274
   82SOPE   H6X 7552   6.056   2.260   5.688 -0.8249  0.5382 -1.5750
   82SOPE   H6Y 7553   6.076   2.080   5.651 -0.7853  0.0549 -0.1080
   82SOPE   C37 7554   6.004   2.205   5.480  0.4400 -0.4362 -0.5224
   82SOPE   H7X 7555   6.023   2.121   5.410  0.2927 -0.7328 -0.2130
   82SOPE   H7Y 7556   6.036   2.299   5.431  1.6453 -1.1407 -1.1350
   82SOPE   C38 7557   5.851   2.225   5.494 -0.7322  0.1717  0.1583
   82SOPE   H8X 7558   5.826   2.307   5.564 -2.8829 -0.9609  0.8155
   82SOPE   H8Y 7559   5.822   2.130   5.544  2.8002 -0.4603  1.3286
   82SOPE   C39 7560   5.772   2.238   5.360  0.0144  0.5802  0.2748
   82SOPE   H9X 7561   5.666   2.213   5.380  0.3763  0.7349  2.6681
   82SOPE   H9Y 7562   5.809   2.163   5.287  0.6743  1.2774 -0.1140
   82SOPE  C310 7563   5.787   2.378   5.296 -0.6477 -0.3732 -0.3614
   82SOPE  H10X 7564   5.896   2.398   5.291 -0.7210 -0.0532 -0.7022
   82SOPE  H10Y 7565   5.757   2.456   5.369 -0.3699 -1.3706  0.8701
   82SOPE  C311 7566   5.707   2.400   5.170  0.8042  0.5211  0.1529
   82SOPE  H11X 7567   5.706   2.505   5.134 -0.1843 -0.6223 -3.5738
   82SOPE  H11Y 7568   5.604   2.379   5.206  0.9377  1.3553  1.0505
   82SOPE  C312 7569   5.749   2.314   5.046  0.0433 -0.2481  0.0102
   82SOPE  H12X 7570   5.673   2.334   4.968  1.8688 -0.5970 -1.9625
   82SOPE  H12Y 7571   5.750   2.208   5.079 -3.2439 -0.2001  0.5879
   82SOPE  C313 7572   5.886   2.351   4.982  0.6947 -0.7418 -0.7542
   82SOPE  H13X 7573   5.961   2.385   5.056 -0.1274 -0.2342 -0.1334
   82SOPE  H13Y 7574   5.858   2.442   4.926 -2.6285 -0.5669  0.9011
   82SOPE  C314 7575   5.947   2.240   4.904 -0.4040 -0.5521 -0.1376
   82SOPE  H14X 7576   5.876   2.218   4.822 -0.5734 -0.0975 -0.1148
   82SOPE  H14Y 7577   5.950   2.156   4.977  1.0604  1.3508  2.1060
   82SOPE  C315 7578   6.086   2.273   4.849 -0.9100 -0.0261 -0.0025
   82SOPE  H15X 7579   6.149   2.287   4.940  0.0037 -0.6135 -0.5284
   82SOPE  H15Y 7580   6.089   2.367   4.791  0.9766  0.1908  0.3660
   82SOPE  C316 7581   6.165   2.161   4.770  0.3199  0.2870  0.4309
   82SOPE  H16X 7582   6.108   2.119   4.685  1.0250 -0.2941  0.2323
   82SOPE  H16Y 7583   6.186   2.074   4.837  1.4374 -1.0761 -1.5782
   82SOPE  C317 7584   6.297   2.203   4.719  0.0032 -0.4029  0.1961
   82SOPE  H17X 7585   6.358   2.230   4.808  2.0277 -0.4716 -1.0872
   82SOPE  H17Y 7586   6.287   2.301   4.666  0.2912  0.3457  1.4788
   82SOPE  C318 7587   6.364   2.105   4.624 -0.2074  0.2526  0.1943
   82SOPE  H18X 7588   6.390   2.010   4.677  0.4259  0.2416 -0.1301
   82SOPE  H18Y 7589   6.457   2.150   4.582 -0.1030 -0.8248 -0.7816
   82SOPE  H18Z 7590   6.288   2.082   4.547 -0.6811  2.0269  0.0973
   83SOPE     N 7591   1.114   3.788   2.931  0.4012  0.4795  0.0831
   83SOPE   HN1 7592   1.135   3.881   2.974 -0.2708  1.2594 -1.2221
   83SOPE   HN2 7593   1.143   3.722   3.006  0.4319  1.5532  1.0471
   83SOPE   HN3 7594   1.178   3.778   2.850 -0.5555 -1.7371 -0.4634
   83SOPE   C12 7595   0.961   3.772   2.925 -0.1636  0.0507 -0.0766
   83SOPE  H12A 7596   0.940   3.665   2.946 -1.0629 -0.0287 -1.2643
   83SOPE  H12B 7597   0.926   3.804   2.825 -2.3158  1.3164  1.0136
   83SOPE   C11 7598   0.894   3.858   3.034  0.5916  0.5622  0.0165
   83SOPE  H11A 7599   0.935   3.825   3.132 -1.2667 -2.4024 -0.0729
   83SOPE  H11B 7600   0.785   3.836   3.029  0.1958  2.3229  0.2381
   83SOPE     P 7601   1.002   4.084   3.075 -0.0934  0.1752  0.0556
   83SOPE   O13 7602   0.998   4.214   3.006 -0.3518  0.2857 -0.1215
   83SOPE   O14 7603   1.127   4.006   3.085  0.2684 -0.8089 -0.2878
   83SOPE   O12 7604   0.904   3.992   3.004  0.5542  0.1572 -0.0831
   83SOPE   O11 7605   0.934   4.089   3.216  0.6335  0.1534  0.2637
   83SOPE    C1 7606   0.848   4.203   3.247  0.0623 -0.5684 -0.2679
   83SOPE    HA 7607   0.770   4.217   3.169 -0.2966  1.2208  0.3721
   83SOPE    HB 7608   0.909   4.295   3.245  0.8245 -1.0508  0.2957
   83SOPE    C2 7609   0.770   4.189   3.384 -0.3873  0.4088  0.2787
   83SOPE    HS 7610   0.686   4.262   3.388 -0.5748  0.2044  0.0457
   83SOPE   O21 7611   0.868   4.211   3.495  0.0880  0.3031  0.0769
   83SOPE   C21 7612   0.830   4.283   3.592 -0.0127  0.9163 -0.0870
   83SOPE   O22 7613   0.714   4.326   3.608  0.2838 -0.4352  0.0057
   83SOPE   C22 7614   0.949   4.328   3.669 -0.1673  0.2173 -0.2181
   83SOPE   H2R 7615   0.934   4.434   3.698 -0.1715  0.7205 -1.9572
   83SOPE   H2S 7616   1.036   4.320   3.600  0.1625 -0.2874  0.2441
   83SOPE    C3 7617   0.696   4.047   3.409 -0.2478  0.3827  0.7465
   83SOPE    HX 7618   0.780   3.976   3.404  0.8287  1.7077 -2.5800
   83SOPE    HY 7619   0.631   4.021   3.323 -0.6118 -1.1167  1.4360
   83SOPE   O31 7620   0.633   4.053   3.537  0.2141 -0.0958  0.0124
   83SOPE   C31 7621   0.497   4.082   3.533 -0.6795  0.1416 -0.1086
   83SOPE   O32 7622   0.433   4.112   3.437  0.1588 -0.0912 -0.5257
   83SOPE   C32 7623   0.445   4.073   3.675 -0.0889 -0.2737  0.1783
   83SOPE   H2X 7624   0.469   4.171   3.721 -2.2900  0.9663 -1.0986
   83SOPE   H2Y 7625   0.499   3.995   3.732 -2.8153 -1.7699  0.9019
   83SOPE   C23 7626   0.979   4.242   3.795 -0.3533 -0.2704  0.3559
   83SOPE   H3R 7627   1.088   4.245   3.812 -0.6252  0.6193  2.2024
   83SOPE   H3S 7628   0.951   4.136   3.776 -1.3447 -0.1320  0.9536
   83SOPE   C24 7629   0.909   4.295   3.922 -0.3972  0.6507  0.5771
   83SOPE   H4R 7630   0.955   4.391   3.954 -2.2420  1.5007  0.8265
   83SOPE   H4S 7631   0.809   4.332   3.890  0.3535  1.1744 -1.3146
   83SOPE   C25 7632   0.902   4.201   4.048 -0.8689  0.4731 -0.2304
   83SOPE   H5R 7633   0.979   4.122   4.041 -1.1349  0.1160  0.6746
   83SOPE   H5S 7634   0.918   4.269   4.135  0.6159 -0.5070  0.2950
   83SOPE   C26 7635   0.767   4.132   4.063  0.2519 -1.1220  0.1210
   83SOPE   H6R 7636   0.746   4.077   4.158 -1.0677  1.0843  1.1889
   83SOPE   H6S 7637   0.686   4.208   4.058  1.3251 -0.0194 -0.8421
   83SOPE   C27 7638   0.727   4.040   3.944 -0.7995 -0.3927 -1.0999
   83SOPE   H7R 7639   0.618   4.020   3.947 -1.3821  2.2304 -1.9991
   83SOPE   H7S 7640   0.745   4.101   3.853 -0.1834  1.0429 -0.0637
   83SOPE   C28 7641   0.799   3.906   3.943 -0.5952 -0.1351 -0.2906
   83SOPE   H8R 7642   0.907   3.920   3.921 -0.7266  2.2744  0.2834
   83SOPE   H8S 7643   0.785   3.860   4.043  1.5729 -0.6919 -0.1847
   83SOPE   C29 7644   0.746   3.812   3.834 -0.3639 -0.6057  0.6313
   83SOPE   H91 7645   0.798   3.817   3.737  1.7983  0.7455  1.7821
   83SOPE  C210 7646   0.652   3.717   3.846  0.3710 -0.2702  0.3107
   83SOPE  H101 7647   0.627   3.654   3.760 -2.0320 -0.6691  1.2452
   83SOPE  C211 7648   0.571   3.693   3.964  1.0441  0.0136 -0.4227
   83SOPE  H11R 7649   0.465   3.695   3.928  1.4374  1.1765 -1.6182
   83SOPE  H11S 7650   0.588   3.776   4.036  0.2282 -0.1469 -0.0355
   83SOPE  C212 7651   0.597   3.556   4.024 -0.1889 -0.0122 -0.5721
   83SOPE  H12R 7652   0.705   3.535   4.040  0.1970  1.6062 -0.8403
   83SOPE  H12S 7653   0.568   3.479   3.950 -1.0455 -0.8629  0.6267
   83SOPE  C213 7654   0.541   3.543   4.170 -0.0685  0.1205  0.9545
   83SOPE  H13R 7655   0.444   3.499   4.139  2.0884 -1.6215 -4.7455
   83SOPE  H13S 7656   0.540   3.645   4.213 -1.1618  0.8052 -0.5797
   83SOPE  C214 7657   0.625   3.440   4.249  0.1730  0.6278  0.1538
   83SOPE  H14R 7658   0.731   3.469   4.240  1.1099 -2.1703  0.9495
   83SOPE  H14S 7659   0.636   3.343   4.195  3.2139  2.3236 -2.5861
   83SOPE  C215 7660   0.580   3.433   4.396  0.0265 -0.1651 -0.2854
   83SOPE  H15R 7661   0.477   3.398   4.419  0.5519 -0.7117  1.4189
   83SOPE  H15S 7662   0.587   3.535   4.439  0.4528  0.8456 -2.6452
   83SOPE  C216 7663   0.683   3.346   4.480  0.0195  0.5604 -0.5234
   83SOPE  H16R 7664   0.788   3.374   4.459  0.2437  1.1050  1.1678
   83SOPE  H16S 7665   0.676   3.242   4.443 -0.2999  0.9588 -1.6131
   83SOPE  C217 7666   0.654   3.342   4.626 -0.8129 -0.3271 -0.6238
   83SOPE  H17R 7667   0.701   3.255   4.675 -0.9102  1.1969  2.4122
   83SOPE  H17S 7668   0.544   3.331   4.640 -1.1772  0.5525 -2.4372
   83SOPE  C218 7669   0.702   3.464   4.708  0.4586 -0.1960  1.1071
   83SOPE  H18R 7670   0.677   3.446   4.815  1.0581  0.8794  1.4391
   83SOPE  H18S 7671   0.648   3.553   4.668  1.2063 -0.7329 -1.2314
   83SOPE  H18T 7672   0.811   3.475   4.690  0.3918 -1.5276 -0.2537
   83SOPE   C33 7673   0.293   4.033   3.674 -0.3942  0.1017 -0.2265
   83SOPE   H3X 7674   0.269   3.954   3.600 -2.3064  1.6805 -1.4045
   83SOPE   H3Y 7675   0.231   4.118   3.639 -0.2610  0.9120  1.4008
   83SOPE   C34 7676   0.247   3.992   3.811  0.0392 -0.2140 -0.5671
   83SOPE   H4X 7677   0.274   3.886   3.829 -0.7811 -0.4339 -0.6113
   83SOPE   H4Y 7678   0.136   3.994   3.818  0.1201  0.0169  1.2812
   83SOPE   C35 7679   0.296   4.086   3.927 -0.4301 -0.3405  0.6285
   83SOPE   H5X 7680   0.252   4.184   3.900 -0.2322 -0.6046 -0.6849
   83SOPE   H5Y 7681   0.406   4.095   3.938  0.0704 -2.0096 -2.0655
   83SOPE   C36 7682   0.242   4.037   4.062  0.4356  0.1483 -0.1379
   83SOPE   H6X 7683   0.139   3.997   4.056  0.0484  1.1459 -0.2639
   83SOPE   H6Y 7684   0.241   4.108   4.147 -1.3449  0.3296 -0.2741
   83SOPE   C37 7685   0.330   3.916   4.110 -0.7564 -0.6386  1.1728
   83SOPE   H7X 7686   0.416   3.967   4.157 -1.2935  1.8604 -0.3732
   83SOPE   H7Y 7687   0.357   3.858   4.019 -2.6061  0.1516  0.0586
   83SOPE   C38 7688   0.255   3.835   4.218  0.1031  0.2527  0.3897
   83SOPE   H8X 7689   0.218   3.898   4.301 -0.5738 -1.1486  1.1866
   83SOPE   H8Y 7690   0.332   3.761   4.250  0.2898  0.2956  0.0399
   83SOPE   C39 7691   0.149   3.746   4.154 -0.1236  0.2367 -0.0966
   83SOPE   H9X 7692   0.165   3.726   4.046 -1.2443 -0.8837 -0.0852
   83SOPE   H9Y 7693   0.053   3.799   4.137 -0.1566  0.4576  0.7432
   83SOPE  C310 7694   0.119   3.626   4.238  0.4089  0.0077 -0.1049
   83SOPE  H10X 7695   0.212   3.570   4.264  1.2557  2.0027  1.4380
   83SOPE  H10Y 7696   0.058   3.559   4.175  1.3819  0.6660 -1.8328
   83SOPE  C311 7697   0.055   3.657   4.376  0.4252 -0.7715 -0.2965
   83SOPE  H11X 7698   0.121   3.712   4.448 -0.1850 -0.1425 -0.2083
   83SOPE  H11Y 7699   0.038   3.554   4.414 -0.2205 -0.3140  0.6931
   83SOPE  C312 7700  -0.081   3.733   4.368 -0.3286 -0.2445 -0.3383
   83SOPE  H12X 7701  -0.142   3.666   4.303 -0.8658 -0.7224  0.6334
   83SOPE  H12Y 7702  -0.067   3.827   4.311 -0.0669  0.4407  0.8392
   83SOPE  C313 7703  -0.161   3.757   4.496  0.1502 -0.0421  0.4380
   83SOPE  H13X 7704  -0.244   3.828   4.472 -2.7092 -3.0526  0.7184
   83SOPE  H13Y 7705  -0.104   3.812   4.574  1.2593 -0.7003  0.1096
   83SOPE  C314 7706  -0.212   3.628   4.551  0.1981  0.1358  0.0019
   83SOPE  H14X 7707  -0.128   3.558   4.573 -1.0503 -1.0826  1.0369
   83SOPE  H14Y 7708  -0.275   3.584   4.471  0.0974  2.4346 -1.2622
   83SOPE  C315 7709  -0.299   3.658   4.674 -0.4468  0.3694  0.5663
   83SOPE  H15X 7710  -0.390   3.716   4.650 -0.8012 -0.3628  0.1444
   83SOPE  H15Y 7711  -0.243   3.713   4.754  1.7333  1.4561 -1.5896
   83SOPE  C316 7712  -0.332   3.524   4.742  1.1901  0.2098 -0.5451
   83SOPE  H16X 7713  -0.247   3.457   4.767  1.5564  0.4168 -1.1974
   83SOPE  H16Y 7714  -0.387   3.467   4.664  3.8872 -0.5022 -2.0398
   83SOPE  C317 7715  -0.426   3.543   4.863 -0.4809  0.7679 -0.4155
   83SOPE  H17X 7716  -0.511   3.601   4.821 -0.1330  1.3612 -0.3128
   83SOPE  H17Y 7717  -0.376   3.607   4.939 -1.3317  1.7675 -0.6685
   83SOPE  C318 7718  -0.477   3.410   4.926 -0.2544 -0.6888 -0.1370
   83SOPE  H18X 7719  -0.522   3.337   4.856 -1.3007  1.2441 -1.5753
   83SOPE  H18Y 7720  -0.560   3.435   4.996 -0.5149  2.0810 -1.2695
   83SOPE  H18Z 7721  -0.396   3.358   4.981  0.8409 -0.5240 -1.5360
   84SOPE     N 7722   0.048   3.567   2.523 -0.3068  0.0601 -0.7773
   84SOPE   HN1 7723   0.125   3.502   2.546  0.7226  2.0880  2.0165
   84SOPE   HN2 7724  -0.036   3.517   2.559  0.6603 -1.8239 -1.0665
   84SOPE   HN3 7725   0.041   3.580   2.420  1.8192  2.5024 -0.7200
   84SOPE   C12 7726   0.086   3.681   2.609 -0.6141 -0.1774  0.4401
   84SOPE  H12A 7727  -0.002   3.748   2.624 -0.9106 -0.6753  0.9891
   84SOPE  H12B 7728   0.169   3.733   2.558 -1.1214  1.2646  1.0422
   84SOPE   C11 7729   0.140   3.642   2.745  0.4527 -0.1111 -0.0588
   84SOPE  H11A 7730   0.230   3.577   2.737  0.9407  0.7564 -2.4812
   84SOPE  H11B 7731   0.063   3.585   2.801 -0.5154 -0.2031 -1.4113
   84SOPE     P 7732   0.323   3.814   2.828  0.4455  0.1059 -0.3272
   84SOPE   O13 7733   0.328   3.965   2.848  0.6887  0.0792  0.2608
   84SOPE   O14 7734   0.398   3.765   2.708  0.1650  0.0735 -0.1370
   84SOPE   O12 7735   0.176   3.763   2.802  0.6100 -0.3720 -0.1205
   84SOPE   O11 7736   0.389   3.748   2.954  0.1577  0.3283  0.0882
   84SOPE    C1 7737   0.314   3.735   3.073  0.2896  0.0715  0.2259
   84SOPE    HA 7738   0.230   3.663   3.059  0.9305 -0.9238  1.2979
   84SOPE    HB 7739   0.272   3.833   3.104 -0.0146 -0.0720  0.2727
   84SOPE    C2 7740   0.404   3.681   3.181 -0.3582 -0.3633 -0.3423
   84SOPE    HS 7741   0.433   3.576   3.157 -2.4036 -0.6188 -1.8927
   84SOPE   O21 7742   0.352   3.701   3.310 -0.2167  1.0651 -0.2257
   84SOPE   C21 7743   0.299   3.591   3.371 -0.5281 -0.6643  0.3942
   84SOPE   O22 7744   0.274   3.487   3.310 -0.2605  0.5104  0.1710
   84SOPE   C22 7745   0.264   3.626   3.516  0.1662 -0.0068  0.7160
   84SOPE   H2R 7746   0.172   3.689   3.514 -2.3337 -3.3176 -2.9295
   84SOPE   H2S 7747   0.354   3.675   3.561  0.2581  1.1716 -0.6645
   84SOPE    C3 7748   0.537   3.768   3.174  0.1859  0.2646  0.0153
   84SOPE    HX 7749   0.506   3.874   3.170 -1.5658 -0.2566 -1.0097
   84SOPE    HY 7750   0.597   3.750   3.082  0.6124  1.1147  0.1134
   84SOPE   O31 7751   0.614   3.746   3.291 -0.1777 -0.0144  0.1247
   84SOPE   C31 7752   0.696   3.636   3.276  0.0717  0.4772 -0.4001
   84SOPE   O32 7753   0.712   3.571   3.176  0.0921  0.8124 -0.0545
   84SOPE   C32 7754   0.762   3.610   3.411  0.3475 -0.9953 -0.1582
   84SOPE   H2X 7755   0.761   3.703   3.472  1.2538 -0.4643 -0.9277
   84SOPE   H2Y 7756   0.867   3.581   3.389  1.1639  0.1152  1.9827
   84SOPE   C23 7757   0.238   3.490   3.591  0.4687 -0.1171  0.3276
   84SOPE   H3R 7758   0.318   3.414   3.578 -0.4389 -0.6139 -4.1211
   84SOPE   H3S 7759   0.147   3.449   3.542  0.7972  0.3911 -0.7261
   84SOPE   C24 7760   0.193   3.506   3.739 -0.4264  0.1192  0.2682
   84SOPE   H4R 7761   0.274   3.545   3.804 -0.1052 -1.3548  0.7910
   84SOPE   H4S 7762   0.106   3.573   3.753 -0.3308  0.2505  0.2373
   84SOPE   C25 7763   0.158   3.359   3.799 -0.7019 -0.6373 -0.0123
   84SOPE   H5R 7764   0.080   3.310   3.736 -0.8137 -0.3777 -0.0745
   84SOPE   H5S 7765   0.251   3.301   3.783 -1.1045 -0.8001 -2.0094
   84SOPE   C26 7766   0.136   3.379   3.948 -0.0787 -0.3669  0.4288
   84SOPE   H6R 7767   0.234   3.418   3.983  0.2364  1.0025 -1.7502
   84SOPE   H6S 7768   0.058   3.449   3.984  0.8956  0.9016  0.1832
   84SOPE   C27 7769   0.114   3.239   4.004  0.2288 -0.3358  0.9963
   84SOPE   H7R 7770   0.015   3.198   3.975  1.1025 -2.3846  0.7918
   84SOPE   H7S 7771   0.186   3.169   3.958  1.1757  1.3052 -0.1253
   84SOPE   C28 7772   0.117   3.230   4.166 -0.8050  0.0736 -0.0064
   84SOPE   H8R 7773   0.059   3.312   4.214 -3.1684 -1.9297  0.7651
   84SOPE   H8S 7774   0.058   3.139   4.188  0.3387 -0.5620  0.5132
   84SOPE   C29 7775   0.253   3.207   4.218  0.2027  0.5907  0.1294
   84SOPE   H91 7776   0.337   3.237   4.153  0.2504  1.9334  0.7959
   84SOPE  C210 7777   0.285   3.165   4.347 -0.3128  0.1393  0.9853
   84SOPE  H101 7778   0.389   3.133   4.359  0.4842  2.0309 -0.4171
   84SOPE  C211 7779   0.188   3.140   4.462 -0.1869 -0.2985 -0.7984
   84SOPE  H11R 7780   0.199   3.039   4.508  0.2041  0.1972  0.2200
   84SOPE  H11S 7781   0.083   3.150   4.427 -0.8503 -0.3556  1.0789
   84SOPE  C212 7782   0.219   3.238   4.573 -0.2212 -0.1330 -0.0649
   84SOPE  H12R 7783   0.329   3.243   4.581 -0.2336 -0.7861  0.5955
   84SOPE  H12S 7784   0.178   3.208   4.672  2.4055  0.7998  1.3996
   84SOPE  C213 7785   0.183   3.382   4.543  0.3455  0.6141  0.4811
   84SOPE  H13R 7786   0.076   3.367   4.520  0.0337 -0.1441  2.2564
   84SOPE  H13S 7787   0.244   3.417   4.457  2.2156 -0.3150  1.3643
   84SOPE  C214 7788   0.203   3.479   4.652  0.1119 -0.1631 -0.5985
   84SOPE  H14R 7789   0.184   3.582   4.612 -0.7232 -0.6584 -1.5230
   84SOPE  H14S 7790   0.313   3.479   4.670  0.6593  0.3707 -3.4166
   84SOPE  C215 7791   0.114   3.460   4.777  0.3616 -0.8218  0.5100
   84SOPE  H15R 7792   0.171   3.382   4.832  1.6269  0.1876  0.6760
   84SOPE  H15S 7793   0.008   3.434   4.757 -0.3716  2.5701 -0.7204
   84SOPE  C216 7794   0.109   3.588   4.876 -0.0849 -0.5139  0.2501
   84SOPE  H16R 7795   0.007   3.625   4.898 -0.0884 -0.7230  0.5854
   84SOPE  H16S 7796   0.159   3.671   4.821 -0.8198  0.0009  0.3407
   84SOPE  C217 7797   0.178   3.563   5.014  1.0505  0.3725 -0.0569
   84SOPE  H17R 7798   0.282   3.527   4.998  1.2119  1.7951 -2.6666
   84SOPE  H17S 7799   0.122   3.478   5.059 -1.3850  2.8276  1.9366
   84SOPE  C218 7800   0.175   3.676   5.118  0.4641  0.2179  0.1034
   84SOPE  H18R 7801   0.221   3.642   5.214  1.2125 -0.1652 -0.3805
   84SOPE  H18S 7802   0.072   3.712   5.141 -0.3660 -1.2740 -1.1282
   84SOPE  H18T 7803   0.234   3.766   5.091  0.8084  1.1848  3.5354
   84SOPE   C33 7804   0.692   3.506   3.504 -0.4259  0.5269 -0.4127
   84SOPE   H3X 7805   0.586   3.539   3.508 -1.2564 -2.0372  0.2417
   84SOPE   H3Y 7806   0.744   3.512   3.602 -0.2521  1.7323 -0.5656
   84SOPE   C34 7807   0.703   3.362   3.445 -0.2508 -0.3843 -0.7146
   84SOPE   H4X 7808   0.811   3.343   3.429 -0.1087 -1.1618  1.0154
   84SOPE   H4Y 7809   0.648   3.374   3.349  0.2307  0.4167 -0.8970
   84SOPE   C35 7810   0.649   3.258   3.539  0.1376  0.9245 -0.1625
   84SOPE   H5X 7811   0.670   3.160   3.491  2.0954  0.9627  0.5203
   84SOPE   H5Y 7812   0.541   3.286   3.541  0.6067  2.8461 -0.2607
   84SOPE   C36 7813   0.708   3.257   3.679 -0.3982  0.5560  0.2172
   84SOPE   H6X 7814   0.686   3.349   3.738 -1.0776  0.1542  0.6046
   84SOPE   H6Y 7815   0.818   3.243   3.684 -0.4445 -1.4126 -2.3293
   84SOPE   C37 7816   0.628   3.144   3.757 -0.1582  0.6126 -0.6219
   84SOPE   H7X 7817   0.637   3.055   3.690  1.1428 -0.1981  0.5726
   84SOPE   H7Y 7818   0.521   3.162   3.778  0.4398  0.8012  2.9199
   84SOPE   C38 7819   0.699   3.093   3.881  0.5173  0.6071 -0.5594
   84SOPE   H8X 7820   0.765   3.174   3.921 -1.3372  0.8491  2.3404
   84SOPE   H8Y 7821   0.765   3.010   3.848 -1.6089 -1.8468  0.9741
   84SOPE   C39 7822   0.598   3.038   3.981 -0.6058  0.7962 -0.0291
   84SOPE   H9X 7823   0.528   2.960   3.943 -1.3909  0.1023  2.6271
   84SOPE   H9Y 7824   0.542   3.124   4.022 -3.1999 -0.8200 -0.0021
   84SOPE  C310 7825   0.664   2.975   4.107  0.4317  0.3651 -0.6661
   84SOPE  H10X 7826   0.716   3.056   4.162  0.7873 -0.8032  0.7589
   84SOPE  H10Y 7827   0.731   2.900   4.059 -0.5046 -1.2611  0.4921
   84SOPE  C311 7828   0.546   2.922   4.196  0.1145 -0.5969  0.2010
   84SOPE  H11X 7829   0.469   2.876   4.130 -0.2262  0.9259 -0.5010
   84SOPE  H11Y 7830   0.498   3.018   4.224  1.5944  0.1807  0.1399
   84SOPE  C312 7831   0.584   2.811   4.304  0.5431 -0.6359  0.1846
   84SOPE  H12X 7832   0.577   2.711   4.256  1.2384 -0.6356  0.0713
   84SOPE  H12Y 7833   0.513   2.812   4.390 -0.6135  1.5298 -0.6877
   84SOPE  C313 7834   0.732   2.824   4.351  0.1713 -0.7107 -0.5222
   84SOPE  H13X 7835   0.747   2.927   4.389  0.9530 -0.7794 -0.6463
   84SOPE  H13Y 7836   0.796   2.818   4.261  0.9664  1.0611 -0.1165
   84SOPE  C314 7837   0.769   2.716   4.446  0.3375 -0.4496  0.0323
   84SOPE  H14X 7838   0.752   2.617   4.398  0.3907 -1.1966  1.5171
   84SOPE  H14Y 7839   0.705   2.719   4.536  0.4784 -0.3423  0.1297
   84SOPE  C315 7840   0.914   2.725   4.502 -0.2497  0.5602  0.3450
   84SOPE  H15X 7841   0.926   2.816   4.565  1.4140 -0.9548  2.3822
   84SOPE  H15Y 7842   0.989   2.742   4.423 -2.4440  0.1947 -1.9275
   84SOPE  C316 7843   0.962   2.611   4.591  0.5800 -0.4904 -0.1250
   84SOPE  H16X 7844   0.935   2.508   4.559  0.0404 -0.5674  0.5429
   84SOPE  H16Y 7845   0.920   2.624   4.693 -2.3366 -3.0440 -0.8273
   84SOPE  C317 7846   1.116   2.596   4.578  0.1577  0.2618  0.0563
   84SOPE  H17X 7847   1.168   2.687   4.613 -0.6722  0.2885  1.2919
   84SOPE  H17Y 7848   1.147   2.574   4.474 -0.7318 -0.3142 -0.0985
   84SOPE  C318 7849   1.163   2.484   4.666 -0.1466 -0.8729 -0.2248
   84SOPE  H18X 7850   1.140   2.391   4.610  0.0142 -0.3741 -1.1388
   84SOPE  H18Y 7851   1.111   2.477   4.764  1.5276  1.6383  0.9531
   84SOPE  H18Z 7852   1.272   2.470   4.683 -0.0109 -1.5497 -1.5340
   85SOPE     N 7853   3.804   2.372   2.649 -0.0716 -0.2857 -0.5556
   85SOPE   HN1 7854   3.762   2.356   2.555  2.1007 -1.2778 -1.4311
   85SOPE   HN2 7855   3.814   2.473   2.672  1.6363 -0.9215  2.0288
   85SOPE   HN3 7856   3.903   2.338   2.651  0.0233  0.0195  1.0189
   85SOPE   C12 7857   3.725   2.296   2.756  0.1080 -0.4514 -0.1784
   85SOPE  H12A 7858   3.626   2.346   2.769 -0.8297 -2.5988  1.7364
   85SOPE  H12B 7859   3.790   2.312   2.845 -0.5693  0.5406  0.1667
   85SOPE   C11 7860   3.721   2.150   2.725 -0.5353  0.0191  0.6504
   85SOPE  H11A 7861   3.693   2.081   2.807  1.1510 -2.2461 -0.5704
   85SOPE  H11B 7862   3.825   2.122   2.696 -0.1766  2.7435 -1.1101
   85SOPE     P 7863   3.496   2.069   2.618 -0.1152 -0.3695  0.0369
   85SOPE   O13 7864   3.417   2.068   2.491  0.0858 -0.3726 -0.1774
   85SOPE   O14 7865   3.436   2.124   2.741  0.3890  0.0242 -0.3691
   85SOPE   O12 7866   3.636   2.131   2.604 -0.1747  0.0834  0.6521
   85SOPE   O11 7867   3.530   1.922   2.659 -0.2909 -0.2664  0.2620
   85SOPE    C1 7868   3.441   1.821   2.700 -0.0885 -0.6991  0.0662
   85SOPE    HA 7869   3.487   1.723   2.674 -0.2541 -0.3186 -1.8165
   85SOPE    HB 7870   3.349   1.821   2.638 -0.1808 -0.2112  0.1974
   85SOPE    C2 7871   3.410   1.834   2.851  0.3277  0.5199 -0.6611
   85SOPE    HS 7872   3.387   1.936   2.890 -3.6934 -0.6476  0.4434
   85SOPE   O21 7873   3.531   1.789   2.913 -0.6261  0.0374  0.3159
   85SOPE   C21 7874   3.559   1.818   3.043 -0.7009 -0.7211 -0.1905
   85SOPE   O22 7875   3.508   1.911   3.107  0.1536 -0.0311 -0.2482
   85SOPE   C22 7876   3.665   1.734   3.102  0.1800 -0.0752  0.2193
   85SOPE   H2R 7877   3.763   1.749   3.052 -0.0041 -0.3916 -0.2454
   85SOPE   H2S 7878   3.639   1.629   3.077  2.4472 -1.0738  1.7465
   85SOPE    C3 7879   3.294   1.740   2.900 -0.4959 -0.3202 -0.0501
   85SOPE    HX 7880   3.327   1.640   2.866  1.4126  0.6378 -1.1636
   85SOPE    HY 7881   3.214   1.783   2.835 -0.3500  1.7597  1.0344
   85SOPE   O31 7882   3.264   1.747   3.038  0.1256  0.7374  0.3252
   85SOPE   C31 7883   3.180   1.853   3.076  0.0490  0.4307  0.0214
   85SOPE   O32 7884   3.148   1.947   3.006  0.2473 -0.1081 -0.3230
   85SOPE   C32 7885   3.128   1.828   3.220 -0.8408  0.0286  0.3748
   85SOPE   H2X 7886   3.032   1.880   3.235 -0.6119  0.5688 -0.0035
   85SOPE   H2Y 7887   3.209   1.855   3.291 -0.2672 -0.4360 -0.0769
   85SOPE   C23 7888   3.678   1.741   3.258 -0.3182  0.0217  0.7564
   85SOPE   H3R 7889   3.677   1.848   3.290 -3.2364 -0.3210  2.1031
   85SOPE   H3S 7890   3.774   1.692   3.285  0.3068  2.0175  2.4550
   85SOPE   C24 7891   3.566   1.658   3.324  0.1832 -0.6387  0.3665
   85SOPE   H4R 7892   3.468   1.705   3.298  1.3725  1.0452 -1.3598
   85SOPE   H4S 7893   3.576   1.557   3.280 -0.3452 -1.8305  2.8086
   85SOPE   C25 7894   3.584   1.650   3.475  0.1062 -0.0176 -0.1607
   85SOPE   H5R 7895   3.677   1.592   3.492 -0.8603 -0.8361  2.9847
   85SOPE   H5S 7896   3.611   1.752   3.512 -1.8929  1.7282 -3.0671
   85SOPE   C26 7897   3.463   1.580   3.547  0.1481 -0.4151  0.6355
   85SOPE   H6R 7898   3.361   1.617   3.523  1.2369  1.9589 -0.6899
   85SOPE   H6S 7899   3.464   1.469   3.537  1.9331 -0.2797 -1.4834
   85SOPE   C27 7900   3.458   1.593   3.702  0.2283 -0.6959 -0.3727
   85SOPE   H7R 7901   3.372   1.532   3.738 -2.6676  1.0877 -3.6298
   85SOPE   H7S 7902   3.545   1.560   3.762 -1.4167 -0.6431  2.1665
   85SOPE   C28 7903   3.431   1.739   3.759 -0.0964  0.2268  1.0291
   85SOPE   H8R 7904   3.445   1.738   3.869  0.6038  0.7817  0.9449
   85SOPE   H8S 7905   3.519   1.795   3.721  0.0298  0.3458  1.4853
   85SOPE   C29 7906   3.305   1.818   3.722  0.5544  0.1093  0.8322
   85SOPE   H91 7907   3.296   1.828   3.613  3.1565  0.7717  0.6207
   85SOPE  C210 7908   3.219   1.873   3.811 -0.5540 -0.1007 -0.8510
   85SOPE  H101 7909   3.129   1.931   3.785 -1.1763 -0.3025  0.7495
   85SOPE  C211 7910   3.229   1.864   3.964 -0.7556  0.6023  0.1583
   85SOPE  H11R 7911   3.220   1.964   4.012 -1.3257  1.2417 -1.2515
   85SOPE  H11S 7912   3.324   1.816   3.997 -1.5760 -2.5941 -1.7194
   85SOPE  C212 7913   3.113   1.792   4.029 -0.2406 -0.5422  0.0110
   85SOPE  H12R 7914   3.086   1.710   3.959  0.4559 -0.5620 -0.2504
   85SOPE  H12S 7915   3.024   1.857   4.040  0.8592  0.7757  1.6457
   85SOPE  C213 7916   3.154   1.727   4.164  0.7088  0.0160 -0.8005
   85SOPE  H13R 7917   3.183   1.798   4.245  1.3057  0.1215 -1.0962
   85SOPE  H13S 7918   3.243   1.664   4.144  0.8338 -0.3090  0.7286
   85SOPE  C214 7919   3.040   1.635   4.216 -0.3316  0.3598  0.2116
   85SOPE  H14R 7920   3.022   1.558   4.138 -0.3742  1.4656 -0.9043
   85SOPE  H14S 7921   2.952   1.703   4.208 -1.0140 -0.5050  0.1525
   85SOPE  C215 7922   3.062   1.580   4.365 -0.3635 -0.0592  0.4623
   85SOPE  H15R 7923   3.075   1.673   4.424  0.6691  1.7104 -2.3506
   85SOPE  H15S 7924   3.160   1.528   4.354 -0.1034  0.4032  0.5847
   85SOPE  C216 7925   2.946   1.501   4.418 -0.4939  0.3243  0.8347
   85SOPE  H16R 7926   2.932   1.401   4.370 -0.3678  0.2382  0.9760
   85SOPE  H16S 7927   2.849   1.553   4.405 -0.4570  0.2601  0.3005
   85SOPE  C217 7928   2.965   1.460   4.566 -0.0145 -0.2866 -0.0132
   85SOPE  H17R 7929   2.969   1.554   4.626  0.6494 -1.0419  1.1555
   85SOPE  H17S 7930   3.055   1.397   4.580  0.0823  0.0268  0.8318
   85SOPE  C218 7931   2.845   1.383   4.620  0.2736 -0.2788 -0.1524
   85SOPE  H18R 7932   2.815   1.293   4.563  0.4720  0.5970 -1.6758
   85SOPE  H18S 7933   2.762   1.457   4.609  0.7956  0.4970  0.8757
   85SOPE  H18T 7934   2.858   1.356   4.727 -2.2086 -1.3730 -0.0468
   85SOPE   C33 7935   3.089   1.679   3.224 -0.2987  0.4431  0.3425
   85SOPE   H3X 7936   3.188   1.631   3.243  0.9597  1.9963 -1.8448
   85SOPE   H3Y 7937   3.046   1.650   3.127  1.0922  0.1164 -0.2051
   85SOPE   C34 7938   2.986   1.655   3.332  0.5518 -0.2892  0.0930
   85SOPE   H4X 7939   2.938   1.555   3.324 -0.1741  0.0701 -0.0962
   85SOPE   H4Y 7940   2.902   1.724   3.308  0.7154 -0.1935 -0.2163
   85SOPE   C35 7941   3.017   1.696   3.475  0.5194 -0.4068  0.0028
   85SOPE   H5X 7942   3.058   1.800   3.476 -3.6657  1.4641  0.3389
   85SOPE   H5Y 7943   3.089   1.626   3.521  2.5183  0.6586 -1.3335
   85SOPE   C36 7944   2.887   1.707   3.559 -0.0121  0.2875  0.0901
   85SOPE   H6X 7945   2.843   1.605   3.547  1.6334 -0.2629 -1.7687
   85SOPE   H6Y 7946   2.818   1.783   3.517 -0.5243 -1.9355 -3.5663
   85SOPE   C37 7947   2.909   1.718   3.713 -0.1693 -0.2653  0.9985
   85SOPE   H7X 7948   2.933   1.819   3.753 -2.5486 -0.6817  3.7856
   85SOPE   H7Y 7949   2.984   1.645   3.750 -0.5154  0.3932  3.0948
   85SOPE   C38 7950   2.766   1.701   3.767  0.4053 -0.1676 -0.2524
   85SOPE   H8X 7951   2.719   1.608   3.729 -0.6449 -0.1583  0.9318
   85SOPE   H8Y 7952   2.701   1.786   3.740  2.2546  1.5129  0.3133
   85SOPE   C39 7953   2.769   1.692   3.923  0.3969 -0.0694  0.6479
   85SOPE   H9X 7954   2.784   1.787   3.979  1.1879 -0.5768  1.3070
   85SOPE   H9Y 7955   2.851   1.622   3.949  1.2605  0.4919 -0.4627
   85SOPE  C310 7956   2.638   1.639   3.982 -0.3068  0.2813  0.6265
   85SOPE  H10X 7957   2.613   1.532   3.968 -1.9812  0.7587 -0.3560
   85SOPE  H10Y 7958   2.552   1.697   3.943  0.7087  0.3167 -1.7303
   85SOPE  C311 7959   2.641   1.656   4.128  0.5755 -0.0467  0.1133
   85SOPE  H11X 7960   2.661   1.762   4.155 -3.2231  1.1005 -0.9277
   85SOPE  H11Y 7961   2.722   1.594   4.172 -0.9838 -0.4584  2.5950
   85SOPE  C312 7962   2.511   1.605   4.200  0.0988 -0.0358  0.5839
   85SOPE  H12X 7963   2.493   1.502   4.164 -0.2247 -0.1925  1.1928
   85SOPE  H12Y 7964   2.418   1.663   4.184 -0.3114 -0.9572 -0.4992
   85SOPE  C313 7965   2.538   1.570   4.346 -0.0929 -0.0278 -0.0280
   85SOPE  H13X 7966   2.594   1.650   4.399 -1.4551  0.5005  0.6664
   85SOPE  H13Y 7967   2.591   1.473   4.347 -0.7881 -0.4308 -0.8113
   85SOPE  C314 7968   2.402   1.538   4.402 -0.1917  0.5078 -0.1961
   85SOPE  H14X 7969   2.334   1.485   4.333 -1.5947  0.2680  1.3154
   85SOPE  H14Y 7970   2.358   1.633   4.440  0.3297 -0.1955  2.3937
   85SOPE  C315 7971   2.428   1.455   4.533 -0.0458 -0.2728  0.7304
   85SOPE  H15X 7972   2.522   1.494   4.576 -0.2959  1.4265 -0.1880
   85SOPE  H15Y 7973   2.437   1.353   4.489  0.8665  0.6792 -1.4171
   85SOPE  C316 7974   2.319   1.472   4.638 -0.1204 -0.1993  0.4675
   85SOPE  H16X 7975   2.220   1.437   4.600 -0.3544 -1.1645  1.8674
   85SOPE  H16Y 7976   2.314   1.579   4.667 -1.7956  0.5323 -2.1671
   85SOPE  C317 7977   2.348   1.407   4.770  0.0824 -0.5363 -0.6148
   85SOPE  H17X 7978   2.429   1.464   4.819  1.4423 -1.0829 -2.1331
   85SOPE  H17Y 7979   2.372   1.298   4.762 -0.6933 -0.8691  1.1274
   85SOPE  C318 7980   2.224   1.418   4.858 -0.2315  0.3736  0.7534
   85SOPE  H18X 7981   2.155   1.333   4.839 -0.1285  0.6311 -0.9115
   85SOPE  H18Y 7982   2.169   1.512   4.836 -2.3497 -1.4040 -2.3117
   85SOPE  H18Z 7983   2.260   1.418   4.963  3.7540  0.5606 -0.4573
   86SOPE     N 7984   3.131   5.627   2.525 -0.5935 -0.1823 -0.0733
   86SOPE   HN1 7985   3.042   5.680   2.533 -1.4482 -1.6856  1.0793
   86SOPE   HN2 7986   3.206   5.678   2.474  1.6075  0.2191  3.2232
   86SOPE   HN3 7987   3.123   5.536   2.475 -0.8117 -0.6663  0.8023
   86SOPE   C12 7988   3.171   5.606   2.669  0.1071 -0.3840  0.5284
   86SOPE  H12A 7989   3.182   5.496   2.684  0.0088 -0.7836 -2.0231
   86SOPE  H12B 7990   3.096   5.647   2.740 -0.4410 -0.3166 -0.0790
   86SOPE   C11 7991   3.303   5.681   2.695 -0.8694  0.7302 -0.1198
   86SOPE  H11A 7992   3.380   5.609   2.659 -1.4498  0.5708 -1.1088
   86SOPE  H11B 7993   3.310   5.693   2.805  1.5309  2.0373 -0.3640
   86SOPE     P 7994   3.438   5.897   2.659  0.5752 -0.2105 -0.1042
   86SOPE   O13 7995   3.411   6.031   2.592 -0.5767 -0.2906  0.4357
   86SOPE   O14 7996   3.564   5.834   2.626  0.7066 -0.3905 -0.1709
   86SOPE   O12 7997   3.321   5.809   2.628 -0.7712  0.7656 -0.2982
   86SOPE   O11 7998   3.428   5.895   2.817 -0.1148  0.0533  0.1091
   86SOPE    C1 7999   3.333   5.990   2.875 -0.1632 -0.4625 -0.2167
   86SOPE    HA 8000   3.226   5.961   2.865 -0.0612 -0.3710 -1.8640
   86SOPE    HB 8001   3.338   6.093   2.833 -1.8374 -0.1357  0.3385
   86SOPE    C2 8002   3.361   5.997   3.023 -0.2949  0.5274  0.5882
   86SOPE    HS 8003   3.465   6.034   3.037 -0.0983  0.0679  0.3612
   86SOPE   O21 8004   3.347   5.862   3.069  0.7216 -0.0111  0.3659
   86SOPE   C21 8005   3.392   5.840   3.198 -0.4029  0.4370 -0.1999
   86SOPE   O22 8006   3.450   5.922   3.262 -0.3603 -0.0070  0.2344
   86SOPE   C22 8007   3.374   5.695   3.243 -0.0584  0.0649  0.7336
   86SOPE   H2R 8008   3.342   5.638   3.152 -0.5366 -0.4105  1.1916
   86SOPE   H2S 8009   3.291   5.690   3.316  0.8317 -0.3670  1.7253
   86SOPE    C3 8010   3.269   6.094   3.105 -0.5154  0.2045  0.2377
   86SOPE    HX 8011   3.283   6.098   3.215 -4.0272  1.7291  0.7684
   86SOPE    HY 8012   3.167   6.054   3.093  0.0799 -1.0808 -0.7194
   86SOPE   O31 8013   3.272   6.227   3.042 -0.3697  0.3610  0.1514
   86SOPE   C31 8014   3.355   6.317   3.083  0.2317 -0.2392 -0.6217
   86SOPE   O32 8015   3.431   6.307   3.175  0.2821  0.0479 -0.0618
   86SOPE   C32 8016   3.329   6.441   3.001  0.5214  0.7896 -0.0073
   86SOPE   H2X 8017   3.243   6.424   2.934  0.4474 -0.1773  0.3091
   86SOPE   H2Y 8018   3.422   6.446   2.941  1.4618 -2.0234  1.0330
   86SOPE   C23 8019   3.494   5.627   3.308  0.0667  0.3520  0.6916
   86SOPE   H3R 8020   3.573   5.616   3.231 -1.2364 -0.9708 -0.5233
   86SOPE   H3S 8021   3.457   5.522   3.315  1.3216 -0.3919 -2.2167
   86SOPE   C24 8022   3.528   5.683   3.448  0.0946 -0.1010  0.3273
   86SOPE   H4R 8023   3.630   5.656   3.483 -0.5063  0.6123  2.8050
   86SOPE   H4S 8024   3.537   5.794   3.453 -0.7036 -0.0324  0.3221
   86SOPE   C25 8025   3.423   5.625   3.543 -0.2961  0.0125 -0.5811
   86SOPE   H5R 8026   3.332   5.688   3.544 -0.0978  0.2968  0.1527
   86SOPE   H5S 8027   3.387   5.524   3.514 -1.8291  0.4566 -0.2928
   86SOPE   C26 8028   3.479   5.621   3.686 -0.3540 -0.3137  0.3975
   86SOPE   H6R 8029   3.566   5.552   3.688 -1.7253 -2.1204  1.6106
   86SOPE   H6S 8030   3.520   5.723   3.702  1.8042 -1.1346  0.4374
   86SOPE   C27 8031   3.366   5.580   3.784  0.0331 -0.5813  0.2317
   86SOPE   H7R 8032   3.302   5.669   3.766  2.2992  1.5442  1.8779
   86SOPE   H7S 8033   3.304   5.494   3.754 -0.4915  0.2131 -1.0598
   86SOPE   C28 8034   3.408   5.579   3.932 -0.4172  0.5657 -0.0712
   86SOPE   H8R 8035   3.479   5.664   3.941  0.6305 -0.1123 -1.5070
   86SOPE   H8S 8036   3.317   5.603   3.990 -1.2005  0.4658 -1.2404
   86SOPE   C29 8037   3.463   5.457   3.998  0.7600  0.1697  0.4112
   86SOPE   H91 8038   3.468   5.374   3.925  2.3939 -0.0313  0.7150
   86SOPE  C210 8039   3.515   5.448   4.125 -0.3952 -0.1485 -0.0492
   86SOPE  H101 8040   3.550   5.350   4.162 -1.4181 -0.8690 -0.9259
   86SOPE  C211 8041   3.508   5.559   4.232  0.9044  0.2561 -0.1651
   86SOPE  H11R 8042   3.450   5.650   4.207  1.0038  0.3424 -0.0810
   86SOPE  H11S 8043   3.607   5.605   4.254  0.2259  2.3312 -1.1759
   86SOPE  C212 8044   3.447   5.507   4.366  0.2677  0.2506 -0.2032
   86SOPE  H12R 8045   3.502   5.413   4.387 -0.7075 -0.7759 -2.0706
   86SOPE  H12S 8046   3.342   5.475   4.349 -0.0496  1.5126 -0.6859
   86SOPE  C213 8047   3.445   5.614   4.479  0.2657  0.6267 -0.4054
   86SOPE  H13R 8048   3.372   5.696   4.463 -0.0247  0.1045 -1.9594
   86SOPE  H13S 8049   3.543   5.665   4.487  0.2709  0.2784  3.6722
   86SOPE  C214 8050   3.419   5.556   4.619  0.2027  0.1203  0.4284
   86SOPE  H14R 8051   3.506   5.499   4.659  0.0195  0.6957  1.7191
   86SOPE  H14S 8052   3.328   5.494   4.606  2.1199 -2.3101 -2.8076
   86SOPE  C215 8053   3.385   5.666   4.724 -0.2175  0.5264  0.5725
   86SOPE  H15R 8054   3.326   5.742   4.670 -2.3016 -1.2136  0.2488
   86SOPE  H15S 8055   3.485   5.703   4.755  0.6176 -2.0114  1.1898
   86SOPE  C216 8056   3.311   5.602   4.833  0.6333 -0.3905 -0.9590
   86SOPE  H16R 8057   3.386   5.539   4.885  2.0967  1.7082 -0.3895
   86SOPE  H16S 8058   3.231   5.542   4.786  2.3227 -2.2502 -1.5779
   86SOPE  C217 8059   3.239   5.703   4.924  0.2012  0.0370  0.8377
   86SOPE  H17R 8060   3.174   5.773   4.868 -0.2135 -0.6290  0.4820
   86SOPE  H17S 8061   3.323   5.754   4.977  0.7118  1.5686 -1.3113
   86SOPE  C218 8062   3.136   5.629   5.021  1.0340 -0.0338  0.1133
   86SOPE  H18R 8063   3.100   5.530   4.985 -0.4221  0.0759  1.1456
   86SOPE  H18S 8064   3.048   5.694   5.037  1.6928  0.7614  0.5882
   86SOPE  H18T 8065   3.172   5.600   5.123  1.4936  2.2454  0.6497
   86SOPE   C33 8066   3.281   6.568   3.067  0.0447  0.0186 -0.3998
   86SOPE   H3X 8067   3.220   6.626   2.994 -0.8228 -0.1065  0.2167
   86SOPE   H3Y 8068   3.371   6.628   3.093  0.1716 -0.0681 -0.6368
   86SOPE   C34 8069   3.170   6.556   3.177  0.2025 -0.4957  0.5337
   86SOPE   H4X 8070   3.092   6.485   3.142  2.0426 -1.0781 -2.9352
   86SOPE   H4Y 8071   3.126   6.655   3.197  1.6094  0.4735 -0.8866
   86SOPE   C35 8072   3.219   6.513   3.315  0.6513  0.5938 -0.1072
   86SOPE   H5X 8073   3.301   6.580   3.347  0.5853  1.6446 -1.9933
   86SOPE   H5Y 8074   3.260   6.410   3.308 -0.5819  0.0828 -0.1143
   86SOPE   C36 8075   3.098   6.507   3.419 -0.5829  0.4578  0.3885
   86SOPE   H6X 8076   3.044   6.411   3.411  3.4061 -1.9184 -0.4496
   86SOPE   H6Y 8077   3.026   6.587   3.390 -0.6273 -0.3623 -1.9449
   86SOPE   C37 8078   3.158   6.537   3.561 -0.4394 -0.1506  0.1776
   86SOPE   H7X 8079   3.190   6.643   3.558  0.9277 -0.5110  1.0442
   86SOPE   H7Y 8080   3.250   6.478   3.581  0.9463  2.3776  1.8713
   86SOPE   C38 8081   3.055   6.509   3.675 -0.0277  0.0370 -0.0880
   86SOPE   H8X 8082   3.005   6.410   3.665 -2.7276  1.2151  0.8405
   86SOPE   H8Y 8083   2.975   6.582   3.652  0.2293  0.5675  0.6744
   86SOPE   C39 8084   3.107   6.524   3.823  0.9082  0.2763 -0.3947
   86SOPE   H9X 8085   3.158   6.623   3.829 -3.8741  3.1358 -1.2137
   86SOPE   H9Y 8086   3.186   6.447   3.835  1.8193  1.2615  0.1962
   86SOPE  C310 8087   2.990   6.495   3.917 -0.1356  0.0991  0.3417
   86SOPE  H10X 8088   2.944   6.396   3.893 -1.9880  0.8195  0.7328
   86SOPE  H10Y 8089   2.910   6.570   3.902 -2.1900 -0.9126  4.6632
   86SOPE  C311 8090   3.033   6.489   4.065  0.0172 -0.4525  0.2269
   86SOPE  H11X 8091   3.084   6.586   4.087 -0.7644  0.0764 -0.2312
   86SOPE  H11Y 8092   3.108   6.408   4.075  0.5029 -0.3912 -2.2632
   86SOPE  C312 8093   2.915   6.462   4.157 -0.0801 -0.3668 -0.1901
   86SOPE  H12X 8094   2.866   6.367   4.126 -2.5775  0.9909 -0.6316
   86SOPE  H12Y 8095   2.847   6.549   4.143  0.3011 -0.2758 -1.6312
   86SOPE  C313 8096   2.950   6.462   4.305 -0.2854  0.3277  0.1680
   86SOPE  H13X 8097   3.007   6.371   4.333 -1.3962 -0.1812  0.8690
   86SOPE  H13Y 8098   2.863   6.453   4.374 -0.7851 -2.2942 -0.7152
   86SOPE  C314 8099   3.048   6.572   4.343  1.0808  0.4725 -0.0572
   86SOPE  H14X 8100   3.015   6.672   4.308 -1.1312 -0.3625 -0.5436
   86SOPE  H14Y 8101   3.147   6.549   4.298  1.8344  1.4874  1.0527
   86SOPE  C315 8102   3.059   6.566   4.497  0.4033 -0.2991  0.1007
   86SOPE  H15X 8103   3.085   6.466   4.537 -1.0201  0.5644  3.4939
   86SOPE  H15Y 8104   2.962   6.600   4.540  0.3059 -0.3495 -0.0794
   86SOPE  C316 8105   3.165   6.669   4.547  0.3590 -0.2954  0.1120
   86SOPE  H16X 8106   3.147   6.772   4.511  2.2390 -0.7192 -2.3340
   86SOPE  H16Y 8107   3.271   6.645   4.525  0.7740  0.1976  1.4658
   86SOPE  C317 8108   3.157   6.677   4.697 -0.1673 -0.2379 -0.0988
   86SOPE  H17X 8109   3.175   6.578   4.744  0.3946 -1.1252 -2.0405
   86SOPE  H17Y 8110   3.053   6.704   4.726 -0.2424  0.5714 -1.0545
   86SOPE  C318 8111   3.260   6.778   4.755  0.2490 -0.1838 -0.2331
   86SOPE  H18X 8112   3.365   6.741   4.762 -0.1750 -1.2588  0.7153
   86SOPE  H18Y 8113   3.239   6.797   4.862  2.3087 -2.0298  0.5808
   86SOPE  H18Z 8114   3.250   6.878   4.708 -0.9669  0.2272  0.8502
   87SOPE     N 8115   6.329   3.267   2.680 -0.6279 -0.1055 -0.3239
   87SOPE   HN1 8116   6.360   3.168   2.678 -0.1928  0.0165 -2.7240
   87SOPE   HN2 8117   6.410   3.317   2.721 -1.1898 -0.6806  1.5865
   87SOPE   HN3 8118   6.257   3.272   2.756  1.1272 -2.9847  1.7383
   87SOPE   C12 8119   6.286   3.316   2.542 -0.9091  0.3384 -0.3340
   87SOPE  H12A 8120   6.207   3.246   2.508  1.2161 -1.8589 -1.0285
   87SOPE  H12B 8121   6.372   3.311   2.473  0.1190 -0.3790  0.9477
   87SOPE   C11 8122   6.223   3.461   2.551 -0.0183  0.1220  0.0768
   87SOPE  H11A 8123   6.140   3.462   2.626  0.7418 -0.3081  0.9503
   87SOPE  H11B 8124   6.177   3.485   2.453 -0.0684 -1.0566 -0.2060
   87SOPE     P 8125   6.299   3.707   2.608 -0.3929  0.4124  0.1806
   87SOPE   O13 8126   6.198   3.750   2.506  0.1186 -0.1826  0.8785
   87SOPE   O14 8127   6.431   3.773   2.609  0.0964  0.3896 -0.2117
   87SOPE   O12 8128   6.322   3.552   2.593 -0.3062  0.0604 -0.1617
   87SOPE   O11 8129   6.236   3.718   2.749 -0.2390 -0.3063 -0.3399
   87SOPE    C1 8130   6.292   3.644   2.864  0.2657 -0.1312 -1.4406
   87SOPE    HA 8131   6.393   3.686   2.882  0.6855 -1.9464  0.8406
   87SOPE    HB 8132   6.305   3.535   2.849  1.1342 -0.2525 -0.0257
   87SOPE    C2 8133   6.215   3.678   2.995  0.1723  0.9162 -0.0159
   87SOPE    HS 8134   6.108   3.652   2.980  0.4986 -1.7898  1.7184
   87SOPE   O21 8135   6.244   3.814   3.019  0.4071  0.3523  0.1561
   87SOPE   C21 8136   6.145   3.900   3.018 -0.2091  0.1808  0.0349
   87SOPE   O22 8137   6.028   3.879   3.003 -0.1088  0.3829  0.2164
   87SOPE   C22 8138   6.209   4.036   3.036  0.2783 -0.2780  0.1387
   87SOPE   H2R 8139   6.164   4.093   2.952 -0.0491  0.0490  0.5339
   87SOPE   H2S 8140   6.319   4.035   3.020  0.2621 -1.4316 -0.0052
   87SOPE    C3 8141   6.275   3.591   3.107  0.1121  0.0471 -0.6062
   87SOPE    HX 8142   6.381   3.622   3.117 -0.0160  0.0433  1.0140
   87SOPE    HY 8143   6.272   3.486   3.069  0.1134  0.4314 -1.6770
   87SOPE   O31 8144   6.205   3.601   3.233 -0.1145  0.2747  0.2506
   87SOPE   C31 8145   6.246   3.688   3.317 -0.5193 -0.4312  0.3605
   87SOPE   O32 8146   6.339   3.767   3.293  0.0554 -1.1374  0.6197
   87SOPE   C32 8147   6.165   3.682   3.444  0.2813  0.3338 -0.1743
   87SOPE   H2X 8148   6.178   3.580   3.484 -2.4875 -0.0274 -0.0181
   87SOPE   H2Y 8149   6.060   3.682   3.408  0.0802 -1.7980  0.2976
   87SOPE   C23 8150   6.176   4.094   3.176  0.0016 -0.0107  0.1993
   87SOPE   H3R 8151   6.208   4.200   3.179 -0.8272  0.2709 -0.4373
   87SOPE   H3S 8152   6.216   4.021   3.249 -2.9257 -0.6964  1.2751
   87SOPE   C24 8153   6.026   4.102   3.194 -0.1276  0.1051 -0.6039
   87SOPE   H4R 8154   5.983   4.139   3.099 -1.6132 -1.7710 -0.7159
   87SOPE   H4S 8155   5.975   4.004   3.206  0.5467 -0.2150 -0.3089
   87SOPE   C25 8156   5.986   4.182   3.323 -0.4072  0.3580  0.7174
   87SOPE   H5R 8157   6.026   4.283   3.302 -1.4969  0.6979  0.2087
   87SOPE   H5S 8158   5.876   4.189   3.319 -0.3068  2.3957  0.8607
   87SOPE   C26 8159   6.039   4.122   3.454  0.1933  0.1004  0.4724
   87SOPE   H6R 8160   6.041   4.011   3.451  1.5581  0.1156 -0.0502
   87SOPE   H6S 8161   6.148   4.146   3.463  0.4035 -1.1367  1.5471
   87SOPE   C27 8162   5.958   4.179   3.567 -0.5595  0.1155  0.4564
   87SOPE   H7R 8163   5.954   4.289   3.554  1.9753  0.2298  0.0633
   87SOPE   H7S 8164   5.857   4.133   3.564  0.0915 -1.3355 -0.2723
   87SOPE   C28 8165   6.014   4.152   3.717 -0.0180  0.5164 -0.6139
   87SOPE   H8R 8166   6.012   4.041   3.722  0.0457  0.5154 -0.6157
   87SOPE   H8S 8167   6.122   4.181   3.721  0.7348 -2.1715  0.8890
   87SOPE   C29 8168   5.938   4.216   3.829 -0.7945  0.3482 -0.3781
   87SOPE   H91 8169   5.895   4.315   3.810 -2.0534 -0.5761 -2.7053
   87SOPE  C210 8170   5.941   4.162   3.948  0.1640  0.5867 -0.2071
   87SOPE  H101 8171   5.875   4.206   4.025  0.1857  1.0692 -0.4588
   87SOPE  C211 8172   6.006   4.030   3.992  0.2157  0.0236  0.2246
   87SOPE  H11R 8173   6.109   4.040   3.950 -0.0627  1.7205 -0.1162
   87SOPE  H11S 8174   5.942   3.955   3.940  0.5598 -0.1644  0.0664
   87SOPE  C212 8175   6.010   4.010   4.140  0.4708  0.0748 -0.4834
   87SOPE  H12R 8176   6.050   4.099   4.193 -0.2760 -0.5566  1.2148
   87SOPE  H12S 8177   6.078   3.925   4.164  0.9191  0.1115 -1.5718
   87SOPE  C213 8178   5.871   3.986   4.196 -0.1208  0.0013 -0.2892
   87SOPE  H13R 8179   5.819   3.909   4.134  0.3173  1.1425 -2.1264
   87SOPE  H13S 8180   5.818   4.083   4.189 -2.8710 -1.2282  1.4935
   87SOPE  C214 8181   5.863   3.943   4.339 -0.4566 -1.1444 -0.2175
   87SOPE  H14R 8182   5.927   4.000   4.409  0.8314 -1.8665 -0.7811
   87SOPE  H14S 8183   5.898   3.838   4.353  2.1372 -0.5031 -1.3993
   87SOPE  C215 8184   5.719   3.941   4.385  1.2844  0.1042 -0.1091
   87SOPE  H15R 8185   5.656   3.891   4.307 -0.8424  2.0495  0.2429
   87SOPE  H15S 8186   5.685   4.046   4.379 -1.7092 -0.7081  0.6909
   87SOPE  C216 8187   5.698   3.897   4.527  0.5059  0.1986 -0.3248
   87SOPE  H16R 8188   5.766   3.946   4.600 -0.4975  2.2528 -0.6859
   87SOPE  H16S 8189   5.728   3.790   4.526 -0.0378  0.0412 -1.8084
   87SOPE  C217 8190   5.558   3.926   4.578 -0.5588  0.7786  0.5821
   87SOPE  H17R 8191   5.481   3.897   4.504  0.9096 -1.1872 -0.2399
   87SOPE  H17S 8192   5.543   4.036   4.589 -1.0389  0.8711 -0.8343
   87SOPE  C218 8193   5.538   3.866   4.723 -0.4920 -0.2167  0.5047
   87SOPE  H18R 8194   5.557   3.757   4.713  2.3891  0.1800  0.6659
   87SOPE  H18S 8195   5.437   3.900   4.753 -0.4409 -0.8897  1.5025
   87SOPE  H18T 8196   5.621   3.906   4.785  2.9136 -2.4332 -2.1928
   87SOPE   C33 8197   6.196   3.796   3.546 -0.0605 -0.1648  0.0531
   87SOPE   H3X 8198   6.169   3.894   3.501 -0.8114  0.4432  1.7519
   87SOPE   H3Y 8199   6.307   3.804   3.556 -0.0909 -0.5260  0.7640
   87SOPE   C34 8200   6.133   3.782   3.689  0.4059 -0.1635 -0.1694
   87SOPE   H4X 8201   6.025   3.774   3.666  0.7143 -0.8613 -1.5546
   87SOPE   H4Y 8202   6.165   3.869   3.749 -2.5616  0.3450  0.7978
   87SOPE   C35 8203   6.193   3.662   3.772 -0.2499 -0.7194  0.3293
   87SOPE   H5X 8204   6.304   3.664   3.758 -0.0217 -1.2071  1.9120
   87SOPE   H5Y 8205   6.158   3.563   3.737 -1.3818 -0.5266  0.8836
   87SOPE   C36 8206   6.166   3.672   3.926 -0.6448  0.0146  0.1097
   87SOPE   H6X 8207   6.061   3.707   3.936  0.3401  2.9469  1.3414
   87SOPE   H6Y 8208   6.226   3.757   3.967  0.5357 -0.2785 -0.9481
   87SOPE   C37 8209   6.172   3.538   4.006  0.0276 -0.6877 -0.1915
   87SOPE   H7X 8210   6.265   3.484   3.978  0.7509  0.6298 -0.4128
   87SOPE   H7Y 8211   6.078   3.490   3.971  0.1927  0.2460 -2.0426
   87SOPE   C38 8212   6.159   3.555   4.158  0.4770  0.0157  0.2232
   87SOPE   H8X 8213   6.075   3.627   4.164 -1.9378 -1.8251 -5.0504
   87SOPE   H8Y 8214   6.249   3.604   4.200  2.3243 -1.3410 -1.9129
   87SOPE   C39 8215   6.121   3.425   4.221  0.5620  0.6664 -0.4201
   87SOPE   H9X 8216   6.193   3.348   4.187 -1.0036 -1.3461  0.5512
   87SOPE   H9Y 8217   6.019   3.398   4.185  1.0904 -0.6699 -0.9836
   87SOPE  C310 8218   6.126   3.431   4.376 -0.5095 -0.3138 -0.3631
   87SOPE  H10X 8219   6.233   3.430   4.408 -0.7687 -1.6889  0.5531
   87SOPE  H10Y 8220   6.073   3.342   4.417  0.6690 -1.2842 -0.8602
   87SOPE  C311 8221   6.057   3.559   4.439  0.5386  0.2870  0.1893
   87SOPE  H11X 8222   5.950   3.545   4.410  1.1450 -3.4933 -0.7801
   87SOPE  H11Y 8223   6.081   3.656   4.390 -0.5917  0.2340 -0.5123
   87SOPE  C312 8224   6.075   3.554   4.586  0.4876 -0.1833 -0.2812
   87SOPE  H12X 8225   6.171   3.604   4.611  1.1306 -0.5633 -1.8771
   87SOPE  H12Y 8226   6.071   3.446   4.613 -2.2692 -0.4137 -1.2709
   87SOPE  C313 8227   5.955   3.626   4.655 -0.9783  0.1736 -0.9799
   87SOPE  H13X 8228   5.858   3.585   4.621 -0.7566  0.1017 -1.5333
   87SOPE  H13Y 8229   5.951   3.736   4.637  1.5224  1.0142  2.4141
   87SOPE  C314 8230   5.962   3.607   4.809 -0.4659 -0.0701  0.4761
   87SOPE  H14X 8231   6.059   3.641   4.851  0.4811 -0.6628 -1.1288
   87SOPE  H14Y 8232   5.966   3.497   4.823  0.9168  0.0891  1.6231
   87SOPE  C315 8233   5.835   3.659   4.873 -0.5471  0.0949  0.1620
   87SOPE  H15X 8234   5.738   3.619   4.838 -0.7312  1.2210 -0.7019
   87SOPE  H15Y 8235   5.833   3.770   4.866  1.1727  0.2390  1.3619
   87SOPE  C316 8236   5.838   3.616   5.020  0.0896 -0.1747  0.3959
   87SOPE  H16X 8237   5.930   3.648   5.073  0.0351 -0.9979  1.0135
   87SOPE  H16Y 8238   5.845   3.505   5.018  0.5505 -0.2440  2.7069
   87SOPE  C317 8239   5.714   3.662   5.101  0.1283 -0.0182  0.6069
   87SOPE  H17X 8240   5.628   3.648   5.032  1.8459  0.6596 -1.8320
   87SOPE  H17Y 8241   5.738   3.770   5.117 -0.2266  0.6411 -2.6091
   87SOPE  C318 8242   5.686   3.597   5.234  0.2740 -0.1080  0.0230
   87SOPE  H18X 8243   5.656   3.491   5.219  2.3968 -0.5907 -1.2587
   87SOPE  H18Y 8244   5.607   3.652   5.290  0.3797  0.9112 -0.7958
   87SOPE  H18Z 8245   5.776   3.597   5.298 -0.2000  1.9262  0.7671
   88SOPE     N 8246   1.437   5.865   2.933 -0.2094 -0.3193  0.4317
   88SOPE   HN1 8247   1.493   5.789   2.889 -0.6884 -0.6853  0.4545
   88SOPE   HN2 8248   1.369   5.909   2.869  0.4878 -0.7550 -0.6343
   88SOPE   HN3 8249   1.513   5.934   2.949 -0.8921  0.3599  0.7590
   88SOPE   C12 8250   1.361   5.799   3.055  0.0206 -0.2217  0.4484
   88SOPE  H12A 8251   1.308   5.878   3.113 -0.1449 -1.6957  2.3859
   88SOPE  H12B 8252   1.441   5.767   3.125  0.4655  1.2203  0.6331
   88SOPE   C11 8253   1.279   5.681   3.009 -0.1421 -0.4977 -0.7025
   88SOPE  H11A 8254   1.192   5.710   2.947 -0.1960  2.3808  0.5707
   88SOPE  H11B 8255   1.237   5.639   3.103  0.4519  0.6561  0.0986
   88SOPE     P 8256   1.414   5.450   3.016 -0.3001 -0.3862 -0.2671
   88SOPE   O13 8257   1.561   5.439   2.989  0.4501 -0.0989  0.1547
   88SOPE   O14 8258   1.320   5.346   2.978  0.3901 -0.1085 -1.1890
   88SOPE   O12 8259   1.368   5.582   2.943  0.2763  0.0854  0.1999
   88SOPE   O11 8260   1.381   5.481   3.174  0.0078 -0.1771 -0.0500
   88SOPE    C1 8261   1.449   5.422   3.286  0.2389  0.2090  0.1701
   88SOPE    HA 8262   1.558   5.410   3.271  0.4334  0.9615  0.9337
   88SOPE    HB 8263   1.403   5.321   3.293 -1.8876  1.0678 -0.5247
   88SOPE    C2 8264   1.432   5.498   3.419  0.2096 -0.5573  0.2846
   88SOPE    HS 8265   1.461   5.427   3.499  0.2326 -1.0420 -0.1537
   88SOPE   O21 8266   1.307   5.558   3.438  0.7848 -0.0920 -0.5554
   88SOPE   C21 8267   1.202   5.495   3.402 -0.1484  0.3940 -0.3006
   88SOPE   O22 8268   1.193   5.378   3.380  0.9119  0.0714 -0.2688
   88SOPE   C22 8269   1.080   5.590   3.403  0.5813  0.4394  0.3877
   88SOPE   H2R 8270   0.996   5.520   3.425 -1.0297  2.5018  1.0613
   88SOPE   H2S 8271   1.082   5.634   3.301 -0.9712  2.3330  1.1005
   88SOPE    C3 8272   1.534   5.623   3.424 -0.6027  0.2502  0.8063
   88SOPE    HX 8273   1.495   5.694   3.348 -0.2236 -0.8559 -0.4538
   88SOPE    HY 8274   1.635   5.596   3.387 -1.3380  0.2603 -1.3275
   88SOPE   O31 8275   1.550   5.679   3.555 -0.1200  0.6435 -0.0572
   88SOPE   C31 8276   1.489   5.784   3.590  0.4304 -0.4314 -0.5901
   88SOPE   O32 8277   1.399   5.844   3.536  0.1450  0.3232  0.0952
   88SOPE   C32 8278   1.555   5.831   3.723  0.7513  0.5887 -0.1164
   88SOPE   H2X 8279   1.663   5.825   3.699  0.9921 -2.5052  1.2545
   88SOPE   H2Y 8280   1.528   5.755   3.800  3.0825  0.3033  0.4995
   88SOPE   C23 8281   1.074   5.708   3.508  0.4273  0.5351 -0.0215
   88SOPE   H3R 8282   0.992   5.780   3.488  2.1330  2.2217 -1.2986
   88SOPE   H3S 8283   1.164   5.773   3.514 -1.2881  2.9126  3.3396
   88SOPE   C24 8284   1.054   5.659   3.657  0.2235 -0.0016  0.2491
   88SOPE   H4R 8285   0.953   5.612   3.661 -0.2872  0.4444 -3.4733
   88SOPE   H4S 8286   1.128   5.578   3.673 -0.1597 -0.1895  1.1162
   88SOPE   C25 8287   1.056   5.774   3.762 -0.5199  1.1387  0.4856
   88SOPE   H5R 8288   1.130   5.851   3.733 -0.8040  0.9404 -0.8142
   88SOPE   H5S 8289   0.959   5.828   3.765 -1.0205  0.2468  0.6654
   88SOPE   C26 8290   1.093   5.728   3.905  0.5727  0.4323  0.3533
   88SOPE   H6R 8291   1.025   5.651   3.948  0.1043 -0.7070 -2.2290
   88SOPE   H6S 8292   1.187   5.671   3.888 -1.6079 -3.4784  0.2513
   88SOPE   C27 8293   1.112   5.849   3.994 -0.2550 -0.3950 -0.8052
   88SOPE   H7R 8294   1.179   5.917   3.938  1.1783 -2.4865 -1.7504
   88SOPE   H7S 8295   1.013   5.897   4.011 -1.2903 -2.3516 -0.9534
   88SOPE   C28 8296   1.184   5.820   4.126  0.1648  0.8713  0.1737
   88SOPE   H8R 8297   1.268   5.749   4.116 -0.8504 -0.3666  0.2380
   88SOPE   H8S 8298   1.230   5.916   4.157 -0.5923  0.9660  1.0583
   88SOPE   C29 8299   1.094   5.739   4.222  0.0049 -0.5278  0.3320
   88SOPE   H91 8300   1.032   5.660   4.177 -3.1641  2.6571 -1.4604
   88SOPE  C210 8301   1.096   5.759   4.354 -0.3024 -0.0670 -0.0008
   88SOPE  H101 8302   1.035   5.687   4.411 -0.5700 -1.2038 -1.6749
   88SOPE  C211 8303   1.174   5.865   4.432  0.3080  0.0023 -0.3559
   88SOPE  H11R 8304   1.147   5.966   4.395 -0.4434  0.7455  2.0334
   88SOPE  H11S 8305   1.284   5.853   4.418  0.4094 -0.0336  0.4273
   88SOPE  C212 8306   1.137   5.870   4.582  0.1150  0.0199 -0.0299
   88SOPE  H12R 8307   1.162   5.775   4.634 -0.9977  0.4925  1.4452
   88SOPE  H12S 8308   1.029   5.894   4.580  0.0690 -0.0630  0.9037
   88SOPE  C213 8309   1.191   5.994   4.668  0.4842  0.5387  0.6616
   88SOPE  H13R 8310   1.183   6.095   4.623 -1.0755 -1.4475 -4.1121
   88SOPE  H13S 8311   1.300   5.974   4.678  0.4811 -1.5101 -2.0969
   88SOPE  C214 8312   1.137   6.005   4.811 -0.2689 -0.3198 -0.5276
   88SOPE  H14R 8313   1.181   5.919   4.866 -1.4856 -0.1709  0.7395
   88SOPE  H14S 8314   1.027   5.998   4.802 -0.2555 -1.3473 -0.0059
   88SOPE  C215 8315   1.179   6.133   4.877 -0.7466 -0.1160 -0.2297
   88SOPE  H15R 8316   1.273   6.167   4.828  1.0499 -2.9975  0.9601
   88SOPE  H15S 8317   1.210   6.108   4.981  0.3542  1.2796 -0.1879
   88SOPE  C216 8318   1.063   6.233   4.881 -0.6085  0.0503 -0.0175
   88SOPE  H16R 8319   0.978   6.196   4.942  0.4749 -1.2426  0.7719
   88SOPE  H16S 8320   1.031   6.256   4.777  2.0894  0.0209 -0.9295
   88SOPE  C217 8321   1.105   6.353   4.961  0.4983  0.5680  0.4436
   88SOPE  H17R 8322   1.205   6.391   4.931  1.3210 -0.0297  2.3057
   88SOPE  H17S 8323   1.114   6.317   5.066 -0.0885  2.5095  1.1998
   88SOPE  C218 8324   1.011   6.468   4.969  0.3053  0.0989  0.4080
   88SOPE  H18R 8325   0.993   6.518   4.872  0.3490 -0.5569  0.0575
   88SOPE  H18S 8326   1.046   6.541   5.045 -1.1197 -0.3920  1.5811
   88SOPE  H18T 8327   0.907   6.440   4.998 -0.1745  1.0337 -0.3512
   88SOPE   C33 8328   1.522   5.980   3.760  0.0538 -0.6765 -0.0839
   88SOPE   H3X 8329   1.414   5.992   3.783  0.4734  1.5593  0.9178
   88SOPE   H3Y 8330   1.540   6.043   3.670  0.0489 -1.4397 -0.6382
   88SOPE   C34 8331   1.600   6.031   3.881 -0.8877 -0.3175  0.4374
   88SOPE   H4X 8332   1.559   6.133   3.894  0.2789  0.7635 -3.0793
   88SOPE   H4Y 8333   1.710   6.039   3.862 -1.1385 -0.2818 -1.1807
   88SOPE   C35 8334   1.565   5.951   4.007  0.8091  0.1710 -0.6140
   88SOPE   H5X 8335   1.602   5.850   3.979 -0.8276 -0.8996  0.7957
   88SOPE   H5Y 8336   1.457   5.928   4.016  1.2586 -1.8071  0.4168
   88SOPE   C36 8337   1.632   6.005   4.135 -0.1289  0.4884 -0.1159
   88SOPE   H6X 8338   1.578   6.093   4.176  1.8208  0.2672  3.2385
   88SOPE   H6Y 8339   1.732   6.042   4.102 -0.3685 -0.9299 -2.7277
   88SOPE   C37 8340   1.657   5.902   4.254 -0.2819  0.0756  0.6880
   88SOPE   H7X 8341   1.728   5.821   4.226  0.7196  1.0162  0.4204
   88SOPE   H7Y 8342   1.557   5.853   4.258  0.0536 -0.5342  1.9382
   88SOPE   C38 8343   1.690   5.955   4.395  0.0377 -0.9649  0.3269
   88SOPE   H8X 8344   1.732   6.057   4.388 -0.3396 -0.9162 -2.2081
   88SOPE   H8Y 8345   1.776   5.888   4.414  1.4593  0.1313 -1.7922
   88SOPE   C39 8346   1.574   5.949   4.491 -0.3016 -0.5331 -0.4073
   88SOPE   H9X 8347   1.526   5.852   4.464 -0.2246 -0.2834 -1.4941
   88SOPE   H9Y 8348   1.487   6.015   4.468 -1.6668 -2.6946 -1.8428
   88SOPE  C310 8349   1.616   5.975   4.638 -0.1017 -0.1099 -0.2804
   88SOPE  H10X 8350   1.521   5.973   4.696  0.6716 -2.0381  1.0689
   88SOPE  H10Y 8351   1.670   6.071   4.645  3.4304 -1.9465  0.0950
   88SOPE  C311 8352   1.717   5.878   4.708  0.0663  0.1950 -0.1921
   88SOPE  H11X 8353   1.809   5.886   4.646  2.9275  0.3340  3.6879
   88SOPE  H11Y 8354   1.667   5.780   4.694  0.2185  0.2046 -0.8219
   88SOPE  C312 8355   1.738   5.926   4.855  0.2750  0.0715  0.1918
   88SOPE  H12X 8356   1.802   6.016   4.842  0.3362 -0.1919 -1.6756
   88SOPE  H12Y 8357   1.795   5.844   4.902  1.4723  0.3818 -0.6761
   88SOPE  C313 8358   1.608   5.958   4.934  0.2877  0.3218 -0.3239
   88SOPE  H13X 8359   1.528   5.883   4.921  0.4569  0.3324 -1.4778
   88SOPE  H13Y 8360   1.569   6.060   4.910 -1.4592  0.1112  1.3731
   88SOPE  C314 8361   1.624   5.953   5.088 -0.1264 -0.5178 -0.1962
   88SOPE  H14X 8362   1.703   6.027   5.111 -1.9643  1.5560 -0.1873
   88SOPE  H14Y 8363   1.659   5.852   5.119  0.6675  0.1931  1.2931
   88SOPE  C315 8364   1.500   6.002   5.173 -0.5029  1.3440 -0.2103
   88SOPE  H15X 8365   1.483   6.110   5.156  3.4935  2.3823  1.3818
   88SOPE  H15Y 8366   1.531   5.983   5.278 -1.8869 -1.4791 -0.2026
   88SOPE  C316 8367   1.372   5.912   5.152 -0.1646 -0.0959 -1.2519
   88SOPE  H16X 8368   1.390   5.804   5.172  0.8174 -0.3938 -3.4216
   88SOPE  H16Y 8369   1.349   5.925   5.044  0.7136  1.4459 -1.2830
   88SOPE  C317 8370   1.266   5.974   5.238  0.1317 -0.3296 -0.5078
   88SOPE  H17X 8371   1.244   6.078   5.204 -1.1206 -0.9149 -1.5474
   88SOPE  H17Y 8372   1.302   5.972   5.343  3.3310 -0.4766 -1.5181
   88SOPE  C318 8373   1.140   5.896   5.230  0.6720 -0.3899 -0.2044
   88SOPE  H18X 8374   1.167   5.801   5.279  1.8087  0.1410  0.2251
   88SOPE  H18Y 8375   1.117   5.878   5.123 -1.4347  1.3929 -0.1257
   88SOPE  H18Z 8376   1.051   5.924   5.291  0.1859 -2.6001  0.1760
   89SAPC     N 8377   3.198   0.647   7.325 -1.2947  0.4793 -0.1362
   89SAPC   C12 8378   3.251   0.501   7.321 -0.6777 -0.0911 -1.0194
   89SAPC  H12A 8379   3.191   0.437   7.384 -0.7573 -0.7337 -1.7312
   89SAPC  H12B 8380   3.356   0.497   7.345 -0.4842 -0.6084 -1.9062
   89SAPC   C13 8381   3.287   0.739   7.248 -0.8337  0.5071 -0.0231
   89SAPC  H13A 8382   3.296   0.723   7.141 -0.3637  1.7623 -0.1938
   89SAPC  H13B 8383   3.250   0.840   7.256 -1.2264  0.3817 -0.2363
   89SAPC  H13C 8384   3.387   0.717   7.282 -0.7816 -0.8330 -0.9881
   89SAPC   C14 8385   3.056   0.663   7.281 -0.1276  0.2958  0.6626
   89SAPC  H14A 8386   3.045   0.640   7.176 -2.2962 -0.5886  1.0430
   89SAPC  H14B 8387   2.984   0.605   7.337  1.5884 -1.8546  0.8080
   89SAPC  H14C 8388   3.033   0.768   7.285 -1.2109  0.0307  2.2097
   89SAPC   C15 8389   3.206   0.688   7.461  0.7052  0.1938 -0.5368
   89SAPC  H15A 8390   3.307   0.667   7.493  0.4906  3.4857  3.1210
   89SAPC  H15B 8391   3.194   0.794   7.479  0.8684  0.5812 -2.5181
   89SAPC  H15C 8392   3.134   0.634   7.522  0.7745  0.0218 -0.6047
   89SAPC   C11 8393   3.246   0.419   7.186  0.6239 -0.4383  0.7135
   89SAPC  H11A 8394   3.143   0.436   7.150  1.5159  0.0764 -1.7666
   89SAPC  H11B 8395   3.251   0.309   7.201 -0.4536 -0.7401 -0.8796
   89SAPC     P 8396   3.492   0.443   7.116  0.3634 -0.3113  0.1599
   89SAPC   O13 8397   3.526   0.500   7.248  0.3231 -0.1504 -0.2167
   89SAPC   O14 8398   3.504   0.297   7.099  0.0607 -0.1272  0.4909
   89SAPC   O12 8399   3.336   0.480   7.088 -0.0730  0.6827  0.5900
   89SAPC   O11 8400   3.553   0.524   6.993 -0.0159  0.6049 -0.0325
   89SAPC    C1 8401   3.520   0.484   6.862 -0.0396  0.3884 -0.0748
   89SAPC    HA 8402   3.613   0.460   6.808  0.0015  0.9906 -0.2812
   89SAPC    HB 8403   3.449   0.399   6.850  0.5840  0.1453 -2.5257
   89SAPC    C2 8404   3.459   0.593   6.769  0.4032 -0.1168  0.0989
   89SAPC    HS 8405   3.349   0.598   6.782  0.2342  0.1785 -1.2371
   89SAPC   O21 8406   3.482   0.565   6.625  0.1802  0.0112 -0.2115
   89SAPC   C21 8407   3.395   0.477   6.577  0.2033 -0.1888  0.4021
   89SAPC   O22 8408   3.297   0.430   6.632  0.0544  0.3718  0.0583
   89SAPC   C22 8409   3.425   0.439   6.429  0.1276  0.1604 -0.3895
   89SAPC   H2R 8410   3.403   0.331   6.423 -1.3951  0.4459 -0.3456
   89SAPC   H2S 8411   3.350   0.488   6.363 -2.3956  0.2302  2.3732
   89SAPC    C3 8412   3.509   0.732   6.797 -0.3527 -1.2577  0.3959
   89SAPC    HX 8413   3.487   0.779   6.896 -0.1024 -0.8793  0.2733
   89SAPC    HY 8414   3.465   0.799   6.720  0.0052 -0.3537  0.9617
   89SAPC   O31 8415   3.653   0.733   6.770 -0.5475  0.1933 -0.3958
   89SAPC   C31 8416   3.721   0.845   6.806  0.1145  0.8420  0.0470
   89SAPC   O32 8417   3.670   0.950   6.844 -0.1673  0.8163 -0.4744
   89SAPC   C32 8418   3.871   0.821   6.766 -0.0207  0.1962  0.2251
   89SAPC   H2X 8419   3.890   0.712   6.758 -0.6516  0.2187 -2.4992
   89SAPC   H2Y 8420   3.926   0.848   6.859  1.7088  1.6445 -1.1744
   89SAPC   C23 8421   3.568   0.461   6.381  0.0307 -0.2263 -0.0401
   89SAPC   H3R 8422   3.632   0.392   6.440  0.7058 -0.5903 -1.1606
   89SAPC   H3S 8423   3.603   0.562   6.412  1.6259 -0.7588 -0.0216
   89SAPC   C24 8424   3.587   0.448   6.230 -0.0270 -0.6991 -0.1220
   89SAPC   H4R 8425   3.504   0.503   6.182 -0.2149 -2.1212 -1.4959
   89SAPC   H4S 8426   3.571   0.341   6.206 -1.3386 -0.6590  0.4906
   89SAPC   C25 8427   3.722   0.493   6.189 -0.1005  0.2295 -0.2550
   89SAPC   H5R 8428   3.800   0.482   6.266  1.7401 -0.6359 -2.1469
   89SAPC   C26 8429   3.743   0.540   6.069  0.2425  0.0334 -0.6621
   89SAPC   H6R 8430   3.840   0.582   6.037 -0.2062  0.4677 -1.4907
   89SAPC   C27 8431   3.650   0.550   5.951 -0.0098  0.0583  0.5181
   89SAPC   H7R 8432   3.660   0.656   5.920  1.1963  0.5510  2.4141
   89SAPC   H7S 8433   3.545   0.539   5.985 -0.5755 -0.5370 -1.3234
   89SAPC   C28 8434   3.677   0.448   5.842  0.7730 -0.6262 -0.9362
   89SAPC   H8R 8435   3.718   0.352   5.876 -2.0264 -2.0234 -1.2063
   89SAPC   C29 8436   3.630   0.457   5.714 -0.8555 -0.5080  0.1842
   89SAPC   H9R 8437   3.653   0.374   5.646  2.0970  1.7501 -1.7922
   89SAPC  C210 8438   3.541   0.569   5.654 -0.0080  0.1976 -0.4037
   89SAPC  H10R 8439   3.594   0.608   5.564 -3.1836  2.6868 -1.3716
   89SAPC  H10S 8440   3.521   0.643   5.734 -2.5161 -1.2712  0.4231
   89SAPC  C211 8441   3.412   0.501   5.610  0.2196 -0.9070 -0.1713
   89SAPC  H11R 8442   3.422   0.457   5.510  0.8325  0.4179 -0.7131
   89SAPC  C212 8443   3.286   0.508   5.665 -0.2391 -0.7413 -0.1802
   89SAPC  H12R 8444   3.203   0.457   5.613  0.2935  0.7239 -2.6428
   89SAPC  C213 8445   3.254   0.587   5.795  0.1710  0.0315 -0.4026
   89SAPC  H13R 8446   3.331   0.659   5.828 -0.9730  0.2373  2.0565
   89SAPC  H13S 8447   3.257   0.514   5.879  0.2505  0.2481 -0.2177
   89SAPC  C214 8448   3.130   0.671   5.814  0.0306  0.2938 -0.2852
   89SAPC  H14R 8449   3.092   0.716   5.721 -2.7080 -1.2558 -0.0166
   89SAPC  C215 8450   3.066   0.708   5.928 -0.2708 -0.1492 -0.0918
   89SAPC  H15R 8451   2.979   0.773   5.916  0.7644  1.4447  0.6392
   89SAPC  C216 8452   3.097   0.663   6.066  0.3491  0.6750 -0.0827
   89SAPC  H16R 8453   3.179   0.589   6.056  1.7112  2.2048 -0.5256
   89SAPC  H16S 8454   3.009   0.606   6.103  1.5206 -0.6249  0.8186
   89SAPC  C217 8455   3.126   0.766   6.177 -0.1967 -0.7748 -0.0416
   89SAPC  H17R 8456   3.046   0.842   6.182 -1.8916 -2.5166  0.6581
   89SAPC  H17S 8457   3.229   0.802   6.158 -0.0891 -1.9695 -2.1192
   89SAPC  C218 8458   3.128   0.717   6.321 -0.4241  0.2144  0.7441
   89SAPC  H18R 8459   3.204   0.638   6.336 -0.0204  0.4997  0.2324
   89SAPC  H18S 8460   3.035   0.656   6.331 -0.2444 -0.1562  0.2004
   89SAPC  C219 8461   3.130   0.835   6.428 -0.3712  0.0071 -0.2064
   89SAPC  H19R 8462   3.026   0.873   6.432 -0.5547 -0.5965  2.3500
   89SAPC  H19S 8463   3.201   0.915   6.399 -1.0422 -0.2160 -2.7026
   89SAPC  C220 8464   3.171   0.781   6.565 -0.2201 -0.0246 -0.4226
   89SAPC  H20R 8465   3.106   0.699   6.601 -0.4491  0.7124  0.8852
   89SAPC  H20S 8466   3.158   0.861   6.640 -0.5129  2.0162 -2.5174
   89SAPC  H20T 8467   3.275   0.744   6.554 -0.2971 -0.1888 -0.6143
   89SAPC   C33 8468   3.907   0.894   6.636 -0.2256 -0.1379 -0.2350
   89SAPC   H3X 8469   4.018   0.897   6.626 -0.4042  0.7511 -3.0974
   89SAPC   H3Y 8470   3.869   0.998   6.640  1.9831  0.7701 -1.0975
   89SAPC   C34 8471   3.855   0.836   6.511 -0.0029 -0.6399  0.1556
   89SAPC   H4X 8472   3.748   0.812   6.527  0.2480 -0.0318  3.4422
   89SAPC   H4Y 8473   3.912   0.746   6.481 -3.9242 -2.8152 -1.5244
   89SAPC   C35 8474   3.855   0.933   6.388 -0.0884  0.2523 -0.0907
   89SAPC   H5X 8475   3.945   0.999   6.395  1.0691 -1.2869  0.2544
   89SAPC   H5Y 8476   3.768   0.998   6.411 -1.0330 -0.1158 -2.3635
   89SAPC   C36 8477   3.820   0.863   6.253 -0.0310  0.4691 -0.7308
   89SAPC   H6X 8478   3.747   0.780   6.269  1.4722 -1.5492 -3.4552
   89SAPC   H6Y 8479   3.914   0.821   6.210 -0.2821 -1.4143  0.4227
   89SAPC   C37 8480   3.762   0.968   6.159 -0.2784 -0.5005 -0.2192
   89SAPC   H7X 8481   3.843   1.042   6.139 -1.3719  0.4541 -1.2440
   89SAPC   H7Y 8482   3.679   1.018   6.212 -0.2533 -0.6308 -0.0554
   89SAPC   C38 8483   3.706   0.904   6.039 -0.0552 -1.2707 -0.2802
   89SAPC   H8X 8484   3.630   0.831   6.076  0.0208 -1.5386 -0.6430
   89SAPC   H8Y 8485   3.779   0.840   5.984 -0.6505 -1.2490 -1.1216
   89SAPC   C39 8486   3.635   1.007   5.942  0.4654  0.2169  0.0486
   89SAPC   H9X 8487   3.706   1.092   5.944  2.0674 -1.0634  0.4637
   89SAPC   H9Y 8488   3.540   1.038   5.991  1.5391 -0.5626  2.8503
   89SAPC  C310 8489   3.626   0.966   5.790 -0.0907 -0.8756 -0.1029
   89SAPC  H10X 8490   3.565   1.039   5.733  2.1093 -1.5031 -3.5673
   89SAPC  H10Y 8491   3.586   0.863   5.772  0.9035 -1.2943  0.0265
   89SAPC  C311 8492   3.766   0.971   5.717  0.3736  0.9899 -0.1667
   89SAPC  H11X 8493   3.826   0.891   5.764  1.2809  1.3472 -0.7034
   89SAPC  H11Y 8494   3.805   1.067   5.757 -0.3484  1.7702 -1.2680
   89SAPC  C312 8495   3.759   0.971   5.559 -0.6916 -0.5281  0.2081
   89SAPC  H12X 8496   3.868   0.962   5.536 -0.6259 -2.7312  1.1471
   89SAPC  H12Y 8497   3.720   1.070   5.527 -0.7979 -0.3281  0.9353
   89SAPC  C313 8498   3.687   0.858   5.500 -0.5488 -0.2728 -0.2618
   89SAPC  H13X 8499   3.591   0.843   5.553  0.4639 -1.0494  1.4458
   89SAPC  H13Y 8500   3.756   0.772   5.516 -2.0972 -1.0054  3.4285
   89SAPC  C314 8501   3.671   0.862   5.351 -0.3824  0.5782  0.3826
   89SAPC  H14X 8502   3.766   0.882   5.297 -0.9174 -0.2088 -0.8757
   89SAPC  H14Y 8503   3.615   0.956   5.333  1.3002  2.0440  2.2426
   89SAPC  C315 8504   3.607   0.738   5.290  0.3808  0.0152 -0.6577
   89SAPC  H15X 8505   3.651   0.647   5.335 -1.1547 -0.4964 -0.1403
   89SAPC  H15Y 8506   3.642   0.714   5.187  0.8187 -2.3367 -0.0207
   89SAPC  C316 8507   3.454   0.730   5.274  0.2609  0.5587  0.6850
   89SAPC  H16X 8508   3.423   0.825   5.224  0.1602  0.5940  0.8135
   89SAPC  H16Y 8509   3.412   0.710   5.374 -2.0362 -0.1130 -0.3395
   89SAPC  C317 8510   3.403   0.616   5.186 -0.9102  0.5074  0.2398
   89SAPC  H17X 8511   3.412   0.524   5.247  0.1350  0.1336 -0.4530
   89SAPC  H17Y 8512   3.454   0.594   5.089 -3.2492  3.4860 -1.8556
   89SAPC  C318 8513   3.254   0.633   5.164  0.3925 -0.2850  0.5918
   89SAPC  H18X 8514   3.212   0.667   5.261 -0.5842  2.4086 -0.6478
   89SAPC  H18Y 8515   3.211   0.539   5.124 -0.2721  0.5370 -0.7264
   89SAPC  H18Z 8516   3.233   0.707   5.083 -0.1099 -1.5461 -0.4693
   90SAPC     N 8517   6.641   2.006   7.019 -0.6121 -0.0371 -0.0386
   90SAPC   C12 8518   6.708   2.112   6.936 -0.3649 -0.3450 -0.0767
   90SAPC  H12A 8519   6.691   2.203   6.990  0.7368 -0.5442  0.6380
   90SAPC  H12B 8520   6.663   2.126   6.839  0.3492 -2.1967 -0.7372
   90SAPC   C13 8521   6.492   2.041   7.027  0.0177  0.1069 -0.3969
   90SAPC  H13A 8522   6.475   2.144   7.056 -0.7722 -0.4198  1.0830
   90SAPC  H13B 8523   6.440   2.021   6.934 -1.1310 -0.7796  0.4127
   90SAPC  H13C 8524   6.445   1.985   7.106  0.7417  0.2736  0.1634
   90SAPC   C14 8525   6.675   1.879   6.939  0.1150  0.2608  0.1340
   90SAPC  H14A 8526   6.629   1.791   6.983  0.6115 -0.8322 -1.4631
   90SAPC  H14B 8527   6.634   1.892   6.840 -0.6275  2.3922  0.6794
   90SAPC  H14C 8528   6.781   1.870   6.920  0.0109 -0.8209 -0.0351
   90SAPC   C15 8529   6.716   1.998   7.148  0.1152  0.5656  0.3042
   90SAPC  H15A 8530   6.702   2.088   7.205 -2.5620 -0.3147  1.2114
   90SAPC  H15B 8531   6.674   1.913   7.200 -0.4547  0.3262 -0.5292
   90SAPC  H15C 8532   6.820   1.976   7.130 -0.1235 -1.2141  0.8632
   90SAPC   C11 8533   6.867   2.106   6.921  0.3026  0.3578 -0.5996
   90SAPC  H11A 8534   6.894   2.145   7.021 -0.4072  0.5021 -0.4589
   90SAPC  H11B 8535   6.908   2.185   6.854  0.4826  0.9373  0.1817
   90SAPC     P 8536   7.045   1.926   6.970  0.2062  0.2833 -0.1047
   90SAPC   O13 8537   7.050   1.993   7.098 -0.2360 -0.4189  0.5228
   90SAPC   O14 8538   7.034   1.780   6.977 -0.1238  0.5149  0.6928
   90SAPC   O12 8539   6.927   1.981   6.896 -0.5188  0.5133  0.4047
   90SAPC   O11 8540   7.164   1.971   6.876  0.1589  0.2029 -0.2862
   90SAPC    C1 8541   7.153   1.996   6.737 -0.1564  0.0435  0.7680
   90SAPC    HA 8542   7.046   1.995   6.705 -0.2283  1.3131  0.9028
   90SAPC    HB 8543   7.198   2.094   6.708 -0.3140 -0.4746 -1.3616
   90SAPC    C2 8544   7.237   1.893   6.650  0.6091 -0.4915  0.0774
   90SAPC    HS 8545   7.339   1.877   6.691  0.8105 -2.4149 -1.0230
   90SAPC   O21 8546   7.255   1.946   6.519  0.0686 -0.2839  0.4224
   90SAPC   C21 8547   7.356   1.908   6.440  0.0183 -0.2636 -0.7367
   90SAPC   O22 8548   7.437   1.823   6.472  0.4565 -0.0165 -0.1120
   90SAPC   C22 8549   7.332   1.970   6.305 -0.5112 -0.1106 -0.2499
   90SAPC   H2R 8550   7.246   1.911   6.268 -0.6336  0.9111 -1.6947
   90SAPC   H2S 8551   7.311   2.077   6.324 -2.1831 -0.5434  0.5097
   90SAPC    C3 8552   7.154   1.765   6.637  0.1564 -0.0808  0.2276
   90SAPC    HX 8553   7.060   1.784   6.580  0.2123  1.2343  0.5363
   90SAPC    HY 8554   7.117   1.747   6.740  1.2096 -2.9652  0.2051
   90SAPC   O31 8555   7.229   1.658   6.574  0.0285 -0.4691  0.0315
   90SAPC   C31 8556   7.178   1.536   6.580 -0.5332  0.0946  0.4514
   90SAPC   O32 8557   7.085   1.503   6.647 -0.2487  0.1571  0.4648
   90SAPC   C32 8558   7.263   1.431   6.514 -0.3547  0.4647 -0.2227
   90SAPC   H2X 8559   7.229   1.333   6.554 -2.8246  1.8085  1.1975
   90SAPC   H2Y 8560   7.368   1.450   6.544 -1.8443  4.4514  3.6068
   90SAPC   C23 8561   7.447   1.942   6.207  0.2688  0.6222 -0.3208
   90SAPC   H3R 8562   7.548   1.922   6.249  0.1004 -0.3238 -0.3484
   90SAPC   H3S 8563   7.459   2.032   6.144  0.7373 -2.3371 -4.9571
   90SAPC   C24 8564   7.420   1.816   6.110  0.1707  0.0753 -0.7867
   90SAPC   H4R 8565   7.322   1.841   6.063  0.6163 -0.0850 -1.8273
   90SAPC   H4S 8566   7.407   1.727   6.175 -0.2500 -0.0135 -0.9905
   90SAPC   C25 8567   7.519   1.789   6.001  0.3334 -0.1598 -0.7863
   90SAPC   H5R 8568   7.600   1.725   6.040 -0.0398  0.7297  1.5810
   90SAPC   C26 8569   7.525   1.831   5.874 -0.2732 -0.0813  0.0562
   90SAPC   H6R 8570   7.616   1.810   5.815 -0.0300  1.0419  0.0162
   90SAPC   C27 8571   7.431   1.918   5.805  0.3100  0.3470  0.7254
   90SAPC   H7R 8572   7.383   1.999   5.864 -0.7437  0.8906 -0.7978
   90SAPC   H7S 8573   7.338   1.862   5.784  0.0106  1.0433  0.1366
   90SAPC   C28 8574   7.487   1.989   5.682 -0.6402 -0.4843 -0.4115
   90SAPC   H8R 8575   7.566   2.060   5.712 -1.3118  0.9688 -1.8971
   90SAPC   C29 8576   7.447   1.983   5.556 -0.2118  0.7204 -0.2160
   90SAPC   H9R 8577   7.492   2.060   5.490  1.4147  0.4743  0.5772
   90SAPC  C210 8578   7.329   1.901   5.504 -0.0492 -0.5987  0.4673
   90SAPC  H10R 8579   7.251   1.976   5.479  0.1728  0.3085  2.3195
   90SAPC  H10S 8580   7.272   1.852   5.586 -1.0004 -0.1215  0.1102
   90SAPC  C211 8581   7.362   1.814   5.383 -0.5643 -0.3341 -0.3957
   90SAPC  H11R 8582   7.427   1.728   5.402 -2.3435 -1.6416  0.1088
   90SAPC  C212 8583   7.323   1.832   5.254 -0.0805  0.0987  0.0393
   90SAPC  H12R 8584   7.358   1.766   5.173 -2.4993 -2.2036  0.7401
   90SAPC  C213 8585   7.230   1.938   5.206  0.1382  0.4662  0.1601
   90SAPC  H13R 8586   7.273   2.038   5.228  1.4207  0.3378 -1.5570
   90SAPC  H13S 8587   7.126   1.940   5.244  0.0881 -1.3725  0.2124
   90SAPC  C214 8588   7.234   1.942   5.054 -0.3702 -0.3993 -0.0370
   90SAPC  H14R 8589   7.169   1.870   5.002  0.9566 -1.4144 -0.3327
   90SAPC  C215 8590   7.325   2.009   4.979  0.7135 -0.0237  0.7947
   90SAPC  H15R 8591   7.315   2.000   4.870  0.6073 -5.2302  0.9831
   90SAPC  C216 8592   7.427   2.110   5.025 -0.0566  0.7030  0.0563
   90SAPC  H16R 8593   7.432   2.127   5.135  1.4488  1.4970 -0.1081
   90SAPC  H16S 8594   7.394   2.205   4.978 -4.9598 -0.2964  0.9523
   90SAPC  C217 8595   7.577   2.087   4.976  0.3209  0.4991 -0.4027
   90SAPC  H17R 8596   7.643   2.159   5.028  1.2115 -0.6568  0.0955
   90SAPC  H17S 8597   7.580   2.105   4.866  1.2096 -3.4718 -1.2072
   90SAPC  C218 8598   7.624   1.940   5.009 -0.1624 -0.3348 -0.4925
   90SAPC  H18R 8599   7.564   1.879   4.938  0.4870 -1.5391 -0.0372
   90SAPC  H18S 8600   7.594   1.912   5.112 -0.1328  2.2691  0.3036
   90SAPC  C219 8601   7.776   1.927   4.989  0.3730 -0.1668  0.1757
   90SAPC  H19R 8602   7.835   1.983   5.064  0.8705  0.0046 -0.3390
   90SAPC  H19S 8603   7.795   1.976   4.891 -2.3952  1.5637  0.3767
   90SAPC  C220 8604   7.829   1.790   4.974 -0.1823 -0.1143 -0.0083
   90SAPC  H20R 8605   7.853   1.751   5.075 -0.4145 -0.2596 -0.0072
   90SAPC  H20S 8606   7.927   1.793   4.922 -0.0707  0.0535  0.2113
   90SAPC  H20T 8607   7.757   1.726   4.918  0.3862  0.0285 -0.9329
   90SAPC   C33 8608   7.232   1.442   6.361  0.3628 -0.4135 -0.1512
   90SAPC   H3X 8609   7.300   1.369   6.312 -0.1248 -1.8683  1.2816
   90SAPC   H3Y 8610   7.250   1.545   6.323  0.6084 -1.0032 -1.7276
   90SAPC   C34 8611   7.086   1.402   6.316  0.3046 -0.2050  0.0670
   90SAPC   H4X 8612   7.008   1.459   6.371 -0.9755 -1.1897 -0.6670
   90SAPC   H4Y 8613   7.074   1.293   6.335  0.1470 -0.2477 -0.2653
   90SAPC   C35 8614   7.069   1.414   6.166 -0.6713  0.0049 -0.2064
   90SAPC   H5X 8615   6.973   1.368   6.134 -1.4112  0.3804  1.3313
   90SAPC   H5Y 8616   7.160   1.365   6.124 -0.8337 -0.8976  0.4532
   90SAPC   C36 8617   7.083   1.557   6.117 -0.2692 -0.8965  1.0477
   90SAPC   H6X 8618   7.156   1.617   6.175 -1.0553 -0.0696  1.2123
   90SAPC   H6Y 8619   6.980   1.597   6.133 -1.0882 -2.0016 -1.0408
   90SAPC   C37 8620   7.128   1.568   5.969 -0.7409  0.1018 -0.7869
   90SAPC   H7X 8621   7.225   1.519   5.944 -0.5366  1.0697 -2.0036
   90SAPC   H7Y 8622   7.139   1.673   5.933  2.4042 -0.9469 -3.3794
   90SAPC   C38 8623   7.027   1.502   5.881 -0.0040 -0.0445 -0.2534
   90SAPC   H8X 8624   6.931   1.550   5.907 -0.1761 -1.4728  2.0281
   90SAPC   H8Y 8625   7.026   1.397   5.917  0.8996  1.0629  3.4214
   90SAPC   C39 8626   7.048   1.517   5.726  0.3580  0.0786 -0.0404
   90SAPC   H9X 8627   7.156   1.490   5.715  0.4111  0.9087 -1.8333
   90SAPC   H9Y 8628   7.025   1.616   5.683 -2.0074  0.2278  1.4151
   90SAPC  C310 8629   6.953   1.418   5.650  0.4960  0.1382  0.1757
   90SAPC  H10X 8630   6.844   1.437   5.656  0.4434 -0.3408  0.7657
   90SAPC  H10Y 8631   6.970   1.321   5.702  0.4418  0.6448  1.1549
   90SAPC  C311 8632   6.986   1.387   5.504  0.2675 -0.0254 -0.3835
   90SAPC  H11X 8633   6.933   1.294   5.474  0.2623  0.1923 -1.0613
   90SAPC  H11Y 8634   7.096   1.368   5.502  0.5490  1.5432 -0.8092
   90SAPC  C312 8635   6.964   1.501   5.401 -0.0649  0.3926  0.2238
   90SAPC  H12X 8636   7.018   1.589   5.442  1.1793  0.1257 -0.7882
   90SAPC  H12Y 8637   6.858   1.533   5.409  0.1081  0.6864  1.6394
   90SAPC  C313 8638   7.005   1.483   5.250  0.2129 -0.7212  0.7928
   90SAPC  H13X 8639   6.961   1.403   5.186  1.8049  0.9237 -2.6018
   90SAPC  H13Y 8640   7.113   1.460   5.251 -0.2386 -3.1136  1.2970
   90SAPC  C314 8641   6.963   1.614   5.171 -0.4651  0.1451  0.6549
   90SAPC  H14X 8642   7.031   1.618   5.083  0.1383  0.6237  1.1348
   90SAPC  H14Y 8643   6.989   1.689   5.248  0.7129 -0.1055  0.5241
   90SAPC  C315 8644   6.812   1.635   5.139  0.6748 -0.4734  0.1711
   90SAPC  H15X 8645   6.779   1.738   5.113 -2.9597 -0.8004  2.6703
   90SAPC  H15Y 8646   6.755   1.601   5.228  1.0127 -1.0657  0.1649
   90SAPC  C316 8647   6.771   1.565   5.010  0.5327 -0.1397  0.1925
   90SAPC  H16X 8648   6.683   1.620   4.970  0.5263  1.6964  2.5338
   90SAPC  H16Y 8649   6.736   1.461   5.029  1.1282 -0.5864 -1.0137
   90SAPC  C317 8650   6.866   1.573   4.893  0.0028  0.0446 -0.0497
   90SAPC  H17X 8651   6.967   1.534   4.916 -0.2285 -0.1951  0.5706
   90SAPC  H17Y 8652   6.869   1.679   4.859  0.7138  0.7939  2.1958
   90SAPC  C318 8653   6.825   1.484   4.776  0.7020  0.1389  0.8087
   90SAPC  H18X 8654   6.854   1.378   4.792  1.5003  0.0150 -1.1873
   90SAPC  H18Y 8655   6.881   1.510   4.683  2.5367 -0.2603  1.7606
   90SAPC  H18Z 8656   6.718   1.487   4.748  1.3255  0.5803 -1.8191
   91SAPC     N 8657   6.832   3.196   7.243  0.0458  0.2547  0.3013
   91SAPC   C12 8658   6.708   3.185   7.150  0.1850 -0.0922 -0.1824
   91SAPC  H12A 8659   6.632   3.155   7.221 -0.0776  1.6866  0.3247
   91SAPC  H12B 8660   6.736   3.109   7.078  2.1667  0.2698  0.1499
   91SAPC   C13 8661   6.791   3.268   7.369 -0.2966 -0.0613  0.5502
   91SAPC  H13A 8662   6.726   3.352   7.356  0.4546  0.7146  1.6700
   91SAPC  H13B 8663   6.741   3.202   7.438 -0.2106 -1.8214 -0.9823
   91SAPC  H13C 8664   6.880   3.297   7.423  1.1025 -4.2594  0.8792
   91SAPC   C14 8665   6.879   3.064   7.283 -0.0249 -0.6975  0.0313
   91SAPC  H14A 8666   6.898   3.000   7.198 -0.4010 -1.7830  0.7458
   91SAPC  H14B 8667   6.970   3.079   7.338 -0.7384  0.3771  0.9604
   91SAPC  H14C 8668   6.805   3.014   7.343  0.3918 -1.5078 -0.1165
   91SAPC   C15 8669   6.937   3.278   7.183 -0.2208 -0.1831  0.7255
   91SAPC  H15A 8670   6.972   3.229   7.093  1.6536 -0.1411  1.3888
   91SAPC  H15B 8671   6.913   3.376   7.145 -0.1512 -0.1149  0.8532
   91SAPC  H15C 8672   7.021   3.285   7.252  1.3825 -2.2489 -0.8747
   91SAPC   C11 8673   6.660   3.307   7.076 -0.0954  0.2224  1.0724
   91SAPC  H11A 8674   6.581   3.274   7.005 -0.1697  0.4955  1.0267
   91SAPC  H11B 8675   6.745   3.347   7.016  0.0601 -0.3349  0.9179
   91SAPC     P 8676   6.473   3.403   7.225  0.1100  0.2491 -0.3011
   91SAPC   O13 8677   6.473   3.285   7.314  0.5084  0.0488 -0.8700
   91SAPC   O14 8678   6.443   3.538   7.282  0.0187  0.7177 -0.5150
   91SAPC   O12 8679   6.613   3.412   7.158  0.6780 -0.4141 -0.6118
   91SAPC   O11 8680   6.390   3.372   7.099 -0.4725  0.0685  0.3398
   91SAPC    C1 8681   6.353   3.460   6.991  0.0394 -0.0874 -0.0349
   91SAPC    HA 8682   6.243   3.477   6.995  0.0950  0.8636 -1.6093
   91SAPC    HB 8683   6.409   3.556   6.990 -1.7425  1.0378 -2.3645
   91SAPC    C2 8684   6.369   3.405   6.851 -0.3867  0.1202 -0.0706
   91SAPC    HS 8685   6.308   3.314   6.839  1.4261 -1.0849 -0.5697
   91SAPC   O21 8686   6.506   3.391   6.813  0.9539  0.2415  0.4503
   91SAPC   C21 8687   6.536   3.301   6.722  0.7417  0.3376 -0.3923
   91SAPC   O22 8688   6.447   3.246   6.656 -0.0103 -0.4314 -1.2363
   91SAPC   C22 8689   6.685   3.276   6.711 -0.5930 -0.7996  0.4920
   91SAPC   H2R 8690   6.745   3.369   6.725 -0.1934 -1.0853  0.7201
   91SAPC   H2S 8691   6.721   3.215   6.797 -2.1913 -2.0796  0.3029
   91SAPC    C3 8692   6.305   3.512   6.759 -0.1965 -0.0657  0.4719
   91SAPC    HX 8693   6.357   3.610   6.760  0.4374 -0.4019  1.3332
   91SAPC    HY 8694   6.206   3.541   6.799  0.0502 -0.2868  1.2625
   91SAPC   O31 8695   6.297   3.473   6.623  0.7140 -0.9411  0.9095
   91SAPC   C31 8696   6.185   3.401   6.587 -0.2178 -0.3219 -0.0057
   91SAPC   O32 8697   6.086   3.370   6.655 -0.4733 -0.6043 -0.0600
   91SAPC   C32 8698   6.199   3.366   6.438 -0.4590 -0.3440  0.4045
   91SAPC   H2X 8699   6.281   3.293   6.427 -1.2474 -1.0826 -0.8143
   91SAPC   H2Y 8700   6.227   3.462   6.389 -1.5219  1.0508  2.4077
   91SAPC   C23 8701   6.721   3.213   6.574 -0.0847 -0.4941  0.6272
   91SAPC   H3R 8702   6.663   3.119   6.558 -1.6324  0.7234 -1.5634
   91SAPC   H3S 8703   6.831   3.199   6.576 -0.0577 -1.3403 -2.1807
   91SAPC   C24 8704   6.692   3.312   6.450 -0.4535 -0.4225 -0.1938
   91SAPC   H4R 8705   6.595   3.362   6.470  0.7904  2.0178  0.2041
   91SAPC   H4S 8706   6.669   3.241   6.368 -1.5002 -0.4672  0.1272
   91SAPC   C25 8707   6.810   3.408   6.424 -0.2648  0.5716 -0.4555
   91SAPC   H5R 8708   6.837   3.478   6.505  2.6581  0.3081 -1.0938
   91SAPC   C26 8709   6.888   3.413   6.316  0.3828 -0.3124 -0.5045
   91SAPC   H6R 8710   6.973   3.482   6.324 -1.7223  2.2841  0.9547
   91SAPC   C27 8711   6.872   3.332   6.187 -0.3091  0.7901  0.4871
   91SAPC   H7R 8712   6.779   3.365   6.135 -0.9097 -0.3056  0.8269
   91SAPC   H7S 8713   6.842   3.229   6.217  1.7590  0.4067  1.3940
   91SAPC   C28 8714   6.991   3.311   6.099 -0.2401 -0.0653  0.2086
   91SAPC   H8R 8715   7.039   3.213   6.087  0.5271  0.5114 -1.8842
   91SAPC   C29 8716   7.033   3.404   6.009  0.1487 -0.1500 -0.7792
   91SAPC   H9R 8717   7.111   3.384   5.934 -0.7249  2.8779 -2.6837
   91SAPC  C210 8718   6.970   3.543   6.003  0.2050  0.1508  0.0764
   91SAPC  H10R 8719   6.999   3.604   6.091 -2.5143  0.8409  0.5794
   91SAPC  H10S 8720   6.859   3.539   6.011  0.2918 -0.2403  1.2154
   91SAPC  C211 8721   7.008   3.612   5.867 -0.0943  0.0355  0.1910
   91SAPC  H11R 8722   7.082   3.693   5.876  0.3765 -0.5582  2.2987
   91SAPC  C212 8723   6.950   3.576   5.750 -0.3002  0.2938 -0.0607
   91SAPC  H12R 8724   6.978   3.638   5.664  0.1119 -1.3302 -1.1451
   91SAPC  C213 8725   6.858   3.459   5.722 -0.7715 -0.3347 -0.5060
   91SAPC  H13R 8726   6.752   3.494   5.727 -0.5588  0.1883  1.7601
   91SAPC  H13S 8727   6.855   3.398   5.815  0.8243  1.6634  0.9740
   91SAPC  C214 8728   6.906   3.401   5.589  0.0519  0.4652  0.0256
   91SAPC  H14R 8729   6.966   3.310   5.598 -1.5413 -0.4905  1.5205
   91SAPC  C215 8730   6.886   3.449   5.466  0.2754 -0.6249  0.7290
   91SAPC  H15R 8731   6.937   3.395   5.385  0.7611 -2.0379  1.9508
   91SAPC  C216 8732   6.804   3.569   5.425  0.0535 -0.3775  0.6213
   91SAPC  H16R 8733   6.862   3.633   5.355 -1.8572 -1.4643 -2.1494
   91SAPC  H16S 8734   6.793   3.639   5.511  2.4824  2.4425 -1.1720
   91SAPC  C217 8735   6.669   3.545   5.358  0.0272 -0.1134 -0.1559
   91SAPC  H17R 8736   6.619   3.641   5.384  1.4664  0.5554  0.2298
   91SAPC  H17S 8737   6.625   3.474   5.432  3.3687 -1.8532  0.3355
   91SAPC  C218 8738   6.676   3.497   5.216  0.6352  0.2850  0.4592
   91SAPC  H18R 8739   6.759   3.549   5.164  1.3252 -0.5210  0.7358
   91SAPC  H18S 8740   6.591   3.532   5.153 -0.0349 -1.3334  0.4351
   91SAPC  C219 8741   6.669   3.344   5.192 -0.6081 -0.0463  0.3336
   91SAPC  H19R 8742   6.562   3.316   5.192 -0.4870 -0.5465 -0.6925
   91SAPC  H19S 8743   6.738   3.290   5.261  1.1373 -2.2782 -2.9416
   91SAPC  C220 8744   6.724   3.300   5.049  0.5377  0.2751  0.8827
   91SAPC  H20R 8745   6.834   3.316   5.049  0.6065  0.0693 -1.1239
   91SAPC  H20S 8746   6.679   3.355   4.963  0.2205 -0.0664  0.8288
   91SAPC  H20T 8747   6.697   3.193   5.039  2.2508 -0.0798 -0.5885
   91SAPC   C33 8748   6.073   3.310   6.372  0.4473  0.5531  0.6109
   91SAPC   H3X 8749   5.982   3.372   6.378  0.2621  0.4294 -0.6591
   91SAPC   H3Y 8750   6.033   3.227   6.435  1.1376  0.0920  0.4619
   91SAPC   C34 8751   6.096   3.249   6.236 -0.7352  0.7529  0.6947
   91SAPC   H4X 8752   6.172   3.168   6.240 -1.9143 -0.3837  0.5824
   91SAPC   H4Y 8753   6.122   3.331   6.166  0.0313  0.6676  0.8684
   91SAPC   C35 8754   5.982   3.163   6.177  0.0799 -0.2852  0.4729
   91SAPC   H5X 8755   5.895   3.232   6.184 -0.4841 -1.1595  4.5771
   91SAPC   H5Y 8756   5.968   3.078   6.247 -0.9916 -0.4956  0.0206
   91SAPC   C36 8757   6.007   3.122   6.032 -0.6863  0.7910 -0.2869
   91SAPC   H6X 8758   5.939   3.037   6.013  1.8385 -1.4142  0.0238
   91SAPC   H6Y 8759   6.106   3.073   6.029  0.0332  2.2021 -1.4987
   91SAPC   C37 8760   6.000   3.223   5.926  0.7396  0.4861  0.0763
   91SAPC   H7X 8761   6.096   3.274   5.901  1.3365 -0.5382  0.2060
   91SAPC   H7Y 8762   5.926   3.300   5.956 -0.4377 -0.2516 -0.8738
   91SAPC   C38 8763   5.949   3.161   5.795  0.0390  0.5061  0.7799
   91SAPC   H8X 8764   5.844   3.126   5.806 -0.5396  1.7602 -0.4398
   91SAPC   H8Y 8765   6.002   3.067   5.769 -2.1202 -0.7059  0.4528
   91SAPC   C39 8766   5.973   3.257   5.671  0.4642 -0.3934  0.2194
   91SAPC   H9X 8767   6.082   3.260   5.654  0.4951 -0.9659  0.2764
   91SAPC   H9Y 8768   5.925   3.353   5.702  1.3134 -0.6681  2.6146
   91SAPC  C310 8769   5.909   3.199   5.556  0.4424  0.5202  0.4277
   91SAPC  H10X 8770   5.800   3.184   5.573 -0.0871  1.3990 -1.7869
   91SAPC  H10Y 8771   5.950   3.101   5.525  0.3008  0.9645 -1.2932
   91SAPC  C311 8772   5.930   3.290   5.438 -0.2362 -0.5849 -0.0873
   91SAPC  H11X 8773   6.038   3.315   5.439 -0.5379  0.7665  0.0601
   91SAPC  H11Y 8774   5.865   3.379   5.447  0.4635 -0.1273  0.5259
   91SAPC  C312 8775   5.900   3.207   5.313  0.8543  0.5087 -0.6619
   91SAPC  H12X 8776   5.792   3.180   5.303  0.7123  0.5022  0.7568
   91SAPC  H12Y 8777   5.965   3.119   5.331  2.7756  2.3503  1.9898
   91SAPC  C313 8778   5.962   3.273   5.191  0.1360  0.2521 -0.3111
   91SAPC  H13X 8779   6.071   3.278   5.211  0.1644  0.9018 -0.6150
   91SAPC  H13Y 8780   5.933   3.380   5.190 -0.0460  0.3110  2.9151
   91SAPC  C314 8781   5.959   3.190   5.066 -0.3120 -0.3801 -0.3229
   91SAPC  H14X 8782   5.869   3.211   5.004  2.0492 -0.3348 -4.0164
   91SAPC  H14Y 8783   5.957   3.083   5.093  1.1958 -0.7531 -1.5291
   91SAPC  C315 8784   6.087   3.216   4.986  0.3419  0.4844  0.1043
   91SAPC  H15X 8785   6.173   3.197   5.054  0.9411  1.7475 -0.2617
   91SAPC  H15Y 8786   6.079   3.318   4.942 -1.6651 -1.3552 -4.3684
   91SAPC  C316 8787   6.105   3.118   4.875  0.0685  0.3909  0.3358
   91SAPC  H16X 8788   6.094   3.016   4.916  0.3518  0.6932  1.1877
   91SAPC  H16Y 8789   6.208   3.117   4.834 -0.8558  0.3459 -2.1315
   91SAPC  C317 8790   6.010   3.147   4.749 -0.0186  0.2489  0.5378
   91SAPC  H17X 8791   6.004   3.255   4.725 -2.6409 -0.2765 -1.6729
   91SAPC  H17Y 8792   5.910   3.120   4.788 -0.6446 -0.9245 -1.7032
   91SAPC  C318 8793   6.031   3.075   4.611  0.4309 -0.1791  0.5003
   91SAPC  H18X 8794   5.954   3.118   4.544  1.0215 -0.3525 -0.3006
   91SAPC  H18Y 8795   6.003   2.969   4.630  0.6672 -0.2327  0.5552
   91SAPC  H18Z 8796   6.132   3.086   4.568 -0.0193  1.0159 -0.2999
   92SAPC     N 8797   5.234   3.846   7.202 -0.1584 -0.4559 -0.5319
   92SAPC   C12 8798   5.330   3.769   7.107  0.2362  0.1236  0.2018
   92SAPC  H12A 8799   5.350   3.675   7.157  1.1444  0.7246  0.9966
   92SAPC  H12B 8800   5.422   3.825   7.108 -0.0022  0.5425 -0.6972
   92SAPC   C13 8801   5.295   3.878   7.341  0.1783 -0.1500  0.2061
   92SAPC  H13A 8802   5.275   3.799   7.413 -1.7400  1.2010  1.2403
   92SAPC  H13B 8803   5.402   3.894   7.339 -0.0616  1.7376  0.7652
   92SAPC  H13C 8804   5.252   3.966   7.386  0.2331 -0.2380  0.4335
   92SAPC   C14 8805   5.186   3.978   7.155 -0.3913  0.3068 -0.4124
   92SAPC  H14A 8806   5.137   3.972   7.059  0.0818 -0.9782 -0.6006
   92SAPC  H14B 8807   5.113   4.027   7.219 -0.2333 -1.4578  1.2191
   92SAPC  H14C 8808   5.266   4.045   7.128 -1.4493  1.4784 -0.7300
   92SAPC   C15 8809   5.106   3.772   7.218 -0.2330  0.1309 -0.4090
   92SAPC  H15A 8810   5.043   3.824   7.289 -1.6925 -1.4601 -0.4718
   92SAPC  H15B 8811   5.051   3.770   7.124 -1.9537  1.3436  0.5140
   92SAPC  H15C 8812   5.125   3.674   7.260  0.1270  0.6565  0.6830
   92SAPC   C11 8813   5.287   3.737   6.962  0.3623 -0.3866  0.8883
   92SAPC  H11A 8814   5.193   3.679   6.951 -0.1360  0.8227 -1.8455
   92SAPC  H11B 8815   5.367   3.675   6.918  0.0521  1.1784 -2.1601
   92SAPC     P 8816   5.383   3.956   6.828 -0.1310 -0.2659 -0.4092
   92SAPC   O13 8817   5.382   4.082   6.908  0.3483  0.2766  0.2017
   92SAPC   O14 8818   5.511   3.888   6.817 -0.2585  0.4653 -0.1621
   92SAPC   O12 8819   5.275   3.859   6.888  0.3313  0.0521 -0.5353
   92SAPC   O11 8820   5.336   3.998   6.684 -0.3096  0.1022  0.3361
   92SAPC    C1 8821   5.202   4.006   6.636 -0.2015  0.7949 -0.5414
   92SAPC    HA 8822   5.131   3.998   6.722  1.8320 -2.1515  1.0451
   92SAPC    HB 8823   5.180   4.104   6.590 -0.1446  0.9274 -0.2924
   92SAPC    C2 8824   5.171   3.879   6.552 -0.3027 -0.2462 -0.0575
   92SAPC    HS 8825   5.219   3.789   6.598  0.8927 -0.6581 -1.9953
   92SAPC   O21 8826   5.217   3.911   6.424 -0.2885  0.3540 -0.1486
   92SAPC   C21 8827   5.305   3.827   6.381 -1.0264  0.6296  0.1238
   92SAPC   O22 8828   5.351   3.726   6.439 -0.0139  0.6005 -0.6619
   92SAPC   C22 8829   5.349   3.872   6.242  0.3175  0.7623  0.5158
   92SAPC   H2R 8830   5.273   3.938   6.195  1.4110  1.3779 -0.4102
   92SAPC   H2S 8831   5.441   3.931   6.257 -0.3044  1.8165  0.2870
   92SAPC    C3 8832   5.017   3.854   6.534 -0.2955 -0.2221  0.6386
   92SAPC    HX 8833   4.979   3.953   6.502  1.0713  0.1331  0.0739
   92SAPC    HY 8834   4.949   3.855   6.622 -0.8540 -0.4041  0.2143
   92SAPC   O31 8835   4.983   3.761   6.428  0.4026  0.5904 -0.3382
   92SAPC   C31 8836   4.953   3.639   6.481  0.4220  0.0571  0.4141
   92SAPC   O32 8837   4.944   3.614   6.598 -0.1288  0.2032  0.2271
   92SAPC   C32 8838   4.962   3.538   6.369 -0.1558 -0.0597 -0.6868
   92SAPC   H2X 8839   4.929   3.438   6.407  3.1170 -1.6802 -1.7412
   92SAPC   H2Y 8840   5.068   3.508   6.357 -0.8995 -2.4678 -2.0270
   92SAPC   C23 8841   5.370   3.753   6.143 -0.3979 -0.1883  0.3752
   92SAPC   H3R 8842   5.413   3.663   6.191 -0.6927  0.4931  1.9796
   92SAPC   H3S 8843   5.446   3.790   6.071 -0.3047  1.0936  1.1036
   92SAPC   C24 8844   5.243   3.721   6.067 -0.3484  0.3556 -0.0537
   92SAPC   H4R 8845   5.194   3.812   6.027  0.8810  1.3096  0.5770
   92SAPC   H4S 8846   5.174   3.692   6.150  0.5290  2.0909  1.3414
   92SAPC   C25 8847   5.257   3.609   5.969  0.2851  0.9582  0.1517
   92SAPC   H5R 8848   5.322   3.526   6.001 -2.8270 -1.7874 -0.1134
   92SAPC   C26 8849   5.195   3.595   5.849 -0.2104  0.3152 -0.0690
   92SAPC   H6R 8850   5.212   3.496   5.803 -0.0105  0.4166 -0.2133
   92SAPC   C27 8851   5.097   3.692   5.784  0.0547  0.8904  0.0072
   92SAPC   H7R 8852   5.157   3.726   5.698  0.5510  0.0012 -0.0167
   92SAPC   H7S 8853   5.070   3.776   5.851 -0.4582 -0.1234  1.1236
   92SAPC   C28 8854   4.962   3.628   5.747 -0.3227  0.7592 -0.2622
   92SAPC   H8R 8855   4.912   3.572   5.827 -1.2191  0.7245 -0.8358
   92SAPC   C29 8856   4.911   3.633   5.627  0.1366  0.3006  0.2607
   92SAPC   H9R 8857   4.812   3.585   5.613 -1.0165  2.5347  0.3836
   92SAPC  C210 8858   4.977   3.685   5.501 -0.2940  0.4081 -0.1505
   92SAPC  H10R 8859   5.086   3.685   5.519 -0.4516 -1.0870  1.0219
   92SAPC  H10S 8860   4.952   3.793   5.499 -0.5809  0.4094  1.6410
   92SAPC  C211 8861   4.942   3.616   5.371 -0.5454 -0.9669  0.3538
   92SAPC  H11R 8862   4.987   3.516   5.365  0.6503 -0.4024 -0.6439
   92SAPC  C212 8863   4.870   3.661   5.266 -0.3717 -0.5579 -0.4339
   92SAPC  H12R 8864   4.865   3.601   5.175  1.7731  0.8676 -1.5737
   92SAPC  C213 8865   4.795   3.794   5.273 -0.2212  0.4957 -0.1734
   92SAPC  H13R 8866   4.780   3.845   5.176  0.7305  2.1819  0.5217
   92SAPC  H13S 8867   4.846   3.873   5.333 -0.3138  0.1605  0.3582
   92SAPC  C214 8868   4.657   3.789   5.334 -0.8238  0.9171  0.4633
   92SAPC  H14R 8869   4.648   3.697   5.393 -0.3810 -1.2233 -2.5541
   92SAPC  C215 8870   4.562   3.889   5.330 -1.0816 -0.2143  0.6143
   92SAPC  H15R 8871   4.469   3.877   5.388 -0.8217 -1.0339  0.8821
   92SAPC  C216 8872   4.563   4.016   5.247  0.1662  0.1197  0.4026
   92SAPC  H16R 8873   4.464   4.029   5.198 -0.2039 -1.7420  0.5789
   92SAPC  H16S 8874   4.641   4.019   5.168  0.0599  1.8886  0.3314
   92SAPC  C217 8875   4.583   4.137   5.341 -0.7324 -0.3035 -0.3572
   92SAPC  H17R 8876   4.592   4.226   5.275 -1.3127 -0.5741 -0.8115
   92SAPC  H17S 8877   4.673   4.121   5.405 -0.6160  1.1986 -0.0963
   92SAPC  C218 8878   4.463   4.152   5.440  0.2370  0.4202 -0.3815
   92SAPC  H18R 8879   4.451   4.060   5.501 -0.9139 -0.5212 -1.9406
   92SAPC  H18S 8880   4.369   4.171   5.384 -1.2879  2.0256  2.4800
   92SAPC  C219 8881   4.480   4.273   5.533  0.0433 -0.7409 -0.1152
   92SAPC  H19R 8882   4.586   4.269   5.567  1.0038 -2.8934 -2.9627
   92SAPC  H19S 8883   4.416   4.261   5.623 -1.6222  1.1005 -0.9846
   92SAPC  C220 8884   4.455   4.405   5.464  0.3411 -0.2760 -0.5897
   92SAPC  H20R 8885   4.438   4.480   5.544  1.1433  0.5968 -1.2160
   92SAPC  H20S 8886   4.357   4.397   5.414  0.0783 -1.3254  0.0511
   92SAPC  H20T 8887   4.528   4.450   5.394 -0.7839  0.0088 -1.6023
   92SAPC   C33 8888   4.889   3.568   6.235 -0.2223 -0.2115 -0.4397
   92SAPC   H3X 8889   4.935   3.495   6.165 -0.1870 -0.7188  0.1050
   92SAPC   H3Y 8890   4.919   3.672   6.209 -1.3482  0.0951 -0.5793
   92SAPC   C34 8891   4.736   3.545   6.239  0.0460 -0.4629 -0.0710
   92SAPC   H4X 8892   4.682   3.621   6.178 -0.2257  0.3113  1.1184
   92SAPC   H4Y 8893   4.708   3.567   6.344  0.4150  0.1626 -0.0991
   92SAPC   C35 8894   4.692   3.407   6.204 -0.4359  0.0818  0.2049
   92SAPC   H5X 8895   4.583   3.387   6.219 -0.4706 -1.4973 -1.8279
   92SAPC   H5Y 8896   4.755   3.342   6.269  0.1281 -0.1770 -0.5879
   92SAPC   C36 8897   4.713   3.352   6.060 -0.2302 -0.3597 -0.0989
   92SAPC   H6X 8898   4.709   3.241   6.057  2.3156 -0.8101  4.2354
   92SAPC   H6Y 8899   4.817   3.367   6.024  0.3087 -1.0391  1.1044
   92SAPC   C37 8900   4.604   3.409   5.967  0.3090 -0.2866  0.9581
   92SAPC   H7X 8901   4.588   3.519   5.968 -1.3428 -0.4950  0.4259
   92SAPC   H7Y 8902   4.507   3.359   5.986 -1.2205  2.0371 -0.2639
   92SAPC   C38 8903   4.631   3.373   5.811 -0.7851 -0.4612 -0.6112
   92SAPC   H8X 8904   4.719   3.427   5.770 -0.9533  0.3265  0.0558
   92SAPC   H8Y 8905   4.539   3.404   5.758 -0.8214 -2.3381 -1.7352
   92SAPC   C39 8906   4.654   3.225   5.780  0.0243 -0.2559 -0.3100
   92SAPC   H9X 8907   4.582   3.172   5.845 -2.2956 -0.2971 -2.7259
   92SAPC   H9Y 8908   4.754   3.193   5.815 -0.5083 -0.5418  1.0191
   92SAPC  C310 8909   4.624   3.177   5.637 -0.2907  0.1447 -0.0795
   92SAPC  H10X 8910   4.686   3.253   5.585  1.5573 -0.5039  1.0974
   92SAPC  H10Y 8911   4.515   3.178   5.616 -0.3759 -1.5587  0.1569
   92SAPC  C311 8912   4.677   3.032   5.606  0.0711 -0.2205 -0.1829
   92SAPC  H11X 8913   4.604   2.956   5.644  0.3183  0.2091  1.2167
   92SAPC  H11Y 8914   4.769   3.014   5.666  0.9391 -0.7653 -1.6329
   92SAPC  C312 8915   4.706   3.007   5.457 -0.3983 -0.4512  0.1333
   92SAPC  H12X 8916   4.754   2.907   5.450 -1.2210 -0.7264 -2.6532
   92SAPC  H12Y 8917   4.778   3.080   5.414 -0.6452  1.3888  2.6246
   92SAPC  C313 8918   4.581   2.995   5.361 -0.2344  0.1653 -0.2067
   92SAPC  H13X 8919   4.518   3.082   5.390  0.9686  0.3280  2.1703
   92SAPC  H13Y 8920   4.516   2.906   5.373  0.4735 -0.1550  1.5617
   92SAPC  C314 8921   4.612   3.018   5.213  0.9894 -0.5019  0.6516
   92SAPC  H14X 8922   4.524   3.025   5.145  2.0870 -2.3331 -1.0597
   92SAPC  H14Y 8923   4.671   2.935   5.169  0.9160 -0.0643 -0.3114
   92SAPC  C315 8924   4.669   3.158   5.193  0.5139  0.1800  0.3596
   92SAPC  H15X 8925   4.773   3.162   5.233  0.6983  0.0271 -0.0997
   92SAPC  H15Y 8926   4.621   3.238   5.253  1.4330  0.5822  0.5853
   92SAPC  C316 8927   4.673   3.200   5.046 -0.5043  0.2075 -0.8977
   92SAPC  H16X 8928   4.568   3.224   5.018 -1.9394 -3.3001  0.8324
   92SAPC  H16Y 8929   4.708   3.110   4.991 -0.4434 -0.5019  0.2653
   92SAPC  C317 8930   4.759   3.327   5.012  0.3726  0.4428 -0.4178
   92SAPC  H17X 8931   4.867   3.309   5.031  0.0958  0.2196  1.1486
   92SAPC  H17Y 8932   4.717   3.402   5.083  0.1645 -1.2667  1.3742
   92SAPC  C318 8933   4.740   3.378   4.867 -0.2354  0.7027  0.5948
   92SAPC  H18X 8934   4.731   3.296   4.794  1.3170  3.1441 -2.5559
   92SAPC  H18Y 8935   4.821   3.438   4.821  1.0585 -2.0553 -0.9512
   92SAPC  H18Z 8936   4.646   3.436   4.858  0.5711  2.2108  1.3491
   93SAPC     N 8937   2.909   5.515   7.461  0.3720 -0.1981  0.0539
   93SAPC   C12 8938   2.821   5.507   7.337 -0.1029 -0.8413 -1.1334
   93SAPC  H12A 8939   2.877   5.557   7.260  1.5317 -0.7631  0.0667
   93SAPC  H12B 8940   2.731   5.561   7.364 -0.0355 -0.3634 -1.8717
   93SAPC   C13 8941   2.825   5.482   7.582 -0.4835 -0.2095  0.9673
   93SAPC  H13A 8942   2.800   5.377   7.577  1.0110 -0.6856  2.7472
   93SAPC  H13B 8943   2.868   5.503   7.679  1.3149 -2.1999  0.6717
   93SAPC  H13C 8944   2.729   5.533   7.578  0.1092  0.8563 -0.4874
   93SAPC   C14 8945   3.022   5.432   7.461 -0.8136 -0.8193  0.3365
   93SAPC  H14A 8946   3.092   5.467   7.387  0.8517  1.4002  2.7880
   93SAPC  H14B 8947   3.075   5.445   7.554 -0.3167  0.6445 -0.1375
   93SAPC  H14C 8948   2.999   5.330   7.434  1.6811 -0.9576 -1.6414
   93SAPC   C15 8949   2.946   5.655   7.492 -0.4472 -1.2500  0.0434
   93SAPC  H15A 8950   3.002   5.671   7.582  0.8538 -1.2306 -0.7445
   93SAPC  H15B 8951   3.007   5.687   7.408  0.4000 -0.9046  0.7776
   93SAPC  H15C 8952   2.862   5.723   7.499  0.0894 -0.6733  1.0337
   93SAPC   C11 8953   2.769   5.369   7.280 -0.2932 -0.3146  0.0551
   93SAPC  H11A 8954   2.857   5.302   7.271 -0.5298 -0.9124  1.8848
   93SAPC  H11B 8955   2.721   5.387   7.182 -0.4093 -0.2427  0.1243
   93SAPC     P 8956   2.526   5.360   7.387  0.3043 -0.1706 -0.4914
   93SAPC   O13 8957   2.458   5.286   7.491 -0.6899  0.6307  0.1384
   93SAPC   O14 8958   2.529   5.512   7.402  0.2931  0.2230  0.5535
   93SAPC   O12 8959   2.676   5.312   7.371  0.3622  0.8740  0.0090
   93SAPC   O11 8960   2.453   5.321   7.249  0.1075 -0.5525  0.2332
   93SAPC    C1 8961   2.441   5.179   7.215 -0.3179  0.3485 -0.3468
   93SAPC    HA 8962   2.438   5.125   7.312  0.2947  1.4970  0.3295
   93SAPC    HB 8963   2.345   5.147   7.168  0.1115 -1.1625 -0.2533
   93SAPC    C2 8964   2.553   5.127   7.117  0.9659 -0.2089 -0.3811
   93SAPC    HS 8965   2.649   5.132   7.173  1.0889  1.4598 -0.6824
   93SAPC   O21 8966   2.556   5.218   7.006 -0.0445 -0.0873 -0.5882
   93SAPC   C21 8967   2.670   5.235   6.957 -0.6207  0.0461 -0.1501
   93SAPC   O22 8968   2.779   5.201   7.007  0.0509  0.3269  0.6405
   93SAPC   C22 8969   2.657   5.325   6.835  0.1403 -0.1086 -0.1097
   93SAPC   H2R 8970   2.552   5.359   6.822 -0.0544 -0.8219 -0.4173
   93SAPC   H2S 8971   2.719   5.416   6.849  0.7936 -0.3006 -1.5315
   93SAPC    C3 8972   2.514   4.983   7.068 -0.2855 -0.1521  0.0971
   93SAPC    HX 8973   2.499   4.924   7.160 -0.7912 -0.0666  0.0750
   93SAPC    HY 8974   2.595   4.938   7.007  0.3863  1.3570 -0.1917
   93SAPC   O31 8975   2.389   4.983   6.992  0.3356  0.2164 -0.0563
   93SAPC   C31 8976   2.345   4.857   6.964  0.0846  0.1354  0.1689
   93SAPC   O32 8977   2.417   4.760   6.984  0.3439 -0.2651  0.5145
   93SAPC   C32 8978   2.204   4.860   6.898  0.1057 -0.3488 -0.5094
   93SAPC   H2X 8979   2.163   4.961   6.877 -1.4076 -1.0152 -0.8995
   93SAPC   H2Y 8980   2.141   4.837   6.987 -0.7212 -1.2180 -1.2946
   93SAPC   C23 8981   2.701   5.252   6.706  0.7368  0.0790 -0.2285
   93SAPC   H3R 8982   2.810   5.237   6.723  1.0541  0.6815 -1.6248
   93SAPC   H3S 8983   2.684   5.323   6.622 -2.8488  1.1444  1.2157
   93SAPC   C24 8984   2.605   5.139   6.667 -0.8672  0.2893 -0.4730
   93SAPC   H4R 8985   2.517   5.166   6.605  0.8452  0.0984 -3.1755
   93SAPC   H4S 8986   2.569   5.084   6.757 -1.7708  0.7425 -0.5496
   93SAPC   C25 8987   2.686   5.047   6.579 -0.8171 -0.1033  0.8882
   93SAPC   H5R 8988   2.733   4.958   6.623 -0.0474 -0.6486 -0.9368
   93SAPC   C26 8989   2.688   5.069   6.442  0.7482 -0.3657  0.1177
   93SAPC   H6R 8990   2.751   5.008   6.376  0.6544  1.0143 -1.3205
   93SAPC   C27 8991   2.633   5.185   6.371 -0.0113 -0.1386 -0.0605
   93SAPC   H7R 8992   2.555   5.243   6.425 -2.8917 -0.2506 -3.7062
   93SAPC   H7S 8993   2.568   5.145   6.290 -2.4934 -0.1841  1.8222
   93SAPC   C28 8994   2.739   5.288   6.332 -0.0276  0.2488 -0.4113
   93SAPC   H8R 8995   2.752   5.366   6.409  0.6086 -0.7159  0.4764
   93SAPC   C29 8996   2.817   5.279   6.225  0.5201  0.2944  0.0062
   93SAPC   H9R 8997   2.892   5.359   6.214  0.3515  0.6331  1.1682
   93SAPC  C210 8998   2.802   5.180   6.104 -0.4594  0.4035  0.0432
   93SAPC  H10R 8999   2.703   5.132   6.122 -0.3653  1.3589  3.9733
   93SAPC  H10S 9000   2.884   5.105   6.106 -0.5501  0.2396 -1.2367
   93SAPC  C211 9001   2.812   5.253   5.976 -0.7004  0.1126  0.4584
   93SAPC  H11R 9002   2.843   5.358   5.978  1.6573 -0.4350 -1.7846
   93SAPC  C212 9003   2.794   5.192   5.855 -0.4495 -0.3259  0.0218
   93SAPC  H12R 9004   2.789   5.265   5.772  1.1890  1.6769  1.5788
   93SAPC  C213 9005   2.750   5.047   5.836  0.5803 -0.1128  0.2181
   93SAPC  H13R 9006   2.815   4.972   5.887 -0.9636 -1.3114  0.5090
   93SAPC  H13S 9007   2.753   5.028   5.727  2.0101  1.0925  0.0212
   93SAPC  C214 9008   2.602   5.018   5.887  0.0095 -0.3217 -1.2682
   93SAPC  H14R 9009   2.573   5.071   5.979  1.5362 -0.6712 -0.5414
   93SAPC  C215 9010   2.509   4.944   5.827  0.4512 -0.6170 -0.4097
   93SAPC  H15R 9011   2.406   4.931   5.865  0.4729  0.9486  0.2266
   93SAPC  C216 9012   2.533   4.852   5.705 -0.1622  0.3566 -0.5824
   93SAPC  H16R 9013   2.555   4.749   5.742  0.3822  0.7130  0.1121
   93SAPC  H16S 9014   2.622   4.889   5.650  1.6375 -0.7478  1.4345
   93SAPC  C217 9015   2.420   4.868   5.605  0.4024  0.4791 -0.2384
   93SAPC  H17R 9016   2.432   4.961   5.545 -0.2764  1.5574  1.2352
   93SAPC  H17S 9017   2.319   4.882   5.649  0.0333  0.5607 -1.0873
   93SAPC  C218 9018   2.417   4.743   5.521  0.3339  0.7234  0.6280
   93SAPC  H18R 9019   2.329   4.757   5.454  0.6385  1.7509  0.4093
   93SAPC  H18S 9020   2.404   4.655   5.587 -2.4215  1.4793  1.2285
   93SAPC  C219 9021   2.538   4.710   5.437 -0.3080 -0.2388 -0.4216
   93SAPC  H19R 9022   2.622   4.661   5.491  1.0842  0.5232 -1.8334
   93SAPC  H19S 9023   2.591   4.797   5.394 -1.3655  0.8079  0.3418
   93SAPC  C220 9024   2.495   4.618   5.322  0.7782  0.0968 -0.4996
   93SAPC  H20R 9025   2.573   4.611   5.243  0.9896  0.1258 -0.2939
   93SAPC  H20S 9026   2.399   4.648   5.275  0.7970 -0.3477 -0.8281
   93SAPC  H20T 9027   2.474   4.514   5.355 -0.2223  0.2323 -0.6574
   93SAPC   C33 9028   2.182   4.764   6.784  0.0155  0.8909  0.0218
   93SAPC   H3X 9029   2.075   4.740   6.768  0.7118 -1.3349 -1.8288
   93SAPC   H3Y 9030   2.229   4.665   6.798 -1.7003  0.4374  3.3402
   93SAPC   C34 9031   2.227   4.821   6.659  0.0161  0.2540  0.6822
   93SAPC   H4X 9032   2.321   4.881   6.651 -0.6993  1.1464 -2.2562
   93SAPC   H4Y 9033   2.152   4.898   6.632 -0.5963 -1.5979 -3.8150
   93SAPC   C35 9034   2.226   4.710   6.551 -0.0229  0.0545 -0.5006
   93SAPC   H5X 9035   2.129   4.657   6.549 -0.3320  0.5559  0.4641
   93SAPC   H5Y 9036   2.310   4.643   6.578  0.0375  0.8756  1.5343
   93SAPC   C36 9037   2.253   4.776   6.414 -0.0758 -0.1922 -0.3783
   93SAPC   H6X 9038   2.356   4.818   6.411 -0.9208  2.0976  0.9721
   93SAPC   H6Y 9039   2.180   4.854   6.385 -0.3296  0.2946  1.4906
   93SAPC   C37 9040   2.237   4.671   6.306 -0.1922  0.3051 -0.2629
   93SAPC   H7X 9041   2.133   4.632   6.301 -0.2788  0.5180 -0.1512
   93SAPC   H7Y 9042   2.308   4.588   6.329  2.4367  2.9264  1.9463
   93SAPC   C38 9043   2.262   4.712   6.158  0.2559 -0.1904  0.0388
   93SAPC   H8X 9044   2.368   4.747   6.151  0.0894  0.0426 -1.5698
   93SAPC   H8Y 9045   2.187   4.792   6.140 -2.2236 -1.2937  4.1626
   93SAPC   C39 9046   2.231   4.602   6.064  0.2099  0.3012  0.3093
   93SAPC   H9X 9047   2.124   4.573   6.064  0.3941 -0.4153  1.0189
   93SAPC   H9Y 9048   2.280   4.509   6.099  0.6951  0.1300 -0.7647
   93SAPC  C310 9049   2.266   4.622   5.912 -0.3467  0.3593  0.1616
   93SAPC  H10X 9050   2.377   4.623   5.907 -0.3632 -0.9033 -0.9086
   93SAPC  H10Y 9051   2.231   4.721   5.876  1.0824 -0.2873 -3.4003
   93SAPC  C311 9052   2.206   4.515   5.825 -0.4603  0.0551  0.0287
   93SAPC  H11X 9053   2.256   4.515   5.726 -1.4817 -2.8976 -0.5729
   93SAPC  H11Y 9054   2.098   4.540   5.819 -0.3735  0.1062 -2.3071
   93SAPC  C312 9055   2.205   4.370   5.868 -0.2758  0.0853 -0.4726
   93SAPC  H12X 9056   2.156   4.363   5.968 -1.1417  2.5768 -0.6672
   93SAPC  H12Y 9057   2.310   4.338   5.888 -0.5795 -1.2034 -0.8138
   93SAPC  C313 9058   2.132   4.273   5.777 -0.0577 -0.5991 -0.5594
   93SAPC  H13X 9059   2.023   4.293   5.776  0.1021  0.2971 -1.3415
   93SAPC  H13Y 9060   2.146   4.173   5.824  1.2050 -0.3096 -0.2745
   93SAPC  C314 9061   2.195   4.264   5.642  0.4957 -0.8609  0.1415
   93SAPC  H14X 9062   2.305   4.256   5.653  0.7800 -0.2779 -1.8651
   93SAPC  H14Y 9063   2.173   4.362   5.595  0.5881 -0.9429 -0.0736
   93SAPC  C315 9064   2.124   4.162   5.551 -0.4733 -0.5531 -0.1116
   93SAPC  H15X 9065   2.159   4.185   5.448  0.3646 -1.4347 -0.0315
   93SAPC  H15Y 9066   2.015   4.182   5.556  0.1514  3.4084  0.8904
   93SAPC  C316 9067   2.155   4.012   5.577  0.2647  0.2090  0.0394
   93SAPC  H16X 9068   2.117   3.968   5.672 -0.6206  0.5900 -0.1280
   93SAPC  H16Y 9069   2.265   4.003   5.568  0.3180 -0.7019  1.2981
   93SAPC  C317 9070   2.097   3.931   5.455  0.0579  0.7940  0.0386
   93SAPC  H17X 9071   2.147   3.956   5.360 -0.7694 -2.8227 -1.5015
   93SAPC  H17Y 9072   1.990   3.963   5.450 -0.6244 -0.6076  3.1903
   93SAPC  C318 9073   2.098   3.782   5.476 -0.2791 -0.7730 -0.3410
   93SAPC  H18X 9074   2.032   3.752   5.560 -0.6253 -0.0920 -0.3589
   93SAPC  H18Y 9075   2.198   3.750   5.511 -0.4910 -2.6521 -1.3440
   93SAPC  H18Z 9076   2.076   3.727   5.382 -0.1430 -2.8679  0.8044
   94SAPC     N 9077   6.153   1.064   7.080  0.6820 -0.0800  0.0083
   94SAPC   C12 9078   6.045   1.141   7.002 -0.3498  0.4852  0.4584
   94SAPC  H12A 9079   6.038   1.079   6.914  0.0817  1.6463 -0.4035
   94SAPC  H12B 9080   6.083   1.233   6.962  1.5751 -0.7531 -0.7360
   94SAPC   C13 9081   6.167   1.132   7.213 -0.1695 -0.8746  0.6257
   94SAPC  H13A 9082   6.245   1.087   7.273  1.0961 -1.1021 -1.0971
   94SAPC  H13B 9083   6.208   1.231   7.197  2.0312 -1.6963  0.8151
   94SAPC  H13C 9084   6.075   1.137   7.269  0.4762 -0.0359  1.6339
   94SAPC   C14 9085   6.100   0.930   7.106  0.3688 -0.1838  0.2097
   94SAPC  H14A 9086   6.155   0.885   7.188  2.2240  0.4490 -0.6402
   94SAPC  H14B 9087   5.999   0.941   7.143  0.0338 -0.2520 -0.6810
   94SAPC  H14C 9088   6.107   0.870   7.017  2.3688 -0.9451  0.8387
   94SAPC   C15 9089   6.288   1.064   7.033  0.1823 -0.0302  0.1700
   94SAPC  H15A 9090   6.302   1.019   6.936  1.7990 -0.4263  0.5559
   94SAPC  H15B 9091   6.330   1.164   7.028  2.2587 -0.6470  2.9830
   94SAPC  H15C 9092   6.357   1.015   7.100  1.3364 -0.8574 -1.5481
   94SAPC   C11 9093   5.910   1.172   7.068  0.6727  0.1533  0.0039
   94SAPC  H11A 9094   5.854   1.234   6.995 -0.4131 -0.1515  0.5552
   94SAPC  H11B 9095   5.931   1.246   7.148  0.6482  0.0025  0.1508
   94SAPC     P 9096   5.749   0.976   7.046 -0.0534 -0.1522  0.0420
   94SAPC   O13 9097   5.780   0.838   7.096  0.4414  0.5474  0.1943
   94SAPC   O14 9098   5.612   1.028   7.070  0.5352  0.3845  0.0791
   94SAPC   O12 9099   5.842   1.069   7.129 -1.0039 -0.4207 -0.2806
   94SAPC   O11 9100   5.794   1.001   6.893 -0.7560  0.1530  1.0509
   94SAPC    C1 9101   5.866   0.897   6.822 -0.4470 -0.3523  0.0037
   94SAPC    HA 9102   5.954   0.945   6.774 -0.2503 -0.0728  0.6277
   94SAPC    HB 9103   5.907   0.818   6.888 -1.0471  0.8728  1.9398
   94SAPC    C2 9104   5.783   0.831   6.709 -0.6751 -0.0890  0.3131
   94SAPC    HS 9105   5.841   0.754   6.655 -0.6832  0.6609 -0.8096
   94SAPC   O21 9106   5.742   0.923   6.612 -0.0823 -0.2674  0.6767
   94SAPC   C21 9107   5.727   0.884   6.487  0.2144 -0.6667 -0.2440
   94SAPC   O22 9108   5.755   0.775   6.441 -0.2772  0.2238  0.0939
   94SAPC   C22 9109   5.652   0.998   6.411 -0.3350 -0.0689 -0.0491
   94SAPC   H2R 9110   5.551   1.012   6.455 -0.2987 -0.7101  0.2558
   94SAPC   H2S 9111   5.701   1.095   6.433 -0.9206  0.4257 -0.8886
   94SAPC    C3 9112   5.655   0.757   6.770 -0.0565  0.0649  0.3942
   94SAPC    HX 9113   5.581   0.840   6.776  1.8003  1.9144 -0.8332
   94SAPC    HY 9114   5.684   0.728   6.873 -3.1717  1.4277  1.7894
   94SAPC   O31 9115   5.603   0.649   6.690 -0.1447  0.0475 -0.9572
   94SAPC   C31 9116   5.677   0.540   6.709  0.1567  0.6725  0.9427
   94SAPC   O32 9117   5.758   0.525   6.795 -0.7403 -0.1421  0.0131
   94SAPC   C32 9118   5.644   0.440   6.602  0.2825 -0.0158  0.8230
   94SAPC   H2X 9119   5.701   0.478   6.515  0.0233  1.0716  1.1216
   94SAPC   H2Y 9120   5.533   0.444   6.595  0.3771  1.2792 -0.4030
   94SAPC   C23 9121   5.650   0.985   6.258 -0.6814  0.4549 -0.4440
   94SAPC   H3R 9122   5.590   0.892   6.244  1.1531 -0.9928  0.7816
   94SAPC   H3S 9123   5.755   0.970   6.225 -0.0380  1.3715  1.0764
   94SAPC   C24 9124   5.605   1.103   6.176 -0.6849 -0.1212 -0.6455
   94SAPC   H4R 9125   5.638   1.085   6.072 -0.1370  2.4482 -0.9734
   94SAPC   H4S 9126   5.660   1.198   6.193 -0.6979 -0.0566 -0.9723
   94SAPC   C25 9127   5.456   1.131   6.184  0.1103  0.2357 -0.1643
   94SAPC   H5R 9128   5.431   1.209   6.258 -2.6079 -0.3660 -0.3229
   94SAPC   C26 9129   5.363   1.079   6.103 -0.0598 -0.9169 -0.6355
   94SAPC   H6R 9130   5.259   1.113   6.112  0.4986  1.1649 -1.3483
   94SAPC   C27 9131   5.381   0.977   5.996 -0.1991  0.4582  0.0386
   94SAPC   H7R 9132   5.474   0.995   5.938 -1.0527  0.7584 -1.2615
   94SAPC   H7S 9133   5.300   0.988   5.922  1.5922 -3.1399 -2.7851
   94SAPC   C28 9134   5.376   0.841   6.058  0.3913 -0.5427  0.1472
   94SAPC   H8R 9135   5.391   0.826   6.166 -0.2158 -0.8240  0.1927
   94SAPC   C29 9136   5.373   0.726   5.982 -0.7852  0.0293  0.2627
   94SAPC   H9R 9137   5.379   0.629   6.033  2.2295  0.7458  1.4334
   94SAPC  C210 9138   5.371   0.732   5.831  0.3893 -0.4056  0.1199
   94SAPC  H10R 9139   5.478   0.729   5.801 -0.0798  0.6635 -1.8596
   94SAPC  H10S 9140   5.333   0.829   5.794 -2.0799 -1.9833 -1.7876
   94SAPC  C211 9141   5.281   0.624   5.782 -0.3446  0.1236  0.4111
   94SAPC  H11R 9142   5.211   0.577   5.853 -1.4243 -0.5753 -1.0717
   94SAPC  C212 9143   5.285   0.580   5.657  0.8532  0.0679 -0.2376
   94SAPC  H12R 9144   5.228   0.488   5.638 -2.0395  0.9823  3.0315
   94SAPC  C213 9145   5.357   0.632   5.536  0.1042  0.3068 -0.2355
   94SAPC  H13R 9146   5.421   0.547   5.504 -3.1204 -1.2454 -3.2499
   94SAPC  H13S 9147   5.431   0.711   5.560 -0.1961  0.7492 -0.7359
   94SAPC  C214 9148   5.276   0.688   5.427  0.6382 -0.3323 -0.3295
   94SAPC  H14R 9149   5.184   0.741   5.454 -0.7149 -1.5136 -2.4284
   94SAPC  C215 9150   5.291   0.669   5.296  0.0355  0.1903 -0.4530
   94SAPC  H15R 9151   5.234   0.734   5.229  0.3879  0.9600 -0.0114
   94SAPC  C216 9152   5.406   0.584   5.233 -0.8537  0.2635  0.5418
   94SAPC  H16R 9153   5.461   0.511   5.296 -0.6329  0.9943  1.1988
   94SAPC  H16S 9154   5.477   0.656   5.187 -1.7324 -0.6357 -2.4197
   94SAPC  C217 9155   5.363   0.498   5.105 -0.0497 -0.3098 -0.7525
   94SAPC  H17R 9156   5.290   0.421   5.139 -0.1052 -0.9940 -2.3522
   94SAPC  H17S 9157   5.458   0.441   5.092  0.5544  0.3787  0.4322
   94SAPC  C218 9158   5.320   0.569   4.989  0.4022  0.6770  0.0798
   94SAPC  H18R 9159   5.404   0.640   4.971 -0.2943  1.5024  0.0060
   94SAPC  H18S 9160   5.231   0.632   5.008 -0.8548 -1.2673  0.9525
   94SAPC  C219 9161   5.296   0.477   4.866 -0.2819 -0.5282  0.3890
   94SAPC  H19R 9162   5.220   0.401   4.894 -0.4832  0.8583  4.1224
   94SAPC  H19S 9163   5.392   0.430   4.835  1.3243  1.9068  1.4038
   94SAPC  C220 9164   5.229   0.549   4.743  0.3512 -0.4976  0.3759
   94SAPC  H20R 9165   5.226   0.490   4.649 -1.6066  0.3819 -0.1425
   94SAPC  H20S 9166   5.288   0.642   4.730 -0.8834  0.2573  0.0181
   94SAPC  H20T 9167   5.129   0.584   4.775 -0.2707  0.6299 -2.4852
   94SAPC   C33 9168   5.678   0.292   6.636 -0.7786 -0.1102  0.0059
   94SAPC   H3X 9169   5.627   0.257   6.728  1.7248  0.1396  1.5809
   94SAPC   H3Y 9170   5.788   0.281   6.646 -0.3222  1.3403 -2.6340
   94SAPC   C34 9171   5.641   0.202   6.516  0.4999 -0.6365  0.5993
   94SAPC   H4X 9172   5.700   0.217   6.423  0.3612  0.9159  0.7359
   94SAPC   H4Y 9173   5.535   0.220   6.487  0.4947 -2.2918 -0.5615
   94SAPC   C35 9174   5.655   0.056   6.550 -0.2599 -0.1445  0.1170
   94SAPC   H5X 9175   5.648   0.045   6.660 -0.8489 -2.0924 -0.0662
   94SAPC   H5Y 9176   5.763   0.042   6.529  0.0366 -1.0883  2.0390
   94SAPC   C36 9177   5.565  -0.048   6.483  0.3006  0.4244 -0.4851
   94SAPC   H6X 9178   5.461  -0.035   6.520 -0.2838  0.9498 -2.2057
   94SAPC   H6Y 9179   5.588  -0.150   6.521 -0.5899 -0.7090 -2.8275
   94SAPC   C37 9180   5.582  -0.047   6.332  0.5377  0.2972 -0.4874
   94SAPC   H7X 9181   5.661  -0.118   6.297 -0.0293 -0.1933 -0.7948
   94SAPC   H7Y 9182   5.631   0.051   6.314 -0.4196  1.1304  1.2096
   94SAPC   C38 9183   5.453  -0.061   6.245 -0.4238  0.5053 -0.1859
   94SAPC   H8X 9184   5.434   0.039   6.200  1.5632 -0.0748 -2.5740
   94SAPC   H8Y 9185   5.374  -0.091   6.317  0.4167 -0.2495  0.4456
   94SAPC   C39 9186   5.469  -0.171   6.139  0.3086 -0.2576 -0.1033
   94SAPC   H9X 9187   5.490  -0.269   6.187 -4.1593 -1.0387  0.6663
   94SAPC   H9Y 9188   5.548  -0.124   6.075  0.3748  1.4306  1.1421
   94SAPC  C310 9189   5.338  -0.195   6.056 -1.0058  0.2686  0.3722
   94SAPC  H10X 9190   5.303  -0.092   6.033 -0.5888  0.2832 -0.2260
   94SAPC  H10Y 9191   5.259  -0.257   6.102 -0.7773 -1.6956 -1.7007
   94SAPC  C311 9192   5.379  -0.265   5.928  0.2204  0.0367  0.3085
   94SAPC  H11X 9193   5.419  -0.368   5.942  2.3397  0.6544 -0.8381
   94SAPC  H11Y 9194   5.449  -0.198   5.873 -2.2710  2.7245  0.1581
   94SAPC  C312 9195   5.256  -0.278   5.835 -0.1772 -0.5754  0.3840
   94SAPC  H12X 9196   5.199  -0.182   5.836  0.5102 -0.0925 -1.6914
   94SAPC  H12Y 9197   5.181  -0.356   5.859 -2.9236  0.9931 -2.3391
   94SAPC  C313 9198   5.293  -0.298   5.677  1.1256  0.3280  0.2313
   94SAPC  H13X 9199   5.340  -0.399   5.666  2.6434  0.8567  1.3966
   94SAPC  H13Y 9200   5.376  -0.226   5.660  0.2802  0.8016 -2.2890
   94SAPC  C314 9201   5.189  -0.257   5.577  0.2149  0.0801  0.4336
   94SAPC  H14X 9202   5.236  -0.263   5.477 -1.3179  0.4535 -0.3442
   94SAPC  H14Y 9203   5.170  -0.148   5.590 -1.1632 -0.0238 -0.5670
   94SAPC  C315 9204   5.057  -0.339   5.580 -0.0985  0.2314  0.2442
   94SAPC  H15X 9205   5.000  -0.290   5.663  0.1363  1.2417 -0.1706
   94SAPC  H15Y 9206   5.074  -0.446   5.601 -3.2294 -0.7940 -1.7701
   94SAPC  C316 9207   4.977  -0.351   5.447  0.0794 -0.1657  0.4351
   94SAPC  H16X 9208   4.956  -0.255   5.396  0.5884 -0.8751 -1.1791
   94SAPC  H16Y 9209   4.876  -0.391   5.475  0.3114 -0.0137  1.5633
   94SAPC  C317 9210   5.043  -0.452   5.347  0.3792  0.0201 -0.2073
   94SAPC  H17X 9211   5.076  -0.539   5.408  3.0608 -0.0161 -1.5817
   94SAPC  H17Y 9212   5.140  -0.416   5.308  0.3548  0.4290  0.0968
   94SAPC  C318 9213   4.941  -0.506   5.240  0.4352 -0.5278 -0.0723
   94SAPC  H18X 9214   4.986  -0.584   5.175 -0.2486 -0.4635 -0.6387
   94SAPC  H18Y 9215   4.913  -0.428   5.166 -0.2982 -0.4615  0.2668
   94SAPC  H18Z 9216   4.845  -0.530   5.291  0.0860  0.9036 -0.0107
   95SAPC     N 9217   2.702   0.844   2.765  0.6620 -0.0299  0.1249
   95SAPC   C12 9218   2.616   0.884   2.889 -1.0666 -0.3979  0.1426
   95SAPC  H12A 9219   2.554   0.968   2.859 -1.5994 -0.9327 -0.2808
   95SAPC  H12B 9220   2.683   0.919   2.965 -1.5573  1.2440 -0.1415
   95SAPC   C13 9221   2.772   0.713   2.796  0.3314  0.1276 -0.6400
   95SAPC  H13A 9222   2.705   0.633   2.821  2.7260 -0.6756  4.6329
   95SAPC  H13B 9223   2.836   0.685   2.714  0.3759  0.8887 -0.8726
   95SAPC  H13C 9224   2.832   0.725   2.885 -0.4773 -0.7423  0.0403
   95SAPC   C14 9225   2.623   0.816   2.638  0.8544 -0.1743  0.6108
   95SAPC  H14A 9226   2.537   0.752   2.649  1.4909 -1.9033 -2.8932
   95SAPC  H14B 9227   2.591   0.909   2.595  0.4562 -0.9154 -0.7360
   95SAPC  H14C 9228   2.685   0.765   2.566 -0.4100  0.7933 -1.2294
   95SAPC   C15 9229   2.807   0.946   2.722  0.3053 -0.0751  1.0005
   95SAPC  H15A 9230   2.895   0.958   2.783  1.2667 -1.2541 -0.1034
   95SAPC  H15B 9231   2.844   0.929   2.622  2.9313 -0.4755  1.9587
   95SAPC  H15C 9232   2.761   1.044   2.717  0.7381  0.0740 -2.1461
   95SAPC   C11 9233   2.534   0.769   2.943 -0.1296 -0.1661 -0.6482
   95SAPC  H11A 9234   2.495   0.821   3.034 -1.0918  1.7171 -2.0464
   95SAPC  H11B 9235   2.602   0.687   2.972  0.5662  0.2827 -0.9666
   95SAPC     P 9236   2.355   0.595   2.840 -0.1959 -0.1362 -0.1192
   95SAPC   O13 9237   2.228   0.611   2.772  0.0884  0.0770  0.0139
   95SAPC   O14 9238   2.462   0.513   2.779  0.0407 -0.0944 -0.7110
   95SAPC   O12 9239   2.417   0.737   2.865 -0.9103 -0.1928  0.2000
   95SAPC   O11 9240   2.314   0.536   2.985 -0.2673 -0.5265  0.1543
   95SAPC    C1 9241   2.271   0.616   3.094  0.1271 -0.0421  0.1223
   95SAPC    HA 9242   2.353   0.640   3.164 -0.7190  0.7809  0.8581
   95SAPC    HB 9243   2.237   0.713   3.051  0.9429 -0.5435 -1.7690
   95SAPC    C2 9244   2.162   0.547   3.183 -0.6841 -0.3638  0.2775
   95SAPC    HS 9245   2.142   0.608   3.274  0.1178 -0.8978  0.8227
   95SAPC   O21 9246   2.205   0.416   3.231  0.2016 -0.1880 -0.5499
   95SAPC   C21 9247   2.314   0.416   3.306  0.2153 -0.3365  0.1988
   95SAPC   O22 9248   2.358   0.519   3.359 -0.2629 -0.6900 -0.3928
   95SAPC   C22 9249   2.372   0.280   3.327 -0.3484  0.2153 -0.0881
   95SAPC   H2R 9250   2.366   0.226   3.231  2.1267 -1.0405  0.3922
   95SAPC   H2S 9251   2.481   0.288   3.343 -0.1702  2.3708 -1.9739
   95SAPC    C3 9252   2.031   0.543   3.099 -0.0096  0.4611  0.1677
   95SAPC    HX 9253   2.044   0.500   2.998 -0.7111 -0.3093  0.3936
   95SAPC    HY 9254   2.014   0.650   3.075  2.6748  1.3368  1.7292
   95SAPC   O31 9255   1.924   0.481   3.168  0.1958  0.1302 -0.2019
   95SAPC   C31 9256   1.840   0.560   3.243  0.0161 -0.2107 -0.1876
   95SAPC   O32 9257   1.847   0.682   3.241  0.5289 -0.1951  0.1290
   95SAPC   C32 9258   1.733   0.474   3.309  0.7395  0.1056 -0.0112
   95SAPC   H2X 9259   1.776   0.402   3.381  0.5492 -1.0450 -1.0164
   95SAPC   H2Y 9260   1.677   0.416   3.233 -1.1742 -0.7088  1.8905
   95SAPC   C23 9261   2.291   0.187   3.427 -0.4476 -1.4318  0.5227
   95SAPC   H3R 9262   2.341   0.089   3.415  0.1068 -1.0618 -0.2515
   95SAPC   H3S 9263   2.187   0.180   3.388 -1.1518  1.6233  1.5985
   95SAPC   C24 9264   2.280   0.251   3.565 -0.5228 -0.1412  0.0042
   95SAPC   H4R 9265   2.231   0.183   3.638 -1.7275  0.0382 -0.6026
   95SAPC   H4S 9266   2.207   0.334   3.553 -0.7403 -0.6819 -3.1378
   95SAPC   C25 9267   2.412   0.298   3.617  0.2053 -0.2510  0.8639
   95SAPC   H5R 9268   2.434   0.405   3.604 -0.2402 -0.2437  0.0821
   95SAPC   C26 9269   2.501   0.222   3.681 -0.0086  0.7654 -0.4576
   95SAPC   H6R 9270   2.595   0.264   3.719 -0.5734 -0.4934  2.6118
   95SAPC   C27 9271   2.495   0.075   3.703 -0.1345  0.1008 -0.1945
   95SAPC   H7R 9272   2.596   0.030   3.708 -0.2064  0.0364  0.7565
   95SAPC   H7S 9273   2.456   0.015   3.618 -0.2100  0.0047 -0.0915
   95SAPC   C28 9274   2.422   0.033   3.828  0.1571 -0.1068 -0.7863
   95SAPC   H8R 9275   2.315   0.007   3.823  0.1918 -0.2085 -0.9906
   95SAPC   C29 9276   2.466   0.038   3.957 -0.3873  0.3456  0.0610
   95SAPC   H9R 9277   2.404   0.017   4.045  1.0954 -0.9936  0.8531
   95SAPC  C210 9278   2.610   0.067   3.993 -0.0958 -0.1047 -0.6109
   95SAPC  H10R 9279   2.619   0.168   4.038 -0.5087 -0.8950  1.3465
   95SAPC  H10S 9280   2.683   0.072   3.909  1.0853 -0.5089  0.3631
   95SAPC  C211 9281   2.658  -0.034   4.096  0.0850 -0.1301  0.3063
   95SAPC  H11R 9282   2.654  -0.142   4.078 -1.3154  0.2912 -2.5682
   95SAPC  C212 9283   2.709   0.000   4.217 -0.4313 -0.0193 -0.0628
   95SAPC  H12R 9284   2.737  -0.083   4.284 -2.2592 -1.9054 -1.5036
   95SAPC  C213 9285   2.729   0.134   4.284  0.3510  0.6413  0.3865
   95SAPC  H13R 9286   2.732   0.221   4.215  0.2101  0.4148  0.0934
   95SAPC  H13S 9287   2.823   0.137   4.343 -0.8150  0.1458  2.3673
   95SAPC  C214 9288   2.602   0.165   4.366  0.2734 -0.3521  0.6565
   95SAPC  H14R 9289   2.511   0.178   4.305 -0.0650 -2.3427  0.6843
   95SAPC  C215 9290   2.593   0.183   4.498 -0.0030 -0.0870 -0.2317
   95SAPC  H15R 9291   2.502   0.202   4.558  1.7580  1.4145  2.1366
   95SAPC  C216 9292   2.705   0.182   4.600  0.3904  0.0328 -0.6955
   95SAPC  H16R 9293   2.664   0.228   4.692 -1.4355  0.2451 -1.5657
   95SAPC  H16S 9294   2.798   0.231   4.566 -1.8012  3.2274 -2.6091
   95SAPC  C217 9295   2.729   0.032   4.631 -0.5912  0.1929  0.4630
   95SAPC  H17R 9296   2.828   0.028   4.680  0.0526  0.3734 -0.7814
   95SAPC  H17S 9297   2.734  -0.031   4.539 -1.5384  1.3006 -0.3923
   95SAPC  C218 9298   2.616  -0.023   4.719 -0.7666 -0.2002 -0.4216
   95SAPC  H18R 9299   2.515  -0.006   4.676 -1.6409 -2.1359  0.7251
   95SAPC  H18S 9300   2.620   0.053   4.800  1.0436  1.9229 -2.3657
   95SAPC  C219 9301   2.634  -0.166   4.744  0.2334 -0.5264  0.3479
   95SAPC  H19R 9302   2.719  -0.165   4.815  1.2269 -0.9153 -0.7903
   95SAPC  H19S 9303   2.662  -0.217   4.649  0.1267 -0.4226  0.2591
   95SAPC  C220 9304   2.513  -0.215   4.826  0.2078 -0.2680  1.4350
   95SAPC  H20R 9305   2.510  -0.326   4.833 -1.4999 -0.2487  1.3840
   95SAPC  H20S 9306   2.413  -0.184   4.790  1.5777  1.3609 -1.2971
   95SAPC  H20T 9307   2.520  -0.181   4.932 -3.3925  1.9064  1.1350
   95SAPC   C33 9308   1.621   0.550   3.382 -0.1216 -0.0025  0.1845
   95SAPC   H3X 9309   1.585   0.640   3.328 -2.9498 -0.0335  1.8002
   95SAPC   H3Y 9310   1.657   0.585   3.481 -0.6386 -0.8280  0.6722
   95SAPC   C34 9311   1.496   0.457   3.389 -0.7632  0.5675  0.2952
   95SAPC   H4X 9312   1.539   0.356   3.403  0.4754  1.1775  1.1219
   95SAPC   H4Y 9313   1.464   0.466   3.283  0.3986 -2.7281 -0.4624
   95SAPC   C35 9314   1.393   0.480   3.496 -0.1616 -0.0432  0.2058
   95SAPC   H5X 9315   1.324   0.565   3.475  0.3490  0.5551  0.8954
   95SAPC   H5Y 9316   1.450   0.489   3.591 -1.4961 -1.0697  1.1499
   95SAPC   C36 9317   1.292   0.357   3.520 -0.3784 -0.1665 -0.3966
   95SAPC   H6X 9318   1.351   0.264   3.519 -0.6926 -0.3768  0.0543
   95SAPC   H6Y 9319   1.226   0.355   3.430 -2.8869  0.8675  1.3011
   95SAPC   C37 9320   1.200   0.377   3.642  0.1551  0.7951 -0.6203
   95SAPC   H7X 9321   1.116   0.306   3.627  0.6089  0.0985  0.0738
   95SAPC   H7Y 9322   1.159   0.479   3.632 -0.0918  0.7407 -0.1725
   95SAPC   C38 9323   1.264   0.361   3.784  0.4262  0.3260  1.0156
   95SAPC   H8X 9324   1.339   0.442   3.794 -0.5878  1.3229  0.8770
   95SAPC   H8Y 9325   1.297   0.257   3.800 -1.0816 -0.4551 -0.5383
   95SAPC   C39 9326   1.155   0.403   3.888 -0.1297  0.2641  0.1824
   95SAPC   H9X 9327   1.066   0.342   3.865  1.2027 -1.0264 -1.8394
   95SAPC   H9Y 9328   1.127   0.509   3.868 -1.2834  0.3685  2.0248
   95SAPC  C310 9329   1.206   0.380   4.028  0.7254  0.1929  0.6385
   95SAPC  H10X 9330   1.295   0.446   4.035  0.3464  0.9555 -1.0733
   95SAPC  H10Y 9331   1.242   0.275   4.029  1.0309  0.2485 -0.8835
   95SAPC  C311 9332   1.099   0.411   4.132 -0.1853  0.1556  0.2600
   95SAPC  H11X 9333   1.003   0.357   4.119  1.0590 -2.0538 -0.1030
   95SAPC  H11Y 9334   1.076   0.520   4.139 -2.1123 -0.2473  0.9268
   95SAPC  C312 9335   1.154   0.376   4.272  0.4079 -0.6697 -0.4470
   95SAPC  H12X 9336   1.261   0.404   4.262  0.1307  0.7689  0.2799
   95SAPC  H12Y 9337   1.164   0.266   4.280 -1.3071 -0.9032 -0.9619
   95SAPC  C313 9338   1.087   0.429   4.393 -0.6269 -0.0524  0.0483
   95SAPC  H13X 9339   0.983   0.390   4.387 -2.0133  2.8699  2.3497
   95SAPC  H13Y 9340   1.082   0.539   4.381  2.0221  0.3106  1.5178
   95SAPC  C314 9341   1.160   0.393   4.522  0.2362 -0.1232 -0.0685
   95SAPC  H14X 9342   1.268   0.405   4.502  0.6811 -0.6388  1.7922
   95SAPC  H14Y 9343   1.145   0.282   4.526  0.6856 -0.1850 -0.1382
   95SAPC  C315 9344   1.119   0.485   4.642  0.2120  0.2913  0.2505
   95SAPC  H15X 9345   1.029   0.446   4.694 -0.3936 -0.4589 -1.3261
   95SAPC  H15Y 9346   1.115   0.592   4.612  3.6512  0.3332 -0.4822
   95SAPC  C316 9347   1.238   0.470   4.742 -0.1136 -0.2097  0.2659
   95SAPC  H16X 9348   1.334   0.521   4.719  0.8274 -1.3606  1.5458
   95SAPC  H16Y 9349   1.275   0.366   4.737  1.7932  0.4572 -0.3247
   95SAPC  C317 9350   1.208   0.528   4.879 -0.7496  0.2578  0.7533
   95SAPC  H17X 9351   1.281   0.483   4.949  1.0521  0.5767 -0.8494
   95SAPC  H17Y 9352   1.108   0.490   4.909 -0.5812 -1.2020 -0.3956
   95SAPC  C318 9353   1.222   0.680   4.897  0.0220 -0.3125 -0.0003
   95SAPC  H18X 9354   1.323   0.711   4.933 -0.8538  0.9164  1.5019
   95SAPC  H18Y 9355   1.137   0.727   4.949 -0.1144  1.3427 -1.6156
   95SAPC  H18Z 9356   1.220   0.738   4.802 -1.3773 -0.5796 -0.1455
   96SAPC     N 9357   3.757   6.728   2.422  0.0392  0.3095 -0.2061
   96SAPC   C12 9358   3.842   6.610   2.472 -0.5884  0.1816 -0.4470
   96SAPC  H12A 9359   3.920   6.588   2.400 -2.1336 -0.7775 -1.9104
   96SAPC  H12B 9360   3.779   6.523   2.479  0.3296 -0.3577  1.7536
   96SAPC   C13 9361   3.663   6.771   2.534 -0.4288  0.3072 -0.5541
   96SAPC  H13A 9362   3.600   6.686   2.554 -0.3744  0.3834 -0.0396
   96SAPC  H13B 9363   3.725   6.804   2.616  0.4637 -1.4691 -0.4677
   96SAPC  H13C 9364   3.596   6.854   2.516  0.2031  1.0798  0.5413
   96SAPC   C14 9365   3.850   6.845   2.402 -0.3603  0.0384 -0.0888
   96SAPC  H14A 9366   3.907   6.836   2.311 -0.2302 -1.5190  0.1172
   96SAPC  H14B 9367   3.798   6.939   2.395  1.1652  1.0919  1.9001
   96SAPC  H14C 9368   3.903   6.842   2.495 -0.9882  1.4387  0.3418
   96SAPC   C15 9369   3.671   6.699   2.301 -0.2237 -0.7919 -0.0300
   96SAPC  H15A 9370   3.643   6.793   2.255 -0.3695  0.8616  3.1484
   96SAPC  H15B 9371   3.725   6.643   2.226  0.2344 -0.7443  0.2630
   96SAPC  H15C 9372   3.582   6.645   2.331 -0.6272 -0.7363 -1.1036
   96SAPC   C11 9373   3.903   6.626   2.613 -0.4997 -0.4936  0.8976
   96SAPC  H11A 9374   3.962   6.532   2.625 -0.0610 -1.3283 -4.8010
   96SAPC  H11B 9375   3.824   6.614   2.690 -0.5669 -0.7464  0.7948
   96SAPC     P 9376   3.963   6.832   2.770  0.1280 -0.0555  0.0719
   96SAPC   O13 9377   4.022   6.771   2.886  0.2885 -0.7355 -0.6594
   96SAPC   O14 9378   4.023   6.961   2.735  0.3149  0.8224 -0.1774
   96SAPC   O12 9379   3.978   6.739   2.637 -0.0784  0.1761  0.0143
   96SAPC   O11 9380   3.802   6.851   2.789 -1.1148  0.6952 -0.7363
   96SAPC    C1 9381   3.734   6.966   2.826 -0.1815  0.2991  0.3803
   96SAPC    HA 9382   3.788   7.055   2.785  0.3801 -0.5283 -0.7463
   96SAPC    HB 9383   3.634   6.970   2.778 -0.1528  1.5419  0.3958
   96SAPC    C2 9384   3.720   6.984   2.972  0.2135  0.5443  0.0105
   96SAPC    HS 9385   3.821   7.002   3.015 -0.5316  1.6901  1.3867
   96SAPC   O21 9386   3.647   6.879   3.039  0.4430  0.3386  0.6747
   96SAPC   C21 9387   3.690   6.852   3.163  0.2995 -0.6035  0.2395
   96SAPC   O22 9388   3.784   6.906   3.223  0.6289  0.1769  0.0862
   96SAPC   C22 9389   3.601   6.746   3.221  0.1820 -0.7866  0.4435
   96SAPC   H2R 9390   3.499   6.790   3.215  0.3723 -0.2573  0.9691
   96SAPC   H2S 9391   3.612   6.663   3.148 -0.5183 -0.2258 -0.3243
   96SAPC    C3 9392   3.642   7.114   3.000  0.4212 -0.1119 -0.5631
   96SAPC    HX 9393   3.543   7.107   2.950  1.3396  0.5540 -2.5808
   96SAPC    HY 9394   3.686   7.199   2.943 -1.2988  1.1699 -0.0894
   96SAPC   O31 9395   3.632   7.153   3.136 -1.0824  0.2290  0.4486
   96SAPC   C31 9396   3.742   7.212   3.190 -0.1698  0.2488 -0.7302
   96SAPC   O32 9397   3.845   7.230   3.126 -0.2801 -0.4234  0.0788
   96SAPC   C32 9398   3.710   7.250   3.335 -0.5861 -0.0507  0.8056
   96SAPC   H2X 9399   3.680   7.151   3.374 -0.0370 -0.0707  1.1850
   96SAPC   H2Y 9400   3.621   7.316   3.341  0.5687  1.7759 -0.8067
   96SAPC   C23 9401   3.626   6.708   3.367 -0.6162 -0.0365 -0.5010
   96SAPC   H3R 9402   3.736   6.699   3.382 -0.5424 -3.0366 -2.0529
   96SAPC   H3S 9403   3.567   6.619   3.400  0.4316  0.1924  2.2603
   96SAPC   C24 9404   3.586   6.821   3.457  0.2075 -0.1113  0.9230
   96SAPC   H4R 9405   3.644   6.911   3.427 -0.4776  0.2329  0.6174
   96SAPC   H4S 9406   3.621   6.805   3.561  1.9159  1.9968  0.7394
   96SAPC   C25 9407   3.437   6.855   3.470 -0.1101 -0.0240 -1.0005
   96SAPC   H5R 9408   3.385   6.876   3.375 -1.1207 -0.0993 -0.4792
   96SAPC   C26 9409   3.360   6.833   3.584 -0.8650 -0.0649 -0.0874
   96SAPC   H6R 9410   3.253   6.860   3.589 -0.7305  0.6038 -0.7124
   96SAPC   C27 9411   3.417   6.777   3.716  0.1927  0.5677 -0.8304
   96SAPC   H7R 9412   3.351   6.780   3.805 -0.4428 -2.5146 -1.0763
   96SAPC   H7S 9413   3.497   6.845   3.752  0.4484 -0.9683  1.8534
   96SAPC   C28 9414   3.460   6.632   3.705  0.0450  0.3182 -0.9737
   96SAPC   H8R 9415   3.469   6.587   3.605 -0.3790 -0.8545 -0.4911
   96SAPC   C29 9416   3.477   6.541   3.802 -1.0108 -0.9868 -0.9040
   96SAPC   H9R 9417   3.493   6.438   3.766 -1.4631 -0.6219 -2.2169
   96SAPC  C210 9418   3.463   6.563   3.954  0.4276 -0.2702  0.0393
   96SAPC  H10R 9419   3.394   6.485   3.990 -0.9610  0.3121 -1.2547
   96SAPC  H10S 9420   3.407   6.656   3.978 -0.7570 -1.5791  2.6309
   96SAPC  C211 9421   3.588   6.547   4.037 -0.1792 -0.6008 -0.0787
   96SAPC  H11R 9422   3.680   6.532   3.978 -0.6356 -1.1504 -0.6614
   96SAPC  C212 9423   3.591   6.545   4.170  0.0993 -0.0598 -0.0701
   96SAPC  H12R 9424   3.692   6.562   4.212 -0.7289  0.0077  2.0309
   96SAPC  C213 9425   3.474   6.571   4.262  0.5745 -0.1982  0.2970
   96SAPC  H13R 9426   3.378   6.562   4.206  1.0861 -0.4487 -0.5607
   96SAPC  H13S 9427   3.477   6.679   4.287 -1.7063 -0.1874  0.8191
   96SAPC  C214 9428   3.478   6.492   4.395 -0.5131 -0.1530  0.4043
   96SAPC  H14R 9429   3.405   6.411   4.409 -1.2955  0.2026 -1.3583
   96SAPC  C215 9430   3.573   6.521   4.492 -0.0387 -0.3259  0.3592
   96SAPC  H15R 9431   3.559   6.474   4.590 -0.6026  1.3112  1.1044
   96SAPC  C216 9432   3.677   6.637   4.484 -0.5025  0.1900 -0.6798
   96SAPC  H16R 9433   3.653   6.699   4.395 -1.4546  2.1870  0.8887
   96SAPC  H16S 9434   3.782   6.600   4.480 -0.4463  0.2901 -0.1897
   96SAPC  C217 9435   3.670   6.737   4.601  0.4230 -0.0181 -0.7608
   96SAPC  H17R 9436   3.564   6.757   4.630  0.5584  1.3786 -1.1871
   96SAPC  H17S 9437   3.718   6.834   4.576  1.5449 -0.0109  1.2023
   96SAPC  C218 9438   3.746   6.675   4.720 -0.0518  0.2264 -0.5761
   96SAPC  H18R 9439   3.850   6.654   4.688  0.1279 -2.1337  1.2129
   96SAPC  H18S 9440   3.690   6.580   4.729  2.0578 -1.0163  0.2013
   96SAPC  C219 9441   3.757   6.735   4.856  0.9113  0.5419 -0.5776
   96SAPC  H19R 9442   3.657   6.757   4.898  0.3168  0.9884 -2.1809
   96SAPC  H19S 9443   3.806   6.834   4.846  0.3918  0.7815 -0.7618
   96SAPC  C220 9444   3.830   6.649   4.960 -0.0661  1.0283  0.6203
   96SAPC  H20R 9445   3.831   6.696   5.061  1.5446 -0.0574  1.1639
   96SAPC  H20S 9446   3.933   6.634   4.920 -1.0033 -2.3376 -0.9500
   96SAPC  H20T 9447   3.780   6.549   4.963  1.2421  0.3403  0.5258
   96SAPC   C33 9448   3.823   7.321   3.396 -0.4778 -0.0165  0.0525
   96SAPC   H3X 9449   3.836   7.421   3.349 -1.6642  1.1374  2.0092
   96SAPC   H3Y 9450   3.918   7.266   3.380 -0.3795 -0.2340  1.2793
   96SAPC   C34 9451   3.805   7.340   3.548 -0.2048 -0.0366 -0.3306
   96SAPC   H4X 9452   3.700   7.373   3.563  0.2706  1.6512 -0.5024
   96SAPC   H4Y 9453   3.860   7.430   3.582  0.9880 -0.1441 -1.8677
   96SAPC   C35 9454   3.833   7.207   3.623  0.5781 -0.2358  0.0557
   96SAPC   H5X 9455   3.936   7.175   3.597 -0.4436 -1.4739 -2.9895
   96SAPC   H5Y 9456   3.768   7.127   3.581  1.9244 -0.2045 -2.2872
   96SAPC   C36 9457   3.819   7.223   3.775 -0.1551 -0.0590  0.5440
   96SAPC   H6X 9458   3.840   7.126   3.825  0.1442 -0.4069 -0.2429
   96SAPC   H6Y 9459   3.722   7.259   3.816 -1.3828 -0.9941 -1.3894
   96SAPC   C37 9460   3.933   7.312   3.830 -0.4318 -0.7919  0.2912
   96SAPC   H7X 9461   3.910   7.418   3.810  0.7978 -0.0958  2.3048
   96SAPC   H7Y 9462   4.020   7.276   3.772  0.6696 -0.3300  1.6100
   96SAPC   C38 9463   3.944   7.282   3.981  0.3793 -1.2335  0.4886
   96SAPC   H8X 9464   4.016   7.198   3.988  1.3650 -0.3869  0.8541
   96SAPC   H8Y 9465   3.844   7.253   4.020 -0.1404 -0.0290  0.1073
   96SAPC   C39 9466   3.994   7.405   4.059 -0.4101  0.3252  0.0379
   96SAPC   H9X 9467   3.915   7.481   4.075 -1.5926 -0.7593 -0.4802
   96SAPC   H9Y 9468   4.090   7.441   4.015  0.1660 -0.4426  0.6236
   96SAPC  C310 9469   4.035   7.358   4.197 -0.9184 -0.4061 -0.4405
   96SAPC  H10X 9470   4.107   7.274   4.183 -1.3533 -0.7051 -0.9091
   96SAPC  H10Y 9471   3.942   7.321   4.244 -1.0694 -0.7606 -0.9965
   96SAPC  C311 9472   4.091   7.467   4.292  0.7964 -0.1358 -0.4846
   96SAPC  H11X 9473   4.019   7.545   4.323  0.7599 -0.9682  1.7176
   96SAPC  H11Y 9474   4.181   7.509   4.242  0.3724  2.7530  1.0012
   96SAPC  C312 9475   4.145   7.389   4.419 -0.2394  0.2759 -0.1755
   96SAPC  H12X 9476   4.195   7.294   4.392 -2.9102 -0.9767 -1.1207
   96SAPC  H12Y 9477   4.059   7.355   4.480 -0.4392 -0.7465 -0.9886
   96SAPC  C313 9478   4.222   7.477   4.513  0.1243 -0.0490 -0.1775
   96SAPC  H13X 9479   4.166   7.572   4.531 -1.0659 -0.9338  0.9263
   96SAPC  H13Y 9480   4.312   7.510   4.456 -0.1467 -1.3834 -1.4353
   96SAPC  C314 9481   4.271   7.417   4.648 -0.0967  0.1618 -0.0430
   96SAPC  H14X 9482   4.370   7.372   4.624  1.0307  2.0350  0.8721
   96SAPC  H14Y 9483   4.193   7.350   4.690 -0.5825  0.1185 -0.9830
   96SAPC  C315 9484   4.293   7.530   4.758 -0.3228 -0.8344  0.0554
   96SAPC  H15X 9485   4.198   7.587   4.770  0.6258  0.6329  0.8463
   96SAPC  H15Y 9486   4.367   7.598   4.712  1.0464 -0.3692  2.7135
   96SAPC  C316 9487   4.338   7.475   4.891  0.0127  0.4422 -0.5160
   96SAPC  H16X 9488   4.269   7.391   4.915  0.5775  0.0859 -0.1029
   96SAPC  H16Y 9489   4.337   7.561   4.962 -0.1477  0.3968 -0.4619
   96SAPC  C317 9490   4.487   7.420   4.891 -0.2191 -0.4387 -0.3634
   96SAPC  H17X 9491   4.553   7.506   4.915  0.6569 -1.6497  1.8252
   96SAPC  H17Y 9492   4.512   7.377   4.792  1.0969 -1.7002  0.4773
   96SAPC  C318 9493   4.507   7.319   5.007  0.3035 -0.0716  0.2027
   96SAPC  H18X 9494   4.510   7.379   5.101  0.2150  0.9905 -0.4591
   96SAPC  H18Y 9495   4.606   7.269   5.000  0.1428 -0.5788  1.3161
   96SAPC  H18Z 9496   4.428   7.242   5.015 -0.9512  1.1368 -0.2165
   97SAPC     N 9497   1.784   6.663   2.641 -0.2869 -0.8438  0.3846
   97SAPC   C12 9498   1.889   6.628   2.747  0.1340 -0.6576  0.1265
   97SAPC  H12A 9499   1.898   6.700   2.827  0.4090 -2.5242  1.8619
   97SAPC  H12B 9500   1.979   6.621   2.687 -0.2871 -0.5402 -0.5337
   97SAPC   C13 9501   1.774   6.556   2.538 -0.0108 -0.3503 -0.1427
   97SAPC  H13A 9502   1.803   6.460   2.579  3.1752  0.0151 -1.2626
   97SAPC  H13B 9503   1.671   6.556   2.504 -0.9726 -0.7415  2.5087
   97SAPC  H13C 9504   1.846   6.567   2.458 -0.9547  2.0659 -0.7542
   97SAPC   C14 9505   1.651   6.684   2.703  0.1737  0.2563  0.3971
   97SAPC  H14A 9506   1.638   6.609   2.780  2.2248 -0.7721 -0.2075
   97SAPC  H14B 9507   1.651   6.783   2.746  2.3295 -0.0053  1.1336
   97SAPC  H14C 9508   1.577   6.699   2.625  1.9267  2.5286 -0.9543
   97SAPC   C15 9509   1.822   6.793   2.577 -0.1950 -0.5772  0.2240
   97SAPC  H15A 9510   1.839   6.874   2.647 -0.1687  0.2230 -0.6934
   97SAPC  H15B 9511   1.917   6.780   2.527 -0.3689 -2.6936  0.3750
   97SAPC  H15C 9512   1.751   6.834   2.507  2.8198  1.3691 -2.0154
   97SAPC   C11 9513   1.863   6.501   2.832 -0.5854  0.8813 -0.3386
   97SAPC  H11A 9514   1.763   6.505   2.881 -1.0715  0.0988 -1.2202
   97SAPC  H11B 9515   1.931   6.500   2.920  0.1494  1.2107 -0.8942
   97SAPC     P 9516   2.014   6.328   2.708 -0.1256 -0.0484  0.0873
   97SAPC   O13 9517   2.000   6.210   2.617 -0.7513 -0.2791 -0.0189
   97SAPC   O14 9518   2.111   6.431   2.673  0.3522 -0.5047 -0.3000
   97SAPC   O12 9519   1.874   6.379   2.755 -0.8157 -0.2149  0.3614
   97SAPC   O11 9520   2.062   6.286   2.854 -0.2989 -0.4012  0.1246
   97SAPC    C1 9521   2.000   6.174   2.921  0.0786 -0.5978 -0.3370
   97SAPC    HA 9522   1.890   6.167   2.908 -0.0139 -0.8352  0.5181
   97SAPC    HB 9523   2.066   6.093   2.883  0.6522 -0.4155  0.2466
   97SAPC    C2 9524   2.015   6.191   3.068  0.7076 -0.6337 -0.4682
   97SAPC    HS 9525   1.990   6.100   3.126 -0.7443  0.4135  0.6174
   97SAPC   O21 9526   1.942   6.304   3.111  0.0927  0.3133 -0.6168
   97SAPC   C21 9527   1.820   6.278   3.155  0.7154 -0.7721  0.3184
   97SAPC   O22 9528   1.769   6.168   3.171 -0.1056  0.5716 -0.1060
   97SAPC   C22 9529   1.745   6.415   3.158 -0.1888  0.3460  0.2858
   97SAPC   H2R 9530   1.810   6.503   3.177  0.4707  0.3692 -1.8558
   97SAPC   H2S 9531   1.692   6.413   3.061  0.6053 -2.3216 -0.1791
   97SAPC    C3 9532   2.168   6.221   3.094  0.4193 -0.6023 -0.5252
   97SAPC    HX 9533   2.197   6.327   3.078  1.2981 -1.0978 -2.6060
   97SAPC    HY 9534   2.223   6.157   3.022  2.3826  0.0752  0.3139
   97SAPC   O31 9535   2.188   6.183   3.235  0.6349 -0.1681 -0.6362
   97SAPC   C31 9536   2.312   6.211   3.271 -0.2829  0.1493  0.3101
   97SAPC   O32 9537   2.390   6.271   3.199  0.3105  0.4233 -0.3190
   97SAPC   C32 9538   2.348   6.150   3.407  0.5091 -0.0542  0.1328
   97SAPC   H2X 9539   2.455   6.177   3.420  1.1187 -2.1335 -0.2476
   97SAPC   H2Y 9540   2.335   6.041   3.390  0.2126  0.0782 -0.5070
   97SAPC   C23 9541   1.631   6.417   3.267  1.0483 -0.9145  0.0058
   97SAPC   H3R 9542   1.567   6.326   3.258 -1.5726  0.7221  1.0967
   97SAPC   H3S 9543   1.558   6.497   3.245  0.8645 -0.6941  1.3380
   97SAPC   C24 9544   1.683   6.442   3.406  0.1139  0.0056 -0.4558
   97SAPC   H4R 9545   1.599   6.462   3.476  0.6817 -0.9965  0.5477
   97SAPC   H4S 9546   1.746   6.534   3.402  0.2217 -0.0790 -0.7056
   97SAPC   C25 9547   1.760   6.326   3.464 -0.5561  0.1619  0.4956
   97SAPC   H5R 9548   1.701   6.234   3.469 -1.0030  0.4560  0.7157
   97SAPC   C26 9549   1.880   6.328   3.519  0.1730 -0.2976 -0.4030
   97SAPC   H6R 9550   1.908   6.237   3.573 -1.6893  0.6011  2.2392
   97SAPC   C27 9551   1.969   6.451   3.533  1.1354  0.6982  0.6266
   97SAPC   H7R 9552   2.039   6.449   3.620  0.8788  1.9719  0.8818
   97SAPC   H7S 9553   1.902   6.537   3.552 -1.7483 -0.9139 -1.5370
   97SAPC   C28 9554   2.055   6.477   3.412 -0.8250  0.1865 -0.7045
   97SAPC   H8R 9555   2.023   6.430   3.318 -2.9692 -0.6756  0.3858
   97SAPC   C29 9556   2.156   6.566   3.422 -1.1488 -0.1134 -0.6737
   97SAPC   H9R 9557   2.214   6.595   3.333 -0.3222 -0.1440 -0.1565
   97SAPC  C210 9558   2.189   6.645   3.546 -0.0686  0.2875  0.9943
   97SAPC  H10R 9559   2.295   6.674   3.534  0.4689 -1.6406  0.7221
   97SAPC  H10S 9560   2.180   6.580   3.636 -2.6107  0.0938  0.6588
   97SAPC  C211 9561   2.110   6.775   3.553 -0.9605  0.3266 -0.6195
   97SAPC  H11R 9562   2.108   6.824   3.454 -0.9922 -1.2306 -1.4091
   97SAPC  C212 9563   2.033   6.824   3.655  0.0028 -0.1902  0.7423
   97SAPC  H12R 9564   1.988   6.925   3.647  0.5390 -0.0403 -0.7741
   97SAPC  C213 9565   2.000   6.758   3.783 -0.0876 -0.2577 -0.2736
   97SAPC  H13R 9566   2.086   6.697   3.817 -0.2402 -0.9388 -1.0801
   97SAPC  H13S 9567   1.913   6.692   3.762 -0.9567  1.2761 -1.6678
   97SAPC  C214 9568   1.962   6.858   3.888 -0.4526  0.7571  0.2553
   97SAPC  H14R 9569   2.032   6.943   3.893  2.1724 -1.2984  0.3599
   97SAPC  C215 9570   1.863   6.846   3.977  0.7221  0.3733  0.2998
   97SAPC  H15R 9571   1.852   6.933   4.043  2.2660  1.4955 -0.8304
   97SAPC  C216 9572   1.757   6.734   3.979  0.1869  0.4862 -0.0204
   97SAPC  H16R 9573   1.750   6.690   3.878  1.0597 -2.0395  0.9423
   97SAPC  H16S 9574   1.657   6.776   4.006 -0.0381 -0.5085  0.7667
   97SAPC  C217 9575   1.788   6.632   4.096  0.2572  0.0091  0.6803
   97SAPC  H17R 9576   1.757   6.673   4.195  1.3223 -0.7573  1.3538
   97SAPC  H17S 9577   1.897   6.613   4.081  0.3080 -0.5242  1.6406
   97SAPC  C218 9578   1.707   6.507   4.078  0.0061  0.0809 -0.4046
   97SAPC  H18R 9579   1.711   6.479   3.970 -0.9546  1.6122 -0.8757
   97SAPC  H18S 9580   1.600   6.531   4.098 -0.0904 -2.3084  2.5805
   97SAPC  C219 9581   1.744   6.402   4.184 -0.2658 -0.0664 -0.2534
   97SAPC  H19R 9582   1.668   6.321   4.184 -0.1546 -0.2389  1.6863
   97SAPC  H19S 9583   1.742   6.453   4.283 -1.8495  2.8818 -1.7052
   97SAPC  C220 9584   1.879   6.335   4.158  0.0781  0.4030  0.3719
   97SAPC  H20R 9585   1.910   6.258   4.232 -1.0885  0.7143  1.2213
   97SAPC  H20S 9586   1.949   6.421   4.164  0.7598 -0.0283 -1.0331
   97SAPC  H20T 9587   1.879   6.293   4.056  2.8722 -1.2171  0.9328
   97SAPC   C33 9588   2.253   6.200   3.519 -0.3536 -0.0673  0.1931
   97SAPC   H3X 9589   2.149   6.191   3.482 -0.0533  0.4455 -0.7999
   97SAPC   H3Y 9590   2.267   6.309   3.534  0.7449  0.3302 -2.9248
   97SAPC   C34 9591   2.275   6.119   3.646  0.0406 -0.1349 -0.7551
   97SAPC   H4X 9592   2.383   6.097   3.660 -0.2080 -0.8815  0.1117
   97SAPC   H4Y 9593   2.210   6.031   3.629  0.6662 -0.2589 -2.7170
   97SAPC   C35 9594   2.228   6.204   3.770 -0.3134  0.2678 -0.4562
   97SAPC   H5X 9595   2.121   6.228   3.753 -1.0528 -0.1132  3.0715
   97SAPC   H5Y 9596   2.288   6.298   3.778  0.3803 -0.3327  3.3314
   97SAPC   C36 9597   2.256   6.137   3.906  0.5534 -0.0194 -0.1836
   97SAPC   H6X 9598   2.364   6.126   3.931  0.4144 -1.0089  0.0255
   97SAPC   H6Y 9599   2.204   6.039   3.906  0.7772 -0.1487  0.6737
   97SAPC   C37 9600   2.197   6.234   4.016 -0.0707  0.1011 -0.0402
   97SAPC   H7X 9601   2.089   6.237   3.990 -0.0258  0.8268 -0.1738
   97SAPC   H7Y 9602   2.240   6.336   4.013  3.9035 -1.3948  0.0773
   97SAPC   C38 9603   2.190   6.174   4.156  0.0182 -0.8845 -0.0297
   97SAPC   H8X 9604   2.149   6.251   4.225 -0.3706 -2.0459  1.0884
   97SAPC   H8Y 9605   2.289   6.144   4.196  0.5844  2.5226  1.4081
   97SAPC   C39 9606   2.105   6.044   4.163 -0.8960 -0.7602 -0.0291
   97SAPC   H9X 9607   2.165   5.959   4.124 -0.0630  0.7365 -2.2066
   97SAPC   H9Y 9608   2.008   6.042   4.108 -0.8900  0.9926 -0.1766
   97SAPC  C310 9609   2.061   6.022   4.313  0.3232 -0.1760  0.5979
   97SAPC  H10X 9610   1.988   5.939   4.311 -0.4177  0.4006 -2.7423
   97SAPC  H10Y 9611   1.997   6.102   4.357 -0.0642 -0.1909  0.0678
   97SAPC  C311 9612   2.189   6.005   4.400  0.4612 -0.2664 -0.1872
   97SAPC  H11X 9613   2.235   6.106   4.398 -1.2404  0.6493  2.2363
   97SAPC  H11Y 9614   2.259   5.934   4.352  0.3257  0.2536 -1.1817
   97SAPC  C312 9615   2.169   5.968   4.541  0.2756 -0.7203  0.1418
   97SAPC  H12X 9616   2.113   5.873   4.549 -0.8613 -0.0940 -0.2106
   97SAPC  H12Y 9617   2.117   6.046   4.600 -1.6227 -1.2830 -0.7083
   97SAPC  C313 9618   2.310   5.948   4.606 -0.0879  0.5446  0.5837
   97SAPC  H13X 9619   2.363   6.045   4.599  3.0964 -1.0691  0.3768
   97SAPC  H13Y 9620   2.371   5.871   4.554  0.8634  0.5267  1.6846
   97SAPC  C314 9621   2.308   5.918   4.757 -0.1565  0.4092 -0.0138
   97SAPC  H14X 9622   2.240   5.832   4.775  1.3899 -0.9419 -0.4003
   97SAPC  H14Y 9623   2.264   5.996   4.823 -0.3352 -0.5823  1.0749
   97SAPC  C315 9624   2.445   5.877   4.810 -0.0453  0.1275 -0.6298
   97SAPC  H15X 9625   2.508   5.961   4.773  2.8239 -1.8057 -0.4300
   97SAPC  H15Y 9626   2.480   5.791   4.749  0.9586  0.0259  0.0568
   97SAPC  C316 9627   2.448   5.857   4.960  0.0171 -0.2788 -0.4758
   97SAPC  H16X 9628   2.548   5.818   4.987 -0.1386  0.8370  2.0730
   97SAPC  H16Y 9629   2.371   5.781   4.987  0.2393 -0.3216  0.0628
   97SAPC  C317 9630   2.418   5.980   5.045 -0.2091 -0.2738 -0.1372
   97SAPC  H17X 9631   2.311   6.005   5.028 -0.5236 -0.8554  0.9014
   97SAPC  H17Y 9632   2.475   6.069   5.013 -0.9114  0.5263  0.7884
   97SAPC  C318 9633   2.445   5.963   5.196  1.1690  0.4519 -0.3775
   97SAPC  H18X 9634   2.393   5.872   5.232  0.5130  0.4749 -1.2282
   97SAPC  H18Y 9635   2.405   6.051   5.252  2.0899 -0.3466  1.6238
   97SAPC  H18Z 9636   2.551   5.947   5.226  1.9400  2.7071 -1.6506
   98SAPC     N 9637   0.161   1.041   2.157  0.3722 -0.0528 -0.2347
   98SAPC   C12 9638   0.053   1.092   2.254 -0.0658 -0.1363 -0.2235
   98SAPC  H12A 9639  -0.043   1.046   2.236  0.4234 -1.2203 -0.2012
   98SAPC  H12B 9640   0.045   1.198   2.238 -0.0653 -0.4276 -2.5110
   98SAPC   C13 9641   0.170   0.893   2.166 -0.5036 -0.2589  0.3820
   98SAPC  H13A 9642   0.247   0.867   2.094 -0.5568  1.1993 -0.2264
   98SAPC  H13B 9643   0.199   0.869   2.268 -1.7583 -0.3830  0.7268
   98SAPC  H13C 9644   0.077   0.844   2.144 -0.4290  0.6118 -2.1035
   98SAPC   C14 9645   0.131   1.085   2.017  0.5220  0.7724 -0.0346
   98SAPC  H14A 9646   0.034   1.054   1.980  1.1244 -0.1290 -0.9076
   98SAPC  H14B 9647   0.142   1.192   2.009  1.4524  0.6071 -1.1579
   98SAPC  H14C 9648   0.199   1.038   1.947 -1.5459 -1.5839 -0.6286
   98SAPC   C15 9649   0.289   1.114   2.203  0.0139 -0.3425 -0.0387
   98SAPC  H15A 9650   0.283   1.216   2.166  0.6212 -0.1273  0.4442
   98SAPC  H15B 9651   0.310   1.118   2.309 -0.5537 -0.3851  0.0782
   98SAPC  H15C 9652   0.371   1.064   2.154  0.6166 -0.2250  0.8176
   98SAPC   C11 9653   0.092   1.072   2.406 -0.6287  0.3645  0.2704
   98SAPC  H11A 9654   0.183   1.129   2.434 -0.7825  1.6288 -1.5791
   98SAPC  H11B 9655   0.104   0.963   2.425 -3.5276  0.1180  1.2787
   98SAPC     P 9656  -0.086   1.244   2.524  0.2297  0.3117 -0.0705
   98SAPC   O13 9657  -0.145   1.300   2.402 -0.0368  0.1564  0.6331
   98SAPC   O14 9658  -0.179   1.217   2.635 -0.3401  0.0996  0.1999
   98SAPC   O12 9659  -0.016   1.104   2.491 -0.2170  0.0373 -0.1513
   98SAPC   O11 9660   0.034   1.327   2.577 -0.3861 -0.4047  0.1016
   98SAPC    C1 9661   0.101   1.282   2.702  0.1064  0.2982  0.5594
   98SAPC    HA 9662   0.094   1.174   2.726 -0.3900  0.8383  3.2536
   98SAPC    HB 9663   0.208   1.308   2.692  0.4638 -0.3797  2.2003
   98SAPC    C2 9664   0.056   1.366   2.825 -0.7097 -0.2073  0.1427
   98SAPC    HS 9665  -0.055   1.365   2.824 -0.8002  2.5991 -0.4826
   98SAPC   O21 9666   0.114   1.495   2.803  0.9443  0.2030 -0.0763
   98SAPC   C21 9667   0.020   1.597   2.797 -0.3286  0.2737 -0.1909
   98SAPC   O22 9668  -0.098   1.578   2.823  0.3656  0.0016  0.5429
   98SAPC   C22 9669   0.081   1.725   2.744  0.2717 -0.6157  0.0021
   98SAPC   H2R 9670   0.181   1.736   2.790  0.5764 -0.4689 -0.6914
   98SAPC   H2S 9671   0.100   1.708   2.636  2.5521 -1.9139  0.5488
   98SAPC    C3 9672   0.110   1.315   2.960  0.4906 -0.6453 -0.0085
   98SAPC    HX 9673   0.088   1.386   3.043  0.4470 -1.0039  0.2863
   98SAPC    HY 9674   0.219   1.323   2.945  0.1590  1.6195 -1.8331
   98SAPC   O31 9675   0.076   1.179   2.995  0.0574 -0.6502 -0.2691
   98SAPC   C31 9676  -0.044   1.168   3.052 -0.3703 -0.6451  0.9436
   98SAPC   O32 9677  -0.120   1.261   3.070  0.8025  0.3259 -0.0198
   98SAPC   C32 9678  -0.062   1.015   3.079 -0.0986  0.6840  0.3672
   98SAPC   H2X 9679   0.030   0.978   3.130  1.0235  1.9783 -0.6411
   98SAPC   H2Y 9680  -0.059   0.961   2.982  0.8559 -0.8107  1.1870
   98SAPC   C23 9681   0.015   1.853   2.781 -0.7336 -0.3834 -0.3520
   98SAPC   H3R 9682  -0.087   1.845   2.737 -0.6595 -0.0784 -0.5841
   98SAPC   H3S 9683   0.060   1.942   2.732 -0.1129 -0.9797 -0.8840
   98SAPC   C24 9684   0.016   1.865   2.929  0.5506  0.1919 -0.1886
   98SAPC   H4R 9685  -0.046   1.785   2.976 -1.0190  1.3210 -0.2847
   98SAPC   H4S 9686  -0.044   1.956   2.950  0.1442  0.6155 -2.8432
   98SAPC   C25 9687   0.151   1.877   3.003 -0.6079 -0.3143  0.0917
   98SAPC   H5R 9688   0.228   1.934   2.949 -1.3566 -1.0094 -1.7885
   98SAPC   C26 9689   0.171   1.819   3.122  0.3284  0.0260  0.3259
   98SAPC   H6R 9690   0.273   1.832   3.163  1.0409 -0.2611 -1.2564
   98SAPC   C27 9691   0.061   1.770   3.206  0.3577 -0.2104 -0.3875
   98SAPC   H7R 9692  -0.021   1.845   3.202  0.1643 -0.3636  0.4586
   98SAPC   H7S 9693   0.105   1.766   3.308 -0.9752 -2.1189  0.1760
   98SAPC   C28 9694  -0.002   1.635   3.172 -0.4793  0.3098  0.8026
   98SAPC   H8R 9695  -0.006   1.616   3.063  0.2334  1.2195  0.6042
   98SAPC   C29 9696  -0.040   1.543   3.259  0.0349 -0.5399  0.4626
   98SAPC   H9R 9697  -0.096   1.458   3.216  0.3246  0.4102 -1.9447
   98SAPC  C210 9698  -0.018   1.547   3.405 -0.1706 -0.0871  0.2117
   98SAPC  H10R 9699  -0.112   1.584   3.450 -0.7114  1.4303 -1.9905
   98SAPC  H10S 9700   0.063   1.617   3.435 -0.1699  0.6922 -1.4788
   98SAPC  C211 9701   0.006   1.411   3.467 -1.1794  0.0340  0.4041
   98SAPC  H11R 9702   0.005   1.326   3.396 -0.5004 -0.7507  1.3048
   98SAPC  C212 9703   0.012   1.382   3.598  0.0075  0.2541  0.3523
   98SAPC  H12R 9704   0.023   1.278   3.632 -0.7755 -0.3329 -1.0735
   98SAPC  C213 9705  -0.009   1.487   3.703 -0.1689  0.2671 -0.5611
   98SAPC  H13R 9706  -0.010   1.584   3.649 -1.3651 -1.1529 -3.2806
   98SAPC  H13S 9707   0.071   1.490   3.780 -2.2114 -2.5449  1.8800
   98SAPC  C214 9708  -0.139   1.497   3.772  0.4354  0.2928  0.4843
   98SAPC  H14R 9709  -0.197   1.585   3.741  0.7182  1.4667  3.0315
   98SAPC  C215 9710  -0.166   1.427   3.884 -0.2204 -0.0727  0.4373
   98SAPC  H15R 9711  -0.269   1.436   3.921 -1.0546 -1.4053 -1.4202
   98SAPC  C216 9712  -0.094   1.311   3.936 -0.1272  0.9889 -0.1389
   98SAPC  H16R 9713  -0.032   1.268   3.854  1.7071  1.1796  1.0789
   98SAPC  H16S 9714  -0.159   1.232   3.980  1.0245 -0.0528 -0.2426
   98SAPC  C217 9715   0.007   1.352   4.047 -0.0120  0.3194  0.0743
   98SAPC  H17R 9716   0.094   1.411   4.013  1.2788  0.0485  2.7347
   98SAPC  H17S 9717   0.039   1.260   4.101  0.4725  1.5158  1.9074
   98SAPC  C218 9718  -0.051   1.439   4.156 -0.1331  0.0109 -0.5864
   98SAPC  H18R 9719  -0.113   1.522   4.116 -1.3348 -1.1049 -1.0977
   98SAPC  H18S 9720   0.031   1.488   4.214 -0.7543  0.5734 -0.1655
   98SAPC  C219 9721  -0.137   1.371   4.257  0.0039 -0.0129 -0.3916
   98SAPC  H19R 9722  -0.076   1.299   4.316  2.4223  1.1888 -1.3253
   98SAPC  H19S 9723  -0.209   1.307   4.201  1.3603 -1.4336 -0.5843
   98SAPC  C220 9724  -0.196   1.472   4.354 -0.0037 -0.0984  0.5697
   98SAPC  H20R 9725  -0.285   1.441   4.412  1.7165  1.4794  4.3715
   98SAPC  H20S 9726  -0.220   1.564   4.297  0.2186  0.8449  1.9592
   98SAPC  H20T 9727  -0.128   1.505   4.435 -3.0558  0.4105  3.1072
   98SAPC   C33 9728  -0.195   0.982   3.150  0.5272  0.0383  0.7612
   98SAPC   H3X 9729  -0.222   0.874   3.147  1.3664 -0.1863 -2.4264
   98SAPC   H3Y 9730  -0.272   1.030   3.086  2.3183  0.2606 -1.3387
   98SAPC   C34 9731  -0.200   1.021   3.298 -0.6941 -0.0015  0.4839
   98SAPC   H4X 9732  -0.300   1.066   3.311 -0.3957  1.1759 -1.1229
   98SAPC   H4Y 9733  -0.121   1.092   3.329 -0.0089 -0.9388  0.9612
   98SAPC   C35 9734  -0.179   0.895   3.387  0.0444 -0.8985  0.7520
   98SAPC   H5X 9735  -0.072   0.863   3.385  0.1634 -0.6025 -2.1540
   98SAPC   H5Y 9736  -0.246   0.816   3.347  0.6961 -0.6053 -1.0525
   98SAPC   C36 9737  -0.212   0.930   3.533  0.3401 -0.6261 -0.3727
   98SAPC   H6X 9738  -0.319   0.959   3.537  0.7065  0.7025  0.0552
   98SAPC   H6Y 9739  -0.156   1.024   3.553 -0.5677 -0.0125 -0.6631
   98SAPC   C37 9740  -0.174   0.827   3.635 -0.2831 -0.5559 -0.3531
   98SAPC   H7X 9741  -0.063   0.822   3.629 -0.3754 -2.0154 -1.0933
   98SAPC   H7Y 9742  -0.216   0.736   3.587 -0.8951 -1.3072  1.5156
   98SAPC   C38 9743  -0.235   0.845   3.776  0.5816  0.4544  0.0129
   98SAPC   H8X 9744  -0.213   0.748   3.825  1.0782  0.9772  0.8501
   98SAPC   H8Y 9745  -0.343   0.863   3.762  0.4957 -0.9556 -1.3249
   98SAPC   C39 9746  -0.157   0.949   3.854 -0.7138  0.0161 -0.2512
   98SAPC   H9X 9747  -0.169   1.052   3.814 -1.6130  0.0784  0.1373
   98SAPC   H9Y 9748  -0.050   0.922   3.843 -0.2910  2.0212 -1.4936
   98SAPC  C310 9749  -0.192   0.945   4.000  0.1663 -0.4285  0.1118
   98SAPC  H10X 9750  -0.299   0.968   4.021  0.2403 -0.9925  1.1844
   98SAPC  H10Y 9751  -0.115   1.014   4.040  1.2461 -0.4098 -1.8656
   98SAPC  C311 9752  -0.165   0.814   4.073 -0.2654 -0.1989 -0.0047
   98SAPC  H11X 9753  -0.057   0.793   4.054  0.2627 -1.3373  3.5017
   98SAPC  H11Y 9754  -0.233   0.731   4.045  0.2039 -0.5249 -0.1882
   98SAPC  C312 9755  -0.159   0.832   4.225 -0.0792  0.9637  0.0608
   98SAPC  H12X 9756  -0.068   0.888   4.256  1.6124 -0.5495 -1.8539
   98SAPC  H12Y 9757  -0.150   0.731   4.271 -0.3475 -0.0068 -1.9310
   98SAPC  C313 9758  -0.290   0.897   4.273  0.1576  0.2963 -0.3968
   98SAPC  H13X 9759  -0.371   0.840   4.223  1.5854 -2.2095 -0.0180
   98SAPC  H13Y 9760  -0.291   0.997   4.224 -1.1503  0.3219 -0.3759
   98SAPC  C314 9761  -0.307   0.910   4.431  0.1525 -0.0979 -0.0203
   98SAPC  H14X 9762  -0.401   0.967   4.448  0.5660  1.7018 -2.9102
   98SAPC  H14Y 9763  -0.217   0.967   4.462 -0.3150  0.9025 -0.4478
   98SAPC  C315 9764  -0.305   0.777   4.510  0.0962  0.0727  0.3542
   98SAPC  H15X 9765  -0.217   0.710   4.499  0.2947 -0.2107  3.0924
   98SAPC  H15Y 9766  -0.390   0.717   4.469 -0.1603 -0.7625  2.0323
   98SAPC  C316 9767  -0.359   0.790   4.653 -0.1037  1.2806 -0.2390
   98SAPC  H16X 9768  -0.340   0.691   4.697 -0.2889  0.2715 -2.3008
   98SAPC  H16Y 9769  -0.469   0.792   4.636  0.1430 -0.8634 -2.8074
   98SAPC  C317 9770  -0.292   0.894   4.735 -0.2444 -0.5326 -0.0215
   98SAPC  H17X 9771  -0.362   0.917   4.818 -1.8607  2.0118 -1.9457
   98SAPC  H17Y 9772  -0.280   0.987   4.676 -2.2281  0.1074  0.4790
   98SAPC  C318 9773  -0.154   0.852   4.783  0.3054 -0.7259 -0.7171
   98SAPC  H18X 9774  -0.094   0.838   4.691 -0.3925  0.4448 -1.3760
   98SAPC  H18Y 9775  -0.160   0.760   4.845 -1.6118 -1.2883 -1.6607
   98SAPC  H18Z 9776  -0.097   0.929   4.840 -2.4813  1.1838 -0.2634
   99SAPC     N 9777   2.503   5.256   2.778  0.2004 -0.1348  0.1760
   99SAPC   C12 9778   2.419   5.358   2.851 -0.7038  0.2633  0.1966
   99SAPC  H12A 9779   2.353   5.401   2.778  0.0723  1.4487  0.1674
   99SAPC  H12B 9780   2.480   5.445   2.869 -1.6118  1.7548 -3.1783
   99SAPC   C13 9781   2.418   5.148   2.728 -0.0893  0.0663 -0.3015
   99SAPC  H13A 9782   2.461   5.059   2.683 -0.8370 -0.1480 -0.6168
   99SAPC  H13B 9783   2.365   5.112   2.815 -0.4308 -1.0968 -0.9682
   99SAPC  H13C 9784   2.345   5.195   2.663  1.2559  2.1819 -0.3835
   99SAPC   C14 9785   2.565   5.317   2.661 -0.0777  0.3679 -0.2891
   99SAPC  H14A 9786   2.488   5.363   2.600  0.1228  0.7291 -0.2705
   99SAPC  H14B 9787   2.631   5.399   2.684 -0.0829  0.8595 -1.8731
   99SAPC  H14C 9788   2.599   5.238   2.596 -2.2433 -0.8227 -0.0863
   99SAPC   C15 9789   2.607   5.184   2.868  0.1830 -0.5582  0.2885
   99SAPC  H15A 9790   2.665   5.117   2.805  0.6397  0.1282 -0.0293
   99SAPC  H15B 9791   2.681   5.252   2.907  0.9655 -1.8617  1.1577
   99SAPC  H15C 9792   2.546   5.136   2.943 -2.4490  0.2427 -1.2171
   99SAPC   C11 9793   2.350   5.328   2.984  0.5891  0.4440  0.1005
   99SAPC  H11A 9794   2.275   5.252   2.954  1.9625 -0.8122 -0.2809
   99SAPC  H11B 9795   2.295   5.417   3.022  2.6765  1.3806  1.0831
   99SAPC     P 9796   2.508   5.349   3.189 -0.2092 -0.1473  0.0034
   99SAPC   O13 9797   2.626   5.261   3.229 -1.1582 -0.2978  0.1255
   99SAPC   O14 9798   2.534   5.481   3.132  0.1916 -0.2845  0.2895
   99SAPC   O12 9799   2.431   5.262   3.080 -0.1081 -0.5075 -0.1761
   99SAPC   O11 9800   2.407   5.362   3.310 -0.4922  0.4725 -0.4998
   99SAPC    C1 9801   2.281   5.304   3.319  0.3106 -0.3132  0.4222
   99SAPC    HA 9802   2.200   5.379   3.331  0.8111  0.4139 -0.5515
   99SAPC    HB 9803   2.240   5.252   3.230 -0.7874  0.8459  0.2225
   99SAPC    C2 9804   2.269   5.207   3.441 -0.2490 -0.3555  0.1588
   99SAPC    HS 9805   2.161   5.188   3.458 -0.8754  1.9471 -0.9829
   99SAPC   O21 9806   2.317   5.252   3.567  0.1486 -0.6747  0.2947
   99SAPC   C21 9807   2.249   5.350   3.625  0.4191 -0.0584  0.3706
   99SAPC   O22 9808   2.159   5.416   3.582 -0.5683 -0.5355 -0.2739
   99SAPC   C22 9809   2.316   5.373   3.765 -0.0703  0.4206 -0.3494
   99SAPC   H2R 9810   2.362   5.474   3.760  0.3140  0.3043  0.6341
   99SAPC   H2S 9811   2.237   5.374   3.843  0.4713 -1.6635  0.3074
   99SAPC    C3 9812   2.340   5.077   3.408  0.3252 -0.7202  0.1972
   99SAPC    HX 9813   2.450   5.091   3.401  0.1768  0.3952 -0.0344
   99SAPC    HY 9814   2.305   5.043   3.307  0.7683  1.6348 -0.8089
   99SAPC   O31 9815   2.295   4.984   3.516 -0.1566  0.3638 -0.4145
   99SAPC   C31 9816   2.325   4.859   3.485 -0.8463 -0.3950  0.2272
   99SAPC   O32 9817   2.377   4.823   3.382 -0.2196  0.2840  0.5460
   99SAPC   C32 9818   2.273   4.781   3.610  0.0565  0.4794  0.2013
   99SAPC   H2X 9819   2.170   4.813   3.636 -0.1985  0.9688 -1.2905
   99SAPC   H2Y 9820   2.332   4.786   3.703 -0.1933 -0.5296  0.4313
   99SAPC   C23 9821   2.426   5.270   3.819  1.0727 -0.4471  0.5994
   99SAPC   H3R 9822   2.503   5.267   3.739  1.3540 -2.2438  0.8849
   99SAPC   H3S 9823   2.382   5.169   3.809 -2.0293  0.6627  1.9581
   99SAPC   C24 9824   2.495   5.296   3.960  0.0515 -0.0259  0.3249
   99SAPC   H4R 9825   2.540   5.397   3.958 -1.3183  0.5921 -0.0839
   99SAPC   H4S 9826   2.580   5.225   3.971 -0.1291 -0.3367 -0.2137
   99SAPC   C25 9827   2.401   5.282   4.082 -0.3094  0.6423  0.2175
   99SAPC   H5R 9828   2.315   5.216   4.062 -1.6510  2.1222  0.8460
   99SAPC   C26 9829   2.407   5.344   4.196  0.7534 -0.4934 -0.6421
   99SAPC   H6R 9830   2.329   5.323   4.270  0.3329 -3.3210 -1.7513
   99SAPC   C27 9831   2.507   5.447   4.236 -0.0954 -0.2727 -0.2525
   99SAPC   H7R 9832   2.568   5.469   4.146  0.6480 -0.3256  0.2245
   99SAPC   H7S 9833   2.577   5.394   4.305  0.2172 -0.9814 -1.0975
   99SAPC   C28 9834   2.437   5.566   4.305 -0.6250 -0.6326  0.6368
   99SAPC   H8R 9835   2.375   5.629   4.239 -0.8814 -0.3410  1.1573
   99SAPC   C29 9836   2.431   5.587   4.438  0.5489 -0.1204  0.2495
   99SAPC   H9R 9837   2.396   5.688   4.462 -2.0932  0.4081 -4.6076
   99SAPC  C210 9838   2.502   5.511   4.542 -0.2216  0.7442 -0.5011
   99SAPC  H10R 9839   2.586   5.576   4.573 -0.4298 -0.1939  2.3166
   99SAPC  H10S 9840   2.550   5.417   4.508 -0.5957 -0.0986  1.1561
   99SAPC  C211 9841   2.413   5.490   4.664 -0.0248  0.0429 -0.1355
   99SAPC  H11R 9842   2.357   5.582   4.686 -0.6803  0.3803 -2.8933
   99SAPC  C212 9843   2.412   5.385   4.742  0.3742  0.1408  0.4021
   99SAPC  H12R 9844   2.341   5.392   4.826 -0.7040  2.0601 -0.6084
   99SAPC  C213 9845   2.480   5.260   4.706 -0.1002  0.3512 -0.0394
   99SAPC  H13R 9846   2.588   5.284   4.711  0.1647 -1.0248  1.9208
   99SAPC  H13S 9847   2.448   5.235   4.602  0.9295 -0.0402 -0.2678
   99SAPC  C214 9848   2.453   5.147   4.801 -0.0925  0.0451  0.0696
   99SAPC  H14R 9849   2.349   5.114   4.814 -0.0598  0.8953  3.1682
   99SAPC  C215 9850   2.545   5.083   4.872 -0.2274  0.2882 -0.1839
   99SAPC  H15R 9851   2.523   5.012   4.953 -0.3612 -0.9551 -1.2820
   99SAPC  C216 9852   2.693   5.121   4.869  0.5839  0.2794 -0.5104
   99SAPC  H16R 9853   2.707   5.215   4.927  2.3942 -1.5211  2.2774
   99SAPC  H16S 9854   2.731   5.137   4.766 -0.5765 -0.3774 -1.0562
   99SAPC  C217 9855   2.794   5.009   4.917 -0.6139  0.0249 -0.2126
   99SAPC  H17R 9856   2.783   4.918   4.855 -0.6386  0.3676 -0.7124
   99SAPC  H17S 9857   2.780   4.975   5.022  0.9696  1.8158  0.6373
   99SAPC  C218 9858   2.939   5.054   4.892 -0.2820 -0.0393  0.4174
   99SAPC  H18R 9859   2.948   5.138   4.964  0.1063 -0.8382  1.3116
   99SAPC  H18S 9860   2.952   5.091   4.787 -1.0645  0.0628  0.3485
   99SAPC  C219 9861   3.039   4.948   4.913 -0.0281 -0.2032  0.1294
   99SAPC  H19R 9862   3.045   4.911   5.018  0.0562  1.5769  0.7775
   99SAPC  H19S 9863   3.141   4.985   4.888  0.6845 -1.6636  0.7646
   99SAPC  C220 9864   3.036   4.819   4.825 -0.2754 -0.0540  0.0071
   99SAPC  H20R 9865   3.097   4.742   4.876  1.8042  0.1912 -1.9362
   99SAPC  H20S 9866   3.086   4.844   4.729 -2.5534  1.5752 -0.8477
   99SAPC  H20T 9867   2.932   4.786   4.807 -0.7718  2.1866 -1.7290
   99SAPC   C33 9868   2.255   4.622   3.585  0.2821  0.0701 -1.1586
   99SAPC   H3X 9869   2.359   4.583   3.586 -0.3584 -1.8324 -2.6911
   99SAPC   H3Y 9870   2.216   4.610   3.482 -0.4094 -1.1337 -0.7813
   99SAPC   C34 9871   2.159   4.559   3.688 -0.3833 -0.2345  0.5841
   99SAPC   H4X 9872   2.140   4.455   3.654 -0.6607  0.1794 -0.5570
   99SAPC   H4Y 9873   2.061   4.609   3.673 -0.1286 -0.2501 -1.4322
   99SAPC   C35 9874   2.200   4.554   3.837 -0.2907 -0.2228  0.2359
   99SAPC   H5X 9875   2.182   4.661   3.864  1.7222  0.3129 -0.3352
   99SAPC   H5Y 9876   2.307   4.539   3.867 -0.1208 -0.5629 -0.5302
   99SAPC   C36 9877   2.103   4.460   3.910 -0.3174 -0.0680 -0.6667
   99SAPC   H6X 9878   2.102   4.356   3.873 -1.9222  0.4545 -2.2348
   99SAPC   H6Y 9879   1.999   4.489   3.882 -0.4017  0.3223  0.0195
   99SAPC   C37 9880   2.118   4.471   4.068  0.3329 -0.3895  0.6893
   99SAPC   H7X 9881   2.027   4.429   4.115 -0.8954 -0.0062 -1.2644
   99SAPC   H7Y 9882   2.116   4.580   4.087 -1.6106 -0.1755 -0.4618
   99SAPC   C38 9883   2.236   4.393   4.131 -0.4539  0.8974  0.1420
   99SAPC   H8X 9884   2.323   4.391   4.063 -0.7794 -2.0327 -0.2939
   99SAPC   H8Y 9885   2.203   4.287   4.137 -1.1128  1.1004  0.2002
   99SAPC   C39 9886   2.278   4.449   4.263  0.3501 -0.1898  0.4396
   99SAPC   H9X 9887   2.308   4.555   4.249 -0.2896 -0.3267 -2.6266
   99SAPC   H9Y 9888   2.370   4.403   4.305  0.5600 -0.3543 -0.1874
   99SAPC  C310 9889   2.159   4.452   4.361 -0.1871  0.0733  0.3946
   99SAPC  H10X 9890   2.087   4.374   4.326  0.2548 -0.3463  0.4099
   99SAPC  H10Y 9891   2.099   4.545   4.360 -0.1049  0.2010  2.2591
   99SAPC  C311 9892   2.201   4.402   4.504 -0.0424 -0.0083  0.4979
   99SAPC  H11X 9893   2.114   4.405   4.573  0.3085 -1.2546  1.0246
   99SAPC  H11Y 9894   2.287   4.465   4.538  1.8687 -1.7243 -0.8954
   99SAPC  C312 9895   2.236   4.253   4.510  0.2097  0.1612 -0.1655
   99SAPC  H12X 9896   2.307   4.240   4.426 -1.9985 -0.3026 -2.0464
   99SAPC  H12Y 9897   2.139   4.202   4.491  0.6930 -1.9023  2.3315
   99SAPC  C313 9898   2.297   4.208   4.645  0.2482 -0.3608  0.1271
   99SAPC  H13X 9899   2.381   4.277   4.668  0.9751 -0.2876 -2.4329
   99SAPC  H13Y 9900   2.360   4.120   4.621  2.5273  1.3695 -0.6318
   99SAPC  C314 9901   2.198   4.204   4.760  0.0685 -0.1522  0.1486
   99SAPC  H14X 9902   2.115   4.131   4.744 -0.4551  0.3483  0.5201
   99SAPC  H14Y 9903   2.139   4.298   4.763 -1.4796 -1.0874  0.9172
   99SAPC  C315 9904   2.262   4.177   4.894  0.4181 -0.5313 -0.2981
   99SAPC  H15X 9905   2.355   4.237   4.904 -0.0844  0.1643  0.3301
   99SAPC  H15Y 9906   2.310   4.077   4.894  0.5352 -0.5611 -3.1342
   99SAPC  C316 9907   2.164   4.183   5.016 -0.2032  0.2012  0.1533
   99SAPC  H16X 9908   2.139   4.291   5.019  1.5919  0.7932 -2.4802
   99SAPC  H16Y 9909   2.212   4.148   5.110  3.0162 -0.4154 -1.5682
   99SAPC  C317 9910   2.032   4.117   4.999  0.0126 -0.0659  0.0542
   99SAPC  H17X 9911   2.032   4.012   4.964 -0.7843 -0.0679  0.0465
   99SAPC  H17Y 9912   1.969   4.165   4.921  1.6816  1.0721 -0.6540
   99SAPC  C318 9913   1.944   4.105   5.126 -0.1332 -0.6816  0.4582
   99SAPC  H18X 9914   1.973   4.020   5.192  0.9414 -0.4891  0.2557
   99SAPC  H18Y 9915   1.835   4.098   5.104 -0.6128  0.9064  2.0664
   99SAPC  H18Z 9916   1.950   4.200   5.183  0.2676 -2.1089  2.9529
  100SAPC     N 9917   0.901   3.253   2.979 -0.0330 -0.1288  0.2064
  100SAPC   C12 9918   0.893   3.278   3.125 -0.1736  0.3048  0.1787
  100SAPC  H12A 9919   0.791   3.306   3.147 -1.2642 -1.5863 -2.0717
  100SAPC  H12B 9920   0.961   3.356   3.155  0.5023  0.3378 -1.3626
  100SAPC   C13 9921   0.831   3.126   2.938  0.1093  1.1009 -0.2793
  100SAPC  H13A 9922   0.729   3.114   2.972  1.0422 -1.2709  2.1078
  100SAPC  H13B 9923   0.825   3.110   2.832 -1.0662 -2.3701  0.1760
  100SAPC  H13C 9924   0.887   3.040   2.975  0.4382  0.5316 -2.0210
  100SAPC   C14 9925   0.825   3.361   2.908 -0.0353 -0.0117  0.3505
  100SAPC  H14A 9926   0.831   3.351   2.801  4.2331  0.5940  0.3421
  100SAPC  H14B 9927   0.722   3.374   2.938 -1.2593 -1.1468 -2.8914
  100SAPC  H14C 9928   0.866   3.459   2.928  1.8391  0.1956 -3.5066
  100SAPC   C15 9929   1.039   3.249   2.923 -0.5908 -0.7311 -0.3617
  100SAPC  H15A 9930   1.101   3.193   2.992  0.7898  0.5818 -0.4847
  100SAPC  H15B 9931   1.048   3.194   2.830  1.9066  1.3973 -1.5092
  100SAPC  H15C 9932   1.088   3.345   2.918 -0.0042 -0.9505  0.7482
  100SAPC   C11 9933   0.932   3.160   3.221  0.4676 -0.6910  0.8960
  100SAPC  H11A 9934   0.878   3.064   3.205  0.3818 -0.8851  2.2626
  100SAPC  H11B 9935   0.905   3.193   3.323  0.9862 -0.8142  1.0755
  100SAPC     P 9936   1.185   3.232   3.276 -0.0178  0.1065 -0.0355
  100SAPC   O13 9937   1.309   3.225   3.195  0.1740  0.0706  0.6858
  100SAPC   O14 9938   1.126   3.367   3.289  0.0049 -0.0776  0.8944
  100SAPC   O12 9939   1.070   3.133   3.213 -0.7023  0.3605  0.2863
  100SAPC   O11 9940   1.212   3.170   3.421  0.1247  0.2220 -0.1633
  100SAPC    C1 9941   1.245   3.026   3.428 -0.0719  0.6161  0.4374
  100SAPC    HA 9942   1.192   2.991   3.519 -0.2725 -2.4905 -0.7378
  100SAPC    HB 9943   1.219   2.965   3.338  0.3439  1.8138 -0.5194
  100SAPC    C2 9944   1.400   3.011   3.450  1.0330  0.0303 -0.8712
  100SAPC    HS 9945   1.449   3.028   3.351  1.7873 -3.8608 -1.3156
  100SAPC   O21 9946   1.421   2.880   3.498 -0.4868  0.4504 -0.5641
  100SAPC   C21 9947   1.437   2.790   3.398  0.7472 -0.5942 -0.0681
  100SAPC   O22 9948   1.442   2.828   3.283  0.2966  0.1246  0.2905
  100SAPC   C22 9949   1.444   2.649   3.444 -0.2571  0.0771 -0.0044
  100SAPC   H2R 9950   1.340   2.624   3.471 -0.8079  0.2644 -1.8040
  100SAPC   H2S 9951   1.469   2.588   3.354 -1.3450 -1.5515  0.7480
  100SAPC    C3 9952   1.449   3.106   3.561 -0.1354 -0.1680  0.1954
  100SAPC    HX 9953   1.390   3.098   3.655 -0.2831 -1.8364 -0.0054
  100SAPC    HY 9954   1.436   3.204   3.511  1.6809 -0.6604 -1.3639
  100SAPC   O31 9955   1.591   3.086   3.590 -0.1235 -0.0200 -0.2231
  100SAPC   C31 9956   1.682   3.110   3.496  0.1219  0.4944 -0.2526
  100SAPC   O32 9957   1.657   3.149   3.385 -0.5843  0.1505 -0.0098
  100SAPC   C32 9958   1.824   3.080   3.542  1.2554  0.8321  0.0778
  100SAPC   H2X 9959   1.869   3.177   3.573  0.5327  1.0814  0.3823
  100SAPC   H2Y 9960   1.888   3.037   3.463  0.1100 -2.3127  0.7157
  100SAPC   C23 9961   1.545   2.628   3.564  0.1194  0.0836 -0.0521
  100SAPC   H3R 9962   1.514   2.686   3.654 -1.8696  0.9371 -1.2156
  100SAPC   H3S 9963   1.638   2.670   3.519 -1.3754  1.0428 -2.4492
  100SAPC   C24 9964   1.551   2.479   3.590  0.4267  0.0057  0.6510
  100SAPC   H4R 9965   1.596   2.425   3.504  0.9845 -0.1190  1.0190
  100SAPC   H4S 9966   1.445   2.446   3.591  1.0672 -2.3143 -0.0559
  100SAPC   C25 9967   1.623   2.446   3.721 -0.0431  0.4353 -1.2398
  100SAPC   H5R 9968   1.717   2.502   3.735  2.8717 -3.9946 -1.0642
  100SAPC   C26 9969   1.596   2.349   3.805 -0.6661  0.1061 -0.7765
  100SAPC   H6R 9970   1.662   2.334   3.892 -1.2376 -0.8904 -0.5000
  100SAPC   C27 9971   1.488   2.246   3.796  0.2614 -0.1603  0.0267
  100SAPC   H7R 9972   1.469   2.220   3.690  1.0315 -0.3320 -0.0747
  100SAPC   H7S 9973   1.397   2.296   3.836  0.4225  1.2017 -1.2217
  100SAPC   C28 9974   1.506   2.126   3.886 -0.6452  0.7869  0.1453
  100SAPC   H8R 9975   1.610   2.094   3.898 -1.1377 -1.2723 -0.6839
  100SAPC   C29 9976   1.405   2.050   3.941  0.2718  0.2442  0.7054
  100SAPC   H9R 9977   1.428   1.960   3.999  3.0359  0.2388 -0.2395
  100SAPC  C210 9978   1.253   2.070   3.931  0.0956  0.4946 -0.4823
  100SAPC  H10R 9979   1.231   2.161   3.873  1.7142  1.3454  0.1764
  100SAPC  H10S 9980   1.223   2.100   4.034  1.7035  1.7618 -0.3491
  100SAPC  C211 9981   1.176   1.948   3.878 -0.5202  0.0594  0.0455
  100SAPC  H11R 9982   1.166   1.938   3.769  1.8248  3.0387 -0.5811
  100SAPC  C212 9983   1.115   1.857   3.957  0.1102 -0.2594 -0.0809
  100SAPC  H12R 9984   1.051   1.777   3.916 -0.5527 -1.0169  2.2710
  100SAPC  C213 9985   1.123   1.844   4.104  0.0858  0.1970 -0.5049
  100SAPC  H13R 9986   1.036   1.887   4.158  1.3321  1.9270  0.1944
  100SAPC  H13S 9987   1.205   1.909   4.140 -0.1959  1.7273 -2.4781
  100SAPC  C214 9988   1.119   1.702   4.165  0.9833 -0.6902  0.6041
  100SAPC  H14R 9989   1.071   1.631   4.096  1.4573 -0.9470  0.5343
  100SAPC  C215 9990   1.177   1.662   4.276 -0.0688 -0.0722  0.1540
  100SAPC  H15R 9991   1.167   1.557   4.307 -1.3736  0.1670  0.6141
  100SAPC  C216 9992   1.270   1.739   4.363 -0.0854 -0.1802 -0.4281
  100SAPC  H16R 9993   1.205   1.808   4.422  1.4031  1.2903 -0.4137
  100SAPC  H16S 9994   1.342   1.806   4.312 -0.1292  0.5607  0.4462
  100SAPC  C217 9995   1.361   1.655   4.459 -0.5652 -0.2279  0.2235
  100SAPC  H17R 9996   1.432   1.594   4.399  1.2814  2.3934 -0.3989
  100SAPC  H17S 9997   1.299   1.589   4.524  0.3305 -1.0894  0.2275
  100SAPC  C218 9998   1.447   1.738   4.554 -0.1062  0.8674 -0.5709
  100SAPC  H18R 9999   1.390   1.784   4.638  1.0787 -2.5109  2.3321
  100SAPC  H18S10000   1.501   1.818   4.499  0.7009  2.4489  2.3109
  100SAPC  C21910001   1.548   1.645   4.628  0.1449 -0.0044 -0.2423
  100SAPC  H19R10002   1.599   1.708   4.704  0.4560  2.3365 -2.2361
  100SAPC  H19S10003   1.620   1.601   4.556  0.5553 -0.0995  0.2253
  100SAPC  C22010004   1.487   1.528   4.702 -0.0595 -0.2387  0.5050
  100SAPC  H20R10005   1.406   1.562   4.770 -0.3942 -2.6433  1.4194
  100SAPC  H20S10006   1.559   1.470   4.764 -2.2180 -2.9552  0.6606
  100SAPC  H20T10007   1.444   1.452   4.634  1.2325 -0.2967 -0.2827
  100SAPC   C3310008   1.836   3.004   3.678  0.4561  0.0759 -0.1126
  100SAPC   H3X10009   1.772   3.061   3.748  0.7439 -1.5586  1.5700
  100SAPC   H3Y10010   1.941   2.998   3.713  0.3322 -1.3467  0.0795
  100SAPC   C3410011   1.793   2.863   3.677 -0.1275 -0.1259  0.2188
  100SAPC   H4X10012   1.844   2.802   3.599 -1.8595 -2.2424  0.6166
  100SAPC   H4Y10013   1.683   2.866   3.656 -1.0871 -2.6688  3.8135
  100SAPC   C3510014   1.804   2.789   3.815 -0.0064 -0.6913 -0.0627
  100SAPC   H5X10015   1.908   2.798   3.854 -0.7623  0.6453  1.8085
  100SAPC   H5Y10016   1.779   2.681   3.817  0.9877 -0.9363 -0.4579
  100SAPC   C3610017   1.712   2.855   3.923  0.0643  0.2826  0.2052
  100SAPC   H6X10018   1.609   2.870   3.884  0.7505  1.6297 -1.2099
  100SAPC   H6Y10019   1.744   2.957   3.956 -0.5924  0.7207 -0.4696
  100SAPC   C3710020   1.720   2.770   4.051  0.3105 -0.2486 -0.3692
  100SAPC   H7X10021   1.823   2.745   4.081 -0.1096  0.0096  1.4028
  100SAPC   H7Y10022   1.674   2.670   4.037  0.9867 -1.0431  2.4238
  100SAPC   C3810023   1.641   2.833   4.166  0.3311  0.0191 -0.4840
  100SAPC   H8X10024   1.541   2.872   4.139  0.8516  0.4032 -1.9417
  100SAPC   H8Y10025   1.696   2.922   4.204  0.0591 -0.9795  2.5126
  100SAPC   C3910026   1.616   2.748   4.293 -0.2111 -0.6112  0.6419
  100SAPC   H9X10027   1.710   2.698   4.325 -0.1917 -2.3287 -1.8524
  100SAPC   H9Y10028   1.548   2.661   4.278 -2.5638  1.3806 -0.8188
  100SAPC  C31010029   1.569   2.829   4.412 -0.2884  0.5117 -0.1084
  100SAPC  H10X10030   1.485   2.899   4.392 -0.4219 -0.0216 -1.5577
  100SAPC  H10Y10031   1.652   2.888   4.456 -0.4400 -1.1344  2.5516
  100SAPC  C31110032   1.504   2.761   4.533  0.3083  0.4385 -0.6326
  100SAPC  H11X10033   1.400   2.726   4.518  0.6568 -0.4668 -0.9770
  100SAPC  H11Y10034   1.500   2.836   4.615 -2.9949  0.9986 -1.1771
  100SAPC  C31210035   1.602   2.645   4.579 -0.2187  0.2297  0.0064
  100SAPC  H12X10036   1.698   2.698   4.589 -1.5731  2.5142  2.0138
  100SAPC  H12Y10037   1.619   2.571   4.497  0.2569 -1.2741  1.4104
  100SAPC  C31310038   1.550   2.578   4.710  0.7388 -0.5449  0.8616
  100SAPC  H13X10039   1.461   2.515   4.688  1.2643 -0.7416 -0.8293
  100SAPC  H13Y10040   1.521   2.667   4.770 -0.4241  0.4633 -1.0995
  100SAPC  C31410041   1.655   2.486   4.778  0.4662 -0.4123 -0.1645
  100SAPC  H14X10042   1.757   2.528   4.766  0.7669 -1.1418 -0.1805
  100SAPC  H14Y10043   1.658   2.395   4.714  0.6373 -0.9777  0.6330
  100SAPC  C31510044   1.616   2.455   4.921 -0.6823  0.3194 -0.2502
  100SAPC  H15X10045   1.680   2.368   4.947  1.9029  1.8975 -0.9752
  100SAPC  H15Y10046   1.511   2.418   4.916 -0.6557  0.2955 -0.7039
  100SAPC  C31610047   1.653   2.564   5.026 -0.2859  0.0326  0.1626
  100SAPC  H16X10048   1.608   2.662   4.998  2.8081  1.2423 -1.0595
  100SAPC  H16Y10049   1.763   2.564   5.041 -0.2754 -1.3059  0.1897
  100SAPC  C31710050   1.602   2.528   5.172  0.6860 -0.8391  0.1683
  100SAPC  H17X10051   1.623   2.422   5.200  1.1729 -0.8510 -0.2252
  100SAPC  H17Y10052   1.496   2.552   5.149  0.8113 -0.0340  0.4295
  100SAPC  C31810053   1.645   2.626   5.285  0.3941 -0.2842 -0.5124
  100SAPC  H18X10054   1.629   2.731   5.252  1.7999  0.0974 -0.0230
  100SAPC  H18Y10055   1.749   2.600   5.315  0.0178  2.6336  4.3113
  100SAPC  H18Z10056   1.577   2.595   5.367  1.1104 -1.5056 -0.3573
  101OSM      N10057   5.303   5.158   7.131  0.8910 -0.8073  0.0189
  101OSM    C1510058   5.406   5.134   7.236 -0.1065 -0.0332  0.1125
  101OSM   H15A10059   5.453   5.038   7.222 -0.0494 -0.4423  2.6545
  101OSM   H15B10060   5.348   5.125   7.327 -1.2402  0.4289 -0.5340
  101OSM   H15C10061   5.479   5.211   7.255  0.7576 -1.0142  0.8760
  101OSM    C1410062   5.242   5.297   7.142  0.1939  0.4393  0.1611
  101OSM   H14A10063   5.322   5.370   7.144 -0.6428  1.5526 -2.3294
  101OSM   H14B10064   5.182   5.314   7.230  1.4285 -2.6171  1.7526
  101OSM   H14C10065   5.180   5.308   7.054 -1.9024 -1.0539  1.3573
  101OSM    C1310066   5.364   5.151   7.001 -0.4314  0.2330  0.4228
  101OSM   H13A10067   5.453   5.211   6.992 -0.1286 -0.4189 -1.3063
  101OSM   H13B10068   5.288   5.178   6.929 -2.2879  1.9035  2.8388
  101OSM   H13C10069   5.385   5.048   6.978  0.0368  0.0344  1.6444
  101OSM    C1210070   5.194   5.053   7.136 -0.2310 -0.2226  0.0637
  101OSM   H12A10071   5.222   4.957   7.095 -2.5818 -0.9499 -0.0068
  101OSM   H12B10072   5.124   5.080   7.058  1.5930  1.0111 -1.2115
  101OSM    C1110073   5.119   5.030   7.266 -0.0013 -0.2236 -0.1574
  101OSM   H11A10074   5.189   4.993   7.344 -0.8900  0.6823  1.1088
  101OSM   H11B10075   5.045   4.947   7.270 -0.1170 -0.0930  2.9963
  101OSM      P10076   4.925   5.177   7.367 -0.1953 -0.2546  0.3684
  101OSM    O1310077   4.898   5.071   7.465 -0.3626 -0.1666  0.0675
  101OSM    O1410078   4.894   5.311   7.410 -0.1662  0.0767  0.2311
  101OSM    O1110079   4.842   5.149   7.234  0.3160 -0.1097 -0.0947
  101OSM    O1210080   5.068   5.156   7.305  0.3882 -0.0634 -0.6745
  101OSM    C1S10081   4.864   5.231   7.117  0.2790 -0.2772  0.7019
  101OSM    H1S10082   4.971   5.257   7.108  0.0590  0.9546  1.3559
  101OSM    H1T10083   4.802   5.324   7.117  0.4093 -0.1147 -1.9903
  101OSM     NF10084   4.869   5.229   6.864 -1.2597  0.0927 -0.0941
  101OSM    HNF10085   4.811   5.295   6.817 -0.1061  0.9637 -0.3290
  101OSM    C2S10086   4.817   5.163   6.982  0.4282  0.1231  0.0383
  101OSM    H2S10087   4.837   5.054   6.987 -1.5396 -0.2148  2.8850
  101OSM    C3S10088   4.657   5.151   6.994 -0.0759  0.2212  0.1804
  101OSM    H3S10089   4.622   5.256   7.007  0.8317  0.7352 -1.3026
  101OSM     O310090   4.597   5.088   7.100  0.0759 -0.4305  0.0309
  101OSM    HO310091   4.658   5.095   7.174  0.0538  1.9465 -0.0875
  101OSM    C4S10092   4.599   5.094   6.864 -0.1512 -0.1048 -0.9651
  101OSM    H4S10093   4.642   4.996   6.840  0.2952  0.1642 -1.2907
  101OSM    C5S10094   4.524   5.164   6.770 -0.0901  0.1490  0.6654
  101OSM    H5S10095   4.516   5.273   6.778 -0.6188  0.2140 -0.5056
  101OSM    C6S10096   4.483   5.117   6.631 -0.3016 -0.3484  0.2694
  101OSM    H6S10097   4.373   5.129   6.621 -0.1627  0.1430 -0.7398
  101OSM    H6T10098   4.505   5.010   6.608  1.3008 -0.4515  2.0959
  101OSM    C7S10099   4.543   5.208   6.522  0.1639 -0.9138 -0.2513
  101OSM    H7S10100   4.531   5.317   6.540  2.4310 -0.7049  0.3328
  101OSM    H7T10101   4.484   5.182   6.431  0.3438 -0.4571 -0.5013
  101OSM    C8S10102   4.682   5.179   6.475 -0.7595 -0.1082 -0.1604
  101OSM    H8S10103   4.690   5.068   6.475  0.5554 -0.0368 -1.4141
  101OSM    H8T10104   4.760   5.207   6.549 -0.1611 -1.6650 -0.1630
  101OSM    C9S10105   4.724   5.242   6.342 -0.0253 -0.6540 -0.2175
  101OSM    H9S10106   4.826   5.204   6.320 -0.2121 -1.5608  0.4055
  101OSM    H9T10107   4.725   5.353   6.343 -0.8240 -0.6135  2.1669
  101OSM   C10S10108   4.636   5.182   6.224 -0.2601  0.0541  0.3541
  101OSM   H10S10109   4.533   5.223   6.223 -0.9891 -1.6987 -0.9762
  101OSM   H10T10110   4.632   5.072   6.231 -2.0429  0.1030  0.5087
  101OSM   C11S10111   4.698   5.211   6.079 -0.3500 -0.3267  0.3250
  101OSM   H11S10112   4.630   5.159   6.008 -0.3032 -0.7287  0.5714
  101OSM   H11T10113   4.791   5.151   6.075 -0.6212 -0.7242 -0.1194
  101OSM   C12S10114   4.728   5.357   6.034 -0.6593  0.0046 -0.0271
  101OSM   H12S10115   4.797   5.398   6.112  2.1078 -2.2839 -1.0521
  101OSM   H12T10116   4.637   5.420   6.040 -0.2732  0.4551  2.2145
  101OSM   C13S10117   4.796   5.370   5.896  0.9926 -0.2782  0.4024
  101OSM   H13S10118   4.886   5.306   5.883  0.7868 -1.1471  2.7866
  101OSM   H13T10119   4.830   5.475   5.893 -3.2230  1.3006  0.7362
  101OSM   C14S10120   4.696   5.346   5.780  0.7231 -0.2119 -0.0342
  101OSM   H14S10121   4.624   5.431   5.774  0.9077  0.0844  1.4387
  101OSM   H14T10122   4.637   5.253   5.797 -1.1908  0.8303 -0.6357
  101OSM   C15S10123   4.778   5.327   5.651 -0.0465 -0.0158  0.6613
  101OSM   H15S10124   4.843   5.238   5.660 -0.8656 -0.7333 -0.2654
  101OSM   H15T10125   4.849   5.411   5.637  0.9607 -0.8013  1.0205
  101OSM   C16S10126   4.678   5.316   5.537  0.3095  0.0756 -0.2430
  101OSM   H16S10127   4.642   5.421   5.530 -0.9981 -0.2567  1.0417
  101OSM   H16T10128   4.591   5.251   5.562  0.5717 -0.2400 -0.1452
  101OSM   C17S10129   4.754   5.278   5.406  0.2820 -0.2033  0.5120
  101OSM   H17S10130   4.849   5.334   5.413 -0.6035  1.4202  0.0920
  101OSM   H17T10131   4.696   5.315   5.319 -0.5175  0.7471  1.4100
  101OSM   C18S10132   4.788   5.129   5.401 -0.2440 -0.7630  0.7445
  101OSM   H18S10133   4.884   5.121   5.346 -0.0253  1.2770  0.7303
  101OSM   H18T10134   4.706   5.067   5.360 -0.6633 -0.2075  0.7278
  101OSM   H18U10135   4.818   5.108   5.506  0.2452 -0.8505  0.5906
  101OSM    C1F10136   5.004   5.233   6.835  0.4330  0.1704 -0.1221
  101OSM     OF10137   5.072   5.176   6.912 -0.1253 -0.3282  0.2719
  101OSM    C2F10138   5.062   5.321   6.727 -0.1254 -0.1696 -0.6556
  101OSM    H2F10139   5.131   5.392   6.777  1.2201 -2.2569  0.5763
  101OSM    H2G10140   4.986   5.377   6.668  1.9493 -0.3202 -3.7253
  101OSM    C3F10141   5.128   5.240   6.610 -0.3363 -0.4735  0.0910
  101OSM    H3F10142   5.174   5.310   6.537 -1.3724  0.2139  0.0816
  101OSM    H3G10143   5.054   5.173   6.561 -2.1155  0.9344  0.7452
  101OSM    C4F10144   5.251   5.146   6.652  0.0846  0.6105 -0.2020
  101OSM    H4F10145   5.224   5.060   6.717 -2.0046  0.9178 -0.6052
  101OSM    H4G10146   5.315   5.212   6.714 -1.4671  2.2911 -0.2994
  101OSM    C5F10147   5.322   5.096   6.524  0.6465 -0.3181  0.5089
  101OSM    H5F10148   5.411   5.038   6.556  1.3360  0.2746 -0.2856
  101OSM    H5G10149   5.352   5.190   6.472  1.3368  0.2930  1.9506
  101OSM    C6F10150   5.241   5.012   6.427  0.3901 -0.0920  0.3860
  101OSM    H6F10151   5.310   4.991   6.341  0.6825  2.9729 -0.2518
  101OSM    H6G10152   5.160   5.075   6.384  1.4459  2.2957  1.6717
  101OSM    C7F10153   5.206   4.874   6.487  0.0400 -0.6754  0.3000
  101OSM    H7F10154   5.147   4.884   6.581 -0.2886 -1.1713  0.1454
  101OSM    H7G10155   5.292   4.814   6.523  2.1045  1.5680 -0.5613
  101OSM    C8F10156   5.122   4.794   6.387  0.2370 -0.5181  0.0588
  101OSM    H8F10157   5.105   4.698   6.441 -0.7646  0.2522  1.1584
  101OSM    H8G10158   5.191   4.766   6.305  0.9259  0.8662  0.1364
  101OSM    C9F10159   4.990   4.861   6.347  0.3755  0.0415 -0.4699
  101OSM    H9F10160   4.921   4.867   6.433 -0.6642 -2.6878 -1.0347
  101OSM   C10F10161   4.952   4.907   6.228 -0.3486 -0.1267  0.3265
  101OSM   H10F10162   4.857   4.960   6.215  0.5398  1.3542 -0.5070
  101OSM   C11F10163   5.032   4.898   6.101  0.0528 -0.0319 -0.2029
  101OSM   H11F10164   5.139   4.926   6.110  0.7594 -2.7120  0.8413
  101OSM   H11G10165   4.981   4.967   6.031 -0.0802 -1.7316 -1.8497
  101OSM   C12F10166   5.029   4.756   6.056  0.5001  0.2468  0.6594
  101OSM   H12F10167   4.922   4.729   6.044  0.6702 -1.2496  2.0721
  101OSM   H12G10168   5.065   4.684   6.133 -1.8710 -1.0706  0.6425
  101OSM   C13F10169   5.115   4.726   5.931  1.4816 -0.1861 -0.2769
  101OSM   H13F10170   5.109   4.811   5.861  1.0591  1.3617  1.5642
  101OSM   H13G10171   5.072   4.639   5.876 -0.5336  0.6656 -0.1365
  101OSM   C14F10172   5.267   4.722   5.962  0.3372 -0.1507 -0.4000
  101OSM   H14F10173   5.285   4.638   6.032  1.2025 -1.1821 -1.8069
  101OSM   H14G10174   5.289   4.818   6.012 -0.2553 -0.1566 -0.1192
  101OSM   C15F10175   5.355   4.697   5.840 -0.4824 -0.2383  0.5222
  101OSM   H15F10176   5.450   4.667   5.889 -0.7782 -1.0758  0.5958
  101OSM   H15G10177   5.369   4.790   5.781 -1.4991 -1.1369 -1.2218
  101OSM   C16F10178   5.308   4.571   5.761 -0.1767 -0.8708 -0.8414
  101OSM   H16F10179   5.214   4.594   5.705  0.5218 -1.0526 -2.1364
  101OSM   H16G10180   5.300   4.480   5.824  2.0248 -0.3265  0.3267
  101OSM   C17F10181   5.411   4.529   5.654  1.0035 -0.1362  0.2910
  101OSM   H17F10182   5.429   4.616   5.587 -2.0374  0.6948  0.3995
  101OSM   H17G10183   5.371   4.448   5.589  0.1970 -1.4126  2.2563
  101OSM   C18F10184   5.544   4.476   5.705 -0.7397 -0.3179 -0.5531
  101OSM   H18F10185   5.613   4.450   5.622  1.8016 -0.4283  1.4728
  101OSM   H18G10186   5.532   4.378   5.756  2.0013 -1.1077 -1.2535
  101OSM   H18H10187   5.592   4.556   5.764 -0.9415  0.9582 -2.0475
  102OSM      N10188   6.586   0.378   7.120  0.3833  0.3209 -0.0306
  102OSM    C1510189   6.614   0.252   7.037  0.4979 -0.0766  0.3339
  102OSM   H15A10190   6.551   0.167   7.059  0.0381  1.0350  3.9363
  102OSM   H15B10191   6.717   0.222   7.056  0.4841  0.9912  2.4496
  102OSM   H15C10192   6.598   0.284   6.936  2.0584  0.4527  0.2292
  102OSM    C1410193   6.626   0.354   7.263  0.1094 -0.2518  0.4760
  102OSM   H14A10194   6.580   0.261   7.294  0.7755 -0.5173  0.6671
  102OSM   H14B10195   6.585   0.427   7.331  0.2917 -2.2210  2.8562
  102OSM   H14C10196   6.732   0.343   7.276  0.3758  0.5220 -0.9345
  102OSM    C1310197   6.663   0.494   7.076 -0.2446  0.3563  0.4274
  102OSM   H13A10198   6.762   0.457   7.052  0.1947  1.6090  0.2371
  102OSM   H13B10199   6.674   0.582   7.137  1.9360  0.2738  0.2554
  102OSM   H13C10200   6.633   0.531   6.979 -0.2473  1.7335  0.9367
  102OSM    C1210201   6.437   0.416   7.114  0.5946 -0.1710  0.0673
  102OSM   H12A10202   6.423   0.499   7.182 -0.9394 -0.4329  0.1231
  102OSM   H12B10203   6.378   0.338   7.161 -0.1518 -0.7981 -1.8255
  102OSM    C1110204   6.380   0.445   6.973  0.0276 -0.2034 -0.5756
  102OSM   H11A10205   6.270   0.449   6.984  0.0021  2.2802 -1.0657
  102OSM   H11B10206   6.411   0.361   6.907  0.4175 -0.5424  0.0326
  102OSM      P10207   6.378   0.708   6.972 -0.0783  0.4054 -0.1829
  102OSM    O1310208   6.376   0.696   7.118 -0.1750 -0.2265 -0.3125
  102OSM    O1410209   6.466   0.810   6.913 -0.0967 -0.2282 -0.1895
  102OSM    O1110210   6.221   0.711   6.926 -0.8159  0.2282 -0.1163
  102OSM    O1210211   6.429   0.566   6.916  0.6268 -0.5487 -0.3380
  102OSM    C1S10212   6.204   0.739   6.781 -0.6181 -0.3360 -0.7646
  102OSM    H1S10213   6.275   0.815   6.741  2.2191 -2.8786 -0.9022
  102OSM    H1T10214   6.100   0.778   6.779 -0.9778 -1.1217  0.8552
  102OSM     NF10215   6.229   0.642   6.546  0.2017  0.4831  0.8191
  102OSM    HNF10216   6.159   0.639   6.475  1.0116 -1.4019  0.0308
  102OSM    C2S10217   6.204   0.615   6.681  0.2009  0.6260 -0.0107
  102OSM    H2S10218   6.281   0.540   6.712 -2.4022 -2.7438 -1.1136
  102OSM    C3S10219   6.077   0.541   6.707  0.0869 -0.5261  0.4423
  102OSM    H3S10220   5.992   0.607   6.678 -1.1498 -1.6225  1.4395
  102OSM     O310221   6.040   0.521   6.843  0.2680  0.3724  0.1098
  102OSM    HO310222   6.098   0.574   6.897  0.0322  1.9194 -1.0930
  102OSM    C4S10223   6.071   0.416   6.630 -0.6771 -0.1169 -0.1331
  102OSM    H4S10224   6.058   0.432   6.522  2.0915 -0.9394 -0.6560
  102OSM    C5S10225   6.086   0.289   6.674  0.1332  0.6085  0.0671
  102OSM    H5S10226   6.095   0.280   6.783  2.0092  0.4215 -0.0724
  102OSM    C6S10227   6.079   0.159   6.589 -0.6777 -0.0362 -0.2031
  102OSM    H6S10228   6.022   0.077   6.639  3.0041 -2.0093  1.1135
  102OSM    H6T10229   6.180   0.114   6.585  0.2141  1.7496  0.9208
  102OSM    C7S10230   6.009   0.185   6.450 -0.3194  0.2200 -0.4175
  102OSM    H7S10231   6.073   0.259   6.398  0.9677  0.3326  1.2505
  102OSM    H7T10232   5.911   0.228   6.481 -0.4810 -0.6459  0.3346
  102OSM    C8S10233   6.009   0.057   6.362  0.4404  0.1566  0.5905
  102OSM    H8S10234   5.959  -0.035   6.400  2.2172 -1.9571 -1.8669
  102OSM    H8T10235   6.112   0.025   6.337  0.3018  0.5704 -0.5901
  102OSM    C9S10236   5.930   0.083   6.227 -0.0376  0.0364 -0.2714
  102OSM    H9S10237   5.984   0.162   6.171  0.1211  0.4316  0.4318
  102OSM    H9T10238   5.830   0.128   6.243  0.3454  2.3975 -3.6356
  102OSM   C10S10239   5.913  -0.034   6.120  0.2175  0.5265  0.0160
  102OSM   H10S10240   5.849  -0.111   6.167 -0.0381  1.3880  1.1300
  102OSM   H10T10241   6.010  -0.084   6.099  1.1849  2.1784  0.3567
  102OSM   C11S10242   5.858   0.021   5.985 -0.3366  0.0868 -0.5232
  102OSM   H11S10243   5.919   0.106   5.950 -0.5617  1.1859  1.5555
  102OSM   H11T10244   5.759   0.067   6.008  0.6941  2.1518  0.0623
  102OSM   C12S10245   5.828  -0.094   5.892  0.3736 -0.3412  0.4327
  102OSM   H12S10246   5.753  -0.161   5.938  2.2733 -4.1013 -1.5013
  102OSM   H12T10247   5.918  -0.157   5.873  1.3488  1.1979 -0.2976
  102OSM   C13S10248   5.773  -0.038   5.757 -0.3275 -0.0786  0.3109
  102OSM   H13S10249   5.844   0.036   5.714  0.9512  0.1978  2.7408
  102OSM   H13T10250   5.674   0.005   5.785 -0.7174 -0.2879 -0.6975
  102OSM   C14S10251   5.737  -0.156   5.664 -0.5117  0.4302  0.3381
  102OSM   H14S10252   5.648  -0.198   5.715 -1.3114  2.5223  0.7842
  102OSM   H14T10253   5.818  -0.232   5.659 -1.5090 -0.6495  0.2532
  102OSM   C15S10254   5.697  -0.110   5.521 -0.2693 -0.0766 -0.4161
  102OSM   H15S10255   5.777  -0.037   5.497  0.9084 -0.6590  1.5208
  102OSM   H15T10256   5.606  -0.049   5.537  0.2153  0.6554 -0.4057
  102OSM   C16S10257   5.666  -0.217   5.405  0.3741 -0.3262 -0.2324
  102OSM   H16S10258   5.753  -0.282   5.384  0.6950  0.0630 -0.1317
  102OSM   H16T10259   5.661  -0.163   5.308 -1.6059  0.4943  0.2634
  102OSM   C17S10260   5.536  -0.301   5.420  0.3492 -0.4183  0.3770
  102OSM   H17S10261   5.450  -0.233   5.442  2.0261  1.3894  1.6338
  102OSM   H17T10262   5.537  -0.382   5.496 -1.7774  0.5743  1.5614
  102OSM   C18S10263   5.500  -0.360   5.281 -0.7238 -0.6359 -0.6085
  102OSM   H18S10264   5.395  -0.394   5.292 -0.2159 -2.0219  0.2394
  102OSM   H18T10265   5.566  -0.439   5.239  1.2342  0.0995  0.9275
  102OSM   H18U10266   5.496  -0.280   5.203 -0.3992  0.5740  0.5775
  102OSM    C1F10267   6.350   0.679   6.508 -0.4278  0.1341 -0.2755
  102OSM     OF10268   6.450   0.660   6.576  0.2719  0.3369 -0.7937
  102OSM    C2F10269   6.364   0.757   6.387  0.0702  0.5498 -0.1745
  102OSM    H2F10270   6.333   0.860   6.415 -2.9980 -0.1226 -0.8003
  102OSM    H2G10271   6.290   0.724   6.312  0.8759  0.7570 -1.0867
  102OSM    C3F10272   6.505   0.729   6.338 -0.0495 -0.1047 -0.2499
  102OSM    H3F10273   6.537   0.623   6.333  0.0018 -0.1269  0.4540
  102OSM    H3G10274   6.568   0.793   6.404 -2.5090  0.5244  1.6719
  102OSM    C4F10275   6.512   0.778   6.195 -0.8274  0.6918  0.3073
  102OSM    H4F10276   6.622   0.782   6.180 -0.8586 -2.2473 -1.5248
  102OSM    H4G10277   6.480   0.884   6.188  0.2162  1.3971  4.1003
  102OSM    C5F10278   6.457   0.686   6.087  0.5816  0.3735  0.7835
  102OSM    H5F10279   6.347   0.682   6.100  0.2141 -0.0115 -1.9829
  102OSM    H5G10280   6.504   0.585   6.087 -1.2907 -0.6528 -3.0852
  102OSM    C6F10281   6.478   0.752   5.944 -0.7635  0.4430  0.2477
  102OSM    H6F10282   6.586   0.773   5.935 -0.4384 -0.4667  1.6721
  102OSM    H6G10283   6.417   0.843   5.927 -1.0056  0.5659  1.6731
  102OSM    C7F10284   6.436   0.653   5.841 -0.6750  0.1533 -0.4726
  102OSM    H7F10285   6.336   0.614   5.868 -0.5011  0.2558  0.3548
  102OSM    H7G10286   6.513   0.573   5.843 -0.1947  0.6112  1.1742
  102OSM    C8F10287   6.439   0.711   5.699  0.1420 -0.0214 -0.2257
  102OSM    H8F10288   6.533   0.765   5.673 -0.7794  1.5803 -0.3867
  102OSM    H8G10289   6.367   0.796   5.704 -1.8199 -1.6350  0.3819
  102OSM    C9F10290   6.385   0.617   5.593 -0.7800  0.2899  0.1658
  102OSM    H9F10291   6.300   0.556   5.626 -0.0093  0.0026  1.7216
  102OSM   C10F10292   6.430   0.598   5.466 -0.1106 -0.3467  0.6321
  102OSM   H10F10293   6.377   0.527   5.401  0.5990 -0.0096 -0.3349
  102OSM   C11F10294   6.533   0.680   5.397 -0.0219  0.1450 -0.3089
  102OSM   H11F10295   6.631   0.627   5.385  1.8059  2.9033  1.2923
  102OSM   H11G10296   6.571   0.767   5.454  2.6957 -1.3873  0.4522
  102OSM   C12F10297   6.485   0.723   5.256 -0.5757  0.4393  0.1388
  102OSM   H12F10298   6.458   0.628   5.205  1.7504 -0.2435  0.0663
  102OSM   H12G10299   6.567   0.777   5.205 -1.9744  2.4524 -0.1080
  102OSM   C13F10300   6.374   0.828   5.266 -0.1103  0.1995  1.0339
  102OSM   H13F10301   6.387   0.899   5.351 -1.2738  1.2362  0.3783
  102OSM   H13G10302   6.281   0.780   5.300  0.2873 -2.3526 -1.1299
  102OSM   C14F10303   6.354   0.910   5.137  0.0614 -0.5020 -0.2328
  102OSM   H14F10304   6.316   0.845   5.055  0.8244 -0.9953 -0.1988
  102OSM   H14G10305   6.440   0.972   5.105 -1.3122  0.8107 -1.5830
  102OSM   C15F10306   6.249   1.026   5.158  0.4919 -0.1199  0.0812
  102OSM   H15F10307   6.285   1.074   5.251 -0.5696 -0.4992  0.7166
  102OSM   H15G10308   6.149   0.984   5.184 -0.4649  2.2177  0.4588
  102OSM   C16F10309   6.233   1.133   5.056 -0.1011 -0.0898 -1.1134
  102OSM   H16F10310   6.178   1.078   4.977 -0.3347 -2.2186  0.4326
  102OSM   H16G10311   6.333   1.176   5.033  0.7780 -1.5573 -0.2133
  102OSM   C17F10312   6.152   1.247   5.107  0.0861  0.4244 -0.2628
  102OSM   H17F10313   6.186   1.258   5.212  1.0256 -2.5747 -0.1551
  102OSM   H17G10314   6.049   1.206   5.097  0.9834 -2.5159  1.3565
  102OSM   C18F10315   6.159   1.388   5.038 -0.5820  0.0378 -0.1515
  102OSM   H18F10316   6.108   1.399   4.940  0.9649  1.6379 -0.8253
  102OSM   H18G10317   6.265   1.415   5.022 -0.6681  0.4132 -0.1158
  102OSM   H18H10318   6.116   1.467   5.104 -0.9217  1.3363 -1.8750
  103OSM      N10319   4.498   5.229   7.513  0.3093  0.2389  0.0202
  103OSM    C1510320   4.436   5.352   7.576  0.2279 -0.0310  0.4410
  103OSM   H15A10321   4.507   5.405   7.638  1.6554 -1.3258 -0.0377
  103OSM   H15B10322   4.345   5.336   7.632  0.2496  1.6268  0.9988
  103OSM   H15C10323   4.407   5.419   7.497 -0.1895 -0.4141  0.2650
  103OSM    C1410324   4.572   5.158   7.624  0.6027 -0.2331  0.3367
  103OSM   H14A10325   4.629   5.074   7.587  0.5374  0.2937 -0.9958
  103OSM   H14B10326   4.512   5.122   7.707 -0.1507  0.0667 -0.0722
  103OSM   H14C10327   4.629   5.232   7.679  1.2292 -1.5417  1.5259
  103OSM    C1310328   4.387   5.140   7.461 -0.3923 -0.1258 -0.5550
  103OSM   H13A10329   4.321   5.094   7.533 -3.2107  1.2854 -2.0336
  103OSM   H13B10330   4.429   5.064   7.397 -0.8323 -1.1898  0.3787
  103OSM   H13C10331   4.321   5.199   7.399  0.4033 -0.0423 -1.3449
  103OSM    C1210332   4.586   5.269   7.400  0.3670  0.1408  0.4026
  103OSM   H12A10333   4.616   5.183   7.342 -0.4014 -0.2495  0.5726
  103OSM   H12B10334   4.684   5.298   7.436  0.6610 -1.5509  1.0464
  103OSM    C1110335   4.537   5.374   7.296  0.0972  0.0883 -0.5020
  103OSM   H11A10336   4.440   5.330   7.264  0.3221 -2.7894  2.2505
  103OSM   H11B10337   4.611   5.380   7.214 -1.0433 -1.1720 -1.6942
  103OSM      P10338   4.431   5.609   7.311 -0.0764 -0.4084  0.0506
  103OSM    O1310339   4.318   5.600   7.412 -0.2945 -0.1796  0.0860
  103OSM    O1410340   4.497   5.739   7.304 -0.0419  0.2479  0.0525
  103OSM    O1110341   4.369   5.569   7.168  0.1300  0.1487 -0.2364
  103OSM    O1210342   4.535   5.499   7.356 -0.1473 -0.1436  0.1190
  103OSM    C1S10343   4.468   5.588   7.054  0.7459  0.7899  0.1348
  103OSM    H1S10344   4.561   5.529   7.066  0.1682 -0.4638 -1.2482
  103OSM    H1T10345   4.496   5.696   7.046  2.9325  0.2794  0.3402
  103OSM     NF10346   4.486   5.606   6.807  0.5218  0.2747  0.1298
  103OSM    HNF10347   4.447   5.679   6.752 -1.6951  0.3740  1.7151
  103OSM    C2S10348   4.404   5.548   6.915 -0.4101  0.9734 -0.0421
  103OSM    H2S10349   4.410   5.437   6.903  1.2201  1.1832 -1.4839
  103OSM    C3S10350   4.254   5.584   6.899  0.5058  0.0030 -0.3430
  103OSM    H3S10351   4.246   5.692   6.921  1.2755 -0.3559  1.9211
  103OSM     O310352   4.173   5.531   7.000  0.3430  0.5674  0.0458
  103OSM    HO310353   4.239   5.504   7.064 -1.1122 -1.8931  0.6524
  103OSM    C4S10354   4.204   5.548   6.758 -0.0768 -0.8743 -0.6099
  103OSM    H4S10355   4.227   5.634   6.694  1.7831 -0.1852  0.9126
  103OSM    C5S10356   4.179   5.429   6.706 -0.4578  0.4307  0.4332
  103OSM    H5S10357   4.180   5.344   6.776  1.2220 -0.5583 -0.7189
  103OSM    C6S10358   4.147   5.395   6.557  0.0092  0.6014  0.1957
  103OSM    H6S10359   4.041   5.363   6.549 -0.4723  2.5852 -3.1775
  103OSM    H6T10360   4.211   5.311   6.523  0.2635  0.8770 -0.0084
  103OSM    C7S10361   4.163   5.502   6.451  0.2947 -0.0621  0.0673
  103OSM    H7S10362   4.253   5.565   6.469 -0.2770  0.7885 -0.0253
  103OSM    H7T10363   4.091   5.585   6.460  2.7245  2.0843  0.9910
  103OSM    C8S10364   4.161   5.437   6.307 -0.4892 -0.2449 -0.6581
  103OSM    H8S10365   4.065   5.386   6.283  0.5013 -1.5914 -1.9844
  103OSM    H8T10366   4.223   5.345   6.309 -0.4215 -0.2173 -1.2025
  103OSM    C9S10367   4.203   5.527   6.188 -0.1799  0.1544  0.4792
  103OSM    H9S10368   4.294   5.584   6.218 -1.7814  3.2652 -0.1035
  103OSM    H9T10369   4.127   5.608   6.186  1.1355  1.4728  1.2230
  103OSM   C10S10370   4.231   5.456   6.054 -0.6326  0.5890 -0.5698
  103OSM   H10S10371   4.139   5.408   6.012  1.3739 -4.0717 -0.2639
  103OSM   H10T10372   4.293   5.365   6.072 -0.2474  0.4759 -2.2561
  103OSM   C11S10373   4.288   5.542   5.945 -0.4972  0.0739 -0.3656
  103OSM   H11S10374   4.373   5.603   5.982 -0.4253  0.7962 -1.6978
  103OSM   H11T10375   4.211   5.618   5.920 -1.6289 -0.3349  1.6606
  103OSM   C12S10376   4.349   5.466   5.828 -0.1048  0.0723 -0.4697
  103OSM   H12S10377   4.403   5.378   5.870  0.8237 -0.0034 -1.7461
  103OSM   H12T10378   4.431   5.526   5.783  0.6536 -1.8426 -1.8208
  103OSM   C13S10379   4.258   5.407   5.725 -0.1645  0.5247  0.2707
  103OSM   H13S10380   4.193   5.491   5.695 -0.0010  1.0783  1.3983
  103OSM   H13T10381   4.196   5.325   5.767  0.2718 -0.5989 -1.1759
  103OSM   C14S10382   4.328   5.358   5.597 -0.5333 -0.1829 -0.7439
  103OSM   H14S10383   4.376   5.265   5.635 -2.6282 -0.4869  1.3593
  103OSM   H14T10384   4.404   5.429   5.558 -1.2296  0.3433 -1.1655
  103OSM   C15S10385   4.240   5.327   5.485  0.5935  0.4969 -0.5717
  103OSM   H15S10386   4.183   5.420   5.468 -0.4213 -0.5229 -3.5836
  103OSM   H15T10387   4.172   5.245   5.517  3.1070 -1.2391  0.6803
  103OSM   C16S10388   4.317   5.282   5.361 -0.1515  0.5715 -0.4291
  103OSM   H16S10389   4.370   5.185   5.368 -0.4900  0.4099 -0.0446
  103OSM   H16T10390   4.400   5.355   5.346  1.6666 -1.1912  0.6377
  103OSM   C17S10391   4.226   5.279   5.237  0.2641  0.0903 -0.3078
  103OSM   H17S10392   4.167   5.185   5.244  0.0904  0.2875  0.9364
  103OSM   H17T10393   4.285   5.267   5.143 -1.3414  1.0386 -1.4771
  103OSM   C18S10394   4.130   5.403   5.214  0.6399  0.5051  0.3951
  103OSM   H18S10395   4.180   5.503   5.205  1.7030  0.0277  0.7980
  103OSM   H18T10396   4.060   5.409   5.300 -0.6350 -0.3975 -0.5561
  103OSM   H18U10397   4.061   5.386   5.129  0.6273 -2.9696  0.9488
  103OSM    C1F10398   4.608   5.571   6.781 -0.0595  0.0449 -0.7063
  103OSM     OF10399   4.667   5.480   6.842  0.0292 -0.5424  0.0128
  103OSM    C2F10400   4.681   5.654   6.680 -0.1890  0.2341  0.3378
  103OSM    H2F10401   4.746   5.726   6.733  0.3190  0.8524 -1.0752
  103OSM    H2G10402   4.605   5.716   6.627 -0.3408 -1.0388 -1.0131
  103OSM    C3F10403   4.752   5.574   6.573 -0.6184 -0.8568  0.5308
  103OSM    H3F10404   4.704   5.474   6.568  2.6917 -2.5423 -0.6443
  103OSM    H3G10405   4.852   5.549   6.613  0.2730  0.0495 -1.0363
  103OSM    C4F10406   4.762   5.623   6.431 -0.0443  0.8648  0.2330
  103OSM    H4F10407   4.802   5.542   6.367 -1.5638  2.4148 -2.8595
  103OSM    H4G10408   4.832   5.708   6.418  1.6722 -0.4296  0.6486
  103OSM    C5F10409   4.624   5.650   6.364 -0.5749 -0.7601  0.4110
  103OSM    H5F10410   4.577   5.736   6.417 -0.6431 -1.3146  1.2733
  103OSM    H5G10411   4.562   5.559   6.381 -1.1871 -0.5261 -0.4713
  103OSM    C6F10412   4.627   5.682   6.211 -0.6971  0.5843  0.1783
  103OSM    H6F10413   4.524   5.705   6.178 -0.9559  0.3579  0.8116
  103OSM    H6G10414   4.668   5.593   6.158 -3.4800  0.1799 -1.4465
  103OSM    C7F10415   4.717   5.794   6.175 -0.7314 -0.3045 -1.1044
  103OSM    H7F10416   4.823   5.763   6.181 -0.3426  1.1888  2.5168
  103OSM    H7G10417   4.715   5.872   6.254 -1.2452 -1.2601 -0.1546
  103OSM    C8F10418   4.694   5.861   6.044  0.3849  0.2406  0.4247
  103OSM    H8F10419   4.775   5.932   6.016 -0.1690  0.5808 -0.3714
  103OSM    H8G10420   4.603   5.922   6.059  0.2255 -0.0706  0.7272
  103OSM    C9F10421   4.685   5.757   5.935  0.2606  0.0087 -0.4068
  103OSM    H9F10422   4.776   5.695   5.928  0.9878  1.1220 -1.0632
  103OSM   C10F10423   4.596   5.738   5.836  0.2277 -0.5663 -0.2780
  103OSM   H10F10424   4.600   5.647   5.775  0.3035  0.2503 -1.5255
  103OSM   C11F10425   4.478   5.831   5.813  0.2198  0.5431 -0.2599
  103OSM   H11F10426   4.506   5.926   5.863  2.6240 -0.1817 -0.0840
  103OSM   H11G10427   4.381   5.795   5.854  1.3796 -1.1013  1.1498
  103OSM   C12F10428   4.460   5.876   5.667  0.1187 -0.2031  0.3794
  103OSM   H12F10429   4.553   5.924   5.631 -0.5581  1.3260  0.5649
  103OSM   H12G10430   4.388   5.959   5.685  0.3879 -0.4817  3.0219
  103OSM   C13F10431   4.418   5.770   5.569  0.3508 -0.5971  0.1944
  103OSM   H13F10432   4.320   5.733   5.605  0.5197 -0.3083  0.9819
  103OSM   H13G10433   4.484   5.681   5.578 -1.7412 -2.1248  1.2738
  103OSM   C14F10434   4.404   5.822   5.431  0.2263  0.1637  0.3510
  103OSM   H14F10435   4.492   5.885   5.410 -0.7550  0.5740 -3.0047
  103OSM   H14G10436   4.320   5.893   5.414  1.4368  1.7122  0.6188
  103OSM   C15F10437   4.408   5.712   5.322 -0.2274 -1.1637 -0.2984
  103OSM   H15F10438   4.308   5.663   5.326  0.5807 -3.0592 -1.9932
  103OSM   H15G10439   4.495   5.647   5.342  1.1913  0.8442  0.4151
  103OSM   C16F10440   4.425   5.770   5.176 -0.8642  0.1450  0.6146
  103OSM   H16F10441   4.529   5.810   5.179  0.4393 -2.8696 -0.0642
  103OSM   H16G10442   4.346   5.841   5.145 -1.5808 -1.4377 -1.3968
  103OSM   C17F10443   4.420   5.657   5.065  0.2268 -0.6044 -1.0609
  103OSM   H17F10444   4.320   5.642   5.018 -0.0022  0.0335 -0.7877
  103OSM   H17G10445   4.443   5.570   5.130 -1.1970 -0.2954 -0.1005
  103OSM   C18F10446   4.530   5.659   4.956 -0.0758 -0.0661  0.4535
  103OSM   H18F10447   4.508   5.746   4.891 -0.3748  0.7129  1.5809
  103OSM   H18G10448   4.536   5.560   4.904 -0.5047 -0.8658  1.8637
  103OSM   H18H10449   4.623   5.683   5.011  0.0809 -0.6784  0.4735
  104OSM      N10450   5.794   1.625   7.060  0.5266 -1.0022  0.3187
  104OSM    C1510451   5.758   1.488   7.023  0.4056  0.8332  0.2986
  104OSM   H15A10452   5.833   1.425   7.069  0.9501  1.3447  0.1321
  104OSM   H15B10453   5.761   1.475   6.916  1.4311 -2.1639  0.6117
  104OSM   H15C10454   5.659   1.473   7.063  0.0575  0.0044 -0.8290
  104OSM    C1410455   5.670   1.712   7.028 -0.7113  0.2083  0.2695
  104OSM   H14A10456   5.685   1.813   7.065  2.3181 -0.2141  0.4253
  104OSM   H14B10457   5.584   1.669   7.077  0.5581 -3.9762 -0.7781
  104OSM   H14C10458   5.648   1.709   6.923  1.0946  0.5774 -0.1518
  104OSM    C1310459   5.808   1.635   7.208  0.5269 -0.5241 -0.4252
  104OSM   H13A10460   5.891   1.573   7.238  1.0714 -0.1728 -1.1552
  104OSM   H13B10461   5.717   1.606   7.257  1.8513 -1.4598  1.5800
  104OSM   H13C10462   5.824   1.737   7.239 -1.7976 -1.0968  3.2414
  104OSM    C1210463   5.918   1.681   6.998  0.1504 -0.0099  0.2602
  104OSM   H12A10464   6.005   1.622   7.022 -1.3537 -2.2291  0.6030
  104OSM   H12B10465   5.940   1.776   7.043  0.4161 -0.0365  0.1898
  104OSM    C1110466   5.918   1.692   6.843 -0.2976  0.3564  0.2319
  104OSM   H11A10467   6.008   1.743   6.801 -0.2763 -0.0185 -0.1874
  104OSM   H11B10468   5.829   1.752   6.815 -0.1525  1.6608  2.3560
  104OSM      P10469   6.042   1.472   6.777  0.2555 -0.2342  0.0375
  104OSM    O1310470   6.126   1.516   6.887 -0.3309 -0.7046  0.0698
  104OSM    O1410471   6.014   1.327   6.768 -0.1235 -0.0200 -0.1370
  104OSM    O1110472   6.103   1.514   6.640  0.3687 -0.5443  0.2026
  104OSM    O1210473   5.912   1.563   6.789 -0.9515 -0.4319  0.2794
  104OSM    C1S10474   6.244   1.554   6.632 -0.0682  0.2304  0.2587
  104OSM    H1S10475   6.306   1.466   6.660 -0.6446 -0.8107 -1.5510
  104OSM    H1T10476   6.272   1.638   6.698  1.2834 -0.6458  0.8556
  104OSM     NF10477   6.402   1.649   6.469 -0.0219  0.0939  0.6936
  104OSM    HNF10478   6.402   1.748   6.463 -1.2074  0.0284 -1.9824
  104OSM    C2S10479   6.275   1.597   6.479 -0.5137  0.0236 -1.0157
  104OSM    H2S10480   6.272   1.507   6.413  0.3743 -0.2403 -0.7025
  104OSM    C3S10481   6.171   1.694   6.413 -0.4756 -0.1336 -1.4753
  104OSM    H3S10482   6.202   1.795   6.449 -0.1967 -1.0528  1.1288
  104OSM     O310483   6.034   1.695   6.458  0.5823  0.0094 -0.5633
  104OSM    HO310484   6.043   1.632   6.529 -0.3223  0.8323  0.3067
  104OSM    C4S10485   6.188   1.694   6.265  0.2249  0.1584 -0.2458
  104OSM    H4S10486   6.264   1.763   6.226  0.4555 -0.1238 -0.2911
  104OSM    C5S10487   6.128   1.621   6.173  0.5202 -0.2502 -0.5354
  104OSM    H5S10488   6.042   1.558   6.202 -0.4791 -0.4297 -3.5385
  104OSM    C6S10489   6.166   1.649   6.021  0.5580  0.5699 -0.2344
  104OSM    H6S10490   6.205   1.550   5.991  1.8720  0.9754  0.0535
  104OSM    H6T10491   6.246   1.723   5.998 -0.2509  1.6619  0.3774
  104OSM    C7S10492   6.050   1.675   5.930  0.6335 -0.0416  0.1874
  104OSM    H7S10493   5.997   1.765   5.968  0.3961  0.8796 -2.1463
  104OSM    H7T10494   5.968   1.600   5.935 -0.6639  1.0902 -2.1691
  104OSM    C8S10495   6.081   1.704   5.781 -0.0673  0.0188  0.3746
  104OSM    H8S10496   6.174   1.653   5.750 -1.6756 -4.2372  1.9235
  104OSM    H8T10497   6.121   1.807   5.766  0.8184 -0.1356  1.5341
  104OSM    C9S10498   5.968   1.678   5.682  0.0051  0.0498 -0.2153
  104OSM    H9S10499   5.874   1.715   5.728 -0.1663  1.1719 -1.3930
  104OSM    H9T10500   5.966   1.568   5.665  1.3475  0.0120 -0.2294
  104OSM   C10S10501   5.995   1.749   5.546  0.3189  0.3566  0.3217
  104OSM   H10S10502   5.993   1.859   5.562  2.3487  0.4438  0.2157
  104OSM   H10T10503   5.931   1.715   5.462 -0.9913 -3.2401  2.5500
  104OSM   C11S10504   6.139   1.733   5.485 -0.2653  0.4450  0.1099
  104OSM   H11S10505   6.171   1.627   5.491 -0.7908  0.0991 -2.3398
  104OSM   H11T10506   6.206   1.790   5.553  0.5673  0.3906 -0.6475
  104OSM   C12S10507   6.131   1.782   5.335 -0.1433  0.5732  0.2821
  104OSM   H12S10508   6.117   1.892   5.345 -1.3617  0.3388  1.3834
  104OSM   H12T10509   6.038   1.737   5.294 -0.3288 -0.0695  1.3825
  104OSM   C13S10510   6.256   1.750   5.265  0.7618 -0.1690  0.5100
  104OSM   H13S10511   6.267   1.640   5.268 -0.0899 -0.4059 -2.1096
  104OSM   H13T10512   6.347   1.784   5.319  1.1478 -0.8957  0.3293
  104OSM   C14S10513   6.265   1.789   5.116 -0.4468  0.5649 -0.6926
  104OSM   H14S10514   6.245   1.897   5.094 -1.1946  1.0242  1.9259
  104OSM   H14T10515   6.187   1.728   5.066  0.1994 -0.4397 -0.5037
  104OSM   C15S10516   6.393   1.751   5.042 -0.4359 -0.4901  0.4177
  104OSM   H15S10517   6.425   1.646   5.059  0.5240 -0.3158 -0.2288
  104OSM   H15T10518   6.469   1.820   5.085  0.3763 -3.0870  3.5611
  104OSM   C16S10519   6.381   1.772   4.890 -0.3650  0.2333 -0.1311
  104OSM   H16S10520   6.481   1.744   4.851 -1.0920 -1.5914 -0.7739
  104OSM   H16T10521   6.367   1.880   4.868  2.0970  0.2550 -1.8522
  104OSM   C17S10522   6.275   1.696   4.811 -0.1014 -0.5525  0.0613
  104OSM   H17S10523   6.179   1.744   4.837 -0.5160 -1.7078  0.7244
  104OSM   H17T10524   6.267   1.590   4.845 -0.5749  0.0702  2.0269
  104OSM   C18S10525   6.306   1.696   4.660  0.2761 -0.1397 -0.7475
  104OSM   H18S10526   6.228   1.651   4.595 -0.6783  0.3362  0.0318
  104OSM   H18T10527   6.409   1.664   4.636  0.8296  0.3144  0.8951
  104OSM   H18U10528   6.309   1.805   4.638 -0.6059  0.2511  0.8979
  104OSM    C1F10529   6.510   1.573   6.471  0.2120 -0.2316  0.1060
  104OSM     OF10530   6.507   1.454   6.501  0.7314 -0.5777 -0.1520
  104OSM    C2F10531   6.643   1.637   6.434  0.9036  0.6588 -0.0470
  104OSM    H2F10532   6.718   1.595   6.504  0.6395 -1.0056 -0.6975
  104OSM    H2G10533   6.653   1.745   6.457  1.2674  0.6683 -0.2387
  104OSM    C3F10534   6.695   1.614   6.287 -0.0747 -0.4405 -0.7015
  104OSM    H3F10535   6.714   1.505   6.283  0.2778 -0.5050  1.4613
  104OSM    H3G10536   6.799   1.651   6.282 -1.2708  3.3118 -0.6876
  104OSM    C4F10537   6.604   1.664   6.175 -1.0114  0.6273  0.4231
  104OSM    H4F10538   6.608   1.774   6.161 -0.7126  0.6577  0.7229
  104OSM    H4G10539   6.500   1.633   6.198 -1.3939  1.4046 -0.2165
  104OSM    C5F10540   6.659   1.609   6.043 -0.0393 -0.5006  1.0422
  104OSM    H5F10541   6.699   1.506   6.054  1.7145 -0.1011 -1.0000
  104OSM    H5G10542   6.743   1.667   6.000  0.0594 -3.4101 -3.3628
  104OSM    C6F10543   6.557   1.629   5.930 -0.1014 -0.1208 -0.2852
  104OSM    H6F10544   6.539   1.739   5.931  1.6655  0.1945  0.5603
  104OSM    H6G10545   6.461   1.576   5.951  0.1091 -0.1604  0.6209
  104OSM    C7F10546   6.604   1.607   5.787  0.1076 -0.2329 -0.2145
  104OSM    H7F10547   6.602   1.498   5.763  0.3112  0.1336 -2.0272
  104OSM    H7G10548   6.704   1.646   5.758  0.3407 -0.0935  0.7647
  104OSM    C8F10549   6.503   1.678   5.686 -0.7550  0.2356 -0.0031
  104OSM    H8F10550   6.475   1.781   5.715 -1.4353  0.3912 -1.1619
  104OSM    H8G10551   6.412   1.615   5.693  0.2535 -1.1220  2.2602
  104OSM    C9F10552   6.551   1.682   5.544 -0.1931 -0.0780  0.6017
  104OSM    H9F10553   6.619   1.766   5.525 -0.4628 -0.4369 -2.5814
  104OSM   C10F10554   6.533   1.599   5.443 -0.5979 -1.2077 -0.4439
  104OSM   H10F10555   6.583   1.626   5.349 -0.5672  0.2015 -0.0386
  104OSM   C11F10556   6.437   1.480   5.451 -0.4272  0.2791  0.7558
  104OSM   H11F10557   6.338   1.513   5.412 -0.2457  2.0745  1.7123
  104OSM   H11G10558   6.430   1.459   5.560 -1.2589  1.1646  0.8878
  104OSM   C12F10559   6.472   1.349   5.376 -0.5503 -0.2502  0.1131
  104OSM   H12F10560   6.509   1.365   5.272  0.6796  0.7509  0.6756
  104OSM   H12G10561   6.380   1.288   5.371  0.3777 -1.8177  1.1027
  104OSM   C13F10562   6.580   1.266   5.458 -0.2930 -0.2115 -0.5149
  104OSM   H13F10563   6.547   1.250   5.563 -0.7819  0.7586 -0.5123
  104OSM   H13G10564   6.679   1.314   5.449 -0.4362  0.3629  0.7987
  104OSM   C14F10565   6.587   1.129   5.405  1.3430 -0.4530 -0.2531
  104OSM   H14F10566   6.494   1.070   5.419 -0.3332  1.9476 -0.5856
  104OSM   H14G10567   6.666   1.074   5.460  0.1213  0.7824  2.9924
  104OSM   C15F10568   6.622   1.132   5.252 -0.9374 -0.5589  0.2332
  104OSM   H15F10569   6.537   1.172   5.192 -0.4878 -1.3820 -0.9913
  104OSM   H15G10570   6.631   1.026   5.219 -0.5647  0.1265 -2.0523
  104OSM   C16F10571   6.770   1.187   5.220  0.0372 -0.0617  0.6846
  104OSM   H16F10572   6.823   1.152   5.311  0.8583  1.3014  0.7563
  104OSM   H16G10573   6.764   1.298   5.220 -1.4626 -0.0482 -1.9349
  104OSM   C17F10574   6.832   1.129   5.090  0.5303  0.1391 -0.3738
  104OSM   H17F10575   6.761   1.156   5.008 -2.2886 -1.7750  1.2435
  104OSM   H17G10576   6.821   1.019   5.098  0.1123  0.3257  2.5058
  104OSM   C18F10577   6.981   1.154   5.063 -0.2688  0.4718  0.1155
  104OSM   H18F10578   7.042   1.138   5.154 -0.4226 -0.9277  0.0064
  104OSM   H18G10579   6.987   1.261   5.034 -2.8557  1.3015  2.2349
  104OSM   H18H10580   7.014   1.098   4.972 -1.2056 -0.4103  0.2977
  105OSM      N10581   6.622   5.299   7.434 -0.0559 -0.2192  0.2471
  105OSM    C1510582   6.573   5.441   7.432  0.5224 -0.3457  0.5673
  105OSM   H15A10583   6.559   5.485   7.530  0.5897  0.1248  0.3643
  105OSM   H15B10584   6.488   5.461   7.369  1.2386 -0.5967 -0.4882
  105OSM   H15C10585   6.642   5.510   7.387  1.7798 -3.7535 -3.2858
  105OSM    C1410586   6.753   5.299   7.503  0.0590  0.0793 -0.2668
  105OSM   H14A10587   6.741   5.326   7.607 -0.6255  0.4900 -0.4485
  105OSM   H14B10588   6.834   5.344   7.446 -1.5872 -1.4970 -4.1765
  105OSM   H14C10589   6.791   5.198   7.514 -2.6142 -1.1025 -1.1300
  105OSM    C1310590   6.531   5.203   7.503 -0.0499 -0.2451  0.3890
  105OSM   H13A10591   6.571   5.103   7.494 -2.4563 -1.1605 -0.9674
  105OSM   H13B10592   6.426   5.208   7.482 -0.7147 -0.3352  3.2704
  105OSM   H13C10593   6.525   5.226   7.609 -2.2024  0.3780  0.1749
  105OSM    C1210594   6.638   5.249   7.294  0.3334 -0.1549  0.1208
  105OSM   H12A10595   6.548   5.201   7.258  1.5605 -3.1170  0.6745
  105OSM   H12B10596   6.709   5.167   7.293  0.1606 -0.3637  1.7437
  105OSM    C1110597   6.671   5.355   7.188 -0.1023 -0.4526  0.8429
  105OSM   H11A10598   6.587   5.423   7.159 -0.2101  0.7993  3.7248
  105OSM   H11B10599   6.696   5.289   7.102  0.9937  0.0634  0.7515
  105OSM      P10600   6.925   5.420   7.138 -0.1711 -0.1330 -0.0852
  105OSM    O1310601   7.027   5.511   7.201  0.4431  0.1807 -0.1330
  105OSM    O1410602   6.967   5.280   7.114  0.0528  0.2408  0.3981
  105OSM    O1110603   6.885   5.479   6.994 -0.4999  0.6883  0.1924
  105OSM    O1210604   6.786   5.438   7.216 -0.5255 -0.0665  0.1085
  105OSM    C1S10605   6.873   5.624   6.990  0.8377 -0.0233 -0.1758
  105OSM    H1S10606   6.974   5.664   7.011  1.1444 -1.2757  0.8762
  105OSM    H1T10607   6.800   5.664   7.064 -1.0283 -1.6422 -1.0367
  105OSM     NF10608   6.839   5.807   6.821 -0.4431 -0.0472  0.1496
  105OSM    HNF10609   6.767   5.875   6.814 -0.5094  0.0407  1.3841
  105OSM    C2S10610   6.807   5.668   6.855 -0.0490  0.1771 -0.8044
  105OSM    H2S10611   6.856   5.614   6.772 -0.9979 -0.0361 -1.2470
  105OSM    C3S10612   6.660   5.620   6.845  0.1330  0.1932  0.3267
  105OSM    H3S10613   6.603   5.679   6.919  0.6207  2.2994 -0.8929
  105OSM     O310614   6.638   5.479   6.872 -0.6736  0.1738  0.0633
  105OSM    HO310615   6.715   5.448   6.921 -1.8207 -2.2312  0.5126
  105OSM    C4S10616   6.609   5.651   6.704 -0.6068 -0.0993  0.7878
  105OSM    H4S10617   6.555   5.747   6.699  1.4530  1.0703 -1.3912
  105OSM    C5S10618   6.632   5.595   6.588 -0.4840  0.3945  0.0208
  105OSM    H5S10619   6.694   5.506   6.572  1.8148  1.6357  1.5607
  105OSM    C6S10620   6.574   5.665   6.467  0.1609 -0.3031 -0.1443
  105OSM    H6S10621   6.485   5.727   6.494  0.5285  0.4032 -0.5542
  105OSM    H6T10622   6.532   5.593   6.393  0.1090 -2.3135  1.7480
  105OSM    C7S10623   6.682   5.757   6.408  0.1457 -0.1639 -0.0517
  105OSM    H7S10624   6.775   5.702   6.383  0.5827 -0.0242  1.1992
  105OSM    H7T10625   6.713   5.832   6.484  0.7745 -0.2689 -0.1967
  105OSM    C8S10626   6.636   5.834   6.283  0.6325  0.0547  0.6216
  105OSM    H8S10627   6.719   5.891   6.236  0.8759 -1.0803 -0.3852
  105OSM    H8T10628   6.562   5.911   6.313  2.2509  1.7438  0.4607
  105OSM    C9S10629   6.580   5.735   6.184  0.0377  0.2674  0.3904
  105OSM    H9S10630   6.480   5.698   6.214 -0.3035  0.9966  0.1685
  105OSM    H9T10631   6.647   5.647   6.176 -0.4156 -0.0072 -0.4258
  105OSM   C10S10632   6.561   5.797   6.044 -0.3197 -0.3640  0.0729
  105OSM   H10S10633   6.660   5.837   6.012 -0.3245 -1.4125 -1.3089
  105OSM   H10T10634   6.498   5.888   6.055  1.6310  1.6831 -3.6077
  105OSM   C11S10635   6.512   5.694   5.943 -0.3953 -0.0604  0.2394
  105OSM   H11S10636   6.405   5.673   5.962 -0.3475 -0.8830 -0.3795
  105OSM   H11T10637   6.566   5.600   5.964 -0.1620  0.0112 -0.0379
  105OSM   C12S10638   6.536   5.754   5.800 -0.0298  0.6375  0.1109
  105OSM   H12S10639   6.646   5.755   5.787 -0.2079 -0.3145 -2.0931
  105OSM   H12T10640   6.481   5.850   5.799  0.4014  0.9800 -3.3498
  105OSM   C13S10641   6.476   5.653   5.683  0.2361  0.4228 -0.5768
  105OSM   H13S10642   6.374   5.621   5.714  0.7456 -0.3368  0.3747
  105OSM   H13T10643   6.530   5.557   5.669 -1.7280 -0.6286 -1.3535
  105OSM   C14S10644   6.469   5.727   5.544 -0.0868 -0.4528 -0.5328
  105OSM   H14S10645   6.555   5.797   5.541 -0.3197 -0.1674 -0.5556
  105OSM   H14T10646   6.375   5.786   5.543  0.3262  0.2269  0.1809
  105OSM   C15S10647   6.465   5.640   5.420  0.3620  0.0083  0.1095
  105OSM   H15S10648   6.374   5.576   5.416 -0.8042  1.5090  1.3246
  105OSM   H15T10649   6.548   5.566   5.418  1.9557  1.7408 -1.3213
  105OSM   C16S10650   6.482   5.716   5.287 -0.0699  0.4432 -0.1305
  105OSM   H16S10651   6.483   5.643   5.204 -1.0899  1.4161 -1.0257
  105OSM   H16T10652   6.584   5.760   5.288 -0.0224  0.4919 -2.4410
  105OSM   C17S10653   6.375   5.823   5.259 -0.3112  1.0547  0.0169
  105OSM   H17S10654   6.359   5.893   5.344 -1.0696  1.5178 -0.4925
  105OSM   H17T10655   6.281   5.766   5.245 -0.3225  1.3719 -1.3139
  105OSM   C18S10656   6.385   5.897   5.124 -0.3112  0.2395  0.0553
  105OSM   H18S10657   6.296   5.963   5.118 -0.1855  0.4215  0.1755
  105OSM   H18T10658   6.403   5.830   5.038 -1.1198  0.2400 -0.1116
  105OSM   H18U10659   6.464   5.976   5.130 -0.9889  1.0487 -1.3815
  105OSM    C1F10660   6.965   5.860   6.819 -0.2626  0.4423  0.2390
  105OSM     OF10661   7.062   5.786   6.817 -0.1393 -0.2926 -0.6854
  105OSM    C2F10662   6.971   6.011   6.818 -0.2062 -0.2222  0.0576
  105OSM    H2F10663   7.061   6.048   6.871 -0.2985 -0.9948  0.7793
  105OSM    H2G10664   6.883   6.063   6.862  0.6821  1.1965  0.1944
  105OSM    C3F10665   6.989   6.066   6.677 -0.3574  0.3447 -0.2706
  105OSM    H3F10666   7.013   6.173   6.691 -0.5004  0.2272  0.9169
  105OSM    H3G10667   6.897   6.049   6.617  1.2851 -2.8631 -2.1878
  105OSM    C4F10668   7.106   6.010   6.604 -0.5968 -0.7353  0.4067
  105OSM    H4F10669   7.113   5.900   6.597  2.1384 -0.5518 -1.1985
  105OSM    H4G10670   7.200   6.045   6.652 -0.5749 -1.0231  0.5744
  105OSM    C5F10671   7.119   6.047   6.454 -0.2551  0.3994  0.2958
  105OSM    H5F10672   7.222   6.059   6.415 -0.7326  1.2665 -0.7528
  105OSM    H5G10673   7.068   6.145   6.449 -0.4335  0.2589 -1.0970
  105OSM    C6F10674   7.044   5.952   6.359  0.1001  0.3335  0.1223
  105OSM    H6F10675   6.949   5.913   6.401 -0.3798  1.6854  0.3637
  105OSM    H6G10676   7.116   5.868   6.364  0.1026  0.2887 -0.5662
  105OSM    C7F10677   7.044   6.014   6.213 -0.3026  0.0583 -0.1472
  105OSM    H7F10678   7.152   6.026   6.191 -0.6430 -0.1453 -2.1524
  105OSM    H7G10679   6.993   6.112   6.206  1.1176  0.8193 -0.3106
  105OSM    C8F10680   6.994   5.915   6.101 -0.4588 -0.2373 -0.4445
  105OSM    H8F10681   6.990   5.976   6.008  3.0346 -0.4804 -0.8867
  105OSM    H8G10682   6.889   5.892   6.130 -0.9418  0.7564 -1.3312
  105OSM    C9F10683   7.072   5.788   6.079 -0.0756 -0.3806  0.2566
  105OSM    H9F10684   7.085   5.725   6.169  0.3516  1.1809  1.3174
  105OSM   C10F10685   7.115   5.750   5.958  0.4050  0.6318 -0.2390
  105OSM   H10F10686   7.168   5.654   5.961  0.0075  0.4133 -0.1427
  105OSM   C11F10687   7.101   5.821   5.826 -0.1429 -0.0925  0.7578
  105OSM   H11F10688   7.200   5.819   5.775 -0.4149 -0.2293  0.2239
  105OSM   H11G10689   7.069   5.926   5.837  0.1561  0.3769 -2.1540
  105OSM   C12F10690   6.990   5.757   5.734  0.2776  0.5854 -0.6813
  105OSM   H12F10691   6.892   5.772   5.783  0.0910 -0.9953 -0.5042
  105OSM   H12G10692   7.001   5.646   5.730  1.9084  0.6777  0.3462
  105OSM   C13F10693   6.990   5.821   5.601  0.3681 -0.1176  0.2203
  105OSM   H13F10694   7.089   5.796   5.557  0.7129  1.0499  0.3119
  105OSM   H13G10695   6.982   5.931   5.608 -3.9595 -0.2659  0.6458
  105OSM   C14F10696   6.864   5.779   5.528 -0.9961  0.3404 -0.7125
  105OSM   H14F10697   6.784   5.826   5.590  0.7359  1.1210  1.0122
  105OSM   H14G10698   6.868   5.668   5.536  0.1572  0.4844  1.2343
  105OSM   C15F10699   6.848   5.827   5.383  0.3314  0.2797 -0.5183
  105OSM   H15F10700   6.822   5.935   5.380  1.4682  0.6480  1.2753
  105OSM   H15G10701   6.777   5.761   5.329 -2.5016  0.9620  2.1011
  105OSM   C16F10702   6.983   5.818   5.304  0.8314 -0.8526 -1.0168
  105OSM   H16F10703   7.029   5.718   5.324 -0.9143 -1.4700  0.2001
  105OSM   H16G10704   7.047   5.903   5.335 -0.2152 -0.5443  0.3896
  105OSM   C17F10705   6.972   5.831   5.158  0.7371 -0.0014  1.0669
  105OSM   H17F10706   6.880   5.877   5.117  0.2367 -2.2348 -0.4882
  105OSM   H17G10707   6.964   5.729   5.115 -2.1386  1.0244 -1.1854
  105OSM   C18F10708   7.100   5.891   5.092 -0.2429 -0.2844  0.2430
  105OSM   H18F10709   7.075   5.923   4.988 -1.4779  0.9065  0.8749
  105OSM   H18G10710   7.187   5.822   5.099  1.0880  1.4665  2.5604
  105OSM   H18H10711   7.121   5.977   5.159 -1.1569  1.3387 -1.4454
  106OSM      N10712   3.414   5.636   7.595 -0.0429 -0.3302 -0.8414
  106OSM    C1510713   3.363   5.772   7.572  0.2412  0.2241 -0.3137
  106OSM   H15A10714   3.263   5.780   7.532  0.2167  3.5618  0.0866
  106OSM   H15B10715   3.429   5.814   7.497  0.6345  0.4317  0.1404
  106OSM   H15C10716   3.362   5.833   7.661 -1.7205  1.3496 -1.0446
  106OSM    C1410717   3.549   5.649   7.666  0.4562 -0.3176  0.9150
  106OSM   H14A10718   3.616   5.690   7.591  0.0010  0.8617  1.1193
  106OSM   H14B10719   3.575   5.546   7.684  0.0986 -0.9900 -2.0211
  106OSM   H14C10720   3.557   5.705   7.759  0.6540  0.4527  0.4433
  106OSM    C1310721   3.318   5.560   7.687  0.3357 -0.2175 -0.0859
  106OSM   H13A10722   3.330   5.593   7.789 -1.0475  1.7546 -0.4941
  106OSM   H13B10723   3.346   5.456   7.682  0.6417 -0.0799 -1.7925
  106OSM   H13C10724   3.216   5.578   7.656  0.1578 -0.6579  0.2325
  106OSM    C1210725   3.442   5.566   7.462  0.6996  0.7288  0.5132
  106OSM   H12A10726   3.497   5.632   7.398  1.4876 -0.5724 -0.1985
  106OSM   H12B10727   3.346   5.555   7.413 -0.2482 -1.8905  2.6789
  106OSM    C1110728   3.504   5.430   7.464 -0.4673  0.5328  1.0102
  106OSM   H11A10729   3.610   5.449   7.487  0.0060 -0.7988  0.0698
  106OSM   H11B10730   3.507   5.389   7.361 -0.4533  1.8110  0.4830
  106OSM      P10731   3.404   5.202   7.537 -0.2955 -0.2708 -0.2685
  106OSM    O1310732   3.496   5.109   7.601  0.2213 -0.1908 -0.2880
  106OSM    O1410733   3.257   5.194   7.570 -0.5269  0.0870 -0.3751
  106OSM    O1110734   3.426   5.191   7.380  0.5501 -0.3555  0.2391
  106OSM    O1210735   3.448   5.347   7.564 -0.0554 -0.0353  0.5452
  106OSM    C1S10736   3.314   5.225   7.295 -0.4824  0.4674  0.1469
  106OSM    H1S10737   3.288   5.333   7.296  1.0506  0.8837  2.1742
  106OSM    H1T10738   3.223   5.170   7.325 -0.5172  1.6942  2.5763
  106OSM     NF10739   3.255   5.253   7.055  0.0246 -0.2403  0.0768
  106OSM    HNF10740   3.174   5.197   7.042 -0.9903  0.7191  1.9377
  106OSM    C2S10741   3.351   5.187   7.147 -0.1108  0.2114 -0.2682
  106OSM    H2S10742   3.450   5.233   7.131 -0.6618  1.7882  0.6498
  106OSM    C3S10743   3.367   5.032   7.136  0.0851  0.3880 -0.3572
  106OSM    H3S10744   3.262   4.996   7.146  0.1909 -0.7778 -2.7785
  106OSM     O310745   3.443   4.970   7.235 -0.4157 -0.0855 -0.0188
  106OSM    HO310746   3.467   5.050   7.282 -2.1896  1.0141 -0.9023
  106OSM    C4S10747   3.406   4.987   6.998  0.6380  0.3477  0.0146
  106OSM    H4S10748   3.323   4.994   6.927 -1.4124 -0.2191  2.2001
  106OSM    C5S10749   3.525   4.947   6.951  0.5420 -0.3238  0.2923
  106OSM    H5S10750   3.601   4.946   7.031 -1.7949  2.8739  2.8347
  106OSM    C6S10751   3.551   4.923   6.804 -0.1253 -0.6466 -0.4265
  106OSM    H6S10752   3.634   4.986   6.767  0.3571 -2.1144 -2.0054
  106OSM    H6T10753   3.459   4.943   6.745  2.1937  4.3235 -2.9772
  106OSM    C7S10754   3.586   4.773   6.783 -0.2973  0.4156  0.6792
  106OSM    H7S10755   3.500   4.706   6.806 -0.0762  1.0473  3.7433
  106OSM    H7T10756   3.674   4.738   6.840 -0.4280 -0.7579  0.1993
  106OSM    C8S10757   3.616   4.764   6.636 -0.0539  0.0452 -0.0070
  106OSM    H8S10758   3.717   4.804   6.614 -0.6652 -0.2125 -4.0410
  106OSM    H8T10759   3.546   4.825   6.574  0.6890 -0.8318 -1.7818
  106OSM    C9S10760   3.625   4.617   6.592 -0.0268  0.4894 -0.2060
  106OSM    H9S10761   3.519   4.585   6.587  0.1882 -0.3490  0.3446
  106OSM    H9T10762   3.674   4.558   6.672  1.1568  3.1332  1.1441
  106OSM   C10S10763   3.673   4.592   6.445  0.2933 -0.2248 -0.1139
  106OSM   H10S10764   3.732   4.498   6.452  0.4458 -0.1670 -0.5634
  106OSM   H10T10765   3.742   4.677   6.427  1.1964 -0.7781  0.6100
  106OSM   C11S10766   3.564   4.579   6.345  0.6612  0.3138 -0.3799
  106OSM   H11S10767   3.494   4.665   6.349 -1.4988 -1.2902 -1.5861
  106OSM   H11T10768   3.486   4.503   6.365 -0.8759  1.7384 -0.7932
  106OSM   C12S10769   3.626   4.561   6.204  0.4012  0.2989 -0.5265
  106OSM   H12S10770   3.546   4.545   6.129  0.8561 -2.8399 -0.4888
  106OSM   H12T10771   3.679   4.464   6.191  2.8509  1.3766  0.7429
  106OSM   C13S10772   3.714   4.676   6.161  0.1191 -0.3057 -0.0555
  106OSM   H13S10773   3.819   4.668   6.197  1.0465  2.1646 -1.8820
  106OSM   H13T10774   3.672   4.773   6.195 -0.3341 -1.2350  2.2106
  106OSM   C14S10775   3.711   4.686   6.006  0.1363 -0.0218  0.2054
  106OSM   H14S10776   3.609   4.710   5.969  1.0084 -0.2797 -2.5838
  106OSM   H14T10777   3.748   4.592   5.960  1.8357  0.5086  0.4168
  106OSM   C15S10778   3.820   4.785   5.946  0.7685  0.0584 -0.0663
  106OSM   H15S10779   3.916   4.753   5.992  0.5582 -0.7139 -0.1572
  106OSM   H15T10780   3.802   4.886   5.988 -0.8209  0.1901 -0.9793
  106OSM   C16S10781   3.827   4.779   5.797 -0.0733  0.5978  0.1448
  106OSM   H16S10782   3.859   4.678   5.762  1.2687  0.9953  0.1389
  106OSM   H16T10783   3.903   4.853   5.762 -1.0585  2.0191  0.9318
  106OSM   C17S10784   3.703   4.802   5.723 -0.8617  0.4143 -0.2231
  106OSM   H17S10785   3.676   4.904   5.758  0.4220  1.1290 -1.2146
  106OSM   H17T10786   3.631   4.726   5.759 -1.4324  1.4707  0.9321
  106OSM   C18S10787   3.717   4.810   5.568 -0.0703  0.1832 -0.3798
  106OSM   H18S10788   3.797   4.884   5.550  0.5248 -0.5609 -0.8912
  106OSM   H18T10789   3.623   4.852   5.526  0.0915 -0.8699 -1.8940
  106OSM   H18U10790   3.751   4.714   5.523  2.6507  1.2299 -0.7576
  106OSM    C1F10791   3.259   5.379   7.019  0.4680  0.2619 -0.5855
  106OSM     OF10792   3.344   5.454   7.068 -0.6054  0.0930  0.4746
  106OSM    C2F10793   3.142   5.420   6.936 -0.0175 -1.0991 -0.6747
  106OSM    H2F10794   3.052   5.443   6.997 -1.4071 -2.6332 -2.0594
  106OSM    H2G10795   3.117   5.348   6.855  1.6936  1.2366 -3.4747
  106OSM    C3F10796   3.158   5.569   6.882 -0.1733 -0.3940  0.2271
  106OSM    H3F10797   3.261   5.596   6.849  0.6440 -2.6017  0.7866
  106OSM    H3G10798   3.141   5.635   6.970 -1.5223 -0.8334  0.3110
  106OSM    C4F10799   3.073   5.597   6.758  0.2995 -0.0505 -0.6343
  106OSM    H4F10800   3.078   5.706   6.737  0.3619  0.3607  1.3010
  106OSM    H4G10801   2.967   5.579   6.786  0.7603 -2.4063 -0.2002
  106OSM    C5F10802   3.119   5.529   6.628  0.0861 -0.1580 -0.0945
  106OSM    H5F10803   3.038   5.454   6.616  0.3924 -0.7906  1.6084
  106OSM    H5G10804   3.210   5.468   6.645 -0.9126 -1.3661  1.1852
  106OSM    C6F10805   3.121   5.599   6.501 -0.1166 -0.8176  0.9865
  106OSM    H6F10806   3.218   5.652   6.492 -0.8112  0.4708  0.8619
  106OSM    H6G10807   3.042   5.677   6.512  0.1478 -0.1080 -1.4119
  106OSM    C7F10808   3.091   5.520   6.375 -0.2713 -0.0504  0.7919
  106OSM    H7F10809   3.096   5.597   6.295 -0.6138  1.3114  2.0313
  106OSM    H7G10810   2.995   5.464   6.377  0.5343 -1.5367 -0.2792
  106OSM    C8F10811   3.208   5.419   6.349 -0.5599 -0.4265  0.1794
  106OSM    H8F10812   3.168   5.354   6.268 -0.4439  0.9016 -0.9877
  106OSM    H8G10813   3.219   5.346   6.431  0.5791 -1.8776 -1.2117
  106OSM    C9F10814   3.342   5.471   6.311  1.1285  0.1081  0.9465
  106OSM    H9F10815   3.415   5.490   6.390  1.5483 -0.7319  0.7669
  106OSM   C10F10816   3.374   5.513   6.183  0.3389  0.0217 -0.0012
  106OSM   H10F10817   3.476   5.547   6.164 -0.5299  1.6338 -2.0620
  106OSM   C11F10818   3.275   5.499   6.066 -0.2479 -0.3832  0.1801
  106OSM   H11F10819   3.261   5.603   6.030 -0.2494 -0.3436  0.2974
  106OSM   H11G10820   3.175   5.464   6.099  0.2764 -0.1779  2.1048
  106OSM   C12F10821   3.333   5.424   5.942  0.4008 -0.0593  0.1829
  106OSM   H12F10822   3.348   5.324   5.986 -1.0372  0.6731  2.5452
  106OSM   H12G10823   3.425   5.481   5.917  0.8963 -0.6879  0.5318
  106OSM   C13F10824   3.229   5.411   5.826  0.1895 -0.1877 -0.0897
  106OSM   H13F10825   3.183   5.510   5.804 -2.2432 -1.3893 -0.8044
  106OSM   H13G10826   3.150   5.340   5.859 -0.1212 -0.1599 -0.7568
  106OSM   C14F10827   3.289   5.362   5.696 -0.4911 -0.1699 -0.0882
  106OSM   H14F10828   3.321   5.259   5.721 -2.1906 -0.7031  0.0496
  106OSM   H14G10829   3.376   5.430   5.683 -0.2299 -0.4154  0.3460
  106OSM   C15F10830   3.190   5.360   5.579 -0.1001  0.0301  0.5273
  106OSM   H15F10831   3.255   5.361   5.489  0.7041  0.8052  1.0907
  106OSM   H15G10832   3.117   5.443   5.589 -1.1150 -0.5997 -1.3447
  106OSM   C16F10833   3.098   5.237   5.570 -0.6988 -0.2372  0.1144
  106OSM   H16F10834   3.062   5.210   5.672 -0.0380  0.6822  0.6028
  106OSM   H16G10835   3.145   5.145   5.529 -0.6501  0.0794 -0.5470
  106OSM   C17F10836   2.990   5.267   5.470 -0.6816  0.7364  0.0732
  106OSM   H17F10837   3.029   5.297   5.370  2.1869 -4.4628 -0.7536
  106OSM   H17G10838   2.925   5.348   5.508 -0.7368 -0.5051  2.8739
  106OSM   C18F10839   2.906   5.146   5.427  0.2942  0.2937  0.1836
  106OSM   H18F10840   2.851   5.164   5.332  0.4103 -3.9014 -0.8719
  106OSM   H18G10841   2.842   5.107   5.509 -0.1695 -0.5379 -0.5576
  106OSM   H18H10842   2.967   5.058   5.397 -0.1171  0.9980 -3.0154
  107OSM      N10843   5.466   3.090   7.108 -0.0280 -0.4110 -0.1255
  107OSM    C1510844   5.454   3.158   7.240 -1.0228  0.9542  0.3670
  107OSM   H15A10845   5.415   3.086   7.311  0.7857 -1.0523 -0.5506
  107OSM   H15B10846   5.389   3.244   7.238 -4.2898 -1.2092 -3.7174
  107OSM   H15C10847   5.553   3.181   7.277 -0.1029  0.8630 -1.8490
  107OSM    C1410848   5.557   2.973   7.126 -0.2332  0.3259 -0.1441
  107OSM   H14A10849   5.659   3.004   7.145  0.3372 -1.0748 -0.8090
  107OSM   H14B10850   5.557   2.915   7.035  1.4892  0.7100 -0.4331
  107OSM   H14C10851   5.527   2.910   7.208 -0.0361  2.1674  1.4064
  107OSM    C1310852   5.326   3.048   7.062 -0.0894 -0.2527 -0.5254
  107OSM   H13A10853   5.325   3.012   6.960 -0.3676  0.3047 -0.7265
  107OSM   H13B10854   5.256   3.130   7.068  0.5105  0.2299  0.0084
  107OSM   H13C10855   5.283   2.964   7.115  0.6412 -2.0038 -2.5654
  107OSM    C1210856   5.532   3.178   6.996 -0.1174  0.1902 -0.0247
  107OSM   H12A10857   5.458   3.252   6.968  0.3866  0.6374 -0.1803
  107OSM   H12B10858   5.532   3.109   6.913 -0.3693 -1.5096  1.3208
  107OSM    C1110859   5.662   3.256   7.022 -0.8551 -0.5508 -0.5352
  107OSM   H11A10860   5.707   3.272   6.922  1.0072 -0.9368  0.2093
  107OSM   H11B10861   5.737   3.186   7.065 -0.6740  0.0112  0.0715
  107OSM      P10862   5.566   3.495   7.043 -0.1032 -0.3042 -0.0473
  107OSM    O1310863   5.437   3.504   7.118  0.3005  0.5253 -0.0891
  107OSM    O1410864   5.659   3.612   7.049  0.2206  0.0344  0.2731
  107OSM    O1110865   5.526   3.456   6.891 -0.0037  0.2822  0.4426
  107OSM    O1210866   5.649   3.369   7.105  0.4135 -0.3317 -0.2085
  107OSM    C1S10867   5.562   3.534   6.773 -0.1030  0.5454  0.3924
  107OSM    H1S10868   5.671   3.520   6.760 -0.2448  1.8460 -3.1399
  107OSM    H1T10869   5.533   3.640   6.790  0.1829  0.6840  0.0304
  107OSM     NF10870   5.553   3.538   6.534  0.9024  0.2634  0.5643
  107OSM    HNF10871   5.483   3.591   6.487  0.2636 -2.6536 -2.1156
  107OSM    C2S10872   5.496   3.472   6.649 -0.8378 -0.3323  0.0943
  107OSM    H2S10873   5.521   3.365   6.639  1.9562  0.2781 -0.3496
  107OSM    C3S10874   5.337   3.475   6.660 -0.5947  0.2228  0.7452
  107OSM    H3S10875   5.319   3.585   6.665  1.4036  0.6671 -0.5066
  107OSM     O310876   5.286   3.417   6.777 -0.1028  0.3240 -0.1217
  107OSM    HO310877   5.354   3.409   6.844  0.5639 -1.4074 -0.9295
  107OSM    C4S10878   5.278   3.404   6.537  0.4806 -0.9687  0.2784
  107OSM    H4S10879   5.282   3.469   6.448 -0.0267 -2.0581 -0.5530
  107OSM    C5S10880   5.248   3.275   6.516 -0.0757  0.0704  0.5884
  107OSM    H5S10881   5.260   3.198   6.594 -2.2470 -2.4730 -1.3783
  107OSM    C6S10882   5.198   3.213   6.385 -0.6848 -0.0424 -0.2901
  107OSM    H6S10883   5.090   3.191   6.393 -0.2509 -1.9023  1.0236
  107OSM    H6T10884   5.234   3.108   6.386 -3.1153 -0.9582  1.9208
  107OSM    C7S10885   5.239   3.275   6.250  0.3620 -0.1527 -0.4337
  107OSM    H7S10886   5.346   3.304   6.249 -0.3952  3.1203  1.1637
  107OSM    H7T10887   5.198   3.378   6.239 -1.2602 -0.3542  2.7662
  107OSM    C8S10888   5.209   3.175   6.129 -0.1601  0.6774 -0.3984
  107OSM    H8S10889   5.131   3.104   6.164  0.4006 -0.5248 -1.4917
  107OSM    H8T10890   5.300   3.111   6.117 -0.8078 -0.7840  1.8553
  107OSM    C9S10891   5.173   3.231   5.997  0.5038 -0.2276 -0.4143
  107OSM    H9S10892   5.266   3.288   5.973  1.5116 -1.5154  0.3175
  107OSM    H9T10893   5.090   3.304   6.006  0.6045  0.0272 -1.4953
  107OSM   C10S10894   5.140   3.130   5.885  0.2504 -0.1598  0.3732
  107OSM   H10S10895   5.042   3.088   5.917  1.0684 -0.7855  2.2406
  107OSM   H10T10896   5.217   3.050   5.883  1.4756  0.9224  1.3777
  107OSM   C11S10897   5.135   3.209   5.752  0.1228  0.4458  0.3716
  107OSM   H11S10898   5.234   3.249   5.724  0.2296 -0.1614 -0.1493
  107OSM   H11T10899   5.056   3.287   5.762  0.7046  1.2764 -1.2256
  107OSM   C12S10900   5.077   3.125   5.631 -0.1272 -0.3982 -0.9916
  107OSM   H12S10901   5.027   3.191   5.557 -1.8608 -0.7128 -0.1573
  107OSM   H12T10902   4.993   3.063   5.668 -0.3366 -0.2453 -1.2057
  107OSM   C13S10903   5.181   3.030   5.569  0.3240 -0.1001 -0.6034
  107OSM   H13S10904   5.224   2.961   5.645 -0.6696 -0.2658 -0.1751
  107OSM   H13T10905   5.268   3.088   5.531  0.9078 -0.1475  0.6185
  107OSM   C14S10906   5.139   2.944   5.451  0.3991  0.3114  0.1487
  107OSM   H14S10907   5.075   2.859   5.483 -0.3068  1.0562  0.7516
  107OSM   H14T10908   5.235   2.894   5.424  0.1666 -0.7342  1.1681
  107OSM   C15S10909   5.091   3.021   5.330 -0.3680 -0.3409 -0.3950
  107OSM   H15S10910   5.140   3.120   5.330 -1.5250  0.2479 -0.2887
  107OSM   H15T10911   4.982   3.041   5.335 -0.2733 -0.0811  1.1603
  107OSM   C16S10912   5.134   2.957   5.201  0.1863 -0.1671  0.0983
  107OSM   H16S10913   5.099   2.851   5.196 -0.2263  0.0159 -2.3066
  107OSM   H16T10914   5.244   2.952   5.189  0.4427 -1.8153  2.5083
  107OSM   C17S10915   5.061   3.015   5.084 -0.4842 -0.0197 -0.2309
  107OSM   H17S10916   4.954   3.008   5.112  0.2456  0.2160  2.9141
  107OSM   H17T10917   5.080   2.966   4.986 -2.9674  1.8093 -1.7592
  107OSM   C18S10918   5.116   3.150   5.053  0.1409  0.5199 -0.0126
  107OSM   H18S10919   5.081   3.219   5.133 -1.8957  0.1795 -0.5424
  107OSM   H18T10920   5.082   3.184   4.952 -2.0596 -1.7575 -0.1487
  107OSM   H18U10921   5.226   3.144   5.039 -0.1096 -0.8369 -1.7680
  107OSM    C1F10922   5.672   3.525   6.491 -0.1548  0.1667 -0.3640
  107OSM     OF10923   5.754   3.454   6.546  0.6614 -0.2720  0.1245
  107OSM    C2F10924   5.711   3.598   6.364 -0.2143 -0.4973 -0.0671
  107OSM    H2F10925   5.799   3.661   6.390 -0.2279  0.7700 -2.7568
  107OSM    H2G10926   5.641   3.674   6.325  1.2061  0.3400 -1.1002
  107OSM    C3F10927   5.739   3.498   6.252 -0.0679  0.1703  1.9550
  107OSM    H3F10928   5.822   3.425   6.264 -0.7289 -1.5932 -2.3325
  107OSM    H3G10929   5.757   3.553   6.157  1.0301 -1.7019  1.0162
  107OSM    C4F10930   5.613   3.409   6.221 -0.8976  0.8670  0.6940
  107OSM    H4F10931   5.526   3.477   6.228 -0.5805  1.4391 -0.5393
  107OSM    H4G10932   5.621   3.332   6.300 -0.4809 -0.2266 -0.3826
  107OSM    C5F10933   5.610   3.331   6.088  0.3981 -0.2080  0.2228
  107OSM    H5F10934   5.507   3.289   6.085  0.6558 -1.2445  2.8460
  107OSM    H5G10935   5.685   3.250   6.071  1.8269  1.4871 -2.1210
  107OSM    C6F10936   5.628   3.423   5.963 -0.5497 -0.2035 -0.1567
  107OSM    H6F10937   5.734   3.455   5.975  0.2469 -2.4879 -0.5050
  107OSM    H6G10938   5.558   3.509   5.965 -1.5011 -0.9411  2.2958
  107OSM    C7F10939   5.607   3.351   5.822  0.1005  0.0967 -0.6191
  107OSM    H7F10940   5.506   3.305   5.817 -0.8476  2.0854 -0.8050
  107OSM    H7G10941   5.685   3.273   5.838 -2.4076 -2.2158  1.1792
  107OSM    C8F10942   5.637   3.441   5.698  0.5338 -0.2342  0.6752
  107OSM    H8F10943   5.651   3.377   5.609 -1.1380 -1.9911  1.6008
  107OSM    H8G10944   5.737   3.483   5.721  0.0211  0.4454  1.7472
  107OSM    C9F10945   5.542   3.561   5.675  0.3974 -0.0122 -0.6337
  107OSM    H9F10946   5.563   3.655   5.727 -0.0045  2.3619 -4.4272
  107OSM   C10F10947   5.434   3.566   5.595 -0.1882 -0.0131 -0.2860
  107OSM   H10F10948   5.379   3.660   5.583  1.0892  1.1402  2.2584
  107OSM   C11F10949   5.391   3.459   5.498  0.0046  0.3295  0.1948
  107OSM   H11F10950   5.310   3.396   5.541  0.7575  1.6415  3.8293
  107OSM   H11G10951   5.476   3.393   5.471 -0.6641 -0.6892  0.4892
  107OSM   C12F10952   5.330   3.508   5.361  0.0847  0.0171 -0.0348
  107OSM   H12F10953   5.407   3.583   5.331  0.5172 -0.4721 -0.1691
  107OSM   H12G10954   5.231   3.556   5.374  1.2600  2.5679  0.1448
  107OSM   C13F10955   5.340   3.403   5.246  0.6738 -0.1625 -0.0583
  107OSM   H13F10956   5.246   3.346   5.261  0.7030  0.1756  1.5152
  107OSM   H13G10957   5.419   3.336   5.286  1.4670  1.0905  0.5372
  107OSM   C14F10958   5.373   3.455   5.110  0.4473  0.5898  0.9014
  107OSM   H14F10959   5.406   3.374   5.042  0.4290  1.4737 -0.1821
  107OSM   H14G10960   5.457   3.528   5.115 -0.7773  2.1432 -0.2564
  107OSM   C15F10961   5.251   3.522   5.039  0.0560  1.1089  0.1403
  107OSM   H15F10962   5.217   3.601   5.110  2.1884  2.1002  0.1281
  107OSM   H15G10963   5.168   3.448   5.028 -0.2828  1.5711 -0.4681
  107OSM   C16F10964   5.292   3.559   4.894 -0.6070 -0.2797 -0.1945
  107OSM   H16F10965   5.338   3.467   4.852 -0.1464 -0.3253  0.4008
  107OSM   H16G10966   5.367   3.640   4.908 -0.6947 -0.2716  0.2182
  107OSM   C17F10967   5.175   3.609   4.816  0.1650 -0.9807 -0.2246
  107OSM   H17F10968   5.117   3.517   4.793 -0.2489 -0.7252 -0.2067
  107OSM   H17G10969   5.206   3.651   4.718  0.4123  1.5624  0.8681
  107OSM   C18F10970   5.094   3.707   4.898  0.7017 -0.5598 -0.0545
  107OSM   H18F10971   5.044   3.656   4.983 -0.0886  1.9606  1.0945
  107OSM   H18G10972   5.011   3.754   4.842 -0.2733 -1.6832  0.4176
  107OSM   H18H10973   5.159   3.786   4.941 -1.7890  0.1344  2.7471
  108OSM      N10974   5.632   4.502   7.413 -0.1625  0.5736 -0.3506
  108OSM    C1510975   5.525   4.549   7.504  0.2212 -0.9809  0.5965
  108OSM   H15A10976   5.538   4.654   7.526  1.4142 -1.2501  1.2996
  108OSM   H15B10977   5.533   4.496   7.598  1.2555 -1.7045  0.1227
  108OSM   H15C10978   5.424   4.546   7.468  0.5297  1.1974 -0.6087
  108OSM    C1410979   5.756   4.568   7.454 -0.8523 -0.4701 -0.1722
  108OSM   H14A10980   5.751   4.675   7.439 -0.2156 -0.6192 -1.6041
  108OSM   H14B10981   5.839   4.542   7.390 -1.5392  0.6660 -1.5828
  108OSM   H14C10982   5.767   4.544   7.559 -2.3419 -2.0303 -0.3139
  108OSM    C1310983   5.650   4.357   7.429  0.1045 -0.1500  0.4780
  108OSM   H13A10984   5.730   4.325   7.363 -0.6671 -0.7459 -0.1795
  108OSM   H13B10985   5.560   4.308   7.398 -0.5625  0.8998  0.6922
  108OSM   H13C10986   5.680   4.344   7.532  1.9003 -0.5858 -0.0550
  108OSM    C1210987   5.606   4.537   7.270 -0.4082 -0.5782 -0.2253
  108OSM   H12A10988   5.682   4.505   7.200 -0.2519  1.3442 -0.9930
  108OSM   H12B10989   5.614   4.644   7.257 -0.6256 -0.4162  0.8728
  108OSM    C1110990   5.478   4.495   7.198  0.0656  0.4423  0.2693
  108OSM   H11A10991   5.463   4.385   7.206  2.2431  0.1039  0.1388
  108OSM   H11B10992   5.494   4.516   7.090  1.0444  0.1352  0.3462
  108OSM      P10993   5.309   4.699   7.239 -0.0757  0.1018 -0.4287
  108OSM    O1310994   5.165   4.695   7.271  0.5882  0.1527  0.4862
  108OSM    O1410995   5.386   4.794   7.322  0.0645 -0.5898 -0.1600
  108OSM    O1110996   5.332   4.729   7.084  0.4722 -0.0060  0.1689
  108OSM    O1210997   5.362   4.551   7.251 -0.1363 -0.1708 -0.3160
  108OSM    C1S10998   5.253   4.660   6.986 -0.3676 -0.6001  0.4077
  108OSM    H1S10999   5.144   4.685   6.985 -0.0939  0.6364  0.4386
  108OSM    H1T11000   5.261   4.551   7.005  1.4441 -1.0983 -2.5928
  108OSM     NF11001   5.262   4.555   6.751 -0.2041  0.2867  0.0453
  108OSM    HNF11002   5.336   4.515   6.697  1.0709  0.8416  1.3291
  108OSM    C2S11003   5.300   4.666   6.836 -0.5985 -0.5276  0.6251
  108OSM    H2S11004   5.246   4.756   6.798  0.7251  0.5411  1.1951
  108OSM    C3S11005   5.449   4.705   6.829  0.3203 -0.8149  0.5272
  108OSM    H3S11006   5.507   4.626   6.881  1.4763 -0.8673 -0.7934
  108OSM     O311007   5.471   4.834   6.884 -0.1133  0.6034  0.1048
  108OSM    HO311008   5.427   4.823   6.969 -1.5616  2.9059 -0.2740
  108OSM    C4S11009   5.486   4.714   6.687 -0.0748 -0.1549  0.4197
  108OSM    H4S11010   5.442   4.799   6.632 -0.8488 -1.3355 -0.8368
  108OSM    C5S11011   5.568   4.634   6.618  0.2701 -0.1484  0.3417
  108OSM    H5S11012   5.609   4.549   6.676 -1.3590 -1.1528  0.0986
  108OSM    C6S11013   5.612   4.641   6.478  0.0121  0.3665 -0.8739
  108OSM    H6S11014   5.723   4.629   6.484  0.7279  4.7065 -1.6525
  108OSM    H6T11015   5.593   4.739   6.430 -0.1774  0.0509 -1.4494
  108OSM    C7S11016   5.561   4.534   6.386  0.2804  0.2241 -0.1691
  108OSM    H7S11017   5.451   4.548   6.383  0.0442 -0.6639  2.2693
  108OSM    H7T11018   5.586   4.431   6.420  1.4398  0.2933 -0.7836
  108OSM    C8S11019   5.617   4.559   6.242 -0.8283 -0.3776 -0.6525
  108OSM    H8S11020   5.728   4.551   6.249 -0.6953 -0.6052 -2.4183
  108OSM    H8T11021   5.594   4.664   6.212 -0.3319 -0.7490 -2.4944
  108OSM    C9S11022   5.564   4.458   6.134  0.1163  0.3249  0.3429
  108OSM    H9S11023   5.608   4.467   6.032 -0.2146  2.5139  0.3637
  108OSM    H9T11024   5.453   4.463   6.125  0.0630 -0.0339  0.7511
  108OSM   C10S11025   5.582   4.308   6.172 -0.0681 -0.0649 -0.5529
  108OSM   H10S11026   5.502   4.271   6.241 -1.9494 -0.6168 -2.8747
  108OSM   H10T11027   5.676   4.304   6.231 -0.7526  1.4240  0.7152
  108OSM   C11S11028   5.593   4.202   6.057 -0.2175 -0.4283  0.7501
  108OSM   H11S11029   5.645   4.111   6.092  1.6432 -0.4824 -1.8415
  108OSM   H11T11030   5.657   4.245   5.977 -1.0224 -0.1258  0.2473
  108OSM   C12S11031   5.464   4.166   5.982  0.0818  0.6769  0.6144
  108OSM   H12S11032   5.433   4.263   5.939 -0.3508  0.6148  0.7806
  108OSM   H12T11033   5.391   4.129   6.058  1.0391 -0.7478  0.8790
  108OSM   C13S11034   5.486   4.059   5.873  0.3770  0.1171  0.0919
  108OSM   H13S11035   5.550   3.979   5.914 -0.4932 -1.0501 -0.7435
  108OSM   H13T11036   5.549   4.114   5.799 -0.3690  1.6643  0.5562
  108OSM   C14S11037   5.357   4.009   5.808  0.0079  1.2466  0.6989
  108OSM   H14S11038   5.286   3.959   5.877 -0.7081  0.1880 -0.7551
  108OSM   H14T11039   5.377   3.930   5.733  0.6184  1.6079  0.4803
  108OSM   C15S11040   5.264   4.118   5.752 -0.1630  0.1067  0.3115
  108OSM   H15S11041   5.314   4.199   5.696  0.8188  0.6562  1.8918
  108OSM   H15T11042   5.208   4.149   5.843 -0.5559 -0.6885  0.3538
  108OSM   C16S11043   5.157   4.057   5.658  0.0353 -0.4393 -0.2945
  108OSM   H16S11044   5.091   3.989   5.715 -0.3818  0.5997  0.4876
  108OSM   H16T11045   5.210   3.988   5.589  1.7567  0.8655 -0.3494
  108OSM   C17S11046   5.088   4.165   5.570  0.6097  0.2297 -0.4030
  108OSM   H17S11047   5.007   4.133   5.502  1.6233  0.5264 -1.7906
  108OSM   H17T11048   5.168   4.214   5.511  0.3131  0.2498 -0.7931
  108OSM   C18S11049   5.019   4.270   5.654 -0.2177  0.2605 -0.1668
  108OSM   H18S11050   5.083   4.338   5.714 -1.0922  0.7022  0.2801
  108OSM   H18T11051   4.949   4.222   5.726 -0.6888  2.1023  0.6448
  108OSM   H18U11052   4.959   4.335   5.586  1.3327 -0.1626 -2.0297
  108OSM    C1F11053   5.140   4.511   6.745  0.5114  0.3319  0.8049
  108OSM     OF11054   5.048   4.587   6.774  0.4707 -0.4394 -0.5875
  108OSM    C2F11055   5.117   4.379   6.694 -1.3433 -0.0756 -0.1251
  108OSM    H2F11056   5.038   4.335   6.758 -2.4815 -0.9349 -2.0484
  108OSM    H2G11057   5.208   4.314   6.696 -0.9686  0.4497  0.2057
  108OSM    C3F11058   5.074   4.378   6.548  0.2073 -0.0024 -0.6112
  108OSM    H3F11059   4.993   4.451   6.529  1.1202  0.6099 -2.4146
  108OSM    H3G11060   5.028   4.281   6.520  2.2299 -0.4576 -2.6287
  108OSM    C4F11061   5.195   4.406   6.451  0.7149 -0.2319  1.0704
  108OSM    H4F11062   5.291   4.351   6.467  1.4423  0.1454 -1.5285
  108OSM    H4G11063   5.232   4.511   6.460 -2.1209  0.9766 -0.2098
  108OSM    C5F11064   5.151   4.388   6.299 -0.0911  0.0134  0.3676
  108OSM    H5F11065   5.241   4.425   6.245 -0.9867  0.5200 -0.8331
  108OSM    H5G11066   5.050   4.431   6.283 -0.6199 -1.2309  0.2301
  108OSM    C6F11067   5.126   4.240   6.264 -0.1788  0.2480 -0.4836
  108OSM    H6F11068   5.056   4.203   6.342 -0.3350  3.9265  1.3754
  108OSM    H6G11069   5.221   4.184   6.268  0.7022  1.7493  0.2552
  108OSM    C7F11070   5.064   4.227   6.125  0.5245  0.5847  0.3580
  108OSM    H7F11071   5.139   4.272   6.055  0.3802 -1.1516 -0.9973
  108OSM    H7G11072   4.965   4.277   6.122  0.4587  0.5733  1.7143
  108OSM    C8F11073   5.053   4.082   6.072 -0.2702  0.2496 -0.9003
  108OSM    H8F11074   5.153   4.036   6.059 -1.0576 -1.0847 -2.6935
  108OSM    H8G11075   4.996   4.079   5.976  0.3039 -1.9004 -1.2336
  108OSM    C9F11076   4.970   4.000   6.176  0.1653  0.0675 -0.2620
  108OSM    H9F11077   5.019   3.988   6.274 -0.8341 -0.3578  0.2008
  108OSM   C10F11078   4.853   3.939   6.144 -0.4356 -0.5699 -0.4627
  108OSM   H10F11079   4.802   3.869   6.212 -0.8479 -1.9617 -2.1170
  108OSM   C11F11080   4.772   3.949   6.018  0.0863 -0.1527 -0.2967
  108OSM   H11F11081   4.700   3.864   6.012 -0.1600 -0.0056  0.4944
  108OSM   H11G11082   4.837   3.957   5.929  0.2383  2.7974 -0.0142
  108OSM   C12F11083   4.686   4.079   6.004 -0.0697  0.2471 -0.2173
  108OSM   H12F11084   4.752   4.166   5.985 -0.4921  0.6086 -0.0513
  108OSM   H12G11085   4.652   4.104   6.106 -0.0367  0.9449 -0.3761
  108OSM   C13F11086   4.569   4.075   5.904 -0.5702 -0.3343  0.1503
  108OSM   H13F11087   4.620   4.048   5.809  2.1648  1.8733  0.8680
  108OSM   H13G11088   4.525   4.175   5.889  0.5791  0.0812 -0.5554
  108OSM   C14F11089   4.462   3.967   5.919 -0.6325 -1.3524  0.5143
  108OSM   H14F11090   4.404   4.012   6.003 -1.5043 -0.1535 -0.6981
  108OSM   H14G11091   4.503   3.865   5.939 -0.5357 -1.7423 -1.5216
  108OSM   C15F11092   4.383   3.962   5.787  0.5299  0.1775  0.0078
  108OSM   H15F11093   4.445   3.913   5.709 -0.3768 -0.7674 -0.1405
  108OSM   H15G11094   4.362   4.065   5.751  0.1610 -0.3741 -1.3880
  108OSM   C16F11095   4.247   3.884   5.803 -0.0033  0.2392 -0.1539
  108OSM   H16F11096   4.175   3.902   5.720 -0.7149 -0.0302  0.3949
  108OSM   H16G11097   4.205   3.940   5.890 -1.2540 -0.6250 -0.1759
  108OSM   C17F11098   4.262   3.731   5.821  0.1164 -0.0590  0.7869
  108OSM   H17F11099   4.335   3.707   5.901  1.3768 -2.1115 -0.8686
  108OSM   H17G11100   4.299   3.673   5.733 -0.8539 -0.9323  0.9191
  108OSM   C18F11101   4.126   3.676   5.859 -0.3623 -0.0881 -0.4582
  108OSM   H18F11102   4.042   3.718   5.800 -0.0925  1.1161 -0.0103
  108OSM   H18G11103   4.101   3.698   5.964 -0.1737 -0.2250 -0.3828
  108OSM   H18H11104   4.126   3.565   5.855 -1.6011 -0.0934 -0.4994
  109OSM      N11105   3.842   6.319   7.454  0.1264 -0.3491 -0.1706
  109OSM    C1511106   3.812   6.413   7.342  0.2398  0.0730  0.3784
  109OSM   H15A11107   3.906   6.458   7.312  0.2561  0.6370  1.2273
  109OSM   H15B11108   3.754   6.496   7.381  0.6640 -0.0316  1.2755
  109OSM   H15C11109   3.764   6.366   7.258  0.6467 -0.2568  0.3300
  109OSM    C1411110   3.906   6.403   7.563  0.7467  0.1164  0.4891
  109OSM   H14A11111   4.008   6.424   7.536  0.1921  1.8140 -0.4134
  109OSM   H14B11112   3.900   6.353   7.659 -3.1126  0.8238  0.7839
  109OSM   H14C11113   3.858   6.497   7.583  1.9393  0.7477  0.4322
  109OSM    C1311114   3.715   6.267   7.503  0.2713  0.2088  0.5674
  109OSM   H13A11115   3.661   6.345   7.556 -0.9087  0.2459 -0.6429
  109OSM   H13B11116   3.727   6.183   7.569 -0.9813 -2.2203 -2.0986
  109OSM   H13C11117   3.656   6.221   7.426 -2.1104  0.9804  1.8235
  109OSM    C1211118   3.942   6.208   7.409  0.2666 -0.1095  0.7272
  109OSM   H12A11119   4.015   6.250   7.343  2.2275  0.1221  2.9083
  109OSM   H12B11120   3.885   6.140   7.348  0.0058  0.1959  0.6295
  109OSM    C1111121   4.015   6.115   7.516  0.6445  0.2956 -0.0056
  109OSM   H11A11122   4.057   6.176   7.598  1.4333 -0.3503  0.0825
  109OSM   H11B11123   4.103   6.056   7.481 -0.4269 -1.9254  0.8139
  109OSM      P11124   3.872   5.894   7.533 -0.0687  0.2701  0.6783
  109OSM    O1311125   3.884   5.815   7.653  0.1729  0.4316 -0.6585
  109OSM    O1411126   3.733   5.897   7.485 -0.3699 -0.3868  0.2231
  109OSM    O1111127   3.972   5.842   7.433  0.9188  0.0951  0.5320
  109OSM    O1211128   3.909   6.044   7.563  0.4633  0.3788 -0.1608
  109OSM    C1S11129   3.975   5.711   7.378 -0.5368  0.3431  0.1423
  109OSM    H1S11130   3.921   5.639   7.442  1.2426 -3.4427 -2.2077
  109OSM    H1T11131   4.082   5.682   7.386 -1.0618 -1.7142  0.3314
  109OSM     NF11132   3.919   5.571   7.196  0.1368  0.3862 -0.7059
  109OSM    HNF11133   3.997   5.543   7.140  1.6148 -0.1020  1.4307
  109OSM    C2S11134   3.922   5.711   7.237  0.7491  0.1813 -0.5133
  109OSM    H2S11135   3.827   5.767   7.234  1.0879  0.7719 -0.4371
  109OSM    C3S11136   4.017   5.799   7.149 -0.5181 -0.0646 -0.0470
  109OSM    H3S11137   4.116   5.748   7.154 -1.5142 -2.3023 -1.3998
  109OSM     O311138   4.041   5.938   7.187  0.3889  0.6472 -0.0073
  109OSM    HO311139   4.016   5.928   7.279  3.3301 -1.5814  0.6890
  109OSM    C4S11140   3.971   5.796   7.006  0.3524  0.5939 -0.4076
  109OSM    H4S11141   4.012   5.708   6.954  1.0434  2.1219 -2.5793
  109OSM    C5S11142   3.890   5.883   6.940  0.3187 -0.0324 -0.0872
  109OSM    H5S11143   3.868   5.976   6.993  6.3582  2.3504 -0.9319
  109OSM    C6S11144   3.834   5.878   6.803  0.0938 -0.3199  0.2907
  109OSM    H6S11145   3.919   5.908   6.739 -0.1969  1.1004  0.5371
  109OSM    H6T11146   3.754   5.954   6.787  2.3978  2.4042  0.9782
  109OSM    C7S11147   3.784   5.740   6.766  0.9110  0.2419  0.3569
  109OSM    H7S11148   3.728   5.702   6.854 -0.9148 -0.3614 -0.9927
  109OSM    H7T11149   3.868   5.667   6.760  0.9258  0.3487 -1.1131
  109OSM    C8S11150   3.701   5.727   6.637 -0.1025 -0.0232 -0.2640
  109OSM    H8S11151   3.643   5.820   6.619  0.3419  0.7583  1.9829
  109OSM    H8T11152   3.630   5.642   6.653 -1.2814  1.0918  0.6856
  109OSM    C9S11153   3.793   5.701   6.519  0.4647 -0.5006  0.3430
  109OSM    H9S11154   3.823   5.594   6.526  1.3647 -0.1933  1.8350
  109OSM    H9T11155   3.882   5.768   6.519 -0.1400  0.3992 -2.2896
  109OSM   C10S11156   3.717   5.721   6.390 -0.2596  0.1869  0.7138
  109OSM   H10S11157   3.653   5.811   6.377 -0.4514 -0.1784 -1.1846
  109OSM   H10T11158   3.643   5.640   6.379 -0.1692  0.2597 -0.6295
  109OSM   C11S11159   3.812   5.703   6.267  0.4040  0.2574  0.6318
  109OSM   H11S11160   3.816   5.593   6.251 -2.2398  0.2589 -0.4920
  109OSM   H11T11161   3.909   5.757   6.278  0.7109  0.5208 -2.3555
  109OSM   C12S11162   3.762   5.774   6.138  0.4291  0.7875  0.4997
  109OSM   H12S11163   3.792   5.880   6.153  2.9935 -0.1371  2.9198
  109OSM   H12T11164   3.652   5.763   6.144  0.5454  0.3675  2.1464
  109OSM   C13S11165   3.821   5.717   6.004  0.1978  0.2668 -0.6487
  109OSM   H13S11166   3.756   5.634   5.969  1.8772 -0.7099 -1.5981
  109OSM   H13T11167   3.923   5.673   6.012 -1.1615 -2.9178  1.5690
  109OSM   C14S11168   3.827   5.817   5.884 -0.0551  0.0001 -0.1843
  109OSM   H14S11169   3.888   5.907   5.909 -0.3618  0.0814  0.2774
  109OSM   H14T11170   3.721   5.849   5.878 -0.6094 -1.4936  0.9466
  109OSM   C15S11171   3.856   5.764   5.749  0.1430  0.6890 -0.4489
  109OSM   H15S11172   3.804   5.826   5.673 -4.1116  1.8058  2.9776
  109OSM   H15T11173   3.806   5.667   5.730 -0.0699  0.9769 -1.3788
  109OSM   C16S11174   4.010   5.755   5.700 -0.0744  0.0665  0.0059
  109OSM   H16S11175   4.058   5.674   5.758 -1.9664 -1.4597 -0.4397
  109OSM   H16T11176   4.046   5.854   5.738 -0.8856 -0.4192  2.1841
  109OSM   C17S11177   4.025   5.728   5.553  0.2886  0.6677  0.5904
  109OSM   H17S11178   4.127   5.684   5.549 -0.2123 -0.6033  1.2433
  109OSM   H17T11179   4.037   5.811   5.479  0.2513 -0.1248 -0.3273
  109OSM   C18S11180   3.937   5.614   5.499 -0.4733  0.7139  0.2949
  109OSM   H18S11181   3.973   5.573   5.402 -1.2117 -1.5449  0.9009
  109OSM   H18T11182   3.829   5.633   5.486 -0.1309  2.0598 -0.8831
  109OSM   H18U11183   3.936   5.531   5.573 -0.6448 -0.1045 -0.6109
  109OSM    C1F11184   3.814   5.498   7.226  0.5652  0.3757 -0.1093
  109OSM     OF11185   3.710   5.551   7.263 -0.1255  0.2901 -0.1345
  109OSM    C2F11186   3.819   5.355   7.226 -0.4284  0.0879 -0.2896
  109OSM    H2F11187   3.775   5.318   7.321 -1.9831  0.0075 -1.0079
  109OSM    H2G11188   3.923   5.320   7.208 -0.2979  1.2508 -2.1862
  109OSM    C3F11189   3.730   5.303   7.110  0.4817 -0.5580  0.1010
  109OSM    H3F11190   3.624   5.330   7.129  0.0729 -0.2155 -2.4095
  109OSM    H3G11191   3.734   5.193   7.129  2.2219 -0.3815  1.0404
  109OSM    C4F11192   3.771   5.342   6.965 -0.3562  0.1884  0.3335
  109OSM    H4F11193   3.868   5.292   6.944 -1.4787 -2.4125  0.8165
  109OSM    H4G11194   3.803   5.448   6.956  0.5341 -0.1614 -0.8060
  109OSM    C5F11195   3.661   5.319   6.852 -0.2813  0.0952  0.0560
  109OSM    H5F11196   3.567   5.374   6.874 -0.0984  0.6652 -0.5507
  109OSM    H5G11197   3.643   5.209   6.850 -0.2299 -0.0516  3.1887
  109OSM    C6F11198   3.725   5.344   6.719  0.2485 -0.0579  0.4647
  109OSM    H6F11199   3.819   5.285   6.709  0.2201  0.2803 -3.9059
  109OSM    H6G11200   3.749   5.451   6.706  1.5432  0.1610  3.6730
  109OSM    C7F11201   3.628   5.299   6.605 -0.0215 -0.2158 -0.1750
  109OSM    H7F11202   3.607   5.382   6.534 -0.9976  0.0926  0.4531
  109OSM    H7G11203   3.530   5.279   6.654  0.0959 -1.4327 -0.4026
  109OSM    C8F11204   3.674   5.165   6.538  0.7253  0.6396  0.3484
  109OSM    H8F11205   3.578   5.124   6.500  1.3244 -1.9252  1.4308
  109OSM    H8G11206   3.719   5.099   6.614 -1.6896 -1.6156 -0.0458
  109OSM    C9F11207   3.775   5.207   6.436  0.0875 -0.1207 -0.0267
  109OSM    H9F11208   3.876   5.215   6.480  0.2294 -0.2537 -0.3187
  109OSM   C10F11209   3.754   5.238   6.312 -0.0430 -0.2705 -0.9224
  109OSM   H10F11210   3.836   5.272   6.247  0.1781 -2.5813 -1.9397
  109OSM   C11F11211   3.617   5.224   6.237 -0.4683  0.5747 -0.7623
  109OSM   H11F11212   3.571   5.325   6.229  0.6632  1.2126  0.2802
  109OSM   H11G11213   3.556   5.159   6.304  0.8882  1.2591  1.2334
  109OSM   C12F11214   3.622   5.140   6.107 -0.1905  0.5356  0.3813
  109OSM   H12F11215   3.516   5.144   6.073 -0.7959  0.2059  2.1390
  109OSM   H12G11216   3.642   5.039   6.147 -0.9128 -1.1990 -3.2794
  109OSM   C13F11217   3.726   5.187   6.003 -0.0309  0.0895 -0.5811
  109OSM   H13F11218   3.754   5.101   5.939 -0.8002  0.1685 -1.0373
  109OSM   H13G11219   3.825   5.210   6.048 -0.1487  0.2775 -0.4174
  109OSM   C14F11220   3.685   5.302   5.913 -0.2561  0.1458  0.4551
  109OSM   H14F11221   3.648   5.391   5.967  0.6896  2.2652 -2.1678
  109OSM   H14G11222   3.601   5.269   5.849 -0.7859  0.0109  1.2018
  109OSM   C15F11223   3.794   5.360   5.813 -0.0601 -0.7311 -0.5200
  109OSM   H15F11224   3.858   5.426   5.875 -0.7415  1.3718 -1.9687
  109OSM   H15G11225   3.741   5.422   5.739  0.3824  0.1249 -0.1325
  109OSM   C16F11226   3.872   5.259   5.729 -0.3544 -0.0344 -0.0300
  109OSM   H16F11227   3.917   5.190   5.803 -0.5128 -0.1045  0.0009
  109OSM   H16G11228   3.956   5.318   5.686 -1.0698  1.3704  0.4439
  109OSM   C17F11229   3.788   5.184   5.620 -1.0482 -0.2640 -0.1541
  109OSM   H17F11230   3.687   5.152   5.651 -0.7363 -1.2087 -0.0637
  109OSM   H17G11231   3.840   5.086   5.611 -1.8914 -0.5970 -1.8286
  109OSM   C18F11232   3.780   5.246   5.484 -0.7389 -0.4850  0.1481
  109OSM   H18F11233   3.738   5.181   5.405  1.4409  0.1695 -1.6546
  109OSM   H18G11234   3.879   5.283   5.451 -0.8080 -0.4174  0.0174
  109OSM   H18H11235   3.716   5.337   5.490 -1.4071 -0.8793 -0.7496
  110OSM      N11236   5.180   1.736   7.629  0.1017 -0.0817 -0.0914
  110OSM    C1511237   5.307   1.663   7.596 -0.0294  0.2860 -0.0441
  110OSM   H15A11238   5.286   1.585   7.524 -0.2790 -1.3197  1.7126
  110OSM   H15B11239   5.352   1.609   7.678 -0.4035 -2.9453 -1.7763
  110OSM   H15C11240   5.388   1.715   7.546 -0.9311  1.5963 -0.1901
  110OSM    C1411241   5.106   1.666   7.737  0.1897 -0.2591 -0.0903
  110OSM   H14A11242   5.075   1.570   7.699 -1.6897 -0.1211  0.9242
  110OSM   H14B11243   5.019   1.727   7.757  0.0315 -0.4224 -0.2636
  110OSM   H14C11244   5.167   1.653   7.824  0.7493 -1.5584 -0.6522
  110OSM    C1311245   5.211   1.873   7.676  0.3311 -0.0999 -0.4103
  110OSM   H13A11246   5.262   1.878   7.771 -2.3867 -0.2223  1.1478
  110OSM   H13B11247   5.117   1.924   7.685 -0.3997 -1.5271  0.3272
  110OSM   H13C11248   5.262   1.931   7.600 -0.6998 -0.8271 -1.7081
  110OSM    C1211249   5.099   1.755   7.505  0.4368  1.0164  0.2209
  110OSM   H12A11250   5.157   1.820   7.441  1.3799 -0.2951 -0.3280
  110OSM   H12B11251   5.010   1.810   7.528  1.1751  3.2175 -1.7593
  110OSM    C1111252   5.057   1.633   7.421 -1.4479  0.2989  0.0334
  110OSM   H11A11253   4.978   1.661   7.348 -0.5033  3.6905  0.1199
  110OSM   H11B11254   5.022   1.548   7.482  1.4905 -0.8224  0.3476
  110OSM      P11255   5.248   1.666   7.240  0.2239 -0.1608  0.3346
  110OSM    O1311256   5.211   1.812   7.238  0.6123  0.4025 -0.2394
  110OSM    O1411257   5.390   1.639   7.265  0.3688  0.0188 -1.0358
  110OSM    O1111258   5.209   1.592   7.112  0.8591  0.1061  0.6242
  110OSM    O1211259   5.168   1.582   7.346  0.4191  0.4207 -0.0976
  110OSM    C1S11260   5.112   1.485   7.098 -0.5123 -0.5021  0.5870
  110OSM    H1S11261   5.032   1.476   7.175  1.5235 -2.8033  2.6438
  110OSM    H1T11262   5.164   1.386   7.105  1.6299  0.6114  1.3668
  110OSM     NF11263   4.941   1.384   6.945 -0.0150  0.6200  0.2795
  110OSM    HNF11264   4.963   1.298   6.899  0.5524  1.6013 -1.3841
  110OSM    C2S11265   5.034   1.487   6.954 -0.0740  0.4615 -0.7436
  110OSM    H2S11266   4.984   1.585   6.938 -1.1357  0.2530  1.0615
  110OSM    C3S11267   5.148   1.485   6.843 -0.4176  0.1665 -0.6925
  110OSM    H3S11268   5.190   1.382   6.852 -2.7024 -0.8545 -1.0429
  110OSM     O311269   5.261   1.576   6.854  0.4187  0.2811  0.2571
  110OSM    HO311270   5.234   1.614   6.938 -0.0713 -0.8762  0.6366
  110OSM    C4S11271   5.090   1.479   6.704 -0.5771 -0.7567  0.4541
  110OSM    H4S11272   5.085   1.375   6.669 -0.3285 -0.5670 -0.1616
  110OSM    C5S11273   5.066   1.579   6.618 -0.4795 -0.5040  0.1539
  110OSM    H5S11274   5.089   1.681   6.652  4.0736 -1.3238  0.1393
  110OSM    C6S11275   5.010   1.551   6.475 -0.2282 -0.4925 -0.5506
  110OSM    H6S11276   5.055   1.618   6.399 -1.8127  0.1406 -0.9600
  110OSM    H6T11277   4.903   1.577   6.468 -0.0781 -0.0132 -1.1392
  110OSM    C7S11278   5.039   1.407   6.426  0.0921  0.0518 -0.3215
  110OSM    H7S11279   4.989   1.325   6.482  0.3395 -1.5995 -2.3984
  110OSM    H7T11280   5.148   1.394   6.445  0.1362 -0.8235 -1.1556
  110OSM    C8S11281   4.998   1.382   6.282  0.3154 -0.1006 -1.5198
  110OSM    H8S11282   4.916   1.453   6.260  1.3779  1.7138  0.0947
  110OSM    H8T11283   4.966   1.276   6.271  2.5976 -1.0304  0.0185
  110OSM    C9S11284   5.114   1.402   6.183 -0.2494  0.2974 -0.6982
  110OSM    H9S11285   5.197   1.330   6.199 -0.2262  0.1773 -1.3246
  110OSM    H9T11286   5.160   1.503   6.191  1.2932 -0.4292 -0.0498
  110OSM   C10S11287   5.067   1.382   6.039  0.1962 -0.2922 -0.8741
  110OSM   H10S11288   4.983   1.453   6.022 -0.5569 -1.2860 -1.4036
  110OSM   H10T11289   5.024   1.280   6.042 -0.5880 -0.0073  2.5882
  110OSM   C11S11290   5.167   1.403   5.928  0.4371  0.6499  0.2303
  110OSM   H11S11291   5.260   1.346   5.948  0.1493 -0.7510 -2.1604
  110OSM   H11T11292   5.187   1.513   5.927 -1.2230  0.9766 -0.0832
  110OSM   C12S11293   5.114   1.368   5.786 -0.0338  0.5361 -0.1835
  110OSM   H12S11294   5.004   1.378   5.776 -0.1849  0.8163  1.5033
  110OSM   H12T11295   5.146   1.265   5.758  1.1246  1.0485 -0.8163
  110OSM   C13S11296   5.166   1.466   5.681  0.2573 -0.3739  0.0850
  110OSM   H13S11297   5.274   1.445   5.669  0.4176  0.3062  0.3079
  110OSM   H13T11298   5.152   1.574   5.703 -1.2832 -0.8839  1.9527
  110OSM   C14S11299   5.094   1.456   5.539  0.0514 -0.9469 -0.5041
  110OSM   H14S11300   4.984   1.451   5.549  0.0679  0.1276  0.4606
  110OSM   H14T11301   5.120   1.360   5.488 -1.0081 -0.5993 -1.7506
  110OSM   C15S11302   5.129   1.566   5.440 -0.4546  0.3617  0.1612
  110OSM   H15S11303   5.141   1.667   5.486  0.9068  0.4918 -0.4353
  110OSM   H15T11304   5.038   1.580   5.378 -0.5096  1.6150  0.5029
  110OSM   C16S11305   5.259   1.527   5.364  0.8058  0.3637 -0.2322
  110OSM   H16S11306   5.232   1.424   5.332 -0.0985 -0.1810  2.0640
  110OSM   H16T11307   5.349   1.538   5.427 -0.2194  2.6676  0.9743
  110OSM   C17S11308   5.288   1.601   5.227 -0.0807 -0.5653  0.1201
  110OSM   H17S11309   5.328   1.703   5.243  1.3311 -0.5355 -2.8740
  110OSM   H17T11310   5.190   1.616   5.176  0.3049 -0.1551 -0.5036
  110OSM   C18S11311   5.380   1.519   5.122 -0.7202  0.2095  0.4098
  110OSM   H18S11312   5.355   1.410   5.121 -0.4359  0.1457  0.1933
  110OSM   H18T11313   5.485   1.534   5.154  0.0543 -1.1758 -1.2969
  110OSM   H18U11314   5.362   1.553   5.018  0.1006 -0.7374 -0.0595
  110OSM    C1F11315   4.821   1.386   7.000 -0.8034 -0.3638  0.7264
  110OSM     OF11316   4.779   1.494   7.045 -0.0931  0.3447  0.0559
  110OSM    C2F11317   4.737   1.269   7.000 -0.6442  0.2631  0.4687
  110OSM    H2F11318   4.692   1.261   7.101 -2.0722  1.1534 -0.0565
  110OSM    H2G11319   4.804   1.181   6.992  0.1606  0.8918  0.2662
  110OSM    C3F11320   4.632   1.267   6.889  0.4443  0.2706  0.6655
  110OSM    H3F11321   4.564   1.348   6.924  2.3095  2.4951 -0.5667
  110OSM    H3G11322   4.582   1.168   6.884  1.2203 -0.0699 -0.6824
  110OSM    C4F11323   4.683   1.314   6.749  0.6531 -0.1545  0.4674
  110OSM    H4F11324   4.784   1.272   6.734  1.1865  0.7165  1.4520
  110OSM    H4G11325   4.689   1.425   6.743 -1.4138 -0.0685 -1.6793
  110OSM    C5F11326   4.580   1.267   6.636 -0.9079  0.5359 -0.2942
  110OSM    H5F11327   4.487   1.324   6.656  0.2343  1.5826  2.6293
  110OSM    H5G11328   4.553   1.159   6.648 -0.1007  0.4436  0.8922
  110OSM    C6F11329   4.643   1.295   6.500 -1.1604  0.4639  0.2210
  110OSM    H6F11330   4.739   1.241   6.488 -1.1227  0.9064 -1.6872
  110OSM    H6G11331   4.655   1.404   6.485 -0.9381  0.2374 -1.4178
  110OSM    C7F11332   4.560   1.241   6.385  0.0804 -0.1627 -0.2850
  110OSM    H7F11333   4.469   1.305   6.391  0.2342  0.0798 -0.5524
  110OSM    H7G11334   4.529   1.135   6.401  0.4743 -0.2545 -0.1354
  110OSM    C8F11335   4.632   1.248   6.250  0.1891  0.2990  0.2288
  110OSM    H8F11336   4.566   1.196   6.177  0.4372  1.4528 -0.8539
  110OSM    H8G11337   4.730   1.197   6.255  0.3667  0.7596  3.2875
  110OSM    C9F11338   4.636   1.389   6.199 -0.3267 -0.2284 -0.6486
  110OSM    H9F11339   4.622   1.471   6.270 -1.8626 -0.9883 -0.0103
  110OSM   C10F11340   4.673   1.434   6.077 -0.3765  0.0883 -0.5770
  110OSM   H10F11341   4.670   1.542   6.056 -0.5478  0.6438  1.9079
  110OSM   C11F11342   4.707   1.339   5.965 -0.9403 -0.7493  0.3592
  110OSM   H11F11343   4.682   1.235   5.996 -0.0176 -0.4932  2.0714
  110OSM   H11G11344   4.817   1.345   5.949 -1.1211  0.7281 -0.4964
  110OSM   C12F11345   4.650   1.395   5.832 -0.6702 -0.2227 -0.1015
  110OSM   H12F11346   4.709   1.487   5.811 -0.3214 -0.0270  1.6072
  110OSM   H12G11347   4.541   1.400   5.850 -0.9690 -2.6379 -0.9216
  110OSM   C13F11348   4.669   1.278   5.728  0.2806  0.0155  0.7413
  110OSM   H13F11349   4.620   1.182   5.754 -0.2729 -0.5953 -2.2003
  110OSM   H13G11350   4.780   1.265   5.725  0.2484 -1.5945  3.3852
  110OSM   C14F11351   4.620   1.312   5.586 -0.0411  0.1317 -0.2903
  110OSM   H14F11352   4.509   1.301   5.584  0.0676 -1.1919  0.0907
  110OSM   H14G11353   4.655   1.245   5.504 -1.9169  0.4545 -1.4194
  110OSM   C15F11354   4.670   1.455   5.540  0.2729 -0.2046  0.7349
  110OSM   H15F11355   4.778   1.478   5.549  0.6726 -2.1866  1.4595
  110OSM   H15G11356   4.615   1.533   5.599  0.4412  0.3653  0.1521
  110OSM   C16F11357   4.643   1.479   5.385 -0.0165  0.0659 -0.4064
  110OSM   H16F11358   4.666   1.588   5.375 -1.8193  0.9198  3.0942
  110OSM   H16G11359   4.534   1.458   5.380  0.0225 -0.7898  1.6010
  110OSM   C17F11360   4.705   1.383   5.282 -0.5849 -0.8116  0.0865
  110OSM   H17F11361   4.676   1.277   5.297  0.7427 -1.6269 -2.5557
  110OSM   H17G11362   4.814   1.401   5.296 -0.5284  0.2909 -1.5192
  110OSM   C18F11363   4.663   1.417   5.136  0.4616  0.0301  0.2481
  110OSM   H18F11364   4.721   1.349   5.069  1.0531  1.4789 -0.7673
  110OSM   H18G11365   4.663   1.527   5.117 -0.8247  0.2224  1.2457
  110OSM   H18H11366   4.561   1.377   5.124  0.7657 -0.1334 -2.2517
  111OSM      N11367   1.107   6.158   7.071  0.3505 -0.2019  0.1897
  111OSM    C1511368   1.059   6.076   7.185  0.1300 -0.2450 -0.3792
  111OSM   H15A11369   1.112   6.089   7.279  0.1136 -0.5265 -0.3303
  111OSM   H15B11370   1.050   5.970   7.170  0.9286 -0.1405 -1.6768
  111OSM   H15C11371   0.956   6.108   7.199  0.6510  0.5188  2.3508
  111OSM    C1411372   1.110   6.299   7.112 -0.6028  0.3629 -0.1909
  111OSM   H14A11373   1.148   6.314   7.212 -0.7615 -2.0230  0.2839
  111OSM   H14B11374   1.009   6.338   7.107 -0.4684  0.7011 -0.3798
  111OSM   H14C11375   1.172   6.357   7.044 -1.4706  0.0783 -1.2552
  111OSM    C1311376   1.242   6.116   7.039 -0.1976  0.1305 -0.0830
  111OSM   H13A11377   1.233   6.014   7.005  1.4957  0.1323 -0.5975
  111OSM   H13B11378   1.316   6.117   7.117  0.9612 -0.9558 -1.1161
  111OSM   H13C11379   1.297   6.170   6.963  1.3274  0.1988  1.0214
  111OSM    C1211380   1.009   6.148   6.956  0.4441 -0.0347  0.2833
  111OSM   H12A11381   1.044   6.064   6.898 -1.8699  0.0284 -1.3133
  111OSM   H12B11382   1.031   6.229   6.889  0.4118  0.5747  1.0020
  111OSM    C1111383   0.853   6.147   6.982  0.4128 -0.3393 -0.1766
  111OSM   H11A11384   0.818   6.051   7.025 -2.2204  1.5116  2.2302
  111OSM   H11B11385   0.807   6.162   6.882  0.2743  1.8124  0.1489
  111OSM      P11386   0.649   6.273   7.065 -0.2354 -0.2134  0.1089
  111OSM    O1311387   0.591   6.152   7.111  0.3058 -0.1635 -0.3635
  111OSM    O1411388   0.626   6.397   7.141 -0.0108 -0.6158  0.3382
  111OSM    O1111389   0.603   6.295   6.921  0.1387 -0.0664  0.1543
  111OSM    O1211390   0.807   6.256   7.057 -0.4080  0.2006 -0.1130
  111OSM    C1S11391   0.654   6.402   6.840 -0.4349 -0.4163  0.4861
  111OSM    H1S11392   0.756   6.372   6.808 -0.5194  1.3162 -1.6376
  111OSM    H1T11393   0.653   6.500   6.893 -2.0295  0.5296 -1.1737
  111OSM     NF11394   0.640   6.544   6.648 -0.5881 -0.3530 -0.0998
  111OSM    HNF11395   0.601   6.634   6.665 -1.0133 -0.2809 -1.3229
  111OSM    C2S11396   0.573   6.431   6.710 -0.0645 -0.1085  0.0262
  111OSM    H2S11397   0.589   6.338   6.651  0.8994 -1.7854  2.7512
  111OSM    C3S11398   0.423   6.449   6.741 -0.7327 -0.4838 -0.2723
  111OSM    H3S11399   0.407   6.532   6.813 -1.2059  0.0823 -1.0206
  111OSM     O311400   0.353   6.340   6.804 -0.0080 -0.2121 -0.0460
  111OSM    HO311401   0.422   6.279   6.832 -0.4230 -1.7859 -2.1626
  111OSM    C4S11402   0.362   6.499   6.611 -0.3175 -0.0913  0.6168
  111OSM    H4S11403   0.349   6.607   6.591 -1.4480  0.0931  2.1865
  111OSM    C5S11404   0.327   6.409   6.517  0.0447  0.0506 -0.2073
  111OSM    H5S11405   0.352   6.303   6.526  5.2946  1.1282  1.7742
  111OSM    C6S11406   0.275   6.441   6.383  0.0123 -0.0852  0.2686
  111OSM    H6S11407   0.284   6.552   6.374 -0.4526 -0.0831 -0.2376
  111OSM    H6T11408   0.166   6.418   6.393  0.3424 -0.8984  2.3059
  111OSM    C7S11409   0.345   6.380   6.263 -0.3261  0.1873 -0.7529
  111OSM    H7S11410   0.378   6.274   6.264 -2.9744 -0.7399 -1.8635
  111OSM    H7T11411   0.440   6.436   6.252  0.0724  0.2906  2.2362
  111OSM    C8S11412   0.254   6.388   6.139  0.7656 -0.1598  0.1243
  111OSM    H8S11413   0.219   6.494   6.140 -1.0260 -0.7199  0.0636
  111OSM    H8T11414   0.163   6.325   6.152  1.4960 -1.2949 -0.2238
  111OSM    C9S11415   0.330   6.366   6.014 -0.2890  0.2714 -0.1376
  111OSM    H9S11416   0.387   6.272   6.028  0.6199  0.7902 -0.2702
  111OSM    H9T11417   0.403   6.449   6.001 -1.3905  1.3511  0.3834
  111OSM   C10S11418   0.256   6.372   5.890 -0.1215  0.0940  0.3211
  111OSM   H10S11419   0.311   6.441   5.822  1.2037  0.3090  1.5727
  111OSM   H10T11420   0.161   6.428   5.908  2.5587  4.6741  2.0155
  111OSM   C11S11421   0.236   6.238   5.818 -0.1951 -0.2612 -0.0235
  111OSM   H11S11422   0.172   6.169   5.877 -2.9346  0.2638 -2.1953
  111OSM   H11T11423   0.332   6.187   5.795 -0.0948  0.5654 -1.5556
  111OSM   C12S11424   0.165   6.256   5.691 -0.1008 -0.9876  0.1474
  111OSM   H12S11425   0.085   6.332   5.683 -1.4741 -2.4376 -0.6155
  111OSM   H12T11426   0.103   6.168   5.662 -1.6066 -0.1822  0.8047
  111OSM   C13S11427   0.261   6.282   5.567 -0.2208 -0.2840 -0.4141
  111OSM   H13S11428   0.332   6.366   5.586  1.3617 -2.0559  2.1285
  111OSM   H13T11429   0.202   6.321   5.482 -0.8182  0.3945  0.2965
  111OSM   C14S11430   0.337   6.155   5.522  0.0646 -0.3241  0.4566
  111OSM   H14S11431   0.268   6.070   5.507 -0.3209  0.0896 -0.1535
  111OSM   H14T11432   0.402   6.126   5.608 -0.7671  1.1944  1.6667
  111OSM   C15S11433   0.419   6.173   5.391 -0.4339  1.3219 -0.1447
  111OSM   H15S11434   0.495   6.253   5.407  1.0502 -0.1074  0.3410
  111OSM   H15T11435   0.356   6.192   5.301 -0.3450  0.0673 -0.4996
  111OSM   C16S11436   0.488   6.035   5.358  0.3504 -0.3300  0.4555
  111OSM   H16S11437   0.417   5.952   5.338  1.1869 -1.6555  2.6402
  111OSM   H16T11438   0.542   6.012   5.453  1.0052  0.3617  0.2583
  111OSM   C17S11439   0.588   6.045   5.244 -0.3210  0.2795  0.8237
  111OSM   H17S11440   0.644   6.140   5.254 -0.7209  0.5367  0.6712
  111OSM   H17T11441   0.536   6.079   5.152  0.9154  0.5971  0.2236
  111OSM   C18S11442   0.694   5.932   5.232  0.4487  0.1190  0.3473
  111OSM   H18S11443   0.641   5.834   5.233  1.6019 -0.5429  1.8955
  111OSM   H18T11444   0.752   5.918   5.326  0.7758 -1.2681 -0.0413
  111OSM   H18U11445   0.766   5.952   5.150  0.2991  0.1770  0.2304
  111OSM    C1F11446   0.765   6.543   6.605 -0.1225  0.2814 -0.6620
  111OSM     OF11447   0.832   6.446   6.585 -0.5720  0.3248  1.0524
  111OSM    C2F11448   0.818   6.676   6.568 -0.1891 -0.5785  0.0705
  111OSM    H2F11449   0.912   6.705   6.621  0.0619  0.4499 -0.9015
  111OSM    H2G11450   0.749   6.760   6.594 -1.4357 -1.4267 -0.4038
  111OSM    C3F11451   0.850   6.691   6.422  0.6331  0.1539  0.0996
  111OSM    H3F11452   0.943   6.643   6.387 -0.4459 -2.0019  0.0647
  111OSM    H3G11453   0.855   6.801   6.404 -1.7499  0.3572  0.3500
  111OSM    C4F11454   0.729   6.646   6.337  0.8005 -0.7227 -0.5277
  111OSM    H4F11455   0.637   6.658   6.398  1.0287 -1.7562  0.0432
  111OSM    H4G11456   0.746   6.538   6.319  1.3915 -0.6797 -0.2584
  111OSM    C5F11457   0.727   6.705   6.196  0.6116  0.6331 -1.3776
  111OSM    H5F11458   0.713   6.812   6.224  1.6332  0.3633  0.3245
  111OSM    H5G11459   0.642   6.680   6.130 -2.5841  2.6796  1.6260
  111OSM    C6F11460   0.858   6.678   6.126  0.7637  0.9725 -0.0503
  111OSM    H6F11461   0.885   6.570   6.124 -2.4395  0.0808  0.2169
  111OSM    H6G11462   0.934   6.740   6.179  1.1812  1.1012 -0.7802
  111OSM    C7F11463   0.856   6.709   5.977  0.2539  0.7728  0.1388
  111OSM    H7F11464   0.832   6.816   5.957  1.4235  0.9072 -0.6674
  111OSM    H7G11465   0.780   6.637   5.940 -0.4217  0.8328  1.3618
  111OSM    C8F11466   0.977   6.664   5.896 -0.4239  0.4821 -0.3185
  111OSM    H8F11467   0.966   6.701   5.792  2.7009  0.8259 -0.6267
  111OSM    H8G11468   1.001   6.556   5.885  0.0523  0.5996 -0.4892
  111OSM    C9F11469   1.096   6.725   5.963 -0.5927  0.1941  0.0987
  111OSM    H9F11470   1.167   6.653   6.007 -0.5251 -0.5545 -1.1739
  111OSM   C10F11471   1.135   6.857   5.959  0.0861 -0.2603  0.1167
  111OSM   H10F11472   1.234   6.883   5.999  0.5642  0.1185 -1.2611
  111OSM   C11F11473   1.065   6.971   5.890 -0.7067 -0.5117  0.0045
  111OSM   H11F11474   1.053   7.060   5.955 -0.1319 -0.7879  0.5101
  111OSM   H11G11475   0.966   6.942   5.848 -0.4340 -0.6319 -0.5669
  111OSM   C12F11476   1.154   7.014   5.767  0.4384 -0.0433 -0.0182
  111OSM   H12F11477   1.169   6.918   5.713  1.3278 -0.4234  0.8718
  111OSM   H12G11478   1.252   7.052   5.804  0.5246  0.0193 -0.3032
  111OSM   C13F11479   1.076   7.109   5.671  0.0597  0.2546  0.0164
  111OSM   H13F11480   0.970   7.077   5.679  0.3511 -0.2667  2.8523
  111OSM   H13G11481   1.122   7.081   5.574  2.6166 -0.0932  1.2388
  111OSM   C14F11482   1.097   7.259   5.693 -0.8765 -0.4005  0.5582
  111OSM   H14F11483   1.208   7.267   5.691 -0.8344 -1.1361 -0.4413
  111OSM   H14G11484   1.078   7.296   5.796  0.8608 -0.6402  1.0025
  111OSM   C15F11485   1.031   7.349   5.591  0.4532  0.4792 -0.4684
  111OSM   H15F11486   1.037   7.454   5.629 -2.1431  0.0582  1.4049
  111OSM   H15G11487   0.927   7.315   5.569 -0.0708  0.3517  1.8765
  111OSM   C16F11488   1.103   7.351   5.454 -0.6142 -0.9415  0.3201
  111OSM   H16F11489   1.101   7.247   5.415 -1.4475 -0.1884 -1.8002
  111OSM   H16G11490   1.210   7.379   5.468 -0.2665 -1.2991 -1.3200
  111OSM   C17F11491   1.042   7.442   5.350 -0.3448 -0.4184  0.0779
  111OSM   H17F11492   1.018   7.535   5.406  0.5155 -1.7316  2.8068
  111OSM   H17G11493   0.946   7.402   5.311 -0.1679  0.9483 -1.9201
  111OSM   C18F11494   1.128   7.496   5.228 -0.1574  0.3736  0.0593
  111OSM   H18F11495   1.060   7.553   5.161 -0.3671 -0.8023 -0.7578
  111OSM   H18G11496   1.170   7.411   5.171  1.1537  0.3481  1.0144
  111OSM   H18H11497   1.210   7.561   5.265 -1.2315  0.5013  2.3723
  112OSM      N11498   5.447   2.299   7.161  0.4903  0.1939  0.2716
  112OSM    C1511499   5.549   2.264   7.267  0.0694 -0.5966  0.5282
  112OSM   H15A11500   5.531   2.173   7.322  0.9406 -1.8018 -1.0928
  112OSM   H15B11501   5.562   2.349   7.333  1.8847  0.3441 -0.9573
  112OSM   H15C11502   5.649   2.250   7.228  0.5546 -1.1059  1.9058
  112OSM    C1411503   5.370   2.175   7.113 -0.1819 -0.2863 -0.0446
  112OSM   H14A11504   5.305   2.206   7.033 -0.5652 -0.9728 -0.0075
  112OSM   H14B11505   5.322   2.122   7.194  0.0714 -0.0919  0.2362
  112OSM   H14C11506   5.439   2.109   7.061 -0.9443 -0.0612 -1.3762
  112OSM    C1311507   5.345   2.392   7.219 -0.0610 -1.1995 -0.1994
  112OSM   H13A11508   5.263   2.400   7.148 -0.3518 -0.8949  0.1704
  112OSM   H13B11509   5.378   2.494   7.229 -1.0378 -0.9680  0.8560
  112OSM   H13C11510   5.321   2.363   7.320  2.5705  1.7421  1.4139
  112OSM    C1211511   5.515   2.365   7.039  0.4435  0.0823 -0.2186
  112OSM   H12A11512   5.603   2.304   7.025  0.3436  0.2633 -1.9275
  112OSM   H12B11513   5.559   2.460   7.067 -1.3366  1.2737 -1.2798
  112OSM    C1111514   5.436   2.395   6.909  0.2014  0.5044  0.3986
  112OSM   H11A11515   5.389   2.311   6.855  0.5289  1.2388 -1.0786
  112OSM   H11B11516   5.513   2.422   6.834  1.3878 -1.1926  0.9534
  112OSM      P11517   5.378   2.647   6.960  0.2229  0.1701 -0.3379
  112OSM    O1311518   5.250   2.718   7.002 -0.5101  0.0808 -0.4294
  112OSM    O1411519   5.490   2.651   7.057  0.8641 -0.1764 -0.1300
  112OSM    O1111520   5.420   2.699   6.817 -0.0443  0.2931  0.4129
  112OSM    O1211521   5.336   2.494   6.928  0.0637 -0.5566 -0.6614
  112OSM    C1S11522   5.350   2.647   6.699 -0.1662 -0.6304  0.1527
  112OSM    H1S11523   5.243   2.674   6.715 -0.2492 -0.6992 -0.2794
  112OSM    H1T11524   5.358   2.537   6.684  0.2586 -0.3401 -2.0759
  112OSM     NF11525   5.348   2.651   6.459 -0.0001 -0.7659 -0.6568
  112OSM    HNF11526   5.403   2.584   6.409  2.9613 -0.3091  1.6630
  112OSM    C2S11527   5.419   2.713   6.576  0.5974 -0.1820 -0.0194
  112OSM    H2S11528   5.388   2.819   6.586 -0.0570 -0.2532 -1.1210
  112OSM    C3S11529   5.573   2.720   6.566  0.2817  0.3821 -0.7007
  112OSM    H3S11530   5.613   2.617   6.570  0.0037  0.3088  2.8550
  112OSM     O311531   5.641   2.782   6.675  0.1334  0.0606 -0.2174
  112OSM    HO311532   5.592   2.764   6.755  0.7058  0.0933  0.1520
  112OSM    C4S11533   5.613   2.785   6.432 -0.4430  1.3122 -0.3050
  112OSM    H4S11534   5.594   2.712   6.352 -2.2174  2.5014 -1.0229
  112OSM    C5S11535   5.644   2.913   6.401  0.1023  0.1140 -0.4115
  112OSM    H5S11536   5.656   2.972   6.493  2.1654 -0.7953 -0.0313
  112OSM    C6S11537   5.680   2.969   6.264  0.1759 -0.1411 -0.2668
  112OSM    H6S11538   5.789   2.961   6.241  0.5808  4.6674 -0.9083
  112OSM    H6T11539   5.653   3.076   6.258  1.1262  0.1322  0.2411
  112OSM    C7S11540   5.588   2.897   6.158  0.0243 -0.4093  0.8674
  112OSM    H7S11541   5.484   2.910   6.197 -0.2525 -0.4676  0.1547
  112OSM    H7T11542   5.609   2.788   6.149 -2.1436 -0.8335  0.3399
  112OSM    C8S11543   5.613   2.954   6.015 -0.2680  0.4767  0.5597
  112OSM    H8S11544   5.722   2.967   5.997 -0.3462  1.2880  0.6195
  112OSM    H8T11545   5.567   3.055   6.003  1.0749  0.9627 -0.8309
  112OSM    C9S11546   5.550   2.852   5.907 -0.3324  0.0211 -0.6419
  112OSM    H9S11547   5.457   2.802   5.943 -0.6035  0.3974 -0.8198
  112OSM    H9T11548   5.624   2.773   5.881 -2.8703 -2.8202  0.1356
  112OSM   C10S11549   5.495   2.917   5.777 -0.2745 -0.1322  0.4888
  112OSM   H10S11550   5.451   3.009   5.821  4.3953  2.9099 -0.4203
  112OSM   H10T11551   5.412   2.862   5.728  0.7756  0.1729 -1.7758
  112OSM   C11S11552   5.589   2.960   5.665 -0.2207 -0.1308 -0.4456
  112OSM   H11S11553   5.663   2.882   5.637 -0.9099 -1.2864  0.8787
  112OSM   H11T11554   5.640   3.052   5.701 -2.3589  2.3631 -3.1966
  112OSM   C12S11555   5.519   2.996   5.537  0.0415  0.8215  0.4543
  112OSM   H12S11556   5.486   3.102   5.535  1.2075  1.1958  0.3484
  112OSM   H12T11557   5.428   2.931   5.542 -0.3854  1.4584  1.0611
  112OSM   C13S11558   5.603   2.973   5.412 -0.3332 -0.2121 -0.6576
  112OSM   H13S11559   5.622   2.866   5.386  0.8768 -0.6557  1.8460
  112OSM   H13T11560   5.704   3.017   5.425 -0.6413 -0.0181  1.3453
  112OSM   C14S11561   5.557   3.058   5.287  0.2062 -0.6993  0.3694
  112OSM   H14S11562   5.584   3.165   5.298  1.4976 -0.8669 -0.9170
  112OSM   H14T11563   5.447   3.053   5.291  0.2164 -0.3318  1.5952
  112OSM   C15S11564   5.607   3.008   5.149 -0.4004 -0.5208 -1.2878
  112OSM   H15S11565   5.716   3.032   5.141 -0.6715  0.4320 -2.3490
  112OSM   H15T11566   5.550   3.073   5.079 -0.9382  1.7380  1.0689
  112OSM   C16S11567   5.575   2.862   5.126  0.5563 -0.4829  0.6378
  112OSM   H16S11568   5.466   2.863   5.145  0.4129  1.1127 -0.1831
  112OSM   H16T11569   5.612   2.793   5.206  0.4495 -0.9486  0.2936
  112OSM   C17S11570   5.589   2.818   4.979  0.1404 -0.0601  0.6004
  112OSM   H17S11571   5.693   2.810   4.941 -0.4116 -0.1633 -0.9736
  112OSM   H17T11572   5.538   2.894   4.916  0.3546  0.4505  1.0333
  112OSM   C18S11573   5.519   2.684   4.949 -0.2814  0.2261 -0.2399
  112OSM   H18S11574   5.525   2.678   4.838  1.5260 -0.9376 -0.1234
  112OSM   H18T11575   5.415   2.682   4.986  0.2503  2.6776  1.6612
  112OSM   H18U11576   5.575   2.600   4.995  0.2515  0.5389 -0.3046
  112OSM    C1F11577   5.220   2.684   6.440  0.4804  0.2739  0.1328
  112OSM     OF11578   5.157   2.771   6.502 -0.0852  0.0614 -0.3526
  112OSM    C2F11579   5.147   2.611   6.339 -0.3321 -0.2692 -0.0697
  112OSM    H2F11580   5.055   2.665   6.308 -0.2645  0.3764  0.8119
  112OSM    H2G11581   5.100   2.524   6.390  0.6720  0.4380  2.2057
  112OSM    C3F11582   5.230   2.561   6.219  1.1423 -0.1818 -1.0386
  112OSM    H3F11583   5.152   2.506   6.160 -0.4409 -0.9907  1.6413
  112OSM    H3G11584   5.297   2.481   6.257 -1.1696 -1.9784 -0.4757
  112OSM    C4F11585   5.305   2.670   6.139 -0.8349  0.5425 -0.1051
  112OSM    H4F11586   5.374   2.616   6.071 -1.3617 -0.7073  0.3233
  112OSM    H4G11587   5.371   2.729   6.206  1.1408  0.3935 -1.8238
  112OSM    C5F11588   5.211   2.750   6.053 -0.1906  0.2399 -0.8162
  112OSM    H5F11589   5.272   2.841   6.033  2.6648 -1.3680 -0.0594
  112OSM    H5G11590   5.124   2.783   6.114  0.1983 -0.1191 -0.0513
  112OSM    C6F11591   5.173   2.685   5.919  0.5352  0.2915 -0.2159
  112OSM    H6F11592   5.136   2.583   5.943 -0.3265  0.8596  0.9936
  112OSM    H6G11593   5.265   2.680   5.856  0.0023  1.7783 -1.1664
  112OSM    C7F11594   5.058   2.762   5.839  0.6951  1.3809  0.1213
  112OSM    H7F11595   5.091   2.868   5.834  0.9444  1.3856  1.5010
  112OSM    H7G11596   4.972   2.751   5.907 -1.4674  0.8048 -2.5097
  112OSM    C8F11597   5.017   2.693   5.705 -0.2584  0.0468 -0.5077
  112OSM    H8F11598   5.110   2.680   5.646 -0.0365  3.2357 -1.0178
  112OSM    H8G11599   4.965   2.769   5.643 -0.8302  1.5526  1.7230
  112OSM    C9F11600   4.950   2.556   5.724  0.2202  0.0710  0.3018
  112OSM    H9F11601   4.930   2.532   5.830 -0.0258 -1.5883 -0.0964
  112OSM   C10F11602   4.931   2.456   5.630 -0.5712  0.2145 -0.7585
  112OSM   H10F11603   4.876   2.365   5.659  1.7159 -1.7117 -2.1199
  112OSM   C11F11604   4.961   2.458   5.484  0.1177 -0.1275 -0.4599
  112OSM   H11F11605   4.941   2.357   5.443  1.9323 -0.2924 -1.0132
  112OSM   H11G11606   5.068   2.484   5.473 -0.5221  2.5747 -1.2533
  112OSM   C12F11607   4.883   2.562   5.396  0.4202 -0.1383 -0.0579
  112OSM   H12F11608   4.957   2.643   5.413  1.8212 -1.1623 -1.0046
  112OSM   H12G11609   4.785   2.590   5.440  0.8488 -0.9727  1.5251
  112OSM   C13F11610   4.892   2.524   5.236  0.2701 -0.0941 -0.2975
  112OSM   H13F11611   4.996   2.488   5.221  1.2989  3.1017 -1.8632
  112OSM   H13G11612   4.887   2.605   5.160 -0.7111  0.4756  0.3478
  112OSM   C14F11613   4.794   2.410   5.189 -0.4143 -0.2682  0.0952
  112OSM   H14F11614   4.689   2.445   5.182 -1.4090 -2.7093  1.5233
  112OSM   H14G11615   4.786   2.333   5.269 -1.2819  0.9268  1.2068
  112OSM   C15F11616   4.834   2.345   5.055 -0.0427  0.3109  0.5183
  112OSM   H15F11617   4.766   2.257   5.053  0.2099  0.0578  2.0258
  112OSM   H15G11618   4.938   2.307   5.063  0.0856 -0.2111 -2.4810
  112OSM   C16F11619   4.805   2.428   4.931  0.3253 -0.2982 -0.2605
  112OSM   H16F11620   4.866   2.521   4.929 -0.2296  0.0674 -2.2513
  112OSM   H16G11621   4.707   2.468   4.962  0.9627  0.6763  0.5650
  112OSM   C17F11622   4.825   2.351   4.804 -0.7658 -0.6573  0.5241
  112OSM   H17F11623   4.750   2.269   4.803 -1.1226 -0.3584  1.5492
  112OSM   H17G11624   4.932   2.323   4.795 -0.3735  0.9244 -0.0675
  112OSM   C18F11625   4.804   2.441   4.678 -0.3250  0.8040  0.3208
  112OSM   H18F11626   4.704   2.489   4.680 -0.3746  0.7216 -0.0730
  112OSM   H18G11627   4.795   2.381   4.585 -0.8300  1.1682  0.1311
  112OSM   H18H11628   4.886   2.515   4.673  0.3635  0.0396  0.1037
  113OSM      N11629   6.011   5.218   7.313  0.8968 -0.6209 -0.4252
  113OSM    C1511630   5.868   5.211   7.354  0.0651 -0.0821  0.2959
  113OSM   H15A11631   5.860   5.145   7.439 -0.7084 -1.6617 -0.9685
  113OSM   H15B11632   5.813   5.160   7.277 -0.5142  1.1664 -0.1458
  113OSM   H15C11633   5.817   5.304   7.372  0.4455  0.4705 -1.3136
  113OSM    C1411634   6.082   5.311   7.407  0.1008  0.5616  0.7080
  113OSM   H14A11635   6.186   5.315   7.378 -0.4475  0.5856 -1.4448
  113OSM   H14B11636   6.072   5.269   7.506 -0.7399 -2.0617 -0.3994
  113OSM   H14C11637   6.040   5.411   7.407  0.1861  0.7039  3.6971
  113OSM    C1311638   6.074   5.080   7.289 -0.1452 -0.3140 -0.1689
  113OSM   H13A11639   6.031   5.024   7.207 -1.4545 -2.1701  1.6827
  113OSM   H13B11640   6.063   5.017   7.376  3.7523 -0.4411  0.4034
  113OSM   H13C11641   6.178   5.087   7.258 -0.1681  0.1514 -0.1368
  113OSM    C1211642   6.021   5.290   7.177  0.0412  0.1873 -0.1547
  113OSM   H12A11643   6.127   5.307   7.165  0.0898  0.2924  0.3973
  113OSM   H12B11644   5.974   5.386   7.184  0.7951  0.4849  1.4188
  113OSM    C1111645   5.974   5.216   7.054 -0.0793 -0.1146 -0.7311
  113OSM   H11A11646   5.996   5.296   6.980  0.6687  0.6047  0.2446
  113OSM   H11B11647   5.866   5.192   7.049 -0.0566 -0.5276  0.4136
  113OSM      P11648   6.007   5.019   6.894  0.0051 -0.0980 -0.2486
  113OSM    O1311649   6.110   4.921   6.860  0.4315 -0.9924 -0.6332
  113OSM    O1411650   5.871   4.964   6.922  0.4824  0.2719 -0.2035
  113OSM    O1111651   5.993   5.131   6.785  0.2074 -0.0026 -0.5487
  113OSM    O1211652   6.058   5.098   7.021 -0.0800 -0.2891 -0.2479
  113OSM    C1S11653   6.108   5.205   6.741 -0.1837  0.3512  0.7016
  113OSM    H1S11654   6.197   5.139   6.742 -0.4605 -0.0568 -0.2761
  113OSM    H1T11655   6.121   5.290   6.811 -2.2427  0.5400  0.9287
  113OSM     NF11656   6.217   5.296   6.542  0.3397  0.4842 -0.1299
  113OSM    HNF11657   6.235   5.394   6.551 -0.0583  0.8619 -2.7402
  113OSM    C2S11658   6.087   5.255   6.593  0.1071  0.2346  0.4515
  113OSM    H2S11659   6.060   5.161   6.540  0.2047  0.4545  0.0035
  113OSM    C3S11660   5.967   5.356   6.586  0.3150 -1.0446  0.8652
  113OSM    H3S11661   6.003   5.451   6.631  0.0093  0.1727 -1.3238
  113OSM     O311662   5.855   5.306   6.656 -0.3182  0.2068 -0.7526
  113OSM    HO311663   5.903   5.243   6.710 -0.3387 -0.7304 -1.7867
  113OSM    C4S11664   5.932   5.383   6.443  0.3860 -0.7179  0.0676
  113OSM    H4S11665   6.012   5.440   6.393  0.2620  0.1816  0.8550
  113OSM    C5S11666   5.820   5.357   6.371  0.1229  0.1288  0.2076
  113OSM    H5S11667   5.732   5.315   6.423  0.0632 -0.7813 -0.6044
  113OSM    C6S11668   5.794   5.390   6.226  0.5858 -0.5397 -0.0158
  113OSM    H6S11669   5.723   5.475   6.216  0.8804 -0.0634  1.6153
  113OSM    H6T11670   5.744   5.298   6.189  0.2462  0.0775 -1.1285
  113OSM    C7S11671   5.925   5.402   6.147  0.9303 -0.4721  0.4707
  113OSM    H7S11672   5.981   5.309   6.168  1.7207 -0.7924 -2.5326
  113OSM    H7T11673   5.982   5.491   6.183  0.1852 -0.1527  0.8823
  113OSM    C8S11674   5.907   5.416   5.995  0.3066  0.0047 -0.0223
  113OSM    H8S11675   6.004   5.396   5.945 -0.8331 -0.6125 -2.1126
  113OSM    H8T11676   5.881   5.524   5.989  0.5104  0.1539  1.5654
  113OSM    C9S11677   5.793   5.330   5.933 -0.4143 -0.8086  1.7133
  113OSM    H9S11678   5.690   5.354   5.968 -0.6447 -1.7284  1.6970
  113OSM    H9T11679   5.807   5.223   5.961  1.0757 -2.1842 -3.1938
  113OSM   C10S11680   5.796   5.338   5.775 -0.1050  0.0129 -0.0306
  113OSM   H10S11681   5.899   5.314   5.741 -0.3775  1.5820 -2.1557
  113OSM   H10T11682   5.768   5.435   5.730  0.0243  0.0613 -0.0084
  113OSM   C11S11683   5.713   5.231   5.707 -0.2794  0.1748 -0.1200
  113OSM   H11S11684   5.606   5.257   5.722  0.1152  1.4008  0.7542
  113OSM   H11T11685   5.721   5.134   5.761  0.2156  2.6987  4.8821
  113OSM   C12S11686   5.756   5.215   5.564 -0.6095  0.1916  0.8115
  113OSM   H12S11687   5.856   5.168   5.555 -1.4776 -1.3183 -2.4634
  113OSM   H12T11688   5.756   5.313   5.512 -1.7719 -1.2774 -2.1584
  113OSM   C13S11689   5.665   5.126   5.485  0.0786  0.0521  0.3053
  113OSM   H13S11690   5.573   5.177   5.449  0.0030 -1.4224 -1.8066
  113OSM   H13T11691   5.630   5.044   5.551 -1.3678 -0.8231 -1.4468
  113OSM   C14S11692   5.741   5.057   5.365  0.1372 -0.5263 -0.4159
  113OSM   H14S11693   5.834   5.001   5.389  0.8668  0.6814 -0.3048
  113OSM   H14T11694   5.783   5.136   5.299  0.8117 -0.7140 -0.2166
  113OSM   C15S11695   5.645   4.970   5.280  0.7618  0.3460 -0.3981
  113OSM   H15S11696   5.557   5.027   5.243  0.9854 -0.1399 -1.7289
  113OSM   H15T11697   5.610   4.891   5.350  2.5722 -1.0546 -1.0006
  113OSM   C16S11698   5.727   4.903   5.173 -0.2483  0.1128  0.4444
  113OSM   H16S11699   5.830   4.884   5.209 -0.4892 -1.8078  0.2084
  113OSM   H16T11700   5.745   4.975   5.090  2.9561  0.4458  1.2925
  113OSM   C17S11701   5.649   4.784   5.100 -0.1285 -0.6148  0.0504
  113OSM   H17S11702   5.552   4.818   5.056 -1.0046  0.5946  2.7382
  113OSM   H17T11703   5.618   4.716   5.182 -1.1160  0.2876  0.4509
  113OSM   C18S11704   5.732   4.726   4.986  0.1597  0.0244  0.3149
  113OSM   H18S11705   5.695   4.626   4.954  1.0185 -0.2500  0.1717
  113OSM   H18T11706   5.839   4.725   5.013  0.1269  0.8246  0.5138
  113OSM   H18U11707   5.730   4.783   4.891 -0.1984 -1.4845 -0.6074
  113OSM    C1F11708   6.309   5.205   6.501  0.6805  0.5920  0.4025
  113OSM     OF11709   6.281   5.092   6.474  0.1952  0.0365  0.2221
  113OSM    C2F11710   6.445   5.266   6.495 -0.1575  0.8914 -0.4098
  113OSM    H2F11711   6.517   5.210   6.558 -1.5251  0.6709  1.0520
  113OSM    H2G11712   6.452   5.369   6.536 -1.8941  0.2400  1.7396
  113OSM    C3F11713   6.509   5.262   6.357  0.2477 -0.0760  0.9467
  113OSM    H3F11714   6.542   5.157   6.337 -0.9635 -0.6194  1.7284
  113OSM    H3G11715   6.599   5.327   6.366 -0.1485  0.4150  1.4104
  113OSM    C4F11716   6.421   5.299   6.238 -0.3203 -1.2440  0.2717
  113OSM    H4F11717   6.408   5.403   6.273  3.6830 -0.7288  0.6671
  113OSM    H4G11718   6.331   5.234   6.243  0.4529 -2.2965  1.2108
  113OSM    C5F11719   6.501   5.276   6.109 -0.2414 -1.0307 -1.0890
  113OSM    H5F11720   6.523   5.167   6.105 -0.1237 -1.3806  3.8012
  113OSM    H5G11721   6.585   5.348   6.116 -1.3409  0.1903  0.1369
  113OSM    C6F11722   6.405   5.315   5.993  0.8912  0.0279 -0.4759
  113OSM    H6F11723   6.386   5.422   6.011 -1.0300 -0.6611  2.2235
  113OSM    H6G11724   6.306   5.264   5.995  1.6574 -1.5026  0.0173
  113OSM    C7F11725   6.453   5.295   5.852 -1.1587 -0.0484 -0.2864
  113OSM    H7F11726   6.499   5.194   5.842  1.5142  1.0422  0.2138
  113OSM    H7G11727   6.530   5.371   5.828 -1.1308  0.1349  0.3817
  113OSM    C8F11728   6.335   5.308   5.751  0.3477  0.5278  0.1917
  113OSM    H8F11729   6.378   5.316   5.649  0.1869  0.6445  0.1316
  113OSM    H8G11730   6.293   5.407   5.779 -2.4966 -0.1743 -1.1782
  113OSM    C9F11731   6.221   5.206   5.760  0.4941  0.3042  0.1466
  113OSM    H9F11732   6.167   5.209   5.856 -0.1374 -2.8359 -0.0000
  113OSM   C10F11733   6.175   5.131   5.663  1.1324 -0.0692  0.3861
  113OSM   H10F11734   6.086   5.069   5.680  0.1724 -0.0988 -3.6775
  113OSM   C11F11735   6.222   5.122   5.521 -0.1693 -0.4448 -0.1801
  113OSM   H11F11736   6.212   5.012   5.506  0.4588 -0.3311 -1.6073
  113OSM   H11G11737   6.330   5.149   5.514 -0.6511  1.9597  0.6802
  113OSM   C12F11738   6.128   5.182   5.420  0.7588 -0.4593  0.2007
  113OSM   H12F11739   6.127   5.291   5.442  0.4944 -0.2149 -0.9670
  113OSM   H12G11740   6.026   5.140   5.426  1.2080 -1.5531  0.4313
  113OSM   C13F11741   6.183   5.157   5.278 -0.5768  0.5400 -0.9772
  113OSM   H13F11742   6.219   5.053   5.287  0.1589  0.8959  0.4698
  113OSM   H13G11743   6.273   5.221   5.267 -1.0823  1.5258  0.3356
  113OSM   C14F11744   6.081   5.167   5.164  0.5772  0.2947  0.3614
  113OSM   H14F11745   6.035   5.268   5.171 -0.5706 -0.0228 -1.7760
  113OSM   H14G11746   5.996   5.101   5.188 -1.1085  2.3710  0.3969
  113OSM   C15F11747   6.139   5.140   5.023 -0.1711 -0.3653 -0.4965
  113OSM   H15F11748   6.219   5.066   5.045 -1.2980 -0.7525  2.8814
  113OSM   H15G11749   6.193   5.235   5.005  1.9442 -1.2518  0.7889
  113OSM   C16F11750   6.041   5.099   4.915 -0.0517 -0.8900  0.0483
  113OSM   H16F11751   5.989   5.006   4.946 -0.6710 -0.2591  0.9649
  113OSM   H16G11752   6.109   5.068   4.833  1.6269  0.2610  0.9406
  113OSM   C17F11753   5.927   5.202   4.863 -0.2859  0.0905 -0.2721
  113OSM   H17F11754   5.895   5.172   4.761 -0.1152  0.0748 -0.3217
  113OSM   H17G11755   5.983   5.298   4.861  0.4887 -0.3595 -1.1368
  113OSM   C18F11756   5.803   5.224   4.954  0.2720 -0.5560  0.5273
  113OSM   H18F11757   5.752   5.322   4.951 -2.1836 -1.7668 -0.8763
  113OSM   H18G11758   5.825   5.194   5.058  3.1766 -0.1534  0.0915
  113OSM   H18H11759   5.721   5.156   4.921  0.3780 -0.7859  0.7380
  114OSM      N11760   0.611   3.854   7.225 -0.9049  0.3542  0.0810
  114OSM    C1511761   0.578   3.924   7.356  0.2884  0.3496 -0.9770
  114OSM   H15A11762   0.563   3.854   7.437  1.3654  1.6194  0.3819
  114OSM   H15B11763   0.484   3.977   7.355  1.0882  1.8689 -0.0138
  114OSM   H15C11764   0.653   3.994   7.391 -0.2639 -1.1183  3.7958
  114OSM    C1411765   0.633   3.953   7.121  0.1282  0.1069 -0.4136
  114OSM   H14A11766   0.707   4.028   7.144  1.6798 -1.3753 -0.3574
  114OSM   H14B11767   0.542   4.003   7.090  0.0965 -0.9795 -2.1724
  114OSM   H14C11768   0.673   3.901   7.036  0.4142 -1.1493  0.4546
  114OSM    C1311769   0.744   3.773   7.232 -0.2667  0.9586  0.0381
  114OSM   H13A11770   0.737   3.693   7.304 -1.8480  0.6794 -0.3877
  114OSM   H13B11771   0.830   3.833   7.259 -0.5594  0.0603  3.3998
  114OSM   H13C11772   0.760   3.733   7.133  2.2214  1.4685  0.1550
  114OSM    C1211773   0.501   3.765   7.171  0.2325 -0.5500 -0.2169
  114OSM   H12A11774   0.523   3.718   7.076 -3.2261 -4.3820  0.6126
  114OSM   H12B11775   0.422   3.833   7.142  2.1478  1.7395 -0.3868
  114OSM    C1111776   0.456   3.654   7.275 -0.7753  0.1347  0.4035
  114OSM   H11A11777   0.394   3.696   7.357 -3.2254 -0.4774 -1.0334
  114OSM   H11B11778   0.548   3.607   7.317 -1.2294  0.2986  1.6355
  114OSM      P11779   0.436   3.453   7.090 -0.1594  0.0720 -0.1395
  114OSM    O1311780   0.519   3.350   7.163  0.3868  0.2963 -0.3250
  114OSM    O1411781   0.323   3.405   7.009 -0.5146  0.2672  0.6265
  114OSM    O1111782   0.527   3.544   7.004  1.0588 -0.4296 -0.2716
  114OSM    O1211783   0.381   3.563   7.196  0.1782 -0.1607  0.1041
  114OSM    C1S11784   0.644   3.503   6.939  0.8929  0.2879  0.1586
  114OSM    H1S11785   0.632   3.400   6.900 -2.4657  0.5687  0.1805
  114OSM    H1T11786   0.720   3.508   7.021  2.5569 -0.6673 -1.2542
  114OSM     NF11787   0.825   3.566   6.781  0.0498 -0.1895  0.1732
  114OSM    HNF11788   0.881   3.641   6.816 -2.9698  1.6144  1.4794
  114OSM    C2S11789   0.683   3.595   6.818 -1.0791  0.1792  0.4448
  114OSM    H2S11790   0.619   3.562   6.733 -1.1742  1.0667  0.1698
  114OSM    C3S11791   0.649   3.747   6.840 -0.0705 -0.0915  0.4591
  114OSM    H3S11792   0.711   3.777   6.928  1.5708 -0.2768 -0.5931
  114OSM     O311793   0.508   3.777   6.863  0.4209  0.0017  0.3733
  114OSM    HO311794   0.482   3.686   6.881  0.8147 -0.3599 -0.7736
  114OSM    C4S11795   0.702   3.812   6.717  0.6278  0.3464 -0.5470
  114OSM    H4S11796   0.809   3.837   6.724  1.4314 -2.7438 -0.2605
  114OSM    C5S11797   0.648   3.816   6.589 -0.0075  0.1980 -0.4152
  114OSM    H5S11798   0.548   3.772   6.570  0.5766 -1.1343 -0.5528
  114OSM    C6S11799   0.721   3.865   6.470 -0.7903  0.2723  0.3565
  114OSM    H6S11800   0.821   3.906   6.494  0.8305 -2.2826 -1.5847
  114OSM    H6T11801   0.660   3.952   6.437  0.1791  0.9250  0.2546
  114OSM    C7S11802   0.736   3.774   6.346  0.1910  0.0096 -0.1324
  114OSM    H7S11803   0.636   3.752   6.301  0.3764  1.7655 -1.5348
  114OSM    H7T11804   0.780   3.678   6.379 -0.7182  0.4027  2.4866
  114OSM    C8S11805   0.826   3.834   6.238 -0.2988  0.3246 -0.3279
  114OSM    H8S11806   0.932   3.835   6.271  0.3147  2.8531 -2.0882
  114OSM    H8T11807   0.801   3.942   6.229  1.0041  1.1078  3.5132
  114OSM    C9S11808   0.808   3.764   6.103 -0.2461  0.1920  0.0552
  114OSM    H9S11809   0.706   3.786   6.066 -0.9765 -0.7955  1.3745
  114OSM    H9T11810   0.801   3.654   6.117  1.5364  0.0137 -0.1425
  114OSM   C10S11811   0.897   3.817   5.987  0.6863  0.2025 -0.6089
  114OSM   H10S11812   1.000   3.790   6.017  0.5003  1.8325  1.8248
  114OSM   H10T11813   0.894   3.928   5.989 -2.6079  0.2362  1.8479
  114OSM   C11S11814   0.871   3.765   5.841 -0.4433  0.4163  0.3607
  114OSM   H11S11815   0.765   3.782   5.812 -0.2219 -0.5701 -1.1110
  114OSM   H11T11816   0.898   3.658   5.828 -1.5608  0.3216 -1.4813
  114OSM   C12S11817   0.953   3.844   5.738  1.3979  0.6597 -0.6439
  114OSM   H12S11818   1.051   3.857   5.788  0.7752  1.3522  0.4465
  114OSM   H12T11819   0.908   3.945   5.737 -1.0170 -0.3094  0.1953
  114OSM   C13S11820   0.969   3.774   5.604  0.4101 -0.0202 -0.0246
  114OSM   H13S11821   1.001   3.668   5.601 -0.4748 -0.2780 -1.8893
  114OSM   H13T11822   1.038   3.821   5.531 -0.7255 -3.0003 -3.2667
  114OSM   C14S11823   0.837   3.760   5.527  0.1320 -0.2946 -0.0557
  114OSM   H14S11824   0.779   3.854   5.520 -1.8423 -1.4460  0.0654
  114OSM   H14T11825   0.763   3.702   5.587  1.0188 -1.4769 -0.0643
  114OSM   C15S11826   0.852   3.694   5.386  0.7098  0.0510  0.1453
  114OSM   H15S11827   0.751   3.658   5.360  0.5478  0.6779 -0.1296
  114OSM   H15T11828   0.916   3.603   5.388  1.8955  0.8672  2.5639
  114OSM   C16S11829   0.918   3.786   5.287  0.5227  0.1644 -0.4769
  114OSM   H16S11830   1.019   3.814   5.323  0.0756  0.6078  0.4550
  114OSM   H16T11831   0.852   3.875   5.284  1.1966  0.7680  1.1288
  114OSM   C17S11832   0.910   3.712   5.148  0.3424 -0.6592  0.3226
  114OSM   H17S11833   0.813   3.660   5.134  1.1778 -1.9373 -0.9796
  114OSM   H17T11834   0.991   3.636   5.154  2.3398  1.2906 -0.5273
  114OSM   C18S11835   0.932   3.808   5.028  0.1325 -0.1283 -0.4028
  114OSM   H18S11836   0.912   3.749   4.936  0.7175 -1.7677  0.4721
  114OSM   H18T11837   1.038   3.842   5.022 -0.0308  1.0977  2.1311
  114OSM   H18U11838   0.863   3.893   5.044 -1.3886 -1.5480  0.9696
  114OSM    C1F11839   0.868   3.453   6.719  0.4023 -0.2795  0.8532
  114OSM     OF11840   0.794   3.358   6.707  0.3165  0.2875 -0.3303
  114OSM    C2F11841   1.010   3.450   6.675 -0.1986  0.1958  0.6144
  114OSM    H2F11842   1.025   3.340   6.682 -0.0377 -0.0484 -2.3499
  114OSM    H2G11843   1.071   3.500   6.754  1.7955 -3.0821  1.3562
  114OSM    C3F11844   1.028   3.509   6.529 -0.3234  0.1855 -0.2136
  114OSM    H3F11845   1.136   3.529   6.513 -0.0067  0.6864  2.1821
  114OSM    H3G11846   0.980   3.609   6.521  1.4456  0.9978 -1.2852
  114OSM    C4F11847   0.981   3.412   6.416 -0.3072 -0.5516  0.6660
  114OSM    H4F11848   0.872   3.404   6.400  0.1513 -0.7517 -3.4710
  114OSM    H4G11849   1.022   3.311   6.438 -0.2939 -0.3797  1.4669
  114OSM    C5F11850   1.032   3.458   6.279 -0.2013  0.1087 -0.3369
  114OSM    H5F11851   1.139   3.479   6.301 -0.1818 -0.5194  0.1982
  114OSM    H5G11852   0.981   3.554   6.253 -1.1760 -0.3757 -0.2708
  114OSM    C6F11853   1.014   3.349   6.170 -0.4812 -0.1875 -0.3971
  114OSM    H6F11854   0.909   3.344   6.133 -0.1538  0.5052 -1.4700
  114OSM    H6G11855   1.030   3.252   6.221 -2.8124 -0.3264  0.1937
  114OSM    C7F11856   1.127   3.359   6.056  0.7002  0.1329  0.4961
  114OSM    H7F11857   1.106   3.287   5.974  2.1006  1.0170 -0.6910
  114OSM    H7G11858   1.228   3.342   6.098  1.0673  2.1799  0.5706
  114OSM    C8F11859   1.133   3.497   5.988  0.0403 -0.5785  0.2474
  114OSM    H8F11860   1.187   3.564   6.059 -0.8363  1.1413 -0.6481
  114OSM    H8G11861   1.034   3.545   5.970 -0.1634 -0.7937  0.7708
  114OSM    C9F11862   1.209   3.496   5.851 -0.1360  0.3676 -0.5872
  114OSM    H9F11863   1.189   3.412   5.783 -0.2165  0.1097 -0.2523
  114OSM   C10F11864   1.296   3.591   5.815  0.1503  0.8001 -0.3313
  114OSM   H10F11865   1.346   3.591   5.717 -0.8011 -1.0716 -0.8629
  114OSM   C11F11866   1.317   3.721   5.898 -0.4431 -0.0732 -0.2949
  114OSM   H11F11867   1.227   3.750   5.956  0.7919  0.9081  1.2220
  114OSM   H11G11868   1.337   3.799   5.821  3.8349 -1.4738 -0.8963
  114OSM   C12F11869   1.437   3.728   5.995 -0.1181 -0.8378  0.1582
  114OSM   H12F11870   1.456   3.833   6.026 -0.5974 -0.8292  0.4253
  114OSM   H12G11871   1.522   3.698   5.930  0.3541  2.1301 -0.7492
  114OSM   C13F11872   1.425   3.641   6.120  0.1759  0.1325  0.2020
  114OSM   H13F11873   1.420   3.533   6.097  2.3141 -0.3468  1.7737
  114OSM   H13G11874   1.326   3.659   6.168  0.6114  1.7676  0.5627
  114OSM   C14F11875   1.544   3.663   6.214  0.1287 -0.3970  0.4803
  114OSM   H14F11876   1.550   3.770   6.243 -2.9701 -0.3332  1.2815
  114OSM   H14G11877   1.638   3.647   6.157  0.5752  3.0035  0.0331
  114OSM   C15F11878   1.531   3.571   6.329  0.1912 -0.1760 -0.2494
  114OSM   H15F11879   1.565   3.467   6.311  1.5468 -0.0702  1.4455
  114OSM   H15G11880   1.427   3.559   6.366  0.9395 -1.4220  1.5899
  114OSM   C16F11881   1.611   3.622   6.442  0.3964  0.1805  0.1175
  114OSM   H16F11882   1.613   3.733   6.454  1.7498  0.1513  0.2626
  114OSM   H16G11883   1.715   3.597   6.413  0.5004  2.5193 -1.9646
  114OSM   C17F11884   1.569   3.566   6.577 -0.0443  0.4259 -0.2550
  114OSM   H17F11885   1.638   3.613   6.651 -2.5814  1.1630  1.7949
  114OSM   H17G11886   1.589   3.457   6.579 -5.4168 -0.8113 -0.4020
  114OSM   C18F11887   1.426   3.589   6.625  0.3883 -0.0398 -0.1500
  114OSM   H18F11888   1.403   3.697   6.611 -1.1570 -0.5511 -2.0435
  114OSM   H18G11889   1.414   3.540   6.724  2.6644 -0.3368  0.0300
  114OSM   H18H11890   1.356   3.540   6.555 -0.7123  0.7220  0.3940
  115OSM      N11891   0.273   6.352   7.316 -0.3495  0.1298 -0.1729
  115OSM    C1511892   0.357   6.365   7.436 -0.1008  0.4677 -0.5343
  115OSM   H15A11893   0.341   6.453   7.496 -2.5735 -0.1443 -0.1768
  115OSM   H15B11894   0.462   6.362   7.415 -0.2983 -0.5754 -1.4744
  115OSM   H15C11895   0.337   6.287   7.508 -1.1986  2.7103  1.7654
  115OSM    C1411896   0.301   6.212   7.257 -0.1216 -0.4327 -0.8391
  115OSM   H14A11897   0.406   6.201   7.233  0.4386  0.0662  1.1845
  115OSM   H14B11898   0.252   6.207   7.161 -1.5766  0.9050 -0.2090
  115OSM   H14C11899   0.275   6.137   7.330 -1.1998  2.7989  2.3833
  115OSM    C1311900   0.121   6.350   7.345 -1.1120  0.2286 -0.1463
  115OSM   H13A11901   0.064   6.316   7.259 -1.2567  1.0952 -0.4040
  115OSM   H13B11902   0.082   6.447   7.373 -0.2484 -0.0600  2.2316
  115OSM   H13C11903   0.102   6.276   7.421 -1.5753 -1.3257 -1.6928
  115OSM    C1211904   0.314   6.467   7.230  0.0488  0.2607  0.2522
  115OSM   H12A11905   0.261   6.463   7.136  0.0381 -2.9570  0.2947
  115OSM   H12B11906   0.418   6.452   7.205 -0.2208  1.0866 -1.4791
  115OSM    C1111907   0.284   6.610   7.292  0.2032  0.2410  0.3894
  115OSM   H11A11908   0.345   6.607   7.385  0.3727  2.2252  0.3743
  115OSM   H11B11909   0.177   6.616   7.322  0.3253  0.3837  0.8068
  115OSM      P11910   0.296   6.865   7.236  0.1512 -0.2272  0.1264
  115OSM    O1311911   0.173   6.872   7.321  0.1737 -0.1403 -0.2321
  115OSM    O1411912   0.420   6.936   7.280  0.0223 -0.4915  0.1831
  115OSM    O1111913   0.243   6.921   7.093 -0.4843 -0.0512  0.1149
  115OSM    O1211914   0.331   6.715   7.207  0.0567  0.1694  0.5731
  115OSM    C1S11915   0.334   6.910   6.977  0.2061  0.0459  0.3664
  115OSM    H1S11916   0.436   6.871   6.999 -0.2678 -0.7597  1.1497
  115OSM    H1T11917   0.355   7.013   6.939 -2.4022  0.3877 -0.2954
  115OSM     NF11918   0.321   6.892   6.721  0.5560  0.2324 -0.6349
  115OSM    HNF11919   0.258   6.960   6.686  1.1129  0.2852 -1.5729
  115OSM    C2S11920   0.288   6.829   6.855  0.2997 -0.1672  0.6981
  115OSM    H2S11921   0.337   6.729   6.858 -0.5599 -0.6994 -1.4351
  115OSM    C3S11922   0.140   6.795   6.873  0.8336  0.2190 -0.1194
  115OSM    H3S11923   0.077   6.884   6.895 -0.6914 -0.6337 -0.8629
  115OSM     O311924   0.117   6.707   6.979 -0.0718  0.0591 -0.8963
  115OSM    HO311925   0.158   6.754   7.052 -1.1356  1.3074 -1.0637
  115OSM    C4S11926   0.087   6.727   6.747 -0.2075 -0.1591 -0.4846
  115OSM    H4S11927   0.118   6.623   6.762 -2.4404 -0.4526  3.5138
  115OSM    C5S11928  -0.001   6.761   6.655 -0.9848 -1.1779 -0.0181
  115OSM    H5S11929  -0.034   6.866   6.651  1.1649 -0.4903 -2.0109
  115OSM    C6S11930  -0.034   6.669   6.544  0.4909 -0.0131 -0.0348
  115OSM    H6S11931  -0.144   6.658   6.551  0.3574  0.3849 -1.2653
  115OSM    H6T11932   0.009   6.567   6.559 -3.1277 -1.5671  0.8642
  115OSM    C7S11933   0.017   6.733   6.413  0.1638  0.1161 -0.8421
  115OSM    H7S11934   0.125   6.708   6.418 -0.0812 -0.7298  2.1857
  115OSM    H7T11935   0.008   6.842   6.391 -1.2853  0.2301  0.1810
  115OSM    C8S11936  -0.045   6.668   6.293 -0.9848  0.1531  0.1220
  115OSM    H8S11937  -0.144   6.648   6.339 -0.5414 -2.1229  0.1958
  115OSM    H8T11938   0.001   6.568   6.277 -1.5056 -0.3185  1.3697
  115OSM    C9S11939  -0.057   6.757   6.166  0.0146 -0.7176 -0.4977
  115OSM    H9S11940   0.047   6.771   6.128 -0.2232  1.4222 -0.4587
  115OSM    H9T11941  -0.109   6.842   6.215  0.2128 -1.3848  0.9157
  115OSM   C10S11942  -0.148   6.708   6.055 -0.0233  0.0040  0.3534
  115OSM   H10S11943  -0.163   6.799   5.993  0.7019 -0.0392  0.1173
  115OSM   H10T11944  -0.240   6.658   6.092  0.3620  0.7971  2.5761
  115OSM   C11S11945  -0.072   6.618   5.966 -0.3523 -0.2489 -0.4030
  115OSM   H11S11946  -0.034   6.531   6.023  0.4121 -0.5644 -1.3592
  115OSM   H11T11947   0.024   6.665   5.935 -0.8914  2.6400  1.8808
  115OSM   C12S11948  -0.142   6.557   5.846 -0.6799  0.3680 -0.5826
  115OSM   H12S11949  -0.229   6.502   5.887 -2.1789  3.3976  0.5633
  115OSM   H12T11950  -0.056   6.506   5.796  0.1338  0.9342  0.2120
  115OSM   C13S11951  -0.210   6.651   5.746 -0.4833  0.4371 -0.0261
  115OSM   H13S11952  -0.273   6.722   5.804 -0.3267  1.1209 -0.6738
  115OSM   H13T11953  -0.273   6.607   5.666  0.2246 -0.4197 -0.1296
  115OSM   C14S11954  -0.105   6.738   5.678 -0.5668  0.1505 -0.1310
  115OSM   H14S11955  -0.055   6.788   5.764  1.5131 -0.1435 -1.1039
  115OSM   H14T11956  -0.153   6.823   5.625 -0.6890  1.7607  2.4052
  115OSM   C15S11957  -0.006   6.658   5.592  0.3239 -0.0739 -0.4829
  115OSM   H15S11958  -0.075   6.584   5.546  0.7258 -0.6528 -0.1558
  115OSM   H15T11959   0.073   6.603   5.647  1.0017  0.8552 -0.4977
  115OSM   C16S11960   0.056   6.748   5.489  0.2046 -0.4837 -0.4232
  115OSM   H16S11961   0.135   6.811   5.534 -0.9829  0.8298 -0.0994
  115OSM   H16T11962  -0.018   6.818   5.444  0.4082 -0.0410 -0.0769
  115OSM   C17S11963   0.114   6.674   5.367  0.6839  0.5899  0.2612
  115OSM   H17S11964   0.036   6.642   5.295  1.0426  0.7315 -0.1978
  115OSM   H17T11965   0.179   6.590   5.400  0.4042  0.8674  1.6005
  115OSM   C18S11966   0.196   6.767   5.276  0.5184 -0.0523 -0.3777
  115OSM   H18S11967   0.267   6.819   5.342 -0.6480 -0.4245  1.2265
  115OSM   H18T11968   0.130   6.845   5.232  0.7919 -0.4003 -1.4410
  115OSM   H18U11969   0.238   6.711   5.190 -0.2362  0.0278 -0.8123
  115OSM    C1F11970   0.431   6.870   6.660  0.3256 -0.1273 -0.3996
  115OSM     OF11971   0.503   6.780   6.697 -0.0120 -0.3256  0.0167
  115OSM    C2F11972   0.466   6.977   6.558 -0.3108 -1.1535 -0.5168
  115OSM    H2F11973   0.567   7.009   6.590 -1.0686 -0.1685  1.0240
  115OSM    H2G11974   0.390   7.057   6.574 -1.7859 -2.6926  0.6306
  115OSM    C3F11975   0.475   6.930   6.409  0.1626  1.0890  0.6977
  115OSM    H3F11976   0.568   6.873   6.391 -0.6954  0.1222 -0.8939
  115OSM    H3G11977   0.474   7.022   6.347 -0.0487 -0.3434 -1.5014
  115OSM    C4F11978   0.362   6.838   6.354 -0.3782 -0.7889 -0.1938
  115OSM    H4F11979   0.266   6.892   6.371 -0.4400 -0.6934 -0.8124
  115OSM    H4G11980   0.358   6.748   6.418 -3.8658 -0.7834 -0.2249
  115OSM    C5F11981   0.372   6.797   6.204  0.7657  0.4773 -0.0267
  115OSM    H5F11982   0.278   6.743   6.181  1.1591  0.1280 -0.8830
  115OSM    H5G11983   0.457   6.728   6.182  1.0890  1.2977 -1.5364
  115OSM    C6F11984   0.372   6.911   6.101 -0.8423  0.6102  0.4935
  115OSM    H6F11985   0.480   6.938   6.095 -1.1220  1.3778 -2.7858
  115OSM    H6G11986   0.314   6.993   6.148 -0.4955  0.3168  1.4635
  115OSM    C7F11987   0.323   6.871   5.964 -0.0691  0.2859 -0.0501
  115OSM    H7F11988   0.333   6.959   5.897 -2.2043 -0.3627 -1.3235
  115OSM    H7G11989   0.213   6.857   5.966 -0.3408  1.8919 -1.3833
  115OSM    C8F11990   0.396   6.751   5.901 -0.5666 -0.5899 -0.5573
  115OSM    H8F11991   0.366   6.661   5.960 -0.3503 -0.4959 -0.3035
  115OSM    H8G11992   0.505   6.770   5.908 -0.0654 -2.4426 -2.3262
  115OSM    C9F11993   0.362   6.746   5.749  0.8462  0.0862 -0.0312
  115OSM    H9F11994   0.261   6.784   5.729 -0.1611 -1.4621  1.7943
  115OSM   C10F11995   0.448   6.729   5.649 -0.5122 -0.0943 -0.5991
  115OSM   H10F11996   0.410   6.721   5.547  0.4819 -0.8961 -0.9241
  115OSM   C11F11997   0.591   6.698   5.663  0.2799 -0.2240 -0.5235
  115OSM   H11F11998   0.610   6.611   5.730 -0.7129 -1.0065 -1.2215
  115OSM   H11G11999   0.625   6.795   5.703 -2.4805  0.7378 -0.2467
  115OSM   C12F12000   0.665   6.680   5.532 -0.4100 -0.0646 -0.5066
  115OSM   H12F12001   0.775   6.698   5.536  0.0998 -2.6856 -0.9276
  115OSM   H12G12002   0.623   6.746   5.453 -1.1258  0.3831  0.2293
  115OSM   C13F12003   0.649   6.535   5.480 -0.0245 -0.0573  0.3843
  115OSM   H13F12004   0.543   6.505   5.488 -0.9051  1.2265 -3.7801
  115OSM   H13G12005   0.717   6.462   5.528  0.7845 -0.6939 -1.6135
  115OSM   C14F12006   0.693   6.509   5.331 -0.1009  0.2549 -0.1464
  115OSM   H14F12007   0.698   6.400   5.310 -0.2400  0.2672 -0.2447
  115OSM   H14G12008   0.796   6.549   5.318  0.1526 -0.3397 -0.0111
  115OSM   C15F12009   0.586   6.548   5.229  0.0659  0.0607  0.0451
  115OSM   H15F12010   0.569   6.658   5.227  2.2410  0.4203 -0.5213
  115OSM   H15G12011   0.496   6.497   5.269  1.7535 -0.9984  2.7020
  115OSM   C16F12012   0.595   6.496   5.088  0.5262 -0.2146  0.5215
  115OSM   H16F12013   0.548   6.396   5.094 -0.1687 -0.0183 -1.1432
  115OSM   H16G12014   0.699   6.482   5.051  0.2059 -1.8349  0.1627
  115OSM   C17F12015   0.519   6.566   4.987  0.7046 -0.9196 -0.2153
  115OSM   H17F12016   0.576   6.660   4.968  3.0311 -1.6124  2.5855
  115OSM   H17G12017   0.416   6.595   5.017  0.8127 -0.2088 -0.4996
  115OSM   C18F12018   0.499   6.489   4.860  0.2454  0.4103 -0.3661
  115OSM   H18F12019   0.499   6.553   4.770  2.6521  0.6127 -0.2638
  115OSM   H18G12020   0.406   6.428   4.861  0.9930 -0.7724 -0.7972
  115OSM   H18H12021   0.579   6.412   4.857 -0.2129 -0.2769  2.1868
  116OSM      N12022   1.379   4.415   7.572  0.5376 -0.0542  0.3000
  116OSM    C1512023   1.363   4.555   7.616  0.5259 -0.1687 -0.2820
  116OSM   H15A12024   1.259   4.575   7.638  0.6589 -1.3708  1.6569
  116OSM   H15B12025   1.379   4.637   7.547  0.6233  0.8460  0.9161
  116OSM   H15C12026   1.440   4.573   7.689  1.3633 -1.0606 -0.9234
  116OSM    C1412027   1.498   4.411   7.494  0.2675 -0.2851  0.2850
  116OSM   H14A12028   1.494   4.479   7.411 -1.1776 -0.5588  0.1012
  116OSM   H14B12029   1.524   4.316   7.450 -1.8684 -0.4196 -0.8088
  116OSM   H14C12030   1.580   4.447   7.554 -1.7634  2.7922  1.4633
  116OSM    C1312031   1.397   4.324   7.693 -0.1808  0.1343  0.1908
  116OSM   H13A12032   1.418   4.224   7.658  0.6686  0.6668 -0.8583
  116OSM   H13B12033   1.301   4.321   7.741 -1.2816 -1.0845 -1.9615
  116OSM   H13C12034   1.476   4.350   7.763 -0.0264 -2.4791  1.1243
  116OSM    C1212035   1.262   4.374   7.482  0.8357  0.1550 -0.4848
  116OSM   H12A12036   1.169   4.380   7.535  0.3638 -0.2314 -1.2527
  116OSM   H12B12037   1.269   4.266   7.477 -1.0086 -0.1227  1.7532
  116OSM    C1112038   1.252   4.432   7.334 -0.0803  0.0501  0.1925
  116OSM   H11A12039   1.182   4.376   7.270  1.2439 -2.0902  0.5011
  116OSM   H11B12040   1.351   4.420   7.285  0.3655  3.4082  0.0385
  116OSM      P12041   1.098   4.635   7.360  0.3776 -0.0399 -0.2436
  116OSM    O1312042   1.038   4.582   7.483  0.5661  0.5523  0.3819
  116OSM    O1412043   1.111   4.783   7.351 -0.1451  0.4962  0.2472
  116OSM    O1112044   0.994   4.595   7.250 -0.4475  0.3120 -0.8232
  116OSM    O1212045   1.237   4.571   7.336  0.7036  0.3234 -0.1751
  116OSM    C1S12046   1.033   4.636   7.115  0.2884 -0.0319  0.0521
  116OSM    H1S12047   1.135   4.680   7.107  1.0625 -1.9446 -1.4005
  116OSM    H1T12048   0.962   4.718   7.094  0.7050  1.0230  2.3815
  116OSM     NF12049   1.089   4.563   6.897 -0.1389 -0.3245  0.0676
  116OSM    HNF12050   1.030   4.576   6.818  3.4482  1.1605 -2.6769
  116OSM    C2S12051   1.025   4.520   7.019  0.2558  0.3501 -0.4792
  116OSM    H2S12052   1.091   4.450   7.075  0.6326  2.9221  2.6129
  116OSM    C3S12053   0.877   4.459   7.012 -0.1264  0.8839 -0.5594
  116OSM    H3S12054   0.812   4.529   6.955 -0.1437  0.3071 -1.2638
  116OSM     O312055   0.829   4.428   7.138  0.2769  0.4396 -0.1301
  116OSM    HO312056   0.880   4.495   7.183  0.0675  2.3930 -2.5642
  116OSM    C4S12057   0.883   4.329   6.936  0.6430 -0.0593 -0.0081
  116OSM    H4S12058   0.950   4.255   6.982  1.1184 -0.1551 -0.8415
  116OSM    C5S12059   0.843   4.305   6.808  0.3874  0.0969  1.2526
  116OSM    H5S12060   0.806   4.389   6.748 -1.3988 -1.1594  0.4983
  116OSM    C6S12061   0.866   4.183   6.718 -0.2011  0.1648  0.0600
  116OSM    H6S12062   0.775   4.142   6.671  1.0945 -1.3105 -1.2805
  116OSM    H6T12063   0.919   4.100   6.769 -1.8008 -1.8844 -1.4651
  116OSM    C7S12064   0.971   4.200   6.606  0.6554 -0.3166 -0.0524
  116OSM    H7S12065   0.995   4.103   6.556 -0.1967  0.3338 -1.7998
  116OSM    H7T12066   1.064   4.250   6.642  0.4535 -0.9470  1.3849
  116OSM    C8S12067   0.930   4.293   6.494 -0.2487 -0.3913 -0.3586
  116OSM    H8S12068   1.021   4.328   6.441 -0.7370  1.5969  0.0556
  116OSM    H8T12069   0.881   4.386   6.530 -1.0462  0.1715 -2.7451
  116OSM    C9S12070   0.830   4.232   6.400 -0.2767  0.1488  0.1982
  116OSM    H9S12071   0.734   4.201   6.446 -0.4355 -1.2525 -1.0123
  116OSM    H9T12072   0.875   4.134   6.374 -0.2079 -0.2845  1.8541
  116OSM   C10S12073   0.819   4.323   6.273 -0.0807 -0.7500  0.2771
  116OSM   H10S12074   0.916   4.352   6.226 -0.4082 -0.6323 -0.3316
  116OSM   H10T12075   0.758   4.407   6.313  0.8373  0.8633 -1.5733
  116OSM   C11S12076   0.753   4.248   6.161  0.6993 -0.0879 -0.4569
  116OSM   H11S12077   0.648   4.223   6.187  0.7602 -0.7463 -0.8337
  116OSM   H11T12078   0.804   4.150   6.176  0.4876  0.0528  1.4031
  116OSM   C12S12079   0.765   4.299   6.016 -0.6643  0.2501 -0.1651
  116OSM   H12S12080   0.772   4.208   5.953 -0.2153  0.6643 -0.7210
  116OSM   H12T12081   0.860   4.355   6.003 -0.8564  0.5293 -0.3743
  116OSM   C13S12082   0.653   4.396   5.977 -0.2478 -0.1119  0.4820
  116OSM   H13S12083   0.656   4.484   6.046 -0.4920 -0.6982  1.2575
  116OSM   H13T12084   0.553   4.353   5.998 -1.3473  2.9573  2.1529
  116OSM   C14S12085   0.648   4.442   5.831  0.0080  0.6457 -0.5236
  116OSM   H14S12086   0.724   4.519   5.807  0.0129  0.8768  0.1881
  116OSM   H14T12087   0.550   4.489   5.812 -0.4860 -0.1424  0.0048
  116OSM   C15S12088   0.688   4.342   5.725  0.0516  0.4738  0.4158
  116OSM   H15S12089   0.648   4.243   5.757  0.8915  0.0759  0.2676
  116OSM   H15T12090   0.799   4.336   5.714 -0.0200  0.9727 -0.7003
  116OSM   C16S12091   0.609   4.370   5.595  0.1497  0.1795 -0.1154
  116OSM   H16S12092   0.625   4.473   5.557 -0.4464 -0.0218 -0.9296
  116OSM   H16T12093   0.505   4.353   5.629  1.2133  0.3988  3.6741
  116OSM   C17S12094   0.650   4.260   5.489 -0.4864  0.1499 -0.6025
  116OSM   H17S12095   0.606   4.163   5.521  1.6601 -1.0989 -1.2232
  116OSM   H17T12096   0.760   4.247   5.487 -0.5475 -0.4206 -2.2849
  116OSM   C18S12097   0.624   4.292   5.347 -0.6383 -0.0256 -0.0731
  116OSM   H18S12098   0.694   4.371   5.310  1.0445 -0.8641  1.1588
  116OSM   H18T12099   0.521   4.335   5.344 -0.7295 -0.1124  1.2119
  116OSM   H18U12100   0.637   4.196   5.294 -1.9037 -0.9039  1.1375
  116OSM    C1F12101   1.224   4.581   6.885 -0.2353  0.0630 -0.3920
  116OSM     OF12102   1.304   4.533   6.966 -0.4669  0.0222  0.0558
  116OSM    C2F12103   1.262   4.669   6.769  0.3353 -0.2871  0.4868
  116OSM    H2F12104   1.222   4.772   6.781 -2.1819 -0.9476 -1.3263
  116OSM    H2G12105   1.214   4.629   6.677  1.4021  0.8606 -0.6001
  116OSM    C3F12106   1.414   4.672   6.743 -0.6603  0.2561 -1.0104
  116OSM    H3F12107   1.463   4.715   6.833  1.2835 -0.1556 -1.8347
  116OSM    H3G12108   1.442   4.743   6.663 -1.0583  2.3721  0.6503
  116OSM    C4F12109   1.478   4.542   6.702 -0.7011  0.0845 -0.0945
  116OSM    H4F12110   1.454   4.469   6.782  1.7001 -0.7449 -0.0451
  116OSM    H4G12111   1.587   4.554   6.685 -0.5791 -0.7444  0.0668
  116OSM    C5F12112   1.427   4.483   6.572  0.1108 -0.1799  0.1485
  116OSM    H5F12113   1.316   4.477   6.569  0.0295  1.0636  0.2031
  116OSM    H5G12114   1.477   4.383   6.569 -1.4274 -0.9672 -1.8487
  116OSM    C6F12115   1.467   4.555   6.435  0.4123  0.6945 -0.1328
  116OSM    H6F12116   1.577   4.548   6.421  0.1815  0.0262 -1.7442
  116OSM    H6G12117   1.428   4.659   6.438  3.3693  1.9559 -1.0477
  116OSM    C7F12118   1.369   4.499   6.328 -0.0503 -0.1276 -0.0104
  116OSM    H7F12119   1.261   4.495   6.355 -0.3757  0.8674 -1.1366
  116OSM    H7G12120   1.402   4.394   6.311 -1.4931 -0.5680 -0.1802
  116OSM    C8F12121   1.383   4.573   6.198 -0.7663  0.8737  0.4162
  116OSM    H8F12122   1.491   4.582   6.176 -0.3437 -1.7759  1.0401
  116OSM    H8G12123   1.333   4.672   6.207 -1.9444  0.4925 -1.2813
  116OSM    C9F12124   1.298   4.492   6.102  0.7024 -0.2891  0.4775
  116OSM    H9F12125   1.339   4.390   6.099  0.7447 -0.2545 -1.5198
  116OSM   C10F12126   1.178   4.512   6.044  0.4098  1.2030 -0.0937
  116OSM   H10F12127   1.139   4.439   5.972  1.5038  0.9498 -0.4496
  116OSM   C11F12128   1.102   4.638   6.034  0.3324  0.3252  0.7756
  116OSM   H11F12129   1.160   4.728   6.065  0.1253  0.0386  2.0269
  116OSM   H11G12130   1.029   4.632   6.117 -0.1074  1.2480  0.4652
  116OSM   C12F12131   1.021   4.657   5.902 -0.0493  0.9138 -0.4771
  116OSM   H12F12132   0.953   4.745   5.896 -0.4967  0.5061 -4.2349
  116OSM   H12G12133   0.950   4.572   5.897  1.0439  0.0070 -1.1206
  116OSM   C13F12134   1.108   4.653   5.777  0.2509 -0.0494 -0.8238
  116OSM   H13F12135   1.154   4.554   5.755 -0.4400  0.1692 -3.6130
  116OSM   H13G12136   1.189   4.728   5.792  0.2297 -0.5105  2.2122
  116OSM   C14F12137   1.030   4.702   5.651 -0.2298 -0.2463 -0.4587
  116OSM   H14F12138   1.109   4.753   5.592  1.3746 -1.5959  0.4311
  116OSM   H14G12139   0.955   4.775   5.688 -1.9730 -1.6036 -1.2097
  116OSM   C15F12140   0.961   4.583   5.583 -0.5473 -0.7711 -0.2290
  116OSM   H15F12141   0.875   4.553   5.646  0.2275  0.5361  1.5226
  116OSM   H15G12142   1.022   4.491   5.593 -1.3997 -1.2419  0.8342
  116OSM   C16F12143   0.903   4.599   5.439 -0.2908 -0.9013  0.0647
  116OSM   H16F12144   0.833   4.684   5.452  0.8329 -0.2873  2.8050
  116OSM   H16G12145   0.850   4.510   5.398  0.2833 -1.2957  0.1591
  116OSM   C17F12146   1.021   4.632   5.339  0.0155  0.4621  0.5751
  116OSM   H17F12147   1.084   4.540   5.344 -0.3703  0.2628  2.1539
  116OSM   H17G12148   1.091   4.711   5.372  0.5405 -0.1082  0.8549
  116OSM   C18F12149   0.972   4.633   5.191 -0.5791 -0.1111  0.3127
  116OSM   H18F12150   0.898   4.551   5.178  0.5269 -1.1550  0.3377
  116OSM   H18G12151   1.052   4.608   5.118 -0.6355  1.3183 -0.2771
  116OSM   H18H12152   0.932   4.731   5.158  0.5444 -0.4218 -2.2011
  117OSM      N12153   0.526   2.981   7.073 -0.1412  0.2286 -0.3863
  117OSM    C1512154   0.585   3.113   7.021  0.4283 -0.4042  0.1199
  117OSM   H15A12155   0.578   3.190   7.096  0.1647 -0.7954  0.4950
  117OSM   H15B12156   0.516   3.150   6.946 -0.0435 -0.3024  0.6013
  117OSM   H15C12157   0.682   3.106   6.973  0.3008  2.3255 -0.7295
  117OSM    C1412158   0.595   2.950   7.198 -0.3761 -0.1623  0.2239
  117OSM   H14A12159   0.700   2.931   7.180  0.0421  0.0106  2.2046
  117OSM   H14B12160   0.554   2.864   7.250  1.2786 -0.6025  0.8752
  117OSM   H14C12161   0.583   3.036   7.263  1.0800  2.2261 -2.4313
  117OSM    C1312162   0.383   3.008   7.119 -0.1127 -0.0858 -0.3374
  117OSM   H13A12163   0.318   3.036   7.037  0.8783  0.2965 -0.9997
  117OSM   H13B12164   0.377   3.075   7.203  1.9007 -0.9940  0.5936
  117OSM   H13C12165   0.340   2.916   7.158  0.6676  0.3507  1.6955
  117OSM    C1212166   0.536   2.875   6.969 -0.2897 -0.2061  0.0573
  117OSM   H12A12167   0.631   2.884   6.919  0.2896 -0.1274  1.1360
  117OSM   H12B12168   0.469   2.907   6.891 -0.7348  0.8909  0.8670
  117OSM    C1112169   0.524   2.731   7.011  0.5758  0.3945  0.5339
  117OSM   H11A12170   0.602   2.707   7.087 -2.0289 -0.7744  3.0413
  117OSM   H11B12171   0.543   2.662   6.925  1.2359 -0.8425  1.6227
  117OSM      P12172   0.273   2.655   6.979 -0.4500 -0.0267 -0.2018
  117OSM    O1312173   0.220   2.521   7.017 -0.5059  0.4105  0.1386
  117OSM    O1412174   0.174   2.769   6.992 -0.1691 -0.4515  0.4571
  117OSM    O1112175   0.326   2.650   6.833  0.1892 -0.1686 -0.8443
  117OSM    O1212176   0.400   2.694   7.077  0.2665  0.2610 -0.1862
  117OSM    C1S12177   0.319   2.544   6.739 -0.1576 -0.9282 -0.1991
  117OSM    H1S12178   0.249   2.473   6.786 -2.2752  2.2180  1.7705
  117OSM    H1T12179   0.422   2.509   6.715  0.1862 -0.0036 -0.1161
  117OSM     NF12180   0.234   2.489   6.511  0.8513  0.0420  0.3122
  117OSM    HNF12181   0.275   2.495   6.421  0.0987 -0.8059 -0.1089
  117OSM    C2S12182   0.252   2.600   6.599 -0.0338 -0.0044 -1.1457
  117OSM    H2S12183   0.149   2.631   6.629 -0.6949 -0.7232 -2.5492
  117OSM    C3S12184   0.329   2.713   6.539  0.3537  0.1764 -0.6380
  117OSM    H3S12185   0.422   2.671   6.495  0.9196  1.1159 -0.3939
  117OSM     O312186   0.368   2.803   6.637  0.1688  0.1884 -0.4049
  117OSM    HO312187   0.343   2.769   6.723  0.7626 -0.3222 -0.4260
  117OSM    C4S12188   0.253   2.783   6.429 -0.2164  1.0272  0.3010
  117OSM    H4S12189   0.274   2.733   6.334 -0.5978  0.5031  0.4867
  117OSM    C5S12190   0.162   2.883   6.431 -0.0532  0.0839 -0.3395
  117OSM    H5S12191   0.123   2.913   6.530 -1.0038 -1.6296 -0.1567
  117OSM    C6S12192   0.096   2.954   6.316 -0.0963 -0.5070  1.0276
  117OSM    H6S12193   0.154   3.047   6.296  0.5198 -1.2588 -0.9276
  117OSM    H6T12194  -0.006   2.982   6.349  0.8840  1.4282  2.6353
  117OSM    C7S12195   0.085   2.872   6.189 -1.0267  0.2299  0.9393
  117OSM    H7S12196   0.011   2.793   6.213 -3.5518  1.3149 -2.4727
  117OSM    H7T12197   0.172   2.812   6.154 -3.0929 -2.4565  0.0689
  117OSM    C8S12198   0.036   2.944   6.059  0.0295  0.0659 -0.4028
  117OSM    H8S12199   0.120   2.993   6.006 -0.7481  1.5641 -0.3121
  117OSM    H8T12200  -0.035   3.023   6.091  0.1847 -0.4113  1.2385
  117OSM    C9S12201  -0.037   2.845   5.962 -0.1802 -0.4063  0.3267
  117OSM    H9S12202  -0.133   2.811   6.007 -0.0540 -1.9352 -0.4731
  117OSM    H9T12203   0.024   2.754   5.943  1.6623  0.5961  1.2297
  117OSM   C10S12204  -0.081   2.906   5.824 -1.0699 -0.5210 -0.6369
  117OSM   H10S12205  -0.108   3.010   5.852  1.7195 -0.0969  0.8649
  117OSM   H10T12206  -0.164   2.846   5.780  0.9334 -3.0120 -1.2365
  117OSM   C11S12207   0.043   2.908   5.730  0.3210 -1.2434 -0.1101
  117OSM   H11S12208   0.088   2.807   5.721 -1.5374 -2.3160  1.7222
  117OSM   H11T12209   0.124   2.981   5.755 -0.6063 -0.0914 -0.3528
  117OSM   C12S12210  -0.008   2.947   5.595 -0.2476 -0.1402  0.3595
  117OSM   H12S12211  -0.041   3.053   5.597 -0.6992 -0.2708  2.4855
  117OSM   H12T12212  -0.091   2.875   5.580 -1.1414  1.2078 -1.4628
  117OSM   C13S12213   0.110   2.931   5.493  0.2202  0.1493  0.6301
  117OSM   H13S12214   0.146   2.827   5.508 -2.7933 -0.8373  1.7080
  117OSM   H13T12215   0.192   3.004   5.510  1.1148 -0.5555 -0.4834
  117OSM   C14S12216   0.074   2.935   5.343 -0.3294 -0.1803 -0.1341
  117OSM   H14S12217   0.055   3.043   5.325 -1.1242 -0.1626  0.7712
  117OSM   H14T12218  -0.018   2.875   5.327 -0.2527  0.2417 -2.5184
  117OSM   C15S12219   0.182   2.898   5.248 -0.0110  0.0360  0.9527
  117OSM   H15S12220   0.231   2.802   5.277  1.7245  0.1820 -1.2085
  117OSM   H15T12221   0.267   2.968   5.248 -1.6364  2.1128  0.0538
  117OSM   C16S12222   0.128   2.889   5.099  0.7541 -0.2239 -0.6870
  117OSM   H16S12223   0.034   2.830   5.102 -1.1804  2.6287 -0.0175
  117OSM   H16T12224   0.207   2.840   5.039 -2.0414 -2.8520 -2.4884
  117OSM   C17S12225   0.106   3.013   5.027  0.3433 -0.1974 -0.1962
  117OSM   H17S12226   0.191   3.082   5.051  0.4134 -1.5953  4.6127
  117OSM   H17T12227   0.018   3.056   5.079 -0.1681 -0.6566 -0.6814
  117OSM   C18S12228   0.081   2.990   4.878  0.3140  0.3044 -0.2564
  117OSM   H18S12229  -0.015   2.934   4.869  0.9816 -1.5438  2.6856
  117OSM   H18T12230   0.169   2.946   4.827 -0.3627  1.5719 -2.6568
  117OSM   H18U12231   0.055   3.088   4.833  1.4218  0.9386  0.4535
  117OSM    C1F12232   0.147   2.385   6.529 -0.9635 -0.0272 -0.2140
  117OSM     OF12233   0.063   2.380   6.621  0.1842 -0.0556 -0.0345
  117OSM    C2F12234   0.164   2.269   6.434 -0.2805  0.4522 -0.0313
  117OSM    H2F12235   0.267   2.229   6.446  0.4029  2.0859 -0.2299
  117OSM    H2G12236   0.139   2.298   6.330 -5.5306 -3.2995 -0.2326
  117OSM    C3F12237   0.060   2.145   6.454 -0.6716  0.0608 -0.3197
  117OSM    H3F12238  -0.042   2.190   6.455 -0.5351  0.3663 -0.1708
  117OSM    H3G12239   0.073   2.112   6.559  1.4884  2.9264  0.4591
  117OSM    C4F12240   0.070   2.033   6.354 -0.4126 -0.3267 -0.4150
  117OSM    H4F12241  -0.013   1.962   6.376 -2.2355  1.9385  0.4750
  117OSM    H4G12242   0.169   1.988   6.332 -0.5823 -0.2999 -1.2374
  117OSM    C5F12243   0.031   2.081   6.217 -0.2808  0.1521  0.0244
  117OSM    H5F12244   0.120   2.135   6.177  0.2074  0.7635  1.8732
  117OSM    H5G12245  -0.054   2.152   6.216 -0.8296 -0.5011  0.0595
  117OSM    C6F12246   0.008   1.972   6.114 -0.2307 -0.7598 -0.0928
  117OSM    H6F12247  -0.059   1.896   6.159 -1.2058 -0.7081 -1.3926
  117OSM    H6G12248   0.104   1.923   6.087  0.0751 -0.7248  0.8972
  117OSM    C7F12249  -0.050   2.032   5.982 -0.2333  0.4996 -0.3563
  117OSM    H7F12250   0.004   2.128   5.969  2.3534 -0.6353  1.2579
  117OSM    H7G12251  -0.159   2.052   5.995 -0.0757  1.1395  0.0480
  117OSM    C8F12252  -0.021   1.945   5.857 -0.1775  0.1868 -0.1029
  117OSM    H8F12253  -0.098   1.957   5.778  1.3150  1.9241 -1.3468
  117OSM    H8G12254  -0.024   1.842   5.899 -1.9796  1.0327  2.1037
  117OSM    C9F12255   0.112   1.966   5.799 -0.7883  0.1319 -0.1736
  117OSM    H9F12256   0.186   1.990   5.877  0.0023  1.3271 -1.2376
  117OSM   C10F12257   0.146   1.945   5.671 -0.0539 -0.2705 -0.2005
  117OSM   H10F12258   0.247   1.975   5.639  0.9779 -1.9368  1.3102
  117OSM   C11F12259   0.051   1.901   5.565 -0.6381 -0.6365  0.0339
  117OSM   H11F12260  -0.045   1.864   5.608 -0.5169 -0.2563  0.6421
  117OSM   H11G12261   0.096   1.815   5.511  0.8822 -0.2078  0.5738
  117OSM   C12F12262   0.029   2.013   5.467  0.3324  0.2489 -0.0903
  117OSM   H12F12263   0.107   2.007   5.388 -0.4490  1.5401 -0.9967
  117OSM   H12G12264   0.030   2.114   5.513 -1.9698 -0.8444  2.6808
  117OSM   C13F12265  -0.106   2.003   5.393  0.5303 -0.0297 -0.0882
  117OSM   H13F12266  -0.195   1.988   5.458 -0.0359 -0.7450 -0.9865
  117OSM   H13G12267  -0.097   1.916   5.324  0.4732  0.2824 -0.4938
  117OSM   C14F12268  -0.120   2.133   5.309  0.6331 -0.4054  0.3492
  117OSM   H14F12269  -0.026   2.161   5.258 -0.1607 -1.4035 -1.8272
  117OSM   H14G12270  -0.151   2.212   5.380  1.6978 -1.1799  1.7065
  117OSM   C15F12271  -0.229   2.129   5.195 -0.5421  0.0851  0.1234
  117OSM   H15F12272  -0.214   2.030   5.146 -1.9494 -1.0346  1.8005
  117OSM   H15G12273  -0.210   2.219   5.134 -0.6751  1.7909  2.4617
  117OSM   C16F12274  -0.374   2.125   5.242  0.1003 -0.5620  0.0308
  117OSM   H16F12275  -0.393   2.203   5.320 -4.0218  2.0904 -3.1939
  117OSM   H16G12276  -0.384   2.031   5.300 -0.6421  1.0193  2.6906
  117OSM   C17F12277  -0.483   2.141   5.134 -0.0435  0.2405  0.1488
  117OSM   H17F12278  -0.473   2.055   5.064 -1.7889 -0.0487  0.2231
  117OSM   H17G12279  -0.451   2.223   5.066  2.4656 -0.1952  0.6988
  117OSM   C18F12280  -0.620   2.170   5.191 -0.1968 -0.3869 -0.1816
  117OSM   H18F12281  -0.641   2.087   5.263 -1.6956  0.9217  0.9736
  117OSM   H18G12282  -0.701   2.187   5.117  1.5828  0.7659 -1.9348
  117OSM   H18H12283  -0.623   2.264   5.250  1.7920 -0.8589  0.7353
  118OSM      N12284   0.726   5.611   7.415 -0.3089 -0.4648  0.0144
  118OSM    C1512285   0.713   5.761   7.417 -0.2253 -0.0145  0.8146
  118OSM   H15A12286   0.804   5.799   7.374 -0.9515 -0.4923 -1.2487
  118OSM   H15B12287   0.697   5.804   7.515  1.2222 -0.8535  1.4588
  118OSM   H15C12288   0.635   5.796   7.352 -0.6312  3.5162  2.9497
  118OSM    C1412289   0.842   5.572   7.498 -0.0017 -0.2380  1.1061
  118OSM   H14A12290   0.851   5.632   7.588  2.7208  1.6275 -0.2632
  118OSM   H14B12291   0.932   5.592   7.441 -1.7220  0.5146 -1.4912
  118OSM   H14C12292   0.840   5.468   7.525  1.2676 -0.8010 -0.7767
  118OSM    C1312293   0.609   5.560   7.486  0.1102  0.6480  0.1131
  118OSM   H13A12294   0.513   5.574   7.437 -0.4940 -1.4164  0.5960
  118OSM   H13B12295   0.611   5.604   7.584  2.5273  0.4731  0.1858
  118OSM   H13C12296   0.608   5.452   7.493  1.7374  0.6935  1.5767
  118OSM    C1212297   0.743   5.560   7.264 -0.3862  0.1408  0.8833
  118OSM   H12A12298   0.648   5.577   7.216 -0.6618 -3.4602 -0.1913
  118OSM   H12B12299   0.773   5.456   7.254 -0.2906  0.2072  0.4726
  118OSM    C1112300   0.854   5.639   7.181 -0.6740  0.0373  0.3382
  118OSM   H11A12301   0.840   5.749   7.183  0.0371  0.1402  0.1039
  118OSM   H11B12302   0.841   5.610   7.075 -0.2624 -0.1584  0.3391
  118OSM      P12303   1.119   5.639   7.150 -0.1523 -0.3485  0.2128
  118OSM    O1312304   1.088   5.741   7.047 -0.2932  0.2551 -0.0736
  118OSM    O1412305   1.211   5.682   7.254  0.4089 -0.1489  0.1817
  118OSM    O1112306   1.158   5.506   7.068 -0.3420 -0.0222 -0.1526
  118OSM    O1212307   0.984   5.603   7.233  0.8114  0.0094 -0.3553
  118OSM    C1S12308   1.062   5.446   6.976 -0.0830  0.3243  0.0672
  118OSM    H1S12309   0.995   5.528   6.942 -0.6363  0.6879  1.9116
  118OSM    H1T12310   1.002   5.369   7.028  0.4815 -0.1397  0.0447
  118OSM     NF12311   1.028   5.327   6.749 -0.2402 -0.0771  0.3390
  118OSM    HNF12312   1.006   5.229   6.743 -2.1837  0.3814 -1.3496
  118OSM    C2S12313   1.120   5.371   6.845 -0.3909  0.0505 -0.5072
  118OSM    H2S12314   1.189   5.446   6.801 -1.0694  0.7832 -0.3505
  118OSM    C3S12315   1.211   5.253   6.894  0.5940  0.1083 -0.3032
  118OSM    H3S12316   1.132   5.189   6.938 -0.2743 -0.7179 -2.9106
  118OSM     O312317   1.298   5.284   7.008  0.5194  0.2038 -0.0776
  118OSM    HO312318   1.271   5.369   7.044 -2.0958 -1.8056  3.3356
  118OSM    C4S12319   1.277   5.167   6.785 -0.0538 -0.0719 -0.5821
  118OSM    H4S12320   1.214   5.081   6.760  0.4249 -0.7144  0.3432
  118OSM    C5S12321   1.405   5.169   6.741  0.9328  0.1647 -0.5998
  118OSM    H5S12322   1.477   5.245   6.773  1.4869 -0.5687 -0.0892
  118OSM    C6S12323   1.456   5.068   6.649  0.9292  0.2006  0.3347
  118OSM    H6S12324   1.421   4.965   6.672  1.6005 -0.1155 -0.0173
  118OSM    H6T12325   1.567   5.065   6.656  0.8403  0.3882  2.4987
  118OSM    C7S12326   1.434   5.095   6.495  0.6960 -0.4377  0.2214
  118OSM    H7S12327   1.516   5.164   6.466  0.7001 -0.1260  0.9547
  118OSM    H7T12328   1.336   5.146   6.479  0.4925 -0.1437  2.1614
  118OSM    C8S12329   1.440   4.973   6.392 -0.6784 -0.2585 -0.3235
  118OSM    H8S12330   1.348   4.910   6.399 -1.5993  0.9205 -1.4272
  118OSM    H8T12331   1.519   4.904   6.429 -0.7775 -0.2152 -0.0312
  118OSM    C9S12332   1.460   5.019   6.250  0.8810  0.0591 -0.1555
  118OSM    H9S12333   1.554   5.077   6.231  0.3101  0.9018 -0.4923
  118OSM    H9T12334   1.378   5.093   6.239 -0.6245 -1.3653  1.0515
  118OSM   C10S12335   1.440   4.915   6.142 -0.4607 -0.6810  0.6447
  118OSM   H10S12336   1.334   4.884   6.136  0.2860 -3.3527 -0.1825
  118OSM   H10T12337   1.503   4.824   6.157  1.0160 -0.0642 -1.4414
  118OSM   C11S12338   1.456   4.988   6.012 -0.3211 -0.2991 -0.0044
  118OSM   H11S12339   1.562   5.019   6.005 -0.8194  1.3135 -1.4272
  118OSM   H11T12340   1.412   5.090   6.022  0.3146  0.0011 -0.2295
  118OSM   C12S12341   1.410   4.917   5.885  0.5410 -0.2388  0.1079
  118OSM   H12S12342   1.303   4.894   5.903  0.5509  1.5718  3.0783
  118OSM   H12T12343   1.447   4.813   5.874 -3.0091 -1.5590 -1.0512
  118OSM   C13S12344   1.427   4.995   5.753 -0.3380 -0.6574 -1.1546
  118OSM   H13S12345   1.532   5.017   5.724 -0.9122  1.1742 -1.9746
  118OSM   H13T12346   1.380   5.092   5.780  1.8707 -0.5476  3.2139
  118OSM   C14S12347   1.346   4.933   5.641  0.3250  0.3339  0.0699
  118OSM   H14S12348   1.238   4.924   5.666  0.3765  2.3245  1.2296
  118OSM   H14T12349   1.379   4.829   5.619  0.6214  0.9138 -2.5219
  118OSM   C15S12350   1.352   5.018   5.510  1.4460  0.1466  0.0413
  118OSM   H15S12351   1.456   5.036   5.475  0.6959  0.6966 -2.0606
  118OSM   H15T12352   1.300   5.115   5.524 -0.4742 -0.6135 -1.4675
  118OSM   C16S12353   1.279   4.958   5.391  0.1914  0.6355 -0.0083
  118OSM   H16S12354   1.178   4.922   5.421  0.6963 -2.4068 -1.6182
  118OSM   H16T12355   1.335   4.875   5.344  0.2734  0.6068  0.1432
  118OSM   C17S12356   1.265   5.059   5.275 -0.1298 -0.8135  0.0434
  118OSM   H17S12357   1.200   5.145   5.301  0.3335 -0.0705 -1.1955
  118OSM   H17T12358   1.205   5.006   5.198  0.4221  0.1794 -1.0989
  118OSM   C18S12359   1.403   5.100   5.220 -0.0428  0.2114  0.3337
  118OSM   H18S12360   1.472   5.016   5.199 -0.1452 -0.1729  1.4633
  118OSM   H18T12361   1.457   5.171   5.287  1.6036  1.3999 -2.1111
  118OSM   H18U12362   1.387   5.160   5.128 -3.1539  1.0176  1.2628
  118OSM    C1F12363   0.943   5.402   6.686  0.6936 -0.3506  0.5383
  118OSM     OF12364   0.935   5.519   6.712  0.5684 -1.1130  0.0500
  118OSM    C2F12365   0.841   5.344   6.594  1.0083  0.2973  0.5606
  118OSM    H2F12366   0.751   5.321   6.654  1.4517 -0.3331  0.9908
  118OSM    H2G12367   0.882   5.249   6.552 -0.3362  0.6349 -1.6840
  118OSM    C3F12368   0.777   5.448   6.488  0.3824 -0.4602 -0.2544
  118OSM    H3F12369   0.861   5.503   6.441  1.7349 -1.9641  0.3129
  118OSM    H3G12370   0.716   5.529   6.533  1.6582  0.1458  0.4463
  118OSM    C4F12371   0.697   5.381   6.369 -0.2772  0.0992  0.0601
  118OSM    H4F12372   0.600   5.364   6.419  1.0545 -1.0471  2.3955
  118OSM    H4G12373   0.739   5.280   6.352 -1.7635 -1.0749  2.7859
  118OSM    C5F12374   0.706   5.458   6.244 -0.0063  0.1935 -0.0640
  118OSM    H5F12375   0.811   5.491   6.227 -0.0605  0.6965  0.5222
  118OSM    H5G12376   0.645   5.550   6.252  0.2832  0.5127 -1.4044
  118OSM    C6F12377   0.654   5.388   6.118  0.4363  0.3836  0.1408
  118OSM    H6F12378   0.568   5.320   6.134 -1.8424  2.9021 -0.7947
  118OSM    H6G12379   0.738   5.327   6.077  0.2712  1.6069 -2.1890
  118OSM    C7F12380   0.620   5.491   6.009 -0.5176  0.8074 -0.7023
  118OSM    H7F12381   0.701   5.566   6.000 -0.5959  1.2752  1.7112
  118OSM    H7G12382   0.539   5.557   6.046 -0.4046  1.0494 -0.8813
  118OSM    C8F12383   0.586   5.444   5.865 -0.9138 -0.1259  0.0896
  118OSM    H8F12384   0.507   5.366   5.870 -1.3479  0.3042  0.0019
  118OSM    H8G12385   0.680   5.400   5.826 -1.0082 -2.3011  2.0793
  118OSM    C9F12386   0.538   5.559   5.769  0.2405 -0.2215  0.5165
  118OSM    H9F12387   0.437   5.599   5.786 -0.2328 -0.2404 -1.8759
  118OSM   C10F12388   0.613   5.618   5.679  0.4491 -0.4430  1.2280
  118OSM   H10F12389   0.568   5.689   5.608  2.0756 -0.8984 -0.3394
  118OSM   C11F12390   0.760   5.588   5.638 -0.3926  0.2299 -0.1098
  118OSM   H11F12391   0.791   5.489   5.676 -2.1088  0.4621  2.1303
  118OSM   H11G12392   0.829   5.666   5.678 -0.4750  0.0851  0.3262
  118OSM   C12F12393   0.774   5.588   5.490 -0.9056  0.0806 -0.0569
  118OSM   H12F12394   0.777   5.694   5.455 -2.1880 -0.0142 -0.5137
  118OSM   H12G12395   0.696   5.528   5.438 -0.9000  1.0347 -1.2054
  118OSM   C13F12396   0.919   5.530   5.463  0.6347  0.2862 -0.1235
  118OSM   H13F12397   0.936   5.427   5.501 -0.2716  1.6716  4.6676
  118OSM   H13G12398   0.996   5.588   5.518  0.4630 -0.3991  0.8524
  118OSM   C14F12399   0.956   5.550   5.316  0.4790  0.1421 -0.2573
  118OSM   H14F12400   0.948   5.655   5.278 -0.0251  0.4231  0.5990
  118OSM   H14G12401   0.885   5.498   5.248  0.4295 -3.0908  2.0747
  118OSM   C15F12402   1.094   5.488   5.296  0.2241  0.6459 -0.0486
  118OSM   H15F12403   1.099   5.387   5.344 -2.9395  0.1198 -0.6558
  118OSM   H15G12404   1.171   5.547   5.350 -0.2544 -1.2451  2.9467
  118OSM   C16F12405   1.131   5.462   5.140  0.3746 -0.0612 -0.9531
  118OSM   H16F12406   1.039   5.422   5.091 -1.7244  1.6755  1.2999
  118OSM   H16G12407   1.216   5.391   5.139 -0.3511 -1.0405  1.0365
  118OSM   C17F12408   1.165   5.594   5.064  0.1091 -0.0200  0.3383
  118OSM   H17F12409   1.251   5.645   5.113  0.0783  0.3329  0.0351
  118OSM   H17G12410   1.079   5.664   5.062 -0.6385 -0.9369 -1.2876
  118OSM   C18F12411   1.197   5.570   4.913  0.1847 -0.0495 -0.1636
  118OSM   H18F12412   1.111   5.535   4.853 -0.2643  1.8255 -0.6630
  118OSM   H18G12413   1.280   5.498   4.899 -2.3562 -2.7064 -2.9096
  118OSM   H18H12414   1.227   5.665   4.864 -1.1946  0.6079  0.2092
  119OSM      N12415   2.192   3.211   7.540 -0.9612  0.1730  0.6362
  119OSM    C1512416   2.078   3.262   7.469  0.5898 -0.0251 -0.5904
  119OSM   H15A12417   1.995   3.196   7.488  0.4930  0.3888  0.4663
  119OSM   H15B12418   2.097   3.283   7.364  3.5469 -0.2437 -0.1842
  119OSM   H15C12419   2.056   3.359   7.511  1.9690 -0.8201  2.1919
  119OSM    C1412420   2.169   3.221   7.688  1.0519 -0.2562  0.1717
  119OSM   H14A12421   2.160   3.323   7.722 -1.1293 -0.5764  0.6480
  119OSM   H14B12422   2.245   3.172   7.748  0.4868 -1.9264 -0.4165
  119OSM   H14C12423   2.072   3.183   7.716  1.3692  0.2534  2.1053
  119OSM    C1312424   2.198   3.065   7.495 -0.2552  0.0069  0.0963
  119OSM   H13A12425   2.114   3.006   7.528  0.3370 -0.7226  0.3382
  119OSM   H13B12426   2.288   3.018   7.535 -0.5252 -1.0126 -0.4483
  119OSM   H13C12427   2.225   3.059   7.391  2.1825 -2.2033  0.7337
  119OSM    C1212428   2.325   3.286   7.509  0.2494 -0.2743  0.5781
  119OSM   H12A12429   2.404   3.234   7.562 -1.0918 -0.9329  2.0104
  119OSM   H12B12430   2.325   3.389   7.539  0.5120  0.1129 -0.6717
  119OSM    C1112431   2.361   3.280   7.356  0.1725 -0.3887  0.1622
  119OSM   H11A12432   2.433   3.363   7.343  0.1661 -0.2682  0.8947
  119OSM   H11B12433   2.271   3.300   7.292 -0.7960  0.4469  1.7292
  119OSM      P12434   2.568   3.132   7.295 -0.1846  0.1926 -0.1582
  119OSM    O1312435   2.656   3.155   7.408 -0.0830  0.3525  0.4017
  119OSM    O1412436   2.587   2.997   7.226  0.3698  0.1253 -0.1537
  119OSM    O1112437   2.592   3.251   7.191 -0.0569  0.3876  0.1258
  119OSM    O1212438   2.411   3.149   7.327  0.0503 -0.8236  0.2937
  119OSM    C1S12439   2.686   3.242   7.084 -0.3260 -0.4014 -0.1348
  119OSM    H1S12440   2.672   3.150   7.023  1.8317 -1.5049  0.9425
  119OSM    H1T12441   2.793   3.235   7.112  0.1541  1.3775 -1.3317
  119OSM     NF12442   2.790   3.367   6.894 -0.7453  0.2917  0.2380
  119OSM    HNF12443   2.875   3.416   6.909  0.7061 -1.5587 -1.3273
  119OSM    C2S12444   2.681   3.373   6.988  0.6006  0.2638 -0.0955
  119OSM    H2S12445   2.584   3.364   6.934  1.4446  2.4625 -2.1684
  119OSM    C3S12446   2.681   3.502   7.073  0.0043  0.2504 -0.2179
  119OSM    H3S12447   2.781   3.526   7.114 -0.0407 -1.8767  1.2973
  119OSM     O312448   2.583   3.502   7.170 -0.0801 -0.1474  0.1630
  119OSM    HO312449   2.571   3.408   7.185  0.0091 -0.5981 -2.2088
  119OSM    C4S12450   2.636   3.614   6.974 -0.0181 -0.3077  0.1826
  119OSM    H4S12451   2.531   3.612   6.941  1.0291 -0.4291 -3.6719
  119OSM    C5S12452   2.712   3.703   6.915 -0.0895 -0.2739  0.2066
  119OSM    H5S12453   2.819   3.712   6.937 -0.1585 -3.1379  2.3194
  119OSM    C6S12454   2.659   3.801   6.811  1.0974 -0.4395  0.2020
  119OSM    H6S12455   2.551   3.779   6.792  0.7459  1.5094 -0.3781
  119OSM    H6T12456   2.714   3.785   6.716 -1.6309 -1.2079 -1.3753
  119OSM    C7S12457   2.669   3.945   6.859  0.3029  0.1219  0.2630
  119OSM    H7S12458   2.777   3.971   6.858  0.4723 -0.5671 -0.0712
  119OSM    H7T12459   2.630   3.974   6.959  1.0880  2.3036 -0.0243
  119OSM    C8S12460   2.605   4.039   6.756  0.1882  0.4304  0.3956
  119OSM    H8S12461   2.657   3.994   6.669  2.1835 -1.5202  2.4269
  119OSM    H8T12462   2.626   4.144   6.783 -3.6253  0.8083  2.5574
  119OSM    C9S12463   2.446   4.023   6.751 -0.0371  0.1698  0.6116
  119OSM    H9S12464   2.405   4.057   6.849 -0.3157  0.1176  0.5138
  119OSM    H9T12465   2.419   3.916   6.744 -0.8792  0.4284 -0.5154
  119OSM   C10S12466   2.382   4.099   6.626 -0.6316 -0.1840 -0.1103
  119OSM   H10S12467   2.281   4.137   6.651 -0.8175  1.2461 -2.7364
  119OSM   H10T12468   2.373   4.024   6.545 -2.9195 -0.8188  0.6579
  119OSM   C11S12469   2.445   4.230   6.568 -0.3509 -0.1490 -0.0980
  119OSM   H11S12470   2.544   4.202   6.526 -0.4061 -3.2026  1.5003
  119OSM   H11T12471   2.471   4.301   6.649 -1.9597 -1.4599  1.6441
  119OSM   C12S12472   2.369   4.317   6.464  0.2427 -0.0520 -0.7949
  119OSM   H12S12473   2.398   4.422   6.484  1.7711 -0.7534  0.9724
  119OSM   H12T12474   2.260   4.304   6.480  0.6430 -0.5929  1.8769
  119OSM   C13S12475   2.398   4.284   6.319 -0.4245 -1.1297 -0.0253
  119OSM   H13S12476   2.509   4.282   6.313 -0.4589 -0.4447 -1.0633
  119OSM   H13T12477   2.363   4.371   6.259 -0.7860  0.2120  2.0399
  119OSM   C14S12478   2.341   4.151   6.264  0.2552 -0.5080  0.9390
  119OSM   H14S12479   2.234   4.138   6.288  0.0052 -3.0229 -1.0672
  119OSM   H14T12480   2.403   4.068   6.304  0.3927 -0.1440  1.4959
  119OSM   C15S12481   2.362   4.143   6.114 -0.3248 -0.1667 -0.2094
  119OSM   H15S12482   2.291   4.210   6.060 -0.6557  0.2020  0.6662
  119OSM   H15T12483   2.328   4.038   6.100 -0.8529 -0.2379  1.4114
  119OSM   C16S12484   2.508   4.148   6.078  0.7536 -0.2785  0.0559
  119OSM   H16S12485   2.563   4.072   6.137  0.2385 -2.0220 -1.6108
  119OSM   H16T12486   2.538   4.254   6.091 -1.5246  0.3665  0.6479
  119OSM   C17S12487   2.530   4.111   5.927 -0.2423  0.8647 -0.2758
  119OSM   H17S12488   2.636   4.135   5.907  0.0450 -0.7150 -0.7926
  119OSM   H17T12489   2.460   4.166   5.861 -5.1123 -3.7704  0.3056
  119OSM   C18S12490   2.512   3.963   5.894 -0.2821  0.2657  0.1992
  119OSM   H18S12491   2.567   3.895   5.962 -1.4117  1.1861  2.1084
  119OSM   H18T12492   2.571   3.944   5.802 -0.7600 -0.2403 -0.0095
  119OSM   H18U12493   2.413   3.918   5.871  0.6414 -2.6463  1.4058
  119OSM    C1F12494   2.785   3.281   6.789 -0.2741 -0.4580 -0.1984
  119OSM     OF12495   2.694   3.198   6.785 -0.1080  0.1065 -0.5068
  119OSM    C2F12496   2.887   3.296   6.679  0.3132  0.2405 -0.2987
  119OSM    H2F12497   2.963   3.220   6.708 -0.9787 -0.3400  1.8082
  119OSM    H2G12498   2.943   3.391   6.688 -0.1975  0.4001  1.9891
  119OSM    C3F12499   2.824   3.280   6.541 -0.3634  0.2644  0.3470
  119OSM    H3F12500   2.778   3.377   6.511  1.1703  1.3430  1.3138
  119OSM    H3G12501   2.749   3.199   6.537  0.7315 -0.7259 -1.1168
  119OSM    C4F12502   2.920   3.234   6.431 -0.5308  0.0428  0.3599
  119OSM    H4F12503   2.984   3.149   6.463  2.5957  1.5014 -1.4685
  119OSM    H4G12504   2.997   3.312   6.409 -1.0634  0.3386 -0.5314
  119OSM    C5F12505   2.862   3.181   6.296 -1.0559 -0.2839  0.4290
  119OSM    H5F12506   2.801   3.093   6.324 -2.1270 -0.3982 -2.0396
  119OSM    H5G12507   2.940   3.153   6.222 -0.1303  0.6060  1.0450
  119OSM    C6F12508   2.754   3.261   6.218  0.1394  0.7714  0.3722
  119OSM    H6F12509   2.792   3.357   6.176  0.7792 -1.1809 -4.1177
  119OSM    H6G12510   2.672   3.277   6.291 -1.8574 -1.7924 -1.1021
  119OSM    C7F12511   2.680   3.184   6.103  0.1448  0.6888  0.2707
  119OSM    H7F12512   2.579   3.228   6.088 -0.0166 -0.3438 -2.0485
  119OSM    H7G12513   2.671   3.081   6.143 -0.0998  1.0236  1.1076
  119OSM    C8F12514   2.760   3.185   5.968  0.2524 -0.3245  0.4069
  119OSM    H8F12515   2.846   3.116   5.976 -1.4320 -2.6498 -0.3246
  119OSM    H8G12516   2.806   3.284   5.946  1.5130 -1.3191 -1.7835
  119OSM    C9F12517   2.675   3.144   5.845  0.7180  0.6912  0.1732
  119OSM    H9F12518   2.591   3.079   5.873  0.5056  0.9124  0.0475
  119OSM   C10F12519   2.687   3.184   5.714  0.1335 -0.0724  0.1250
  119OSM   H10F12520   2.611   3.162   5.638  2.0734 -1.0714 -1.5961
  119OSM   C11F12521   2.794   3.274   5.657  0.1211 -0.3247  0.6138
  119OSM   H11F12522   2.835   3.327   5.745 -2.5810 -0.4567  2.0462
  119OSM   H11G12523   2.750   3.357   5.597 -0.1114 -0.0473  1.1667
  119OSM   C12F12524   2.908   3.210   5.566 -0.5734 -0.6312 -0.3220
  119OSM   H12F12525   2.867   3.121   5.513 -2.1243 -0.0462 -0.1474
  119OSM   H12G12526   2.999   3.191   5.627 -0.5057  3.0246  0.9143
  119OSM   C13F12527   2.958   3.317   5.460 -0.0778  0.2871 -0.1677
  119OSM   H13F12528   3.046   3.261   5.419  0.5260 -0.4464  1.9929
  119OSM   H13G12529   2.990   3.409   5.512  0.0811  0.7636 -1.0893
  119OSM   C14F12530   2.855   3.347   5.354  0.4183  0.1739 -0.0798
  119OSM   H14F12531   2.759   3.389   5.391  0.4787  0.0144  0.2646
  119OSM   H14G12532   2.826   3.252   5.304  0.3060  1.2149 -2.0817
  119OSM   C15F12533   2.900   3.434   5.231  0.2848 -0.5598  0.5433
  119OSM   H15F12534   2.935   3.373   5.145  0.7990 -1.9974  1.7174
  119OSM   H15G12535   2.987   3.491   5.270  1.3722 -0.8257 -1.3786
  119OSM   C16F12536   2.798   3.537   5.179  0.6881 -0.7957  0.2288
  119OSM   H16F12537   2.838   3.596   5.093 -1.1452  0.9154  0.4629
  119OSM   H16G12538   2.770   3.605   5.262  1.2843 -0.5176  0.2083
  119OSM   C17F12539   2.654   3.484   5.142 -0.5046  0.1506  0.4515
  119OSM   H17F12540   2.596   3.572   5.107  0.0367  0.0550 -0.7383
  119OSM   H17G12541   2.611   3.450   5.238  0.0857  0.7339  0.9336
  119OSM   C18F12542   2.665   3.394   5.022  0.2545 -0.1345 -0.3111
  119OSM   H18F12543   2.713   3.302   5.062 -0.1655  0.2787  1.2005
  119OSM   H18G12544   2.727   3.428   4.937 -3.4220  1.3086 -2.6721
  119OSM   H18H12545   2.564   3.372   4.981 -0.3907  0.6470  0.8137
  120OSM      N12546   3.813   1.720   7.322  0.1217  0.0704  0.0455
  120OSM    C1512547   3.800   1.577   7.364 -0.4097  0.4575 -0.2824
  120OSM   H15A12548   3.797   1.576   7.472 -0.8185 -1.8749 -0.2505
  120OSM   H15B12549   3.875   1.511   7.322  0.5950  1.1988  0.3208
  120OSM   H15C12550   3.704   1.541   7.330  0.2002 -2.3812  0.7058
  120OSM    C1412551   3.903   1.794   7.416 -0.6750  0.7638 -0.2640
  120OSM   H14A12552   3.996   1.741   7.431 -1.3204 -0.3639 -0.1359
  120OSM   H14B12553   3.859   1.806   7.514 -2.3967 -0.9479 -0.7652
  120OSM   H14C12554   3.917   1.893   7.376 -0.9426  1.1249  0.5114
  120OSM    C1312555   3.862   1.748   7.183  0.0078 -0.3461 -0.4077
  120OSM   H13A12556   3.966   1.724   7.172 -0.0761  0.4347 -4.6992
  120OSM   H13B12557   3.855   1.853   7.161 -0.3032 -0.1795  0.4534
  120OSM   H13C12558   3.815   1.687   7.106  0.7403  0.1881 -1.2991
  120OSM    C1212559   3.676   1.780   7.346 -0.0049 -0.8441  0.8662
  120OSM   H12A12560   3.686   1.886   7.330  0.5363 -0.9388  0.5478
  120OSM   H12B12561   3.639   1.765   7.446 -0.5733  0.7347  0.9257
  120OSM    C1112562   3.567   1.731   7.253 -0.0902  0.0085  0.1203
  120OSM   H11A12563   3.472   1.741   7.310 -0.4010  0.0452 -0.3990
  120OSM   H11B12564   3.577   1.626   7.217  0.3769  0.7107 -1.9149
  120OSM      P12565   3.514   1.963   7.139 -0.2175  0.5095 -0.0492
  120OSM    O1312566   3.369   1.962   7.145 -0.0831 -0.1367 -0.1556
  120OSM    O1412567   3.580   2.034   7.251  0.2145 -0.3095  0.0676
  120OSM    O1112568   3.566   2.009   6.995  0.0984 -0.6195 -0.2760
  120OSM    O1212569   3.562   1.814   7.134  0.0797 -0.2228  0.1236
  120OSM    C1S12570   3.697   1.959   6.959 -0.3688 -0.0237  0.0564
  120OSM    H1S12571   3.697   1.848   6.946 -0.6407  0.2128 -2.6026
  120OSM    H1T12572   3.769   1.988   7.039  0.1920 -1.0809 -0.0327
  120OSM     NF12573   3.860   1.921   6.768 -0.6845 -0.0036  0.4212
  120OSM    HNF12574   3.952   1.940   6.801 -0.1795  0.9579 -1.4113
  120OSM    C2S12575   3.753   2.009   6.816  0.5046 -0.3763  0.0915
  120OSM    H2S12576   3.668   1.991   6.745  0.9703 -1.9021 -0.1207
  120OSM    C3S12577   3.784   2.156   6.810 -0.4096 -0.1066 -0.4289
  120OSM    H3S12578   3.868   2.177   6.880 -1.0267  0.3775  0.1855
  120OSM     O312579   3.683   2.238   6.864 -0.1550  0.1173  0.5722
  120OSM    HO312580   3.620   2.175   6.901 -2.4388  0.7994 -1.7749
  120OSM    C4S12581   3.808   2.209   6.672 -0.6356 -0.4884  0.1441
  120OSM    H4S12582   3.717   2.202   6.610  0.3775 -0.9098 -1.3417
  120OSM    C5S12583   3.927   2.265   6.615  1.2848 -0.6966  0.4654
  120OSM    H5S12584   4.014   2.278   6.681  1.4298  1.3130 -0.0482
  120OSM    C6S12585   3.954   2.304   6.474  0.5629 -0.0427  0.4944
  120OSM    H6S12586   4.023   2.228   6.431 -0.8420 -0.3479 -1.3703
  120OSM    H6T12587   4.010   2.399   6.485 -0.8782  0.6795  2.0603
  120OSM    C7S12588   3.824   2.307   6.387 -0.5569 -0.1794 -0.5550
  120OSM    H7S12589   3.757   2.389   6.422 -0.7296 -0.4743 -0.1848
  120OSM    H7T12590   3.761   2.216   6.392 -0.5967 -0.0981  0.5604
  120OSM    C8S12591   3.866   2.316   6.240  0.2378  0.4596 -0.1458
  120OSM    H8S12592   3.925   2.228   6.206 -2.0696 -1.7246  1.1043
  120OSM    H8T12593   3.927   2.407   6.221 -0.7620  1.1569 -0.0857
  120OSM    C9S12594   3.746   2.319   6.144 -0.4866  0.2231 -0.6723
  120OSM    H9S12595   3.685   2.405   6.180  0.6176  1.2355 -1.1640
  120OSM    H9T12596   3.701   2.219   6.161 -0.1671  0.2630  0.5128
  120OSM   C10S12597   3.781   2.363   6.004 -0.2595 -0.3386  0.0971
  120OSM   H10S12598   3.859   2.290   5.974  0.8441  0.7210  0.2715
  120OSM   H10T12599   3.828   2.464   6.009  0.1244 -0.5649  2.0391
  120OSM   C11S12600   3.665   2.373   5.905 -0.1070  0.3186  0.3530
  120OSM   H11S12601   3.588   2.423   5.968  0.4124  0.3998  0.9281
  120OSM   H11T12602   3.611   2.279   5.881  0.2262  0.3902 -0.7575
  120OSM   C12S12603   3.712   2.460   5.783  0.4151 -0.0797 -0.0646
  120OSM   H12S12604   3.810   2.414   5.757  1.0603  0.6733  0.9804
  120OSM   H12T12605   3.729   2.565   5.814  0.3520 -0.1509  0.2184
  120OSM   C13S12606   3.620   2.446   5.662 -0.1548 -0.1753  0.5225
  120OSM   H13S12607   3.514   2.473   5.684  0.3328  1.2742  1.1991
  120OSM   H13T12608   3.625   2.340   5.629 -0.5001 -0.0379  0.0188
  120OSM   C14S12609   3.666   2.536   5.546 -0.3302 -0.4208 -0.1253
  120OSM   H14S12610   3.770   2.515   5.513 -0.7573 -0.5914 -1.4039
  120OSM   H14T12611   3.652   2.640   5.583  0.1925 -0.9488  1.6385
  120OSM   C15S12612   3.584   2.519   5.424 -0.3358 -1.0987  0.0976
  120OSM   H15S12613   3.475   2.535   5.439 -0.0796  0.0490  0.9511
  120OSM   H15T12614   3.586   2.417   5.381 -2.0184 -1.7400  1.4084
  120OSM   C16S12615   3.618   2.623   5.314  0.6331  0.6786 -0.5512
  120OSM   H16S12616   3.596   2.728   5.345 -1.1219  0.1402  0.1349
  120OSM   H16T12617   3.546   2.603   5.232 -2.0731 -1.1968  2.0418
  120OSM   C17S12618   3.761   2.596   5.249 -0.0177  0.6845  0.2452
  120OSM   H17S12619   3.785   2.488   5.235 -0.6876  0.3490  1.4782
  120OSM   H17T12620   3.822   2.632   5.335 -0.3542  0.3990  0.6099
  120OSM   C18S12621   3.790   2.690   5.130 -0.3449 -0.9395 -0.2796
  120OSM   H18S12622   3.781   2.786   5.185  0.7267 -1.1962  0.3741
  120OSM   H18T12623   3.721   2.689   5.043  0.0276  3.1078 -0.8131
  120OSM   H18U12624   3.894   2.681   5.092 -0.9196 -2.0616 -1.7216
  120OSM    C1F12625   3.856   1.799   6.724  0.5441  0.2415  0.8245
  120OSM     OF12626   3.746   1.744   6.708 -0.2415 -0.1090  0.4577
  120OSM    C2F12627   3.989   1.726   6.711 -0.2120  0.3696 -0.2410
  120OSM    H2F12628   4.019   1.698   6.814  1.3126  1.7078 -0.2863
  120OSM    H2G12629   4.065   1.796   6.670  0.0507 -0.2997 -0.9135
  120OSM    C3F12630   3.981   1.599   6.623 -0.5620  0.1604 -0.5340
  120OSM    H3F12631   3.924   1.524   6.682 -1.5008  1.3694  0.1586
  120OSM    H3G12632   4.080   1.550   6.610 -1.5612 -1.6408 -1.8584
  120OSM    C4F12633   3.917   1.617   6.483 -0.1087  0.3568 -0.1715
  120OSM    H4F12634   3.814   1.658   6.490 -0.4960 -0.5654 -0.2916
  120OSM    H4G12635   3.903   1.520   6.431 -2.9576 -0.3692  1.7273
  120OSM    C5F12636   3.982   1.709   6.386 -1.3730  0.0829 -0.3474
  120OSM    H5F12637   4.048   1.646   6.323  0.6407 -0.0731  1.7948
  120OSM    H5G12638   4.038   1.783   6.447 -0.6429  0.4189 -1.3886
  120OSM    C6F12639   3.881   1.771   6.289 -0.1616 -0.4094 -0.3480
  120OSM    H6F12640   3.798   1.833   6.330  1.9768  0.9862  2.2400
  120OSM    H6G12641   3.828   1.686   6.242 -1.2812  0.2244 -0.2712
  120OSM    C7F12642   3.946   1.854   6.180  0.4910 -0.4051 -0.0471
  120OSM    H7F12643   4.016   1.792   6.120 -0.1643  0.0088 -1.2668
  120OSM    H7G12644   3.995   1.945   6.221 -1.5266  1.7254 -2.0616
  120OSM    C8F12645   3.843   1.924   6.081 -0.4905  1.2897 -0.0285
  120OSM    H8F12646   3.777   1.975   6.154 -0.4331  0.0622  0.9134
  120OSM    H8G12647   3.780   1.845   6.035 -0.6779  1.0848  0.5784
  120OSM    C9F12648   3.892   2.021   5.983 -0.4572  0.1479  0.0847
  120OSM    H9F12649   3.979   2.081   6.016 -0.2808 -0.2165  0.2832
  120OSM   C10F12650   3.831   2.060   5.868  0.4862  0.6594 -0.3911
  120OSM   H10F12651   3.880   2.118   5.788  1.4307 -0.2145 -0.4783
  120OSM   C11F12652   3.706   1.988   5.823  0.3765 -0.0201  0.2930
  120OSM   H11F12653   3.628   2.003   5.902  0.1473 -2.9834  0.7343
  120OSM   H11G12654   3.730   1.881   5.811 -0.0690 -0.0995  0.0976
  120OSM   C12F12655   3.649   2.039   5.684 -0.0419  0.4568 -0.1524
  120OSM   H12F12656   3.639   2.150   5.677 -1.1272  0.3121 -1.1872
  120OSM   H12G12657   3.545   2.001   5.676  0.8361 -1.8449 -1.6174
  120OSM   C13F12658   3.725   1.987   5.566 -0.4630  0.4252 -0.3588
  120OSM   H13F12659   3.698   1.883   5.538 -0.2496  0.5715 -1.1119
  120OSM   H13G12660   3.834   1.983   5.587 -0.3993  1.0188 -0.5727
  120OSM   C14F12661   3.714   2.076   5.436 -0.4193 -0.4460  0.2019
  120OSM   H14F12662   3.732   2.180   5.471 -0.0527 -0.3601 -0.2455
  120OSM   H14G12663   3.614   2.068   5.388  0.4449  3.2523 -2.7023
  120OSM   C15F12664   3.814   2.047   5.326 -0.2853 -0.3257 -0.6236
  120OSM   H15F12665   3.918   2.045   5.364 -0.1776  0.5392 -0.8719
  120OSM   H15G12666   3.816   2.135   5.258 -1.6460  0.0575 -0.1982
  120OSM   C16F12667   3.791   1.912   5.256  0.2783 -0.2468 -0.5021
  120OSM   H16F12668   3.689   1.891   5.218 -0.3108 -1.4153  1.5672
  120OSM   H16G12669   3.814   1.828   5.325  2.5937  0.5405 -0.2365
  120OSM   C17F12670   3.891   1.892   5.146 -0.4341  0.0817 -0.3697
  120OSM   H17F12671   3.991   1.920   5.185 -1.2824  0.8165  1.4035
  120OSM   H17G12672   3.874   1.955   5.057  1.8049  0.2875 -0.7183
  120OSM   C18F12673   3.901   1.744   5.098  0.3699  0.3692  0.6391
  120OSM   H18F12674   3.797   1.725   5.062  0.8793  0.9445 -1.2448
  120OSM   H18G12675   3.931   1.664   5.169 -0.2884 -0.1078  0.3848
  120OSM   H18H12676   3.968   1.728   5.011 -2.4593 -3.6526 -1.1345
  121OSM      N12677   6.055   4.069   7.005 -0.1019  0.3701  0.4789
  121OSM    C1512678   5.913   4.109   7.039 -0.6670  0.7903 -0.4288
  121OSM   H15A12679   5.905   4.105   7.147 -0.5365 -2.4961 -0.4382
  121OSM   H15B12680   5.835   4.045   7.000 -0.2477  0.3982 -0.6262
  121OSM   H15C12681   5.883   4.207   7.005 -0.9644  1.8090  2.4472
  121OSM    C1412682   6.087   4.103   6.862  0.0544 -0.2311  0.1280
  121OSM   H14A12683   6.193   4.094   6.840  0.1124 -0.5617  0.5250
  121OSM   H14B12684   6.058   4.205   6.843  1.0086 -0.1113 -0.7907
  121OSM   H14C12685   6.034   4.030   6.803 -0.6130 -0.3144  0.8213
  121OSM    C1312686   6.152   4.135   7.103  0.4451  0.5784  0.3508
  121OSM   H13A12687   6.251   4.113   7.068 -0.9537 -3.0963 -1.8968
  121OSM   H13B12688   6.146   4.086   7.199  4.7584 -2.3575 -0.5927
  121OSM   H13C12689   6.128   4.240   7.106 -0.3367  0.4030  0.5969
  121OSM    C1212690   6.065   3.916   7.023  0.3354 -0.5609 -0.0425
  121OSM   H12A12691   5.980   3.867   6.978 -1.0506 -0.6015  2.4116
  121OSM   H12B12692   6.061   3.898   7.129  0.3135 -1.0083 -0.1171
  121OSM    C1112693   6.198   3.852   6.974  0.1591 -0.6482 -0.3557
  121OSM   H11A12694   6.228   3.891   6.874 -0.3340 -2.7274 -1.3665
  121OSM   H11B12695   6.171   3.749   6.943  1.8772 -1.0807 -0.5142
  121OSM      P12696   6.455   3.881   7.017 -0.0051 -0.1538 -0.1877
  121OSM    O1312697   6.471   4.032   7.009  0.0205  0.1631 -0.6654
  121OSM    O1412698   6.554   3.812   7.107 -0.4019  0.0791 -0.4540
  121OSM    O1112699   6.469   3.808   6.879 -0.6417 -0.0935  0.7224
  121OSM    O1212700   6.305   3.851   7.068  0.8695  0.1910 -0.0942
  121OSM    C1S12701   6.591   3.835   6.808 -0.0944 -0.8529 -0.4926
  121OSM    H1S12702   6.679   3.806   6.871 -1.8834 -1.1177  2.0314
  121OSM    H1T12703   6.607   3.941   6.780  2.5290 -0.9281  0.4342
  121OSM     NF12704   6.742   3.738   6.634 -0.1756 -0.4479 -0.4286
  121OSM    HNF12705   6.780   3.782   6.553  0.1739  0.0105 -0.0194
  121OSM    C2S12706   6.602   3.753   6.678 -0.0654  0.7091  0.4632
  121OSM    H2S12707   6.560   3.653   6.701  1.3507  0.4307  2.0063
  121OSM    C3S12708   6.517   3.815   6.567 -0.1393  0.4637 -0.5963
  121OSM    H3S12709   6.564   3.914   6.553  1.9935 -0.4270 -0.1630
  121OSM     O312710   6.382   3.834   6.610 -0.0839  0.2711  0.2296
  121OSM    HO312711   6.380   3.812   6.703 -1.1848 -1.5925 -0.1745
  121OSM    C4S12712   6.518   3.741   6.441  0.2064  0.2384 -0.3596
  121OSM    H4S12713   6.453   3.653   6.446  0.4312  0.0538 -0.6454
  121OSM    C5S12714   6.565   3.781   6.326  0.3480 -0.1827 -0.1055
  121OSM    H5S12715   6.634   3.866   6.333 -0.1186  0.2422 -0.5576
  121OSM    C6S12716   6.568   3.702   6.197  0.1839  0.1408  0.1654
  121OSM    H6S12717   6.672   3.699   6.159  0.8945 -1.2381  2.0827
  121OSM    H6T12718   6.523   3.765   6.118  0.1039  0.1938  0.2518
  121OSM    C7S12719   6.505   3.566   6.208 -0.4463 -0.5482  0.9197
  121OSM    H7S12720   6.398   3.577   6.236 -0.5115  1.1020  0.1321
  121OSM    H7T12721   6.559   3.511   6.289  0.8952  1.8017  1.7038
  121OSM    C8S12722   6.526   3.485   6.080  0.1733 -0.4038 -0.7445
  121OSM    H8S12723   6.633   3.493   6.053  0.3136 -3.5193 -1.5091
  121OSM    H8T12724   6.462   3.535   6.004 -0.1491  0.1670 -0.1085
  121OSM    C9S12725   6.487   3.340   6.101 -0.4967 -0.1221  0.1158
  121OSM    H9S12726   6.376   3.345   6.105 -0.4385  1.9801 -0.0340
  121OSM    H9T12727   6.525   3.314   6.202 -0.1847  0.6292  0.2017
  121OSM   C10S12728   6.536   3.243   5.989 -0.5389  0.7708  0.1869
  121OSM   H10S12729   6.541   3.136   6.022  0.2008  0.7579  0.0506
  121OSM   H10T12730   6.639   3.274   5.960 -0.8220  1.1387 -0.4199
  121OSM   C11S12731   6.446   3.249   5.864 -0.7055  0.0096 -0.2915
  121OSM   H11S12732   6.452   3.355   5.831 -0.6394 -0.5978 -2.4175
  121OSM   H11T12733   6.348   3.212   5.902 -0.0724 -1.1387  0.2551
  121OSM   C12S12734   6.488   3.150   5.753 -0.0099  0.3488 -0.4971
  121OSM   H12S12735   6.490   3.053   5.808  1.3018  1.8702  2.3787
  121OSM   H12T12736   6.592   3.172   5.720  0.7289 -1.7707  0.2533
  121OSM   C13S12737   6.386   3.146   5.640 -0.0595 -0.1758  0.3731
  121OSM   H13S12738   6.406   3.230   5.570 -1.1427 -1.0439 -1.0396
  121OSM   H13T12739   6.287   3.168   5.686 -1.4619 -1.8826 -1.7003
  121OSM   C14S12740   6.383   3.007   5.562  0.0173  0.2143 -0.3561
  121OSM   H14S12741   6.364   2.930   5.640  0.3118  0.1146 -0.3797
  121OSM   H14T12742   6.485   2.988   5.522 -1.0769 -2.0556 -2.2569
  121OSM   C15S12743   6.282   2.985   5.447  0.2281  0.0631 -0.4956
  121OSM   H15S12744   6.184   3.021   5.486  1.0199 -0.0211  1.7098
  121OSM   H15T12745   6.275   2.881   5.408  1.5917  0.1164 -0.9387
  121OSM   C16S12746   6.298   3.070   5.321 -0.0085 -0.5493  0.2353
  121OSM   H16S12747   6.295   3.180   5.334  2.7801 -0.2238 -1.1822
  121OSM   H16T12748   6.209   3.046   5.259  0.5995 -0.2548 -0.7689
  121OSM   C17S12749   6.422   3.020   5.248  0.2283  0.3316 -0.1520
  121OSM   H17S12750   6.445   2.914   5.271 -0.2564  0.5069  1.2112
  121OSM   H17T12751   6.506   3.084   5.282  0.4201  0.9883 -1.7584
  121OSM   C18S12752   6.421   3.030   5.098  0.4624  0.1037  0.8482
  121OSM   H18S12753   6.525   3.023   5.060  0.2012  1.1450 -0.1049
  121OSM   H18T12754   6.386   3.129   5.065  1.0641  0.9234  2.5427
  121OSM   H18U12755   6.356   2.949   5.058  2.2922 -0.6438 -0.7720
  121OSM    C1F12756   6.825   3.682   6.720  0.4892 -0.4639 -0.3011
  121OSM     OF12757   6.775   3.613   6.809  0.1670 -0.0466 -0.2868
  121OSM    C2F12758   6.977   3.707   6.700  0.4430  0.5096 -0.9455
  121OSM    H2F12759   7.008   3.789   6.767 -1.5450  0.0427  0.6143
  121OSM    H2G12760   6.993   3.718   6.590  1.2309 -3.4007 -1.3942
  121OSM    C3F12761   7.045   3.568   6.730  0.1576 -0.2123 -0.1190
  121OSM    H3F12762   6.995   3.480   6.684 -0.8760 -0.5458  1.5537
  121OSM    H3G12763   7.040   3.537   6.836  0.4333 -1.3503 -0.4283
  121OSM    C4F12764   7.196   3.568   6.694  0.5735 -0.1917 -0.2046
  121OSM    H4F12765   7.240   3.569   6.795  0.0837  0.1167  0.0074
  121OSM    H4G12766   7.225   3.660   6.639  1.1028 -0.4288 -0.3288
  121OSM    C5F12767   7.251   3.447   6.604  0.2762  0.0193 -0.5675
  121OSM    H5F12768   7.181   3.361   6.612  0.1494  0.0935 -0.8443
  121OSM    H5G12769   7.345   3.408   6.648 -0.5460 -2.9868 -1.2521
  121OSM    C6F12770   7.275   3.491   6.462 -0.0163 -0.2396 -0.3259
  121OSM    H6F12771   7.344   3.577   6.472 -0.5877  0.1064  0.7122
  121OSM    H6G12772   7.181   3.517   6.409  0.0253  0.8023  0.0934
  121OSM    C7F12773   7.341   3.379   6.378  0.1066  0.2445 -0.4337
  121OSM    H7F12774   7.268   3.304   6.340 -1.0706  1.6626 -1.0965
  121OSM    H7G12775   7.420   3.341   6.445  0.1484  0.7905 -0.1627
  121OSM    C8F12776   7.421   3.443   6.264  0.8894 -0.3929 -0.0131
  121OSM    H8F12777   7.471   3.355   6.218 -2.2004 -1.9017 -0.7249
  121OSM    H8G12778   7.493   3.509   6.316  2.7583 -2.1167 -0.2756
  121OSM    C9F12779   7.335   3.513   6.160 -0.4941  0.9170  0.6009
  121OSM    H9F12780   7.232   3.528   6.196 -1.2013  0.8081 -1.2288
  121OSM   C10F12781   7.358   3.517   6.027  0.3115 -0.5163  0.3424
  121OSM   H10F12782   7.285   3.569   5.964 -0.2772 -1.2027  0.4416
  121OSM   C11F12783   7.474   3.460   5.956 -0.3297 -0.1729  0.5813
  121OSM   H11F12784   7.543   3.413   6.029  0.5333  0.1493 -0.0039
  121OSM   H11G12785   7.532   3.538   5.902  0.8165 -2.6346 -1.9681
  121OSM   C12F12786   7.443   3.373   5.834  0.7255 -0.2218 -0.0627
  121OSM   H12F12787   7.377   3.288   5.860  0.8909 -1.4938 -3.2713
  121OSM   H12G12788   7.543   3.338   5.800  1.7586  1.1960  1.3686
  121OSM   C13F12789   7.378   3.452   5.716  0.6926  0.0795 -0.6915
  121OSM   H13F12790   7.436   3.543   5.690  1.2053 -0.1806 -0.4759
  121OSM   H13G12791   7.273   3.480   5.740  0.5589 -0.6960 -0.3355
  121OSM   C14F12792   7.383   3.358   5.596 -0.6066 -1.0265  0.1288
  121OSM   H14F12793   7.348   3.258   5.629 -1.5074 -0.0773  2.2185
  121OSM   H14G12794   7.491   3.344   5.575 -1.0903 -2.6712 -1.5926
  121OSM   C15F12795   7.304   3.401   5.477  0.8694 -0.2312  0.2916
  121OSM   H15F12796   7.328   3.505   5.448  0.6490 -1.2391 -4.1398
  121OSM   H15G12797   7.194   3.395   5.488  1.0348 -0.7504  2.1731
  121OSM   C16F12798   7.329   3.315   5.351  0.4876 -0.1857  0.5576
  121OSM   H16F12799   7.287   3.213   5.364  0.9113 -0.2431  1.5793
  121OSM   H16G12800   7.437   3.309   5.324 -0.0099 -1.1714 -1.4295
  121OSM   C17F12801   7.257   3.373   5.233  0.4646 -0.0812 -0.0374
  121OSM   H17F12802   7.258   3.484   5.238  0.6624 -0.0322 -1.0303
  121OSM   H17G12803   7.147   3.358   5.236  0.7813 -3.0911 -0.3453
  121OSM   C18F12804   7.299   3.328   5.091  0.1110 -0.4935 -0.7117
  121OSM   H18F12805   7.394   3.379   5.063  0.8061 -0.5437  1.3648
  121OSM   H18G12806   7.215   3.353   5.023  0.3460  0.9772 -0.5030
  121OSM   H18H12807   7.322   3.220   5.086  1.4386 -0.3059  0.4529
  122OSM      N12808   2.743   1.048   7.459  0.2619  0.1763 -0.5476
  122OSM    C1512809   2.804   1.082   7.597  0.3580  0.9237  1.5622
  122OSM   H15A12810   2.787   1.186   7.621 -1.7201  0.9373  0.2859
  122OSM   H15B12811   2.912   1.070   7.600  0.2148 -0.9344  0.4665
  122OSM   H15C12812   2.768   1.015   7.673  0.3280 -2.0656 -0.9118
  122OSM    C1412813   2.782   0.912   7.414 -0.2777 -0.3384 -0.6708
  122OSM   H14A12814   2.727   0.843   7.477  0.5703  0.6234  1.2221
  122OSM   H14B12815   2.888   0.903   7.434 -0.3977  1.2348  0.9755
  122OSM   H14C12816   2.762   0.891   7.310 -0.2228 -1.0086 -0.5542
  122OSM    C1312817   2.595   1.048   7.472 -0.2700 -0.0142  1.0204
  122OSM   H13A12818   2.543   1.027   7.380  1.2922  1.5090 -0.2833
  122OSM   H13B12819   2.557   1.141   7.514 -0.0301  1.1238 -1.1482
  122OSM   H13C12820   2.573   0.962   7.534 -0.7870 -1.1808 -0.7042
  122OSM    C1212821   2.787   1.157   7.367 -0.2991 -0.3031 -0.9544
  122OSM   H12A12822   2.739   1.253   7.377 -0.1002 -0.1587 -1.3573
  122OSM   H12B12823   2.745   1.135   7.270  0.4113 -2.5310 -0.8009
  122OSM    C1112824   2.933   1.188   7.372 -0.6362 -0.1828  0.6317
  122OSM   H11A12825   2.978   1.217   7.469  0.3552 -1.1866  0.4894
  122OSM   H11B12826   2.954   1.276   7.307 -0.2548 -1.2798 -0.7803
  122OSM      P12827   3.006   1.048   7.160 -0.0766 -0.2189  0.7286
  122OSM    O1312828   3.137   1.003   7.116 -0.0728  0.7381  0.4705
  122OSM    O1412829   2.885   0.972   7.132 -0.1369 -0.3632 -0.5744
  122OSM    O1112830   2.973   1.197   7.105 -0.3315  0.2832  0.1847
  122OSM    O1212831   3.010   1.079   7.316  0.3656 -0.4549 -0.6547
  122OSM    C1S12832   3.062   1.265   7.006  0.2288  0.2486 -0.1972
  122OSM    H1S12833   3.166   1.228   7.015 -0.2900 -1.2879 -0.3047
  122OSM    H1T12834   3.063   1.376   7.016 -1.2293  0.1081  2.1772
  122OSM     NF12835   3.114   1.280   6.773 -0.3092  0.2434 -0.0853
  122OSM    HNF12836   3.103   1.377   6.751 -0.0610  0.6588  1.4504
  122OSM    C2S12837   3.009   1.234   6.866 -0.0390 -1.6548 -0.0609
  122OSM    H2S12838   2.992   1.124   6.867 -0.9813 -1.5174  0.4426
  122OSM    C3S12839   2.863   1.301   6.845 -0.1084  0.4733 -0.3324
  122OSM    H3S12840   2.885   1.409   6.841  1.6377  0.1664  0.2268
  122OSM     O312841   2.763   1.277   6.945  0.0766 -0.5226  0.4624
  122OSM    HO312842   2.812   1.236   7.017  0.0460 -0.8087  0.3204
  122OSM    C4S12843   2.812   1.254   6.716  1.0653 -1.0136 -0.5679
  122OSM    H4S12844   2.852   1.329   6.646  1.7717  0.4692  1.3242
  122OSM    C5S12845   2.737   1.141   6.690  0.0805  0.7706  0.1454
  122OSM    H5S12846   2.710   1.066   6.765  1.0485 -0.6913 -0.9027
  122OSM    C6S12847   2.675   1.114   6.557  0.0481 -0.7117  0.1353
  122OSM    H6S12848   2.619   1.201   6.517 -1.4201 -1.5111  0.3955
  122OSM    H6T12849   2.589   1.045   6.570 -0.2288 -0.5864 -0.9679
  122OSM    C7S12850   2.758   1.042   6.448 -0.0145  0.0138  0.3824
  122OSM    H7S12851   2.743   0.932   6.459  0.6236 -0.1790 -0.6103
  122OSM    H7T12852   2.866   1.063   6.459  0.5947 -3.3242  2.1403
  122OSM    C8S12853   2.714   1.089   6.311 -0.2264  0.1556  0.7537
  122OSM    H8S12854   2.751   1.194   6.301  0.5048 -0.1152  0.6042
  122OSM    H8T12855   2.604   1.094   6.299 -0.1867  3.2827  0.6936
  122OSM    C9S12856   2.768   1.004   6.191 -0.1300  1.2536  0.0113
  122OSM    H9S12857   2.738   0.897   6.197  0.0731  1.0334 -2.0880
  122OSM    H9T12858   2.879   1.006   6.201 -0.0027  1.7648 -1.2429
  122OSM   C10S12859   2.730   1.068   6.055  0.5539  0.0089 -0.2420
  122OSM   H10S12860   2.771   1.172   6.060  0.0512  0.2060 -0.2213
  122OSM   H10T12861   2.620   1.080   6.045  0.8319  0.9440 -3.0560
  122OSM   C11S12862   2.775   0.996   5.925 -0.1264  0.6047 -0.3709
  122OSM   H11S12863   2.722   0.899   5.909 -0.2754  0.8723 -1.6051
  122OSM   H11T12864   2.884   0.976   5.931  0.0330  1.4182 -0.5114
  122OSM   C12S12865   2.762   1.084   5.798  0.3741  0.3504  0.3865
  122OSM   H12S12866   2.773   1.194   5.809  3.2601  0.5353 -2.8294
  122OSM   H12T12867   2.655   1.068   5.774  0.1817 -0.2681  1.5495
  122OSM   C13S12868   2.835   1.027   5.683  0.4696 -0.5373  0.3512
  122OSM   H13S12869   2.937   1.070   5.667  0.0543  0.3690  0.0561
  122OSM   H13T12870   2.791   1.080   5.596 -1.5391 -0.9443  1.0766
  122OSM   C14S12871   2.836   0.877   5.667 -0.2145 -0.1341  0.3431
  122OSM   H14S12872   2.730   0.854   5.645 -0.2107 -2.4212  2.2976
  122OSM   H14T12873   2.867   0.815   5.754  0.9425 -0.1157 -0.0348
  122OSM   C15S12874   2.921   0.828   5.555 -0.5580  0.4520  1.0104
  122OSM   H15S12875   3.026   0.828   5.589 -1.1263  0.9659  2.8988
  122OSM   H15T12876   2.915   0.909   5.478 -2.4344 -0.1142  0.5097
  122OSM   C16S12877   2.883   0.688   5.506  0.3634 -0.3332  0.3745
  122OSM   H16S12878   2.785   0.693   5.453  0.9219  0.1783 -0.6439
  122OSM   H16T12879   2.875   0.625   5.597 -1.2120 -0.7489 -0.0231
  122OSM   C17S12880   2.980   0.623   5.416  0.7213  0.2780 -0.2938
  122OSM   H17S12881   3.069   0.616   5.481 -1.5322 -2.1980  2.8610
  122OSM   H17T12882   2.994   0.688   5.326  1.6365  1.1908  0.4836
  122OSM   C18S12883   2.939   0.481   5.390 -0.0437  0.1103 -0.2375
  122OSM   H18S12884   3.031   0.438   5.345  0.8268 -0.5745  2.0493
  122OSM   H18T12885   2.848   0.464   5.329  0.1075  0.7954 -0.6645
  122OSM   H18U12886   2.926   0.418   5.481 -0.4130 -1.4078 -1.2922
  122OSM    C1F12887   3.226   1.217   6.737 -0.2722 -0.4219  0.1461
  122OSM     OF12888   3.244   1.102   6.773  0.4700  0.3637  0.4313
  122OSM    C2F12889   3.327   1.289   6.658 -0.3316 -0.3031 -0.0076
  122OSM    H2F12890   3.396   1.331   6.735  0.0048 -1.0812  0.1275
  122OSM    H2G12891   3.287   1.377   6.604 -0.1467 -0.3944 -0.2978
  122OSM    C3F12892   3.400   1.194   6.561  0.2587 -0.3012  0.1193
  122OSM    H3F12893   3.320   1.169   6.488 -0.4865  0.0026  0.8158
  122OSM    H3G12894   3.440   1.104   6.613  0.1368 -0.5675 -0.2417
  122OSM    C4F12895   3.513   1.249   6.480  0.5712  0.4673  0.1436
  122OSM    H4F12896   3.560   1.161   6.431 -1.3043 -2.4754  3.1895
  122OSM    H4G12897   3.588   1.295   6.547  1.3771  0.6211 -0.8329
  122OSM    C5F12898   3.464   1.347   6.379  0.7715 -0.5503 -0.3179
  122OSM    H5F12899   3.409   1.425   6.437  0.0962 -1.5974  0.4707
  122OSM    H5G12900   3.397   1.295   6.307 -0.3209  0.0591  0.2209
  122OSM    C6F12901   3.566   1.410   6.287 -0.2560  0.0469 -0.5967
  122OSM    H6F12902   3.642   1.477   6.333 -0.4092 -0.5393  0.5683
  122OSM    H6G12903   3.512   1.482   6.223 -0.7125  0.6173  0.4004
  122OSM    C7F12904   3.643   1.305   6.208 -0.4892  0.3171  0.3019
  122OSM    H7F12905   3.567   1.238   6.161 -0.5659 -0.1448  1.0556
  122OSM    H7G12906   3.703   1.240   6.275 -1.1378 -1.7693 -1.0406
  122OSM    C8F12907   3.725   1.364   6.095  0.6404  0.5958  0.5091
  122OSM    H8F12908   3.664   1.433   6.033 -0.5038 -0.1585  0.7794
  122OSM    H8G12909   3.756   1.287   6.022 -1.6393  1.1449 -1.1469
  122OSM    C9F12910   3.855   1.432   6.141 -0.9136  0.9548  0.4434
  122OSM    H9F12911   3.889   1.412   6.244  1.2255 -0.8723 -0.5459
  122OSM   C10F12912   3.929   1.506   6.056  0.6799  0.0950  0.5956
  122OSM   H10F12913   4.018   1.556   6.099  0.2241  0.9015  0.6259
  122OSM   C11F12914   3.881   1.554   5.919 -0.1691 -0.4380 -0.1156
  122OSM   H11F12915   3.948   1.638   5.890  1.5743 -0.5414  3.0435
  122OSM   H11G12916   3.779   1.596   5.926 -0.7958 -1.0793 -3.5473
  122OSM   C12F12917   3.873   1.440   5.815  0.9821 -0.0502  0.6476
  122OSM   H12F12918   3.780   1.385   5.838  0.9504  0.1412  0.9972
  122OSM   H12G12919   3.954   1.365   5.832  1.7913  0.2296 -1.6554
  122OSM   C13F12920   3.874   1.495   5.671  0.5600 -0.3410  0.8071
  122OSM   H13F12921   3.975   1.522   5.634  0.2622  0.5548  0.6164
  122OSM   H13G12922   3.812   1.587   5.665  2.5288  0.9585 -2.9065
  122OSM   C14F12923   3.824   1.392   5.571 -0.5601  0.1710 -0.0050
  122OSM   H14F12924   3.750   1.321   5.614  1.0113 -2.0771 -0.8041
  122OSM   H14G12925   3.910   1.330   5.538  0.0550  1.1588 -0.3092
  122OSM   C15F12926   3.769   1.462   5.446  0.3647 -0.3413  0.0700
  122OSM   H15F12927   3.853   1.491   5.380  0.0366 -0.2378 -0.3067
  122OSM   H15G12928   3.698   1.541   5.478 -0.3004 -1.7309  2.2966
  122OSM   C16F12929   3.676   1.364   5.364 -0.3638 -0.0617 -0.5777
  122OSM   H16F12930   3.589   1.341   5.430  0.4881  1.2758  1.1179
  122OSM   H16G12931   3.729   1.272   5.333 -1.3730 -1.2459  1.0915
  122OSM   C17F12932   3.627   1.432   5.244  0.2625 -0.4973 -0.0854
  122OSM   H17F12933   3.715   1.481   5.197  0.2625 -1.5760 -1.2745
  122OSM   H17G12934   3.542   1.499   5.269  0.4706  0.2150 -1.1809
  122OSM   C18F12935   3.553   1.339   5.137  0.5149  0.1049 -0.6206
  122OSM   H18F12936   3.559   1.388   5.037  1.1957  1.7543  0.1815
  122OSM   H18G12937   3.446   1.330   5.165  1.1546 -1.1581  1.6096
  122OSM   H18H12938   3.604   1.240   5.135 -0.3125 -0.4983  2.5380
  123OSM      N12939   2.635   2.893   2.951  0.1670  0.2320 -0.1532
  123OSM    C1512940   2.693   2.801   3.048  0.1526  0.7692 -0.4106
  123OSM   H15A12941   2.624   2.794   3.130 -0.0469  1.3151 -0.5255
  123OSM   H15B12942   2.790   2.835   3.080  0.5670 -0.0696 -0.7457
  123OSM   H15C12943   2.692   2.698   3.017 -1.4661  0.0754  1.7140
  123OSM    C1412944   2.506   2.839   2.899 -0.1049 -0.1297 -0.3873
  123OSM   H14A12945   2.527   2.747   2.847  0.0308 -0.8796  0.9465
  123OSM   H14B12946   2.465   2.899   2.819 -1.2282 -0.3108  0.0292
  123OSM   H14C12947   2.437   2.806   2.975 -0.5303  0.7852 -0.3617
  123OSM    C1312948   2.601   3.019   3.022  0.3311  0.0471  0.1795
  123OSM   H13A12949   2.535   3.011   3.108 -1.9498  1.6192 -1.3150
  123OSM   H13B12950   2.548   3.088   2.958  0.2082 -0.3451 -0.1512
  123OSM   H13C12951   2.686   3.076   3.056 -0.6931  2.7455 -1.4411
  123OSM    C1212952   2.731   2.915   2.840  0.1336  0.4505  0.2367
  123OSM   H12A12953   2.683   2.979   2.768 -1.0037 -1.0293 -0.3623
  123OSM   H12B12954   2.747   2.820   2.792  0.9367 -0.1523  1.6257
  123OSM    C1112955   2.859   2.979   2.880 -0.0299 -0.9002  0.1902
  123OSM   H11A12956   2.841   3.068   2.944  0.5999  2.1819 -3.5184
  123OSM   H11B12957   2.905   3.034   2.794 -1.2217 -0.4157 -0.1647
  123OSM      P12958   3.026   2.786   2.859  0.0424 -0.0790 -0.2854
  123OSM    O1312959   2.940   2.687   2.786  1.0457 -0.1314  0.1288
  123OSM    O1412960   3.131   2.861   2.787  0.2546  0.2470  0.6432
  123OSM    O1112961   3.097   2.704   2.979  0.0642  0.6996 -0.2496
  123OSM    O1212962   2.937   2.885   2.951 -0.1580  0.3600  0.1451
  123OSM    C1S12963   3.187   2.769   3.075 -1.4922  0.6422 -0.2453
  123OSM    H1S12964   3.197   2.878   3.054  0.7878  0.7856  1.2356
  123OSM    H1T12965   3.292   2.735   3.062 -2.3354 -2.2096 -0.2537
  123OSM     NF12966   3.235   2.816   3.321 -0.5617 -0.5241  0.3918
  123OSM    HNF12967   3.262   2.753   3.393  0.3382 -0.2108  0.3459
  123OSM    C2S12968   3.136   2.758   3.227 -0.4787  0.0564  0.3493
  123OSM    H2S12969   3.041   2.815   3.229 -0.5418 -0.0748  1.0995
  123OSM    C3S12970   3.078   2.616   3.261  0.1351 -0.1594 -0.8702
  123OSM    H3S12971   3.165   2.546   3.260  0.8015  0.5716  1.2044
  123OSM     O312972   2.989   2.563   3.165 -0.6635  0.7590 -0.6728
  123OSM    HO312973   3.018   2.604   3.083 -0.8378 -0.4333 -1.3507
  123OSM    C4S12974   3.019   2.607   3.408 -0.3123  0.3396  0.9597
  123OSM    H4S12975   3.086   2.544   3.469 -0.8908  0.1005  1.3664
  123OSM    C5S12976   2.893   2.631   3.440 -1.2336  0.3142 -0.3494
  123OSM    H5S12977   2.829   2.654   3.353 -0.4855 -0.3361 -1.0871
  123OSM    C6S12978   2.833   2.591   3.570 -0.3219 -0.3748 -0.4806
  123OSM    H6S12979   2.788   2.491   3.552  1.1287 -0.9391 -1.0966
  123OSM    H6T12980   2.759   2.667   3.601 -0.7314 -0.7263 -0.5878
  123OSM    C7S12981   2.930   2.586   3.687  0.3178  0.3101  0.6571
  123OSM    H7S12982   3.003   2.669   3.692  1.6662 -0.7973  0.1234
  123OSM    H7T12983   2.994   2.496   3.677 -1.6616 -1.1415  0.4016
  123OSM    C8S12984   2.865   2.569   3.821 -0.5008  0.1231  0.4305
  123OSM    H8S12985   2.797   2.482   3.801  0.7615 -0.6050 -0.9181
  123OSM    H8T12986   2.811   2.664   3.839  0.5435  0.8759 -0.2802
  123OSM    C9S12987   2.956   2.553   3.940  0.1932 -0.6942  0.2084
  123OSM    H9S12988   3.031   2.635   3.943 -0.9689  0.4205 -0.2132
  123OSM    H9T12989   3.007   2.455   3.931 -0.9641 -1.3891  0.9757
  123OSM   C10S12990   2.881   2.559   4.068  0.9609 -0.2169  0.7489
  123OSM   H10S12991   2.799   2.484   4.068 -1.2148  1.9962 -0.5467
  123OSM   H10T12992   2.839   2.661   4.082  1.3298  0.1919 -0.9466
  123OSM   C11S12993   2.966   2.541   4.189 -1.0313 -0.0974 -0.7026
  123OSM   H11S12994   3.050   2.613   4.178  1.0713 -2.5354 -1.6786
  123OSM   H11T12995   3.008   2.439   4.180  1.6156  0.9290 -0.9133
  123OSM   C12S12996   2.900   2.544   4.320  0.6224 -0.1375 -0.0729
  123OSM   H12S12997   2.812   2.476   4.326 -0.8079  1.6718  0.2948
  123OSM   H12T12998   2.847   2.637   4.350 -1.3083 -1.1269 -0.2564
  123OSM   C13S12999   2.994   2.504   4.436  0.5497  0.1303 -0.4878
  123OSM   H13S13000   3.083   2.569   4.450  1.9979 -1.9386  0.3320
  123OSM   H13T13001   3.024   2.399   4.415 -1.2382 -0.6004  0.4236
  123OSM   C14S13002   2.916   2.500   4.570  0.5568 -0.2083  0.2323
  123OSM   H14S13003   2.816   2.457   4.549  0.0444  2.0369 -2.4087
  123OSM   H14T13004   2.891   2.606   4.593  1.5360  0.6220 -2.1827
  123OSM   C15S13005   2.997   2.410   4.674  0.6607 -0.4251  0.7014
  123OSM   H15S13006   3.039   2.323   4.618 -0.9143 -1.0552  0.4383
  123OSM   H15T13007   2.925   2.364   4.745  0.3733 -1.5623 -0.2974
  123OSM   C16S13008   3.103   2.488   4.748  0.0162  0.2872  0.6758
  123OSM   H16S13009   3.066   2.555   4.828  1.1195  1.6969  0.0385
  123OSM   H16T13010   3.168   2.544   4.678 -2.1983  1.5012 -0.5419
  123OSM   C17S13011   3.188   2.388   4.835 -0.9063  0.3752  0.0431
  123OSM   H17S13012   3.244   2.327   4.761 -0.8865  1.8024 -1.1501
  123OSM   H17T13013   3.121   2.320   4.893 -1.1765  0.9496  0.4077
  123OSM   C18S13014   3.294   2.465   4.922 -0.1953  0.4632 -0.4118
  123OSM   H18S13015   3.330   2.558   4.873  1.5638  0.5198  0.8667
  123OSM   H18T13016   3.376   2.393   4.941 -2.9950 -2.6646  0.8394
  123OSM   H18U13017   3.242   2.496   5.015  2.1385  1.3808  0.6804
  123OSM    C1F13018   3.280   2.948   3.312  0.4370  0.4103 -0.7411
  123OSM     OF13019   3.240   3.027   3.230 -0.1153 -0.5281  0.5151
  123OSM    C2F13020   3.370   2.995   3.420  0.6447 -0.4581 -0.5467
  123OSM    H2F13021   3.469   2.978   3.373  0.0807 -2.5325 -1.0601
  123OSM    H2G13022   3.351   2.937   3.513  2.1406  1.2065  0.8945
  123OSM    C3F13023   3.357   3.147   3.445  0.1278 -0.4633 -0.2066
  123OSM    H3F13024   3.249   3.170   3.429  0.4076  1.2517  0.0906
  123OSM    H3G13025   3.420   3.195   3.368  1.6674 -1.1623  0.5625
  123OSM    C4F13026   3.415   3.185   3.582 -0.2385 -0.1577  0.1963
  123OSM    H4F13027   3.337   3.163   3.659 -1.0886 -1.2333 -0.9397
  123OSM    H4G13028   3.431   3.295   3.579  1.9023 -0.4497 -0.9824
  123OSM    C5F13029   3.543   3.117   3.626 -0.2428  0.6562 -0.3168
  123OSM    H5F13030   3.624   3.141   3.553 -0.8769  0.1873 -1.1865
  123OSM    H5G13031   3.542   3.006   3.620  1.4344  0.5628  0.4096
  123OSM    C6F13032   3.595   3.167   3.768 -0.3210  0.2368 -0.0900
  123OSM    H6F13033   3.603   3.276   3.747 -1.1497  0.0662 -1.3929
  123OSM    H6G13034   3.702   3.142   3.787 -0.3308  1.1384  1.2654
  123OSM    C7F13035   3.509   3.148   3.888  0.1061  0.2637 -0.1119
  123OSM    H7F13036   3.520   3.042   3.920  1.2775 -0.1476 -1.7033
  123OSM    H7G13037   3.403   3.171   3.866  0.1764  1.0974  0.3799
  123OSM    C8F13038   3.538   3.244   4.005  0.0484 -0.3788 -0.0515
  123OSM    H8F13039   3.518   3.348   3.970  1.9492  0.1594  0.3545
  123OSM    H8G13040   3.645   3.230   4.032  0.3122 -1.1261 -1.3715
  123OSM    C9F13041   3.429   3.222   4.108 -0.5292 -0.0512  0.5283
  123OSM    H9F13042   3.327   3.234   4.067 -1.6461 -0.3637  3.0182
  123OSM   C10F13043   3.446   3.182   4.240 -0.8153 -0.2292  0.6285
  123OSM   H10F13044   3.360   3.180   4.308 -0.5007 -0.3316  1.0280
  123OSM   C11F13045   3.577   3.148   4.314  0.8858 -0.8608  0.1513
  123OSM   H11F13046   3.660   3.141   4.240  0.4677  0.8417 -0.5190
  123OSM   H11G13047   3.580   3.049   4.365  0.8529 -2.0121 -1.9628
  123OSM   C12F13048   3.609   3.269   4.414 -0.6088  0.3234  0.2805
  123OSM   H12F13049   3.525   3.286   4.485  0.7807  1.4593  1.7415
  123OSM   H12G13050   3.609   3.367   4.362 -0.9472 -0.2041 -0.7311
  123OSM   C13F13051   3.752   3.251   4.475  0.3539  0.2498 -0.2960
  123OSM   H13F13052   3.823   3.262   4.390 -0.7330  1.8839 -1.0421
  123OSM   H13G13053   3.749   3.148   4.518 -1.2793  0.3301 -0.1457
  123OSM   C14F13054   3.771   3.350   4.591 -0.3092 -0.1318 -0.5013
  123OSM   H14F13055   3.779   3.448   4.540  1.5323 -0.0114 -0.0623
  123OSM   H14G13056   3.868   3.328   4.640 -1.0406 -0.7925  0.6968
  123OSM   C15F13057   3.666   3.352   4.707  0.4869 -0.8797 -0.0122
  123OSM   H15F13058   3.678   3.252   4.754 -2.1439 -1.5698 -0.6676
  123OSM   H15G13059   3.565   3.368   4.663 -0.8614 -0.0763  3.1111
  123OSM   C16F13060   3.701   3.468   4.804 -1.0099 -0.2511  0.0793
  123OSM   H16F13061   3.668   3.567   4.766  1.3103  1.8976  3.1570
  123OSM   H16G13062   3.812   3.472   4.811 -0.9946 -1.1820  0.7020
  123OSM   C17F13063   3.635   3.462   4.937 -0.5393  0.0448 -0.1893
  123OSM   H17F13064   3.625   3.360   4.981  0.9540  0.1893  0.5254
  123OSM   H17G13065   3.527   3.472   4.913 -0.2346  0.5642 -1.4104
  123OSM   C18F13066   3.690   3.563   5.035  0.3693  0.1525  0.1102
  123OSM   H18F13067   3.630   3.562   5.128 -1.9023 -0.4541 -1.2926
  123OSM   H18G13068   3.672   3.664   4.991 -0.6626  0.3076  0.8669
  123OSM   H18H13069   3.798   3.550   5.060  0.7156  1.0652 -0.7922
  124OSM      N13070   2.636   4.235   2.704  0.0514 -0.2735  0.0762
  124OSM    C1513071   2.783   4.223   2.716  0.7680 -1.1779 -0.4227
  124OSM   H15A13072   2.830   4.293   2.649  1.4197 -2.2691 -1.1388
  124OSM   H15B13073   2.807   4.119   2.701  0.1227 -1.3207 -0.5186
  124OSM   H15C13074   2.816   4.252   2.815  2.6530 -1.3692 -0.9570
  124OSM    C1413075   2.595   4.372   2.717 -0.5314 -0.8549 -0.3572
  124OSM   H14A13076   2.489   4.382   2.696 -0.8535 -3.6069 -0.3637
  124OSM   H14B13077   2.641   4.438   2.645 -1.8588 -0.9198 -1.3142
  124OSM   H14C13078   2.622   4.413   2.813 -2.0213 -1.6166  0.4148
  124OSM    C1313079   2.590   4.170   2.579  0.5882 -0.5827  0.2371
  124OSM   H13A13080   2.615   4.065   2.577  0.5746 -0.6397  1.7026
  124OSM   H13B13081   2.640   4.210   2.492  1.9594  0.6547  1.5260
  124OSM   H13C13082   2.485   4.187   2.564  0.9703  1.8938 -0.0653
  124OSM    C1213083   2.572   4.163   2.829  0.1687 -0.1510 -0.3584
  124OSM   H12A13084   2.465   4.166   2.812  0.2164  0.1551 -0.6205
  124OSM   H12B13085   2.582   4.229   2.914 -3.7689  0.4295 -0.1798
  124OSM    C1113086   2.614   4.019   2.863  0.0194  0.5882 -0.3500
  124OSM   H11A13087   2.597   3.987   2.967 -1.3160  0.9422 -0.4396
  124OSM   H11B13088   2.725   4.026   2.854  0.0069 -0.6570 -2.0292
  124OSM      P13089   2.411   3.894   2.762 -0.1977  0.0309 -0.2353
  124OSM    O1313090   2.336   4.003   2.691 -0.1512 -0.2992 -0.6670
  124OSM    O1413091   2.390   3.758   2.712 -0.1947 -0.1622  0.7423
  124OSM    O1113092   2.365   3.899   2.909  0.6440 -0.2018 -0.0265
  124OSM    O1213093   2.570   3.922   2.768  0.1225 -0.2112 -0.7887
  124OSM    C1S13094   2.373   3.786   2.994 -0.0191  0.8820  0.2134
  124OSM    H1S13095   2.469   3.730   2.989 -0.4558  0.1646 -0.3112
  124OSM    H1T13096   2.300   3.711   2.956  0.2637  1.0064 -0.6058
  124OSM     NF13097   2.408   3.708   3.232  0.7377  1.0624 -0.1285
  124OSM    HNF13098   2.350   3.666   3.301  1.4296  0.2786 -0.0071
  124OSM    C2S13099   2.337   3.807   3.145  0.5477 -0.6248  0.8224
  124OSM    H2S13100   2.379   3.906   3.174  0.6847 -0.1412 -0.8743
  124OSM    C3S13101   2.177   3.825   3.158 -0.2100  0.2177 -0.5269
  124OSM    H3S13102   2.138   3.721   3.161 -1.2838  0.6010  2.9170
  124OSM     O313103   2.127   3.887   3.040  0.1744 -0.7190 -0.0992
  124OSM    HO313104   2.192   3.891   2.970  1.4370  1.7714  1.0824
  124OSM    C4S13105   2.131   3.879   3.288  0.1277 -0.5803 -0.1599
  124OSM    H4S13106   2.137   3.989   3.290  0.3766 -0.5544 -1.3749
  124OSM    C5S13107   2.075   3.813   3.399  0.0237  0.0053  0.6660
  124OSM    H5S13108   2.066   3.704   3.410 -1.1280  0.0888  0.6155
  124OSM    C6S13109   2.043   3.895   3.516 -0.0190  0.1769 -0.3756
  124OSM    H6S13110   1.933   3.884   3.528  0.2460 -2.5605  0.0140
  124OSM    H6T13111   2.060   4.004   3.499 -0.1883  0.2581 -0.0324
  124OSM    C7S13112   2.116   3.847   3.642  0.0060 -0.3856 -0.3391
  124OSM    H7S13113   2.222   3.858   3.610 -0.7122  1.4680 -2.3289
  124OSM    H7T13114   2.091   3.742   3.666 -0.1104 -0.1893  0.4310
  124OSM    C8S13115   2.100   3.938   3.765  0.2399  0.1581 -0.1546
  124OSM    H8S13116   1.995   3.950   3.800  0.1711  0.3770 -0.4332
  124OSM    H8T13117   2.136   4.039   3.736 -0.1546  0.4565  0.3894
  124OSM    C9S13118   2.179   3.888   3.886  0.2118 -0.4315 -0.0566
  124OSM    H9S13119   2.285   3.866   3.863  0.3811 -1.0915  1.2486
  124OSM    H9T13120   2.133   3.792   3.919  1.7219 -0.7849  1.1380
  124OSM   C10S13121   2.167   3.976   4.005 -0.2326  0.0860  1.1063
  124OSM   H10S13122   2.065   4.019   4.019 -0.4393 -0.2585  0.6999
  124OSM   H10T13123   2.234   4.062   3.986 -1.4272  0.6277 -1.0438
  124OSM   C11S13124   2.199   3.890   4.130  0.0419 -0.4326 -0.2540
  124OSM   H11S13125   2.287   3.832   4.095  1.5767 -0.3064  3.0786
  124OSM   H11T13126   2.112   3.824   4.152  0.7207 -1.1716  0.2676
  124OSM   C12S13127   2.205   3.984   4.253 -0.1215 -0.0234 -0.0087
  124OSM   H12S13128   2.121   4.056   4.248 -0.2452 -0.2097 -0.7482
  124OSM   H12T13129   2.298   4.042   4.233 -1.0762  1.4464 -0.2890
  124OSM   C13S13130   2.231   3.900   4.385 -0.3841 -0.7795 -0.2244
  124OSM   H13S13131   2.135   3.850   4.413 -0.8136  0.6316  0.9995
  124OSM   H13T13132   2.250   3.982   4.458  0.8404 -0.5546 -0.7744
  124OSM   C14S13133   2.345   3.798   4.377 -0.4182  0.9134  0.5730
  124OSM   H14S13134   2.425   3.842   4.315  1.0075 -0.0259  1.6944
  124OSM   H14T13135   2.305   3.711   4.322 -0.9869  2.4314 -1.5319
  124OSM   C15S13136   2.417   3.763   4.512 -0.2166 -0.4359  0.5328
  124OSM   H15S13137   2.458   3.856   4.555 -2.2039  0.6403  0.2025
  124OSM   H15T13138   2.501   3.692   4.493  1.9203  2.2390 -0.6168
  124OSM   C16S13139   2.316   3.709   4.612 -0.1405  0.2181 -0.1110
  124OSM   H16S13140   2.246   3.641   4.559  1.2554 -0.1785 -1.5212
  124OSM   H16T13141   2.250   3.783   4.660 -1.9018 -1.9302  0.9794
  124OSM   C17S13142   2.386   3.623   4.718  0.5676 -0.5095  0.0355
  124OSM   H17S13143   2.455   3.691   4.773 -0.6465 -0.7891  2.0232
  124OSM   H17T13144   2.441   3.541   4.668  0.7210 -1.4579  1.7112
  124OSM   C18S13145   2.279   3.561   4.811  0.3776 -0.6255  0.3873
  124OSM   H18S13146   2.206   3.640   4.836  0.9447  0.2005 -0.4814
  124OSM   H18T13147   2.323   3.513   4.901 -1.1277 -2.5686  0.1347
  124OSM   H18U13148   2.213   3.487   4.762 -0.9881  0.5240  0.4268
  124OSM    C1F13149   2.537   3.708   3.248 -0.1457  0.9144  0.4709
  124OSM     OF13150   2.603   3.763   3.164  0.9266  0.3005 -0.2530
  124OSM    C2F13151   2.591   3.648   3.373  1.1808 -0.7013 -0.3575
  124OSM    H2F13152   2.589   3.538   3.355 -1.1434 -0.6305 -0.8161
  124OSM    H2G13153   2.534   3.686   3.460  1.1110  0.5949 -0.9505
  124OSM    C3F13154   2.741   3.689   3.406  0.0681  0.2551  0.6178
  124OSM    H3F13155   2.744   3.799   3.421  0.8355  0.0590  2.0481
  124OSM    H3G13156   2.795   3.653   3.315  1.1931 -1.6894  1.9728
  124OSM    C4F13157   2.789   3.617   3.532 -0.1918 -0.4793  1.0349
  124OSM    H4F13158   2.887   3.662   3.560 -0.7761  1.1681  0.5564
  124OSM    H4G13159   2.807   3.508   3.523  0.7639 -0.2627  0.1516
  124OSM    C5F13160   2.703   3.629   3.659 -0.3715 -0.3969  0.2571
  124OSM    H5F13161   2.612   3.565   3.661 -1.3010  0.6759 -2.9783
  124OSM    H5G13162   2.672   3.735   3.660 -0.1635 -0.2765 -1.7760
  124OSM    C6F13163   2.777   3.586   3.788 -0.4432 -0.0041  0.4089
  124OSM    H6F13164   2.865   3.654   3.796 -0.4733  0.1425 -0.4687
  124OSM    H6G13165   2.820   3.485   3.778  2.5561  1.0517  1.3906
  124OSM    C7F13166   2.679   3.576   3.911 -0.0786  0.1741  0.6257
  124OSM    H7F13167   2.605   3.496   3.891  1.2622 -0.9699 -0.0004
  124OSM    H7G13168   2.624   3.672   3.912  1.2974  1.1314 -2.6044
  124OSM    C8F13169   2.739   3.556   4.048  0.8413 -0.3036  0.0467
  124OSM    H8F13170   2.804   3.467   4.034  0.2776 -1.1279  2.2736
  124OSM    H8G13171   2.665   3.530   4.127 -0.0898  1.8525 -0.0548
  124OSM    C9F13172   2.833   3.656   4.093 -0.2497 -0.7518 -0.1303
  124OSM    H9F13173   2.902   3.693   4.016 -0.2986  0.2071  0.2646
  124OSM   C10F13174   2.850   3.711   4.212  0.4499  0.1822  0.2178
  124OSM   H10F13175   2.925   3.790   4.227 -0.7997  1.5875 -0.5576
  124OSM   C11F13176   2.742   3.701   4.319 -0.3153  0.4811 -0.5080
  124OSM   H11F13177   2.642   3.665   4.288 -0.8447  1.0811  0.4326
  124OSM   H11G13178   2.718   3.802   4.359 -0.5577  0.2269 -0.0007
  124OSM   C12F13179   2.783   3.622   4.442 -0.3363 -0.1630 -0.6392
  124OSM   H12F13180   2.711   3.642   4.524 -1.3674 -1.6987 -1.1185
  124OSM   H12G13181   2.879   3.660   4.484 -1.5514  0.2537  1.9454
  124OSM   C13F13182   2.797   3.474   4.420 -0.3134 -0.4167  0.1148
  124OSM   H13F13183   2.883   3.452   4.354 -2.2402 -0.5733 -2.4858
  124OSM   H13G13184   2.708   3.437   4.365 -0.4279  0.5223 -0.3560
  124OSM   C14F13185   2.796   3.389   4.552 -0.3008  0.3481  0.5299
  124OSM   H14F13186   2.873   3.418   4.627 -0.2576  1.5309  0.0453
  124OSM   H14G13187   2.815   3.284   4.522 -2.1492  0.3433 -0.8106
  124OSM   C15F13188   2.661   3.390   4.622 -0.1719  0.5117 -0.3007
  124OSM   H15F13189   2.600   3.464   4.568  0.9360  2.0598  0.4890
  124OSM   H15G13190   2.677   3.423   4.727 -2.7815 -1.8834  0.9795
  124OSM   C16F13191   2.588   3.251   4.627  0.2254 -0.6998  0.2838
  124OSM   H16F13192   2.658   3.182   4.679 -0.7250 -0.4960  1.9214
  124OSM   H16G13193   2.576   3.204   4.527 -0.7695  1.6323 -0.7557
  124OSM   C17F13194   2.451   3.246   4.693 -0.0753  0.3436  0.5632
  124OSM   H17F13195   2.394   3.310   4.624 -1.9442 -1.2762  0.5206
  124OSM   H17G13196   2.456   3.292   4.794 -1.6157 -0.7910  1.1935
  124OSM   C18F13197   2.396   3.109   4.724  0.1507  0.4664 -0.5258
  124OSM   H18F13198   2.287   3.093   4.707  0.6093 -0.9051 -2.5190
  124OSM   H18G13199   2.425   3.085   4.829 -2.0403 -1.4819 -0.2654
  124OSM   H18H13200   2.452   3.041   4.656 -0.9427 -0.8442 -0.1698
  125OSM      N13201   2.778   1.394   2.659 -0.1294  0.2598  0.2041
  125OSM    C1513202   2.681   1.500   2.715 -0.0948  0.0716  0.8433
  125OSM   H15A13203   2.644   1.556   2.630 -0.0087 -2.3566 -0.9025
  125OSM   H15B13204   2.737   1.567   2.779  1.7101 -0.3665 -0.2200
  125OSM   H15C13205   2.592   1.466   2.766 -1.8580  1.0746 -1.3573
  125OSM    C1413206   2.695   1.316   2.555 -0.0507 -0.2205 -0.7650
  125OSM   H14A13207   2.620   1.258   2.607  1.3228 -0.2759  1.2381
  125OSM   H14B13208   2.752   1.246   2.496  1.1161 -0.7731  0.9539
  125OSM   H14C13209   2.637   1.382   2.492  1.3879  0.5893 -1.2878
  125OSM    C1313210   2.899   1.460   2.585  0.2980  0.3719  0.9595
  125OSM   H13A13211   2.852   1.526   2.513  0.3109 -0.6492 -0.0218
  125OSM   H13B13212   2.963   1.393   2.529  0.1832 -0.9907  2.3864
  125OSM   H13C13213   2.957   1.521   2.653  1.1645  1.4829 -0.6811
  125OSM    C1213214   2.824   1.301   2.767 -0.0784  0.0166 -0.2578
  125OSM   H12A13215   2.896   1.347   2.833 -0.9510  0.8567  0.1264
  125OSM   H12B13216   2.874   1.216   2.722 -1.8434 -2.4316  2.0456
  125OSM    C1113217   2.715   1.243   2.859 -0.2690  0.5896  0.6534
  125OSM   H11A13218   2.682   1.318   2.935  2.3937  2.9952 -0.3936
  125OSM   H11B13219   2.756   1.164   2.926 -0.0711  0.4524  0.3700
  125OSM      P13220   2.459   1.211   2.816  0.2010  0.6195  0.0103
  125OSM    O1313221   2.438   1.355   2.780  0.2218 -0.0271  0.0171
  125OSM    O1413222   2.369   1.108   2.758  0.4239 -0.0972  0.1950
  125OSM    O1113223   2.442   1.204   2.968  0.1243  0.0029  0.5106
  125OSM    O1213224   2.607   1.182   2.784  0.0486 -0.3207 -0.2498
  125OSM    C1S13225   2.378   1.103   3.049 -0.2917  0.7443  1.0310
  125OSM    H1S13226   2.457   1.036   3.087  0.1916  0.7515  0.0849
  125OSM    H1T13227   2.308   1.033   2.998  1.9809 -0.3967 -0.7208
  125OSM     NF13228   2.283   1.035   3.263  0.1910 -0.7012 -0.0028
  125OSM    HNF13229   2.196   0.989   3.251 -0.2212  0.3481 -1.2940
  125OSM    C2S13230   2.305   1.154   3.178 -0.9349  0.1518  0.1908
  125OSM    H2S13231   2.368   1.225   3.235 -0.2975 -0.1167 -0.1703
  125OSM    C3S13232   2.173   1.223   3.143  0.7152 -0.1627  0.5290
  125OSM    H3S13233   2.110   1.137   3.112  2.3354 -1.1685 -0.0763
  125OSM     O313234   2.180   1.314   3.027 -0.6618  0.1129  0.6389
  125OSM    HO313235   2.273   1.306   3.003 -0.4073 -0.1444  1.6657
  125OSM    C4S13236   2.105   1.286   3.265 -0.2041  0.7008 -0.2277
  125OSM    H4S13237   2.149   1.380   3.301  0.1968 -0.7096  3.3200
  125OSM    C5S13238   1.996   1.236   3.324  0.5640 -0.2488 -0.0050
  125OSM    H5S13239   1.934   1.158   3.278  1.6087 -0.4159 -1.1810
  125OSM    C6S13240   1.938   1.292   3.449  0.1189  0.2918  0.4396
  125OSM    H6S13241   1.827   1.286   3.447  0.1354  0.1983 -1.1876
  125OSM    H6T13242   1.964   1.400   3.462 -2.2109  0.7761  1.6827
  125OSM    C7S13243   1.989   1.211   3.576  0.2336 -0.2442 -0.0812
  125OSM    H7S13244   2.098   1.227   3.592  0.5430 -0.8573 -1.4239
  125OSM    H7T13245   1.975   1.103   3.556  1.7731 -0.6775  0.9670
  125OSM    C8S13246   1.916   1.242   3.706 -0.2376 -0.4981  0.1706
  125OSM    H8S13247   1.812   1.241   3.668 -1.0806  1.3247  2.1890
  125OSM    H8T13248   1.934   1.351   3.716 -0.0278 -0.5175  0.0125
  125OSM    C9S13249   1.941   1.152   3.827 -0.3254 -0.0851  0.4149
  125OSM    H9S13250   2.041   1.177   3.867 -0.4384 -0.7727  1.1460
  125OSM    H9T13251   1.945   1.045   3.796 -1.1357  0.0620 -0.2211
  125OSM   C10S13252   1.843   1.167   3.936 -0.1121 -0.5509 -1.1281
  125OSM   H10S13253   1.736   1.170   3.903 -0.3454 -0.4494 -0.3840
  125OSM   H10T13254   1.856   1.267   3.981 -0.5335 -0.8609 -0.2941
  125OSM   C11S13255   1.862   1.067   4.055 -0.5501  0.2316  0.2499
  125OSM   H11S13256   1.795   1.121   4.125 -1.2756 -1.7132  1.1364
  125OSM   H11T13257   1.970   1.062   4.079 -0.2034  3.0509 -0.4091
  125OSM   C12S13258   1.795   0.928   4.025 -0.5706  0.1550 -0.0753
  125OSM   H12S13259   1.827   0.903   3.921  0.0103  3.5660 -0.8272
  125OSM   H12T13260   1.684   0.930   4.031 -0.6350  2.9162 -0.8198
  125OSM   C13S13261   1.852   0.816   4.109  0.0378  0.5194 -0.8099
  125OSM   H13S13262   1.841   0.838   4.218 -1.1446 -1.6242 -0.4257
  125OSM   H13T13263   1.959   0.793   4.090  0.0872 -0.7346  0.7203
  125OSM   C14S13264   1.764   0.692   4.092 -0.1385 -0.0952  0.7160
  125OSM   H14S13265   1.781   0.649   3.991  0.4369  3.4292 -0.8343
  125OSM   H14T13266   1.654   0.706   4.086 -0.2189 -0.9117  0.1442
  125OSM   C15S13267   1.779   0.601   4.215  0.4579 -0.0532 -0.1889
  125OSM   H15S13268   1.721   0.634   4.304 -1.9349 -1.8513 -0.9926
  125OSM   H15T13269   1.884   0.588   4.249  0.4847  1.5939  0.4757
  125OSM   C16S13270   1.723   0.458   4.188 -0.1430 -0.5095  0.4273
  125OSM   H16S13271   1.727   0.396   4.280  3.6210 -0.3387  0.5165
  125OSM   H16T13272   1.794   0.407   4.119 -0.1709 -0.2658  0.2155
  125OSM   C17S13273   1.580   0.457   4.137 -0.0109 -0.6416 -0.0759
  125OSM   H17S13274   1.572   0.523   4.048  1.3296 -1.3847 -0.7814
  125OSM   H17T13275   1.510   0.491   4.216  0.1016 -3.0960  1.1872
  125OSM   C18S13276   1.553   0.312   4.088 -0.1715 -0.4216  0.1152
  125OSM   H18S13277   1.590   0.234   4.157  0.3620 -0.9317 -0.7275
  125OSM   H18T13278   1.610   0.292   3.995  0.4826 -0.5636  0.5357
  125OSM   H18U13279   1.443   0.296   4.085 -0.1782 -0.3137 -0.2357
  125OSM    C1F13280   2.372   0.978   3.348 -0.0636  1.0754 -0.3432
  125OSM     OF13281   2.486   1.011   3.356 -0.5862 -0.0632  0.8052
  125OSM    C2F13282   2.325   0.858   3.426  0.7295  0.5388  0.7579
  125OSM    H2F13283   2.403   0.838   3.503 -0.0887 -0.0144  1.4504
  125OSM    H2G13284   2.323   0.777   3.350  1.5692  1.2431 -0.0566
  125OSM    C3F13285   2.199   0.884   3.510 -0.4957 -0.0304  0.1025
  125OSM    H3F13286   2.115   0.919   3.447 -0.7567 -0.9054 -0.0481
  125OSM    H3G13287   2.224   0.954   3.592  0.4133 -0.2870  0.0559
  125OSM    C4F13288   2.152   0.747   3.574  0.6276 -0.2614  0.0729
  125OSM    H4F13289   2.239   0.697   3.623  2.4093  0.9079 -1.7426
  125OSM    H4G13290   2.105   0.679   3.500  0.3349  1.1506 -1.0733
  125OSM    C5F13291   2.043   0.773   3.687 -0.0142  0.3096  0.1180
  125OSM    H5F13292   2.012   0.878   3.670  3.2191  1.4234  0.3249
  125OSM    H5G13293   2.091   0.780   3.787 -2.1485  0.4870  1.1810
  125OSM    C6F13294   1.929   0.671   3.679 -0.5129 -0.0560  0.0159
  125OSM    H6F13295   1.883   0.673   3.578 -1.1149 -0.1074  0.2826
  125OSM    H6G13296   1.858   0.714   3.753 -0.7070 -1.4499  0.6852
  125OSM    C7F13297   1.973   0.532   3.723  0.8914 -0.3710  0.3173
  125OSM    H7F13298   2.061   0.510   3.659  0.9028  2.6519 -0.8610
  125OSM    H7G13299   1.895   0.457   3.698  1.5612 -1.1223  0.4140
  125OSM    C8F13300   1.997   0.517   3.869 -0.9342 -0.0633 -0.5594
  125OSM    H8F13301   1.899   0.497   3.918 -0.9326  0.6475 -0.2540
  125OSM    H8G13302   2.035   0.612   3.913  0.1414 -1.2118  1.1171
  125OSM    C9F13303   2.088   0.404   3.916  0.1240 -0.3111  0.0809
  125OSM    H9F13304   2.054   0.302   3.892  0.2264 -0.7585  1.7211
  125OSM   C10F13305   2.201   0.406   3.993  0.4750  0.1547 -0.1218
  125OSM   H10F13306   2.252   0.311   4.016 -0.2414  0.1226  1.5001
  125OSM   C11F13307   2.276   0.524   4.042  0.2327  0.0390  0.5635
  125OSM   H11F13308   2.198   0.603   4.048  2.0609  1.9398  0.3719
  125OSM   H11G13309   2.346   0.541   3.957 -0.5358 -0.2482 -0.1411
  125OSM   C12F13310   2.360   0.534   4.167 -0.0093  0.1330 -0.1329
  125OSM   H12F13311   2.390   0.641   4.176  0.0934  0.3944 -2.7548
  125OSM   H12G13312   2.463   0.493   4.163  0.8831  2.2750 -1.0723
  125OSM   C13F13313   2.292   0.486   4.301 -0.4081  0.7140 -0.1977
  125OSM   H13F13314   2.375   0.506   4.373 -0.3032 -0.9723  0.1786
  125OSM   H13G13315   2.275   0.377   4.315 -0.4260  0.8923  1.4101
  125OSM   C14F13316   2.168   0.570   4.346 -0.8079 -0.1797  0.8361
  125OSM   H14F13317   2.096   0.580   4.261  0.7728  1.0566 -0.4227
  125OSM   H14G13318   2.211   0.667   4.378  0.9537 -0.3732 -0.7632
  125OSM   C15F13319   2.089   0.504   4.462  0.9193  0.5654 -0.2921
  125OSM   H15F13320   2.047   0.406   4.432 -1.4277  1.5803 -0.5177
  125OSM   H15G13321   2.004   0.574   4.476 -0.8627 -1.4082 -0.7324
  125OSM   C16F13322   2.154   0.486   4.603  0.5446  0.4068  0.3406
  125OSM   H16F13323   2.220   0.573   4.621  0.0712  0.6002  1.1737
  125OSM   H16G13324   2.213   0.392   4.607  1.4629  0.9376 -0.2342
  125OSM   C17F13325   2.053   0.467   4.710 -0.6146  0.2168 -0.2058
  125OSM   H17F13326   1.989   0.558   4.708 -0.6296  0.1943 -0.9335
  125OSM   H17G13327   2.103   0.482   4.809  1.9668  0.9861 -1.5404
  125OSM   C18F13328   1.966   0.337   4.699 -0.2318  0.4525 -0.7957
  125OSM   H18F13329   1.968   0.300   4.594  1.3360 -0.1045 -0.5924
  125OSM   H18G13330   1.865   0.369   4.732 -0.9329 -0.9576 -1.4370
  125OSM   H18H13331   2.018   0.257   4.756  0.0324 -1.0511 -3.0088
  126OSM      N13332   5.659   5.420   2.278 -0.4422  0.2604  0.5752
  126OSM    C1513333   5.672   5.407   2.424  0.6331 -0.1676 -0.5140
  126OSM   H15A13334   5.751   5.335   2.443  0.2990 -0.5241 -0.4523
  126OSM   H15B13335   5.584   5.364   2.470  1.3710 -0.7398  0.4075
  126OSM   H15C13336   5.682   5.505   2.467 -0.1998 -0.0359 -0.5995
  126OSM    C1413337   5.799   5.463   2.226  0.1662  0.3500 -0.4569
  126OSM   H14A13338   5.880   5.404   2.265 -0.0623 -0.4508 -1.1750
  126OSM   H14B13339   5.825   5.563   2.258  2.6093 -0.2494 -0.4125
  126OSM   H14C13340   5.809   5.456   2.119  2.2685 -4.6639 -0.1668
  126OSM    C1313341   5.645   5.284   2.227 -0.8189  0.3853 -0.2193
  126OSM   H13A13342   5.735   5.234   2.257 -0.0130 -0.1299 -3.2023
  126OSM   H13B13343   5.642   5.275   2.120  1.3441 -0.5090 -0.2410
  126OSM   H13C13344   5.556   5.241   2.272 -0.9089  1.1716  0.3707
  126OSM    C1213345   5.549   5.518   2.241 -0.3099  1.0073 -0.5115
  126OSM   H12A13346   5.454   5.489   2.284  0.3216 -1.2145 -0.4933
  126OSM   H12B13347   5.535   5.507   2.134  2.8801  0.1870 -0.9606
  126OSM    C1113348   5.571   5.668   2.267 -0.0764 -0.0744 -0.5840
  126OSM   H11A13349   5.493   5.734   2.223  0.6639  0.9254 -0.4453
  126OSM   H11B13350   5.668   5.700   2.221  0.2682 -1.2776 -0.7164
  126OSM      P13351   5.532   5.831   2.464 -0.5520  0.1239 -0.1518
  126OSM    O1313352   5.643   5.916   2.512  0.3989  0.4635 -0.3041
  126OSM    O1413353   5.432   5.892   2.374 -0.4203  0.1081 -0.3044
  126OSM    O1113354   5.453   5.798   2.594  0.7220  0.5161 -0.6191
  126OSM    O1213355   5.589   5.691   2.409 -0.5059 -0.1745 -0.3385
  126OSM    C1S13356   5.481   5.674   2.665  0.1414  0.7766  0.0194
  126OSM    H1S13357   5.510   5.592   2.596 -1.7227 -0.0937  0.2154
  126OSM    H1T13358   5.381   5.636   2.695  1.0276 -0.1156  2.0218
  126OSM     NF13359   5.616   5.576   2.837  0.4035  0.0564 -0.3830
  126OSM    HNF13360   5.568   5.513   2.897  0.7593 -1.8593 -1.9837
  126OSM    C2S13361   5.557   5.696   2.800 -0.4279  0.6945 -0.2665
  126OSM    H2S13362   5.628   5.777   2.772 -1.0677  0.7033 -1.9658
  126OSM    C3S13363   5.464   5.758   2.906  0.7502  0.5772 -0.8290
  126OSM    H3S13364   5.396   5.676   2.938 -0.9628  1.9008 -0.8788
  126OSM     O313365   5.389   5.868   2.857  0.3499 -0.3799  0.7244
  126OSM    HO313366   5.387   5.875   2.762  0.7099  2.0270  0.8236
  126OSM    C4S13367   5.529   5.786   3.043 -0.3463 -0.3265  0.1931
  126OSM    H4S13368   5.566   5.692   3.087  1.9981  0.2144 -0.4731
  126OSM    C5S13369   5.555   5.901   3.106  0.0917  0.0232 -0.3431
  126OSM    H5S13370   5.514   5.998   3.074 -0.2618 -0.1314 -0.3584
  126OSM    C6S13371   5.642   5.907   3.230 -0.5061 -0.2676 -0.4248
  126OSM    H6S13372   5.611   5.993   3.293  1.9302 -0.1958  0.8081
  126OSM    H6T13373   5.735   5.950   3.187 -2.7021  4.1736 -1.2871
  126OSM    C7S13374   5.661   5.783   3.315  0.4516 -0.6704 -0.6048
  126OSM    H7S13375   5.712   5.695   3.271 -1.3717 -1.3391 -1.4779
  126OSM    H7T13376   5.558   5.754   3.346  1.0255  0.5949  2.9530
  126OSM    C8S13377   5.746   5.821   3.440  0.0350  0.2372  0.2640
  126OSM    H8S13378   5.723   5.925   3.474 -0.0133  0.1444  0.5170
  126OSM    H8T13379   5.857   5.809   3.437  0.1975 -0.3165  3.9001
  126OSM    C9S13380   5.710   5.722   3.551  0.2186  0.1653  1.2493
  126OSM    H9S13381   5.727   5.618   3.515  0.0684 -0.1846  2.1650
  126OSM    H9T13382   5.601   5.737   3.568 -0.0836  0.6259 -0.8337
  126OSM   C10S13383   5.788   5.742   3.675  0.1967 -0.2739 -0.1560
  126OSM   H10S13384   5.778   5.847   3.707  1.9951 -0.2238  0.3667
  126OSM   H10T13385   5.895   5.717   3.655  0.1839 -1.0916  0.7088
  126OSM   C11S13386   5.726   5.658   3.788  0.1776  0.3551  0.4771
  126OSM   H11S13387   5.716   5.552   3.758  0.1341  1.0644 -2.2622
  126OSM   H11T13388   5.620   5.688   3.800  0.0698  0.8149 -1.3387
  126OSM   C12S13389   5.808   5.662   3.918 -0.5737 -0.8101 -0.7110
  126OSM   H12S13390   5.826   5.770   3.937 -0.1219 -0.4016 -3.1129
  126OSM   H12T13391   5.904   5.609   3.911 -0.0622 -0.3071  1.5837
  126OSM   C13S13392   5.733   5.599   4.028  0.4361  1.1351  0.1754
  126OSM   H13S13393   5.731   5.488   4.014 -3.6770  0.9946  0.6798
  126OSM   H13T13394   5.629   5.638   4.024  0.4309  1.1328  0.2719
  126OSM   C14S13395   5.780   5.623   4.168 -0.2859 -0.3350  0.1870
  126OSM   H14S13396   5.795   5.732   4.183  2.5507 -0.6312  0.0457
  126OSM   H14T13397   5.881   5.577   4.173 -0.8429 -2.0767 -2.4678
  126OSM   C15S13398   5.692   5.570   4.272  0.3445  0.8481 -0.3094
  126OSM   H15S13399   5.668   5.462   4.258 -1.3382  1.1431  0.0902
  126OSM   H15T13400   5.596   5.626   4.274 -0.2380 -0.1259  0.1349
  126OSM   C16S13401   5.740   5.597   4.417  0.1618 -0.4159  0.5865
  126OSM   H16S13402   5.752   5.706   4.434 -0.8517 -0.1099 -0.4708
  126OSM   H16T13403   5.834   5.542   4.438 -0.6950 -2.4638 -0.6829
  126OSM   C17S13404   5.644   5.545   4.520  0.1898 -0.1085 -0.1248
  126OSM   H17S13405   5.634   5.438   4.489  0.9061 -0.3716  0.5175
  126OSM   H17T13406   5.543   5.589   4.514  0.4053  0.4619  0.3536
  126OSM   C18S13407   5.688   5.564   4.668 -0.1784  0.4683  0.0712
  126OSM   H18S13408   5.642   5.492   4.739  1.3859 -0.1242  0.5379
  126OSM   H18T13409   5.679   5.668   4.705 -0.0488 -0.7979  4.0990
  126OSM   H18U13410   5.796   5.538   4.670  0.0223  1.0617 -1.5514
  126OSM    C1F13411   5.722   5.527   2.778 -0.9179 -0.1856  0.1661
  126OSM     OF13412   5.796   5.602   2.711  0.2738  0.2171 -0.3564
  126OSM    C2F13413   5.749   5.384   2.803 -0.5964 -0.1251 -0.4103
  126OSM    H2F13414   5.764   5.333   2.705  0.4143 -0.9882  0.1648
  126OSM    H2G13415   5.657   5.342   2.849 -0.9144  1.0352  0.0474
  126OSM    C3F13416   5.863   5.351   2.900 -0.1212 -0.7717 -0.3212
  126OSM    H3F13417   5.963   5.382   2.861  1.5699 -4.1280  0.8829
  126OSM    H3G13418   5.869   5.240   2.910  2.1904 -0.8229 -1.5496
  126OSM    C4F13419   5.845   5.407   3.046  0.3289  0.8330  0.8124
  126OSM    H4F13420   5.748   5.374   3.087 -0.2612 -0.0832 -1.2101
  126OSM    H4G13421   5.848   5.517   3.029 -0.0790  0.4478 -2.3279
  126OSM    C5F13422   5.952   5.352   3.141 -0.6028  0.2230  0.1918
  126OSM    H5F13423   6.048   5.362   3.086 -0.6613 -1.6490 -0.3243
  126OSM    H5G13424   5.933   5.245   3.164  0.2149 -0.4008 -1.8239
  126OSM    C6F13425   5.967   5.432   3.276 -0.1141  0.0859  0.2771
  126OSM    H6F13426   5.869   5.465   3.317 -0.5026 -0.4833 -0.1707
  126OSM    H6G13427   6.027   5.519   3.243  0.1689 -0.4923 -0.7949
  126OSM    C7F13428   6.053   5.345   3.370  0.1994  0.6611  1.0045
  126OSM    H7F13429   6.138   5.289   3.325  0.5876  0.9325  1.3959
  126OSM    H7G13430   5.985   5.264   3.406 -2.2509  2.5552  0.8848
  126OSM    C8F13431   6.130   5.428   3.478 -0.3595 -0.2524  0.7096
  126OSM    H8F13432   6.162   5.520   3.424 -4.0182  1.5439  1.2166
  126OSM    H8G13433   6.221   5.373   3.507  0.1472  0.3727  0.3349
  126OSM    C9F13434   6.029   5.461   3.582  0.1436  0.5011 -0.9568
  126OSM    H9F13435   5.970   5.546   3.545  1.0561  0.6627 -2.0950
  126OSM   C10F13436   6.007   5.395   3.701  0.4138 -0.2792  0.3038
  126OSM   H10F13437   5.928   5.429   3.769  0.9783 -0.1710  0.9155
  126OSM   C11F13438   6.090   5.286   3.763 -0.6443  0.7562 -0.1975
  126OSM   H11F13439   6.167   5.251   3.691 -1.4553 -0.9093 -0.3159
  126OSM   H11G13440   6.012   5.208   3.781 -0.9184  0.8139 -1.0877
  126OSM   C12F13441   6.166   5.320   3.904  0.3858  0.4122  0.7903
  126OSM   H12F13442   6.236   5.405   3.892 -1.0569  1.5201 -0.2123
  126OSM   H12G13443   6.219   5.224   3.920 -2.5511 -1.2624  1.2507
  126OSM   C13F13444   6.071   5.344   4.023 -0.2598  0.2555  0.3120
  126OSM   H13F13445   5.992   5.266   4.023  0.6450 -0.6759  0.9507
  126OSM   H13G13446   6.014   5.439   4.021  0.5653  0.7606 -1.7300
  126OSM   C14F13447   6.155   5.342   4.146  0.6337  0.6782 -0.1688
  126OSM   H14F13448   6.211   5.438   4.151  0.1964  0.8819  1.4509
  126OSM   H14G13449   6.230   5.261   4.150 -0.8258 -0.7529 -0.6426
  126OSM   C15F13450   6.088   5.349   4.282  0.2309  0.4199  0.5870
  126OSM   H15F13451   6.048   5.451   4.302 -0.8361 -0.0838  1.1191
  126OSM   H15G13452   6.170   5.327   4.353  0.8604  0.6974 -0.0455
  126OSM   C16F13453   5.979   5.242   4.290  0.6024  0.2312 -0.2625
  126OSM   H16F13454   6.024   5.149   4.250  2.7287  1.8645 -1.9168
  126OSM   H16G13455   5.897   5.276   4.225 -1.4083  1.3234  2.6344
  126OSM   C17F13456   5.920   5.230   4.430  0.5214 -0.6184  0.1236
  126OSM   H17F13457   5.872   5.324   4.465 -0.7760 -1.3332  0.2986
  126OSM   H17G13458   6.005   5.209   4.497 -0.1157 -2.1505  0.4979
  126OSM   C18F13459   5.813   5.115   4.441 -0.4150 -0.4321  0.5011
  126OSM   H18F13460   5.766   5.107   4.541  0.0890 -1.0915  0.6951
  126OSM   H18G13461   5.850   5.017   4.401 -1.0122 -0.5096  0.1235
  126OSM   H18H13462   5.731   5.150   4.375 -0.2994 -0.4267  0.3591
  127OSM      N13463   6.711   2.417   2.629  0.0286  0.2517  0.3636
  127OSM    C1513464   6.776   2.464   2.501  0.4017  0.0144 -0.5330
  127OSM   H15A13465   6.780   2.572   2.496 -0.2492  0.0005 -2.8396
  127OSM   H15B13466   6.718   2.430   2.416 -0.7813 -0.6091  0.4806
  127OSM   H15C13467   6.876   2.428   2.486  1.0784  0.9900  1.3143
  127OSM    C1413468   6.784   2.475   2.744  0.0601 -0.1098 -0.5143
  127OSM   H14A13469   6.780   2.582   2.759 -0.1244 -0.2455  0.5032
  127OSM   H14B13470   6.890   2.455   2.739  0.6023  2.1950  0.2179
  127OSM   H14C13471   6.746   2.450   2.842  3.5285 -0.2425  0.9190
  127OSM    C1313472   6.570   2.473   2.624 -0.5865 -0.0268  0.6594
  127OSM   H13A13473   6.565   2.576   2.655  1.1183  0.5422 -0.7978
  127OSM   H13B13474   6.525   2.412   2.702  0.3937 -2.6849 -0.7143
  127OSM   H13C13475   6.521   2.458   2.529  2.1499 -0.3454 -0.8250
  127OSM    C1213476   6.715   2.264   2.639  0.3292 -0.0675 -0.1470
  127OSM   H12A13477   6.819   2.243   2.616  0.8720  0.0159  1.9559
  127OSM   H12B13478   6.649   2.223   2.565  0.5187  1.2753 -1.0832
  127OSM    C1113479   6.684   2.195   2.769 -0.2291 -0.2525 -0.7758
  127OSM   H11A13480   6.742   2.238   2.853 -0.0671  1.7524 -1.8396
  127OSM   H11B13481   6.716   2.089   2.757  3.1736  0.6373 -0.5510
  127OSM      P13482   6.445   2.105   2.760  0.6513 -0.2664 -0.0966
  127OSM    O1313483   6.323   2.174   2.707 -0.0822 -0.5089  0.5851
  127OSM    O1413484   6.500   2.011   2.666  0.1912 -0.4193 -0.0970
  127OSM    O1113485   6.418   2.030   2.898  0.1678 -0.5919 -0.7129
  127OSM    O1213486   6.547   2.214   2.790 -0.0711  0.1814  0.1614
  127OSM    C1S13487   6.467   2.090   3.022  0.0262  0.2524 -0.1911
  127OSM    H1S13488   6.420   2.189   3.035 -0.8294 -0.0014 -1.1757
  127OSM    H1T13489   6.578   2.096   3.016  0.3584 -3.6385 -0.3972
  127OSM     NF13490   6.452   2.093   3.266  0.2984  0.1760 -0.1619
  127OSM    HNF13491   6.539   2.083   3.313  0.7260 -0.1633 -1.0158
  127OSM    C2S13492   6.441   2.004   3.146 -0.2622 -0.3087 -0.1605
  127OSM    H2S13493   6.333   1.979   3.132 -0.3888  1.1979 -2.3106
  127OSM    C3S13494   6.526   1.870   3.132  0.6428  0.0672  0.2819
  127OSM    H3S13495   6.632   1.901   3.118  0.1488  1.6445 -0.0953
  127OSM     O313496   6.499   1.797   3.014 -0.3201 -0.5718  0.2444
  127OSM    HO313497   6.475   1.872   2.958  1.0219 -0.1842  0.1701
  127OSM    C4S13498   6.502   1.778   3.244 -0.0573 -0.0736  0.0799
  127OSM    H4S13499   6.583   1.790   3.318  1.7305  1.5669 -2.0143
  127OSM    C5S13500   6.402   1.697   3.271  0.2844 -0.3548 -0.1514
  127OSM    H5S13501   6.320   1.681   3.200  1.7335 -2.7642 -1.4014
  127OSM    C6S13502   6.381   1.618   3.400  0.1166  0.5295 -0.4057
  127OSM    H6S13503   6.296   1.657   3.460  1.0653  1.3896  0.3982
  127OSM    H6T13504   6.473   1.618   3.462 -0.7277 -2.2609  1.0023
  127OSM    C7S13505   6.353   1.470   3.381 -0.0282 -0.3281  0.6604
  127OSM    H7S13506   6.417   1.430   3.300 -0.7232 -1.4191  0.6298
  127OSM    H7T13507   6.252   1.451   3.338  0.5446 -1.0216 -0.4366
  127OSM    C8S13508   6.374   1.397   3.520 -0.2108  0.2248 -0.2343
  127OSM    H8S13509   6.309   1.436   3.601 -2.3624  0.4042 -1.9452
  127OSM    H8T13510   6.473   1.428   3.560 -0.0622 -2.4518  1.7185
  127OSM    C9S13511   6.375   1.244   3.514  0.2931  0.3388 -0.8281
  127OSM    H9S13512   6.461   1.218   3.448  0.2656 -2.2892  0.0702
  127OSM    H9T13513   6.279   1.204   3.475 -0.7752  2.2730 -0.3257
  127OSM   C10S13514   6.410   1.195   3.656  0.5165 -0.2463  1.3170
  127OSM   H10S13515   6.497   1.245   3.704  0.5408  1.0969 -0.0658
  127OSM   H10T13516   6.432   1.087   3.644 -2.2887 -0.5994 -2.8748
  127OSM   C11S13517   6.285   1.205   3.747 -0.3106  0.2636  0.5356
  127OSM   H11S13518   6.199   1.154   3.696 -0.8783  2.1220 -0.4790
  127OSM   H11T13519   6.236   1.305   3.748 -1.2778 -0.1899  0.0735
  127OSM   C12S13520   6.312   1.162   3.886  0.7463 -0.1893 -0.3534
  127OSM   H12S13521   6.386   1.221   3.944 -1.5815  1.1904  1.3771
  127OSM   H12T13522   6.353   1.059   3.886 -1.3399 -1.2703  3.9481
  127OSM   C13S13523   6.192   1.150   3.977  0.5329  0.0701  0.8141
  127OSM   H13S13524   6.111   1.096   3.924  1.7073  0.5394 -1.5936
  127OSM   H13T13525   6.157   1.255   3.980  1.6941  0.6551 -2.1523
  127OSM   C14S13526   6.223   1.069   4.099 -0.1003  0.6279 -0.1720
  127OSM   H14S13527   6.310   1.098   4.161  0.5257 -1.5870  0.0460
  127OSM   H14T13528   6.242   0.967   4.060  0.0827  1.2728 -1.8619
  127OSM   C15S13529   6.113   1.074   4.208 -0.2477 -0.4011  1.1039
  127OSM   H15S13530   6.029   1.013   4.170  1.8219 -1.8552 -1.4884
  127OSM   H15T13531   6.086   1.179   4.234 -0.3438  0.4773 -2.1681
  127OSM   C16S13532   6.162   1.001   4.331  0.7516  0.3261 -0.1425
  127OSM   H16S13533   6.253   1.056   4.362  1.4171  1.9491 -4.3128
  127OSM   H16T13534   6.184   0.896   4.299  0.2674  0.6075 -1.4508
  127OSM   C17S13535   6.055   0.988   4.446  0.0855  0.0860 -0.0570
  127OSM   H17S13536   5.962   0.938   4.412  0.2030 -1.5180  1.8137
  127OSM   H17T13537   6.030   1.093   4.472 -0.3102 -0.2385  0.9039
  127OSM   C18S13538   6.106   0.910   4.560 -0.0348  0.3248  0.2334
  127OSM   H18S13539   6.033   0.877   4.638  0.5307 -3.9599 -0.7759
  127OSM   H18T13540   6.183   0.964   4.619  1.1918  0.6764 -1.6292
  127OSM   H18U13541   6.159   0.824   4.515  0.1108 -0.1263  1.2453
  127OSM    C1F13542   6.352   2.173   3.305  0.1732  0.5069 -0.4660
  127OSM     OF13543   6.249   2.182   3.229  0.0082 -0.3882 -0.3355
  127OSM    C2F13544   6.371   2.254   3.426  0.3926  0.0494  0.4928
  127OSM    H2F13545   6.328   2.355   3.415  2.6038  1.0696  0.5565
  127OSM    H2G13546   6.474   2.275   3.464 -0.1668  0.3497  1.8982
  127OSM    C3F13547   6.290   2.188   3.541  0.3293  0.1076  0.4888
  127OSM    H3F13548   6.184   2.178   3.508  0.5669 -1.2371  0.1022
  127OSM    H3G13549   6.287   2.268   3.618  0.0438 -0.0188  0.6121
  127OSM    C4F13550   6.348   2.063   3.590 -0.0044  0.2404 -0.2743
  127OSM    H4F13551   6.390   2.081   3.691  2.8411 -2.3562 -0.8372
  127OSM    H4G13552   6.434   2.016   3.538  1.5210  2.2268  0.3296
  127OSM    C5F13553   6.246   1.938   3.615 -0.6216 -0.2150  0.5387
  127OSM    H5F13554   6.209   1.901   3.517  2.4097 -0.8055 -0.4709
  127OSM    H5G13555   6.166   1.985   3.677  0.7453  0.3510  1.9303
  127OSM    C6F13556   6.295   1.812   3.687  0.5009 -0.3789  0.5293
  127OSM    H6F13557   6.380   1.774   3.627 -0.3492 -2.0150  0.3056
  127OSM    H6G13558   6.212   1.738   3.686 -0.0885  0.2446 -1.8977
  127OSM    C7F13559   6.351   1.836   3.831 -0.2903  0.3011 -0.3094
  127OSM    H7F13560   6.276   1.885   3.897  0.6873  1.1153  0.2309
  127OSM    H7G13561   6.426   1.917   3.821  0.6054 -0.7140 -2.4324
  127OSM    C8F13562   6.419   1.718   3.900 -0.0758 -0.2748 -0.0540
  127OSM    H8F13563   6.448   1.749   4.003 -0.9071 -1.6387  0.6121
  127OSM    H8G13564   6.521   1.707   3.856 -0.1052  2.7013 -1.1159
  127OSM    C9F13565   6.341   1.589   3.904  0.0731  0.2449  0.5967
  127OSM    H9F13566   6.376   1.510   3.835 -0.5133  0.3752  0.1452
  127OSM   C10F13567   6.223   1.565   3.973  0.0319 -0.4614 -0.2368
  127OSM   H10F13568   6.170   1.470   3.958 -0.7244 -0.0297 -0.3446
  127OSM   C11F13569   6.172   1.657   4.076 -0.2296  0.5605 -0.0389
  127OSM   H11F13570   6.070   1.686   4.045  0.3147  1.1689 -1.3102
  127OSM   H11G13571   6.222   1.756   4.087 -0.5530  1.0457 -2.3666
  127OSM   C12F13572   6.170   1.597   4.222  0.2311 -0.1281  0.0906
  127OSM   H12F13573   6.145   1.687   4.283  3.2864  2.0144 -1.5154
  127OSM   H12G13574   6.274   1.565   4.246  1.6950  1.3390 -3.6037
  127OSM   C13F13575   6.079   1.465   4.237 -0.1106 -0.4065  0.0206
  127OSM   H13F13576   6.120   1.386   4.170  2.0120  0.1037  0.6181
  127OSM   H13G13577   5.980   1.500   4.200 -0.6563 -1.2734  0.6281
  127OSM   C14F13578   6.078   1.404   4.380 -0.5551  0.6266 -0.7377
  127OSM   H14F13579   6.006   1.320   4.386  0.8462 -0.7537 -2.3815
  127OSM   H14G13580   6.052   1.478   4.459  3.3524  2.4401 -0.9100
  127OSM   C15F13581   6.222   1.363   4.423  0.3972  0.8105  0.3709
  127OSM   H15F13582   6.266   1.464   4.435 -1.2477  1.4256  1.5458
  127OSM   H15G13583   6.272   1.309   4.339 -0.9706  0.3912 -0.2109
  127OSM   C16F13584   6.242   1.291   4.560  0.0672  1.0974 -0.3306
  127OSM   H16F13585   6.191   1.193   4.565  0.9616  0.6808  1.4742
  127OSM   H16G13586   6.183   1.343   4.638  0.2901 -0.6410  1.0565
  127OSM   C17F13587   6.392   1.304   4.611 -0.4001 -0.4298  0.2187
  127OSM   H17F13588   6.422   1.408   4.637  0.4212 -1.2441  2.8890
  127OSM   H17G13589   6.476   1.273   4.545 -0.5479  2.0135 -1.2420
  127OSM   C18F13590   6.412   1.227   4.746  0.9803 -0.1523  0.6158
  127OSM   H18F13591   6.513   1.229   4.791  0.2324  1.7717  2.3834
  127OSM   H18G13592   6.389   1.118   4.739 -0.6566  0.0942  1.5838
  127OSM   H18H13593   6.333   1.261   4.817  1.2112  2.4350 -0.2544
  128OSM      N13594   0.381   6.812   2.646 -0.5392 -0.0801 -0.6374
  128OSM    C1513595   0.468   6.732   2.562  0.1066  0.1378  0.3548
  128OSM   H15A13596   0.553   6.686   2.611  1.3654  2.1050  0.1492
  128OSM   H15B13597   0.508   6.786   2.477  0.1649  0.5478  0.6375
  128OSM   H15C13598   0.409   6.652   2.522  0.5836 -0.6638  1.2084
  128OSM    C1413599   0.288   6.887   2.556 -0.7780  0.4539 -0.1487
  128OSM   H14A13600   0.216   6.951   2.604  0.4404  1.3332  0.5601
  128OSM   H14B13601   0.224   6.813   2.511 -1.5005  1.9987 -1.7979
  128OSM   H14C13602   0.342   6.942   2.480  0.3400  0.9047  0.9317
  128OSM    C1313603   0.287   6.736   2.743  0.9867 -0.6414 -0.6467
  128OSM   H13A13604   0.340   6.687   2.824 -2.0076 -1.2172  1.1310
  128OSM   H13B13605   0.227   6.659   2.697  0.2554  0.4241 -1.5150
  128OSM   H13C13606   0.219   6.802   2.796  1.2298 -1.7761  1.1939
  128OSM    C1213607   0.466   6.906   2.727 -0.1783  0.2967  0.9411
  128OSM   H12A13608   0.401   6.970   2.786 -2.1276 -1.4655  0.8321
  128OSM   H12B13609   0.523   6.968   2.659 -1.7534  0.5420 -0.2411
  128OSM    C1113610   0.559   6.835   2.833  0.2075 -0.4668 -0.0586
  128OSM   H11A13611   0.503   6.752   2.882 -1.7140  2.1374  2.4477
  128OSM   H11B13612   0.568   6.907   2.917  0.4721 -0.4035 -0.1394
  128OSM      P13613   0.766   6.688   2.818  0.0982 -0.3435 -0.3278
  128OSM    O1313614   0.691   6.572   2.766  0.3958 -0.0619 -0.5511
  128OSM    O1413615   0.911   6.708   2.783  0.2792  0.5580  0.0019
  128OSM    O1113616   0.756   6.684   2.973 -1.2016  0.4604 -0.0332
  128OSM    O1213617   0.690   6.812   2.777  0.3017 -0.6657 -0.0525
  128OSM    C1S13618   0.833   6.773   3.054  0.1886 -0.1718 -0.1865
  128OSM    H1S13619   0.834   6.878   3.018  1.3980  0.5823  1.8693
  128OSM    H1T13620   0.938   6.738   3.067  0.5202  0.2095 -1.6578
  128OSM     NF13621   0.800   6.858   3.295 -0.6389 -0.1909  0.4423
  128OSM    HNF13622   0.843   6.819   3.376 -1.6479  0.8618  1.5065
  128OSM    C2S13623   0.756   6.767   3.189 -0.5496 -0.0079  0.2115
  128OSM    H2S13624   0.653   6.796   3.160 -0.1078  0.6552 -0.7387
  128OSM    C3S13625   0.759   6.619   3.249  0.3233  0.2531  0.5861
  128OSM    H3S13626   0.860   6.597   3.289  1.0204 -0.0896 -1.2421
  128OSM     O313627   0.728   6.517   3.156 -0.5810  0.9252 -0.3221
  128OSM    HO313628   0.728   6.564   3.072 -3.5977  1.1607 -0.2788
  128OSM    C4S13629   0.654   6.604   3.359 -0.1186 -0.4856  0.2051
  128OSM    H4S13630   0.694   6.598   3.462  1.0617 -0.8241 -0.2614
  128OSM    C5S13631   0.519   6.597   3.338 -0.0661  0.1276  0.3316
  128OSM    H5S13632   0.488   6.601   3.233  0.4895 -1.3401  0.0852
  128OSM    C6S13633   0.414   6.559   3.446  0.0447  0.8412  1.0231
  128OSM    H6S13634   0.363   6.465   3.419  0.1693  0.7645  1.0560
  128OSM    H6T13635   0.328   6.630   3.444 -0.7224 -0.0717  0.7717
  128OSM    C7S13636   0.474   6.554   3.589  0.5833 -0.1081  0.4548
  128OSM    H7S13637   0.514   6.654   3.617  0.4950 -0.6532  2.7530
  128OSM    H7T13638   0.559   6.483   3.580  0.3462 -0.3759  0.2763
  128OSM    C8S13639   0.377   6.511   3.699 -0.4294  0.1177 -0.8129
  128OSM    H8S13640   0.348   6.404   3.693 -0.2623  0.0380 -0.2229
  128OSM    H8T13641   0.279   6.560   3.678 -1.5334 -1.0829  1.2324
  128OSM    C9S13642   0.450   6.522   3.838  0.2096 -0.3745 -0.1285
  128OSM    H9S13643   0.472   6.629   3.859 -1.0289  0.0436 -0.8174
  128OSM    H9T13644   0.547   6.468   3.838  1.5253  1.8374  1.5626
  128OSM   C10S13645   0.374   6.477   3.960  0.1610 -0.6558  0.3774
  128OSM   H10S13646   0.328   6.376   3.953 -0.2193 -0.6245  1.9192
  128OSM   H10T13647   0.290   6.548   3.974 -1.7907 -2.6144 -0.7394
  128OSM   C11S13648   0.447   6.467   4.101  0.5372  0.3375 -0.1732
  128OSM   H11S13649   0.489   6.568   4.122 -0.0807  0.2847  1.4835
  128OSM   H11T13650   0.537   6.404   4.084  1.5967  1.4741  1.0216
  128OSM   C12S13651   0.359   6.437   4.219  0.5721 -0.6782  0.6266
  128OSM   H12S13652   0.293   6.356   4.179  0.1839 -0.5218  0.9349
  128OSM   H12T13653   0.282   6.514   4.239 -0.7125 -1.8398  0.3762
  128OSM   C13S13654   0.437   6.399   4.342 -0.4589 -0.3116  0.3090
  128OSM   H13S13655   0.510   6.481   4.359  2.8310 -2.8842 -0.4898
  128OSM   H13T13656   0.504   6.312   4.331  0.1489 -0.0022  1.4315
  128OSM   C14S13657   0.350   6.376   4.469  0.0850 -0.3744  0.3549
  128OSM   H14S13658   0.274   6.457   4.467  0.9451  0.4477  0.0381
  128OSM   H14T13659   0.417   6.389   4.557 -0.1273 -2.1262  0.8219
  128OSM   C15S13660   0.286   6.237   4.475  0.8684  0.4294 -0.2395
  128OSM   H15S13661   0.363   6.159   4.458  0.0975 -0.2998 -0.3939
  128OSM   H15T13662   0.220   6.224   4.387  0.1238 -0.9233  0.4971
  128OSM   C16S13663   0.204   6.204   4.606  0.1819 -0.0991  0.6807
  128OSM   H16S13664   0.130   6.280   4.640  0.2640 -0.9419  2.8990
  128OSM   H16T13665   0.268   6.202   4.696 -0.9774 -2.6294  1.5290
  128OSM   C17S13666   0.126   6.076   4.599  0.8777  0.0804  0.1001
  128OSM   H17S13667   0.198   5.993   4.587 -0.1679 -0.9709  0.8957
  128OSM   H17T13668   0.059   6.071   4.510 -0.5282 -2.5827  1.1992
  128OSM   C18S13669   0.039   6.040   4.719  0.4830  0.1816  0.3830
  128OSM   H18S13670   0.094   6.031   4.816  0.0600 -0.7536  0.5470
  128OSM   H18T13671  -0.006   5.939   4.705 -0.4156  0.8635 -2.1491
  128OSM   H18U13672  -0.048   6.104   4.743  0.8644  0.6118  0.6396
  128OSM    C1F13673   0.808   6.993   3.289  0.5351  0.0872  0.4802
  128OSM     OF13674   0.778   7.052   3.187  0.0034  0.2430 -0.5389
  128OSM    C2F13675   0.864   7.060   3.405 -0.0894  0.6537 -0.3318
  128OSM    H2F13676   0.974   7.049   3.419 -0.2285  1.2641  1.3604
  128OSM    H2G13677   0.821   7.005   3.492  1.4317 -2.9839 -1.6441
  128OSM    C3F13678   0.820   7.204   3.416  0.4514 -0.4830 -0.5212
  128OSM    H3F13679   0.737   7.238   3.351  1.8238  0.9008 -1.6179
  128OSM    H3G13680   0.908   7.268   3.395 -1.3634  2.7852  1.0836
  128OSM    C4F13681   0.786   7.245   3.563 -0.9475  0.4582 -0.0690
  128OSM    H4F13682   0.772   7.356   3.560 -1.4998  0.3799 -0.5533
  128OSM    H4G13683   0.872   7.232   3.631 -1.6155 -2.4722  0.3382
  128OSM    C5F13684   0.668   7.188   3.620  1.2042  0.6655 -0.5032
  128OSM    H5F13685   0.689   7.082   3.647  0.9639  0.3398 -1.5638
  128OSM    H5G13686   0.581   7.185   3.551  0.3456 -0.4575  0.5825
  128OSM    C6F13687   0.624   7.257   3.746 -0.3092 -0.5162 -0.6008
  128OSM    H6F13688   0.523   7.221   3.774  0.0292 -0.8086  0.3129
  128OSM    H6G13689   0.610   7.367   3.739 -0.1328 -0.4335  0.1701
  128OSM    C7F13690   0.723   7.230   3.866  0.3823 -0.5579 -0.1774
  128OSM    H7F13691   0.820   7.275   3.839  0.2445  0.4371  0.9049
  128OSM    H7G13692   0.728   7.119   3.874  1.7089 -0.4288  1.4708
  128OSM    C8F13693   0.684   7.286   4.003 -0.1583  0.2729  0.1727
  128OSM    H8F13694   0.661   7.393   3.985 -0.1413 -0.0053 -1.7356
  128OSM    H8G13695   0.766   7.284   4.078 -1.0480 -1.8995  1.1779
  128OSM    C9F13696   0.555   7.226   4.061 -1.1343  0.4408  0.3868
  128OSM    H9F13697   0.570   7.126   4.103  0.8439  1.0136  1.1481
  128OSM   C10F13698   0.442   7.292   4.069  0.2910 -0.2029 -0.3967
  128OSM   H10F13699   0.355   7.239   4.110  0.4246 -0.2256 -0.1420
  128OSM   C11F13700   0.401   7.440   4.033  0.1365  0.0688 -0.7403
  128OSM   H11F13701   0.348   7.432   3.935  0.3916  0.6885 -0.9345
  128OSM   H11G13702   0.491   7.502   4.012  0.7740 -0.4400  0.4083
  128OSM   C12F13703   0.316   7.498   4.139 -0.3288  0.1769  0.4509
  128OSM   H12F13704   0.363   7.484   4.239  1.5285  2.2378 -0.0536
  128OSM   H12G13705   0.211   7.462   4.143 -0.6315  0.8795 -0.7153
  128OSM   C13F13706   0.289   7.648   4.124 -0.2649  0.6696  0.1733
  128OSM   H13F13707   0.240   7.664   4.026  0.1857 -1.6091 -0.4756
  128OSM   H13G13708   0.384   7.699   4.148 -0.8730  0.2489  4.3521
  128OSM   C14F13709   0.199   7.698   4.233 -0.4300 -0.0270 -0.8450
  128OSM   H14F13710   0.120   7.620   4.225  1.6494 -2.1985 -1.4088
  128OSM   H14G13711   0.150   7.796   4.211 -3.0443 -0.3646  2.6545
  128OSM   C15F13712   0.253   7.693   4.376 -0.2691 -0.1386 -0.1901
  128OSM   H15F13713   0.361   7.719   4.380 -0.3094 -0.0108  0.0736
  128OSM   H15G13714   0.258   7.587   4.410 -1.3954  0.4197  1.8987
  128OSM   C16F13715   0.176   7.771   4.484 -0.0808  0.0837  0.5540
  128OSM   H16F13716   0.230   7.748   4.579  3.8732 -0.2371 -1.5914
  128OSM   H16G13717   0.074   7.728   4.483 -0.1026  0.1397  0.3399
  128OSM   C17F13718   0.165   7.919   4.463  0.3026 -2.0411 -0.0681
  128OSM   H17F13719   0.118   7.936   4.364  1.1503 -0.0463 -0.1759
  128OSM   H17G13720   0.268   7.962   4.466 -0.5088 -0.0308  2.4532
  128OSM   C18F13721   0.086   7.991   4.570 -0.3338 -0.6787 -0.7091
  128OSM   H18F13722   0.077   8.102   4.560 -1.3331 -0.6132  0.6012
  128OSM   H18G13723   0.136   7.973   4.668 -1.3919  0.8539  0.1577
  128OSM   H18H13724  -0.018   7.953   4.578  0.0160 -1.3648  1.1219
  129OSM      N13725   3.052   6.715   2.654 -0.3043  0.3609 -0.1574
  129OSM    C1513726   3.039   6.680   2.794 -0.4863 -1.0603  0.7907
  129OSM   H15A13727   2.959   6.613   2.821 -1.2826  0.0405  1.2510
  129OSM   H15B13728   3.022   6.774   2.844  0.8680 -0.1215 -0.4183
  129OSM   H15C13729   3.131   6.636   2.831  0.4445  1.7356  2.1283
  129OSM    C1413730   3.158   6.819   2.631  0.6895  0.4364  0.1804
  129OSM   H14A13731   3.261   6.798   2.655  1.1258  1.2231 -0.9160
  129OSM   H14B13732   3.134   6.911   2.682 -0.3738  0.7814 -0.8891
  129OSM   H14C13733   3.155   6.833   2.524 -1.5244 -1.8079 -0.1459
  129OSM    C1313734   3.103   6.589   2.583  0.1746 -0.3227 -0.2051
  129OSM   H13A13735   3.181   6.541   2.641  1.4327  0.1144 -1.4791
  129OSM   H13B13736   3.156   6.622   2.496  0.5287 -1.7317 -0.5548
  129OSM   H13C13737   3.031   6.511   2.562 -0.8364  0.8289 -1.1715
  129OSM    C1213738   2.924   6.767   2.598  0.6055 -0.4190  0.5261
  129OSM   H12A13739   2.842   6.700   2.619 -1.0928  0.7827 -1.8880
  129OSM   H12B13740   2.925   6.780   2.491  1.9197  1.6315  0.7272
  129OSM    C1113741   2.868   6.901   2.671 -0.1595  0.2685  0.2122
  129OSM   H11A13742   2.853   6.882   2.780 -2.6387 -0.4969 -0.1950
  129OSM   H11B13743   2.765   6.913   2.631  0.1995 -0.2140 -0.8862
  129OSM      P13744   2.896   7.160   2.706 -0.2641  0.2572 -0.1197
  129OSM    O1313745   2.985   7.264   2.654  0.1644  0.1834 -0.6905
  129OSM    O1413746   2.753   7.180   2.681 -0.0758 -0.0366 -0.0019
  129OSM    O1113747   2.918   7.143   2.859  0.0558  0.4223 -0.1380
  129OSM    O1213748   2.946   7.020   2.646  0.1206 -0.0993  0.1673
  129OSM    C1S13749   3.050   7.141   2.921  0.3981  0.4647 -0.8072
  129OSM    H1S13750   3.122   7.223   2.898 -1.5196  2.2324 -0.8937
  129OSM    H1T13751   3.114   7.055   2.892  1.3742  0.4514  1.1920
  129OSM     NF13752   3.161   7.145   3.136 -0.4668 -0.4922 -0.6048
  129OSM    HNF13753   3.193   7.059   3.175  0.1313 -0.1899 -0.4237
  129OSM    C2S13754   3.032   7.125   3.070 -0.2921  0.9389 -0.2568
  129OSM    H2S13755   2.963   7.198   3.116  1.4344  1.6856  1.2396
  129OSM    C3S13756   2.962   6.989   3.105 -0.1920 -0.6004 -0.3153
  129OSM    H3S13757   3.028   6.905   3.075 -0.9406 -0.2723 -3.1399
  129OSM     O313758   2.846   6.949   3.030 -0.2046  0.2550 -0.5109
  129OSM    HO313759   2.856   7.002   2.951 -0.7674  0.4061 -0.4861
  129OSM    C4S13760   2.938   6.975   3.251  0.6844 -0.8973  0.1428
  129OSM    H4S13761   3.023   6.928   3.303  2.1413  0.5406 -0.8408
  129OSM    C5S13762   2.823   7.005   3.319  0.4515  0.0440 -0.1763
  129OSM    H5S13763   2.739   7.036   3.255  1.1417 -1.7203 -2.0292
  129OSM    C6S13764   2.794   6.988   3.466 -0.4169 -0.0028  0.4766
  129OSM    H6S13765   2.706   6.922   3.474  1.8786 -3.2977  0.4846
  129OSM    H6T13766   2.763   7.080   3.520  1.4464  1.4126 -0.7460
  129OSM    C7S13767   2.914   6.938   3.546 -0.3607  0.2125  0.0280
  129OSM    H7S13768   3.001   7.006   3.532  0.1955 -0.4204  0.3396
  129OSM    H7T13769   2.955   6.843   3.506 -3.0185 -1.1984  0.4624
  129OSM    C8S13770   2.887   6.923   3.697 -0.4787  0.1122 -0.6163
  129OSM    H8S13771   2.805   6.851   3.715 -0.7193  0.6914  0.6945
  129OSM    H8T13772   2.849   7.021   3.732 -0.0924 -0.4670  1.5443
  129OSM    C9S13773   3.025   6.895   3.769  0.6403 -0.0863  0.3194
  129OSM    H9S13774   3.096   6.971   3.729  1.3629 -2.4131 -3.2802
  129OSM    H9T13775   3.056   6.792   3.741 -0.5898  0.4542 -3.7719
  129OSM   C10S13776   3.011   6.901   3.920 -0.2610 -0.3754  0.3109
  129OSM   H10S13777   2.942   6.825   3.964 -0.5945  0.2998  0.9754
  129OSM   H10T13778   2.977   7.002   3.951  0.4171 -0.2255  0.5936
  129OSM   C11S13779   3.151   6.890   3.990 -0.5062  0.1767 -0.6881
  129OSM   H11S13780   3.215   6.977   3.964  0.4929 -0.2892  0.1284
  129OSM   H11T13781   3.208   6.799   3.961 -1.0389 -0.5930  0.6015
  129OSM   C12S13782   3.145   6.901   4.146 -0.5021 -0.2407  0.0339
  129OSM   H12S13783   3.238   6.860   4.191 -0.4019  0.9811  0.9857
  129OSM   H12T13784   3.075   6.822   4.180  1.0320 -1.0502  1.4859
  129OSM   C13S13785   3.115   7.036   4.199  0.5024  0.1580  0.2823
  129OSM   H13S13786   3.013   7.056   4.159  1.4869 -1.4937 -3.4561
  129OSM   H13T13787   3.188   7.111   4.162  0.4731 -0.3190 -0.7657
  129OSM   C14S13788   3.132   7.047   4.351 -0.2910 -0.6460  0.7514
  129OSM   H14S13789   3.238   7.026   4.376  0.4020  1.5197 -0.0675
  129OSM   H14T13790   3.069   6.971   4.402 -1.6650 -0.5999 -0.7686
  129OSM   C15S13791   3.092   7.190   4.397 -0.2713 -0.0276  0.4579
  129OSM   H15S13792   2.982   7.207   4.393 -0.0759  1.0886 -1.2247
  129OSM   H15T13793   3.130   7.267   4.327 -0.2337  1.1146  1.6836
  129OSM   C16S13794   3.133   7.214   4.547 -0.2256 -0.5386 -0.3385
  129OSM   H16S13795   3.243   7.225   4.541 -0.1152  1.9603  3.1607
  129OSM   H16T13796   3.106   7.119   4.597  0.5526 -0.9039 -0.5941
  129OSM   C17S13797   3.063   7.332   4.622  0.5206  0.7219  0.6468
  129OSM   H17S13798   2.956   7.304   4.613  1.0698 -1.1957 -0.6697
  129OSM   H17T13799   3.071   7.424   4.559  2.7387 -1.2887 -2.2920
  129OSM   C18S13800   3.115   7.342   4.765  0.3559 -0.5553  0.4861
  129OSM   H18S13801   3.220   7.378   4.765 -0.4838  2.0601  0.6087
  129OSM   H18T13802   3.115   7.240   4.809  1.0465  0.2657  2.4764
  129OSM   H18U13803   3.053   7.411   4.826  1.5157  1.0734 -0.1174
  129OSM    C1F13804   3.237   7.256   3.150  0.0301  0.1870 -0.2206
  129OSM     OF13805   3.232   7.351   3.072  0.1759 -0.6284 -0.6569
  129OSM    C2F13806   3.343   7.246   3.259  0.1080  1.1441 -0.8302
  129OSM    H2F13807   3.422   7.321   3.240  0.1606  1.3218  0.0421
  129OSM    H2G13808   3.402   7.152   3.259 -0.8077  0.5469 -1.1993
  129OSM    C3F13809   3.275   7.286   3.397 -0.4147 -0.0744  0.2685
  129OSM    H3F13810   3.172   7.244   3.405 -1.3854  2.2420  0.7654
  129OSM    H3G13811   3.267   7.396   3.410  3.6502  0.0372  4.4639
  129OSM    C4F13812   3.369   7.245   3.512  0.9687  0.2273  0.2468
  129OSM    H4F13813   3.452   7.316   3.493  0.3506  1.3988  1.7274
  129OSM    H4G13814   3.411   7.143   3.497  1.7118  0.7159 -1.1971
  129OSM    C5F13815   3.311   7.263   3.654 -0.6963 -0.2974  0.1425
  129OSM    H5F13816   3.211   7.218   3.669 -1.0917  0.4510 -0.1916
  129OSM    H5G13817   3.311   7.372   3.676  1.3947 -0.2648  0.1363
  129OSM    C6F13818   3.414   7.207   3.755  0.1825 -0.0931 -0.1567
  129OSM    H6F13819   3.514   7.253   3.742  1.5210 -2.2809  1.6743
  129OSM    H6G13820   3.437   7.099   3.742  3.3032  0.3094  1.2010
  129OSM    C7F13821   3.353   7.233   3.896  0.2917  0.0736  0.3490
  129OSM    H7F13822   3.258   7.176   3.903  0.6961 -0.6650 -0.0810
  129OSM    H7G13823   3.321   7.340   3.899 -0.0835  0.0127 -1.0354
  129OSM    C8F13824   3.445   7.212   4.017 -0.7343  0.6413 -0.2902
  129OSM    H8F13825   3.385   7.214   4.110 -1.7613 -1.5312 -0.8418
  129OSM    H8G13826   3.514   7.299   4.012  1.2105 -0.8259 -0.3412
  129OSM    C9F13827   3.544   7.099   4.023 -0.5770 -0.3964 -0.2293
  129OSM    H9F13828   3.608   7.097   3.934 -0.5783  1.2575 -0.3106
  129OSM   C10F13829   3.568   7.014   4.125  0.5236 -0.2010  0.1010
  129OSM   H10F13830   3.640   6.931   4.118  0.0559 -0.4960 -1.5255
  129OSM   C11F13831   3.499   7.008   4.260  0.1658 -0.1843  0.3287
  129OSM   H11F13832   3.447   6.914   4.285  0.2071  0.1900  1.9351
  129OSM   H11G13833   3.415   7.080   4.273 -0.9761 -1.3837 -0.2100
  129OSM   C12F13834   3.589   7.032   4.385 -0.2496 -0.6957  0.1261
  129OSM   H12F13835   3.670   6.956   4.382  1.5222  1.0379  1.3024
  129OSM   H12G13836   3.522   7.014   4.472 -0.7170  2.1928  0.4504
  129OSM   C13F13837   3.630   7.173   4.424  0.0709 -0.0733 -0.1873
  129OSM   H13F13838   3.538   7.230   4.452 -0.2796 -1.5083  1.8687
  129OSM   H13G13839   3.683   7.219   4.338  0.3301  1.4587  0.7389
  129OSM   C14F13840   3.714   7.186   4.553 -0.5041 -0.7256 -0.4389
  129OSM   H14F13841   3.815   7.161   4.515 -0.4678 -0.7136 -0.3505
  129OSM   H14G13842   3.682   7.123   4.639 -1.8870  0.7768  0.2004
  129OSM   C15F13843   3.710   7.334   4.603 -0.7923 -0.3640  0.6817
  129OSM   H15F13844   3.610   7.353   4.647 -1.3159  0.7287 -0.9073
  129OSM   H15G13845   3.713   7.406   4.518 -0.3969 -0.0077  0.9965
  129OSM   C16F13846   3.824   7.374   4.701  0.6583  0.8043  0.2414
  129OSM   H16F13847   3.814   7.484   4.713  0.1339  0.7941 -0.0924
  129OSM   H16G13848   3.923   7.361   4.652  0.7021  0.2332  0.4678
  129OSM   C17F13849   3.808   7.302   4.829 -0.8625  0.0375 -0.1136
  129OSM   H17F13850   3.900   7.312   4.891  1.7509 -0.0486 -3.6896
  129OSM   H17G13851   3.806   7.192   4.812  1.3590  0.3032 -2.8600
  129OSM   C18F13852   3.698   7.359   4.919  0.1837  0.0755  0.6846
  129OSM   H18F13853   3.723   7.464   4.944  1.2469  0.1443 -0.5706
  129OSM   H18G13854   3.683   7.292   5.006  0.3821 -0.9586 -0.0487
  129OSM   H18H13855   3.601   7.356   4.863  0.0772  3.0512  0.5564
  130OSM      N13856   3.143   2.311   2.815  0.0609  0.0564 -0.2471
  130OSM    C1513857   3.144   2.312   2.962  0.4376 -0.0477 -0.4573
  130OSM   H15A13858   3.143   2.414   2.999  0.0497 -0.0429 -0.4782
  130OSM   H15B13859   3.229   2.261   3.006 -0.0927  0.9592  1.8963
  130OSM   H15C13860   3.054   2.264   2.998 -0.0697  1.8126  0.9206
  130OSM    C1413861   3.040   2.407   2.766  0.6944  0.2127 -0.0848
  130OSM   H14A13862   3.031   2.392   2.660 -0.4215 -0.2754  0.0628
  130OSM   H14B13863   3.072   2.508   2.785  0.6339  0.7000 -2.3386
  130OSM   H14C13864   2.943   2.378   2.805  1.2321 -3.1415 -0.9351
  130OSM    C1313865   3.273   2.368   2.758  0.3854 -0.6682 -0.5599
  130OSM   H13A13866   3.269   2.367   2.650 -3.1353  0.2332 -0.5633
  130OSM   H13B13867   3.354   2.306   2.795  0.4754 -1.1993 -1.6099
  130OSM   H13C13868   3.300   2.467   2.789  0.3526 -0.4217 -1.3016
  130OSM    C1213869   3.133   2.166   2.768  0.5897  0.5556  0.3738
  130OSM   H12A13870   3.046   2.125   2.818  1.4450 -1.6657  0.1377
  130OSM   H12B13871   3.216   2.109   2.806 -1.5134 -1.5110  2.2294
  130OSM    C1113872   3.104   2.135   2.619 -0.0457 -0.3222 -0.0403
  130OSM   H11A13873   3.128   2.028   2.604  2.0172  0.0584  0.3295
  130OSM   H11B13874   3.183   2.189   2.563 -0.5127  0.1869 -0.2235
  130OSM      P13875   2.854   2.073   2.607 -0.2369 -0.0391  0.0585
  130OSM    O1313876   2.732   2.148   2.573 -1.0656  0.0789  0.2617
  130OSM    O1413877   2.874   1.945   2.538 -0.5333  0.0764  0.3521
  130OSM    O1113878   2.877   2.055   2.763  0.9195 -0.3900  0.3858
  130OSM    O1213879   2.977   2.171   2.580 -0.1393  0.4396  0.1775
  130OSM    C1S13880   2.770   1.974   2.829 -0.5446  0.6887  0.6860
  130OSM    H1S13881   2.788   1.869   2.798 -0.3615  0.4480  1.5869
  130OSM    H1T13882   2.669   2.010   2.798 -0.2931 -2.6689 -5.5506
  130OSM     NF13883   2.721   1.885   3.063 -0.6582  0.1146 -0.1954
  130OSM    HNF13884   2.634   1.915   3.101 -0.8822 -1.2727  0.4580
  130OSM    C2S13885   2.793   1.985   2.981 -0.4870 -0.5106 -0.2039
  130OSM    H2S13886   2.898   1.966   3.013 -0.5964  2.7602  2.7083
  130OSM    C3S13887   2.767   2.134   3.030 -0.0261  0.1986  0.5287
  130OSM    H3S13888   2.660   2.164   3.024 -0.4682 -1.4458 -0.4000
  130OSM     O313889   2.818   2.234   2.944  0.1992 -0.6019 -0.3942
  130OSM    HO313890   2.848   2.183   2.868 -0.4518 -2.8929  0.8133
  130OSM    C4S13891   2.809   2.146   3.169  0.1051 -0.5972  0.3523
  130OSM    H4S13892   2.727   2.178   3.234 -0.5845  0.8414 -1.1686
  130OSM    C5S13893   2.932   2.132   3.217 -0.4350 -0.7260 -0.3421
  130OSM    H5S13894   3.021   2.105   3.158  1.5639 -1.4554  2.7720
  130OSM    C6S13895   2.970   2.135   3.362 -0.0184 -0.7779 -0.2126
  130OSM    H6S13896   3.036   2.222   3.383 -0.1876 -0.2224 -1.8152
  130OSM    H6T13897   3.034   2.052   3.397  1.5263  0.5926  0.3711
  130OSM    C7S13898   2.854   2.141   3.463  0.9332 -0.7458  0.5245
  130OSM    H7S13899   2.802   2.043   3.450 -2.2805  0.9956 -0.8963
  130OSM    H7T13900   2.784   2.224   3.439  1.3911 -0.3060  0.6989
  130OSM    C8S13901   2.906   2.171   3.602  0.2601 -0.0911 -0.7284
  130OSM    H8S13902   2.946   2.274   3.593 -1.0063  0.7563  2.1215
  130OSM    H8T13903   2.996   2.107   3.616  2.3980  2.9385  0.5350
  130OSM    C9S13904   2.806   2.166   3.714 -0.3596  0.3333  0.2772
  130OSM    H9S13905   2.776   2.059   3.713 -0.2299  0.3002 -0.9130
  130OSM    H9T13906   2.724   2.239   3.695 -1.9293 -1.1297  1.1640
  130OSM   C10S13907   2.877   2.173   3.852 -0.3045 -0.2468 -0.1267
  130OSM   H10S13908   2.927   2.270   3.874 -1.9481  0.6876 -0.3717
  130OSM   H10T13909   2.949   2.090   3.868  0.1785  0.4009  1.2508
  130OSM   C11S13910   2.779   2.168   3.964 -0.0811  0.0988 -0.0983
  130OSM   H11S13911   2.692   2.110   3.927  0.1879  0.1022 -0.7374
  130OSM   H11T13912   2.738   2.269   3.990  0.8569  0.4146  0.1851
  130OSM   C12S13913   2.844   2.104   4.085 -0.2803  0.6919  0.2876
  130OSM   H12S13914   2.943   2.152   4.098 -1.0871  2.7549 -0.6921
  130OSM   H12T13915   2.859   2.000   4.046 -0.4512  1.3403 -1.6281
  130OSM   C13S13916   2.753   2.096   4.205  0.1587 -0.3041  0.3060
  130OSM   H13S13917   2.657   2.067   4.157 -0.1264 -0.9005  1.2305
  130OSM   H13T13918   2.739   2.196   4.251 -1.7823 -1.4588  2.4150
  130OSM   C14S13919   2.793   1.992   4.308  0.3484  0.0401  0.4467
  130OSM   H14S13920   2.826   1.901   4.253  0.5801  0.3703  0.0286
  130OSM   H14T13921   2.700   1.972   4.365 -0.4561  0.3184 -0.7205
  130OSM   C15S13922   2.904   2.033   4.393 -0.3492  0.3223  0.9741
  130OSM   H15S13923   2.872   2.112   4.463  1.6144 -0.5989  3.0501
  130OSM   H15T13924   2.994   2.072   4.341  0.6800 -1.0415  1.6494
  130OSM   C16S13925   2.950   1.912   4.476 -0.3312 -0.8306  0.8239
  130OSM   H16S13926   3.047   1.948   4.516  0.2174 -1.8516  0.4386
  130OSM   H16T13927   2.974   1.832   4.403  0.2613  0.3684 -0.3325
  130OSM   C17S13928   2.855   1.853   4.588 -0.0985  0.6602 -0.2911
  130OSM   H17S13929   2.907   1.762   4.627  0.1123  0.2459 -1.5119
  130OSM   H17T13930   2.756   1.826   4.545 -0.3846  2.2616 -0.6857
  130OSM   C18S13931   2.823   1.948   4.709 -0.5163 -0.0296 -0.0621
  130OSM   H18S13932   2.754   1.902   4.782 -0.5772 -0.2293 -0.2425
  130OSM   H18T13933   2.769   2.037   4.671 -1.6567 -1.4900 -2.1312
  130OSM   H18U13934   2.917   1.984   4.754 -0.8564  0.5623  0.1883
  130OSM    C1F13935   2.729   1.752   3.056  1.1547 -0.4375  0.4649
  130OSM     OF13936   2.817   1.699   2.995 -0.4263 -0.0528 -0.0011
  130OSM    C2F13937   2.627   1.675   3.126  0.3279 -1.0543  0.0569
  130OSM    H2F13938   2.523   1.711   3.106  0.0844 -1.3782  0.7304
  130OSM    H2G13939   2.638   1.683   3.236  0.3524 -0.9625  0.0479
  130OSM    C3F13940   2.645   1.522   3.089  0.4201 -0.0166  0.0297
  130OSM    H3F13941   2.751   1.489   3.097 -0.1721 -1.6626  2.4066
  130OSM    H3G13942   2.608   1.503   2.986 -2.1732 -1.1368  1.0629
  130OSM    C4F13943   2.555   1.429   3.176 -0.9558 -0.4995 -0.0362
  130OSM    H4F13944   2.605   1.330   3.184  3.0860  1.3496  0.2788
  130OSM    H4G13945   2.451   1.416   3.138 -1.1383  1.1100 -0.1869
  130OSM    C5F13946   2.562   1.477   3.326  0.7315 -0.9468 -0.1315
  130OSM    H5F13947   2.517   1.577   3.346 -1.8300 -1.7455 -1.3330
  130OSM    H5G13948   2.666   1.468   3.363  0.6685  0.5958  0.4851
  130OSM    C6F13949   2.470   1.380   3.409  0.0317 -0.0618  0.4305
  130OSM    H6F13950   2.500   1.277   3.378 -0.7894 -0.2525  0.2415
  130OSM    H6G13951   2.364   1.397   3.382  0.5662 -1.3576 -3.1748
  130OSM    C7F13952   2.490   1.407   3.553 -0.1346 -0.5001  0.2150
  130OSM    H7F13953   2.594   1.377   3.576  0.1814 -0.3706 -1.0171
  130OSM    H7G13954   2.427   1.336   3.612 -1.5885  1.0047  0.5454
  130OSM    C8F13955   2.451   1.552   3.601 -0.8279 -0.4327 -0.1234
  130OSM    H8F13956   2.501   1.635   3.547 -0.7153  1.4307  2.5831
  130OSM    H8G13957   2.492   1.561   3.704  0.3653 -1.2704 -0.5007
  130OSM    C9F13958   2.304   1.591   3.615  0.3903 -0.3748  0.5081
  130OSM    H9F13959   2.263   1.670   3.551 -0.6157 -0.3100  1.2115
  130OSM   C10F13960   2.218   1.531   3.704  0.0930  0.1873 -0.1382
  130OSM   H10F13961   2.112   1.558   3.698 -0.2099 -1.2168 -2.3797
  130OSM   C11F13962   2.252   1.423   3.806  1.1370 -0.6432 -0.4734
  130OSM   H11F13963   2.356   1.437   3.842  0.1713 -2.8547  3.7384
  130OSM   H11G13964   2.251   1.323   3.757  0.6469  0.4503 -2.8697
  130OSM   C12F13965   2.165   1.428   3.934 -0.0446 -0.2516 -0.1641
  130OSM   H12F13966   2.060   1.409   3.903 -1.2736  2.6373  1.7940
  130OSM   H12G13967   2.170   1.531   3.975  0.8863 -0.3643  0.0172
  130OSM   C13F13968   2.204   1.329   4.049  0.1981  0.3159  0.3887
  130OSM   H13F13969   2.306   1.348   4.088 -0.0360 -1.7290  2.2126
  130OSM   H13G13970   2.205   1.223   4.013 -0.0518 -0.1789  1.7769
  130OSM   C14F13971   2.107   1.333   4.177 -0.0702 -0.1451  0.3348
  130OSM   H14F13972   2.004   1.335   4.137  0.2181  2.8570 -0.5329
  130OSM   H14G13973   2.115   1.429   4.233 -1.7592  0.2813 -0.1259
  130OSM   C15F13974   2.132   1.209   4.262  0.2442  0.5329  0.7774
  130OSM   H15F13975   2.228   1.222   4.318 -0.2508  0.3669  1.6885
  130OSM   H15G13976   2.141   1.115   4.205 -0.8735  0.9130 -0.0452
  130OSM   C16F13977   2.029   1.195   4.372  0.2448  0.4447  0.5010
  130OSM   H16F13978   1.937   1.160   4.320 -0.3178 -1.3323  2.5784
  130OSM   H16G13979   2.012   1.296   4.414 -0.4514 -0.0209  1.3558
  130OSM   C17F13980   2.071   1.088   4.468 -0.7654  1.1103 -0.3909
  130OSM   H17F13981   2.122   1.135   4.556 -1.3106  2.3153 -0.7067
  130OSM   H17G13982   2.134   1.004   4.432 -0.3671  0.6157  1.3411
  130OSM   C18F13983   1.960   1.031   4.546  0.5353 -0.1892  0.1566
  130OSM   H18F13984   1.995   0.959   4.623 -3.7943 -1.8377  0.8582
  130OSM   H18G13985   1.889   0.972   4.485  0.5669 -0.7933  0.6898
  130OSM   H18H13986   1.905   1.114   4.595  0.8209  0.2172 -0.2057
  131OSM      N13987   6.192   6.658   2.337 -0.6352  0.4404 -0.3414
  131OSM    C1513988   6.176   6.705   2.196  0.2094 -0.2448  0.2377
  131OSM   H15A13989   6.271   6.731   2.152 -0.0456 -0.2448 -0.3135
  131OSM   H15B13990   6.121   6.798   2.191  1.2277  0.3429 -0.2761
  131OSM   H15C13991   6.127   6.641   2.124  1.7431  0.3684 -1.4325
  131OSM    C1413992   6.287   6.738   2.417  0.0450 -0.0586 -0.1272
  131OSM   H14A13993   6.251   6.839   2.424  1.0139  0.4875 -2.3329
  131OSM   H14B13994   6.389   6.737   2.382  0.2910 -0.2720  0.5841
  131OSM   H14C13995   6.300   6.700   2.517 -1.3185  1.0100  0.4916
  131OSM    C1313996   6.059   6.670   2.403 -0.3881 -0.4326  0.4389
  131OSM   H13A13997   5.993   6.600   2.354  1.1863 -2.4533  1.0647
  131OSM   H13B13998   6.023   6.771   2.390  1.1998  0.2205  0.8409
  131OSM   H13C13999   6.078   6.652   2.508  3.1627 -3.6093 -0.5338
  131OSM    C1214000   6.244   6.514   2.341  0.3868  0.1509 -0.7661
  131OSM   H12A14001   6.345   6.513   2.303  1.2727  2.7916  1.2028
  131OSM   H12B14002   6.184   6.449   2.280 -1.2229  0.6597  0.1959
  131OSM    C1114003   6.243   6.451   2.481 -0.0208  0.4353  0.0137
  131OSM   H11A14004   6.141   6.420   2.512  1.7863 -3.3653  2.9559
  131OSM   H11B14005   6.284   6.512   2.564 -1.3512  0.5570  0.6053
  131OSM      P14006   6.454   6.313   2.479  0.1740  0.0138 -0.2171
  131OSM    O1314007   6.492   6.174   2.443 -0.3393  0.1401  0.1106
  131OSM    O1414008   6.507   6.413   2.387 -0.0648 -0.2376  0.3958
  131OSM    O1114009   6.486   6.342   2.626  0.4997  0.1278 -0.4388
  131OSM    O1214010   6.301   6.324   2.465  0.2252  0.1536  0.2302
  131OSM    C1S14011   6.539   6.464   2.677  0.3953  0.1208 -0.3421
  131OSM    H1S14012   6.497   6.558   2.634 -0.3596  0.0042  0.1244
  131OSM    H1T14013   6.647   6.458   2.649  0.5018 -1.5011  0.3136
  131OSM     NF14014   6.521   6.594   2.896  0.5784 -0.0618 -0.0394
  131OSM    HNF14015   6.587   6.614   2.968 -0.1056  0.9968  0.3098
  131OSM    C2S14016   6.511   6.457   2.837 -0.2451 -0.1840  0.4895
  131OSM    H2S14017   6.405   6.429   2.851 -1.9130  3.7592 -2.4948
  131OSM    C3S14018   6.606   6.350   2.895 -0.3869  0.5511  0.7326
  131OSM    H3S14019   6.712   6.372   2.868 -0.8479  0.1627 -1.6339
  131OSM     O314020   6.580   6.220   2.847  0.4398  0.0325 -0.1005
  131OSM    HO314021   6.540   6.234   2.761 -1.3481 -0.5413  0.5872
  131OSM    C4S14022   6.592   6.338   3.046 -0.4213  0.5703 -0.1717
  131OSM    H4S14023   6.652   6.420   3.089  1.2000  1.1204 -3.2241
  131OSM    C5S14024   6.512   6.264   3.122  0.4367 -0.5815  0.5190
  131OSM    H5S14025   6.452   6.191   3.065 -0.2821  1.0300 -0.8883
  131OSM    C6S14026   6.498   6.247   3.272 -0.1528  0.5042 -0.0223
  131OSM    H6S14027   6.603   6.253   3.307  0.2294 -1.5865 -0.6433
  131OSM    H6T14028   6.441   6.157   3.302  0.6176  0.7296  2.2603
  131OSM    C7S14029   6.410   6.364   3.324 -0.7872  0.1814  0.3438
  131OSM    H7S14030   6.307   6.356   3.283 -0.5852  0.1534 -0.1625
  131OSM    H7T14031   6.460   6.458   3.293 -0.1724 -0.0190  0.6961
  131OSM    C8S14032   6.404   6.366   3.477  0.1940  0.8801  0.0948
  131OSM    H8S14033   6.376   6.471   3.499 -0.5113  0.8041 -0.3873
  131OSM    H8T14034   6.502   6.342   3.524  0.5175 -0.1079 -1.0424
  131OSM    C9S14035   6.289   6.271   3.539 -0.4082  0.4251  0.9279
  131OSM    H9S14036   6.312   6.175   3.487  4.4600  2.1781 -0.7104
  131OSM    H9T14037   6.188   6.306   3.507 -1.1382 -1.2845  1.2530
  131OSM   C10S14038   6.296   6.252   3.686  0.2477  1.0323  0.0405
  131OSM   H10S14039   6.398   6.235   3.728  1.6701  3.0691 -2.3362
  131OSM   H10T14040   6.236   6.165   3.721  0.7099  1.8637  3.2721
  131OSM   C11S14041   6.233   6.367   3.763  0.2764 -0.1997  0.9655
  131OSM   H11S14042   6.132   6.388   3.721  1.0753  4.0859  0.7625
  131OSM   H11T14043   6.291   6.459   3.743 -1.7873  0.7985 -0.8728
  131OSM   C12S14044   6.249   6.355   3.916  0.0321  0.0599  0.6623
  131OSM   H12S14045   6.253   6.448   3.977 -1.3427 -0.3117  1.3737
  131OSM   H12T14046   6.345   6.302   3.929 -0.2305 -0.7116 -0.3582
  131OSM   C13S14047   6.144   6.255   3.974 -0.5773 -0.0854 -0.1014
  131OSM   H13S14048   6.141   6.163   3.912 -1.3164  0.7313 -1.3274
  131OSM   H13T14049   6.048   6.312   3.965  0.6004  1.7276 -2.9673
  131OSM   C14S14050   6.162   6.209   4.121  0.7978  0.1195  0.4884
  131OSM   H14S14051   6.268   6.176   4.117  0.6860 -0.1596 -0.3920
  131OSM   H14T14052   6.102   6.117   4.136  1.6019 -0.2278  1.6896
  131OSM   C15S14053   6.117   6.307   4.233  0.2470  0.2624  0.1796
  131OSM   H15S14054   6.009   6.336   4.229  0.5257  1.4817  0.8100
  131OSM   H15T14055   6.181   6.398   4.230  1.2189 -0.3746 -3.9058
  131OSM   C16S14056   6.139   6.242   4.367 -0.0316 -0.2687 -0.4537
  131OSM   H16S14057   6.246   6.214   4.379 -0.2841 -1.1792 -0.2451
  131OSM   H16T14058   6.084   6.146   4.379  0.1870 -0.2068  1.2746
  131OSM   C17S14059   6.101   6.325   4.487  0.5271 -0.2862 -0.5333
  131OSM   H17S14060   6.120   6.434   4.479 -1.4189  0.1566  0.1514
  131OSM   H17T14061   6.158   6.300   4.579 -0.7261 -0.5019  0.2102
  131OSM   C18S14062   5.951   6.309   4.521  0.4057  0.4223  0.0472
  131OSM   H18S14063   5.881   6.332   4.438  0.7999  1.4007 -0.0254
  131OSM   H18T14064   5.925   6.375   4.607  0.7561  1.1410 -0.3876
  131OSM   H18U14065   5.921   6.210   4.563 -1.7411  0.5301 -1.0804
  131OSM    C1F14066   6.437   6.690   2.864 -0.1702  1.1922  0.9801
  131OSM     OF14067   6.335   6.664   2.799  0.1932  0.3031  0.3371
  131OSM    C2F14068   6.472   6.832   2.908  0.0561 -1.0058 -0.1798
  131OSM    H2F14069   6.497   6.889   2.816 -0.8081 -0.0543  0.1512
  131OSM    H2G14070   6.572   6.830   2.957 -0.7932 -2.1700  1.6105
  131OSM    C3F14071   6.372   6.895   3.006  0.5638 -0.0558  0.0258
  131OSM    H3F14072   6.287   6.937   2.947  1.5261  1.5779 -0.2409
  131OSM    H3G14073   6.414   6.989   3.047 -1.4502  1.3805 -1.0278
  131OSM    C4F14074   6.324   6.802   3.113  0.2648 -0.0469  0.2705
  131OSM    H4F14075   6.407   6.734   3.143  1.7665  2.0047  0.9766
  131OSM    H4G14076   6.239   6.742   3.075 -1.1994  0.2931  2.7767
  131OSM    C5F14077   6.288   6.874   3.240 -0.2017 -0.1128  0.0248
  131OSM    H5F14078   6.225   6.964   3.228  1.6413  1.1775 -0.4529
  131OSM    H5G14079   6.389   6.906   3.272 -0.4264 -0.3864  1.0493
  131OSM    C6F14080   6.225   6.766   3.334  0.0240  0.5899 -0.1354
  131OSM    H6F14081   6.283   6.674   3.357 -3.9305 -2.0333  0.2439
  131OSM    H6G14082   6.132   6.724   3.290 -0.7305  0.4838  1.5082
  131OSM    C7F14083   6.193   6.822   3.472 -0.4556 -0.8794  0.1158
  131OSM    H7F14084   6.111   6.894   3.452 -0.4376 -1.3232 -1.7628
  131OSM    H7G14085   6.279   6.880   3.511  1.7582 -3.0851 -1.1615
  131OSM    C8F14086   6.167   6.715   3.578 -0.0546 -0.6187 -0.2450
  131OSM    H8F14087   6.133   6.740   3.681  1.2895 -3.0622  0.8834
  131OSM    H8G14088   6.264   6.668   3.604  0.9558  0.2756 -2.1578
  131OSM    C9F14089   6.072   6.609   3.530  0.0705 -0.5057  0.3170
  131OSM    H9F14090   6.120   6.544   3.456 -0.4522 -0.5645  0.0312
  131OSM   C10F14091   5.949   6.587   3.583  0.9022 -0.0630  0.2509
  131OSM   H10F14092   5.882   6.514   3.534 -1.1590  0.6621  1.8247
  131OSM   C11F14093   5.885   6.656   3.695 -0.4847  0.3932  1.0316
  131OSM   H11F14094   5.775   6.647   3.687 -0.3886 -0.1161 -0.0570
  131OSM   H11G14095   5.901   6.766   3.702  1.9164  0.1791  0.0377
  131OSM   C12F14096   5.929   6.590   3.824 -0.0201  0.3603 -0.0450
  131OSM   H12F14097   6.037   6.604   3.848  0.2636 -1.3693 -0.1441
  131OSM   H12G14098   5.914   6.482   3.801 -3.4777  1.2771 -2.9356
  131OSM   C13F14099   5.851   6.643   3.934 -0.2596 -0.7868  0.1038
  131OSM   H13F14100   5.745   6.614   3.917 -0.2017 -0.7151 -0.3821
  131OSM   H13G14101   5.866   6.753   3.937  1.5490 -1.0141  0.1066
  131OSM   C14F14102   5.878   6.582   4.077 -0.0651  0.4269 -0.3772
  131OSM   H14F14103   5.988   6.593   4.089 -0.3422  4.1842 -0.1319
  131OSM   H14G14104   5.839   6.479   4.089  0.0249  0.5292  0.9504
  131OSM   C15F14105   5.821   6.657   4.202  0.1521  0.5426 -0.2719
  131OSM   H15F14106   5.713   6.677   4.190  0.2267  0.9819 -0.2492
  131OSM   H15G14107   5.865   6.758   4.218 -2.0243  1.0801  3.7156
  131OSM   C16F14108   5.815   6.579   4.338  0.0048  0.5533 -0.6256
  131OSM   H16F14109   5.919   6.554   4.368 -0.8856  0.0686  2.4336
  131OSM   H16G14110   5.746   6.493   4.326 -1.1183  1.2778  0.3812
  131OSM   C17F14111   5.750   6.664   4.451 -0.4328  0.1690 -0.1251
  131OSM   H17F14112   5.651   6.697   4.412  1.2500  1.8867 -3.3726
  131OSM   H17G14113   5.812   6.757   4.456 -1.9585  1.2732 -0.9195
  131OSM   C18F14114   5.747   6.589   4.583 -0.2653  0.0769 -0.9618
  131OSM   H18F14115   5.701   6.665   4.649 -0.6998 -0.8457 -0.1864
  131OSM   H18G14116   5.845   6.568   4.631 -0.8595 -0.5484 -0.0051
  131OSM   H18H14117   5.683   6.498   4.577 -1.4464  0.6948  1.2865
  132OSM      N14118   5.275   0.130   2.402 -0.1920 -0.5584  0.4171
  132OSM    C1514119   5.396   0.077   2.478 -0.1227  0.4435 -0.0064
  132OSM   H15A14120   5.378   0.069   2.584 -0.7489  2.1318  0.0454
  132OSM   H15B14121   5.474   0.147   2.454  1.3539 -0.9983  0.4278
  132OSM   H15C14122   5.419  -0.019   2.434 -0.2039 -0.1414  1.1821
  132OSM    C1414123   5.184   0.017   2.400 -0.2618 -0.2937 -0.6372
  132OSM   H14A14124   5.159  -0.002   2.504 -0.9076  1.8545 -0.3437
  132OSM   H14B14125   5.230  -0.074   2.365 -0.3895 -0.9733  0.8727
  132OSM   H14C14126   5.090   0.033   2.349  0.2508  0.5557 -1.3357
  132OSM    C1314127   5.207   0.244   2.477 -0.2004  0.0389 -0.4624
  132OSM   H13A14128   5.123   0.286   2.423 -0.8086 -0.7398 -0.1513
  132OSM   H13B14129   5.275   0.324   2.500  0.8445 -0.8175 -0.5250
  132OSM   H13C14130   5.163   0.204   2.567 -0.8918 -0.1423 -0.8677
  132OSM    C1214131   5.316   0.173   2.267  0.0190  0.0653 -0.3749
  132OSM   H12A14132   5.227   0.194   2.211  0.2639  1.4456 -0.2803
  132OSM   H12B14133   5.373   0.094   2.221  0.8275 -0.6974  1.7791
  132OSM    C1114134   5.395   0.305   2.266 -0.4299 -0.5713  0.0132
  132OSM   H11A14135   5.335   0.370   2.332 -0.6526 -2.2850  1.5791
  132OSM   H11B14136   5.388   0.346   2.163 -1.3624 -1.3127 -0.2335
  132OSM      P14137   5.618   0.411   2.351  0.1675  0.3491 -0.3638
  132OSM    O1314138   5.761   0.381   2.343 -0.6352 -0.5637 -0.0886
  132OSM    O1414139   5.581   0.529   2.270 -0.1508 -0.7220  0.1360
  132OSM    O1114140   5.571   0.434   2.493 -0.6115  0.2073 -0.2640
  132OSM    O1214141   5.531   0.284   2.309 -0.4498 -0.1118  0.4273
  132OSM    C1S14142   5.662   0.412   2.606  0.1012  0.2197  0.1546
  132OSM    H1S14143   5.754   0.474   2.596 -0.0411  0.5262  0.7469
  132OSM    H1T14144   5.690   0.305   2.595 -1.6946 -0.1407 -1.3716
  132OSM     NF14145   5.689   0.383   2.850  0.5433 -0.3348 -0.2480
  132OSM    HNF14146   5.673   0.286   2.870 -0.3043 -0.0365  0.6059
  132OSM    C2S14147   5.606   0.440   2.750 -0.7105  0.2883  0.4391
  132OSM    H2S14148   5.596   0.550   2.758 -0.2538  0.2715  1.3378
  132OSM    C3S14149   5.459   0.387   2.768  0.0431  0.3271  0.0808
  132OSM    H3S14150   5.456   0.276   2.754  1.6087  0.0667  1.5160
  132OSM     O314151   5.367   0.440   2.674 -0.2659 -1.1822  0.5909
  132OSM    HO314152   5.427   0.453   2.599 -3.9701  0.8499 -2.3994
  132OSM    C4S14153   5.408   0.413   2.906  0.2007  0.0635 -0.0230
  132OSM    H4S14154   5.402   0.518   2.938  0.9575 -0.3917  1.7064
  132OSM    C5S14155   5.374   0.315   2.996 -0.2288 -0.2712 -0.0026
  132OSM    H5S14156   5.391   0.210   2.967 -1.3912 -0.9103  1.5084
  132OSM    C6S14157   5.322   0.333   3.135  0.6022  0.1882 -0.2483
  132OSM    H6S14158   5.234   0.266   3.127  1.6175 -1.0917 -0.9501
  132OSM    H6T14159   5.283   0.437   3.141  0.9425  0.2810  0.4419
  132OSM    C7S14160   5.401   0.290   3.256  0.0727 -0.0735 -0.0495
  132OSM    H7S14161   5.504   0.331   3.252 -0.2461  0.8444  0.7553
  132OSM    H7T14162   5.418   0.180   3.254 -1.0411 -0.2448 -0.7304
  132OSM    C8S14163   5.326   0.328   3.386  0.1171  0.6557 -0.2480
  132OSM    H8S14164   5.236   0.263   3.384 -0.1273  0.9676  0.4293
  132OSM    H8T14165   5.309   0.438   3.384  1.0526  0.8289  0.5358
  132OSM    C9S14166   5.404   0.285   3.507  0.3960 -0.0016 -0.0989
  132OSM    H9S14167   5.504   0.332   3.510  1.1512 -1.5595 -0.2154
  132OSM    H9T14168   5.431   0.178   3.494 -0.3796 -0.2229  0.0274
  132OSM   C10S14169   5.347   0.343   3.634 -0.2811 -0.1679 -0.1372
  132OSM   H10S14170   5.263   0.273   3.650 -1.7899  1.6132  0.1014
  132OSM   H10T14171   5.308   0.446   3.619  0.1114 -0.0345 -0.2633
  132OSM   C11S14172   5.446   0.348   3.746 -0.4912  0.2398  0.0167
  132OSM   H11S14173   5.518   0.431   3.729  0.3278 -0.8489 -2.4406
  132OSM   H11T14174   5.491   0.246   3.755 -0.8846  0.1334  0.8109
  132OSM   C12S14175   5.381   0.376   3.880  0.1723  0.3245  0.1300
  132OSM   H12S14176   5.283   0.325   3.872  0.3205  0.2539 -1.6321
  132OSM   H12T14177   5.359   0.484   3.894 -1.4936  0.1888 -1.2239
  132OSM   C13S14178   5.446   0.317   4.008  0.6427  0.4155  0.4095
  132OSM   H13S14179   5.554   0.333   3.989  0.4084  0.1106 -1.3564
  132OSM   H13T14180   5.424   0.208   4.003  1.9148  0.1645 -0.1324
  132OSM   C14S14181   5.400   0.372   4.143 -0.1303 -0.1215 -0.3887
  132OSM   H14S14182   5.291   0.352   4.153 -0.2827  0.0739 -1.5497
  132OSM   H14T14183   5.428   0.479   4.154  0.2199 -0.1337 -1.1218
  132OSM   C15S14184   5.473   0.306   4.257  0.1728 -0.4047 -0.1404
  132OSM   H15S14185   5.478   0.366   4.350 -0.0371 -1.9487  0.9178
  132OSM   H15T14186   5.572   0.294   4.208 -0.8070 -0.4298 -2.1845
  132OSM   C16S14187   5.422   0.164   4.291  0.1864  0.3501  0.0388
  132OSM   H16S14188   5.428   0.101   4.200  2.1641  1.7147 -0.8702
  132OSM   H16T14189   5.317   0.178   4.326 -0.1850  1.2070 -1.3285
  132OSM   C17S14190   5.507   0.089   4.402  0.1317  0.3317  0.4529
  132OSM   H17S14191   5.616   0.092   4.384  0.3441 -1.4958  1.1266
  132OSM   H17T14192   5.476  -0.018   4.407 -0.3699  0.4306 -0.3028
  132OSM   C18S14193   5.490   0.153   4.541  0.2026 -0.3826  0.0797
  132OSM   H18S14194   5.535   0.083   4.614  2.8600  1.6189  0.4824
  132OSM   H18T14195   5.383   0.143   4.569  0.2041  0.3967  0.3696
  132OSM   H18U14196   5.528   0.257   4.541  0.0240 -0.2774 -1.8797
  132OSM    C1F14197   5.800   0.449   2.898 -0.0724  0.8735 -0.0690
  132OSM     OF14198   5.846   0.547   2.845 -0.1546  0.2679 -0.2509
  132OSM    C2F14199   5.858   0.390   3.025 -0.6553  0.6826  0.0362
  132OSM    H2F14200   5.901   0.290   3.002 -0.4274  0.9671 -0.7690
  132OSM    H2G14201   5.781   0.372   3.104 -0.4752  0.0777  0.0798
  132OSM    C3F14202   5.984   0.474   3.072  0.3432  0.2794 -0.4521
  132OSM    H3F14203   5.965   0.583   3.068  0.8460  0.3527 -0.8744
  132OSM    H3G14204   6.070   0.461   3.003 -1.0420 -2.6691 -1.7885
  132OSM    C4F14205   6.035   0.441   3.218 -0.2502  0.6719  0.1584
  132OSM    H4F14206   6.122   0.507   3.240  1.5734  0.1813 -4.4300
  132OSM    H4G14207   6.082   0.340   3.220  1.1802  1.3180  0.5285
  132OSM    C5F14208   5.925   0.464   3.321  0.1703  0.3092 -0.2278
  132OSM    H5F14209   5.843   0.391   3.301 -0.6242  1.2351 -0.4125
  132OSM    H5G14210   5.891   0.569   3.308  2.0361  0.9554 -0.1624
  132OSM    C6F14211   5.983   0.447   3.465 -0.1252 -0.5124 -0.5860
  132OSM    H6F14212   6.061   0.524   3.481 -0.7471 -0.3987  2.4537
  132OSM    H6G14213   6.028   0.346   3.471 -0.3588 -0.5631  0.6292
  132OSM    C7F14214   5.874   0.461   3.573 -0.4293  0.3208  0.4861
  132OSM    H7F14215   5.804   0.538   3.534 -2.4154 -0.3718  2.4808
  132OSM    H7G14216   5.928   0.503   3.661  1.8526 -2.1988  0.4248
  132OSM    C8F14217   5.795   0.329   3.584 -0.2937  0.2492  0.0179
  132OSM    H8F14218   5.767   0.298   3.481 -1.7601 -1.2659  0.8229
  132OSM    H8G14219   5.703   0.354   3.640  0.1558  1.2041  0.3493
  132OSM    C9F14220   5.871   0.215   3.648  0.2058 -0.4454 -0.2685
  132OSM    H9F14221   5.904   0.145   3.570 -1.4924 -0.9809 -0.5650
  132OSM   C10F14222   5.893   0.190   3.778 -0.6379  0.7651  0.4646
  132OSM   H10F14223   5.950   0.103   3.815 -2.8686 -0.8753  0.2048
  132OSM   C11F14224   5.850   0.275   3.890  0.0420  0.3934  0.0633
  132OSM   H11F14225   5.742   0.298   3.877  0.3296  1.5322 -0.4966
  132OSM   H11G14226   5.907   0.371   3.893 -0.9119  1.0039 -0.4886
  132OSM   C12F14227   5.862   0.204   4.024  0.2794  0.4106 -0.1343
  132OSM   H12F14228   5.969   0.174   4.033 -0.0654 -0.6639  0.6531
  132OSM   H12G14229   5.793   0.118   4.041  0.3753 -0.3533 -3.1136
  132OSM   C13F14230   5.856   0.310   4.140  0.4116  0.0767 -0.2872
  132OSM   H13F14231   5.770   0.381   4.141  2.1422  2.3131 -1.0191
  132OSM   H13G14232   5.950   0.369   4.145  0.3349  0.1277  1.2152
  132OSM   C14F14233   5.856   0.241   4.283 -0.2098  0.2598  1.2576
  132OSM   H14F14234   5.955   0.195   4.306 -0.0445  0.5896  1.2077
  132OSM   H14G14235   5.786   0.156   4.270 -1.3828  1.5371 -1.4059
  132OSM   C15F14236   5.819   0.336   4.397 -0.5206 -1.0498  0.3021
  132OSM   H15F14237   5.712   0.364   4.387 -0.7459 -0.9875  2.4278
  132OSM   H15G14238   5.870   0.435   4.388 -1.3209 -0.4720  1.8361
  132OSM   C16F14239   5.856   0.277   4.532  0.5561 -0.0153  0.0432
  132OSM   H16F14240   5.966   0.284   4.544  0.7393  0.6756 -1.7119
  132OSM   H16G14241   5.819   0.172   4.537  0.5467 -0.3808 -4.2612
  132OSM   C17F14242   5.783   0.347   4.644  0.1944 -0.1289 -1.3154
  132OSM   H17F14243   5.709   0.280   4.692 -1.6993  2.3447 -0.5656
  132OSM   H17G14244   5.710   0.424   4.612 -1.9735 -1.0424  1.0506
  132OSM   C18F14245   5.881   0.409   4.750  0.1592  0.1438  0.1063
  132OSM   H18F14246   5.945   0.330   4.794  0.5898  1.7444  2.5264
  132OSM   H18G14247   5.841   0.452   4.844  2.5300 -2.9968  2.7860
  132OSM   H18H14248   5.950   0.480   4.700  1.9071 -0.8174  1.0595
  133OSM      N14249   5.476   0.843   2.502 -0.0023  0.0238  0.2792
  133OSM    C1514250   5.493   0.778   2.634  0.1397  1.0735 -0.9279
  133OSM   H15A14251   5.533   0.678   2.626  0.1983  0.9733  0.4367
  133OSM   H15B14252   5.397   0.769   2.681 -0.1002  2.1595 -1.1801
  133OSM   H15C14253   5.561   0.830   2.700  0.7868 -0.2940 -0.4713
  133OSM    C1414254   5.394   0.967   2.528  0.1125 -0.5461  0.4357
  133OSM   H14A14255   5.294   0.952   2.565 -0.7823 -0.0139 -1.6226
  133OSM   H14B14256   5.392   1.034   2.443 -0.6665  0.6106  1.3260
  133OSM   H14C14257   5.440   1.033   2.600  0.1888 -1.1558  0.9586
  133OSM    C1314258   5.612   0.881   2.450  0.1453  0.1677 -0.0491
  133OSM   H13A14259   5.665   0.934   2.527  0.7401 -0.0273 -0.3118
  133OSM   H13B14260   5.611   0.953   2.369  3.8860 -0.8593 -1.2333
  133OSM   H13C14261   5.665   0.793   2.416  0.0955  0.1078  0.0297
  133OSM    C1214262   5.402   0.747   2.406 -0.0265  0.8780 -0.5603
  133OSM   H12A14263   5.460   0.657   2.391 -0.3232  0.9940 -2.6934
  133OSM   H12B14264   5.409   0.787   2.306  2.7293 -1.0250 -1.2465
  133OSM    C1114265   5.258   0.705   2.451  0.4700 -0.3597 -0.1109
  133OSM   H11A14266   5.203   0.802   2.447 -2.3505 -1.9323 -2.4989
  133OSM   H11B14267   5.254   0.673   2.558  0.0099  0.7237  0.2183
  133OSM      P14268   5.052   0.552   2.375  0.2619 -0.2330 -0.0594
  133OSM    O1314269   4.950   0.651   2.331 -0.8371  0.0961  0.4702
  133OSM    O1414270   5.047   0.424   2.305 -0.3410  0.0500 -0.0014
  133OSM    O1114271   5.044   0.537   2.530  0.3482 -0.4387  0.6536
  133OSM    O1214272   5.195   0.617   2.360 -0.1598 -0.1009 -0.5386
  133OSM    C1S14273   4.936   0.464   2.581 -0.4764  0.0754 -0.2134
  133OSM    H1S14274   4.937   0.364   2.534 -2.2116 -0.8198  1.5207
  133OSM    H1T14275   4.831   0.497   2.566 -0.4750  0.1262 -0.1134
  133OSM     NF14276   4.867   0.349   2.798  0.1941 -0.3246 -0.4057
  133OSM    HNF14277   4.779   0.385   2.828 -0.1438 -0.2888 -1.4033
  133OSM    C2S14278   4.951   0.453   2.739  0.4405 -0.5711 -1.4266
  133OSM    H2S14279   5.057   0.425   2.756  0.3616 -0.2540 -0.3408
  133OSM    C3S14280   4.951   0.598   2.804  0.0144 -0.5895 -0.4181
  133OSM    H3S14281   4.862   0.655   2.769 -0.7705 -2.0341 -0.8958
  133OSM     O314282   5.067   0.677   2.763 -0.6251  0.3865  0.7056
  133OSM    HO314283   5.097   0.620   2.692 -2.1083 -0.8725  1.0405
  133OSM    C4S14284   4.945   0.604   2.954  0.2755 -0.7320  0.5278
  133OSM    H4S14285   4.849   0.646   2.988 -0.7289 -1.8735 -0.7316
  133OSM    C5S14286   5.043   0.578   3.037 -0.4224  0.1343 -0.5103
  133OSM    H5S14287   5.143   0.559   2.997  0.6376  0.1596  1.9363
  133OSM    C6S14288   5.038   0.592   3.189  0.3246 -0.2414  0.8367
  133OSM    H6S14289   5.114   0.666   3.223  0.4670 -0.6656  1.4506
  133OSM    H6T14290   5.069   0.492   3.225  0.3671 -1.0863 -1.3950
  133OSM    C7S14291   4.903   0.630   3.248  0.0779 -0.2417  0.4584
  133OSM    H7S14292   4.838   0.549   3.208 -0.1701 -0.0367  0.4396
  133OSM    H7T14293   4.868   0.726   3.202 -1.1606 -2.1429 -2.9778
  133OSM    C8S14294   4.895   0.641   3.396  0.4211 -0.3457 -0.2456
  133OSM    H8S14295   4.792   0.674   3.423 -0.8606 -1.2086 -3.5781
  133OSM    H8T14296   4.972   0.712   3.430  0.4514  0.3969 -1.8101
  133OSM    C9S14297   4.930   0.512   3.461  0.0601  0.6789 -0.2118
  133OSM    H9S14298   4.995   0.439   3.408 -1.0898 -2.7404  2.7390
  133OSM    H9T14299   4.829   0.466   3.468  0.1672  0.2007 -1.5340
  133OSM   C10S14300   4.971   0.519   3.613  0.4438 -0.1243  0.0471
  133OSM   H10S14301   5.046   0.599   3.631 -0.8950  1.1400  0.1953
  133OSM   H10T14302   5.024   0.423   3.630  0.1435 -1.2150 -4.0532
  133OSM   C11S14303   4.849   0.537   3.707 -0.0064 -0.2776  0.3001
  133OSM   H11S14304   4.770   0.461   3.690 -0.0569 -0.0682 -0.4343
  133OSM   H11T14305   4.794   0.629   3.677 -0.0478  0.1465  1.6061
  133OSM   C12S14306   4.880   0.549   3.860  0.8950  0.6344  0.3124
  133OSM   H12S14307   4.918   0.450   3.894  1.3365 -0.6254 -3.4104
  133OSM   H12T14308   4.786   0.569   3.917  1.6441 -0.1118  1.8925
  133OSM   C13S14309   4.987   0.647   3.894  0.4328 -0.6773 -0.0336
  133OSM   H13S14310   4.940   0.740   3.854 -0.4843 -0.7821  0.7588
  133OSM   H13T14311   5.073   0.612   3.835  1.4040  0.7085  0.4927
  133OSM   C14S14312   5.017   0.675   4.042 -0.1542  0.3177  0.1410
  133OSM   H14S14313   4.922   0.698   4.095  0.2116  1.8363  0.1764
  133OSM   H14T14314   5.088   0.754   4.073  1.5423 -1.0566 -0.1455
  133OSM   C15S14315   5.073   0.551   4.118 -0.2297  0.3633 -0.5849
  133OSM   H15S14316   5.170   0.525   4.072  0.2098 -1.3254  1.1541
  133OSM   H15T14317   5.001   0.468   4.101 -1.7510  1.9092 -2.0630
  133OSM   C16S14318   5.103   0.577   4.267  0.3683 -0.1086  0.6501
  133OSM   H16S14319   5.183   0.653   4.275 -0.5490  1.0330 -0.6141
  133OSM   H16T14320   5.141   0.481   4.310  1.8848  0.2261  0.1049
  133OSM   C17S14321   4.983   0.629   4.352 -0.4405  0.6182  0.1724
  133OSM   H17S14322   4.903   0.553   4.337  1.0951 -1.3084  1.4184
  133OSM   H17T14323   4.947   0.719   4.298 -0.6022  1.0744  1.0207
  133OSM   C18S14324   5.003   0.652   4.498 -0.0830 -0.7576  0.3471
  133OSM   H18S14325   5.033   0.557   4.548  0.2497 -1.5468 -1.2800
  133OSM   H18T14326   4.910   0.691   4.543 -0.3420  0.7658 -1.4174
  133OSM   H18U14327   5.085   0.726   4.511 -0.7596 -0.0431  0.6263
  133OSM    C1F14328   4.888   0.221   2.769 -0.5411 -0.1886 -0.7463
  133OSM     OF14329   4.982   0.185   2.699  0.1130 -0.6273 -0.1591
  133OSM    C2F14330   4.788   0.125   2.822 -0.9269 -0.6003  0.2443
  133OSM    H2F14331   4.730   0.076   2.740 -1.7958  0.8481 -0.0347
  133OSM    H2G14332   4.718   0.180   2.889  1.3123 -0.2777  2.4429
  133OSM    C3F14333   4.860   0.004   2.903 -0.5883  0.0036  0.8051
  133OSM    H3F14334   4.922  -0.048   2.827  0.4415  2.2774 -0.0098
  133OSM    H3G14335   4.784  -0.066   2.942  0.6137 -1.3222  0.8380
  133OSM    C4F14336   4.945   0.060   3.021  0.0123  0.9078 -0.3191
  133OSM    H4F14337   5.017   0.138   2.990  0.2561  0.0318 -2.0983
  133OSM    H4G14338   5.004  -0.029   3.049 -1.4225 -0.0666 -0.2558
  133OSM    C5F14339   4.862   0.105   3.144 -0.0575  0.5484 -0.2436
  133OSM    H5F14340   4.795   0.031   3.190  1.0678 -1.5155 -1.7578
  133OSM    H5G14341   4.803   0.195   3.116 -1.7137  0.0052  1.3660
  133OSM    C6F14342   4.954   0.119   3.265 -0.0231 -0.5577  0.4355
  133OSM    H6F14343   5.021   0.207   3.264 -0.0951 -0.4863 -0.8929
  133OSM    H6G14344   5.023   0.032   3.265  3.8884  2.1406 -2.7734
  133OSM    C7F14345   4.878   0.118   3.398 -0.2319 -0.5605  0.3626
  133OSM    H7F14346   4.840   0.015   3.412 -0.1165 -0.9355 -1.7826
  133OSM    H7G14347   4.797   0.194   3.393  0.8407  0.5483 -1.3769
  133OSM    C8F14348   4.966   0.147   3.518 -0.1790  1.0495  0.6078
  133OSM    H8F14349   5.027   0.237   3.496  1.2588  0.1956  0.9409
  133OSM    H8G14350   5.040   0.064   3.525  2.7937  3.4527 -0.1207
  133OSM    C9F14351   4.893   0.170   3.650 -0.2597  0.2190  0.1729
  133OSM    H9F14352   4.824   0.255   3.642 -1.5589 -0.9114 -1.3717
  133OSM   C10F14353   4.895   0.109   3.767 -0.3384 -0.0312 -0.2244
  133OSM   H10F14354   4.831   0.149   3.848 -1.5812  1.3339 -1.8162
  133OSM   C11F14355   4.981  -0.003   3.812  0.4946 -0.7639  0.7358
  133OSM   H11F14356   5.058  -0.016   3.733  0.8030  0.1534  0.8811
  133OSM   H11G14357   4.935  -0.101   3.840  0.4656 -1.4016 -1.3476
  133OSM   C12F14358   5.058   0.029   3.941  0.3294 -0.3597 -0.0577
  133OSM   H12F14359   5.134   0.109   3.927  1.1618 -0.9840  0.8024
  133OSM   H12G14360   5.116  -0.062   3.967  2.5501  0.9140 -0.2955
  133OSM   C13F14361   4.967   0.071   4.057 -0.8343 -0.0721  0.3649
  133OSM   H13F14362   4.890  -0.007   4.077  0.9090 -2.1037 -0.3725
  133OSM   H13G14363   4.927   0.171   4.029  0.5713  1.4723  3.4610
  133OSM   C14F14364   5.053   0.095   4.183  0.4257  0.4653 -0.1903
  133OSM   H14F14365   5.029   0.198   4.219  3.3204  2.7230 -3.9713
  133OSM   H14G14366   5.161   0.115   4.166  0.8894  0.3110  2.2026
  133OSM   C15F14367   5.024  -0.006   4.291  1.3401  0.7396 -0.3141
  133OSM   H15F14368   5.034  -0.115   4.276  0.4639  0.4164  1.2395
  133OSM   H15G14369   4.918   0.010   4.320  1.7835  4.1913 -0.2102
  133OSM   C16F14370   5.108   0.020   4.420  0.2570  0.2938 -0.1589
  133OSM   H16F14371   5.133   0.127   4.431  2.2460  0.1116 -2.2124
  133OSM   H16G14372   5.201  -0.035   4.394  0.5251 -0.7756  2.7347
  133OSM   C17F14373   5.056  -0.040   4.553 -0.4238 -0.0096  0.6893
  133OSM   H17F14374   5.136  -0.024   4.628  0.1109  2.9650 -0.4045
  133OSM   H17G14375   5.049  -0.148   4.529  1.4487  0.0778 -0.3897
  133OSM   C18F14376   4.928   0.023   4.608 -1.0202 -0.5061 -0.2839
  133OSM   H18F14377   4.852   0.033   4.527 -0.4468  1.7972 -0.6216
  133OSM   H18G14378   4.957   0.128   4.630 -1.6494 -0.1188 -1.2426
  133OSM   H18H14379   4.876  -0.028   4.692  1.8204  1.2086  2.7634
  134OSM      N14380   3.435   3.371   2.398  0.4697 -0.9476  0.0075
  134OSM    C1514381   3.298   3.421   2.383  0.6044 -0.6439  0.8306
  134OSM   H15A14382   3.286   3.471   2.288  2.7452  1.1150  1.4049
  134OSM   H15B14383   3.270   3.477   2.471 -2.5873 -1.8743  0.7580
  134OSM   H15C14384   3.220   3.347   2.389 -1.9226  1.8896  2.2104
  134OSM    C1414385   3.451   3.268   2.292 -0.3893 -0.1223 -0.0814
  134OSM   H14A14386   3.544   3.214   2.288 -1.3292 -1.7748 -0.7409
  134OSM   H14B14387   3.436   3.308   2.193 -0.2469 -1.3475 -0.6178
  134OSM   H14C14388   3.368   3.200   2.304 -1.0902  0.7646  0.1827
  134OSM    C1314389   3.527   3.489   2.380  0.0592  0.0396 -0.7356
  134OSM   H13A14390   3.503   3.550   2.294 -0.0422 -0.8604 -1.3552
  134OSM   H13B14391   3.627   3.451   2.367  0.5609  1.2068 -0.4002
  134OSM   H13C14392   3.506   3.547   2.469  0.3771 -0.9549 -0.0019
  134OSM    C1214393   3.462   3.303   2.530  0.1623 -0.0961  0.2859
  134OSM   H12A14394   3.563   3.268   2.543  0.9151  2.3860  1.8757
  134OSM   H12B14395   3.397   3.219   2.547  0.2465  0.3015  3.1513
  134OSM    C1114396   3.448   3.394   2.654  0.2414  0.5539 -0.4879
  134OSM   H11A14397   3.470   3.321   2.734  1.9245  1.2355 -0.2935
  134OSM   H11B14398   3.340   3.422   2.659  0.8556  3.2353 -0.8743
  134OSM      P14399   3.639   3.553   2.745  0.3498  0.0908 -0.5422
  134OSM    O1314400   3.749   3.471   2.689 -0.1046  0.0379 -0.5370
  134OSM    O1414401   3.661   3.701   2.753 -0.5151 -0.1999  0.1244
  134OSM    O1114402   3.604   3.484   2.886 -0.2415  0.1353  0.2423
  134OSM    O1214403   3.515   3.517   2.657  0.3276  0.3627 -0.0295
  134OSM    C1S14404   3.522   3.553   2.979  0.0491  0.8538 -0.4570
  134OSM    H1S14405   3.423   3.503   2.974 -0.3926  1.2308  2.6225
  134OSM    H1T14406   3.488   3.656   2.951 -0.5965  0.9781  0.7323
  134OSM     NF14407   3.466   3.600   3.224 -0.4522  0.4595 -0.5375
  134OSM    HNF14408   3.483   3.677   3.285 -1.7391 -0.3696  0.9715
  134OSM    C2S14409   3.562   3.545   3.134  0.4486  0.2775  0.1166
  134OSM    H2S14410   3.563   3.436   3.156 -2.5003  0.0970 -0.3150
  134OSM    C3S14411   3.702   3.595   3.155  0.9409 -0.4537  0.1941
  134OSM    H3S14412   3.699   3.702   3.126 -1.4530 -0.5681 -0.1654
  134OSM     O314413   3.801   3.536   3.070 -0.0439 -0.2840 -0.4280
  134OSM    HO314414   3.746   3.502   2.998 -0.8633 -2.1426  0.9682
  134OSM    C4S14415   3.748   3.587   3.299  0.0148 -0.4820  0.3908
  134OSM    H4S14416   3.766   3.679   3.357  0.8731 -0.0245 -0.5777
  134OSM    C5S14417   3.767   3.470   3.369  0.0395  0.3028 -0.7863
  134OSM    H5S14418   3.761   3.376   3.312 -0.9761  1.1650 -2.1807
  134OSM    C6S14419   3.811   3.468   3.516  0.2478  0.5137  0.1629
  134OSM    H6S14420   3.912   3.514   3.527  0.9932 -0.5653 -1.7006
  134OSM    H6T14421   3.827   3.368   3.560  0.2483  1.0913  1.5478
  134OSM    C7S14422   3.729   3.539   3.625  0.3891  0.2710 -0.6398
  134OSM    H7S14423   3.633   3.485   3.640  1.3565 -0.9643  1.5921
  134OSM    H7T14424   3.702   3.642   3.593 -1.2622 -0.7473 -2.7763
  134OSM    C8S14425   3.809   3.539   3.763  0.8422  0.2574  0.3679
  134OSM    H8S14426   3.879   3.625   3.764  2.0271 -0.6799  0.5268
  134OSM    H8T14427   3.870   3.446   3.763  0.3305 -0.1143 -1.4791
  134OSM    C9S14428   3.727   3.555   3.892  0.0461 -0.7277  0.5249
  134OSM    H9S14429   3.658   3.469   3.904  1.4465 -1.7759  1.3993
  134OSM    H9T14430   3.678   3.654   3.883 -0.1586 -0.6967  1.7715
  134OSM   C10S14431   3.814   3.558   4.014 -0.3650 -0.3148 -0.2354
  134OSM   H10S14432   3.896   3.631   3.996  0.3956 -0.5680  1.9862
  134OSM   H10T14433   3.862   3.459   4.028  0.8242  0.4333  1.1666
  134OSM   C11S14434   3.742   3.591   4.151 -0.7673 -0.1416  0.3326
  134OSM   H11S14435   3.655   3.521   4.156 -2.7291  1.9660 -1.7880
  134OSM   H11T14436   3.704   3.695   4.142  1.8046  0.8686  0.1716
  134OSM   C12S14437   3.826   3.581   4.275 -0.7042 -0.1185 -0.1778
  134OSM   H12S14438   3.895   3.496   4.258  0.0630  0.7902 -1.8529
  134OSM   H12T14439   3.760   3.557   4.361 -2.0180 -1.9601 -1.6147
  134OSM   C13S14440   3.916   3.710   4.288  0.6476 -0.0107 -0.1835
  134OSM   H13S14441   3.852   3.795   4.256 -1.2421 -1.6827 -1.0629
  134OSM   H13T14442   3.995   3.700   4.210 -0.8720 -0.3113 -1.7332
  134OSM   C14S14443   3.985   3.726   4.426  0.2098 -0.2898 -0.3486
  134OSM   H14S14444   4.051   3.814   4.411  0.1612 -0.5113 -2.0128
  134OSM   H14T14445   4.037   3.630   4.447 -1.4949 -1.3502 -0.7042
  134OSM   C15S14446   3.887   3.756   4.546  0.0099  0.4489 -0.0571
  134OSM   H15S14447   3.821   3.667   4.558 -0.8201  0.9536 -0.7781
  134OSM   H15T14448   3.825   3.848   4.534 -0.9188 -0.2192 -0.5476
  134OSM   C16S14449   3.979   3.773   4.670 -0.8382 -0.1505  0.1168
  134OSM   H16S14450   4.054   3.853   4.649  0.0045 -0.6223  1.2432
  134OSM   H16T14451   4.037   3.680   4.685  1.5180  1.6704  3.8127
  134OSM   C17S14452   3.918   3.799   4.809 -0.5456 -0.3867  0.3872
  134OSM   H17S14453   3.865   3.716   4.859 -0.0364 -1.1994 -0.3899
  134OSM   H17T14454   3.848   3.886   4.804  0.2717  0.2504 -0.6589
  134OSM   C18S14455   4.030   3.845   4.905 -0.1987 -0.1168 -0.0001
  134OSM   H18S14456   3.981   3.904   4.985 -0.8508 -0.1408 -0.3809
  134OSM   H18T14457   4.106   3.908   4.854 -0.5665 -0.5980 -1.1871
  134OSM   H18U14458   4.080   3.763   4.960 -2.4215 -0.9774  0.8458
  134OSM    C1F14459   3.338   3.583   3.219  0.1506 -0.4205  0.1474
  134OSM     OF14460   3.294   3.482   3.169 -0.0779 -0.4351  0.2500
  134OSM    C2F14461   3.245   3.686   3.273  0.9625 -0.0178 -0.4141
  134OSM    H2F14462   3.167   3.711   3.198  0.2454  3.9874  1.4430
  134OSM    H2G14463   3.300   3.781   3.293  2.8288 -1.2599  0.7519
  134OSM    C3F14464   3.173   3.648   3.408 -0.7837 -0.2338 -0.1659
  134OSM    H3F14465   3.112   3.556   3.400  0.3332 -0.9016 -1.2174
  134OSM    H3G14466   3.100   3.724   3.444 -0.0604 -0.3368  1.6477
  134OSM    C4F14467   3.267   3.622   3.521 -0.4044  0.2414  0.6188
  134OSM    H4F14468   3.343   3.698   3.548  0.2049  0.0353 -0.4325
  134OSM    H4G14469   3.320   3.532   3.482  0.1721  1.0830 -0.5627
  134OSM    C5F14470   3.185   3.566   3.640 -0.8464  0.0263 -0.0069
  134OSM    H5F14471   3.129   3.476   3.607  0.7593 -0.9327 -0.2431
  134OSM    H5G14472   3.102   3.632   3.673 -3.0467 -2.7131  0.3065
  134OSM    C6F14473   3.278   3.525   3.759 -0.1087 -0.1836 -0.1649
  134OSM    H6F14474   3.350   3.605   3.785 -1.8059  0.5201  2.8313
  134OSM    H6G14475   3.341   3.439   3.728  1.6614  1.0221 -0.0578
  134OSM    C7F14476   3.207   3.472   3.890 -0.2644  0.0691 -0.1641
  134OSM    H7F14477   3.281   3.400   3.931 -1.9639 -1.5848  0.1442
  134OSM    H7G14478   3.109   3.430   3.858  0.9786 -0.8706 -3.1231
  134OSM    C8F14479   3.194   3.596   3.987  0.1475 -1.0157  0.2588
  134OSM    H8F14480   3.106   3.587   4.054 -0.5442 -0.4443 -0.5606
  134OSM    H8G14481   3.164   3.676   3.917 -1.5826 -2.2156 -0.4438
  134OSM    C9F14482   3.319   3.634   4.072 -0.4798 -0.2800 -0.2624
  134OSM    H9F14483   3.404   3.658   4.006 -0.0295  0.1619  0.4631
  134OSM   C10F14484   3.330   3.634   4.209  0.4864 -0.2917 -0.0798
  134OSM   H10F14485   3.414   3.679   4.263  0.8649 -1.5617  0.4076
  134OSM   C11F14486   3.218   3.586   4.300 -0.5968 -0.7457 -0.9895
  134OSM   H11F14487   3.148   3.522   4.243  0.1326 -1.9551 -0.5750
  134OSM   H11G14488   3.156   3.666   4.344  0.9853  0.4411 -0.8239
  134OSM   C12F14489   3.268   3.500   4.419 -0.5773  0.3670 -0.1615
  134OSM   H12F14490   3.344   3.548   4.485 -1.4843 -0.5615  1.6473
  134OSM   H12G14491   3.319   3.407   4.386  1.0982  0.5689  1.6474
  134OSM   C13F14492   3.156   3.456   4.518 -0.0788 -0.3632 -0.1400
  134OSM   H13F14493   3.082   3.387   4.471 -1.8225  0.3495  1.4267
  134OSM   H13G14494   3.101   3.548   4.547 -1.2615 -0.9224 -0.5446
  134OSM   C14F14495   3.216   3.396   4.649 -0.2366  0.1731 -0.4852
  134OSM   H14F14496   3.141   3.411   4.731  0.2315  0.0877 -0.0383
  134OSM   H14G14497   3.298   3.462   4.682 -0.3474  0.3081 -0.4778
  134OSM   C15F14498   3.263   3.244   4.638 -0.3451 -0.6964 -0.0748
  134OSM   H15F14499   3.345   3.238   4.564  0.5285  2.4113  0.5000
  134OSM   H15G14500   3.170   3.188   4.613 -0.3880 -1.3081  1.3374
  134OSM   C16F14501   3.327   3.199   4.773 -0.2860  0.5214 -0.2448
  134OSM   H16F14502   3.248   3.220   4.848  0.4528  2.0200  0.1609
  134OSM   H16G14503   3.414   3.268   4.785  0.6124 -0.7824  1.1298
  134OSM   C17F14504   3.370   3.055   4.789 -0.2735 -0.9604  0.6440
  134OSM   H17F14505   3.278   2.994   4.806 -0.0393 -1.0876  1.4955
  134OSM   H17G14506   3.428   3.043   4.883 -1.4232  0.8706  1.6510
  134OSM   C18F14507   3.457   3.005   4.671  0.6188 -0.3911  0.3015
  134OSM   H18F14508   3.416   3.044   4.575  0.3987  0.7367  0.8402
  134OSM   H18G14509   3.458   2.894   4.671  0.1424 -0.4042  1.4263
  134OSM   H18H14510   3.563   3.040   4.677  1.0054 -0.9517 -2.1562
  135OSM      N14511   5.135   1.998   2.713  0.5666  0.6805 -0.6269
  135OSM    C1514512   5.063   2.048   2.838  0.0643  0.1813 -0.2464
  135OSM   H15A14513   5.072   1.979   2.921 -3.2749 -0.4750 -0.3045
  135OSM   H15B14514   4.955   2.048   2.841  0.0590  0.8468  2.9879
  135OSM   H15C14515   5.092   2.149   2.866  0.5796 -0.7084  2.7951
  135OSM    C1414516   5.107   2.081   2.593  0.2787 -0.7680  0.0729
  135OSM   H14A14517   5.184   2.067   2.518 -0.2368  1.4463 -0.9410
  135OSM   H14B14518   5.089   2.186   2.613  0.6678 -0.8526  0.8968
  135OSM   H14C14519   5.018   2.047   2.541 -0.1804  2.2552 -1.3634
  135OSM    C1314520   5.280   2.017   2.741 -0.3287 -0.4369 -0.1845
  135OSM   H13A14521   5.347   1.964   2.674  0.7477  0.8359 -0.1566
  135OSM   H13B14522   5.310   2.009   2.844  2.4989  0.8984 -0.7744
  135OSM   H13C14523   5.302   2.119   2.714 -0.3965 -0.8556 -1.9983
  135OSM    C1214524   5.096   1.857   2.698  0.6118 -0.8329 -0.4799
  135OSM   H12A14525   4.990   1.845   2.711  0.2547  1.5957 -0.7802
  135OSM   H12B14526   5.137   1.793   2.775 -0.4292 -1.8695 -0.7531
  135OSM    C1114527   5.127   1.785   2.557  0.5185  0.1931  0.0087
  135OSM   H11A14528   5.064   1.828   2.476 -4.1052 -2.0480  2.0070
  135OSM   H11B14529   5.109   1.676   2.570 -1.9406  0.8041  2.7186
  135OSM      P14530   5.373   1.706   2.576 -0.1672  0.0078  0.0906
  135OSM    O1314531   5.395   1.593   2.484 -0.3764 -0.2147 -0.4094
  135OSM    O1414532   5.490   1.792   2.603 -0.7164  0.3333  0.7140
  135OSM    O1114533   5.308   1.645   2.708  0.4788 -0.6128 -0.2131
  135OSM    O1214534   5.261   1.802   2.512 -0.8204  0.0949  1.0762
  135OSM    C1S14535   5.365   1.700   2.827  0.6362 -0.0347 -0.5974
  135OSM    H1S14536   5.320   1.799   2.851  1.3596 -0.1441  1.4422
  135OSM    H1T14537   5.476   1.705   2.829  0.6679 -0.2090  1.8505
  135OSM     NF14538   5.320   1.671   3.079  0.5647  0.3235 -0.4784
  135OSM    HNF14539   5.396   1.662   3.143 -0.5717 -0.5608  0.8270
  135OSM    C2S14540   5.329   1.604   2.954 -0.9732  0.0548  0.1737
  135OSM    H2S14541   5.232   1.558   2.923  1.0606 -3.8890 -1.0613
  135OSM    C3S14542   5.421   1.477   2.965  0.0136  0.6423  0.3469
  135OSM    H3S14543   5.520   1.507   3.006 -0.1185  0.3723  0.8612
  135OSM     O314544   5.446   1.421   2.835  0.1868 -0.2023  0.3826
  135OSM    HO314545   5.429   1.491   2.772 -1.4559 -0.5114  0.4425
  135OSM    C4S14546   5.371   1.366   3.055  0.2032 -1.0986 -0.3020
  135OSM    H4S14547   5.275   1.326   3.020 -1.3096  1.0555  1.1071
  135OSM    C5S14548   5.429   1.329   3.170  0.1147  0.6283  0.1282
  135OSM    H5S14549   5.531   1.363   3.194 -0.1014  1.4990 -0.1434
  135OSM    C6S14550   5.367   1.232   3.269 -0.0731 -0.2030 -1.0823
  135OSM    H6S14551   5.435   1.145   3.274  0.9143  0.5862 -0.4719
  135OSM    H6T14552   5.273   1.187   3.229  0.1617 -1.1501 -0.5710
  135OSM    C7S14553   5.340   1.308   3.409 -0.3068  0.6773 -0.5782
  135OSM    H7S14554   5.284   1.403   3.406  2.2583  2.3585  0.6042
  135OSM    H7T14555   5.438   1.332   3.456  0.5647  0.0788 -2.0163
  135OSM    C8S14556   5.268   1.207   3.497 -0.2156 -0.0610  0.6549
  135OSM    H8S14557   5.331   1.116   3.488 -1.6810 -1.0753  0.3342
  135OSM    H8T14558   5.167   1.189   3.454  0.0226 -0.9941  0.4623
  135OSM    C9S14559   5.242   1.235   3.648 -0.2889 -0.0880  1.0888
  135OSM    H9S14560   5.207   1.145   3.702  0.3204  0.0948  1.8077
  135OSM    H9T14561   5.160   1.310   3.659  0.7285  1.4090 -0.8251
  135OSM   C10S14562   5.361   1.288   3.723 -0.1273  0.3565 -0.1322
  135OSM   H10S14563   5.417   1.366   3.666  2.1410 -1.7132 -0.9079
  135OSM   H10T14564   5.445   1.219   3.745  0.2466  1.3487  1.7665
  135OSM   C11S14565   5.323   1.344   3.858 -0.2780  0.8037 -0.2251
  135OSM   H11S14566   5.246   1.422   3.840 -2.2841 -1.3092 -1.2538
  135OSM   H11T14567   5.416   1.371   3.912 -0.6596  1.0026  0.3443
  135OSM   C12S14568   5.256   1.238   3.941 -0.2938 -0.1876 -0.6253
  135OSM   H12S14569   5.311   1.144   3.919 -0.9422 -0.3574 -1.5861
  135OSM   H12T14570   5.147   1.221   3.924 -0.3448 -0.3305 -0.1654
  135OSM   C13S14571   5.276   1.266   4.089 -0.3474  0.6476 -0.5199
  135OSM   H13S14572   5.223   1.359   4.117  1.1271  2.0021 -2.0326
  135OSM   H13T14573   5.383   1.270   4.117 -0.9322 -1.6349  2.7031
  135OSM   C14S14574   5.213   1.152   4.179 -0.0201  0.1330  0.0643
  135OSM   H14S14575   5.257   1.063   4.129  1.7638  0.6904  0.5666
  135OSM   H14T14576   5.103   1.149   4.164  0.0841  1.5202 -1.2300
  135OSM   C15S14577   5.247   1.152   4.326  0.1168 -0.6368 -0.3730
  135OSM   H15S14578   5.236   1.253   4.372  1.1265 -0.1792 -1.1135
  135OSM   H15T14579   5.349   1.109   4.333  0.5868  0.5246  0.3480
  135OSM   C16S14580   5.150   1.061   4.415 -0.6563 -0.0284 -0.1818
  135OSM   H16S14581   5.172   0.959   4.376 -0.5606  0.5945 -1.8852
  135OSM   H16T14582   5.043   1.073   4.390 -0.0312  1.9235 -2.2898
  135OSM   C17S14583   5.170   1.066   4.569 -0.1338  0.1841  0.3106
  135OSM   H17S14584   5.275   1.097   4.586 -0.2614 -0.3971  2.4178
  135OSM   H17T14585   5.149   0.966   4.613 -1.6700  0.5260  0.4283
  135OSM   C18S14586   5.074   1.160   4.643  0.5334  0.5925 -0.5855
  135OSM   H18S14587   4.973   1.174   4.601 -0.2502  0.3290  1.1283
  135OSM   H18T14588   5.117   1.263   4.643  0.1641  0.7578  0.4116
  135OSM   H18U14589   5.060   1.126   4.748 -1.3577  0.4346 -0.8525
  135OSM    C1F14590   5.228   1.765   3.104 -0.3216  0.3896 -0.0741
  135OSM     OF14591   5.130   1.773   3.033  0.3758 -0.4399  0.1959
  135OSM    C2F14592   5.251   1.863   3.216  0.0988  0.7065  0.3676
  135OSM    H2F14593   5.294   1.953   3.167  0.1184 -0.0640 -1.0939
  135OSM    H2G14594   5.327   1.832   3.291  0.8249  2.4852  0.4185
  135OSM    C3F14595   5.113   1.898   3.283  0.1821  0.4080  0.8234
  135OSM    H3F14596   5.056   1.971   3.221 -1.9425  0.0771  2.2784
  135OSM    H3G14597   5.129   1.954   3.378 -0.3335 -0.7488  1.6130
  135OSM    C4F14598   5.018   1.786   3.312 -0.1369  0.3653  0.2355
  135OSM    H4F14599   4.978   1.744   3.217 -2.2393  1.0350  0.7564
  135OSM    H4G14600   4.923   1.819   3.360  0.0008 -1.3720  1.7900
  135OSM    C5F14601   5.073   1.682   3.400  0.5457 -0.1623  0.0087
  135OSM    H5F14602   5.100   1.720   3.501  2.2928 -1.9358  0.2908
  135OSM    H5G14603   5.157   1.625   3.356  0.1593  1.0112 -2.3800
  135OSM    C6F14604   4.975   1.565   3.425  0.2297  0.1545 -0.4490
  135OSM    H6F14605   5.029   1.470   3.441  0.0860  0.2531  0.7972
  135OSM    H6G14606   4.904   1.548   3.341 -2.5966  0.7488  1.6540
  135OSM    C7F14607   4.896   1.577   3.558 -0.3962  0.6244  0.2983
  135OSM    H7F14608   4.886   1.684   3.587 -2.4207  0.6242 -0.2191
  135OSM    H7G14609   4.944   1.541   3.651 -1.7477  0.5057  0.9753
  135OSM    C8F14610   4.749   1.522   3.552 -0.6226  0.8207 -0.5548
  135OSM    H8F14611   4.716   1.519   3.658 -1.8318 -1.9861 -0.9125
  135OSM    H8G14612   4.753   1.418   3.512 -0.3260  0.3668  0.6184
  135OSM    C9F14613   4.656   1.593   3.455  0.7211 -0.7195 -0.4402
  135OSM    H9F14614   4.708   1.613   3.360  0.5861  0.1868 -0.3312
  135OSM   C10F14615   4.532   1.641   3.462  0.3142 -0.2712 -0.1162
  135OSM   H10F14616   4.484   1.705   3.386 -1.3251  0.6465  1.6051
  135OSM   C11F14617   4.439   1.623   3.580  0.1318  0.1713 -0.5102
  135OSM   H11F14618   4.459   1.529   3.635 -2.9196  0.7568  1.8859
  135OSM   H11G14619   4.334   1.624   3.545 -0.7067  0.6538  1.8351
  135OSM   C12F14620   4.456   1.748   3.666  0.1809 -0.0575  0.8047
  135OSM   H12F14621   4.438   1.838   3.603 -2.7372 -1.4066 -0.4796
  135OSM   H12G14622   4.561   1.756   3.700  1.0727 -0.0214 -1.7263
  135OSM   C13F14623   4.369   1.745   3.789 -0.2136 -0.4979  0.1231
  135OSM   H13F14624   4.413   1.664   3.851 -0.2694 -0.5985  0.0298
  135OSM   H13G14625   4.267   1.718   3.754 -1.8491  1.4557  2.9055
  135OSM   C14F14626   4.352   1.883   3.856  0.2540  0.1982 -0.5984
  135OSM   H14F14627   4.272   1.938   3.801  0.6301 -0.6182 -2.0113
  135OSM   H14G14628   4.449   1.936   3.861  0.1005  0.4600 -0.3387
  135OSM   C15F14629   4.305   1.862   4.002  0.6818 -0.3419 -0.1466
  135OSM   H15F14630   4.367   1.790   4.060  2.6259  1.9107  0.7320
  135OSM   H15G14631   4.200   1.824   3.999  0.2712  0.7404 -3.0803
  135OSM   C16F14632   4.310   1.994   4.077 -0.2814 -0.1570  0.3447
  135OSM   H16F14633   4.252   2.072   4.022  0.4862 -0.0609 -0.3406
  135OSM   H16G14634   4.413   2.035   4.088 -1.0660  1.7158  1.2168
  135OSM   C17F14635   4.246   1.983   4.225 -0.5960 -0.9172  0.3199
  135OSM   H17F14636   4.247   2.082   4.275  2.1736 -0.6512 -0.0737
  135OSM   H17G14637   4.322   1.937   4.293  0.8517 -0.9812 -1.2821
  135OSM   C18F14638   4.103   1.918   4.236 -0.2728  0.3492  0.2302
  135OSM   H18F14639   4.064   1.912   4.340  0.2823 -1.2561  0.3795
  135OSM   H18G14640   4.109   1.811   4.209 -1.4624 -0.1418  1.8077
  135OSM   H18H14641   4.037   1.974   4.166  1.4858  1.7812 -0.3776
  136OSM      N14642   2.596   6.095   2.760  0.9436  0.2450  0.4518
  136OSM    C1514643   2.578   5.997   2.649  0.0634  0.1461  0.0483
  136OSM   H15A14644   2.664   5.932   2.642  0.7042  1.0399 -0.9236
  136OSM   H15B14645   2.571   6.040   2.550 -1.0125 -0.8734 -0.3388
  136OSM   H15C14646   2.503   5.925   2.676  2.4031 -2.6163 -0.3737
  136OSM    C1414647   2.704   6.189   2.733 -0.4148  0.1880  0.6121
  136OSM   H14A14648   2.795   6.134   2.715 -0.2057  1.4196 -2.6285
  136OSM   H14B14649   2.722   6.243   2.825 -0.0259  0.0614  0.6119
  136OSM   H14C14650   2.676   6.267   2.665  0.2579  0.1891  0.3372
  136OSM    C1314651   2.474   6.174   2.772  0.2330  0.2683  0.1124
  136OSM   H13A14652   2.394   6.101   2.774  2.0951 -1.8602  0.1290
  136OSM   H13B14653   2.455   6.233   2.684 -2.1165  1.4674  1.2887
  136OSM   H13C14654   2.469   6.230   2.865 -2.0822  1.0440 -0.4097
  136OSM    C1214655   2.627   6.023   2.892 -0.1068 -0.6057 -0.4724
  136OSM   H12A14656   2.676   6.096   2.955  0.9538 -1.0814 -0.7240
  136OSM   H12B14657   2.711   5.959   2.872 -0.3688 -2.0441  2.4712
  136OSM    C1114658   2.511   5.961   2.978 -0.1804  0.2690 -0.6508
  136OSM   H11A14659   2.431   6.037   2.988  0.7573  1.1920 -0.0540
  136OSM   H11B14660   2.540   5.928   3.080 -0.5765  1.2820 -0.1987
  136OSM      P14661   2.311   5.819   2.883  0.0882 -0.0208  0.1321
  136OSM    O1314662   2.260   5.931   2.802  0.2189 -0.0539  0.4867
  136OSM    O1414663   2.285   5.689   2.825 -0.0309  0.2790 -0.1411
  136OSM    O1114664   2.262   5.837   3.034 -0.6159  0.1927  0.2484
  136OSM    O1214665   2.461   5.844   2.910 -0.3759 -0.7090 -0.5860
  136OSM    C1S14666   2.306   5.746   3.132  0.1562  0.1374 -0.3013
  136OSM    H1S14667   2.411   5.768   3.160 -0.6013  0.7025  2.3965
  136OSM    H1T14668   2.298   5.640   3.099 -0.9408 -0.1042  0.6433
  136OSM     NF14669   2.322   5.679   3.365 -0.0427  0.0323 -0.2521
  136OSM    HNF14670   2.288   5.595   3.408 -1.1482  1.0920  1.0370
  136OSM    C2S14671   2.234   5.748   3.268  0.3724  0.3485  0.2762
  136OSM    H2S14672   2.230   5.855   3.297  0.4948  0.1673  0.9835
  136OSM    C3S14673   2.086   5.699   3.254 -0.1159  0.1666  1.0202
  136OSM    H3S14674   2.082   5.593   3.221  0.9989  0.2295  0.6544
  136OSM     O314675   2.007   5.769   3.154 -0.5524  0.3104  0.3489
  136OSM    HO314676   2.080   5.814   3.111  0.5748 -0.8986  0.9093
  136OSM    C4S14677   2.025   5.704   3.389  0.0990  0.0834 -0.6349
  136OSM    H4S14678   2.004   5.606   3.434 -2.4574  0.3856 -1.0121
  136OSM    C5S14679   2.000   5.819   3.463 -0.2491 -0.1593  0.4407
  136OSM    H5S14680   2.027   5.913   3.413  1.0340 -0.6760  0.1127
  136OSM    C6S14681   1.943   5.824   3.603  0.2173  0.0393  0.3635
  136OSM    H6S14682   1.846   5.772   3.588  1.7487 -3.0918  0.5221
  136OSM    H6T14683   1.927   5.931   3.631 -0.0850  0.1723 -0.3003
  136OSM    C7S14684   2.034   5.754   3.703 -0.1588  0.1391  0.0659
  136OSM    H7S14685   2.127   5.814   3.714  0.4453 -0.3744 -1.8885
  136OSM    H7T14686   2.061   5.649   3.677  0.3550  0.0178  1.0151
  136OSM    C8S14687   1.963   5.751   3.842  0.2115 -0.2918 -0.2796
  136OSM    H8S14688   1.885   5.672   3.834 -1.6608  1.2715  1.4729
  136OSM    H8T14689   1.919   5.848   3.873 -1.8243 -0.6603 -1.8252
  136OSM    C9S14690   2.054   5.702   3.956 -0.4551 -0.0051  0.3257
  136OSM    H9S14691   2.118   5.788   3.986  0.2501 -0.9286  1.5719
  136OSM    H9T14692   2.124   5.626   3.916  2.8794  2.1760  1.5833
  136OSM   C10S14693   1.993   5.650   4.085 -0.2153 -0.3141 -0.5462
  136OSM   H10S14694   1.928   5.564   4.058 -0.6786 -0.1539  0.0278
  136OSM   H10T14695   1.915   5.719   4.123  0.9477  0.0907  1.2146
  136OSM   C11S14696   2.071   5.608   4.213  0.3579 -0.1027  0.3370
  136OSM   H11S14697   2.157   5.675   4.232 -1.0573  2.3702 -1.3191
  136OSM   H11T14698   2.099   5.504   4.185 -1.4629 -0.0524 -2.0000
  136OSM   C12S14699   1.981   5.596   4.336  0.5629  0.3771 -0.4799
  136OSM   H12S14700   1.897   5.528   4.308 -0.6680  2.1517 -1.2593
  136OSM   H12T14701   1.922   5.690   4.339  0.3458  0.2652 -1.0587
  136OSM   C13S14702   2.047   5.558   4.465 -1.0715 -0.3818  0.1406
  136OSM   H13S14703   2.120   5.642   4.472 -1.0213 -0.5330  1.5310
  136OSM   H13T14704   2.116   5.472   4.456  1.7571  1.7544 -0.0784
  136OSM   C14S14705   1.953   5.557   4.586 -0.5491 -0.1445 -0.3809
  136OSM   H14S14706   1.859   5.501   4.566 -0.5464 -0.1613 -0.3476
  136OSM   H14T14707   1.912   5.660   4.584 -2.0291 -0.7162 -0.6286
  136OSM   C15S14708   2.028   5.526   4.713 -0.2493 -0.9622 -0.8124
  136OSM   H15S14709   2.068   5.615   4.766  1.0043 -0.1368 -3.0409
  136OSM   H15T14710   2.123   5.477   4.684  0.7120 -0.0802  0.7242
  136OSM   C16S14711   1.952   5.434   4.807 -1.0745  0.2063 -0.2626
  136OSM   H16S14712   1.891   5.351   4.764  0.3901 -2.4136  2.3782
  136OSM   H16T14713   1.879   5.492   4.868 -0.7530  1.0763 -0.6758
  136OSM   C17S14714   2.052   5.358   4.902  0.6657  1.3443  0.0660
  136OSM   H17S14715   2.132   5.316   4.837 -0.0455  0.1005 -0.0240
  136OSM   H17T14716   1.989   5.279   4.947 -0.8875  2.4745 -0.0612
  136OSM   C18S14717   2.103   5.444   5.021  0.3858 -0.4933  0.1979
  136OSM   H18S14718   2.191   5.397   5.070  0.0985  1.6476  3.0268
  136OSM   H18T14719   2.022   5.462   5.094 -0.0784 -1.2214 -0.1275
  136OSM   H18U14720   2.137   5.534   4.965 -0.4895 -0.8088 -0.8803
  136OSM    C1F14721   2.438   5.730   3.404 -0.3045  0.1979 -0.1375
  136OSM     OF14722   2.472   5.840   3.386 -0.6202 -0.3315  0.0439
  136OSM    C2F14723   2.524   5.633   3.486 -0.3467 -0.0067 -0.3574
  136OSM    H2F14724   2.578   5.577   3.406  1.0612  1.8693 -0.7822
  136OSM    H2G14725   2.450   5.574   3.545 -1.7626  1.3180 -0.7596
  136OSM    C3F14726   2.628   5.693   3.576 -0.5219 -1.2413 -0.7593
  136OSM    H3F14727   2.689   5.761   3.513 -1.9262  2.8457  1.8972
  136OSM    H3G14728   2.698   5.615   3.614  1.2244  0.3568 -0.5336
  136OSM    C4F14729   2.571   5.772   3.692 -0.0456 -0.8089 -0.4521
  136OSM    H4F14730   2.501   5.700   3.739 -0.2576  0.5780  1.4641
  136OSM    H4G14731   2.523   5.867   3.661  1.4310  0.5784  1.3157
  136OSM    C5F14732   2.673   5.803   3.799  0.0845  1.0295 -0.1866
  136OSM    H5F14733   2.743   5.878   3.756  0.3635  0.2775 -1.0770
  136OSM    H5G14734   2.719   5.703   3.817 -0.4254  0.6491 -0.9336
  136OSM    C6F14735   2.601   5.861   3.922  0.5080  0.7215  0.7258
  136OSM    H6F14736   2.541   5.779   3.966 -0.9808  1.2924 -0.1641
  136OSM    H6G14737   2.525   5.933   3.883 -0.0512  0.4856  1.3667
  136OSM    C7F14738   2.707   5.900   4.017 -0.4949 -1.1139 -0.1676
  136OSM    H7F14739   2.723   6.009   4.004 -0.4963 -1.2224 -1.1488
  136OSM    H7G14740   2.799   5.840   3.999  0.6619  0.9581 -1.5476
  136OSM    C8F14741   2.671   5.872   4.169 -0.8348 -0.2071  0.1198
  136OSM    H8F14742   2.768   5.893   4.218 -0.3964  1.1542 -1.2263
  136OSM    H8G14743   2.644   5.767   4.191  1.5042 -1.2415 -1.5652
  136OSM    C9F14744   2.562   5.970   4.222  0.0595 -0.2687 -0.8022
  136OSM    H9F14745   2.461   5.955   4.182 -0.8377  0.1296  1.1756
  136OSM   C10F14746   2.573   6.066   4.316 -0.5836  0.7767  0.7825
  136OSM   H10F14747   2.487   6.122   4.354 -0.6557  1.4139 -0.2768
  136OSM   C11F14748   2.705   6.114   4.363 -0.5962  0.0889  0.7326
  136OSM   H11F14749   2.702   6.224   4.349 -2.6077 -0.1454 -1.3318
  136OSM   H11G14750   2.791   6.086   4.297  0.5716  0.0716  2.2130
  136OSM   C12F14751   2.747   6.085   4.503 -0.0080 -0.5735 -0.1702
  136OSM   H12F14752   2.769   5.977   4.512  1.1457 -0.6037 -2.6715
  136OSM   H12G14753   2.650   6.097   4.557  0.6615 -0.3834  1.0244
  136OSM   C13F14754   2.858   6.165   4.580  0.9533 -0.5244  0.0997
  136OSM   H13F14755   2.886   6.263   4.536 -0.5941 -0.7988 -1.5846
  136OSM   H13G14756   2.947   6.099   4.568 -0.4881 -2.4449 -0.5475
  136OSM   C14F14757   2.821   6.190   4.730 -0.5529 -0.4069  0.0038
  136OSM   H14F14758   2.817   6.089   4.775 -1.6980 -0.6627 -0.6391
  136OSM   H14G14759   2.720   6.234   4.742 -0.0454  0.6276  0.6534
  136OSM   C15F14760   2.933   6.276   4.791  0.4289 -0.1757 -0.8445
  136OSM   H15F14761   2.884   6.321   4.880 -0.7322 -1.7590 -0.6400
  136OSM   H15G14762   2.950   6.366   4.728  1.5460 -0.8021 -1.4593
  136OSM   C16F14763   3.059   6.199   4.811 -0.4368  0.5178  0.0120
  136OSM   H16F14764   3.148   6.265   4.803  0.4793 -0.6268  0.4487
  136OSM   H16G14765   3.081   6.136   4.722  0.8181 -1.7453  1.7998
  136OSM   C17F14766   3.078   6.111   4.937  0.8258 -0.0732  0.2579
  136OSM   H17F14767   3.007   6.026   4.945 -1.3708  1.5580 -0.8968
  136OSM   H17G14768   3.050   6.159   5.034 -2.9642 -0.1501 -0.6421
  136OSM   C18F14769   3.224   6.061   4.958  0.6154 -0.2067  0.9799
  136OSM   H18F14770   3.289   6.151   4.966 -0.6815  0.9761 -0.8798
  136OSM   H18G14771   3.255   6.000   4.870 -1.0586 -2.3897  1.8081
  136OSM   H18H14772   3.245   5.993   5.043  1.4267 -2.4080 -0.8655
  137OSM      N14773   0.607   3.455   2.413 -0.1595 -0.4201  0.2269
  137OSM    C1514774   0.729   3.480   2.326 -0.0615 -0.0034  0.3441
  137OSM   H15A14775   0.780   3.384   2.319  0.1275  0.1934 -1.2565
  137OSM   H15B14776   0.798   3.545   2.377  1.1268 -0.0793 -1.0948
  137OSM   H15C14777   0.701   3.515   2.228 -2.4922 -3.7606 -0.4961
  137OSM    C1414778   0.536   3.585   2.394  0.4121  0.2704 -0.1093
  137OSM   H14A14779   0.594   3.667   2.433 -0.2229 -0.2110  1.9859
  137OSM   H14B14780   0.440   3.595   2.444  0.7943  1.3506  0.4356
  137OSM   H14C14781   0.517   3.599   2.289  1.6353 -0.7542 -0.4869
  137OSM    C1314782   0.532   3.338   2.353 -0.0260 -0.9539 -0.0497
  137OSM   H13A14783   0.492   3.363   2.256  0.0959  1.3294  0.4289
  137OSM   H13B14784   0.448   3.316   2.418 -0.0105  0.8214  0.6329
  137OSM   H13C14785   0.584   3.244   2.347  0.4480 -0.5963 -2.1419
  137OSM    C1214786   0.657   3.451   2.551 -0.8238 -0.1614 -0.1347
  137OSM   H12A14787   0.708   3.541   2.581  0.8150 -1.0866 -0.0125
  137OSM   H12B14788   0.730   3.372   2.560 -0.4101  0.1639 -0.5582
  137OSM    C1114789   0.552   3.435   2.665 -0.1306 -0.0083 -0.4533
  137OSM   H11A14790   0.476   3.516   2.670  1.1711  1.1937  0.4406
  137OSM   H11B14791   0.592   3.447   2.767 -0.4350 -0.2528 -0.3023
  137OSM      P14792   0.535   3.188   2.728 -0.2904  0.2922  0.2385
  137OSM    O1314793   0.437   3.073   2.717  0.0997  0.2248  0.3755
  137OSM    O1414794   0.677   3.167   2.685 -0.0174 -0.1373 -0.9056
  137OSM    O1114795   0.541   3.230   2.878 -0.2171 -0.4727 -0.7763
  137OSM    O1214796   0.481   3.318   2.650 -0.1994  0.5007 -0.2063
  137OSM    C1S14797   0.439   3.318   2.937  0.1031  0.9361  1.0742
  137OSM    H1S14798   0.354   3.331   2.867 -0.2828  0.5306  1.4616
  137OSM    H1T14799   0.483   3.417   2.960  3.2921 -0.3970  1.2221
  137OSM     NF14800   0.245   3.328   3.096 -0.6162  0.2292 -0.2381
  137OSM    HNF14801   0.247   3.392   3.173 -1.3215 -1.0546  0.9033
  137OSM    C2S14802   0.374   3.260   3.067  0.7545 -0.0652  0.8489
  137OSM    H2S14803   0.356   3.152   3.043  1.1042  0.2103 -0.7939
  137OSM    C3S14804   0.482   3.263   3.184  0.9725 -0.3239 -0.4223
  137OSM    H3S14805   0.496   3.368   3.218  1.5385 -1.0768  1.8183
  137OSM     O314806   0.608   3.213   3.150  0.4530  0.6342  0.0552
  137OSM    HO314807   0.602   3.216   3.054 -1.1121 -0.8547  0.0544
  137OSM    C4S14808   0.420   3.182   3.299  0.0204  0.7021 -0.2741
  137OSM    H4S14809   0.350   3.237   3.364 -1.0424 -1.0707  0.1564
  137OSM    C5S14810   0.434   3.052   3.334  0.3540 -0.2666  0.6227
  137OSM    H5S14811   0.491   2.984   3.268  0.4404 -0.5098  0.9395
  137OSM    C6S14812   0.362   2.986   3.452  0.1185  0.1116  1.0974
  137OSM    H6S14813   0.277   3.043   3.496 -0.6448 -0.1034 -0.0263
  137OSM    H6T14814   0.446   2.965   3.521  0.6314 -0.0300  0.4474
  137OSM    C7S14815   0.307   2.845   3.412  0.1108  0.1422 -0.3777
  137OSM    H7S14816   0.378   2.792   3.345  0.6997 -0.0897  0.4111
  137OSM    H7T14817   0.220   2.864   3.345 -1.3008 -1.2198  0.9766
  137OSM    C8S14818   0.276   2.760   3.542  0.1163  0.0008 -0.5894
  137OSM    H8S14819   0.170   2.776   3.571 -0.1076  1.9513 -2.2110
  137OSM    H8T14820   0.342   2.801   3.622  2.3667 -1.0477 -1.8196
  137OSM    C9S14821   0.296   2.613   3.529  0.7009  0.0201  0.5560
  137OSM    H9S14822   0.396   2.595   3.484  1.1535 -0.4643  1.7136
  137OSM    H9T14823   0.233   2.561   3.453  1.7216 -2.7100  1.4542
  137OSM   C10S14824   0.304   2.522   3.651  0.1386  0.4648  0.5531
  137OSM   H10S14825   0.327   2.417   3.623 -1.7945  0.1820 -0.0813
  137OSM   H10T14826   0.201   2.527   3.692 -1.4716 -2.2702 -2.6605
  137OSM   C11S14827   0.416   2.574   3.749 -0.2682  0.6568 -0.5612
  137OSM   H11S14828   0.389   2.667   3.803  2.7887  0.2010  2.0462
  137OSM   H11T14829   0.505   2.602   3.688 -0.3678 -1.2469 -1.6811
  137OSM   C12S14830   0.456   2.468   3.851  0.8101 -0.2454 -0.1585
  137OSM   H12S14831   0.498   2.380   3.797 -1.8225 -0.6470 -1.7277
  137OSM   H12T14832   0.363   2.443   3.907  1.0205  1.8848  1.2286
  137OSM   C13S14833   0.562   2.506   3.959 -0.1840 -0.3076 -0.7699
  137OSM   H13S14834   0.543   2.601   4.013 -0.0950 -0.9237  0.3829
  137OSM   H13T14835   0.655   2.525   3.902 -0.8425  1.2054 -1.3781
  137OSM   C14S14836   0.576   2.394   4.069  0.1564  0.1104  0.7596
  137OSM   H14S14837   0.602   2.302   4.013  2.5769  0.1882  1.6492
  137OSM   H14T14838   0.478   2.374   4.118 -0.8508  0.7389 -0.8834
  137OSM   C15S14839   0.688   2.431   4.166  0.3806 -0.2086  0.8323
  137OSM   H15S14840   0.657   2.515   4.232  3.6556  0.4269  1.7802
  137OSM   H15T14841   0.778   2.461   4.109  1.4297 -0.0822  2.4852
  137OSM   C16S14842   0.718   2.312   4.256  0.9546  0.3178 -0.3959
  137OSM   H16S14843   0.621   2.295   4.307  1.2527  0.6210  0.2898
  137OSM   H16T14844   0.787   2.342   4.338  1.4202 -0.9537 -0.3113
  137OSM   C17S14845   0.764   2.184   4.189  0.0213 -0.0385  0.2949
  137OSM   H17S14846   0.686   2.152   4.117 -0.6270  1.6709  0.1788
  137OSM   H17T14847   0.754   2.108   4.269 -1.8892  0.9448  1.0674
  137OSM   C18S14848   0.911   2.191   4.125 -0.6674  0.2548  0.4119
  137OSM   H18S14849   0.920   2.117   4.042 -3.0307  2.6090 -2.1681
  137OSM   H18T14850   0.982   2.175   4.209  0.3615  2.5921  0.0535
  137OSM   H18U14851   0.948   2.286   4.082  0.2848  0.4090  1.5183
  137OSM    C1F14852   0.137   3.306   3.024  0.2728 -0.2352  0.2823
  137OSM     OF14853   0.137   3.215   2.941  0.4412  0.2835 -0.5976
  137OSM    C2F14854   0.024   3.397   3.053  0.2173 -0.1318 -0.1249
  137OSM    H2F14855  -0.046   3.394   2.967  0.2577  3.7834 -0.5084
  137OSM    H2G14856   0.068   3.499   3.048 -0.4212  0.1694  0.2954
  137OSM    C3F14857  -0.043   3.366   3.186  0.0171  0.3737 -0.2019
  137OSM    H3F14858   0.021   3.404   3.269 -1.0003 -0.8004  1.1845
  137OSM    H3G14859  -0.047   3.255   3.182  0.0312  0.4007 -3.5260
  137OSM    C4F14860  -0.169   3.445   3.205 -0.0455  0.6126  0.0200
  137OSM    H4F14861  -0.258   3.382   3.186 -0.0087 -0.0707  1.9013
  137OSM    H4G14862  -0.176   3.533   3.138  0.9036 -0.3445 -1.4091
  137OSM    C5F14863  -0.189   3.513   3.340  0.1937  0.7403  0.5108
  137OSM    H5F14864  -0.285   3.569   3.333 -1.0241 -1.2075  0.8413
  137OSM    H5G14865  -0.100   3.578   3.355  2.7059 -2.4628  0.5303
  137OSM    C6F14866  -0.191   3.432   3.465 -0.0505 -0.5589  0.0400
  137OSM    H6F14867  -0.104   3.362   3.464 -1.2556 -2.1122 -0.6127
  137OSM    H6G14868  -0.277   3.362   3.453  1.4121 -2.3808 -0.2775
  137OSM    C7F14869  -0.180   3.523   3.595  0.0049 -0.0405  0.1179
  137OSM    H7F14870  -0.220   3.625   3.574 -2.1565 -0.7255  0.6753
  137OSM    H7G14871  -0.072   3.536   3.615  0.2445 -1.9852  0.2743
  137OSM    C8F14872  -0.253   3.450   3.712 -0.4025 -0.0784 -0.5273
  137OSM    H8F14873  -0.212   3.349   3.732  1.0044  1.0679  3.3810
  137OSM    H8G14874  -0.364   3.444   3.702 -0.5295  0.3644  0.4774
  137OSM    C9F14875  -0.242   3.530   3.843  0.0412  0.4179 -0.0121
  137OSM    H9F14876  -0.213   3.634   3.821  0.5790  0.5532  1.2532
  137OSM   C10F14877  -0.268   3.478   3.969  0.4878 -0.2110  0.4540
  137OSM   H10F14878  -0.256   3.543   4.056  0.7051 -0.3579  0.5338
  137OSM   C11F14879  -0.320   3.336   3.999 -0.2330  0.6898 -0.6603
  137OSM   H11F14880  -0.324   3.275   3.907  2.3143  1.2148 -1.1959
  137OSM   H11G14881  -0.426   3.349   4.031 -0.4659 -1.9294 -0.1616
  137OSM   C12F14882  -0.242   3.257   4.104 -0.4376 -0.1481 -0.4494
  137OSM   H12F14883  -0.133   3.265   4.081  0.0567 -0.0234  1.7615
  137OSM   H12G14884  -0.265   3.149   4.111 -0.0286 -0.3761 -2.1963
  137OSM   C13F14885  -0.280   3.309   4.245  0.4796 -0.1714 -0.1366
  137OSM   H13F14886  -0.386   3.283   4.262  0.9662 -1.7885  0.6193
  137OSM   H13G14887  -0.272   3.419   4.255  0.9094 -0.2505  0.4238
  137OSM   C14F14888  -0.184   3.251   4.350  0.5755  0.1382 -0.1178
  137OSM   H14F14889  -0.107   3.327   4.375 -0.0377  0.4442  0.8885
  137OSM   H14G14890  -0.144   3.164   4.294 -0.4358 -1.5865  1.7358
  137OSM   C15F14891  -0.259   3.206   4.475  0.2542  0.3281  0.2578
  137OSM   H15F14892  -0.330   3.126   4.443  0.9685 -0.3354  0.3106
  137OSM   H15G14893  -0.318   3.295   4.508  1.2210  1.2894 -0.5516
  137OSM   C16F14894  -0.176   3.147   4.583  0.4497 -0.3052  0.2329
  137OSM   H16F14895  -0.105   3.230   4.604 -1.7876  1.8078 -0.1453
  137OSM   H16G14896  -0.121   3.057   4.548 -0.1350 -0.3849 -0.5065
  137OSM   C17F14897  -0.253   3.122   4.716  0.2620  0.1410  0.4084
  137OSM   H17F14898  -0.269   3.228   4.744 -0.5226 -0.0773  0.8471
  137OSM   H17G14899  -0.185   3.078   4.792 -1.6949  1.0212  2.8191
  137OSM   C18F14900  -0.388   3.051   4.701 -0.1791  0.3715 -0.3955
  137OSM   H18F14901  -0.456   3.128   4.659 -1.2246  1.1559  2.4832
  137OSM   H18G14902  -0.419   3.025   4.804  0.9693  2.0941  0.4242
  137OSM   H18H14903  -0.386   2.959   4.637  2.6683  1.6671 -2.3883
  138OSM      N14904   4.872   5.446   2.307 -0.1763 -0.2432  0.0582
  138OSM    C1514905   4.856   5.504   2.173  0.2784  0.5482  0.1521
  138OSM   H15A14906   4.941   5.567   2.148  1.4020 -1.2489 -0.7588
  138OSM   H15B14907   4.765   5.560   2.154  0.9248  1.6195  0.1155
  138OSM   H15C14908   4.850   5.419   2.107  2.6733  0.4677 -0.0459
  138OSM    C1414909   4.879   5.561   2.396  0.2398 -0.2153 -0.0374
  138OSM   H14A14910   4.873   5.532   2.500  0.9003 -0.5004 -0.0789
  138OSM   H14B14911   4.798   5.632   2.382 -0.0341 -0.2311  1.3226
  138OSM   H14C14912   4.971   5.617   2.396  0.1151 -0.0030  0.2568
  138OSM    C1314913   4.747   5.371   2.344  0.0494 -0.2247  0.2609
  138OSM   H13A14914   4.728   5.348   2.447  0.5263 -1.9211  0.0069
  138OSM   H13B14915   4.743   5.283   2.281  0.1830  0.3782 -0.6105
  138OSM   H13C14916   4.660   5.430   2.317  1.0562  1.5077  0.6585
  138OSM    C1214917   4.991   5.355   2.317 -0.0112 -0.0504  0.1229
  138OSM   H12A14918   5.081   5.402   2.279 -0.5014  0.7939 -0.0122
  138OSM   H12B14919   4.980   5.270   2.251  0.3665  1.3090 -1.7758
  138OSM    C1114920   5.025   5.303   2.452  0.7273  0.6126  0.1574
  138OSM   H11A14921   4.952   5.225   2.483 -3.9534  4.5131  0.2044
  138OSM   H11B14922   5.031   5.387   2.525 -4.0657  0.8197  0.6316
  138OSM      P14923   5.286   5.333   2.460 -0.0189 -0.0710 -0.2105
  138OSM    O1314924   5.406   5.249   2.443  0.4072 -0.5271 -0.2542
  138OSM    O1414925   5.282   5.455   2.376  0.4583 -0.4892 -0.1295
  138OSM    O1114926   5.259   5.376   2.613 -0.1780 -0.1040  0.4975
  138OSM    O1214927   5.155   5.246   2.436 -0.0860  0.0362  0.0106
  138OSM    C1S14928   5.211   5.286   2.714 -0.7061 -0.9605 -0.3346
  138OSM    H1S14929   5.286   5.207   2.737 -0.2400 -0.6959 -0.9177
  138OSM    H1T14930   5.115   5.245   2.677 -1.2691  0.4298 -0.4705
  138OSM     NF14931   5.158   5.265   2.961 -0.0372 -0.6466 -0.0441
  138OSM    HNF14932   5.062   5.256   2.988 -0.3150  1.3755 -0.2535
  138OSM    C2S14933   5.182   5.360   2.849 -0.2482 -0.3952 -0.6441
  138OSM    H2S14934   5.278   5.409   2.874 -0.6319 -0.6287  1.5242
  138OSM    C3S14935   5.066   5.469   2.834 -0.1981  0.5586  0.4858
  138OSM    H3S14936   4.974   5.421   2.794  1.7048 -0.6898 -2.7803
  138OSM     O314937   5.096   5.565   2.728 -0.1485 -0.0526 -0.1480
  138OSM    HO314938   5.167   5.528   2.675 -1.6339 -1.7456 -1.0499
  138OSM    C4S14939   5.038   5.545   2.964  0.3315  0.8461 -0.8179
  138OSM    H4S14940   4.980   5.494   3.042  2.6188  0.2661  0.5837
  138OSM    C5S14941   5.077   5.671   2.986  0.1336 -0.0387  0.5826
  138OSM    H5S14942   5.153   5.710   2.917 -1.3589 -2.2363 -2.5429
  138OSM    C6S14943   5.049   5.744   3.117  0.4416 -0.4645 -0.1883
  138OSM    H6S14944   4.979   5.828   3.101 -2.0981 -2.0339  1.7567
  138OSM    H6T14945   5.144   5.800   3.132 -1.0544  2.0935  0.1702
  138OSM    C7S14946   5.007   5.663   3.240  0.1058  0.3431 -0.6435
  138OSM    H7S14947   5.071   5.572   3.250 -0.8685 -0.2732  0.3018
  138OSM    H7T14948   4.900   5.634   3.233 -0.0890  0.9109 -0.1079
  138OSM    C8S14949   5.030   5.733   3.375  0.1305 -0.3082 -0.1642
  138OSM    H8S14950   4.978   5.831   3.386  1.1709  0.0416  2.3581
  138OSM    H8T14951   5.137   5.760   3.391  0.2965 -0.3426 -1.1910
  138OSM    C9S14952   4.987   5.664   3.511 -0.1527 -1.0638  0.0248
  138OSM    H9S14953   5.046   5.571   3.529  0.2480 -0.8144  0.0031
  138OSM    H9T14954   4.876   5.655   3.510 -0.6376  3.0756 -1.7775
  138OSM   C10S14955   5.009   5.749   3.640  0.6586 -0.3099  0.2183
  138OSM   H10S14956   4.987   5.858   3.635 -0.5716 -0.4963  1.2377
  138OSM   H10T14957   5.117   5.742   3.663  0.9879  1.3197 -0.6532
  138OSM   C11S14958   4.918   5.692   3.751  0.1990 -0.3806  0.4998
  138OSM   H11S14959   4.907   5.583   3.730  3.1384 -1.6653  4.4218
  138OSM   H11T14960   4.814   5.727   3.733  0.2094 -0.8670 -0.6548
  138OSM   C12S14961   4.962   5.723   3.892  0.0118 -0.2132 -0.1296
  138OSM   H12S14962   4.986   5.831   3.903 -1.1359 -0.0896  1.5848
  138OSM   H12T14963   5.050   5.657   3.907 -0.1140 -0.0030  1.8006
  138OSM   C13S14964   4.859   5.686   4.000  0.0312 -0.0258  0.1620
  138OSM   H13S14965   4.834   5.578   4.000  0.5999 -0.1560 -0.1664
  138OSM   H13T14966   4.765   5.745   3.986 -1.6149 -2.5347  0.0931
  138OSM   C14S14967   4.917   5.722   4.136  0.3402  0.5050 -0.6384
  138OSM   H14S14968   4.946   5.829   4.141 -2.4288  1.2892  0.6358
  138OSM   H14T14969   4.999   5.647   4.145  0.4068  0.5394 -0.9607
  138OSM   C15S14970   4.819   5.686   4.249 -0.3463  0.0477  1.1297
  138OSM   H15S14971   4.756   5.602   4.212  1.2454  0.2159 -2.3627
  138OSM   H15T14972   4.746   5.770   4.256 -1.3326 -0.8247  1.6106
  138OSM   C16S14973   4.879   5.662   4.384 -0.4211  0.5647  0.0180
  138OSM   H16S14974   4.942   5.750   4.408  0.3641  0.4200 -1.3768
  138OSM   H16T14975   4.941   5.570   4.391 -1.1628  0.0962  0.6457
  138OSM   C17S14976   4.754   5.658   4.475  0.1640 -0.1985 -0.1810
  138OSM   H17S14977   4.682   5.579   4.444  1.5377 -0.6263 -2.5254
  138OSM   H17T14978   4.696   5.752   4.463  0.1831 -0.3487 -1.6793
  138OSM   C18S14979   4.785   5.629   4.618  0.3790 -0.3453  0.3481
  138OSM   H18S14980   4.864   5.553   4.635  2.9247  2.5745  2.6608
  138OSM   H18T14981   4.691   5.593   4.666 -0.0209  0.3161  0.0710
  138OSM   H18U14982   4.811   5.721   4.674 -0.4288  0.8348 -1.1509
  138OSM    C1F14983   5.247   5.178   3.000 -0.9871  0.0992 -0.1756
  138OSM     OF14984   5.366   5.179   2.968 -0.3017  0.0112  0.2930
  138OSM    C2F14985   5.188   5.056   3.079 -0.0619  0.3110 -0.2208
  138OSM    H2F14986   5.157   4.987   2.997 -0.3793  1.9066 -1.5074
  138OSM    H2G14987   5.098   5.095   3.131  0.4226  2.1769 -0.7298
  138OSM    C3F14988   5.288   4.981   3.167  0.1527  0.1804 -0.2604
  138OSM    H3F14989   5.322   5.054   3.244 -1.4149 -0.5212  1.1900
  138OSM    H3G14990   5.371   4.951   3.100 -1.2645 -2.1931 -1.0716
  138OSM    C4F14991   5.220   4.870   3.245 -0.3524  1.2596 -0.3461
  138OSM    H4F14992   5.164   4.805   3.175  1.0253 -1.1015  0.6172
  138OSM    H4G14993   5.145   4.914   3.315 -2.5613  0.4480 -2.0712
  138OSM    C5F14994   5.323   4.781   3.321  0.0630 -0.0316 -0.8779
  138OSM    H5F14995   5.411   4.753   3.260  1.1542 -0.2868  0.7490
  138OSM    H5G14996   5.286   4.681   3.352 -1.8289  1.3935  2.0393
  138OSM    C6F14997   5.367   4.844   3.452  0.1399 -0.1099  0.0637
  138OSM    H6F14998   5.278   4.855   3.518 -0.8982  3.9667 -1.7523
  138OSM    H6G14999   5.396   4.948   3.429  1.7369 -0.8082 -1.3268
  138OSM    C7F15000   5.475   4.775   3.533 -0.2254 -0.2360 -0.7540
  138OSM    H7F15001   5.555   4.753   3.459 -1.9429 -1.3685 -2.3869
  138OSM    H7G15002   5.446   4.678   3.579  2.0346 -0.7717 -0.3272
  138OSM    C8F15003   5.532   4.871   3.639 -0.7227  0.0188 -0.2985
  138OSM    H8F15004   5.565   4.965   3.590 -0.4535  0.6037  0.9646
  138OSM    H8G15005   5.623   4.817   3.670 -0.4367 -0.0117 -1.1516
  138OSM    C9F15006   5.425   4.890   3.737  0.4827 -0.5629 -1.1309
  138OSM    H9F15007   5.341   4.956   3.711  0.5551  0.0488  0.1085
  138OSM   C10F15008   5.419   4.831   3.857  0.2546  0.6619 -0.2982
  138OSM   H10F15009   5.340   4.848   3.930  1.2328  0.1889  0.9061
  138OSM   C11F15010   5.515   4.730   3.915  0.2459  0.4006 -0.6271
  138OSM   H11F15011   5.593   4.702   3.841  0.7602 -0.7043  0.3162
  138OSM   H11G15012   5.456   4.639   3.938  1.5125 -0.4442 -0.6472
  138OSM   C12F15013   5.591   4.790   4.041  0.3392 -0.3029 -0.6419
  138OSM   H12F15014   5.623   4.894   4.020  3.2958 -0.8363  0.8041
  138OSM   H12G15015   5.679   4.725   4.061  1.2658  0.6721 -1.5281
  138OSM   C13F15016   5.495   4.780   4.153  0.0262  0.3118 -0.3453
  138OSM   H13F15017   5.480   4.678   4.194 -0.2311  0.3641 -0.3048
  138OSM   H13G15018   5.396   4.817   4.116 -0.2559  0.2800  0.3598
  138OSM   C14F15019   5.542   4.868   4.268 -0.0409 -0.5683 -0.2090
  138OSM   H14F15020   5.534   4.970   4.225 -1.8307 -0.4638  0.2749
  138OSM   H14G15021   5.651   4.852   4.278 -0.0854 -0.3212  0.7929
  138OSM   C15F15022   5.463   4.868   4.395  0.1021  0.2033  0.0512
  138OSM   H15F15023   5.355   4.890   4.378 -0.2611 -1.7567 -0.4682
  138OSM   H15G15024   5.512   4.942   4.462 -1.9572 -0.1736  2.1030
  138OSM   C16F15025   5.480   4.739   4.475 -0.5631  0.1490  0.0396
  138OSM   H16F15026   5.590   4.730   4.486 -0.4883  0.9818  0.0054
  138OSM   H16G15027   5.445   4.653   4.414 -0.3518 -0.2256  0.4458
  138OSM   C17F15028   5.431   4.747   4.620 -0.0722  0.3734  0.1799
  138OSM   H17F15029   5.320   4.739   4.623 -0.2039  1.9760  0.2461
  138OSM   H17G15030   5.452   4.844   4.669  1.3800 -0.2998  0.9595
  138OSM   C18F15031   5.481   4.623   4.692 -0.1424  0.0195 -0.5014
  138OSM   H18F15032   5.447   4.532   4.639 -2.1096 -1.4342  2.9915
  138OSM   H18G15033   5.441   4.634   4.795 -0.3225 -0.0680 -0.5610
  138OSM   H18H15034   5.592   4.630   4.697  0.1060 -3.3564  2.2003
  139OSM      N15035   6.583   4.176   2.306  0.3308 -0.4745 -0.3312
  139OSM    C1515036   6.510   4.252   2.206  0.4036  0.5058  0.2436
  139OSM   H15A15037   6.428   4.317   2.235  0.5308  0.7460  0.0662
  139OSM   H15B15038   6.482   4.188   2.123  1.4425  0.1469  0.1569
  139OSM   H15C15039   6.578   4.316   2.151 -0.8716  0.8345 -1.0188
  139OSM    C1415040   6.478   4.113   2.396  0.0717 -0.2529 -0.4833
  139OSM   H14A15041   6.423   4.184   2.457 -0.8541 -1.4502  0.1035
  139OSM   H14B15042   6.521   4.041   2.464 -0.3694 -0.7910 -0.7659
  139OSM   H14C15043   6.404   4.056   2.341 -1.7827  2.5271 -1.1168
  139OSM    C1315044   6.660   4.066   2.233  0.0849  0.4423 -0.2928
  139OSM   H13A15045   6.728   4.107   2.159  0.6051  0.8758  0.4088
  139OSM   H13B15046   6.596   4.000   2.177  0.0202 -0.1894  0.5049
  139OSM   H13C15047   6.713   4.002   2.302  1.1006  2.2464  0.6871
  139OSM    C1215048   6.681   4.260   2.387 -0.3184 -0.6780 -0.0220
  139OSM   H12A15049   6.708   4.195   2.469 -1.4510  1.5177  2.2207
  139OSM   H12B15050   6.639   4.345   2.436 -0.8289 -1.5679  1.1278
  139OSM    C1115051   6.807   4.320   2.310  0.6123  0.3493  0.0590
  139OSM   H11A15052   6.862   4.235   2.263 -0.7634 -0.7723  0.4288
  139OSM   H11B15053   6.871   4.362   2.391 -1.6674  3.4369  0.4435
  139OSM      P15054   6.735   4.565   2.266 -0.5324 -0.5219  0.2393
  139OSM    O1315055   6.867   4.622   2.298 -0.2472 -0.0778 -0.1421
  139OSM    O1415056   6.648   4.634   2.165 -0.3244 -0.3846 -0.2140
  139OSM    O1115057   6.659   4.546   2.403  0.6016 -0.2735  0.2211
  139OSM    O1215058   6.765   4.414   2.208  0.2105 -0.1880  0.0766
  139OSM    C1S15059   6.717   4.570   2.533  0.6989 -0.2512 -0.0758
  139OSM    H1S15060   6.770   4.667   2.543 -0.6113  0.3474  1.4914
  139OSM    H1T15061   6.779   4.487   2.574 -0.9006 -1.2028  0.4873
  139OSM     NF15062   6.663   4.680   2.756  0.2245  0.6654 -0.0331
  139OSM    HNF15063   6.679   4.621   2.834 -0.3674 -0.0612 -0.4414
  139OSM    C2S15064   6.606   4.607   2.640  0.1054 -0.3059 -0.6863
  139OSM    H2S15065   6.533   4.672   2.589 -2.9474 -2.5239  0.5088
  139OSM    C3S15066   6.526   4.477   2.670  0.1976 -0.0758 -0.6186
  139OSM    H3S15067   6.593   4.394   2.702 -2.5132 -2.1414  0.0318
  139OSM     O315068   6.451   4.421   2.560  0.0182 -0.3282 -0.2539
  139OSM    HO315069   6.475   4.480   2.488 -0.1236 -0.0493 -0.0735
  139OSM    C4S15070   6.433   4.494   2.793  0.8879 -0.3884  0.5292
  139OSM    H4S15071   6.371   4.585   2.785 -0.0261 -1.1441 -1.6956
  139OSM    C5S15072   6.433   4.414   2.902 -0.9398 -0.8784  0.3350
  139OSM    H5S15073   6.487   4.319   2.888 -0.3657 -0.2270 -2.2874
  139OSM    C6S15074   6.345   4.436   3.018 -0.7948 -0.5002 -0.2196
  139OSM    H6S15075   6.418   4.423   3.102 -0.7625 -1.6792 -0.4208
  139OSM    H6T15076   6.276   4.350   3.030 -1.1898 -0.4447 -1.9175
  139OSM    C7S15077   6.271   4.570   3.024 -0.1707  0.7842 -0.2060
  139OSM    H7S15078   6.195   4.573   2.944  0.2113  0.3502 -0.5924
  139OSM    H7T15079   6.344   4.654   3.017  0.3898  0.3774  0.5478
  139OSM    C8S15080   6.194   4.578   3.156  0.2818  0.1341  0.0306
  139OSM    H8S15081   6.108   4.509   3.146 -2.6688  3.5662 -0.4650
  139OSM    H8T15082   6.142   4.676   3.159  0.8232  0.4327 -0.1323
  139OSM    C9S15083   6.275   4.549   3.285 -0.1727  0.1240 -0.0668
  139OSM    H9S15084   6.367   4.610   3.285  0.7087 -1.1222  1.6763
  139OSM    H9T15085   6.307   4.442   3.285  1.1276  0.5025  0.2797
  139OSM   C10S15086   6.197   4.561   3.419  0.0526  0.1753  0.5017
  139OSM   H10S15087   6.105   4.500   3.406 -0.0165  0.1548  1.0728
  139OSM   H10T15088   6.156   4.663   3.432 -2.6639 -1.0118  2.1352
  139OSM   C11S15089   6.282   4.522   3.538 -0.3091  0.1453  1.1794
  139OSM   H11S15090   6.384   4.565   3.545  0.7181 -2.3487  2.6314
  139OSM   H11T15091   6.290   4.413   3.522 -0.4202  0.3300 -0.3124
  139OSM   C12S15092   6.196   4.555   3.663 -0.5022 -0.3134  0.2038
  139OSM   H12S15093   6.089   4.527   3.659 -1.3000  1.4150  4.1297
  139OSM   H12T15094   6.197   4.666   3.673 -2.9683 -0.3469  1.5617
  139OSM   C13S15095   6.251   4.489   3.788 -0.0757 -0.4425 -1.0255
  139OSM   H13S15096   6.357   4.522   3.798 -0.8146  1.5281  1.2261
  139OSM   H13T15097   6.260   4.380   3.772 -0.5284 -1.1020  2.3670
  139OSM   C14S15098   6.161   4.502   3.918  0.5585 -0.3769  0.5083
  139OSM   H14S15099   6.059   4.475   3.881  0.4444  1.3977 -0.6564
  139OSM   H14T15100   6.151   4.610   3.943  2.2566  0.4280 -1.9094
  139OSM   C15S15101   6.203   4.420   4.033  0.1960  0.6945  0.3289
  139OSM   H15S15102   6.209   4.312   4.005 -1.8572  0.7013 -0.3595
  139OSM   H15T15103   6.123   4.426   4.110 -0.3809  0.6316 -0.2579
  139OSM   C16S15104   6.326   4.447   4.111  0.2647 -0.2622 -0.1049
  139OSM   H16S15105   6.319   4.550   4.151 -0.2182 -1.2170  2.5100
  139OSM   H16T15106   6.425   4.431   4.062 -0.0286  0.2083 -0.8555
  139OSM   C17S15107   6.342   4.360   4.242 -0.3202 -0.6686  0.2888
  139OSM   H17S15108   6.404   4.268   4.231  2.3124  0.8406  1.5219
  139OSM   H17T15109   6.242   4.315   4.262 -1.4933  1.1232 -1.2244
  139OSM   C18S15110   6.375   4.438   4.366 -0.1942 -0.6899  0.0309
  139OSM   H18S15111   6.295   4.513   4.378  0.2194 -0.1882 -0.3185
  139OSM   H18T15112   6.472   4.490   4.350 -0.8050  1.2286  2.1739
  139OSM   H18U15113   6.382   4.390   4.466  0.1134  1.2724  1.0019
  139OSM    C1F15114   6.697   4.808   2.761 -0.5017 -0.1520  0.5030
  139OSM     OF15115   6.649   4.887   2.682  0.6760  0.0735  0.0326
  139OSM    C2F15116   6.790   4.857   2.869 -0.7765 -1.0493  0.4481
  139OSM    H2F15117   6.857   4.939   2.836 -0.3805 -0.8233  1.7606
  139OSM    H2G15118   6.864   4.778   2.896 -0.0883 -0.1125  1.3715
  139OSM    C3F15119   6.717   4.893   2.995 -0.4027  0.1080 -0.2317
  139OSM    H3F15120   6.652   4.809   3.026 -1.4010  0.5609 -1.0361
  139OSM    H3G15121   6.653   4.983   2.991 -0.3435  0.1817  0.3406
  139OSM    C4F15122   6.820   4.927   3.109 -0.4950  0.6706  0.7017
  139OSM    H4F15123   6.899   4.993   3.067 -0.2277 -0.8656 -1.3953
  139OSM    H4G15124   6.881   4.836   3.130 -1.6614  0.1936  2.1638
  139OSM    C5F15125   6.757   4.973   3.241 -0.0247 -0.5345 -0.0937
  139OSM    H5F15126   6.676   4.902   3.270 -0.2965 -0.6640 -1.1417
  139OSM    H5G15127   6.707   5.072   3.240  0.7882 -0.1191 -0.6209
  139OSM    C6F15128   6.850   4.968   3.360  0.3438  0.8607 -0.2019
  139OSM    H6F15129   6.878   4.860   3.358 -0.1764  0.7291 -2.4676
  139OSM    H6G15130   6.802   4.998   3.456  0.4975 -0.2433  0.2403
  139OSM    C7F15131   6.973   5.051   3.343  0.6190  0.2110  0.5105
  139OSM    H7F15132   6.954   5.156   3.310  1.5510  0.1504 -0.2879
  139OSM    H7G15133   7.031   4.995   3.266 -0.0936 -1.9757  1.5050
  139OSM    C8F15134   7.073   5.080   3.455  0.4038 -0.8393 -1.1581
  139OSM    H8F15135   7.164   5.133   3.420 -0.0393 -0.1204 -1.2549
  139OSM    H8G15136   7.099   4.976   3.485 -0.6011 -1.2003 -1.4902
  139OSM    C9F15137   7.024   5.175   3.564 -0.4082  0.3381 -0.5187
  139OSM    H9F15138   7.030   5.282   3.537 -3.7239  0.9807  0.7198
  139OSM   C10F15139   6.958   5.137   3.668 -0.6875  0.0928 -0.1710
  139OSM   H10F15140   6.928   5.223   3.731  0.1222  0.8710 -0.8284
  139OSM   C11F15141   6.917   5.003   3.711  0.4722 -0.3051  0.5453
  139OSM   H11F15142   6.939   4.925   3.634  0.5072  1.7409 -1.6178
  139OSM   H11G15143   6.806   5.000   3.718  0.5305  0.8590  2.5064
  139OSM   C12F15144   6.980   4.961   3.845 -0.6401 -0.4338 -0.1636
  139OSM   H12F15145   6.933   4.866   3.878 -1.2104 -0.3212 -0.6194
  139OSM   H12G15146   6.953   5.037   3.921 -0.0383 -0.4553  0.0740
  139OSM   C13F15147   7.127   4.955   3.851 -0.7254  0.0106 -0.0726
  139OSM   H13F15148   7.170   5.056   3.836 -0.3936 -0.4305 -2.7805
  139OSM   H13G15149   7.176   4.890   3.775 -2.4590 -1.1449 -0.2712
  139OSM   C14F15150   7.163   4.906   3.996 -0.2804  0.3135 -0.4187
  139OSM   H14F15151   7.112   4.809   4.013  2.7437 -1.0863  1.4108
  139OSM   H14G15152   7.145   4.984   4.073  3.3793  0.1663  0.7437
  139OSM   C15F15153   7.309   4.860   4.011 -0.4296 -0.7725 -0.2192
  139OSM   H15F15154   7.384   4.935   3.979 -2.1716  1.2286  0.1435
  139OSM   H15G15155   7.320   4.770   3.947  1.1948  0.0955 -1.2046
  139OSM   C16F15156   7.334   4.804   4.157  0.3905  0.2662 -0.2816
  139OSM   H16F15157   7.249   4.740   4.189 -2.2108  2.8753 -1.5773
  139OSM   H16G15158   7.341   4.895   4.220  1.2954 -0.8197  1.2833
  139OSM   C17F15159   7.466   4.731   4.174 -0.2396  0.3048 -0.1650
  139OSM   H17F15160   7.541   4.807   4.140 -0.6381  1.4143  1.3321
  139OSM   H17G15161   7.465   4.648   4.100 -0.3376  1.0231 -0.9857
  139OSM   C18F15162   7.492   4.671   4.312  0.3869 -0.3298 -0.0582
  139OSM   H18F15163   7.417   4.602   4.356  2.0722 -2.6545 -0.5922
  139OSM   H18G15164   7.512   4.749   4.388 -0.1802  2.3719 -2.5033
  139OSM   H18H15165   7.579   4.603   4.296 -0.6293 -1.3560 -1.4732
  140OSM      N15166   4.045   3.743   2.670 -0.5689 -0.0619  0.2693
  140OSM    C1515167   4.040   3.599   2.629 -0.4103 -0.9136  0.2730
  140OSM   H15A15168   3.948   3.553   2.662 -3.3413  0.1680 -5.1953
  140OSM   H15B15169   4.124   3.549   2.675 -0.4939  0.6350  2.2829
  140OSM   H15C15170   4.039   3.583   2.523 -0.4706  2.0081 -0.2535
  140OSM    C1415171   3.913   3.801   2.625  0.1249 -0.4084 -0.4069
  140OSM   H14A15172   3.831   3.740   2.659  0.0807 -0.0924  0.0595
  140OSM   H14B15173   3.907   3.811   2.518  0.1648  1.8087 -0.2290
  140OSM   H14C15174   3.896   3.897   2.670  2.0868  0.2829 -1.0585
  140OSM    C1315175   4.054   3.749   2.824 -0.3302 -0.5776  0.5775
  140OSM   H13A15176   3.956   3.720   2.858 -1.7544  3.6248  0.6417
  140OSM   H13B15177   4.061   3.854   2.849  0.2371 -0.2478 -0.9151
  140OSM   H13C15178   4.123   3.680   2.870  1.2155  0.9665  0.6868
  140OSM    C1215179   4.161   3.811   2.612 -0.3912 -0.7717 -0.4573
  140OSM   H12A15180   4.170   3.796   2.505  1.9815 -0.5406 -0.3373
  140OSM   H12B15181   4.249   3.759   2.645  0.8442  1.9535  0.8613
  140OSM    C1115182   4.185   3.955   2.649  0.0123 -0.4685  0.3426
  140OSM   H11A15183   4.286   3.988   2.615 -1.0071  1.1713 -1.2010
  140OSM   H11B15184   4.188   3.961   2.760  3.1498 -1.1053  0.4004
  140OSM      P15185   4.061   4.086   2.456  0.1344  0.1167 -0.0183
  140OSM    O1315186   4.191   4.116   2.389  0.0024 -0.7289  0.2899
  140OSM    O1415187   3.967   3.997   2.394 -0.0177  0.2264 -0.6292
  140OSM    O1115188   3.994   4.226   2.482 -0.4455 -0.1413 -0.0106
  140OSM    O1215189   4.085   4.050   2.604 -0.4081  0.3245 -0.4791
  140OSM    C1S15190   3.867   4.232   2.551  0.3536 -0.6003  0.3172
  140OSM    H1S15191   3.839   4.132   2.591  0.8761 -0.2688  1.5530
  140OSM    H1T15192   3.782   4.261   2.486  0.9956 -1.8784 -1.1861
  140OSM     NF15193   3.746   4.330   2.751  0.0262  0.4522 -0.4658
  140OSM    HNF15194   3.668   4.390   2.733 -1.6341 -1.1001  1.1170
  140OSM    C2S15195   3.871   4.339   2.676  1.0079  1.1206 -0.0008
  140OSM    H2S15196   3.953   4.302   2.741  0.4497  1.5140  0.9418
  140OSM    C3S15197   3.912   4.475   2.629  0.0238 -0.4465  0.3094
  140OSM    H3S15198   3.826   4.527   2.580  1.2543 -0.8172 -2.4271
  140OSM     O315199   4.005   4.483   2.522 -0.2982  0.1047  0.5399
  140OSM    HO315200   4.007   4.393   2.488  0.0897  0.8487 -1.5822
  140OSM    C4S15201   3.947   4.572   2.746  0.2277 -0.0265  1.0055
  140OSM    H4S15202   3.865   4.630   2.789  1.1071 -0.3089  3.2086
  140OSM    C5S15203   4.069   4.600   2.785 -0.0360 -0.3644 -0.3423
  140OSM    H5S15204   4.153   4.552   2.733  1.8487 -1.8905  3.6642
  140OSM    C6S15205   4.101   4.692   2.899  0.3919  0.2020  0.0130
  140OSM    H6S15206   4.118   4.797   2.866 -1.6994  0.4002 -0.6030
  140OSM    H6T15207   4.193   4.652   2.947 -0.4039 -1.8894 -0.1248
  140OSM    C7S15208   3.994   4.697   3.016  0.9714  0.3574  0.6354
  140OSM    H7S15209   3.961   4.595   3.046  1.5411  0.0337  0.1818
  140OSM    H7T15210   3.906   4.742   2.966 -0.2686 -0.0522  2.3653
  140OSM    C8S15211   4.035   4.781   3.137 -0.8064 -0.2053  0.2121
  140OSM    H8S15212   4.076   4.875   3.095  2.4929 -0.8313  1.7049
  140OSM    H8T15213   4.118   4.724   3.183 -0.1295 -1.1377 -1.9998
  140OSM    C9S15214   3.928   4.797   3.246  0.2673  0.7927  0.2631
  140OSM    H9S15215   3.829   4.819   3.201 -0.5900 -4.0338 -0.7543
  140OSM    H9T15216   3.953   4.887   3.307  0.4849  0.8182  0.1355
  140OSM   C10S15217   3.922   4.669   3.327 -0.0122  0.1780 -0.1327
  140OSM   H10S15218   4.002   4.634   3.395 -0.2149 -1.1767 -0.5599
  140OSM   H10T15219   3.921   4.580   3.261  1.1561  0.0336  0.0226
  140OSM   C11S15220   3.800   4.661   3.422 -0.0978  0.2887 -0.4222
  140OSM   H11S15221   3.778   4.557   3.453 -0.2719  0.6593  0.7310
  140OSM   H11T15222   3.702   4.692   3.378 -0.2760  0.0214 -0.2148
  140OSM   C12S15223   3.839   4.742   3.547 -0.1692  0.2716  0.3879
  140OSM   H12S15224   3.837   4.847   3.512 -1.1839 -0.2928 -1.4169
  140OSM   H12T15225   3.942   4.722   3.584  0.4602  2.0581 -0.2888
  140OSM   C13S15226   3.743   4.707   3.667 -0.0445  0.0262  0.4964
  140OSM   H13S15227   3.740   4.598   3.684 -2.1776  0.3506  2.7336
  140OSM   H13T15228   3.638   4.733   3.641 -0.2856 -0.8866  0.5401
  140OSM   C14S15229   3.786   4.779   3.801 -0.3318 -0.5526  0.3332
  140OSM   H14S15230   3.808   4.886   3.782 -1.4737 -0.4044 -0.2325
  140OSM   H14T15231   3.883   4.730   3.826 -0.7822 -1.2006  0.8500
  140OSM   C15S15232   3.676   4.780   3.903 -0.5269  0.4697  0.6346
  140OSM   H15S15233   3.594   4.846   3.869 -1.9564 -0.8473  1.3838
  140OSM   H15T15234   3.721   4.809   4.001  2.3630  0.0552 -0.4767
  140OSM   C16S15235   3.616   4.638   3.933  0.5173  0.6789 -0.3705
  140OSM   H16S15236   3.692   4.560   3.954 -0.9763 -0.4457  1.1593
  140OSM   H16T15237   3.558   4.605   3.845 -0.7134  1.3558  0.1677
  140OSM   C17S15238   3.506   4.644   4.037 -0.2994 -0.5585 -1.3325
  140OSM   H17S15239   3.452   4.546   4.036  1.5438 -1.7912  1.9171
  140OSM   H17T15240   3.445   4.724   3.992  1.3529  0.5362 -1.7224
  140OSM   C18S15241   3.562   4.675   4.177 -0.5531  0.2089  0.2448
  140OSM   H18S15242   3.486   4.687   4.258  0.6172  1.1028  1.2381
  140OSM   H18T15243   3.626   4.765   4.188 -1.3704  0.8277  0.0715
  140OSM   H18U15244   3.623   4.590   4.212 -2.5761 -1.1260  0.7429
  140OSM    C1F15245   3.719   4.232   2.840 -0.1713 -0.0179 -0.1492
  140OSM     OF15246   3.801   4.141   2.852 -0.1772  0.2542 -0.1022
  140OSM    C2F15247   3.583   4.231   2.894 -0.5847  0.2714 -0.5443
  140OSM    H2F15248   3.530   4.138   2.864 -3.5650  0.6583  2.7977
  140OSM    H2G15249   3.523   4.313   2.850  1.9403  2.6532  0.2095
  140OSM    C3F15250   3.578   4.249   3.050 -0.1901 -0.3975  0.3729
  140OSM    H3F15251   3.645   4.177   3.102 -0.4416  0.5168  2.0358
  140OSM    H3G15252   3.478   4.215   3.085 -0.2919 -0.1987  0.2722
  140OSM    C4F15253   3.615   4.395   3.097  0.3791  0.2264  0.2301
  140OSM    H4F15254   3.574   4.473   3.029  1.8764  0.8018 -0.0687
  140OSM    H4G15255   3.726   4.395   3.087  0.5803 -2.7810  1.4320
  140OSM    C5F15256   3.574   4.420   3.248  0.1526 -0.0368  0.4245
  140OSM    H5F15257   3.625   4.510   3.289 -1.6857  1.7172 -0.9171
  140OSM    H5G15258   3.593   4.323   3.298 -1.1950 -0.7230 -0.3489
  140OSM    C6F15259   3.427   4.453   3.278  0.0563 -0.4699 -0.8914
  140OSM    H6F15260   3.356   4.375   3.245 -0.5694 -1.5578  2.6498
  140OSM    H6G15261   3.392   4.534   3.210 -0.8939  0.0334  0.1568
  140OSM    C7F15262   3.397   4.510   3.420 -0.8089 -0.4925 -0.1299
  140OSM    H7F15263   3.480   4.583   3.432 -1.5206  0.2801  0.1566
  140OSM    H7G15264   3.393   4.434   3.500  1.1273 -0.8181 -0.2912
  140OSM    C8F15265   3.261   4.587   3.424  0.6598 -0.2715  0.8514
  140OSM    H8F15266   3.262   4.665   3.344 -2.3515 -0.8189  0.1576
  140OSM    H8G15267   3.261   4.637   3.523  0.9258  0.1618  0.6398
  140OSM    C9F15268   3.146   4.489   3.405  0.2508 -0.3113  0.3148
  140OSM    H9F15269   3.133   4.449   3.304 -0.3384 -0.3907  0.4222
  140OSM   C10F15270   3.056   4.448   3.493  0.3699  0.1942 -0.1106
  140OSM   H10F15271   2.984   4.370   3.465  1.5182 -1.0109  0.1758
  140OSM   C11F15272   3.041   4.487   3.639 -0.4575  0.1434 -0.4922
  140OSM   H11F15273   2.947   4.544   3.651  0.2748  1.3284 -0.2453
  140OSM   H11G15274   3.116   4.567   3.660 -1.0831  1.3792 -2.6647
  140OSM   C12F15275   3.052   4.374   3.747  0.4732  0.7097 -0.1623
  140OSM   H12F15276   3.156   4.338   3.742 -0.2686 -1.5688 -0.0863
  140OSM   H12G15277   2.974   4.297   3.732 -0.9704  1.6666  1.9033
  140OSM   C13F15278   3.041   4.424   3.892  0.7903  0.2769 -0.3402
  140OSM   H13F15279   3.008   4.342   3.959 -3.4998  0.8176 -1.4898
  140OSM   H13G15280   2.962   4.502   3.903  1.2261  0.6897 -0.0741
  140OSM   C14F15281   3.173   4.471   3.956 -0.3553  0.6527  0.1834
  140OSM   H14F15282   3.228   4.536   3.885 -0.0918  1.4372  1.0771
  140OSM   H14G15283   3.233   4.381   3.981 -0.4172  0.7250  0.6013
  140OSM   C15F15284   3.147   4.550   4.081  0.0939  0.5722  0.2728
  140OSM   H15F15285   3.064   4.619   4.055 -1.9512 -2.0995 -0.7496
  140OSM   H15G15286   3.238   4.609   4.107 -0.1990  0.6637  1.0964
  140OSM   C16F15287   3.108   4.476   4.215 -0.5469 -0.7772 -0.8384
  140OSM   H16F15288   3.196   4.416   4.248 -0.1765  0.8693  1.4653
  140OSM   H16G15289   3.022   4.407   4.210  0.3694 -2.6960  3.8829
  140OSM   C17F15290   3.081   4.571   4.333 -0.0533 -0.5367 -0.2968
  140OSM   H17F15291   2.996   4.637   4.306  0.0896 -0.8326 -1.5328
  140OSM   H17G15292   3.173   4.633   4.335 -1.8386  2.2920  0.6374
  140OSM   C18F15293   3.063   4.500   4.472  0.2585  0.0317  0.1720
  140OSM   H18F15294   3.000   4.408   4.472 -0.1159  0.2878  0.3028
  140OSM   H18G15295   3.039   4.563   4.560 -0.4217  1.3062 -0.8876
  140OSM   H18H15296   3.162   4.472   4.516  0.3006  0.0877  0.1131
  141OSM      N15297   1.796   3.821   2.854  0.1900 -0.2599  0.0440
  141OSM    C1515298   1.722   3.705   2.916  0.0874 -0.7562  0.4438
  141OSM   H15A15299   1.710   3.628   2.841  0.7514 -0.7001  0.2698
  141OSM   H15B15300   1.620   3.726   2.943 -0.5560 -3.2146  0.1375
  141OSM   H15C15301   1.780   3.668   2.999  0.7971  1.9814  1.2997
  141OSM    C1415302   1.918   3.778   2.783  0.6756 -0.6168 -0.1323
  141OSM   H14A15303   1.883   3.710   2.706  0.7519 -1.8915  0.9166
  141OSM   H14B15304   1.990   3.728   2.846 -0.8597  1.5795  3.7055
  141OSM   H14C15305   1.975   3.865   2.754  1.0149  0.0879  2.4562
  141OSM    C1315306   1.704   3.883   2.750 -0.4141 -0.1587 -0.3206
  141OSM   H13A15307   1.754   3.958   2.691  1.3570  0.1603  1.4603
  141OSM   H13B15308   1.620   3.936   2.793 -0.1456 -0.3603  0.4646
  141OSM   H13C15309   1.669   3.811   2.678 -3.3331  1.0078 -0.2224
  141OSM    C1215310   1.826   3.927   2.963  0.1705 -0.6708 -0.1824
  141OSM   H12A15311   1.874   4.007   2.909  1.2138 -1.6447 -0.7472
  141OSM   H12B15312   1.907   3.900   3.029  0.8043 -0.0451 -0.7097
  141OSM    C1115313   1.715   3.980   3.053  0.4011 -0.2900  0.7164
  141OSM   H11A15314   1.756   4.066   3.109  0.5258  0.1705 -0.0634
  141OSM   H11B15315   1.686   3.897   3.122  1.9449  0.8091  2.7802
  141OSM      P15316   1.576   4.179   2.958  0.1514 -0.2662  0.6817
  141OSM    O1315317   1.703   4.257   2.935 -0.3292  0.1877 -0.2209
  141OSM    O1415318   1.467   4.196   2.858  0.4704 -0.2709  0.0326
  141OSM    O1115319   1.515   4.225   3.102  0.0896  0.1340  0.1658
  141OSM    O1215320   1.602   4.024   2.975  0.3757 -0.2866  0.1583
  141OSM    C1S15321   1.461   4.131   3.198  0.1894  0.4306 -0.4463
  141OSM    H1S15322   1.542   4.060   3.227  0.1693  0.6751  0.2247
  141OSM    H1T15323   1.371   4.083   3.153 -0.6303  0.2645  1.2722
  141OSM     NF15324   1.378   4.088   3.428 -0.4229 -0.1558 -0.4783
  141OSM    HNF15325   1.288   4.098   3.470 -0.6367 -0.0512 -0.9524
  141OSM    C2S15326   1.419   4.195   3.333  0.4093 -0.4543 -0.0087
  141OSM    H2S15327   1.505   4.252   3.374 -0.5276  1.5207 -0.6481
  141OSM    C3S15328   1.313   4.302   3.311  0.4139 -0.1776 -0.7626
  141OSM    H3S15329   1.221   4.257   3.268 -1.4481  1.5984  1.1569
  141OSM     O315330   1.351   4.408   3.223 -0.0553 -0.4742 -0.3242
  141OSM    HO315331   1.442   4.387   3.200 -0.3245 -1.4057 -0.5854
  141OSM    C4S15332   1.282   4.364   3.444  0.0355  0.3986 -0.0188
  141OSM    H4S15333   1.200   4.318   3.501  0.9561  0.6037  1.5217
  141OSM    C5S15334   1.341   4.471   3.500  0.1747 -0.1839 -0.3232
  141OSM    H5S15335   1.427   4.527   3.458  0.6513  0.3198  1.2438
  141OSM    C6S15336   1.314   4.519   3.635  0.6755  0.4494  0.1637
  141OSM    H6S15337   1.207   4.529   3.662  0.7741  1.2592  0.2808
  141OSM    H6T15338   1.355   4.622   3.641 -1.2585  1.3865 -1.6493
  141OSM    C7S15339   1.372   4.427   3.736 -0.6255  0.2783  0.4718
  141OSM    H7S15340   1.482   4.414   3.727 -0.7936 -1.4731  0.4624
  141OSM    H7T15341   1.324   4.330   3.713 -0.4957  0.3555 -0.1318
  141OSM    C8S15342   1.323   4.467   3.885  1.6208  0.1563  1.0357
  141OSM    H8S15343   1.213   4.472   3.874  1.7675  1.5146 -0.1542
  141OSM    H8T15344   1.371   4.567   3.892  0.0757  1.0713 -0.5866
  141OSM    C9S15345   1.352   4.366   3.991 -0.0221  0.2681 -0.4597
  141OSM    H9S15346   1.461   4.372   4.010 -0.0592 -3.0589  1.7585
  141OSM    H9T15347   1.332   4.266   3.946 -1.4685 -0.1661  1.0229
  141OSM   C10S15348   1.257   4.377   4.111 -0.0677 -0.4844 -0.2821
  141OSM   H10S15349   1.161   4.327   4.083 -1.6529  0.0766  3.5495
  141OSM   H10T15350   1.232   4.483   4.129 -0.9007 -0.7902  0.4158
  141OSM   C11S15351   1.318   4.320   4.244 -0.3090 -0.2291  0.1870
  141OSM   H11S15352   1.410   4.371   4.280 -1.4902  0.7013  2.0110
  141OSM   H11T15353   1.352   4.215   4.227  0.3367 -0.0611  0.3997
  141OSM   C12S15354   1.219   4.331   4.364 -0.1543 -0.6242  0.7128
  141OSM   H12S15355   1.120   4.308   4.319 -1.0280  1.0088  1.7072
  141OSM   H12T15356   1.227   4.435   4.401 -2.3321  0.3548 -1.2657
  141OSM   C13S15357   1.239   4.232   4.476 -1.0523 -0.0058  0.0594
  141OSM   H13S15358   1.273   4.136   4.432  0.5327  0.8225 -0.5851
  141OSM   H13T15359   1.142   4.214   4.527 -0.1855 -0.2113  1.6936
  141OSM   C14S15360   1.350   4.274   4.575 -0.8493  0.6554  0.6742
  141OSM   H14S15361   1.357   4.384   4.579 -0.0459  0.5781  2.4547
  141OSM   H14T15362   1.450   4.249   4.534 -0.2067 -0.1633  2.6428
  141OSM   C15S15363   1.323   4.235   4.723  0.0786  0.0430  0.5630
  141OSM   H15S15364   1.305   4.125   4.722  0.2130  0.0182  0.6800
  141OSM   H15T15365   1.227   4.286   4.745 -1.1863 -1.5863 -0.9187
  141OSM   C16S15366   1.430   4.280   4.825  0.0939  0.7080  0.3878
  141OSM   H16S15367   1.426   4.390   4.844 -0.3300  0.2507  3.5319
  141OSM   H16T15368   1.532   4.247   4.797 -0.3400 -0.1747 -0.2154
  141OSM   C17S15369   1.393   4.221   4.964 -0.0236  0.5068 -0.2695
  141OSM   H17S15370   1.382   4.110   4.963 -1.1011  0.6081 -1.2678
  141OSM   H17T15371   1.293   4.260   4.994 -1.1707 -0.2149 -2.8778
  141OSM   C18S15372   1.485   4.259   5.078 -0.3066 -0.3928  0.5260
  141OSM   H18S15373   1.424   4.256   5.171 -1.0275 -1.3320  0.0400
  141OSM   H18T15374   1.528   4.360   5.059 -0.8663  0.0209  1.3812
  141OSM   H18U15375   1.569   4.187   5.077 -1.3379 -1.6268 -0.3435
  141OSM    C1F15376   1.464   4.009   3.491  0.4146 -0.0953 -0.5506
  141OSM     OF15377   1.580   4.013   3.463  0.1370 -0.4277 -0.3952
  141OSM    C2F15378   1.406   3.916   3.594 -0.0218 -0.3521 -0.5723
  141OSM    H2F15379   1.465   3.823   3.609 -1.5628 -0.8671  3.4634
  141OSM    H2G15380   1.305   3.889   3.556  1.0794 -2.4433 -2.2665
  141OSM    C3F15381   1.396   3.975   3.739 -0.4335  0.5065 -0.3330
  141OSM    H3F15382   1.342   4.071   3.745 -0.9787  0.1352  3.2434
  141OSM    H3G15383   1.501   3.984   3.775 -0.9659 -0.7588  1.7175
  141OSM    C4F15384   1.317   3.884   3.830  0.0190  0.0088  1.7265
  141OSM    H4F15385   1.360   3.782   3.817 -0.4868 -0.0029 -0.1477
  141OSM    H4G15386   1.208   3.868   3.815  0.1036  0.2628  0.7952
  141OSM    C5F15387   1.328   3.936   3.972  0.4114 -0.5869 -1.0130
  141OSM    H5F15388   1.258   4.022   3.979  0.9414 -0.1108 -1.4763
  141OSM    H5G15389   1.435   3.961   3.988  0.3470 -1.6012  1.4793
  141OSM    C6F15390   1.298   3.820   4.065 -0.0123 -1.0400  0.1011
  141OSM    H6F15391   1.378   3.746   4.044  0.4448 -1.3205  2.4953
  141OSM    H6G15392   1.197   3.783   4.039 -0.6739  0.8650 -0.2011
  141OSM    C7F15393   1.309   3.868   4.209 -0.4236 -0.2095  0.0673
  141OSM    H7F15394   1.242   3.954   4.230  2.0545  1.6803  0.6003
  141OSM    H7G15395   1.412   3.902   4.230 -1.0481  2.2713 -0.5797
  141OSM    C8F15396   1.283   3.757   4.309  0.4180  0.5164  0.8447
  141OSM    H8F15397   1.362   3.680   4.301 -0.4619 -0.2486 -0.9575
  141OSM    H8G15398   1.187   3.705   4.288  0.7437  0.7359 -1.4093
  141OSM    C9F15399   1.278   3.802   4.451  0.2323  0.0398  0.3756
  141OSM    H9F15400   1.366   3.772   4.510  2.4198  0.3950 -2.5169
  141OSM   C10F15401   1.172   3.857   4.519  0.1197  0.1083  0.1523
  141OSM   H10F15402   1.193   3.872   4.626  1.5806 -0.6061 -0.0064
  141OSM   C11F15403   1.036   3.892   4.455  0.3505  0.1293  0.7526
  141OSM   H11F15404   1.051   3.923   4.349  1.4920  0.3917  0.9774
  141OSM   H11G15405   0.986   3.976   4.508 -1.8062  0.1721 -1.2227
  141OSM   C12F15406   0.939   3.768   4.460  0.2125  0.4861 -0.0324
  141OSM   H12F15407   0.905   3.754   4.564 -2.8303 -1.4779 -1.1777
  141OSM   H12G15408   0.992   3.679   4.419 -2.3851 -1.9511  1.5724
  141OSM   C13F15409   0.819   3.780   4.367 -0.6638 -0.0150  0.0958
  141OSM   H13F15410   0.747   3.697   4.354 -0.7131  0.3238 -2.3177
  141OSM   H13G15411   0.857   3.806   4.266 -0.1930  0.6268  0.4289
  141OSM   C14F15412   0.723   3.889   4.397  0.0201 -0.5749  0.6783
  141OSM   H14F15413   0.650   3.882   4.314 -1.5447 -2.3425  2.1166
  141OSM   H14G15414   0.769   3.989   4.382 -0.9707 -0.4258 -1.8336
  141OSM   C15F15415   0.663   3.851   4.535 -0.3123  0.8485  0.3137
  141OSM   H15F15416   0.736   3.876   4.616  0.1841 -0.5964  0.3420
  141OSM   H15G15417   0.618   3.749   4.534  2.9243 -0.7086  0.3643
  141OSM   C16F15418   0.543   3.946   4.562  0.1867  0.0871 -0.1562
  141OSM   H16F15419   0.464   3.933   4.485 -1.0371  2.7888  0.5243
  141OSM   H16G15420   0.571   4.054   4.557 -1.0991  0.4739  0.5336
  141OSM   C17F15421   0.486   3.927   4.704  0.0260 -0.5472 -0.1072
  141OSM   H17F15422   0.441   4.025   4.729 -2.7999 -1.8534  0.3909
  141OSM   H17G15423   0.569   3.928   4.778 -2.5326  2.6560  3.0624
  141OSM   C18F15424   0.399   3.810   4.740 -0.5544  0.0004  0.1608
  141OSM   H18F15425   0.315   3.795   4.668  0.8299 -1.9562 -1.1621
  141OSM   H18G15426   0.351   3.805   4.839 -1.0530 -1.9944 -0.1325
  141OSM   H18H15427   0.444   3.709   4.729 -1.4400 -0.4079  0.2043
  142OSM      N15428   0.956   5.794   2.609 -0.4838  0.1180 -0.1499
  142OSM    C1515429   1.092   5.826   2.552 -0.4716  0.1060 -0.1965
  142OSM   H15A15430   1.150   5.739   2.527  2.0656  0.2275  4.2460
  142OSM   H15B15431   1.152   5.874   2.627  0.4394 -1.4520  0.1081
  142OSM   H15C15432   1.078   5.885   2.462 -0.3597 -0.9620 -0.9309
  142OSM    C1415433   0.873   5.744   2.494 -0.6088  0.8367 -0.1223
  142OSM   H14A15434   0.777   5.707   2.530 -0.1194 -0.6728 -0.2910
  142OSM   H14B15435   0.931   5.669   2.443 -1.9006 -0.3813  0.1021
  142OSM   H14C15436   0.863   5.831   2.431 -2.1059  0.4295 -0.4897
  142OSM    C1315437   0.983   5.680   2.706  0.3602 -0.0870 -0.1572
  142OSM   H13A15438   0.886   5.636   2.723  0.6971 -0.1863  1.7228
  142OSM   H13B15439   1.027   5.711   2.800 -1.8063 -1.1993  1.2924
  142OSM   H13C15440   1.053   5.609   2.665 -0.0659 -0.5164 -0.1349
  142OSM    C1215441   0.891   5.924   2.673 -0.3063  0.5099  0.1298
  142OSM   H12A15442   0.959   5.972   2.741 -0.6328  0.2558  0.6510
  142OSM   H12B15443   0.805   5.896   2.732 -0.6762  0.4189 -0.4374
  142OSM    C1115444   0.847   6.035   2.581  0.1872  0.4600  0.2851
  142OSM   H11A15445   0.789   6.106   2.644  1.7949  0.2892  2.0512
  142OSM   H11B15446   0.785   5.986   2.504 -0.5650  1.1780  0.4176
  142OSM      P15447   1.051   6.200   2.610  0.2018  0.3318 -0.1536
  142OSM    O1315448   1.191   6.151   2.599 -0.0438 -0.1517 -0.3024
  142OSM    O1415449   1.013   6.337   2.568 -0.4396 -0.0977 -0.1521
  142OSM    O1115450   1.004   6.171   2.754  0.1968  0.1823  0.0879
  142OSM    O1215451   0.966   6.099   2.523  0.3867  0.2515 -0.3776
  142OSM    C1S15452   0.911   6.245   2.835 -0.1390 -0.1130  0.2634
  142OSM    H1S15453   0.811   6.196   2.829 -0.3878 -0.0597  2.8427
  142OSM    H1T15454   0.893   6.348   2.797  2.8455  0.4618  0.1983
  142OSM     NF15455   0.831   6.248   3.064  0.9462  0.5119  0.2908
  142OSM    HNF15456   0.790   6.328   3.106 -0.5884 -0.1702  0.1662
  142OSM    C2S15457   0.950   6.248   2.983 -1.0475 -0.7181 -0.6925
  142OSM    H2S15458   1.007   6.152   2.990 -0.3216 -0.3179 -1.0387
  142OSM    C3S15459   1.052   6.366   3.006  0.3920  0.1941 -0.2108
  142OSM    H3S15460   0.992   6.460   3.001  0.2923  0.1173 -0.4852
  142OSM     O315461   1.149   6.371   2.905 -0.9110 -0.2553  0.4558
  142OSM    HO315462   1.125   6.304   2.841  4.4940 -0.3811 -1.9930
  142OSM    C4S15463   1.125   6.360   3.136 -0.1842 -0.6525  0.1865
  142OSM    H4S15464   1.196   6.278   3.152  0.6814  0.3990  2.0170
  142OSM    C5S15465   1.099   6.451   3.232  0.0278  0.1218 -0.3803
  142OSM    H5S15466   1.022   6.528   3.216 -0.4970 -0.3944 -0.3709
  142OSM    C6S15467   1.157   6.445   3.373  0.3178 -0.3524  0.8914
  142OSM    H6S15468   1.072   6.434   3.444 -0.2925 -3.1667 -0.1222
  142OSM    H6T15469   1.210   6.539   3.397  0.9734 -1.0258  2.1974
  142OSM    C7S15470   1.260   6.334   3.404 -1.0267 -0.1319 -0.4940
  142OSM    H7S15471   1.341   6.325   3.330 -1.1671 -2.1755 -0.4648
  142OSM    H7T15472   1.197   6.242   3.399 -0.5478 -0.4143 -1.3957
  142OSM    C8S15473   1.331   6.359   3.535 -0.0399 -0.2993 -0.1619
  142OSM    H8S15474   1.379   6.458   3.542  0.6819 -0.6324 -0.3131
  142OSM    H8T15475   1.417   6.290   3.543  0.0701  0.0821  3.2568
  142OSM    C9S15476   1.245   6.338   3.662  0.4348  0.2138 -1.2786
  142OSM    H9S15477   1.207   6.233   3.660 -0.2210  0.4249 -0.3175
  142OSM    H9T15478   1.155   6.402   3.670  1.0147  0.9231 -0.0753
  142OSM   C10S15479   1.324   6.340   3.792  0.5269  0.3131  0.7365
  142OSM   H10S15480   1.370   6.440   3.807  1.7747  0.5166 -3.3050
  142OSM   H10T15481   1.410   6.270   3.780 -0.4469 -1.2820  2.3943
  142OSM   C11S15482   1.250   6.288   3.918  0.1045 -0.1635 -0.4064
  142OSM   H11S15483   1.254   6.177   3.916 -1.5137 -0.3462  2.2583
  142OSM   H11T15484   1.144   6.323   3.915  0.1538 -0.0120 -0.3898
  142OSM   C12S15485   1.303   6.349   4.043 -0.3455  0.0547 -0.5350
  142OSM   H12S15486   1.286   6.459   4.045 -0.9510 -0.0505  0.3528
  142OSM   H12T15487   1.413   6.335   4.052 -0.4130  0.4738  1.1987
  142OSM   C13S15488   1.248   6.293   4.178  0.2206 -0.5259 -0.6598
  142OSM   H13S15489   1.317   6.213   4.212 -0.0253 -0.4199  0.1047
  142OSM   H13T15490   1.150   6.250   4.151 -0.4456  0.9200 -0.6071
  142OSM   C14S15491   1.232   6.394   4.289 -0.1191 -0.6871 -0.5855
  142OSM   H14S15492   1.148   6.355   4.349  0.9449 -1.4746  0.4107
  142OSM   H14T15493   1.182   6.486   4.250 -0.7732 -1.2023 -0.9770
  142OSM   C15S15494   1.346   6.413   4.393 -0.4427  0.3141  0.2161
  142OSM   H15S15495   1.421   6.483   4.351  1.0952 -2.6484 -2.4108
  142OSM   H15T15496   1.404   6.320   4.410  0.6153  0.9946  0.4594
  142OSM   C16S15497   1.283   6.458   4.522  0.2264 -0.2427 -0.3983
  142OSM   H16S15498   1.239   6.368   4.570  1.5164 -0.9521 -0.5061
  142OSM   H16T15499   1.210   6.541   4.509  0.6073  0.2291  0.3479
  142OSM   C17S15500   1.382   6.510   4.624  0.0235 -0.1035  0.1890
  142OSM   H17S15501   1.467   6.556   4.571 -0.3455 -1.4052 -1.6126
  142OSM   H17T15502   1.429   6.422   4.673 -1.8338  0.3731  3.1214
  142OSM   C18S15503   1.342   6.614   4.733 -0.3231  0.0159 -0.7608
  142OSM   H18S15504   1.272   6.568   4.806  1.8330  0.4420  1.6949
  142OSM   H18T15505   1.301   6.706   4.686  1.1893  0.9811 -0.2523
  142OSM   H18U15506   1.434   6.646   4.785 -0.3904 -0.8125 -0.1014
  142OSM    C1F15507   0.742   6.149   3.075 -0.3859  0.4498 -0.0872
  142OSM     OF15508   0.771   6.037   3.031  0.2753 -0.1002 -0.0177
  142OSM    C2F15509   0.609   6.180   3.131  0.0302  0.2895 -0.2631
  142OSM    H2F15510   0.534   6.124   3.072  0.5719 -0.0385 -0.6596
  142OSM    H2G15511   0.577   6.286   3.135 -1.4499 -0.1617  0.5791
  142OSM    C3F15512   0.607   6.124   3.273 -0.1899  1.3101 -0.4015
  142OSM    H3F15513   0.659   6.026   3.278  1.5348  2.1603 -1.0144
  142OSM    H3G15514   0.504   6.096   3.304  0.3764 -1.1373 -0.4719
  142OSM    C4F15515   0.664   6.216   3.383  0.0079 -0.6300 -0.5268
  142OSM    H4F15516   0.586   6.283   3.425  1.6911 -0.1381  2.0470
  142OSM    H4G15517   0.747   6.280   3.346  1.2961 -1.8873  0.1246
  142OSM    C5F15518   0.713   6.142   3.508 -0.0904 -0.8922  0.1228
  142OSM    H5F15519   0.793   6.072   3.474  0.4308 -1.0975  1.6858
  142OSM    H5G15520   0.630   6.089   3.558  0.7917  0.0447  2.8029
  142OSM    C6F15521   0.777   6.241   3.601 -0.2288  0.0836 -0.1741
  142OSM    H6F15522   0.701   6.304   3.653 -0.2627 -0.3864  0.3530
  142OSM    H6G15523   0.835   6.317   3.544 -2.1203  0.4437 -1.7470
  142OSM    C7F15524   0.868   6.187   3.711 -0.5770  0.2003  0.0559
  142OSM    H7F15525   0.907   6.262   3.783  1.0980 -1.0341  0.4818
  142OSM    H7G15526   0.960   6.150   3.660  0.3896  0.5730  1.4683
  142OSM    C8F15527   0.804   6.072   3.795 -0.2674 -0.4554  0.1360
  142OSM    H8F15528   0.893   6.044   3.856  0.4795  2.0328  0.2871
  142OSM    H8G15529   0.774   5.982   3.737  0.3405 -0.9884  0.6242
  142OSM    C9F15530   0.692   6.121   3.886  0.0030 -0.4830  0.2709
  142OSM    H9F15531   0.601   6.146   3.829  1.1687  0.3208 -1.3186
  142OSM   C10F15532   0.697   6.137   4.019 -0.7837 -0.7284 -0.6133
  142OSM   H10F15533   0.606   6.174   4.067 -0.0606 -0.4815  0.6152
  142OSM   C11F15534   0.800   6.079   4.118 -0.4164  0.6428  0.0847
  142OSM   H11F15535   0.902   6.103   4.082 -0.8087  0.0530 -1.5466
  142OSM   H11G15536   0.788   5.968   4.125  0.0412  0.5306 -0.8019
  142OSM   C12F15537   0.784   6.135   4.260 -0.1637 -0.4021 -0.6224
  142OSM   H12F15538   0.695   6.086   4.306 -1.5203  2.3366 -0.1252
  142OSM   H12G15539   0.769   6.245   4.251 -0.0009 -0.4846 -1.9595
  142OSM   C13F15540   0.894   6.097   4.363 -0.2658 -0.2316  0.5169
  142OSM   H13F15541   0.995   6.107   4.316 -0.4750 -0.0100  0.1057
  142OSM   H13G15542   0.887   5.986   4.372  0.2212 -0.5146 -1.9069
  142OSM   C14F15543   0.875   6.152   4.507 -0.4426  0.3526  0.0412
  142OSM   H14F15544   0.902   6.260   4.508  2.0278 -0.1700 -1.1152
  142OSM   H14G15545   0.952   6.102   4.570  0.6824  0.6917 -1.0135
  142OSM   C15F15546   0.732   6.133   4.578  0.4599  0.2519  0.7042
  142OSM   H15F15547   0.652   6.171   4.512 -0.8753 -3.3634 -0.0330
  142OSM   H15G15548   0.726   6.173   4.682 -1.4437 -0.1144  0.7847
  142OSM   C16F15549   0.704   5.976   4.598 -0.6827  0.4722  0.6170
  142OSM   H16F15550   0.784   5.938   4.665 -0.0201  0.0089 -0.3991
  142OSM   H16G15551   0.730   5.929   4.500  1.5539  1.1352  0.8217
  142OSM   C17F15552   0.566   5.955   4.647 -0.2013 -0.1761 -0.0609
  142OSM   H17F15553   0.543   5.847   4.640 -2.7087  0.2952 -0.0425
  142OSM   H17G15554   0.497   5.994   4.568  1.6826  0.5333 -1.4320
  142OSM   C18F15555   0.517   6.015   4.780  0.6325  0.1424 -0.6964
  142OSM   H18F15556   0.520   6.126   4.784  0.9137  0.1049  0.5004
  142OSM   H18G15557   0.596   6.004   4.858 -1.3077  0.0594  1.3505
  142OSM   H18H15558   0.418   5.986   4.821  1.5946 -0.3327  1.4532
  143OSM      N15559   0.041   6.100   2.377  0.0333 -0.8031 -0.1091
  143OSM    C1515560  -0.001   6.191   2.272  0.1623 -0.7337  0.3720
  143OSM   H15A15561   0.013   6.295   2.300  2.5474 -0.2730 -2.0857
  143OSM   H15B15562  -0.107   6.174   2.258 -0.2771  0.5538  1.8036
  143OSM   H15C15563   0.042   6.184   2.174 -2.3527 -0.1082 -0.8665
  143OSM    C1415564   0.012   5.966   2.328 -0.2809 -0.8155  1.0500
  143OSM   H14A15565   0.031   5.884   2.396 -1.2039 -1.9191  0.0324
  143OSM   H14B15566   0.080   5.943   2.246 -0.8402  0.9349  0.0441
  143OSM   H14C15567  -0.090   5.956   2.293  0.4082  1.3255 -1.9597
  143OSM    C1315568   0.183   6.105   2.406  0.7877 -0.0131  0.1849
  143OSM   H13A15569   0.212   6.197   2.457  2.6771  0.4812 -1.6499
  143OSM   H13B15570   0.249   6.096   2.321 -0.6633  1.0655 -1.1059
  143OSM   H13C15571   0.202   6.025   2.476 -1.6535 -0.1764  0.7553
  143OSM    C1215572  -0.036   6.135   2.505  0.3712 -0.0262 -0.7213
  143OSM   H12A15573  -0.008   6.067   2.584  0.0925  0.8241  0.1216
  143OSM   H12B15574  -0.140   6.137   2.475  0.0972  0.3043  0.2255
  143OSM    C1115575  -0.020   6.274   2.567 -0.8508 -0.4938 -0.7209
  143OSM   H11A15576  -0.087   6.277   2.655 -0.7044 -1.0946 -0.5904
  143OSM   H11B15577  -0.036   6.349   2.487  0.4700  1.3611  0.6405
  143OSM      P15578   0.155   6.403   2.703 -0.0343 -0.2529 -0.0629
  143OSM    O1315579   0.302   6.428   2.689 -0.0358  0.3504 -0.8848
  143OSM    O1415580   0.075   6.524   2.684 -0.6183 -0.0198  0.4736
  143OSM    O1115581   0.133   6.348   2.847 -0.1734  0.1139 -0.0277
  143OSM    O1215582   0.118   6.287   2.610 -0.2078  0.0880 -0.2612
  143OSM    C1S15583   0.137   6.207   2.877  0.2861 -0.2067  1.0246
  143OSM    H1S15584   0.185   6.146   2.797  0.7642 -1.8358  2.4890
  143OSM    H1T15585   0.037   6.164   2.895  0.8986 -1.8863  0.6502
  143OSM     NF15586   0.231   6.033   3.028 -0.0393 -0.3695 -0.1152
  143OSM    HNF15587   0.163   5.980   3.079  0.4761 -0.2305  0.7418
  143OSM    C2S15588   0.209   6.177   3.008  0.1095  0.2577  0.0979
  143OSM    H2S15589   0.309   6.224   2.997  0.5863 -0.7138  0.1754
  143OSM    C3S15590   0.131   6.246   3.124 -0.3830 -0.2281 -0.1249
  143OSM    H3S15591   0.024   6.219   3.124 -0.6757  0.8844 -0.1137
  143OSM     O315592   0.099   6.383   3.116  0.1070  0.6166  0.4763
  143OSM    HO315593   0.074   6.395   3.024 -1.2230 -1.3053  0.5165
  143OSM    C4S15594   0.199   6.225   3.257  0.2792 -0.4038  0.5566
  143OSM    H4S15595   0.296   6.277   3.265  0.0506 -0.0136  0.8053
  143OSM    C5S15596   0.137   6.166   3.357 -0.6728  0.1710  0.2818
  143OSM    H5S15597   0.039   6.120   3.339 -0.7413  0.9149 -1.5197
  143OSM    C6S15598   0.188   6.157   3.503  0.4848 -0.2623 -0.2762
  143OSM    H6S15599   0.105   6.164   3.577  1.0551 -2.4432  0.6306
  143OSM    H6T15600   0.263   6.238   3.521  0.2920 -0.0853 -0.2601
  143OSM    C7S15601   0.259   6.029   3.543 -0.9342  0.3306  0.6863
  143OSM    H7S15602   0.321   5.988   3.461 -2.5879  0.1345 -0.5165
  143OSM    H7T15603   0.185   5.948   3.556  1.0221 -1.6700 -0.0858
  143OSM    C8S15604   0.348   6.046   3.672 -0.2154 -0.2665  0.4682
  143OSM    H8S15605   0.406   6.140   3.670 -1.5605  0.5747  0.0278
  143OSM    H8T15606   0.411   5.955   3.677  1.5674  0.6377 -2.8153
  143OSM    C9S15607   0.259   6.047   3.800 -0.2480 -0.5248 -0.6004
  143OSM    H9S15608   0.181   5.969   3.784 -1.9646  0.9083  0.4075
  143OSM    H9T15609   0.215   6.148   3.786  0.9038 -0.1135 -1.4334
  143OSM   C10S15610   0.348   6.038   3.929  0.1423 -0.8391  0.3075
  143OSM   H10S15611   0.419   6.124   3.918  0.5791 -0.9978  1.7384
  143OSM   H10T15612   0.416   5.950   3.920  2.0024  0.7021 -2.1784
  143OSM   C11S15613   0.282   6.039   4.064 -0.5956  0.4670  0.2210
  143OSM   H11S15614   0.211   6.124   4.070 -0.5813  0.4403  0.7618
  143OSM   H11T15615   0.366   6.060   4.134 -0.0925  0.2320 -0.3016
  143OSM   C12S15616   0.212   5.905   4.100 -0.1492  0.0943 -0.1705
  143OSM   H12S15617   0.279   5.823   4.065 -3.9238 -2.3404 -2.4564
  143OSM   H12T15618   0.117   5.892   4.044  0.2262 -2.1228 -0.3680
  143OSM   C13S15619   0.187   5.892   4.249  0.2939  0.0253  1.0649
  143OSM   H13S15620   0.134   5.984   4.281 -2.1980  0.3979 -3.3390
  143OSM   H13T15621   0.286   5.895   4.299  1.2503 -0.8775 -0.6962
  143OSM   C14S15622   0.115   5.751   4.291  0.2829 -0.8688  0.4062
  143OSM   H14S15623   0.170   5.670   4.239 -0.1599 -0.8343 -0.1229
  143OSM   H14T15624   0.017   5.757   4.240  1.8703  0.7700 -2.7823
  143OSM   C15S15625   0.118   5.734   4.440  0.1738  0.6489  0.4325
  143OSM   H15S15626   0.042   5.660   4.474 -0.0950  0.6150 -0.2352
  143OSM   H15T15627   0.091   5.819   4.507 -1.7821 -0.7036  1.4831
  143OSM   C16S15628   0.242   5.665   4.491 -0.2592 -0.0682 -0.3823
  143OSM   H16S15629   0.333   5.724   4.469  1.5747 -2.5768 -0.0708
  143OSM   H16T15630   0.269   5.575   4.431  0.8596 -0.7465  1.0734
  143OSM   C17S15631   0.239   5.621   4.638 -0.0343 -0.2934 -0.7581
  143OSM   H17S15632   0.343   5.588   4.657 -0.1218  1.0475  2.8617
  143OSM   H17T15633   0.165   5.541   4.657 -1.7304  1.5163  0.7582
  143OSM   C18S15634   0.217   5.732   4.740 -0.2531 -0.4946 -0.2689
  143OSM   H18S15635   0.304   5.801   4.740  2.1642 -3.3106  0.6126
  143OSM   H18T15636   0.225   5.689   4.843  1.9805 -1.4087 -0.7772
  143OSM   H18U15637   0.121   5.788   4.732 -0.6756 -1.2952 -1.0042
  143OSM    C1F15638   0.322   5.955   2.964 -0.6427 -0.4571 -0.0379
  143OSM     OF15639   0.407   6.013   2.897 -0.0424 -0.1893  0.5702
  143OSM    C2F15640   0.299   5.806   2.961 -0.2602  0.4847 -0.0379
  143OSM    H2F15641   0.336   5.773   2.862 -1.4954  0.0738 -0.3851
  143OSM    H2G15642   0.193   5.774   2.971 -0.2868 -0.0499 -1.7968
  143OSM    C3F15643   0.396   5.739   3.070 -0.0363  0.3157  0.8475
  143OSM    H3F15644   0.496   5.766   3.031  0.4701 -3.1214 -0.5858
  143OSM    H3G15645   0.380   5.630   3.059 -1.5968  0.6246 -0.2832
  143OSM    C4F15646   0.366   5.778   3.218 -0.7374  0.0710 -0.3309
  143OSM    H4F15647   0.347   5.887   3.225 -0.1930  0.4360 -3.2903
  143OSM    H4G15648   0.458   5.750   3.273 -1.1104 -0.0987  0.2121
  143OSM    C5F15649   0.253   5.699   3.275  0.2548 -0.2668 -0.8185
  143OSM    H5F15650   0.244   5.599   3.228 -1.5003  0.5650 -2.3476
  143OSM    H5G15651   0.156   5.750   3.258 -1.2122 -2.7224 -0.3678
  143OSM    C6F15652   0.250   5.668   3.429  0.4316  0.3791  0.3262
  143OSM    H6F15653   0.234   5.766   3.478  1.4070  1.3145 -1.1521
  143OSM    H6G15654   0.353   5.643   3.463  0.5919  1.5875  0.7787
  143OSM    C7F15655   0.152   5.563   3.463 -0.0206 -0.3433 -0.9135
  143OSM    H7F15656   0.181   5.468   3.413 -2.2589 -2.5844  1.6691
  143OSM    H7G15657   0.045   5.573   3.434 -0.4496 -2.0690 -0.0741
  143OSM    C8F15658   0.157   5.518   3.615 -0.3628 -0.0147  0.2998
  143OSM    H8F15659   0.256   5.483   3.651 -0.0549  1.9284  1.5359
  143OSM    H8G15660   0.088   5.431   3.618  0.2538 -0.5315 -0.3094
  143OSM    C9F15661   0.106   5.619   3.712 -0.1034 -0.5613  0.1304
  143OSM    H9F15662   0.034   5.690   3.668 -0.2894 -0.1079  1.1456
  143OSM   C10F15663   0.141   5.648   3.834  0.0141 -0.5854 -0.1483
  143OSM   H10F15664   0.088   5.729   3.887  1.7501  0.6557 -0.1922
  143OSM   C11F15665   0.236   5.580   3.924 -0.3562 -0.7290  0.6403
  143OSM   H11F15666   0.314   5.643   3.973  3.7146 -1.6911 -3.8379
  143OSM   H11G15667   0.307   5.517   3.866  0.9343 -2.8440  4.1935
  143OSM   C12F15668   0.153   5.488   4.020 -0.3836 -0.2705  0.1694
  143OSM   H12F15669   0.102   5.403   3.970  1.6024 -1.9710  0.9162
  143OSM   H12G15670   0.089   5.550   4.085  0.1863 -1.8429  2.3325
  143OSM   C13F15671   0.240   5.420   4.123 -0.1421 -0.0645  0.0331
  143OSM   H13F15672   0.192   5.409   4.223  0.0620  0.3244  0.1742
  143OSM   H13G15673   0.332   5.483   4.121 -0.7138  0.7689 -0.8546
  143OSM   C14F15674   0.288   5.286   4.064  0.3450 -0.4904 -0.4896
  143OSM   H14F15675   0.303   5.283   3.954 -1.4517  0.2165 -0.7867
  143OSM   H14G15676   0.205   5.212   4.071 -1.1309  1.1377 -0.2318
  143OSM   C15F15677   0.423   5.242   4.123  0.3774 -0.1851 -0.6827
  143OSM   H15F15678   0.507   5.306   4.087  0.2669  1.1650  1.3037
  143OSM   H15G15679   0.453   5.141   4.087 -0.1517 -0.4245 -0.4516
  143OSM   C16F15680   0.434   5.241   4.281  0.1756  0.2896  0.8301
  143OSM   H16F15681   0.358   5.171   4.322 -0.0252 -0.1652 -0.2616
  143OSM   H16G15682   0.414   5.344   4.316 -1.0591 -0.3326  2.0369
  143OSM   C17F15683   0.572   5.195   4.331  0.0087 -0.1606  0.0294
  143OSM   H17F15684   0.651   5.256   4.281  1.2418 -0.1300  1.9217
  143OSM   H17G15685   0.571   5.090   4.293 -0.1257 -0.2422  0.2527
  143OSM   C18F15686   0.585   5.200   4.480 -1.0432  0.2506 -0.3316
  143OSM   H18F15687   0.590   5.307   4.510  1.3349  0.1384 -0.1379
  143OSM   H18G15688   0.681   5.159   4.518  0.2859  2.0293 -1.6072
  143OSM   H18H15689   0.496   5.154   4.528 -0.3941  0.3259  0.9785
  144OSM      N15690   0.585   4.312   2.493  0.1778 -0.2282  0.0802
  144OSM    C1515691   0.570   4.216   2.383 -1.1196 -0.1479  0.2099
  144OSM   H15A15692   0.627   4.248   2.298 -2.5140  0.1703 -0.6273
  144OSM   H15B15693   0.468   4.205   2.348 -0.9961  2.3999 -1.1815
  144OSM   H15C15694   0.606   4.118   2.410 -2.2350 -1.0185 -1.3537
  144OSM    C1415695   0.728   4.313   2.530  0.1514  0.1290  0.1310
  144OSM   H14A15696   0.751   4.208   2.539 -1.7664 -0.2720  0.7415
  144OSM   H14B15697   0.729   4.367   2.623  0.2967 -0.5630  0.5381
  144OSM   H14C15698   0.797   4.358   2.460  2.4834 -0.7352  1.7688
  144OSM    C1315699   0.557   4.450   2.439  1.1281 -0.5218  0.1096
  144OSM   H13A15700   0.471   4.450   2.374  0.0484 -0.2121  1.4932
  144OSM   H13B15701   0.633   4.509   2.390  0.8869 -0.8743 -0.7129
  144OSM   H13C15702   0.534   4.517   2.520  0.0189 -0.1361 -0.4988
  144OSM    C1215703   0.495   4.270   2.612 -0.0183 -0.0593 -0.7018
  144OSM   H12A15704   0.527   4.172   2.645  1.6826  0.3358 -1.1051
  144OSM   H12B15705   0.392   4.251   2.587  0.4197 -3.8540 -0.2763
  144OSM    C1115706   0.486   4.362   2.731 -0.3979 -0.0431 -0.6062
  144OSM   H11A15707   0.582   4.387   2.781 -0.5374  0.0567 -0.3842
  144OSM   H11B15708   0.433   4.302   2.808 -0.5804 -1.2157 -1.6178
  144OSM      P15709   0.267   4.482   2.676  0.1149 -0.1656  0.1074
  144OSM    O1315710   0.231   4.620   2.647  0.6082 -0.0719  0.3244
  144OSM    O1415711   0.219   4.389   2.572  0.0435  0.2493 -0.4862
  144OSM    O1115712   0.204   4.439   2.814  0.8818 -0.2545 -0.2045
  144OSM    O1215713   0.423   4.482   2.698 -0.0099 -0.1822  0.2097
  144OSM    C1S15714   0.263   4.440   2.945 -0.0941  1.3081 -0.3872
  144OSM    H1S15715   0.357   4.500   2.952  0.0785  0.9154  0.8367
  144OSM    H1T15716   0.289   4.336   2.973  2.8316  1.0559 -3.3827
  144OSM     NF15717   0.239   4.499   3.179  0.0783 -0.4535 -0.0023
  144OSM    HNF15718   0.229   4.421   3.241  2.4205 -0.2130  0.7425
  144OSM    C2S15719   0.162   4.501   3.055 -0.2112 -0.0049  0.3670
  144OSM    H2S15720   0.153   4.604   3.014 -2.0883  0.3142  1.4392
  144OSM    C3S15721   0.023   4.441   3.054 -0.0619 -0.4111  0.0891
  144OSM    H3S15722   0.028   4.334   3.083 -0.3551  0.2809  2.9952
  144OSM     O315723  -0.037   4.464   2.921 -0.1465 -0.6331 -0.6908
  144OSM    HO315724   0.035   4.477   2.859 -2.2710  0.5633 -3.0854
  144OSM    C4S15725  -0.050   4.516   3.168  0.1023 -0.0768 -0.7110
  144OSM    H4S15726  -0.069   4.624   3.159  1.1159  0.1237 -0.5565
  144OSM    C5S15727  -0.091   4.457   3.283  0.0957  0.3270 -0.7719
  144OSM    H5S15728  -0.086   4.348   3.297 -1.3206  0.2487 -0.6639
  144OSM    C6S15729  -0.174   4.522   3.393  0.4573  0.9169 -0.1607
  144OSM    H6S15730  -0.254   4.449   3.420  0.4630  0.3739 -1.5135
  144OSM    H6T15731  -0.222   4.617   3.364 -0.9198  0.6333  1.0687
  144OSM    C7S15732  -0.101   4.548   3.524 -0.6146  0.5688  0.2417
  144OSM    H7S15733  -0.029   4.630   3.501  1.9865 -1.1867  1.6121
  144OSM    H7T15734  -0.048   4.456   3.556  2.3613  1.0156 -2.8537
  144OSM    C8S15735  -0.197   4.615   3.621 -0.1451 -0.4255 -0.4835
  144OSM    H8S15736  -0.269   4.545   3.668  1.4983 -2.3276 -0.6560
  144OSM    H8T15737  -0.262   4.691   3.573 -0.3504 -0.6057 -0.4900
  144OSM    C9S15738  -0.122   4.689   3.736 -0.4338  0.3600 -0.1467
  144OSM    H9S15739  -0.199   4.742   3.795 -1.0490  0.3368 -0.9139
  144OSM    H9T15740  -0.048   4.765   3.701 -1.6234  2.3890  1.5571
  144OSM   C10S15741  -0.038   4.583   3.821  0.1823 -1.0093  0.8096
  144OSM   H10S15742   0.043   4.639   3.873 -0.1221  1.2189 -0.9208
  144OSM   H10T15743   0.008   4.508   3.753  0.1073  0.4892 -1.0132
  144OSM   C11S15744  -0.129   4.530   3.929 -0.1833  0.2057 -0.3140
  144OSM   H11S15745  -0.216   4.484   3.877  1.7127 -0.2160 -3.3568
  144OSM   H11T15746  -0.171   4.614   3.989 -1.1617 -0.1566 -0.4601
  144OSM   C12S15747  -0.052   4.444   4.027  0.1174 -0.0902  0.2564
  144OSM   H12S15748   0.035   4.498   4.069 -0.6775  2.6288 -1.3639
  144OSM   H12T15749  -0.004   4.356   3.979 -0.0424  0.7195 -1.4900
  144OSM   C13S15750  -0.137   4.390   4.144  0.0018  0.5934 -0.0726
  144OSM   H13S15751  -0.229   4.338   4.108 -0.4104  0.2744  1.3778
  144OSM   H13T15752  -0.177   4.476   4.202  1.0977  1.7950 -1.0462
  144OSM   C14S15753  -0.059   4.293   4.229  0.2255  0.1262 -0.4256
  144OSM   H14S15754   0.049   4.313   4.241  0.4531 -1.3642  0.2619
  144OSM   H14T15755  -0.069   4.189   4.190  0.1213 -1.3801  3.1529
  144OSM   C15S15756  -0.121   4.282   4.370  0.0599 -0.3303 -0.0722
  144OSM   H15S15757  -0.224   4.240   4.369 -0.6491  1.2528  1.2221
  144OSM   H15T15758  -0.126   4.387   4.408 -1.8906 -0.4650  0.1821
  144OSM   C16S15759  -0.026   4.217   4.473 -0.3929  0.9033  1.1425
  144OSM   H16S15760  -0.090   4.185   4.558 -1.4905 -1.0860 -0.3565
  144OSM   H16T15761   0.050   4.287   4.513  0.3494  1.6677 -1.4160
  144OSM   C17S15762   0.058   4.089   4.427 -0.2524 -0.0203  0.7381
  144OSM   H17S15763   0.125   4.116   4.342 -0.5619  2.0639  1.0874
  144OSM   H17T15764  -0.006   4.008   4.388  0.0454  0.4339 -0.7657
  144OSM   C18S15765   0.151   4.028   4.535  0.9803  0.0029 -0.0839
  144OSM   H18S15766   0.187   3.928   4.504  0.7058 -1.6647  4.2676
  144OSM   H18T15767   0.076   4.010   4.615  2.4548  1.4857  1.7251
  144OSM   H18U15768   0.234   4.094   4.570  0.7927  0.8046 -1.1316
  144OSM    C1F15769   0.338   4.578   3.209  0.2698  0.1268 -0.6021
  144OSM     OF15770   0.354   4.682   3.148 -0.4233  0.2025  0.1652
  144OSM    C2F15771   0.433   4.548   3.323 -0.2928  0.3581  0.2753
  144OSM    H2F15772   0.518   4.617   3.308 -1.2248  0.8213 -4.1579
  144OSM    H2G15773   0.472   4.444   3.319  2.3091  1.2538  0.7732
  144OSM    C3F15774   0.365   4.580   3.462 -0.4643  0.1869  0.6498
  144OSM    H3F15775   0.264   4.533   3.465 -0.0041 -1.1367 -1.4856
  144OSM    H3G15776   0.353   4.688   3.483 -1.0510  0.1917  0.3203
  144OSM    C4F15777   0.435   4.515   3.586  0.0817  0.0538  1.1827
  144OSM    H4F15778   0.533   4.562   3.609  0.6901 -1.4066  1.7603
  144OSM    H4G15779   0.457   4.407   3.569 -0.9369 -0.3125  2.1146
  144OSM    C5F15780   0.359   4.528   3.723 -0.4783  0.1527  0.3686
  144OSM    H5F15781   0.266   4.471   3.699  1.1618 -1.3241 -3.2035
  144OSM    H5G15782   0.330   4.633   3.746 -1.0317  0.0989 -0.0506
  144OSM    C6F15783   0.432   4.464   3.838  0.2531 -0.3805 -0.0022
  144OSM    H6F15784   0.529   4.516   3.847  1.3888 -2.4948  0.6911
  144OSM    H6G15785   0.454   4.355   3.829  0.0954 -0.4603  0.5303
  144OSM    C7F15786   0.356   4.489   3.966  0.6327  0.6084  0.3610
  144OSM    H7F15787   0.251   4.455   3.958  1.3205 -1.2444 -2.1467
  144OSM    H7G15788   0.351   4.599   3.982 -5.2722  0.8830 -1.2297
  144OSM    C8F15789   0.427   4.406   4.075  0.0506  0.6735 -0.5714
  144OSM    H8F15790   0.535   4.433   4.073  0.2163  0.3235  1.6373
  144OSM    H8G15791   0.428   4.297   4.055  0.9142  0.4142  0.7332
  144OSM    C9F15792   0.366   4.438   4.210  0.4772 -0.3349  0.0759
  144OSM    H9F15793   0.295   4.522   4.217  0.5603 -0.2388 -0.2573
  144OSM   C10F15794   0.384   4.368   4.321  0.1842 -1.0384  1.1316
  144OSM   H10F15795   0.334   4.405   4.412 -0.2115 -2.4592  1.5155
  144OSM   C11F15796   0.468   4.249   4.329 -0.2806 -0.2893  0.0690
  144OSM   H11F15797   0.460   4.185   4.239  0.7010 -0.4313  0.0763
  144OSM   H11G15798   0.440   4.185   4.416  1.0337 -3.2250 -1.5263
  144OSM   C12F15799   0.612   4.283   4.364 -0.1032 -0.4942 -0.1401
  144OSM   H12F15800   0.655   4.353   4.288 -1.8839 -0.3933 -1.0996
  144OSM   H12G15801   0.676   4.192   4.368  0.7498  0.1038  3.4988
  144OSM   C13F15802   0.629   4.337   4.507  0.3573 -0.2719  0.1662
  144OSM   H13F15803   0.587   4.265   4.581  2.1379 -2.5624 -0.9470
  144OSM   H13G15804   0.583   4.438   4.517  1.3301  0.1950  0.0280
  144OSM   C14F15805   0.783   4.343   4.543  0.0983 -0.0214 -0.1554
  144OSM   H14F15806   0.816   4.429   4.481  0.0249  0.5329  0.5603
  144OSM   H14G15807   0.836   4.255   4.501 -0.9415 -1.9981  2.4040
  144OSM   C15F15808   0.823   4.370   4.691 -0.1601  0.3835 -0.0936
  144OSM   H15F15809   0.800   4.477   4.709 -0.6936  0.9823 -3.6147
  144OSM   H15G15810   0.932   4.352   4.700 -0.2629  0.2235  0.9586
  144OSM   C16F15811   0.767   4.291   4.805  0.5032  0.5856  0.1334
  144OSM   H16F15812   0.787   4.182   4.797 -0.6857  0.0030  3.4914
  144OSM   H16G15813   0.656   4.295   4.814  0.4270  0.0924 -0.4868
  144OSM   C17F15814   0.825   4.340   4.940 -0.3078  0.2271  0.4989
  144OSM   H17F15815   0.784   4.441   4.960 -0.7269 -0.4736  3.7263
  144OSM   H17G15816   0.935   4.333   4.925 -0.7118  0.0528 -3.2795
  144OSM   C18F15817   0.796   4.253   5.054  0.3570 -0.3524 -0.0554
  144OSM   H18F15818   0.853   4.158   5.047  0.8653 -0.0041 -0.7693
  144OSM   H18G15819   0.688   4.228   5.060  0.2764  0.0526  0.2130
  144OSM   H18H15820   0.811   4.306   5.151 -1.5476  0.0468  0.0583
  145SAPE     N15821   2.453   5.144   7.736 -0.3957  0.4170  0.3502
  145SAPE   HN115822   2.497   5.205   7.807 -0.9097 -0.3474  1.3440
  145SAPE   HN215823   2.517   5.063   7.728 -0.9143 -0.1368  1.5321
  145SAPE   HN315824   2.458   5.194   7.644  1.5066 -1.5329 -0.6835
  145SAPE   C1215825   2.314   5.096   7.780 -0.4075 -0.3203 -0.3473
  145SAPE  H12A15826   2.248   5.180   7.809 -2.8998 -2.4929  0.6321
  145SAPE  H12B15827   2.330   5.037   7.872 -0.5753  1.0880  0.6187
  145SAPE   C1115828   2.252   5.008   7.670  0.8430 -0.7727 -0.3304
  145SAPE  H11A15829   2.267   5.063   7.574 -1.5609  3.3514  1.3498
  145SAPE  H11B15830   2.141   5.015   7.678  0.8974  0.7002 -0.4986
  145SAPE     P15831   2.214   4.754   7.609  0.5740  0.2989 -0.2032
  145SAPE   O1315832   2.313   4.640   7.600  0.4360  0.2588  0.3308
  145SAPE   O1415833   2.093   4.730   7.694 -0.1115  0.3791 -0.4337
  145SAPE   O1215834   2.298   4.879   7.672  0.2828 -0.1134 -0.1167
  145SAPE   O1115835   2.178   4.798   7.461  0.0299  0.1086 -0.3340
  145SAPE    C115836   2.039   4.813   7.429 -0.1251 -0.1467  0.1815
  145SAPE    HA15837   2.001   4.709   7.430  0.1711 -0.2513  1.0423
  145SAPE    HB15838   1.988   4.870   7.509 -1.3753 -1.7208  0.5532
  145SAPE    C215839   2.022   4.876   7.294  0.2466  0.0229  0.5030
  145SAPE    HS15840   1.916   4.896   7.268  1.1123  3.1266 -1.2486
  145SAPE   O2115841   2.086   4.787   7.205  0.3181 -0.2801  0.1831
  145SAPE   C2115842   2.010   4.679   7.185 -0.1542 -0.2439 -0.6189
  145SAPE   O2215843   1.894   4.664   7.219 -0.3663  0.7012 -0.0956
  145SAPE   C2215844   2.108   4.583   7.135  0.0290  1.3710  0.0946
  145SAPE   H2R15845   2.161   4.612   7.042 -0.2291 -2.0893 -1.2561
  145SAPE   H2S15846   2.182   4.558   7.214 -1.4837 -0.4452  1.0190
  145SAPE    C315847   2.088   5.018   7.288  0.0942  0.4334 -0.2793
  145SAPE    HX15848   2.189   5.027   7.333 -0.3510  0.1855  0.8102
  145SAPE    HY15849   2.032   5.072   7.367  1.8383  1.5654  0.2226
  145SAPE   O3115850   2.078   5.077   7.153  0.1384 -0.4762 -0.0753
  145SAPE   C3115851   2.064   5.209   7.158  0.1641  0.7354  0.4093
  145SAPE   O3215852   2.075   5.278   7.260 -0.4385  0.3095  0.2241
  145SAPE   C3215853   2.065   5.254   7.017 -0.3585  0.2729  0.4821
  145SAPE   H2X15854   1.996   5.342   7.016  1.3795  1.7047  0.9509
  145SAPE   H2Y15855   2.016   5.187   6.943  2.2062 -2.8084  1.3705
  145SAPE   C2315856   2.034   4.448   7.095 -0.6713  0.5820  0.2713
  145SAPE   H3R15857   1.957   4.477   7.020 -0.0698  2.0882  0.1976
  145SAPE   H3S15858   1.988   4.386   7.175  0.1292 -0.6513 -0.1892
  145SAPE   C2415859   2.127   4.353   7.019  0.3794 -0.4849  0.3075
  145SAPE   H4R15860   2.210   4.320   7.085  0.2179 -1.0533  0.2293
  145SAPE   H4S15861   2.186   4.407   6.943  0.5216 -0.4672  0.4295
  145SAPE   C2515862   2.053   4.245   6.948  0.1352 -0.1759 -0.7653
  145SAPE   H5R15863   2.074   4.148   6.996  0.1458  0.0281 -0.3500
  145SAPE   C2615864   1.995   4.249   6.831  0.1788  0.3870  0.2545
  145SAPE   H6R15865   1.945   4.158   6.794  0.8407 -0.7898  2.0953
  145SAPE   C2715866   1.984   4.381   6.749 -0.3672  0.1690 -0.0108
  145SAPE   H7R15867   2.052   4.464   6.776 -0.3449  0.2121 -0.2005
  145SAPE   H7S15868   1.881   4.423   6.755 -0.1051  0.9856 -0.9442
  145SAPE   C2815869   2.002   4.350   6.602  0.9103  0.1036  0.0496
  145SAPE   H8R15870   2.105   4.369   6.567  0.9607  0.6313  0.4674
  145SAPE   C2915871   1.913   4.292   6.516 -0.0853 -0.2675 -0.4482
  145SAPE   H9R15872   1.949   4.282   6.413  1.4118 -0.1398  0.0355
  145SAPE  C21015873   1.770   4.261   6.544  0.6318 -0.3668  0.4804
  145SAPE  H10R15874   1.711   4.349   6.513 -2.1769 -2.1504  0.3526
  145SAPE  H10S15875   1.751   4.259   6.654  1.8584  0.9300  0.7369
  145SAPE  C21115876   1.706   4.148   6.476 -0.4639  0.0553 -0.3644
  145SAPE  H11R15877   1.691   4.065   6.546  1.3132  0.2623  0.3146
  145SAPE  C21215878   1.675   4.135   6.348  0.5597 -0.7210  0.3584
  145SAPE  H12R15879   1.649   4.032   6.321  1.0798 -1.0857  1.1828
  145SAPE  C21315880   1.685   4.248   6.245  0.5992  0.1206 -0.1170
  145SAPE  H13R15881   1.765   4.323   6.260 -0.8995  1.7597 -0.0335
  145SAPE  H13S15882   1.585   4.294   6.236  0.5811  0.6787  2.2109
  145SAPE  C21415883   1.713   4.178   6.118 -0.2573 -0.2079  0.2374
  145SAPE  H14R15884   1.723   4.068   6.121 -1.7302 -0.3557  0.6705
  145SAPE  C21515885   1.729   4.234   5.997  0.1090 -0.1170  0.2514
  145SAPE  H15R15886   1.754   4.169   5.912  2.6342  1.5976 -0.4322
  145SAPE  C21615887   1.714   4.379   5.959 -0.5135 -0.0297  0.6093
  145SAPE  H16R15888   1.814   4.397   5.913 -0.0606  0.3112  1.6991
  145SAPE  H16S15889   1.702   4.446   6.046 -1.0423 -0.8558  1.1863
  145SAPE  C21715890   1.618   4.411   5.843  0.7091 -0.4461  0.0970
  145SAPE  H17R15891   1.609   4.520   5.822  1.4163 -0.4798 -0.4323
  145SAPE  H17S15892   1.519   4.363   5.852  0.9578 -1.2592 -1.2367
  145SAPE  C21815893   1.676   4.370   5.708 -0.2656 -0.0041 -0.7129
  145SAPE  H18R15894   1.689   4.260   5.721 -0.2532 -0.0024 -0.7119
  145SAPE  H18S15895   1.777   4.416   5.698 -0.1336  0.3037  1.3876
  145SAPE  C21915896   1.582   4.397   5.586 -0.2536  0.0587  0.0349
  145SAPE  H19R15897   1.575   4.505   5.563  0.6940  1.1073  3.8327
  145SAPE  H19S15898   1.478   4.368   5.615 -0.4364 -0.2217 -0.8768
  145SAPE  C22015899   1.635   4.325   5.463  0.1856 -0.2735 -0.3286
  145SAPE  H20R15900   1.586   4.369   5.374  0.0265 -1.4115 -0.8239
  145SAPE  H20S15901   1.598   4.220   5.470 -0.2578 -0.0254  1.4901
  145SAPE  H20T15902   1.745   4.339   5.455 -0.0160  1.1075 -0.9439
  145SAPE   C3315903   2.206   5.286   6.963 -0.3749 -0.7725 -0.3433
  145SAPE   H3X15904   2.278   5.203   6.979  0.8940  0.3668  0.1598
  145SAPE   H3Y15905   2.252   5.361   7.031  0.7967 -1.9638  0.2231
  145SAPE   C3415906   2.220   5.342   6.820 -0.1285 -0.6913 -0.7806
  145SAPE   H4X15907   2.321   5.389   6.813 -0.4640  0.2235  0.2451
  145SAPE   H4Y15908   2.146   5.423   6.802 -1.2748 -0.9772  2.1727
  145SAPE   C3515909   2.213   5.223   6.724 -0.6565  0.2661 -0.1068
  145SAPE   H5X15910   2.115   5.170   6.724  0.8999 -3.0246 -2.9999
  145SAPE   H5Y15911   2.286   5.152   6.768 -0.0105  1.0772  0.1442
  145SAPE   C3615912   2.253   5.266   6.584 -0.5829  0.2608  0.2152
  145SAPE   H6X15913   2.361   5.289   6.572 -0.5820 -0.3905 -1.2814
  145SAPE   H6Y15914   2.187   5.349   6.553  0.3193  0.4081 -1.4603
  145SAPE   C3715915   2.227   5.161   6.472 -0.0421  0.0524  0.2548
  145SAPE   H7X15916   2.128   5.115   6.489  1.0297 -2.9316 -0.9145
  145SAPE   H7Y15917   2.300   5.078   6.487 -0.4311 -0.4837 -0.7319
  145SAPE   C3815918   2.242   5.213   6.324  0.4035  0.0323  0.1608
  145SAPE   H8X15919   2.346   5.251   6.310  0.2618  0.4348  0.1793
  145SAPE   H8Y15920   2.178   5.302   6.309 -0.2593 -0.4751 -0.0350
  145SAPE   C3915921   2.197   5.120   6.214  0.2354  0.0629 -0.5624
  145SAPE   H9X15922   2.092   5.087   6.230  0.6842 -2.0478 -1.6222
  145SAPE   H9Y15923   2.261   5.030   6.224 -1.5238 -1.1180  0.5024
  145SAPE  C31015924   2.224   5.185   6.082  0.2809  0.0141  0.0512
  145SAPE  H10X15925   2.333   5.171   6.067  0.5884  1.3195  0.8952
  145SAPE  H10Y15926   2.201   5.294   6.092  0.4363  0.1678 -1.1280
  145SAPE  C31115927   2.151   5.115   5.963  0.6166  0.5184 -0.2055
  145SAPE  H11X15928   2.044   5.128   5.991  1.0884 -2.3824  3.8839
  145SAPE  H11Y15929   2.179   5.007   5.965 -2.4895 -0.3882 -0.9166
  145SAPE  C31215930   2.188   5.182   5.826 -0.0914  0.3625 -0.8904
  145SAPE  H12X15931   2.295   5.160   5.809 -0.1420 -0.2225 -0.4724
  145SAPE  H12Y15932   2.175   5.291   5.844 -1.3610  0.0924  0.0180
  145SAPE  C31315933   2.107   5.112   5.713  0.0595 -0.6093  0.3178
  145SAPE  H13X15934   1.999   5.113   5.738  0.0724 -0.8125  0.3885
  145SAPE  H13Y15935   2.131   5.004   5.721 -2.0267 -1.1168  0.2038
  145SAPE  C31415936   2.135   5.159   5.573 -0.2365 -0.8024 -0.4022
  145SAPE  H14X15937   2.245   5.150   5.560  0.1795  1.2627  1.2367
  145SAPE  H14Y15938   2.111   5.267   5.568 -0.1688 -0.8401 -2.0614
  145SAPE  C31515939   2.060   5.079   5.472  0.2530  0.1743 -0.1076
  145SAPE  H15X15940   1.956   5.047   5.495 -0.8029  1.6769 -2.4321
  145SAPE  H15Y15941   2.101   4.977   5.454 -2.1073 -0.8276 -0.2383
  145SAPE  C31615942   2.054   5.147   5.336 -0.2875  0.1394 -0.2203
  145SAPE  H16X15943   1.998   5.085   5.262 -1.9063 -3.3968  3.5979
  145SAPE  H16Y15944   2.154   5.169   5.291  0.1936 -0.0448  0.7403
  145SAPE  C31715945   1.975   5.283   5.337  0.6234 -0.3478 -0.4328
  145SAPE  H17X15946   1.969   5.321   5.233  1.0236  3.3958  0.7668
  145SAPE  H17Y15947   2.033   5.357   5.397 -0.4415  2.0304 -2.1755
  145SAPE  C31815948   1.832   5.265   5.396  0.0190  0.0965  0.3888
  145SAPE  H18X15949   1.782   5.197   5.324  1.1050 -1.3199  0.9244
  145SAPE  H18Y15950   1.784   5.366   5.402 -1.1280 -0.0963 -3.1410
  145SAPE  H18Z15951   1.830   5.212   5.493 -3.4385 -0.8976 -0.1130
  146SAPE     N15952   5.246   0.635   7.059 -0.0599 -0.2083  0.0275
  146SAPE   HN115953   5.299   0.550   7.029  0.5771  0.7423 -1.6421
  146SAPE   HN215954   5.173   0.618   7.131 -0.1895  2.8465  0.7407
  146SAPE   HN315955   5.191   0.662   6.975  0.8246 -1.7081 -1.0974
  146SAPE   C1215956   5.358   0.732   7.108 -0.0664 -0.3237  0.1750
  146SAPE  H12A15957   5.325   0.774   7.206 -1.2816  1.5647 -0.9694
  146SAPE  H12B15958   5.374   0.820   7.041 -0.7978 -0.2882  0.0373
  146SAPE   C1115959   5.494   0.661   7.133 -0.1736 -1.4540  0.6950
  146SAPE  H11A15960   5.553   0.735   7.191 -1.6515  0.4096 -0.0830
  146SAPE  H11B15961   5.541   0.647   7.033  0.4757 -3.0080  1.1815
  146SAPE     P15962   5.552   0.412   7.142 -0.2015  0.0495  0.1136
  146SAPE   O1315963   5.697   0.442   7.125 -0.1684 -0.2192  0.8712
  146SAPE   O1415964   5.518   0.298   7.229 -0.0615 -0.2661 -0.3518
  146SAPE   O1215965   5.483   0.542   7.205  0.1987  0.1903  0.3756
  146SAPE   O1115966   5.481   0.384   7.001 -0.2635 -1.0310  0.1778
  146SAPE    C115967   5.349   0.324   7.002 -0.2481 -0.9837  0.6961
  146SAPE    HA15968   5.348   0.227   7.057  0.4110 -0.8488  0.9511
  146SAPE    HB15969   5.279   0.397   7.048  0.6530 -0.2522  0.9274
  146SAPE    C215970   5.288   0.305   6.859 -0.3841 -0.6616 -0.3769
  146SAPE    HS15971   5.371   0.263   6.798  0.1892  2.5272 -2.0621
  146SAPE   O2115972   5.266   0.445   6.811 -0.0917 -0.1857 -0.3300
  146SAPE   C2115973   5.261   0.455   6.678 -0.0798  0.1924 -0.1196
  146SAPE   O2215974   5.301   0.367   6.603 -0.2992 -0.1426 -0.4440
  146SAPE   C2215975   5.190   0.584   6.630  0.6940  0.5987 -0.6617
  146SAPE   H2R15976   5.113   0.542   6.562  0.6446 -2.7761  1.2724
  146SAPE   H2S15977   5.128   0.626   6.712 -0.7900 -2.4556 -0.0656
  146SAPE    C315978   5.159   0.232   6.850 -0.0132 -0.2780  0.0203
  146SAPE    HX15979   5.081   0.292   6.901 -2.8864 -0.7648 -3.4280
  146SAPE    HY15980   5.164   0.145   6.919  0.3760 -2.1787 -2.2401
  146SAPE   O3115981   5.118   0.196   6.714 -0.3058 -0.5300 -0.0280
  146SAPE   C3115982   5.181   0.085   6.671 -0.1775 -0.5244 -0.9955
  146SAPE   O3215983   5.248   0.011   6.739  0.1440 -0.0043 -0.1166
  146SAPE   C3215984   5.152   0.068   6.524 -0.8164  0.6040 -0.5855
  146SAPE   H2X15985   5.236   0.093   6.456  1.6048 -0.2374  1.9034
  146SAPE   H2Y15986   5.065   0.131   6.497 -0.7509  1.2962  0.7294
  146SAPE   C2315987   5.286   0.686   6.571  0.0630  0.2153  0.1700
  146SAPE   H3R15988   5.372   0.709   6.637  1.5410 -0.3857 -1.4844
  146SAPE   H3S15989   5.226   0.778   6.555  1.4932  0.7590 -2.7357
  146SAPE   C2415990   5.348   0.653   6.438  0.0367 -0.0311  0.3777
  146SAPE   H4R15991   5.417   0.569   6.463  0.8531  0.3361 -0.5460
  146SAPE   H4S15992   5.407   0.737   6.394  2.4136 -2.4891 -1.5500
  146SAPE   C2515993   5.239   0.604   6.344 -0.2829  0.2726 -0.0083
  146SAPE   H5R15994   5.157   0.677   6.350 -1.2660 -0.8975  3.4092
  146SAPE   C2615995   5.226   0.487   6.274 -0.2281  0.4780  0.1037
  146SAPE   H6R15996   5.136   0.481   6.211 -0.6391 -2.2805  0.8238
  146SAPE   C2715997   5.320   0.367   6.273 -0.7977  0.1114  0.1288
  146SAPE   H7R15998   5.274   0.270   6.245 -0.7445 -0.0017  0.4287
  146SAPE   H7S15999   5.349   0.355   6.380 -1.4427 -1.0261  0.1911
  146SAPE   C2816000   5.446   0.385   6.186  0.5250 -0.5098  0.0484
  146SAPE   H8R16001   5.533   0.430   6.236  1.5319  1.5865 -3.2443
  146SAPE   C2916002   5.457   0.355   6.054 -0.1714  0.4071 -0.7445
  146SAPE   H9R16003   5.541   0.385   5.991  1.3046 -0.9223  0.5054
  146SAPE  C21016004   5.351   0.282   5.982 -0.0424  0.1653  0.2845
  146SAPE  H10R16005   5.317   0.366   5.918 -1.2799 -0.0133  0.6873
  146SAPE  H10S16006   5.257   0.262   6.038 -0.5935  1.5610 -0.0948
  146SAPE  C21116007   5.409   0.167   5.904  0.0639  0.4715 -1.6341
  146SAPE  H11R16008   5.461   0.090   5.962 -3.1700 -1.8837 -1.5740
  146SAPE  C21216009   5.392   0.133   5.780 -0.6403 -0.4894  0.4528
  146SAPE  H12R16010   5.418   0.032   5.745 -0.4959 -0.9216  1.7339
  146SAPE  C21316011   5.307   0.212   5.680  0.0522 -0.1882 -0.0420
  146SAPE  H13R16012   5.370   0.257   5.601 -0.8052  0.1011 -0.5721
  146SAPE  H13S16013   5.251   0.297   5.724  2.4689  2.9520 -2.5236
  146SAPE  C21416014   5.192   0.132   5.616 -1.2238  0.0301  0.1015
  146SAPE  H14R16015   5.127   0.084   5.690  0.4251 -0.1056  1.5488
  146SAPE  C21516016   5.181   0.104   5.484 -0.6600 -0.3513 -0.2781
  146SAPE  H15R16017   5.097   0.042   5.448 -1.5108  1.7035 -2.0571
  146SAPE  C21616018   5.265   0.144   5.365 -0.1675  0.0858  0.0964
  146SAPE  H16R16019   5.362   0.189   5.394  1.3140 -0.8173 -3.0626
  146SAPE  H16S16020   5.208   0.225   5.314  0.3051 -0.4887 -1.3804
  146SAPE  C21716021   5.303   0.031   5.271 -0.0078 -0.2025 -0.2744
  146SAPE  H17R16022   5.218  -0.033   5.239  0.8742 -1.4934 -0.1162
  146SAPE  H17S16023   5.374  -0.045   5.310  0.9759  0.5023 -0.6538
  146SAPE  C21816024   5.357   0.077   5.128 -1.1112  0.4280 -0.2989
  146SAPE  H18R16025   5.431   0.158   5.148  0.1753 -0.6801 -0.4931
  146SAPE  H18S16026   5.282   0.137   5.071 -0.8636  0.1098 -0.9590
  146SAPE  C21916027   5.397  -0.037   5.034 -0.1784 -0.0473  0.8925
  146SAPE  H19R16028   5.361  -0.017   4.930 -0.9565 -1.9807  0.7412
  146SAPE  H19S16029   5.345  -0.128   5.071  0.6844 -1.3497 -0.9386
  146SAPE  C22016030   5.548  -0.039   5.031 -0.7307  0.0324 -0.3213
  146SAPE  H20R16031   5.588  -0.023   5.134 -2.0329 -0.1709  0.2393
  146SAPE  H20S16032   5.590   0.043   4.969 -1.8340 -0.3289 -1.5891
  146SAPE  H20T16033   5.597  -0.124   4.979  0.1968  0.7223 -0.5973
  146SAPE   C3316034   5.113  -0.085   6.503  0.7658 -0.4159  0.3619
  146SAPE   H3X16035   5.038  -0.114   6.579  2.1176 -0.8206  1.5839
  146SAPE   H3Y16036   5.201  -0.144   6.536  1.0932 -0.7502 -1.0188
  146SAPE   C3416037   5.075  -0.124   6.361 -0.7615  0.6214 -0.6378
  146SAPE   H4X16038   5.066  -0.234   6.346  0.8050  0.4338 -0.3459
  146SAPE   H4Y16039   5.155  -0.092   6.291  0.6366  1.3830  1.2097
  146SAPE   C3516040   4.939  -0.063   6.315  0.4322  0.0624 -0.3952
  146SAPE   H5X16041   4.963   0.045   6.314  0.6957  0.0116 -1.4599
  146SAPE   H5Y16042   4.873  -0.091   6.399 -1.4980  1.2963 -1.4386
  146SAPE   C3616043   4.881  -0.124   6.186 -0.6870  0.2933  0.2081
  146SAPE   H6X16044   4.784  -0.073   6.172 -1.3761 -0.7739  0.9115
  146SAPE   H6Y16045   4.855  -0.232   6.195  0.2647  0.1771  1.8920
  146SAPE   C3716046   4.964  -0.096   6.057  0.2099  0.0166 -1.2133
  146SAPE   H7X16047   5.072  -0.093   6.085 -0.5823  2.6675  2.2519
  146SAPE   H7Y16048   4.940   0.011   6.039  1.5980  0.1162 -2.7450
  146SAPE   C3816049   4.919  -0.181   5.939  0.4180 -0.8964 -0.6543
  146SAPE   H8X16050   4.905  -0.288   5.968 -1.1846 -0.7824 -0.9496
  146SAPE   H8Y16051   4.999  -0.189   5.863  1.5407  1.4137  0.1991
  146SAPE   C3916052   4.784  -0.129   5.886  0.3095 -0.1472  0.4194
  146SAPE   H9X16053   4.811  -0.029   5.845 -0.6402  0.3139  0.8804
  146SAPE   H9Y16054   4.711  -0.113   5.968  1.9457 -1.2312  2.1678
  146SAPE  C31016055   4.713  -0.216   5.780  0.0565  0.4873 -0.4023
  146SAPE  H10X16056   4.608  -0.231   5.814  0.7295  2.3713  2.9187
  146SAPE  H10Y16057   4.754  -0.320   5.781  1.1347  0.8928 -1.1274
  146SAPE  C31116058   4.710  -0.147   5.644  0.1242 -0.1889  0.3624
  146SAPE  H11X16059   4.803  -0.154   5.583  0.3409 -1.7184  0.8308
  146SAPE  H11Y16060   4.691  -0.040   5.666 -0.9851 -0.1234 -0.7846
  146SAPE  C31216061   4.594  -0.188   5.553 -0.2281  0.2479 -0.3907
  146SAPE  H12X16062   4.505  -0.127   5.582 -1.2738 -0.7143 -1.4511
  146SAPE  H12Y16063   4.566  -0.293   5.572 -2.8541  0.8812 -0.2734
  146SAPE  C31316064   4.602  -0.155   5.405  0.3694 -0.0636  0.4509
  146SAPE  H13X16065   4.681  -0.219   5.361 -1.3078 -1.2075 -1.0217
  146SAPE  H13Y16066   4.635  -0.053   5.377  1.6871 -0.4821  0.4348
  146SAPE  C31416067   4.472  -0.181   5.320 -0.2130 -0.1611 -0.3038
  146SAPE  H14X16068   4.399  -0.109   5.362 -0.0507  0.7708 -1.5999
  146SAPE  H14Y16069   4.431  -0.283   5.342 -1.3024  0.5416  1.1253
  146SAPE  C31516070   4.494  -0.157   5.165 -0.3300 -0.4131 -0.0456
  146SAPE  H15X16071   4.393  -0.176   5.122 -0.3906  1.1294 -0.6586
  146SAPE  H15Y16072   4.565  -0.233   5.126 -1.5529 -1.5473 -0.1462
  146SAPE  C31616073   4.548  -0.019   5.123 -0.1432 -0.0650 -0.4278
  146SAPE  H16X16074   4.658  -0.012   5.138  0.2583 -2.6741 -1.6141
  146SAPE  H16Y16075   4.498   0.062   5.180 -1.1066  0.7355 -2.3066
  146SAPE  C31716076   4.524   0.018   4.970 -0.0913 -0.2735 -0.4674
  146SAPE  H17X16077   4.559   0.123   4.958  0.9393 -0.4574  0.6738
  146SAPE  H17Y16078   4.417  -0.003   4.949  0.1271 -1.4134 -0.5343
  146SAPE  C31816079   4.602  -0.080   4.880 -0.2483 -0.0368  0.0851
  146SAPE  H18X16080   4.581  -0.062   4.772 -1.4078 -0.0030  0.3083
  146SAPE  H18Y16081   4.572  -0.183   4.908  1.2098 -0.0398  1.7979
  146SAPE  H18Z16082   4.711  -0.072   4.899  0.3371 -2.9654 -1.4216
  147SAPE     N16083   3.190   2.029   7.355  0.2988 -0.2550 -0.5167
  147SAPE   HN116084   3.202   1.949   7.421  1.9046  0.5986  0.3000
  147SAPE   HN216085   3.096   2.030   7.311 -0.6314  0.6597  1.3611
  147SAPE   HN316086   3.260   2.016   7.279  0.7258  0.5048 -0.2650
  147SAPE   C1216087   3.222   2.152   7.433 -0.1928 -0.4536  0.3356
  147SAPE  H12A16088   3.331   2.160   7.452 -0.0796  1.6692 -0.8557
  147SAPE  H12B16089   3.171   2.154   7.531 -1.6021  2.5865 -0.3361
  147SAPE   C1116090   3.178   2.283   7.365 -0.4124 -0.1655 -0.8679
  147SAPE  H11A16091   3.176   2.360   7.445 -0.3534  0.9991 -1.9675
  147SAPE  H11B16092   3.079   2.269   7.317  0.0241 -1.0332 -1.5451
  147SAPE     P16093   3.265   2.452   7.192 -0.0450  0.0623  0.2375
  147SAPE   O1316094   3.171   2.541   7.263 -0.1883  0.5290  0.0899
  147SAPE   O1416095   3.396   2.507   7.156  0.5518 -0.1268 -0.0475
  147SAPE   O1216096   3.280   2.319   7.274  0.1290 -0.1921 -0.1776
  147SAPE   O1116097   3.182   2.406   7.060  0.2171  0.3749 -0.1297
  147SAPE    C116098   3.217   2.282   6.998  0.1804 -0.8714  0.4062
  147SAPE    HA16099   3.317   2.243   7.027  0.3774 -1.8722 -1.4146
  147SAPE    HB16100   3.134   2.215   7.028  0.9447 -1.5166  1.1440
  147SAPE    C216101   3.245   2.289   6.846 -0.3107 -0.3835 -0.6287
  147SAPE    HS16102   3.347   2.329   6.832 -0.8354  1.1029 -0.4312
  147SAPE   O2116103   3.143   2.360   6.783 -0.0555  0.2797  0.3780
  147SAPE   C2116104   3.185   2.436   6.682 -1.0209 -0.2284  0.2711
  147SAPE   O2216105   3.298   2.435   6.637 -0.3539 -0.0835 -0.2609
  147SAPE   C2216106   3.058   2.495   6.612  0.1502  0.4336  0.1542
  147SAPE   H2R16107   3.044   2.416   6.534 -0.7934  0.5970  0.1439
  147SAPE   H2S16108   2.982   2.481   6.691 -0.4347 -0.8456 -0.5959
  147SAPE    C316109   3.231   2.141   6.796 -0.5291 -0.3094  0.4947
  147SAPE    HX16110   3.132   2.109   6.836 -1.7756  2.7169  0.0998
  147SAPE    HY16111   3.308   2.083   6.850 -0.4889 -0.3330  0.4129
  147SAPE   O3116112   3.229   2.120   6.656  0.4395  0.4732 -0.2824
  147SAPE   C3116113   3.335   2.146   6.588  0.0614  0.5779  0.4921
  147SAPE   O3216114   3.446   2.177   6.628 -0.4236 -0.3368 -0.3723
  147SAPE   C3216115   3.296   2.151   6.439  0.3618 -0.9525 -0.2425
  147SAPE   H2X16116   3.194   2.194   6.430  1.4592  1.4442 -2.5233
  147SAPE   H2Y16117   3.297   2.045   6.406 -0.0006 -0.7526 -0.9064
  147SAPE   C2316118   3.066   2.633   6.552 -0.2506 -0.0995 -0.4350
  147SAPE   H3R16119   3.132   2.631   6.463  0.0545 -1.6328 -0.1895
  147SAPE   H3S16120   3.102   2.705   6.629  1.6733 -0.0791 -1.2893
  147SAPE   C2416121   2.922   2.678   6.510 -0.0199  1.0120 -0.8391
  147SAPE   H4R16122   2.861   2.708   6.598  2.0310 -1.6445  1.7089
  147SAPE   H4S16123   2.879   2.589   6.458  0.2562  1.2386 -1.4582
  147SAPE   C2516124   2.937   2.796   6.424 -0.9670 -0.1851 -0.7338
  147SAPE   H5R16125   3.003   2.874   6.464  2.2169 -1.7711 -2.5000
  147SAPE   C2616126   2.888   2.802   6.297 -0.5160  0.2568  0.0459
  147SAPE   H6R16127   2.919   2.892   6.242  2.0705 -1.1462 -0.9779
  147SAPE   C2716128   2.808   2.709   6.209 -0.4809 -0.2659 -0.4230
  147SAPE   H7R16129   2.861   2.613   6.229  0.2914  0.0035 -1.1197
  147SAPE   H7S16130   2.840   2.724   6.104 -0.4950 -2.1375 -0.7282
  147SAPE   C2816131   2.660   2.700   6.214  0.2443 -0.5806  0.6529
  147SAPE   H8R16132   2.620   2.702   6.317 -1.1356 -1.5858  0.1724
  147SAPE   C2916133   2.577   2.720   6.108 -0.3998 -0.1594 -0.2298
  147SAPE   H9R16134   2.468   2.728   6.118 -0.4498  0.2319 -1.0484
  147SAPE  C21016135   2.619   2.733   5.965 -0.1585 -0.3849  0.0554
  147SAPE  H10R16136   2.718   2.683   5.960  1.6203  2.9510 -1.2388
  147SAPE  H10S16137   2.641   2.839   5.940  0.7249 -0.1880  1.5416
  147SAPE  C21116138   2.518   2.687   5.862  0.1908 -0.2058  0.1595
  147SAPE  H11R16139   2.429   2.633   5.899  0.0149  0.4539  0.7257
  147SAPE  C21216140   2.509   2.737   5.739 -0.3786 -0.5310  0.0423
  147SAPE  H12R16141   2.424   2.708   5.676 -0.5039  2.0268 -1.1069
  147SAPE  C21316142   2.611   2.814   5.657  0.1730 -0.0316 -0.2865
  147SAPE  H13R16143   2.676   2.879   5.719 -1.3010  0.0338  1.2623
  147SAPE  H13S16144   2.556   2.877   5.584 -1.4406 -2.7498 -1.5900
  147SAPE  C21416145   2.709   2.717   5.584  0.8687 -0.4346  0.4362
  147SAPE  H14R16146   2.736   2.632   5.649  2.7682  1.5920  2.4558
  147SAPE  C21516147   2.748   2.732   5.460 -0.0475 -0.3309  0.5618
  147SAPE  H15R16148   2.820   2.664   5.413 -0.8974 -0.7047 -0.2177
  147SAPE  C21616149   2.726   2.852   5.377  0.2983  0.6279 -0.8457
  147SAPE  H16R16150   2.814   2.879   5.315  1.4759  0.1693  0.5686
  147SAPE  H16S16151   2.702   2.940   5.440 -0.0203  1.0834 -1.5945
  147SAPE  C21716152   2.609   2.842   5.290 -0.1174 -0.3833 -0.0908
  147SAPE  H17R16153   2.524   2.795   5.344 -1.1477 -0.5511 -1.7456
  147SAPE  H17S16154   2.624   2.772   5.205  1.5651 -1.3717  0.9970
  147SAPE  C21816155   2.573   2.983   5.233 -0.0315 -0.1504 -0.3779
  147SAPE  H18R16156   2.654   3.029   5.173  1.3812 -0.8842  0.9146
  147SAPE  H18S16157   2.552   3.047   5.321  0.2118 -1.4346  0.6291
  147SAPE  C21916158   2.447   2.988   5.148 -0.7080 -0.7663 -0.9321
  147SAPE  H19R16159   2.383   2.915   5.201  1.9291 -2.6264 -0.0921
  147SAPE  H19S16160   2.466   2.936   5.052  0.2842 -2.0508 -0.0782
  147SAPE  C22016161   2.381   3.117   5.140  0.6201 -0.2349 -0.1087
  147SAPE  H20R16162   2.281   3.116   5.090  0.7386 -1.4981 -0.3493
  147SAPE  H20S16163   2.445   3.198   5.099  0.7637 -1.1337 -1.7261
  147SAPE  H20T16164   2.353   3.159   5.239  2.2789  3.4031 -0.9971
  147SAPE   C3316165   3.388   2.240   6.347 -0.2001  0.0032 -0.2542
  147SAPE   H3X16166   3.481   2.188   6.316  0.6221  0.8547  0.6999
  147SAPE   H3Y16167   3.416   2.335   6.397  0.4801  0.2248 -1.0446
  147SAPE   C3416168   3.331   2.301   6.216  0.2337  0.1737 -0.7319
  147SAPE   H4X16169   3.288   2.217   6.157 -0.7644  1.2228 -1.5339
  147SAPE   H4Y16170   3.405   2.353   6.151  2.3880 -1.7389  0.0115
  147SAPE   C3516171   3.206   2.390   6.242  0.0847  0.1555  0.6468
  147SAPE   H5X16172   3.223   2.471   6.315  1.3287  1.9166 -1.4741
  147SAPE   H5Y16173   3.121   2.326   6.273 -1.6319  0.9119 -2.0729
  147SAPE   C3616174   3.166   2.475   6.116 -0.0786  0.1423  0.4394
  147SAPE   H6X16175   3.253   2.526   6.070  0.5406 -1.4363 -0.2065
  147SAPE   H6Y16176   3.091   2.546   6.156 -0.1678 -0.2953  1.0643
  147SAPE   C3716177   3.105   2.382   6.001 -0.0251  0.3107 -0.1288
  147SAPE   H7X16178   3.026   2.318   6.046  1.5139 -1.1251  0.6310
  147SAPE   H7Y16179   3.192   2.321   5.971  0.5076  0.5919  0.8023
  147SAPE   C3816180   3.044   2.460   5.883  0.7102 -0.4696 -0.0205
  147SAPE   H8X16181   2.960   2.521   5.923 -0.0680 -1.0847 -0.6901
  147SAPE   H8Y16182   3.017   2.388   5.804 -0.6353  1.4179 -1.3774
  147SAPE   C3916183   3.143   2.566   5.817  0.0844 -0.8530 -0.9696
  147SAPE   H9X16184   3.243   2.519   5.806  1.1776  1.7302 -3.0256
  147SAPE   H9Y16185   3.155   2.646   5.894  3.5848 -1.0743 -1.1092
  147SAPE  C31016186   3.097   2.619   5.680  0.3442 -0.2636 -0.0590
  147SAPE  H10X16187   3.009   2.687   5.688 -0.0997 -0.8845  0.4618
  147SAPE  H10Y16188   3.062   2.528   5.627  1.5006 -0.9478  0.3099
  147SAPE  C31116189   3.208   2.691   5.599 -0.1719 -0.4976 -0.5464
  147SAPE  H11X16190   3.287   2.613   5.600 -1.2299 -1.6113 -0.9894
  147SAPE  H11Y16191   3.258   2.776   5.650  1.8415 -1.7616 -0.3383
  147SAPE  C31216192   3.175   2.729   5.446  0.1874  0.0481 -0.4566
  147SAPE  H12X16193   3.089   2.799   5.434  0.3917  0.1321 -1.4923
  147SAPE  H12Y16194   3.141   2.636   5.396  0.0835 -1.1652  1.7265
  147SAPE  C31316195   3.289   2.793   5.371  0.1882 -0.2872  0.1877
  147SAPE  H13X16196   3.370   2.717   5.368 -0.2472 -0.7462  0.0190
  147SAPE  H13Y16197   3.312   2.887   5.427  2.2242 -0.7421  0.1934
  147SAPE  C31416198   3.270   2.828   5.224  0.1596 -0.1101 -0.4777
  147SAPE  H14X16199   3.198   2.912   5.235  0.6658  0.2998 -0.2384
  147SAPE  H14Y16200   3.225   2.745   5.166 -1.0209  0.4815 -0.4322
  147SAPE  C31516201   3.396   2.884   5.155  0.1056 -0.0279 -0.0726
  147SAPE  H15X16202   3.365   2.945   5.067 -2.3279  0.0142  0.7458
  147SAPE  H15Y16203   3.458   2.800   5.116  0.9052  0.1368  0.7914
  147SAPE  C31616204   3.475   2.973   5.254 -0.3406  0.1040  0.0094
  147SAPE  H16X16205   3.513   2.921   5.345  2.0080  0.9381 -0.4272
  147SAPE  H16Y16206   3.405   3.054   5.285  1.3284  0.9413  1.8128
  147SAPE  C31716207   3.599   3.027   5.186 -0.0673  0.5935 -0.1346
  147SAPE  H17X16208   3.578   3.085   5.094  1.2433  2.3685  0.6363
  147SAPE  H17Y16209   3.666   2.941   5.162  0.6635  0.0175  3.3354
  147SAPE  C31816210   3.695   3.109   5.272  0.3780 -0.9767  0.5442
  147SAPE  H18X16211   3.640   3.194   5.316  2.0308  0.8894 -0.8253
  147SAPE  H18Y16212   3.778   3.155   5.214  0.3004 -0.4928  0.8182
  147SAPE  H18Z16213   3.754   3.051   5.346  1.6822 -2.2664 -1.3938
  148SAPE     N16214   1.197   1.960   7.185  0.2378  0.0356 -0.1473
  148SAPE   HN116215   1.148   1.993   7.270 -3.1499  0.5286 -2.0968
  148SAPE   HN216216   1.148   1.877   7.146  1.6035 -0.8378 -0.0582
  148SAPE   HN316217   1.290   1.928   7.217 -0.3384  0.3358  1.9761
  148SAPE   C1216218   1.204   2.069   7.084 -0.4406 -0.0638  0.7212
  148SAPE  H12A16219   1.254   2.155   7.135  1.0508 -1.3420  1.5213
  148SAPE  H12B16220   1.108   2.093   7.034  0.9996  1.0328 -1.7191
  148SAPE   C1116221   1.304   2.031   6.963  0.4754  0.0509  0.1621
  148SAPE  H11A16222   1.286   2.101   6.879  0.1124 -1.1628 -0.8018
  148SAPE  H11B16223   1.277   1.931   6.923  0.1794  0.6304 -1.1480
  148SAPE     P16224   1.536   1.917   6.979  0.3174  0.3122  0.3439
  148SAPE   O1316225   1.662   1.944   7.054  0.0053 -0.3628 -0.3543
  148SAPE   O1416226   1.449   1.798   7.004 -1.0439 -0.2697  0.2021
  148SAPE   O1216227   1.439   2.037   7.000 -0.3376 -0.1286 -0.8626
  148SAPE   O1116228   1.560   1.919   6.830 -0.5116 -0.1711 -0.5011
  148SAPE    C116229   1.603   2.032   6.749 -0.8439 -0.1066  0.8185
  148SAPE    HA16230   1.521   2.106   6.739  1.1309  2.4543  2.3224
  148SAPE    HB16231   1.685   2.092   6.793 -0.0758 -0.4623 -0.0819
  148SAPE    C216232   1.640   1.983   6.612 -0.2748 -0.4235  0.0161
  148SAPE    HS16233   1.658   2.077   6.555 -0.4444 -0.3343  0.1113
  148SAPE   O2116234   1.540   1.897   6.560 -0.6555  0.0181 -0.1339
  148SAPE   C2116235   1.451   1.953   6.478 -0.1265 -0.5308  0.5821
  148SAPE   O2216236   1.444   2.072   6.446 -0.5060  0.0476 -0.3925
  148SAPE   C2216237   1.360   1.840   6.424 -0.0972  0.0194  0.0487
  148SAPE   H2R16238   1.400   1.825   6.321  0.0553 -1.8121  0.3342
  148SAPE   H2S16239   1.360   1.755   6.496 -1.3334 -0.4829 -0.5241
  148SAPE    C316240   1.776   1.911   6.611  0.7298 -0.2449 -0.3284
  148SAPE    HX16241   1.764   1.828   6.684  0.7761  1.2294  1.4346
  148SAPE    HY16242   1.862   1.973   6.643  1.8756 -1.8195 -0.2635
  148SAPE   O3116243   1.802   1.861   6.477 -0.2352 -0.2710  0.0988
  148SAPE   C3116244   1.919   1.809   6.455 -0.5187 -0.1740  0.2596
  148SAPE   O3216245   2.018   1.820   6.524 -0.5402  0.4867  0.3256
  148SAPE   C3216246   1.911   1.725   6.327 -0.3792  0.1090 -0.3228
  148SAPE   H2X16247   1.864   1.791   6.251 -0.3710  1.5454  0.8693
  148SAPE   H2Y16248   1.840   1.640   6.335  0.5892 -0.5486  2.6047
  148SAPE   C2316249   1.219   1.897   6.408  0.1400 -0.0650  1.0004
  148SAPE   H3R16250   1.197   1.980   6.478  2.2362  0.2112  1.3769
  148SAPE   H3S16251   1.140   1.824   6.434  0.5708 -0.4687  1.1796
  148SAPE   C2416252   1.191   1.946   6.265 -0.0346 -0.5193 -0.3671
  148SAPE   H4R16253   1.273   2.015   6.236 -0.5902  0.1779 -0.3072
  148SAPE   H4S16254   1.102   2.012   6.258 -0.3815 -1.1451 -2.2560
  148SAPE   C2516255   1.178   1.836   6.160  0.0912 -0.0901 -0.1875
  148SAPE   H5R16256   1.209   1.734   6.188  0.4586  0.5043  1.7272
  148SAPE   C2616257   1.128   1.854   6.034  0.4282 -0.6564 -0.6626
  148SAPE   H6R16258   1.121   1.772   5.961  2.7124 -1.1175 -0.4317
  148SAPE   C2716259   1.090   1.989   5.980  0.5877 -0.2835  0.1041
  148SAPE   H7R16260   1.097   2.070   6.057 -0.4019  1.1589 -1.2650
  148SAPE   H7S16261   0.984   1.991   5.948  0.0695  0.6914  1.7402
  148SAPE   C2816262   1.171   2.030   5.865  0.5524 -0.8559  0.0506
  148SAPE   H8R16263   1.260   2.086   5.897  1.0124 -1.5880  0.0912
  148SAPE   C2916264   1.151   2.001   5.734  0.6402  0.0228 -0.1288
  148SAPE   H9R16265   1.220   2.063   5.675  0.4026  0.3966 -0.0156
  148SAPE  C21016266   1.039   1.923   5.660 -0.2350 -0.1851 -0.0823
  148SAPE  H10R16267   0.976   2.000   5.609  0.4861  0.2199 -0.3807
  148SAPE  H10S16268   0.985   1.867   5.739 -1.3989  2.3313  1.0201
  148SAPE  C21116269   1.105   1.836   5.557  0.4749 -0.5953  0.5970
  148SAPE  H11R16270   1.138   1.735   5.585 -3.1965 -1.3503  2.8528
  148SAPE  C21216271   1.131   1.864   5.428 -0.0724 -0.0456 -0.5959
  148SAPE  H12R16272   1.196   1.795   5.374 -2.0584 -1.3710 -1.4321
  148SAPE  C21316273   1.093   1.991   5.351  0.8832  0.0867  0.5665
  148SAPE  H13R16274   1.129   1.970   5.248 -1.4075 -2.2204  0.1336
  148SAPE  H13S16275   1.159   2.068   5.396  0.5221  0.0468  1.1698
  148SAPE  C21416276   0.948   2.029   5.333  0.7258  0.1495 -0.2927
  148SAPE  H14R16277   0.892   1.944   5.291  1.5638 -0.8760  0.6271
  148SAPE  C21516278   0.879   2.137   5.367  0.6929 -0.2456  0.5951
  148SAPE  H15R16279   0.776   2.152   5.331  1.9783  2.7637 -2.3453
  148SAPE  C21616280   0.949   2.259   5.420 -0.1356  0.2054  0.4075
  148SAPE  H16R16281   1.059   2.256   5.426 -0.0691  0.0742 -0.7829
  148SAPE  H16S16282   0.911   2.274   5.524 -0.2100  1.0768  0.2671
  148SAPE  C21716283   0.903   2.390   5.351  0.7920  0.0087  0.9937
  148SAPE  H17R16284   0.941   2.482   5.400  0.9760  0.6091 -0.2378
  148SAPE  H17S16285   0.792   2.395   5.346  0.7804 -1.0216 -0.9868
  148SAPE  C21816286   0.959   2.406   5.207  0.6706 -0.0240  0.2322
  148SAPE  H18R16287   0.923   2.320   5.147  2.2684 -1.0896  0.7383
  148SAPE  H18S16288   1.070   2.396   5.203  0.8670  1.8121  0.4926
  148SAPE  C21916289   0.924   2.542   5.148 -0.1495  0.1339  1.1757
  148SAPE  H19R16290   0.977   2.625   5.200  0.5348 -0.0855  0.8420
  148SAPE  H19S16291   0.813   2.555   5.153 -0.1826  0.2770  0.2126
  148SAPE  C22016292   0.966   2.557   4.995  0.9889  0.2345 -0.3757
  148SAPE  H20R16293   0.879   2.518   4.939 -0.6006 -0.2007  2.2420
  148SAPE  H20S16294   1.059   2.500   4.974  1.5696  1.2267 -0.6036
  148SAPE  H20T16295   0.972   2.667   4.976 -2.5947  0.9680  1.7805
  148SAPE   C3316296   2.049   1.691   6.262  0.4721  0.1544 -0.0865
  148SAPE   H3X16297   2.041   1.615   6.181 -0.1547 -1.5804  1.5545
  148SAPE   H3Y16298   2.115   1.648   6.340  0.3249 -0.0631 -0.0835
  148SAPE   C3416299   2.122   1.807   6.192  0.0606 -1.3275  0.5324
  148SAPE   H4X16300   2.230   1.805   6.220  0.8093  0.0368 -1.9929
  148SAPE   H4Y16301   2.076   1.904   6.220 -0.8154 -1.1065 -1.5451
  148SAPE   C3516302   2.118   1.808   6.041 -0.0225 -0.5607 -0.2196
  148SAPE   H5X16303   2.020   1.822   5.991 -1.2332 -0.4199  2.0423
  148SAPE   H5Y16304   2.156   1.709   6.006  0.0105 -2.9732  5.5415
  148SAPE   C3616305   2.198   1.924   5.994 -0.1224 -0.2653  0.9106
  148SAPE   H6X16306   2.298   1.912   6.042  1.2763 -0.5702 -1.8515
  148SAPE   H6Y16307   2.154   2.018   6.033 -0.7296 -0.7444  1.3941
  148SAPE   C3716308   2.225   1.923   5.840 -0.3249  0.7174 -0.2954
  148SAPE   H7X16309   2.261   1.818   5.827 -0.0788  0.8475 -0.6717
  148SAPE   H7Y16310   2.307   1.993   5.816 -0.3512  0.2758 -1.7801
  148SAPE   C3816311   2.100   1.947   5.753  0.0692  0.0511  0.2936
  148SAPE   H8X16312   2.052   2.039   5.793  0.5732 -0.1916  1.5069
  148SAPE   H8Y16313   2.045   1.852   5.766 -0.4568  0.4287  0.8703
  148SAPE   C3916314   2.130   1.971   5.603 -0.2218  0.2808  0.2503
  148SAPE   H9X16315   2.184   1.878   5.573  1.9020  1.9387 -1.4108
  148SAPE   H9Y16316   2.207   2.051   5.594 -0.3616  0.6190  1.8186
  148SAPE  C31016317   2.010   2.007   5.503  0.0970  0.9687  0.1912
  148SAPE  H10X16318   2.052   2.010   5.401 -0.2046 -0.7368 -0.0223
  148SAPE  H10Y16319   1.976   2.105   5.541  1.2801  0.7417  1.9551
  148SAPE  C31116320   1.902   1.892   5.513 -0.4143 -0.2169  0.2706
  148SAPE  H11X16321   1.863   1.891   5.617  0.5633  1.9753  0.7301
  148SAPE  H11Y16322   1.956   1.802   5.480  0.6624  0.1632  0.9659
  148SAPE  C31216323   1.777   1.912   5.425  0.3145  0.1622 -0.0739
  148SAPE  H12X16324   1.808   1.926   5.320 -0.1962 -0.7566 -0.3551
  148SAPE  H12Y16325   1.713   1.997   5.459  1.3731  1.4666 -1.2424
  148SAPE  C31316326   1.694   1.782   5.427 -0.0768 -0.5331  0.2752
  148SAPE  H13X16327   1.678   1.765   5.536 -1.6085 -1.4419 -0.0702
  148SAPE  H13Y16328   1.740   1.687   5.392  0.0677 -0.7656  1.0714
  148SAPE  C31416329   1.556   1.787   5.358 -0.2040 -0.5164  1.1052
  148SAPE  H14X16330   1.488   1.858   5.411 -0.8323 -0.0422 -0.2904
  148SAPE  H14Y16331   1.518   1.684   5.347  0.9055 -1.1871  3.0609
  148SAPE  C31516332   1.581   1.850   5.226  0.5985 -0.0820  0.8761
  148SAPE  H15X16333   1.669   1.807   5.175  1.4205 -0.5011  2.5620
  148SAPE  H15Y16334   1.604   1.958   5.242 -0.7487  0.8523 -2.7392
  148SAPE  C31616335   1.461   1.816   5.136 -0.4138 -0.3303  0.5235
  148SAPE  H16X16336   1.471   1.879   5.045 -2.2710  0.9369  1.1335
  148SAPE  H16Y16337   1.363   1.847   5.179 -1.6227  0.1639 -2.3418
  148SAPE  C31716338   1.465   1.666   5.084  0.0641 -0.0133 -0.0950
  148SAPE  H17X16339   1.490   1.599   5.169  1.3691  1.4152  0.6853
  148SAPE  H17Y16340   1.552   1.653   5.016  1.7360 -0.7904  2.0797
  148SAPE  C31816341   1.330   1.622   5.035  0.0074 -0.3930 -0.1322
  148SAPE  H18X16342   1.304   1.672   4.940  1.2826 -1.4150 -1.0671
  148SAPE  H18Y16343   1.259   1.658   5.112 -0.6245 -1.7129 -0.0793
  148SAPE  H18Z16344   1.329   1.512   5.024  0.1025 -0.4339  0.2554
  149SAPE     N16345   1.212   5.157   7.291 -0.4733  0.0996 -0.4261
  149SAPE   HN116346   1.238   5.129   7.194  0.8797 -0.3769  0.0563
  149SAPE   HN216347   1.252   5.091   7.360 -1.0885  0.3530  0.1804
  149SAPE   HN316348   1.108   5.154   7.301 -0.4867 -0.2648 -0.6687
  149SAPE   C1216349   1.271   5.290   7.327 -0.0157  0.3113  0.0204
  149SAPE  H12A16350   1.239   5.370   7.257  0.0192  0.7602  0.5117
  149SAPE  H12B16351   1.381   5.278   7.315 -0.2777 -2.1613 -0.4653
  149SAPE   C1116352   1.235   5.337   7.471  0.0995  0.4422  0.1712
  149SAPE  H11A16353   1.124   5.332   7.472  0.0991 -2.4868 -1.8239
  149SAPE  H11B16354   1.267   5.443   7.479  0.7004  0.2866 -0.0838
  149SAPE     P16355   1.367   5.326   7.691  0.1466  0.3429 -0.0410
  149SAPE   O1316356   1.297   5.446   7.730 -0.1925 -0.2842 -0.2255
  149SAPE   O1416357   1.378   5.219   7.796 -0.0474 -0.1243  0.4351
  149SAPE   O1216358   1.299   5.257   7.568  0.4221  0.1754 -0.0754
  149SAPE   O1116359   1.513   5.364   7.634  0.1051  0.1811  0.5334
  149SAPE    C116360   1.591   5.264   7.566 -0.5018  0.2932 -0.3193
  149SAPE    HA16361   1.656   5.210   7.637  0.8462  1.5461 -0.5637
  149SAPE    HB16362   1.525   5.187   7.519 -0.3693 -1.3757  2.0567
  149SAPE    C216363   1.673   5.342   7.452 -0.7865  0.6216  0.3353
  149SAPE    HS16364   1.731   5.429   7.490  1.8086 -0.0689 -1.7484
  149SAPE   O2116365   1.581   5.391   7.345 -0.2368 -0.5969  0.3088
  149SAPE   C2116366   1.631   5.485   7.275  0.5196 -0.5404  0.4950
  149SAPE   O2216367   1.739   5.540   7.292  0.6926  0.3425  0.3626
  149SAPE   C2216368   1.529   5.521   7.163 -0.2250  0.6093 -0.3992
  149SAPE   H2R16369   1.495   5.423   7.123  2.5539 -0.8827  0.6146
  149SAPE   H2S16370   1.447   5.570   7.219  0.6147  1.4534  0.1152
  149SAPE    C316371   1.779   5.236   7.389  0.6261 -0.5670 -0.2205
  149SAPE    HX16372   1.838   5.193   7.473  1.7123 -0.9505 -1.1650
  149SAPE    HY16373   1.850   5.300   7.334  1.1257  0.9221  1.9907
  149SAPE   O3116374   1.711   5.134   7.315  0.3080  0.3033 -0.2021
  149SAPE   C3116375   1.689   5.154   7.185 -0.3017 -0.2021 -0.1545
  149SAPE   O3216376   1.722   5.252   7.119  0.4173 -1.0367 -0.0531
  149SAPE   C3216377   1.597   5.045   7.133 -0.0475 -0.0716  0.1009
  149SAPE   H2X16378   1.512   5.087   7.076  0.7359 -2.6518 -3.3511
  149SAPE   H2Y16379   1.548   4.993   7.218 -3.0501 -0.6611 -1.8472
  149SAPE   C2316380   1.583   5.620   7.050  0.1104  0.2501 -0.7456
  149SAPE   H3R16381   1.687   5.593   7.024  0.2057  0.5084 -0.6270
  149SAPE   H3S16382   1.570   5.722   7.093 -2.2530  0.3839 -1.6218
  149SAPE   C2416383   1.512   5.618   6.911 -0.0006  0.4113  0.0207
  149SAPE   H4R16384   1.401   5.620   6.920 -0.1333  0.9492 -1.4564
  149SAPE   H4S16385   1.540   5.522   6.863  2.2641  1.8624 -1.7450
  149SAPE   C2516386   1.550   5.729   6.825 -0.1788 -0.2877  0.5256
  149SAPE   H5R16387   1.501   5.823   6.853 -0.5060 -0.4543  0.5277
  149SAPE   C2616388   1.626   5.720   6.716 -0.2823  0.3136  0.1177
  149SAPE   H6R16389   1.644   5.819   6.672  0.4723 -0.1888 -0.7422
  149SAPE   C2716390   1.684   5.596   6.648 -0.0634 -0.4966 -0.6668
  149SAPE   H7R16391   1.722   5.624   6.548 -1.3199 -2.7947 -1.8876
  149SAPE   H7S16392   1.605   5.524   6.619 -0.0805  0.2196 -2.5139
  149SAPE   C2816393   1.804   5.538   6.727  0.0372  0.3166  0.5161
  149SAPE   H8R16394   1.870   5.612   6.774 -0.3560  1.1670 -0.2353
  149SAPE   C2916395   1.844   5.406   6.734  1.0797  0.5723 -0.0231
  149SAPE   H9R16396   1.933   5.374   6.789 -0.4433 -0.6541  1.8733
  149SAPE  C21016397   1.774   5.285   6.671 -0.3534 -0.0562  0.0571
  149SAPE  H10R16398   1.671   5.308   6.634 -1.4769 -3.2891  0.8426
  149SAPE  H10S16399   1.750   5.216   6.755 -1.3369  2.6383  2.1301
  149SAPE  C21116400   1.845   5.204   6.566 -0.2653 -0.1384  0.0684
  149SAPE  H11R16401   1.907   5.123   6.606  1.0911  0.2749 -1.1273
  149SAPE  C21216402   1.817   5.201   6.434  0.2993 -0.8543  0.0004
  149SAPE  H12R16403   1.882   5.141   6.369  2.0599  1.7060 -0.7773
  149SAPE  C21316404   1.738   5.310   6.363 -0.1768 -0.7949  0.1405
  149SAPE  H13R16405   1.682   5.379   6.430  0.1955 -0.6120  0.2679
  149SAPE  H13S16406   1.671   5.270   6.284  0.8041  0.5292 -1.4311
  149SAPE  C21416407   1.840   5.408   6.304 -0.4669 -0.5085  0.0771
  149SAPE  H14R16408   1.899   5.465   6.377  0.4855 -1.3405 -0.0319
  149SAPE  C21516409   1.848   5.454   6.176  0.6437  0.6385 -0.3381
  149SAPE  H15R16410   1.921   5.534   6.156  2.2505 -0.1331  1.9733
  149SAPE  C21616411   1.758   5.413   6.058  0.2382 -0.3357 -0.3113
  149SAPE  H16R16412   1.722   5.508   6.013  0.8364  0.2621  0.4291
  149SAPE  H16S16413   1.666   5.358   6.089 -0.3280  1.2211  0.9166
  149SAPE  C21716414   1.831   5.336   5.955  0.6858  1.3133  0.8932
  149SAPE  H17R16415   1.805   5.228   5.963  2.1856  0.8591  0.1000
  149SAPE  H17S16416   1.942   5.330   5.964  0.6479 -0.4164  0.6670
  149SAPE  C21816417   1.809   5.389   5.814  0.9364  0.3573 -0.5032
  149SAPE  H18R16418   1.701   5.409   5.801  1.0190  1.7577  0.7168
  149SAPE  H18S16419   1.837   5.319   5.732  0.4209  1.0527 -1.2983
  149SAPE  C21916420   1.882   5.528   5.787  0.0762  0.3678  0.3473
  149SAPE  H19R16421   1.895   5.571   5.889 -4.3083 -0.5270  1.5138
  149SAPE  H19S16422   1.799   5.588   5.744 -1.5039 -1.6627  0.4197
  149SAPE  C22016423   2.004   5.529   5.694  0.1931  0.1327  0.1481
  149SAPE  H20R16424   2.035   5.634   5.681  1.0611 -0.2424 -1.0519
  149SAPE  H20S16425   1.982   5.501   5.588  1.4131  1.2121 -0.4097
  149SAPE  H20T16426   2.086   5.460   5.722 -0.2116 -0.8184 -0.8999
  149SAPE   C3316427   1.690   4.940   7.061  1.1885  0.0685  0.0858
  149SAPE   H3X16428   1.629   4.847   7.058  1.6156 -0.2710  1.3657
  149SAPE   H3Y16429   1.762   4.926   7.145  0.3681  2.7718  1.3891
  149SAPE   C3416430   1.730   4.970   6.927  0.4532  0.3423  0.9533
  149SAPE   H4X16431   1.796   5.059   6.924  2.6500 -1.2212 -0.0827
  149SAPE   H4Y16432   1.637   4.982   6.867 -0.7974 -0.7259  2.5838
  149SAPE   C3516433   1.797   4.847   6.859  0.1045 -1.4293  0.0827
  149SAPE   H5X16434   1.722   4.766   6.875 -1.5862  0.4719  2.5683
  149SAPE   H5Y16435   1.885   4.819   6.921 -0.2222 -2.0491  0.2740
  149SAPE   C3616436   1.838   4.886   6.720 -0.3460 -0.5326  0.5220
  149SAPE   H6X16437   1.939   4.933   6.717 -0.6012  0.0202  0.6529
  149SAPE   H6Y16438   1.776   4.968   6.680  1.5168 -0.4143 -2.4762
  149SAPE   C3716439   1.835   4.770   6.620  0.3702  0.2321 -0.2505
  149SAPE   H7X16440   1.739   4.714   6.612  0.4180  0.1171 -0.0296
  149SAPE   H7Y16441   1.911   4.689   6.613  0.1280  0.1240 -2.1687
  149SAPE   C3816442   1.850   4.845   6.487 -0.0267  0.5632 -0.3313
  149SAPE   H8X16443   1.936   4.915   6.481 -0.5053  1.0296 -2.4318
  149SAPE   H8Y16444   1.759   4.908   6.477  0.0515  0.5431 -1.2116
  149SAPE   C3916445   1.833   4.760   6.363 -0.2555 -0.0242 -0.3048
  149SAPE   H9X16446   1.727   4.727   6.358 -0.2374 -0.3207  0.8536
  149SAPE   H9Y16447   1.902   4.673   6.358  2.8083  2.2456 -0.4631
  149SAPE  C31016448   1.866   4.843   6.226 -0.3161 -0.2430 -0.5037
  149SAPE  H10X16449   1.974   4.869   6.227  0.2460 -2.3834 -0.0420
  149SAPE  H10Y16450   1.804   4.934   6.231 -0.4697 -0.4061  0.9558
  149SAPE  C31116451   1.837   4.750   6.112 -0.2198 -0.9422  0.9009
  149SAPE  H11X16452   1.734   4.709   6.119 -0.0249 -2.0499 -1.6895
  149SAPE  H11Y16453   1.898   4.658   6.098 -0.0014 -0.5348 -1.1412
  149SAPE  C31216454   1.858   4.822   5.982  0.6322 -0.2013  0.1804
  149SAPE  H12X16455   1.966   4.848   5.976  0.3410  1.5507  1.7560
  149SAPE  H12Y16456   1.798   4.915   5.982  1.1740  0.1589  1.0043
  149SAPE  C31316457   1.810   4.732   5.858  0.4581 -0.4700 -0.4291
  149SAPE  H13X16458   1.704   4.711   5.882  0.9175 -0.6880  1.6456
  149SAPE  H13Y16459   1.863   4.635   5.870  2.6260  0.9576  3.6297
  149SAPE  C31416460   1.835   4.800   5.722 -1.0660 -0.6200  0.1426
  149SAPE  H14X16461   1.945   4.805   5.711 -1.2140 -0.6169 -1.5671
  149SAPE  H14Y16462   1.799   4.906   5.721 -0.6675 -0.4836  0.1188
  149SAPE  C31516463   1.758   4.741   5.606  0.2151  0.8001 -0.1600
  149SAPE  H15X16464   1.653   4.721   5.636 -0.2455  0.3298 -1.9334
  149SAPE  H15Y16465   1.813   4.649   5.577  0.3992  1.0349 -0.5757
  149SAPE  C31616466   1.746   4.828   5.484 -0.1486  0.5667  0.0536
  149SAPE  H16X16467   1.842   4.825   5.427  0.1658  0.8100  0.5567
  149SAPE  H16Y16468   1.745   4.934   5.518  1.0450  0.6812 -0.2010
  149SAPE  C31716469   1.616   4.816   5.404  0.2284  0.3229  0.1512
  149SAPE  H17X16470   1.592   4.916   5.361 -0.7469  0.2555  0.4928
  149SAPE  H17Y16471   1.534   4.783   5.471  0.6302 -0.2320  0.3763
  149SAPE  C31816472   1.628   4.716   5.291 -0.4309  0.0342  0.5481
  149SAPE  H18X16473   1.540   4.700   5.225 -0.7514  2.2953  0.3787
  149SAPE  H18Y16474   1.649   4.614   5.331  0.1101 -1.8266 -3.8998
  149SAPE  H18Z16475   1.713   4.754   5.231 -0.5994  0.9358  0.8744
  150SAPE     N16476   4.945   4.575   7.195 -0.1376 -0.6239 -0.1405
  150SAPE   HN116477   4.969   4.478   7.167  0.7170 -0.3187 -0.5131
  150SAPE   HN216478   5.035   4.618   7.224  1.0167 -3.3562  0.6051
  150SAPE   HN316479   4.876   4.574   7.272 -0.4688  1.4017 -0.3529
  150SAPE   C1216480   4.861   4.633   7.078  0.2663  0.4377 -0.4162
  150SAPE  H12A16481   4.794   4.549   7.048 -1.1447  1.2210  0.4733
  150SAPE  H12B16482   4.938   4.652   7.000  1.4009 -1.5071  0.1495
  150SAPE   C1116483   4.791   4.760   7.123  0.6011  0.7566  0.6869
  150SAPE  H11A16484   4.744   4.816   7.040  0.1752 -1.6118 -0.7681
  150SAPE  H11B16485   4.870   4.829   7.160  1.3922  0.1396  0.1663
  150SAPE     P16486   4.593   4.636   7.246 -0.2383  0.0233  0.0484
  150SAPE   O1316487   4.674   4.523   7.285  0.3319 -0.4409  0.5452
  150SAPE   O1416488   4.483   4.677   7.332  0.2927 -0.0176 -0.0856
  150SAPE   O1216489   4.703   4.752   7.235  0.2961 -0.3259  0.1138
  150SAPE   O1116490   4.537   4.613   7.098 -0.1033 -0.2161  0.1089
  150SAPE    C116491   4.405   4.557   7.081  0.2294 -0.2829  0.3144
  150SAPE    HA16492   4.384   4.463   7.136  1.1488 -0.6641  0.0263
  150SAPE    HB16493   4.326   4.630   7.109 -0.4789 -0.6349 -0.6948
  150SAPE    C216494   4.390   4.553   6.930  0.0645 -0.1492  0.5713
  150SAPE    HS16495   4.287   4.528   6.896 -0.5536 -0.0385  2.2406
  150SAPE   O2116496   4.490   4.474   6.878 -0.2761 -0.4081 -0.2355
  150SAPE   C2116497   4.473   4.347   6.880 -0.2825  0.3179 -0.3196
  150SAPE   O2216498   4.370   4.289   6.903  0.0082 -0.1058 -0.1202
  150SAPE   C2216499   4.602   4.265   6.858  0.4210 -0.3143  0.5421
  150SAPE   H2R16500   4.646   4.233   6.955  4.5580 -0.4556 -1.1948
  150SAPE   H2S16501   4.558   4.175   6.811  1.1120  0.4372 -1.6396
  150SAPE    C316502   4.421   4.700   6.871 -0.3718 -0.2884  0.4032
  150SAPE    HX16503   4.518   4.729   6.918 -0.6369  0.7222  0.3639
  150SAPE    HY16504   4.351   4.772   6.919  1.1770  1.0482  0.7629
  150SAPE   O3116505   4.415   4.710   6.724 -0.2931 -0.1922 -0.1422
  150SAPE   C3116506   4.537   4.716   6.666 -1.0405  0.2888  0.6592
  150SAPE   O3216507   4.644   4.742   6.713 -0.3392  0.1664 -0.1043
  150SAPE   C3216508   4.513   4.696   6.509 -0.2945 -0.2820  0.0813
  150SAPE   H2X16509   4.437   4.771   6.477 -0.2049  0.1045  0.7512
  150SAPE   H2Y16510   4.467   4.596   6.498  1.2919 -1.0409  0.0924
  150SAPE   C2316511   4.707   4.317   6.755  0.2583 -0.3383 -0.5658
  150SAPE   H3R16512   4.779   4.235   6.736 -1.1866 -1.2778 -2.2949
  150SAPE   H3S16513   4.763   4.405   6.795  1.2878 -0.8273 -0.8995
  150SAPE   C2416514   4.644   4.353   6.618 -0.1533  0.1156  0.1363
  150SAPE   H4R16515   4.724   4.397   6.554  1.5817 -1.2123  1.3159
  150SAPE   H4S16516   4.566   4.428   6.642 -0.0141 -0.1581  1.5306
  150SAPE   C2516517   4.573   4.258   6.519 -0.2373  0.0069  0.1027
  150SAPE   H5R16518   4.497   4.314   6.462 -0.0265  1.0945  0.8639
  150SAPE   C2616519   4.576   4.122   6.523 -0.4763 -0.1738 -0.2920
  150SAPE   H6R16520   4.519   4.071   6.444  2.3774 -0.4411 -2.3352
  150SAPE   C2716521   4.677   4.032   6.586  0.1290 -0.1568 -0.0982
  150SAPE   H7R16522   4.681   4.063   6.692 -2.3201 -1.6862  0.5406
  150SAPE   H7S16523   4.779   4.059   6.554  0.1467  2.7766  2.0824
  150SAPE   C2816524   4.650   3.885   6.586 -0.0541  0.5472  0.2316
  150SAPE   H8R16525   4.712   3.831   6.513 -0.6968  1.4609 -1.0386
  150SAPE   C2916526   4.570   3.811   6.666 -0.0074 -0.1075  0.4213
  150SAPE   H9R16527   4.562   3.702   6.655  3.1665 -0.7824  3.2766
  150SAPE  C21016528   4.470   3.873   6.761 -0.2662 -0.0145  0.8722
  150SAPE  H10R16529   4.455   3.981   6.738  0.7984  0.1068  0.7100
  150SAPE  H10S16530   4.528   3.874   6.855  1.5647  1.0044 -0.2000
  150SAPE  C21116531   4.338   3.799   6.778 -0.0170 -0.3972  0.5133
  150SAPE  H11R16532   4.351   3.698   6.818 -0.0194 -0.7456 -0.3485
  150SAPE  C21216533   4.215   3.837   6.751 -0.8259 -0.6304 -0.6654
  150SAPE  H12R16534   4.137   3.778   6.803 -1.4405  0.9529  0.2630
  150SAPE  C21316535   4.165   3.962   6.698  0.0127  0.6777 -0.6356
  150SAPE  H13R16536   4.253   4.019   6.659  0.9231 -0.4854 -0.3237
  150SAPE  H13S16537   4.134   4.029   6.782  2.0542  0.7066  0.1483
  150SAPE  C21416538   4.044   3.958   6.612  0.2283  0.4981 -0.0726
  150SAPE  H14R16539   3.952   4.002   6.653 -0.9219 -1.0112 -0.9130
  150SAPE  C21516540   4.048   3.933   6.480  1.5288 -1.1627 -0.1022
  150SAPE  H15R16541   3.955   3.930   6.421  1.1535  1.3809  0.2270
  150SAPE  C21616542   4.176   3.907   6.398  0.3359  0.1025 -0.0356
  150SAPE  H16R16543   4.250   3.853   6.461  0.1397 -3.8710 -2.8459
  150SAPE  H16S16544   4.212   4.007   6.366  1.6476 -0.8055 -1.5068
  150SAPE  C21716545   4.155   3.828   6.271 -0.1817  0.4602 -0.3713
  150SAPE  H17R16546   4.090   3.897   6.212  0.5567  1.8594  0.3988
  150SAPE  H17S16547   4.104   3.731   6.284  0.4637  0.1846  0.1536
  150SAPE  C21816548   4.285   3.796   6.192 -0.0009  0.1978  0.5044
  150SAPE  H18R16549   4.331   3.895   6.173  0.0527 -0.1613 -1.4966
  150SAPE  H18S16550   4.264   3.743   6.097  3.1531  0.9463 -0.7472
  150SAPE  C21916551   4.394   3.719   6.263 -0.0807  0.0038 -1.1551
  150SAPE  H19R16552   4.430   3.787   6.343 -1.9675  0.7457 -0.8859
  150SAPE  H19S16553   4.475   3.689   6.193 -1.5205 -0.3508 -2.7268
  150SAPE  C22016554   4.363   3.586   6.326 -0.1447 -0.5492 -0.6688
  150SAPE  H20R16555   4.334   3.513   6.247 -2.5499  1.5160 -1.8305
  150SAPE  H20S16556   4.295   3.591   6.413  1.4523 -1.9493  0.7335
  150SAPE  H20T16557   4.460   3.545   6.363  0.9666  1.5416 -1.1042
  150SAPE   C3316558   4.640   4.714   6.415 -0.5320  0.2449  0.0315
  150SAPE   H3X16559   4.738   4.708   6.467  0.2228 -0.7011 -1.4217
  150SAPE   H3Y16560   4.647   4.820   6.382  1.2058  0.5466  1.2599
  150SAPE   C3416561   4.646   4.609   6.300  0.6045  0.0255 -0.1976
  150SAPE   H4X16562   4.652   4.503   6.333  2.4377 -0.9046 -3.1721
  150SAPE   H4Y16563   4.735   4.633   6.240  0.5476 -0.6110 -0.5469
  150SAPE   C3516564   4.522   4.626   6.207  0.2130  0.4096  0.2796
  150SAPE   H5X16565   4.514   4.735   6.190  1.1851  0.8609  2.4548
  150SAPE   H5Y16566   4.436   4.586   6.266  2.2872  0.4797  3.5976
  150SAPE   C3616567   4.543   4.561   6.066 -0.4899 -0.1568 -0.0688
  150SAPE   H6X16568   4.442   4.562   6.019 -0.0908  3.2436 -1.0884
  150SAPE   H6Y16569   4.590   4.461   6.069  1.6734  0.7571  3.9842
  150SAPE   C3716570   4.629   4.652   5.974  0.6107  0.1811 -0.4865
  150SAPE   H7X16571   4.733   4.632   6.007  0.8634  1.2837 -0.5953
  150SAPE   H7Y16572   4.593   4.757   5.969 -1.0825 -0.4093 -1.7904
  150SAPE   C3816573   4.630   4.604   5.829  0.1353 -0.1698 -0.1270
  150SAPE   H8X16574   4.540   4.643   5.776 -1.0585 -1.4427  0.8739
  150SAPE   H8Y16575   4.640   4.495   5.812  0.7714 -0.3790  1.4033
  150SAPE   C3916576   4.746   4.663   5.747  0.2126 -0.2750  0.1428
  150SAPE   H9X16577   4.835   4.658   5.815  0.1773 -0.6364  0.1634
  150SAPE   H9Y16578   4.736   4.770   5.719 -0.0923 -0.3997 -0.2223
  150SAPE  C31016579   4.765   4.587   5.617  0.0661 -0.6620 -0.2426
  150SAPE  H10X16580   4.670   4.596   5.560 -0.1100 -0.0337  0.1423
  150SAPE  H10Y16581   4.781   4.482   5.650 -0.1124 -0.5644  0.1598
  150SAPE  C31116582   4.883   4.635   5.530  0.1334  0.2660  0.6391
  150SAPE  H11X16583   4.976   4.632   5.591 -0.2616 -0.1555  1.2382
  150SAPE  H11Y16584   4.858   4.741   5.507 -4.1638 -1.0133 -1.7572
  150SAPE  C31216585   4.892   4.560   5.399  0.1648  0.8014  0.7190
  150SAPE  H12X16586   4.848   4.609   5.309  1.1119 -1.4774 -1.0727
  150SAPE  H12Y16587   4.841   4.462   5.406 -1.2129  1.4524  0.1368
  150SAPE  C31316588   5.040   4.520   5.355  0.4263 -0.8769 -0.1079
  150SAPE  H13X16589   5.038   4.430   5.290  3.2271 -2.0999  1.3045
  150SAPE  H13Y16590   5.077   4.479   5.451 -0.7767  1.1088  1.2852
  150SAPE  C31416591   5.116   4.637   5.286 -0.3088  0.1113 -0.4695
  150SAPE  H14X16592   5.220   4.646   5.324 -0.7337  0.8910  0.5632
  150SAPE  H14Y16593   5.060   4.728   5.315 -2.4437 -1.4777  0.6540
  150SAPE  C31516594   5.090   4.625   5.141  0.5083 -0.2661 -0.4041
  150SAPE  H15X16595   4.982   4.598   5.133 -0.1280  2.0881 -0.2775
  150SAPE  H15Y16596   5.153   4.546   5.095  2.0713  0.1137  0.9755
  150SAPE  C31616597   5.124   4.748   5.054 -0.1580 -0.6826  0.1688
  150SAPE  H16X16598   5.094   4.838   5.112  0.9513 -0.0964 -0.1457
  150SAPE  H16Y16599   5.062   4.749   4.962  1.1857  1.7463 -0.8218
  150SAPE  C31716600   5.266   4.767   5.011  0.1418 -0.1454  0.2291
  150SAPE  H17X16601   5.297   4.681   4.947 -1.0392 -1.1596  0.9800
  150SAPE  H17Y16602   5.346   4.768   5.088  2.2406  0.2828 -1.8314
  150SAPE  C31816603   5.285   4.894   4.932  0.3447 -0.0025  0.1320
  150SAPE  H18X16604   5.240   4.882   4.832  3.2749  0.0076 -1.3051
  150SAPE  H18Y16605   5.394   4.889   4.908  0.3920 -0.0814  0.3528
  150SAPE  H18Z16606   5.248   4.987   4.981 -1.5412 -1.3826  1.4817
  151SAPE     N16607   6.069   2.636   6.730 -0.4044  0.4394  0.4501
  151SAPE   HN116608   6.078   2.583   6.819 -0.3807  0.9683  0.7681
  151SAPE   HN216609   6.134   2.596   6.659  0.3790  0.9194  0.8854
  151SAPE   HN316610   6.095   2.735   6.748  0.7652 -0.0188  1.3944
  151SAPE   C1216611   5.930   2.630   6.684 -0.1954 -0.4786 -0.0821
  151SAPE  H12A16612   5.918   2.708   6.605 -0.3258  0.5514  0.9296
  151SAPE  H12B16613   5.862   2.666   6.765 -2.0200 -1.4023 -1.1350
  151SAPE   C1116614   5.900   2.487   6.632  0.4184 -0.8184 -0.0572
  151SAPE  H11A16615   5.952   2.467   6.536 -1.2424  1.0760 -1.4107
  151SAPE  H11B16616   5.793   2.485   6.605  0.6133  0.2715 -1.0254
  151SAPE     P16617   5.833   2.341   6.831 -0.3735  0.1389  0.1094
  151SAPE   O1316618   5.885   2.221   6.905  0.0090 -0.0881 -0.0568
  151SAPE   O1416619   5.787   2.461   6.905  0.1181 -0.1597 -0.1060
  151SAPE   O1216620   5.940   2.385   6.727 -0.3748 -0.6924 -0.0102
  151SAPE   O1116621   5.712   2.288   6.744 -0.2768 -0.3421  0.1018
  151SAPE    C116622   5.721   2.172   6.670 -0.4157 -0.3031 -0.1658
  151SAPE    HA16623   5.798   2.171   6.590 -1.3122  2.6047 -1.1790
  151SAPE    HB16624   5.721   2.084   6.738 -1.6795  1.9606  3.0160
  151SAPE    C216625   5.588   2.160   6.594  0.3888  0.2883 -0.0084
  151SAPE    HS16626   5.499   2.144   6.659  0.4240  0.7300  0.1517
  151SAPE   O2116627   5.591   2.044   6.507 -0.2749  0.2513  0.5743
  151SAPE   C2116628   5.578   1.926   6.563  0.0091 -0.0897 -0.2414
  151SAPE   O2216629   5.575   1.906   6.687  0.1604  0.0015  0.1770
  151SAPE   C2216630   5.548   1.822   6.453  1.3060  0.3372 -0.1526
  151SAPE   H2R16631   5.519   1.884   6.366  0.9338 -0.4366 -0.5874
  151SAPE   H2S16632   5.637   1.759   6.432  0.6312  0.0193 -2.3063
  151SAPE    C316633   5.560   2.278   6.506  0.3538 -0.8639  0.1371
  151SAPE    HX16634   5.548   2.366   6.573 -2.8629  0.2342 -1.6731
  151SAPE    HY16635   5.462   2.268   6.457  0.2944  0.9938 -0.1928
  151SAPE   O3116636   5.667   2.303   6.407 -0.5631 -0.5598 -0.3603
  151SAPE   C3116637   5.628   2.403   6.331 -0.6470  0.5921  0.8429
  151SAPE   O3216638   5.522   2.460   6.340 -0.1614 -0.2830 -0.1402
  151SAPE   C3216639   5.749   2.460   6.245  0.4451 -0.0162  0.5368
  151SAPE   H2X16640   5.828   2.383   6.234 -0.7340 -1.2445  0.4502
  151SAPE   H2Y16641   5.782   2.553   6.297 -0.2220  0.6195 -0.1471
  151SAPE   C2316642   5.427   1.725   6.477  0.3748  0.3230  1.0125
  151SAPE   H3R16643   5.333   1.782   6.492  1.0757  1.8376 -0.0736
  151SAPE   H3S16644   5.440   1.677   6.577  2.0564  1.3045  1.3195
  151SAPE   C2416645   5.406   1.609   6.375 -0.1487 -0.4747 -0.1431
  151SAPE   H4R16646   5.410   1.646   6.270  0.2282 -1.5637 -0.5286
  151SAPE   H4S16647   5.300   1.577   6.376 -0.5086  0.5466 -1.6485
  151SAPE   C2516648   5.495   1.488   6.394  0.1993  0.5332 -0.5072
  151SAPE   H5R16649   5.451   1.429   6.477 -0.8540  1.0046 -0.7066
  151SAPE   C2616650   5.616   1.469   6.338 -0.0786  0.1121  0.3000
  151SAPE   H6R16651   5.672   1.381   6.371 -1.6960 -0.7437  0.8790
  151SAPE   C2716652   5.681   1.560   6.229 -0.0180  0.0718 -0.1899
  151SAPE   H7R16653   5.767   1.612   6.277  2.2941 -1.5532 -2.3370
  151SAPE   H7S16654   5.602   1.628   6.190 -0.8177 -1.7000 -1.7747
  151SAPE   C2816655   5.748   1.478   6.119  0.4651 -0.6965  0.4853
  151SAPE   H8R16656   5.846   1.434   6.140  0.8045  0.1175  0.6301
  151SAPE   C2916657   5.680   1.424   6.012 -0.5336 -0.0251  0.1318
  151SAPE   H9R16658   5.741   1.373   5.937  2.1405  0.4068  1.8747
  151SAPE  C21016659   5.534   1.439   5.976  0.3030  0.2270  0.2928
  151SAPE  H10R16660   5.486   1.515   6.042 -4.4616 -0.7193 -1.6898
  151SAPE  H10S16661   5.473   1.347   5.987 -0.7834  0.5180 -2.4960
  151SAPE  C21116662   5.519   1.473   5.830  0.0067 -0.3724 -0.1962
  151SAPE  H11R16663   5.476   1.574   5.820 -1.0427 -0.9005 -1.2872
  151SAPE  C21216664   5.537   1.389   5.727  0.4590  0.5240 -0.2218
  151SAPE  H12R16665   5.501   1.419   5.628 -1.3551 -2.4774 -0.6201
  151SAPE  C21316666   5.585   1.248   5.722  0.3452 -0.0978 -0.4745
  151SAPE  H13R16667   5.610   1.207   5.822  2.1256 -0.0527 -0.8696
  151SAPE  H13S16668   5.674   1.239   5.655 -1.1527  0.0048 -2.5822
  151SAPE  C21416669   5.468   1.158   5.673  0.2142  0.5120 -0.1261
  151SAPE  H14R16670   5.369   1.171   5.719  0.4004 -0.7956  0.7132
  151SAPE  C21516671   5.488   1.058   5.587 -0.0339  0.4245  0.1060
  151SAPE  H15R16672   5.400   1.012   5.540 -0.1080  1.7336 -1.0974
  151SAPE  C21616673   5.610   1.050   5.504  0.9452  1.1065  1.1008
  151SAPE  H16R16674   5.701   1.037   5.566  1.6240  0.8521  0.0821
  151SAPE  H16S16675   5.630   1.142   5.445 -0.8137  0.3238 -0.8159
  151SAPE  C21716676   5.602   0.931   5.405  0.1548  0.7240 -0.4524
  151SAPE  H17R16677   5.514   0.938   5.338 -1.2702  1.7089  1.4201
  151SAPE  H17S16678   5.590   0.837   5.463 -0.0912 -0.2445 -2.0068
  151SAPE  C21816679   5.724   0.927   5.316 -0.2108  0.5689  0.5365
  151SAPE  H18R16680   5.822   0.908   5.365 -0.0978 -2.5074 -0.6783
  151SAPE  H18S16681   5.744   1.018   5.255 -0.7755 -1.8533 -3.6161
  151SAPE  C21916682   5.717   0.811   5.215  0.3411  1.0797  0.8396
  151SAPE  H19R16683   5.630   0.820   5.146  1.3201 -2.4559 -1.0997
  151SAPE  H19S16684   5.705   0.715   5.269  0.6982  0.6615  0.1872
  151SAPE  C22016685   5.847   0.798   5.124  0.4406 -0.1530 -0.0444
  151SAPE  H20R16686   5.846   0.720   5.045  1.5831  0.2617 -0.4951
  151SAPE  H20S16687   5.940   0.783   5.184  1.6769 -0.1608 -1.8916
  151SAPE  H20T16688   5.877   0.893   5.075 -0.8982  0.6274  0.5993
  151SAPE   C3316689   5.715   2.501   6.100  0.1929 -0.0726 -0.1724
  151SAPE   H3X16690   5.797   2.568   6.067  0.9260 -0.8884 -0.0169
  151SAPE   H3Y16691   5.624   2.564   6.088 -0.5803 -0.9068  1.0547
  151SAPE   C3416692   5.709   2.376   6.003 -0.4552 -0.5760 -0.9865
  151SAPE   H4X16693   5.636   2.314   6.059 -0.9654  0.5446 -0.3937
  151SAPE   H4Y16694   5.811   2.332   6.005  0.1908  0.8191  1.9154
  151SAPE   C3516695   5.668   2.396   5.860 -0.2383  0.1100 -0.0287
  151SAPE   H5X16696   5.634   2.304   5.807  2.1272 -1.1785  0.5424
  151SAPE   H5Y16697   5.746   2.449   5.803 -1.0623  0.7590 -0.5783
  151SAPE   C3616698   5.541   2.479   5.855  0.3959  0.0495 -0.4642
  151SAPE   H6X16699   5.557   2.584   5.886  0.9900 -0.2331  0.2156
  151SAPE   H6Y16700   5.484   2.433   5.939  3.3134  0.7570  2.1061
  151SAPE   C3716701   5.466   2.481   5.721  0.2605  0.7678 -0.3275
  151SAPE   H7X16702   5.361   2.515   5.717  0.1102  0.1747 -1.8092
  151SAPE   H7Y16703   5.468   2.379   5.676  2.2248  0.5420  0.1789
  151SAPE   C3816704   5.527   2.566   5.621  0.8102  0.0716  0.0541
  151SAPE   H8X16705   5.618   2.519   5.577  0.5269 -1.5462  1.1131
  151SAPE   H8Y16706   5.536   2.666   5.668 -1.2167  0.5439 -0.4687
  151SAPE   C3916707   5.445   2.592   5.497 -0.0946 -0.4285 -0.3237
  151SAPE   H9X16708   5.499   2.665   5.432 -1.0984  0.7440  0.1157
  151SAPE   H9Y16709   5.351   2.647   5.522  0.3485  0.7288 -1.0694
  151SAPE  C31016710   5.405   2.467   5.416  0.2075 -0.3268 -0.4483
  151SAPE  H10X16711   5.330   2.404   5.469  0.1081 -1.1714 -1.5731
  151SAPE  H10Y16712   5.496   2.407   5.398  0.7174  0.5690 -0.9188
  151SAPE  C31116713   5.347   2.519   5.279 -0.3248  0.3021 -0.3117
  151SAPE  H11X16714   5.433   2.547   5.214  0.4522  1.1348  1.0308
  151SAPE  H11Y16715   5.289   2.611   5.299 -0.5404  0.0613  0.1727
  151SAPE  C31216716   5.261   2.417   5.212  0.6175 -0.3038 -0.0887
  151SAPE  H12X16717   5.201   2.463   5.131  1.0735 -1.4104 -1.0948
  151SAPE  H12Y16718   5.180   2.377   5.277 -1.0469  2.2722 -0.4257
  151SAPE  C31316719   5.340   2.317   5.127 -0.1831  0.8539 -0.0249
  151SAPE  H13X16720   5.393   2.254   5.202 -2.0933  0.8018  1.3552
  151SAPE  H13Y16721   5.413   2.374   5.065 -0.2148  0.6759 -0.2291
  151SAPE  C31416722   5.254   2.220   5.042 -0.2835 -0.4121 -0.0640
  151SAPE  H14X16723   5.200   2.278   4.965 -2.1330 -1.6249  0.2544
  151SAPE  H14Y16724   5.186   2.166   5.111 -0.2325  1.3698  1.4609
  151SAPE  C31516725   5.344   2.103   4.977 -0.4471  0.8518 -0.1590
  151SAPE  H15X16726   5.403   2.054   5.057  0.2614  3.5858  1.1208
  151SAPE  H15Y16727   5.414   2.155   4.908  0.4588  0.5070  0.4903
  151SAPE  C31616728   5.270   1.998   4.896  0.1402  0.0384  0.4721
  151SAPE  H16X16729   5.220   2.060   4.819  0.0048  0.0403  0.5617
  151SAPE  H16Y16730   5.198   1.947   4.965  0.1190  0.9142  1.1068
  151SAPE  C31716731   5.360   1.901   4.813 -1.0918  1.0819  0.3054
  151SAPE  H17X16732   5.281   1.832   4.775 -1.6212  1.3571  0.8949
  151SAPE  H17Y16733   5.424   1.849   4.888 -2.2478  0.7383  1.0819
  151SAPE  C31816734   5.444   1.967   4.702  0.1489  0.4675 -0.7618
  151SAPE  H18X16735   5.509   2.040   4.754 -0.2717  1.5150 -1.6875
  151SAPE  H18Y16736   5.373   2.023   4.638 -0.2621 -0.7912 -1.4372
  151SAPE  H18Z16737   5.488   1.886   4.639 -2.6079 -0.0430 -2.1725
  152SAPE     N16738   5.561   5.971   7.383 -0.3877  0.2810 -0.3794
  152SAPE   HN116739   5.554   5.912   7.468  0.0028 -1.5480 -1.5785
  152SAPE   HN216740   5.629   6.048   7.405  0.7659 -1.1840  1.5059
  152SAPE   HN316741   5.473   6.013   7.348 -1.4969 -2.8185 -1.5561
  152SAPE   C1216742   5.630   5.889   7.284  0.0215 -0.3983  0.3398
  152SAPE  H12A16743   5.647   5.958   7.199 -2.1624  0.8447  0.8268
  152SAPE  H12B16744   5.567   5.804   7.249  0.1827 -1.5561  2.7169
  152SAPE   C1116745   5.756   5.832   7.337 -0.5653  0.5634 -0.0883
  152SAPE  H11A16746   5.752   5.787   7.438  0.0442  0.6070 -0.0409
  152SAPE  H11B16747   5.816   5.923   7.360  1.2122 -1.4685  4.6692
  152SAPE     P16748   5.830   5.608   7.239 -0.1473  0.4135 -0.3848
  152SAPE   O1316749   5.923   5.572   7.349 -0.1615 -0.4987  0.3409
  152SAPE   O1416750   5.690   5.549   7.243 -0.3517  0.0032 -0.1124
  152SAPE   O1216751   5.820   5.763   7.231 -0.4991 -0.5071  0.0743
  152SAPE   O1116752   5.901   5.579   7.095  0.0606  0.9320 -0.5805
  152SAPE    C116753   6.035   5.624   7.077  0.6051  0.0981  0.2965
  152SAPE    HA16754   6.076   5.686   7.159  0.6959  1.8431 -1.0178
  152SAPE    HB16755   6.105   5.538   7.069  0.3141 -0.2244  1.0902
  152SAPE    C216756   6.041   5.702   6.939 -0.0850  0.4046 -0.1992
  152SAPE    HS16757   6.146   5.738   6.927  0.0067  0.1777 -0.1041
  152SAPE   O2116758   5.952   5.810   6.954  0.1018 -0.2583  0.3034
  152SAPE   C2116759   6.001   5.905   7.027 -0.0681 -0.2073 -0.7794
  152SAPE   O2216760   6.115   5.920   7.058  0.1610  0.2506  0.2252
  152SAPE   C2216761   5.899   6.015   7.053  0.0552  0.0815  0.3954
  152SAPE   H2R16762   5.802   5.971   7.020  1.0559 -2.1267  0.2469
  152SAPE   H2S16763   5.908   6.043   7.160  0.3753  1.0009  0.1392
  152SAPE    C316764   6.002   5.618   6.815  0.4653  0.0992 -0.5411
  152SAPE    HX16765   5.904   5.565   6.823  1.5188 -2.2560 -2.3440
  152SAPE    HY16766   6.079   5.541   6.835 -0.3225 -0.3083  1.0759
  152SAPE   O3116767   6.027   5.684   6.698  0.3722  0.5129 -0.2277
  152SAPE   C3116768   5.919   5.727   6.620 -0.6006  0.2849  0.3035
  152SAPE   O3216769   5.808   5.723   6.654  0.0497 -0.5225  0.1057
  152SAPE   C3216770   5.981   5.780   6.497  0.0820 -0.2131  0.4300
  152SAPE   H2X16771   6.032   5.695   6.445  0.2544 -1.0750  1.9489
  152SAPE   H2Y16772   6.056   5.857   6.524  1.7526 -1.6182 -0.0003
  152SAPE   C2316773   5.938   6.154   6.983  0.0619  0.9462 -0.5574
  152SAPE   H3R16774   6.035   6.192   7.019 -1.4649  1.8979  3.0257
  152SAPE   H3S16775   5.848   6.214   7.011 -1.0340 -0.9388  0.1825
  152SAPE   C2416776   5.943   6.144   6.827 -0.1441  1.8270 -1.1533
  152SAPE   H4R16777   6.022   6.069   6.803 -0.7942  1.2680 -1.5729
  152SAPE   H4S16778   5.972   6.244   6.790  1.5887  0.7165 -2.9976
  152SAPE   C2516779   5.822   6.102   6.748  0.3150 -0.8531  0.1812
  152SAPE   H5R16780   5.753   6.044   6.811  1.9951  1.1019  4.1909
  152SAPE   C2616781   5.788   6.136   6.627 -0.5633 -0.2720  0.3827
  152SAPE   H6R16782   5.707   6.087   6.570 -0.5626 -0.3396  0.4391
  152SAPE   C2716783   5.859   6.228   6.539  0.0957 -0.2998  0.4265
  152SAPE   H7R16784   5.869   6.182   6.438 -0.4840 -1.8412  1.0320
  152SAPE   H7S16785   5.961   6.251   6.578  0.2374 -0.0595 -0.0771
  152SAPE   C2816786   5.788   6.370   6.534 -0.4611  0.7142 -0.6038
  152SAPE   H8R16787   5.772   6.413   6.634 -0.8340  0.1325 -0.4058
  152SAPE   C2916788   5.773   6.451   6.433  0.2071 -0.6410  0.5235
  152SAPE   H9R16789   5.729   6.550   6.456 -0.6785 -1.2660  1.6062
  152SAPE  C21016790   5.816   6.420   6.293 -0.4732 -0.2258  0.9795
  152SAPE  H10R16791   5.909   6.358   6.291 -0.1914  0.1963 -1.1435
  152SAPE  H10S16792   5.844   6.515   6.244 -1.2239 -0.5534 -0.0991
  152SAPE  C21116793   5.720   6.352   6.198 -0.1395  0.3932 -0.0797
  152SAPE  H11R16794   5.622   6.317   6.233  1.1160 -1.7061  1.5674
  152SAPE  C21216795   5.738   6.321   6.070 -0.2017 -0.3419 -0.4130
  152SAPE  H12R16796   5.663   6.254   6.026 -1.2715  1.2548 -1.1238
  152SAPE  C21316797   5.867   6.342   5.992 -0.1643 -0.6409  0.4659
  152SAPE  H13R16798   5.940   6.258   5.989  3.3684  2.2216 -1.2479
  152SAPE  H13S16799   5.924   6.423   6.042  0.3279 -0.5772 -0.1808
  152SAPE  C21416800   5.820   6.383   5.848 -0.2218 -0.0280  0.3638
  152SAPE  H14R16801   5.804   6.492   5.844  0.5103  0.0618 -0.5578
  152SAPE  C21516802   5.789   6.295   5.751 -0.3708  0.5372 -0.7836
  152SAPE  H15R16803   5.765   6.337   5.652  1.2264 -3.0601 -2.8636
  152SAPE  C21616804   5.809   6.143   5.748  0.1376  0.9714  0.3571
  152SAPE  H16R16805   5.803   6.091   5.846  0.5756 -2.0548 -1.1231
  152SAPE  H16S16806   5.914   6.119   5.722 -0.5205 -2.7356  0.6343
  152SAPE  C21716807   5.713   6.065   5.647 -0.0092 -0.0209  0.5335
  152SAPE  H17R16808   5.607   6.066   5.680 -0.0972 -1.8500  0.3951
  152SAPE  H17S16809   5.746   5.960   5.658 -1.0099 -0.4177 -0.1419
  152SAPE  C21816810   5.724   6.113   5.499  0.0096  0.3063  0.4447
  152SAPE  H18R16811   5.690   6.218   5.508 -2.6798 -0.5376  0.8597
  152SAPE  H18S16812   5.647   6.057   5.442  1.5994 -1.4501 -0.0697
  152SAPE  C21916813   5.865   6.083   5.438  0.1226 -0.4327 -0.0452
  152SAPE  H19R16814   5.912   5.986   5.463  3.0447  1.2158  1.2752
  152SAPE  H19S16815   5.932   6.162   5.476 -0.1975  0.6555 -1.6214
  152SAPE  C22016816   5.861   6.079   5.287  0.7332  0.2729 -0.1486
  152SAPE  H20R16817   5.959   6.064   5.237  0.9222 -0.4437  0.4146
  152SAPE  H20S16818   5.822   6.176   5.252  2.7879  1.4896  0.7587
  152SAPE  H20T16819   5.799   5.997   5.246 -0.7585  1.8630 -1.1608
  152SAPE   C3316820   5.878   5.848   6.403  0.1198 -0.0232 -0.2582
  152SAPE   H3X16821   5.944   5.897   6.328 -1.6265  2.9436  0.0070
  152SAPE   H3Y16822   5.805   5.914   6.455  2.2414  2.0103  0.3034
  152SAPE   C3416823   5.790   5.747   6.310 -0.3549 -0.8729  0.5804
  152SAPE   H4X16824   5.720   5.682   6.366  0.2658  0.8816  3.6291
  152SAPE   H4Y16825   5.857   5.676   6.257  0.1536  1.2813 -1.8947
  152SAPE   C3516826   5.727   5.821   6.186 -0.5581 -0.1681  0.1172
  152SAPE   H5X16827   5.794   5.896   6.140 -0.3357 -1.3004 -1.5216
  152SAPE   H5Y16828   5.640   5.876   6.226 -0.0016  0.8740 -0.0755
  152SAPE   C3616829   5.696   5.728   6.071  0.1633  0.3650  0.4266
  152SAPE   H6X16830   5.661   5.627   6.101 -1.3377  1.7440  3.7901
  152SAPE   H6Y16831   5.797   5.713   6.028  1.0968 -0.7181  2.8417
  152SAPE   C3716832   5.600   5.781   5.962 -1.1368  0.1847 -0.0009
  152SAPE   H7X16833   5.624   5.879   5.916 -0.7036 -0.8186 -2.0351
  152SAPE   H7Y16834   5.504   5.796   6.015 -1.1284  1.5271 -0.3155
  152SAPE   C3816835   5.594   5.683   5.846 -0.3583  0.1640 -0.3311
  152SAPE   H8X16836   5.586   5.578   5.880 -0.9696 -0.3129 -1.8563
  152SAPE   H8Y16837   5.689   5.702   5.792 -1.4129 -1.5698 -2.9748
  152SAPE   C3916838   5.483   5.699   5.740  0.2108 -0.8111 -0.5120
  152SAPE   H9X16839   5.478   5.805   5.706 -0.2856  0.3786  2.9128
  152SAPE   H9Y16840   5.384   5.678   5.786 -0.7666 -0.1886 -2.2155
  152SAPE  C31016841   5.493   5.609   5.618 -0.5990 -0.4070  0.1531
  152SAPE  H10X16842   5.516   5.503   5.640 -0.4650 -0.2740  0.6893
  152SAPE  H10Y16843   5.579   5.647   5.558 -1.3411 -0.5468 -1.0221
  152SAPE  C31116844   5.369   5.607   5.523 -0.0238  0.1066  0.4293
  152SAPE  H11X16845   5.344   5.712   5.494  0.4951  0.0018 -0.4330
  152SAPE  H11Y16846   5.283   5.553   5.567  0.6521 -3.0440 -1.7419
  152SAPE  C31216847   5.395   5.535   5.385 -0.3003 -0.0065  0.0102
  152SAPE  H12X16848   5.464   5.449   5.397 -0.3725 -0.1156 -0.3534
  152SAPE  H12Y16849   5.451   5.609   5.324 -1.9595  1.8901  0.6921
  152SAPE  C31316850   5.265   5.498   5.325  0.8318 -0.2194  0.5473
  152SAPE  H13X16851   5.217   5.588   5.280  0.3464 -0.7578 -0.0375
  152SAPE  H13Y16852   5.213   5.455   5.413  2.0573 -0.9896  0.9156
  152SAPE  C31416853   5.277   5.401   5.206 -0.3906 -0.0085 -0.4828
  152SAPE  H14X16854   5.343   5.320   5.242  3.0669  2.8369  0.1202
  152SAPE  H14Y16855   5.338   5.446   5.124  0.7664 -2.5195 -1.0828
  152SAPE  C31516856   5.142   5.348   5.144  0.4271 -0.3657 -0.4213
  152SAPE  H15X16857   5.093   5.290   5.225  1.4709 -2.5203 -1.2350
  152SAPE  H15Y16858   5.167   5.275   5.065 -0.1836 -1.6095  0.4992
  152SAPE  C31616859   5.064   5.459   5.077  0.9892  0.2038  0.1710
  152SAPE  H16X16860   5.125   5.499   4.993 -0.0605  2.3272  0.3525
  152SAPE  H16Y16861   5.048   5.548   5.141 -1.0234 -1.4554  2.1504
  152SAPE  C31716862   4.925   5.410   5.021 -0.6653  0.3205 -0.3110
  152SAPE  H17X16863   4.855   5.439   5.103 -0.4702  0.6081 -0.2436
  152SAPE  H17Y16864   4.921   5.300   5.009 -0.4432  0.3472 -0.6363
  152SAPE  C31816865   4.884   5.469   4.885  0.3865 -0.3458  0.1816
  152SAPE  H18X16866   4.973   5.481   4.819 -0.1313  0.4754 -0.3875
  152SAPE  H18Y16867   4.848   5.573   4.902  0.6163 -0.1381 -0.5877
  152SAPE  H18Z16868   4.818   5.399   4.831  1.3492 -1.1481  0.0258
  153SAPE     N16869   6.279   4.851   6.657  0.0953 -0.6795 -0.8754
  153SAPE   HN116870   6.224   4.868   6.743  1.1110  0.0213 -0.3471
  153SAPE   HN216871   6.353   4.924   6.659 -1.2806  0.7427 -0.0756
  153SAPE   HN316872   6.210   4.874   6.582 -0.2830  1.7515  0.1416
  153SAPE   C1216873   6.339   4.714   6.651 -0.2309 -0.1182  0.1753
  153SAPE  H12A16874   6.432   4.724   6.591  0.9787 -2.8376  1.4345
  153SAPE  H12B16875   6.266   4.647   6.601  0.8691 -1.6427  0.5107
  153SAPE   C1116876   6.372   4.657   6.796  0.3843 -0.0594  0.1869
  153SAPE  H11A16877   6.458   4.711   6.840  0.8443 -0.9727  0.4375
  153SAPE  H11B16878   6.409   4.553   6.782  0.1001 -0.0358 -0.8155
  153SAPE     P16879   6.189   4.521   6.927  0.0974 -0.2110  0.0551
  153SAPE   O1316880   6.288   4.421   6.970  0.4855 -0.2135  0.5172
  153SAPE   O1416881   6.073   4.547   7.019 -0.3826 -0.1546  0.4157
  153SAPE   O1216882   6.250   4.660   6.872  0.1520 -0.0621 -0.2408
  153SAPE   O1116883   6.132   4.459   6.795  0.9269 -0.2313  0.6872
  153SAPE    C116884   5.991   4.444   6.751 -0.0790  0.0797 -0.5327
  153SAPE    HA16885   5.980   4.347   6.698  3.0468  0.2037 -1.5920
  153SAPE    HB16886   5.918   4.442   6.835 -0.9818  2.6572 -1.1658
  153SAPE    C216887   5.937   4.558   6.660  0.4795  0.5694 -0.2652
  153SAPE    HS16888   5.830   4.543   6.635  0.3914  1.6759 -0.5879
  153SAPE   O2116889   6.016   4.565   6.543  0.5846  0.4127  0.1603
  153SAPE   C2116890   5.989   4.467   6.454  0.4807 -0.5309  0.2653
  153SAPE   O2216891   5.890   4.397   6.457 -0.3384  0.1822 -0.1574
  153SAPE   C2216892   6.105   4.450   6.357  0.1615 -0.0944  0.0976
  153SAPE   H2R16893   6.179   4.530   6.377  0.7705 -0.1028 -1.9281
  153SAPE   H2S16894   6.160   4.353   6.368 -0.2921 -0.2942  0.6402
  153SAPE    C316895   5.937   4.696   6.735  0.5628  0.6489  0.5021
  153SAPE    HX16896   6.043   4.725   6.751  0.7544  0.1868  0.0670
  153SAPE    HY16897   5.887   4.679   6.833 -0.4876 -0.6921 -0.2438
  153SAPE   O3116898   5.859   4.800   6.664 -0.3178 -0.5033  1.0069
  153SAPE   C3116899   5.920   4.876   6.570  0.6285  0.2033 -0.5582
  153SAPE   O3216900   6.036   4.888   6.548 -0.5273 -0.0982 -0.0240
  153SAPE   C3216901   5.814   4.956   6.500 -0.0300 -0.1180 -0.7244
  153SAPE   H2X16902   5.814   5.060   6.540 -0.2654 -0.1055 -0.7544
  153SAPE   H2Y16903   5.709   4.924   6.518  0.1094  0.6112  1.9090
  153SAPE   C2316904   6.080   4.483   6.207 -0.6971 -1.0707  0.0811
  153SAPE   H3R16905   6.175   4.501   6.151  0.0483  4.2728  2.3945
  153SAPE   H3S16906   6.038   4.586   6.210 -0.1777 -0.8622  2.2162
  153SAPE   C2416907   5.984   4.393   6.127 -0.4434 -0.4167  0.2174
  153SAPE   H4R16908   5.898   4.359   6.187 -1.5266 -2.4335 -2.3112
  153SAPE   H4S16909   6.053   4.306   6.121 -0.7211 -0.7465  1.4830
  153SAPE   C2516910   5.953   4.442   5.988 -0.0299  0.7224 -0.3323
  153SAPE   H5R16911   5.917   4.546   5.989  1.8804  1.4269 -0.3050
  153SAPE   C2616912   5.940   4.360   5.880 -0.3989  0.2463 -0.0794
  153SAPE   H6R16913   5.927   4.416   5.786  1.6815 -0.4365 -0.8382
  153SAPE   C2716914   5.984   4.210   5.871  0.3940 -0.6881 -0.5499
  153SAPE   H7R16915   5.891   4.150   5.876  0.6611 -1.2068 -1.5321
  153SAPE   H7S16916   6.031   4.172   5.964  1.6256  0.2575 -0.7702
  153SAPE   C2816917   6.062   4.180   5.753  0.9863 -0.0670  0.6048
  153SAPE   H8R16918   6.167   4.213   5.763  1.0836  0.1783 -0.9411
  153SAPE   C2916919   6.016   4.131   5.635  0.1042 -0.0618 -0.6584
  153SAPE   H9R16920   6.090   4.107   5.557 -0.3739 -0.9405 -0.8584
  153SAPE  C21016921   5.873   4.103   5.593 -0.0496 -0.1895  0.2604
  153SAPE  H10R16922   5.833   4.189   5.535 -1.1130  0.4343  1.8224
  153SAPE  H10S16923   5.812   4.094   5.686  3.0194 -2.5500  2.2325
  153SAPE  C21116924   5.852   3.978   5.512  0.3656 -0.5583  0.1754
  153SAPE  H11R16925   5.946   3.920   5.509 -0.3161 -1.7411  0.7754
  153SAPE  C21216926   5.743   3.934   5.448 -0.1494  0.2768 -0.2530
  153SAPE  H12R16927   5.746   3.841   5.388 -0.2668  1.1029 -1.5920
  153SAPE  C21316928   5.608   4.004   5.452  0.7768 -0.3077  0.1313
  153SAPE  H13R16929   5.616   4.090   5.382  0.1682 -1.4659 -1.4188
  153SAPE  H13S16930   5.595   4.048   5.553 -0.3005 -0.2271 -0.0347
  153SAPE  C21416931   5.485   3.915   5.434 -0.0386 -0.2034  0.9336
  153SAPE  H14R16932   5.447   3.869   5.526 -1.1902 -0.8409  0.1674
  153SAPE  C21516933   5.416   3.908   5.317 -0.9740 -0.7533  0.5666
  153SAPE  H15R16934   5.344   3.827   5.297 -0.5770 -0.4007 -2.7526
  153SAPE  C21616935   5.446   3.975   5.186  0.5318  0.2201 -0.3616
  153SAPE  H16R16936   5.523   3.913   5.136  2.5697  2.2255  0.1487
  153SAPE  H16S16937   5.506   4.067   5.196  1.7647 -0.6273  0.3869
  153SAPE  C21716938   5.313   3.990   5.114  0.9111 -0.4944 -0.0923
  153SAPE  H17R16939   5.264   3.891   5.098 -0.2022  0.0556 -0.2225
  153SAPE  H17S16940   5.335   4.028   5.012  0.1949  0.2996  0.0284
  153SAPE  C21816941   5.199   4.085   5.177 -0.8638  0.4275 -0.4683
  153SAPE  H18R16942   5.240   4.189   5.181  0.0950  0.0338  1.0753
  153SAPE  H18S16943   5.181   4.054   5.282  0.9121 -0.7315 -0.4599
  153SAPE  C21916944   5.070   4.077   5.104 -0.0986 -0.0316 -0.8286
  153SAPE  H19R16945   5.026   3.976   5.097 -1.6065  0.4822  0.5516
  153SAPE  H19S16946   5.068   4.118   5.001  0.0030 -0.3362 -0.9548
  153SAPE  C22016947   4.960   4.150   5.185 -0.3345 -0.3171 -0.1082
  153SAPE  H20R16948   4.862   4.125   5.141 -1.0137 -0.3936  1.4100
  153SAPE  H20S16949   4.977   4.260   5.185 -0.8201 -0.2017 -1.9368
  153SAPE  H20T16950   4.947   4.120   5.291  0.7739  1.5183  0.5966
  153SAPE   C3316951   5.842   4.980   6.347  0.0418 -0.8728 -0.4967
  153SAPE   H3X16952   5.949   5.003   6.334 -0.1361  0.7676  0.6444
  153SAPE   H3Y16953   5.785   5.072   6.325 -1.4764 -0.4584  4.1001
  153SAPE   C3416954   5.781   4.874   6.253 -0.2156 -0.6871  0.9807
  153SAPE   H4X16955   5.671   4.867   6.273 -0.2892  0.9324  1.2149
  153SAPE   H4Y16956   5.847   4.785   6.254  0.7172 -0.0750 -1.3896
  153SAPE   C3516957   5.794   4.922   6.110 -0.3041  0.1941  0.7324
  153SAPE   H5X16958   5.757   5.025   6.089  0.1105 -0.3086 -3.2769
  153SAPE   H5Y16959   5.728   4.858   6.048 -1.8129  1.8370  0.5487
  153SAPE   C3616960   5.945   4.921   6.055 -0.7125 -0.0765 -0.1485
  153SAPE   H6X16961   6.001   4.833   6.095  1.2408  1.3225  0.3028
  153SAPE   H6Y16962   5.984   5.020   6.084  0.0845 -0.4340  0.0128
  153SAPE   C3716963   5.955   4.921   5.906  0.1518  0.4143 -0.0803
  153SAPE   H7X16964   6.061   4.919   5.872 -0.4625  0.6983 -2.0926
  153SAPE   H7Y16965   5.912   5.012   5.861 -0.8283  0.2837  0.5615
  153SAPE   C3816966   5.901   4.810   5.834 -0.3303 -0.1172 -0.2764
  153SAPE   H8X16967   5.793   4.790   5.846 -0.5104  0.9805 -0.0185
  153SAPE   H8Y16968   5.945   4.719   5.881 -0.0356  0.6779  1.0299
  153SAPE   C3916969   5.943   4.817   5.688  0.1288 -0.2632 -0.6196
  153SAPE   H9X16970   6.051   4.813   5.664  0.4799  0.3963  0.7617
  153SAPE   H9Y16971   5.898   4.912   5.652 -0.8913 -0.6755 -0.4668
  153SAPE  C31016972   5.872   4.715   5.612 -0.4261  0.3121  0.3509
  153SAPE  H10X16973   5.762   4.723   5.596 -0.5541  0.1663  1.1302
  153SAPE  H10Y16974   5.897   4.618   5.660 -1.4726  0.1095  0.5101
  153SAPE  C31116975   5.945   4.708   5.474  0.0749  0.5109  1.2007
  153SAPE  H11X16976   6.048   4.668   5.489 -0.0565  0.0416  0.8634
  153SAPE  H11Y16977   5.953   4.812   5.436  1.4352  0.4204  1.1858
  153SAPE  C31216978   5.862   4.628   5.364  0.2749  0.0007 -0.8332
  153SAPE  H12X16979   5.910   4.644   5.265  0.9795 -1.5069 -0.7533
  153SAPE  H12Y16980   5.761   4.674   5.356  1.7855  3.6304 -1.3439
  153SAPE  C31316981   5.843   4.483   5.406  0.4453 -1.0330 -0.8257
  153SAPE  H13X16982   5.749   4.462   5.461  1.0200  1.0754  1.1176
  153SAPE  H13Y16983   5.916   4.453   5.484  2.5153  0.2037 -2.1839
  153SAPE  C31416984   5.864   4.384   5.289  0.1329 -0.5389 -0.1148
  153SAPE  H14X16985   5.892   4.283   5.326  2.7770 -0.0803 -0.6879
  153SAPE  H14Y16986   5.928   4.421   5.206  0.7649 -0.4898  0.3945
  153SAPE  C31516987   5.730   4.352   5.218  0.5394  0.0639  0.0660
  153SAPE  H15X16988   5.677   4.449   5.201 -1.8358 -1.3815 -1.4607
  153SAPE  H15Y16989   5.677   4.292   5.294  2.1646 -1.1093  0.3227
  153SAPE  C31616990   5.735   4.272   5.090  0.1916  0.4430  0.5635
  153SAPE  H16X16991   5.738   4.164   5.117  2.6063  0.7379  1.7145
  153SAPE  H16Y16992   5.818   4.293   5.019  0.0426 -3.1440 -0.9034
  153SAPE  C31716993   5.616   4.303   4.987  0.3664  0.3297 -0.3904
  153SAPE  H17X16994   5.648   4.399   4.940  2.7344  0.2719  0.9305
  153SAPE  H17Y16995   5.534   4.325   5.058  1.1834 -0.3722  0.8022
  153SAPE  C31816996   5.582   4.200   4.882 -0.0615  0.6178 -0.1358
  153SAPE  H18X16997   5.678   4.170   4.835 -0.8522  0.2220 -1.5384
  153SAPE  H18Y16998   5.521   4.248   4.803 -1.1916  0.3819  0.5766
  153SAPE  H18Z16999   5.526   4.112   4.921  1.6184 -0.1787  0.5742
  154SAPE     N17000   4.737   1.386   7.823 -0.1625  0.6105 -0.2848
  154SAPE   HN117001   4.822   1.364   7.766  0.0359 -0.6967  0.4747
  154SAPE   HN217002   4.758   1.457   7.895 -1.2107 -0.1870  0.8318
  154SAPE   HN317003   4.712   1.299   7.875  1.0509  1.4153  1.7316
  154SAPE   C1217004   4.616   1.425   7.735  1.3480  0.3824 -0.0324
  154SAPE  H12A17005   4.542   1.461   7.810  0.6143  0.1137 -0.6107
  154SAPE  H12B17006   4.584   1.330   7.687  2.6693 -1.2576  2.1155
  154SAPE   C1117007   4.653   1.529   7.630 -0.7657 -0.5483  0.0574
  154SAPE  H11A17008   4.564   1.540   7.565 -1.1896 -3.7503 -0.0568
  154SAPE  H11B17009   4.740   1.489   7.573  0.1433 -0.3188  1.2414
  154SAPE     P17010   4.730   1.781   7.621 -0.0718 -0.1410  0.1257
  154SAPE   O1317011   4.608   1.863   7.622  0.9013 -0.3702 -0.3651
  154SAPE   O1417012   4.853   1.849   7.669 -0.3868  0.3292 -0.1669
  154SAPE   O1217013   4.694   1.647   7.698 -0.4740  0.5249 -0.0950
  154SAPE   O1117014   4.748   1.736   7.475 -0.2800  0.1363 -0.2322
  154SAPE    C117015   4.728   1.829   7.365 -0.2851 -0.3624 -0.0226
  154SAPE    HA17016   4.748   1.935   7.392 -1.9002 -0.0869  0.2127
  154SAPE    HB17017   4.804   1.811   7.286  0.9942  2.5285  0.4144
  154SAPE    C217018   4.587   1.840   7.307  0.5511  0.7175  0.2958
  154SAPE    HS17019   4.522   1.891   7.382 -0.0548  0.0970  0.1988
  154SAPE   O2117020   4.528   1.708   7.288  0.4102  0.0062  0.1417
  154SAPE   C2117021   4.404   1.698   7.271 -0.0546 -0.0747  0.9233
  154SAPE   O2217022   4.325   1.793   7.276  0.6229  0.4493 -0.2721
  154SAPE   C2217023   4.371   1.552   7.231  0.2286 -0.2265 -0.3561
  154SAPE   H2R17024   4.450   1.520   7.160  0.0160  1.6415 -1.5063
  154SAPE   H2S17025   4.374   1.493   7.325 -2.6597 -0.6394 -0.4245
  154SAPE    C317026   4.571   1.934   7.185 -0.5761  0.2598 -0.3607
  154SAPE    HX17027   4.610   2.034   7.215  0.5838  0.7043 -3.0340
  154SAPE    HY17028   4.462   1.944   7.164 -1.8792  0.2580  4.8712
  154SAPE   O3117029   4.650   1.883   7.076  0.2633  0.1513  0.2820
  154SAPE   C3117030   4.776   1.935   7.057  0.1491 -0.2942  0.1811
  154SAPE   O3217031   4.824   2.027   7.121  0.6749 -0.3702  0.0115
  154SAPE   C3217032   4.845   1.876   6.934  0.6044 -0.4512  0.5090
  154SAPE   H2X17033   4.767   1.859   6.856 -1.1024  0.9889  1.8085
  154SAPE   H2Y17034   4.899   1.782   6.957  1.0131 -0.3785 -0.1200
  154SAPE   C2317035   4.232   1.535   7.154 -0.0693  1.0550 -0.4949
  154SAPE   H3R17036   4.150   1.593   7.201 -0.5656 -0.3957  0.4967
  154SAPE   H3S17037   4.190   1.433   7.167 -0.0949  1.1307  0.0369
  154SAPE   C2417038   4.244   1.557   7.006 -0.2010 -0.3087 -0.4322
  154SAPE   H4R17039   4.147   1.539   6.956 -0.2788 -0.1650 -0.3346
  154SAPE   H4S17040   4.324   1.487   6.973  1.0586  1.5558 -1.4996
  154SAPE   C2517041   4.272   1.702   6.976 -0.7351  0.1437  0.4114
  154SAPE   H5R17042   4.208   1.771   7.033  0.4080  1.2332  0.4391
  154SAPE   C2617043   4.377   1.741   6.899  0.3277  0.2637  0.0509
  154SAPE   H6R17044   4.384   1.847   6.872  2.0435  0.0352 -0.5733
  154SAPE   C2717045   4.472   1.652   6.821  0.0368  0.0122  0.7052
  154SAPE   H7R17046   4.463   1.546   6.853  1.4230  0.6582  3.5608
  154SAPE   H7S17047   4.574   1.687   6.846 -0.5711  2.7254 -0.2642
  154SAPE   C2817048   4.434   1.668   6.678  0.1562 -0.0555  0.2939
  154SAPE   H8R17049   4.327   1.651   6.657  0.1897 -2.0859  1.5179
  154SAPE   C2917050   4.507   1.685   6.571  0.3376 -0.2698  0.0808
  154SAPE   H9R17051   4.454   1.686   6.474  0.2629 -2.5624  0.0368
  154SAPE  C21017052   4.654   1.694   6.571 -0.2976  0.0614 -0.1544
  154SAPE  H10R17053   4.697   1.638   6.486 -1.2964  1.4816 -1.6625
  154SAPE  H10S17054   4.699   1.645   6.661 -0.3067 -0.1066 -0.2417
  154SAPE  C21117055   4.717   1.829   6.559  0.2734 -0.0797 -0.2323
  154SAPE  H11R17056   4.725   1.893   6.648  1.2226  0.6286 -0.8068
  154SAPE  C21217057   4.771   1.894   6.448 -0.4144  0.0751 -0.6609
  154SAPE  H12R17058   4.795   2.001   6.463 -2.2302  0.2823  1.3166
  154SAPE  C21317059   4.782   1.831   6.310 -0.6964 -0.9001 -0.2705
  154SAPE  H13R17060   4.679   1.803   6.279 -0.0225 -1.4342 -2.1534
  154SAPE  H13S17061   4.835   1.734   6.317  0.1380 -0.5255 -1.1754
  154SAPE  C21417062   4.843   1.929   6.222  0.2252 -0.8219  0.2203
  154SAPE  H14R17063   4.805   2.032   6.234  1.5396  0.2026 -3.2476
  154SAPE  C21517064   4.928   1.919   6.119  0.2276 -0.4431 -0.1136
  154SAPE  H15R17065   4.955   2.014   6.070  0.2310  1.0874  2.6328
  154SAPE  C21617066   4.991   1.789   6.057  0.5107  0.4326  0.4644
  154SAPE  H16R17067   4.985   1.699   6.122  0.4660 -0.6825 -1.0047
  154SAPE  H16S17068   5.099   1.800   6.033  0.2556  0.0802 -0.9331
  154SAPE  C21717069   4.927   1.750   5.922 -0.4350 -0.2358  0.0614
  154SAPE  H17R17070   4.826   1.706   5.928 -0.0064 -1.0508  2.2368
  154SAPE  H17S17071   4.988   1.668   5.878 -1.1015  0.6201 -2.6837
  154SAPE  C21817072   4.923   1.860   5.819  0.3218 -0.2659  0.1290
  154SAPE  H18R17073   5.028   1.895   5.808  0.4518  0.2591  2.4869
  154SAPE  H18S17074   4.857   1.943   5.851  0.5649  0.4061 -1.0609
  154SAPE  C21917075   4.887   1.804   5.679  0.2372  0.4771 -0.2571
  154SAPE  H19R17076   4.947   1.713   5.658 -0.0841  0.3726 -0.7223
  154SAPE  H19S17077   4.912   1.875   5.597  1.4299 -3.2880 -3.4704
  154SAPE  C22017078   4.738   1.767   5.668 -0.3446  0.4674 -0.3785
  154SAPE  H20R17079   4.679   1.861   5.663  0.9772  1.2926 -1.4668
  154SAPE  H20S17080   4.700   1.699   5.746  2.6870 -0.7945  0.1444
  154SAPE  H20T17081   4.727   1.717   5.569 -1.9225  0.6195 -0.3017
  154SAPE   C3317082   4.954   1.979   6.871  0.4664 -0.4844 -0.6302
  154SAPE   H3X17083   4.952   2.081   6.915  0.0856 -1.1594  0.9977
  154SAPE   H3Y17084   4.933   1.978   6.762 -0.7037 -1.9773 -0.4176
  154SAPE   C3417085   5.091   1.920   6.880 -0.1547  0.2093  0.0893
  154SAPE   H4X17086   5.098   1.826   6.822 -1.6543  0.2381 -0.1960
  154SAPE   H4Y17087   5.095   1.886   6.986  0.0706 -1.7559 -0.5146
  154SAPE   C3517088   5.204   2.012   6.850  0.2674 -0.3339  0.0008
  154SAPE   H5X17089   5.303   1.967   6.876 -0.1195 -1.7343 -0.8497
  154SAPE   H5Y17090   5.183   2.100   6.915 -1.6957 -0.7803  0.0066
  154SAPE   C3617091   5.214   2.059   6.708 -0.9881  0.3335 -0.3390
  154SAPE   H6X17092   5.177   1.972   6.649 -1.3605  0.6061 -0.5143
  154SAPE   H6Y17093   5.318   2.083   6.677 -0.4608 -2.0237 -0.5853
  154SAPE   C3717094   5.125   2.174   6.673 -0.2640 -0.3263 -0.7167
  154SAPE   H7X17095   5.140   2.249   6.754 -1.5977 -1.2237  0.3878
  154SAPE   H7Y17096   5.018   2.144   6.667 -0.3643 -0.1796  0.2342
  154SAPE   C3817097   5.169   2.241   6.539  0.0964 -0.3654 -0.5192
  154SAPE   H8X17098   5.274   2.278   6.534 -0.0563 -0.0771 -2.1865
  154SAPE   H8Y17099   5.099   2.326   6.525  0.1800 -0.5101 -2.0332
  154SAPE   C3917100   5.157   2.141   6.418  0.9114 -0.2644  0.5351
  154SAPE   H9X17101   5.053   2.104   6.413  0.1932  1.7409 -0.1736
  154SAPE   H9Y17102   5.216   2.056   6.460  0.5631 -0.2365  1.0866
  154SAPE  C31017103   5.192   2.179   6.277 -0.0526 -0.1667  0.0846
  154SAPE  H10X17104   5.274   2.254   6.285 -2.7100  3.1519 -1.2978
  154SAPE  H10Y17105   5.103   2.219   6.225 -0.1738 -2.0480 -1.2719
  154SAPE  C31117106   5.261   2.073   6.191 -0.1036 -0.2421 -0.0416
  154SAPE  H11X17107   5.195   1.988   6.166  0.4511 -0.9130  0.7487
  154SAPE  H11Y17108   5.349   2.032   6.246  0.0763  1.2399  0.8392
  154SAPE  C31217109   5.316   2.128   6.057  0.4049  0.0951  0.0275
  154SAPE  H12X17110   5.361   2.038   6.010 -0.5211 -0.8938  0.9677
  154SAPE  H12Y17111   5.392   2.207   6.071  1.0106 -0.6994  1.3594
  154SAPE  C31317112   5.201   2.167   5.961  0.1136 -0.0422 -0.0159
  154SAPE  H13X17113   5.171   2.274   5.971  1.6401  0.3350  0.8336
  154SAPE  H13Y17114   5.110   2.105   5.975 -1.5761  2.1340 -0.6047
  154SAPE  C31417115   5.241   2.150   5.817  0.3623  0.1811 -0.1709
  154SAPE  H14X17116   5.248   2.040   5.798 -0.6214  0.0204  0.3141
  154SAPE  H14Y17117   5.339   2.199   5.799 -0.1056  0.9236 -0.7838
  154SAPE  C31517118   5.151   2.219   5.708 -1.1919 -0.4958  0.4101
  154SAPE  H15X17119   5.169   2.328   5.720  2.1264 -0.5843 -2.2573
  154SAPE  H15Y17120   5.045   2.190   5.721 -1.9852  2.2609  0.6329
  154SAPE  C31617121   5.200   2.189   5.565  0.5280 -0.4964  0.7562
  154SAPE  H16X17122   5.311   2.193   5.565  0.6318 -2.5552  1.4000
  154SAPE  H16Y17123   5.157   2.274   5.507 -0.3131 -1.3647  0.0634
  154SAPE  C31717124   5.159   2.054   5.515  1.1022 -0.5129  0.4098
  154SAPE  H17X17125   5.048   2.045   5.513  1.0696 -0.3474  1.1987
  154SAPE  H17Y17126   5.196   1.981   5.590 -1.6737 -2.4833  0.0182
  154SAPE  C31817127   5.211   2.015   5.380  0.4497  0.3486  0.5912
  154SAPE  H18X17128   5.322   2.012   5.389  0.7182 -0.8377 -2.0236
  154SAPE  H18Y17129   5.175   2.080   5.297 -0.0219 -0.0847  0.4486
  154SAPE  H18Z17130   5.185   1.912   5.349 -0.7442  0.7081  0.3512
  155SAPE     N17131   3.318   3.563   7.368 -0.0582  0.1404 -0.0137
  155SAPE   HN117132   3.349   3.596   7.462  0.9296  0.6667 -0.4993
  155SAPE   HN217133   3.219   3.592   7.358 -0.8079 -2.1225  0.0956
  155SAPE   HN317134   3.325   3.459   7.370 -1.3667  0.0321  2.0255
  155SAPE   C1217135   3.409   3.608   7.258 -0.1627 -0.1875 -0.3495
  155SAPE  H12A17136   3.429   3.717   7.266  4.0733 -0.7795 -0.5436
  155SAPE  H12B17137   3.360   3.598   7.159 -0.5874  2.0515 -0.4147
  155SAPE   C1117138   3.545   3.543   7.270 -0.4742  0.1597  0.6012
  155SAPE  H11A17139   3.586   3.570   7.370  0.5550 -0.4261  0.3548
  155SAPE  H11B17140   3.612   3.588   7.194 -1.6194  5.0325  2.1024
  155SAPE     P17141   3.593   3.300   7.171 -0.4243  0.0644 -0.1595
  155SAPE   O1317142   3.734   3.275   7.197  0.3273 -0.4503 -0.2428
  155SAPE   O1417143   3.505   3.180   7.160 -0.1260 -0.2777  0.3272
  155SAPE   O1217144   3.533   3.400   7.271  0.0980 -0.2217  0.1855
  155SAPE   O1117145   3.591   3.376   7.039  0.0537 -0.4243 -0.2692
  155SAPE    C117146   3.712   3.434   6.977  0.6389 -0.1369 -0.2340
  155SAPE    HA17147   3.687   3.526   6.920 -3.4114 -1.2038 -0.4750
  155SAPE    HB17148   3.789   3.468   7.048  0.4922 -0.3600  0.0352
  155SAPE    C217149   3.783   3.338   6.881  0.8128 -0.4987  0.3472
  155SAPE    HS17150   3.828   3.255   6.939  0.5999 -2.3927 -2.0397
  155SAPE   O2117151   3.879   3.421   6.807 -0.1112  0.1770  0.1030
  155SAPE   C2117152   3.996   3.363   6.776 -0.5327  0.1147 -0.6400
  155SAPE   O2217153   4.029   3.248   6.800  0.0497 -0.0708  0.0084
  155SAPE   C2217154   4.073   3.483   6.718 -0.4159  0.3881  0.7145
  155SAPE   H2R17155   4.063   3.565   6.792 -1.5238  0.8024  0.1224
  155SAPE   H2S17156   4.182   3.461   6.703 -1.0180 -1.3792 -1.8749
  155SAPE    C317157   3.683   3.270   6.773 -0.4962 -0.2804 -0.3410
  155SAPE    HX17158   3.619   3.202   6.833  0.0121  0.3500  0.9733
  155SAPE    HY17159   3.745   3.203   6.710  0.9197  0.8395 -0.1980
  155SAPE   O3117160   3.619   3.370   6.693 -0.3395 -0.5131 -0.1728
  155SAPE   C3117161   3.543   3.319   6.594 -0.6401 -0.8324  1.0399
  155SAPE   O3217162   3.532   3.199   6.571  0.3649 -0.2328 -0.0915
  155SAPE   C3217163   3.469   3.429   6.529  0.2966 -0.5814  0.4152
  155SAPE   H2X17164   3.530   3.478   6.450 -1.9862  2.3410  0.2340
  155SAPE   H2Y17165   3.431   3.507   6.600  2.3437  0.6747  0.2008
  155SAPE   C2317166   4.013   3.527   6.580 -0.2726  0.2483 -0.5477
  155SAPE   H3R17167   4.054   3.627   6.554 -0.3261  0.9545  1.8414
  155SAPE   H3S17168   3.903   3.534   6.593 -0.1474  0.8008  0.3043
  155SAPE   C2417169   4.060   3.421   6.473  0.0477 -0.8112 -0.5326
  155SAPE   H4R17170   4.051   3.317   6.510 -1.1149 -0.3372  0.5910
  155SAPE   H4S17171   4.169   3.443   6.466 -0.4062  1.7653 -0.5381
  155SAPE   C2517172   3.982   3.449   6.344  0.3487  0.5136 -0.1171
  155SAPE   H5R17173   3.983   3.550   6.301  0.5728 -0.1024 -1.5941
  155SAPE   C2617174   3.900   3.360   6.280  0.7062  0.2581 -0.7127
  155SAPE   H6R17175   3.843   3.388   6.190  1.6386  0.2493 -1.3322
  155SAPE   C2717176   3.868   3.223   6.335  0.2777  0.3570  0.1339
  155SAPE   H7R17177   3.821   3.246   6.433 -2.0515  0.3192 -0.8968
  155SAPE   H7S17178   3.946   3.146   6.352 -0.2848 -0.4251 -0.7270
  155SAPE   C2817179   3.759   3.144   6.266  0.5807  0.3089  1.1997
  155SAPE   H8R17180   3.698   3.076   6.327 -1.0527 -0.2295 -0.9080
  155SAPE   C2917181   3.729   3.128   6.137  0.3270 -0.0123  0.5053
  155SAPE   H9R17182   3.643   3.062   6.120  1.1177 -1.2814  1.3001
  155SAPE  C21017183   3.785   3.190   6.010 -0.3500  0.4739  0.3737
  155SAPE  H10R17184   3.787   3.108   5.935 -1.9315  0.8791 -0.1596
  155SAPE  H10S17185   3.888   3.226   6.030 -0.3605  1.3319 -1.0052
  155SAPE  C21117186   3.705   3.306   5.951 -0.0600  0.5482  0.2033
  155SAPE  H11R17187   3.633   3.353   6.020  1.4125 -0.2661  2.4261
  155SAPE  C21217188   3.717   3.362   5.829 -0.3601 -0.3533 -0.5217
  155SAPE  H12R17189   3.664   3.457   5.813  0.2256 -0.1536 -1.3465
  155SAPE  C21317190   3.818   3.322   5.724  0.2762  0.2596 -0.5618
  155SAPE  H13R17191   3.829   3.211   5.726  0.8524  0.2810 -1.7467
  155SAPE  H13S17192   3.917   3.360   5.755 -0.9436  3.0228  0.2666
  155SAPE  C21417193   3.774   3.341   5.580 -0.1236  0.4274 -0.9844
  155SAPE  H14R17194   3.684   3.289   5.544 -1.1081  1.5277 -0.2079
  155SAPE  C21517195   3.839   3.425   5.497 -0.5244  0.1052  0.9452
  155SAPE  H15R17196   3.823   3.414   5.389  0.2234  0.2699  0.8123
  155SAPE  C21617197   3.953   3.520   5.537  0.1135 -0.2483  0.4001
  155SAPE  H16R17198   4.044   3.474   5.493 -0.4001 -1.3259  0.4275
  155SAPE  H16S17199   3.974   3.539   5.645 -1.1399 -2.2608  1.0665
  155SAPE  C21717200   3.943   3.656   5.463 -0.1731  0.4720 -0.5274
  155SAPE  H17R17201   3.852   3.700   5.508 -0.4496  0.3977 -1.0031
  155SAPE  H17S17202   3.942   3.638   5.353  0.3436  0.5811 -0.5527
  155SAPE  C21817203   4.058   3.753   5.496  0.2267 -0.7482  0.2935
  155SAPE  H18R17204   4.159   3.706   5.500  0.1197 -1.0079 -0.0148
  155SAPE  H18S17205   4.033   3.792   5.597 -0.1924  0.0616 -0.1147
  155SAPE  C21917206   4.063   3.873   5.404 -0.2401 -0.4661  0.3218
  155SAPE  H19R17207   4.167   3.912   5.403 -0.4313  0.0686 -1.0864
  155SAPE  H19S17208   3.999   3.956   5.440 -1.6232 -1.3632  0.0262
  155SAPE  C22017209   4.034   3.847   5.253 -0.0754 -0.0722 -0.4782
  155SAPE  H20R17210   3.928   3.833   5.225 -0.8100  0.7515  1.6877
  155SAPE  H20S17211   4.094   3.763   5.212 -1.1098 -0.7059 -0.7269
  155SAPE  H20T17212   4.059   3.933   5.187 -0.2237  0.5277  0.2238
  155SAPE   C3317213   3.338   3.390   6.466  0.1576  0.0838  0.0786
  155SAPE   H3X17214   3.280   3.482   6.442 -1.4136 -0.5856  1.1483
  155SAPE   H3Y17215   3.270   3.336   6.534 -0.1363 -0.6837 -0.7979
  155SAPE   C3417216   3.346   3.305   6.339 -0.5710  0.2559  0.4993
  155SAPE   H4X17217   3.244   3.289   6.299  0.0156  0.3707 -1.1075
  155SAPE   H4Y17218   3.401   3.209   6.350 -0.4865  0.2593  0.0889
  155SAPE   C3517219   3.435   3.385   6.230 -0.0121  0.2891  0.1731
  155SAPE   H5X17220   3.461   3.313   6.149  0.9705  2.4069 -1.4667
  155SAPE   H5Y17221   3.531   3.418   6.275 -0.4625 -0.8579  2.1126
  155SAPE   C3617222   3.364   3.501   6.153  0.3940  0.5889  0.0128
  155SAPE   H6X17223   3.379   3.597   6.208  2.3687  0.0580  0.4927
  155SAPE   H6Y17224   3.257   3.471   6.151  0.3403  0.7182  0.6581
  155SAPE   C3717225   3.406   3.526   6.003 -0.2095 -0.1293 -0.2691
  155SAPE   H7X17226   3.394   3.426   5.955 -1.3378  0.0264 -0.3426
  155SAPE   H7Y17227   3.511   3.562   6.010 -0.8743  1.5991  1.8208
  155SAPE   C3817228   3.331   3.632   5.921  0.1202 -0.6699  0.2788
  155SAPE   H8X17229   3.307   3.717   5.989 -2.2471 -0.9210 -0.1647
  155SAPE   H8Y17230   3.241   3.583   5.877 -0.6393  1.7247 -1.0313
  155SAPE   C3917231   3.413   3.691   5.805  0.5094 -0.3864  0.0843
  155SAPE   H9X17232   3.507   3.633   5.791  1.5027  0.7348  1.7033
  155SAPE   H9Y17233   3.447   3.794   5.829  2.4770 -0.7042 -1.1656
  155SAPE  C31017234   3.327   3.707   5.677  0.4034 -0.3980  0.3777
  155SAPE  H10X17235   3.395   3.730   5.593  1.7397  1.2667  1.8437
  155SAPE  H10Y17236   3.257   3.793   5.681 -0.5018 -1.1377  0.8809
  155SAPE  C31117237   3.248   3.583   5.629  0.6468  0.4245  0.1170
  155SAPE  H11X17238   3.139   3.598   5.645  0.4093  1.1577 -1.9034
  155SAPE  H11Y17239   3.278   3.503   5.700  0.1972  1.1071  1.1070
  155SAPE  C31217240   3.286   3.531   5.486 -0.1123  0.5395  0.1020
  155SAPE  H12X17241   3.230   3.436   5.483  1.1460 -0.2525  0.6938
  155SAPE  H12Y17242   3.397   3.524   5.482 -0.2294 -2.1458 -0.2209
  155SAPE  C31317243   3.255   3.617   5.367  0.3920 -0.4162  0.7619
  155SAPE  H13X17244   3.314   3.711   5.379 -0.7738  0.1376  2.8055
  155SAPE  H13Y17245   3.150   3.644   5.391  0.3627  0.5517 -0.3534
  155SAPE  C31417246   3.256   3.560   5.227 -0.1601 -0.5397 -0.2612
  155SAPE  H14X17247   3.194   3.469   5.242  0.5034 -0.7916  1.1345
  155SAPE  H14Y17248   3.358   3.529   5.196  0.0888 -3.0538  2.5855
  155SAPE  C31517249   3.194   3.642   5.114 -0.5405 -0.7064  0.5625
  155SAPE  H15X17250   3.251   3.735   5.098  2.3365 -2.1212  1.8945
  155SAPE  H15Y17251   3.092   3.672   5.147 -1.4823 -1.3445 -1.5219
  155SAPE  C31617252   3.173   3.575   4.982  0.2556  0.4416  0.1466
  155SAPE  H16X17253   3.110   3.485   4.997  1.1184  0.1622  2.5548
  155SAPE  H16Y17254   3.264   3.527   4.939  1.3324  0.0395  2.6746
  155SAPE  C31717255   3.117   3.660   4.868 -0.7280  0.5533 -0.3445
  155SAPE  H17X17256   3.027   3.711   4.910 -0.1971  0.6320  0.7093
  155SAPE  H17Y17257   3.081   3.588   4.790  1.0712 -1.8530  0.9262
  155SAPE  C31817258   3.214   3.747   4.798 -0.2473  0.5246 -0.1711
  155SAPE  H18X17259   3.270   3.696   4.717 -1.1013 -1.7793  0.6027
  155SAPE  H18Y17260   3.277   3.790   4.879 -1.5635  0.6603  0.8206
  155SAPE  H18Z17261   3.154   3.831   4.758  1.0777  3.3262  3.2451
  156SAPE     N17262   6.750   3.620   7.065  0.3333  0.0779 -0.3940
  156SAPE   HN117263   6.682   3.698   7.073  1.7964  1.3189  0.4777
  156SAPE   HN217264   6.782   3.597   6.968  1.7657 -1.1465  0.3236
  156SAPE   HN317265   6.697   3.537   7.096 -2.5698  1.6727 -0.7751
  156SAPE   C1217266   6.870   3.646   7.151 -0.5507 -0.5246  0.3566
  156SAPE  H12A17267   6.934   3.555   7.156  1.3469  0.7037 -0.4297
  156SAPE  H12B17268   6.839   3.662   7.257 -3.2183 -0.9567 -0.2689
  156SAPE   C1117269   6.968   3.752   7.096 -0.1946  0.6280  0.0343
  156SAPE  H11A17270   7.040   3.712   7.021  1.4473  1.1553  1.2643
  156SAPE  H11B17271   7.020   3.771   7.192  0.9199 -0.7237 -0.2729
  156SAPE     P17272   6.994   4.001   7.032  0.0199 -0.1079  0.1219
  156SAPE   O1317273   6.931   4.102   7.117 -0.0313  0.3404 -0.3610
  156SAPE   O1417274   7.132   3.964   7.068 -0.3313 -0.3783 -0.0632
  156SAPE   O1217275   6.904   3.868   7.041 -0.3416 -0.0413 -0.5238
  156SAPE   O1117276   6.989   4.046   6.885 -0.4172 -0.5480 -0.3462
  156SAPE    C117277   6.865   4.060   6.810  0.4025 -0.1329 -0.4254
  156SAPE    HA17278   6.842   3.967   6.754 -0.7907  0.3002 -0.6716
  156SAPE    HB17279   6.779   4.081   6.876  0.5772 -0.7652  0.0136
  156SAPE    C217280   6.879   4.165   6.702  0.3977 -0.2245  0.3515
  156SAPE    HS17281   6.783   4.179   6.649  0.6902  0.7606  0.0596
  156SAPE   O2117282   6.975   4.134   6.604  0.4353  0.3287  0.3760
  156SAPE   C2117283   6.958   4.043   6.521  0.0014 -0.1585 -0.5198
  156SAPE   O2217284   6.865   3.964   6.519 -0.6844  0.1856  0.3239
  156SAPE   C2217285   7.070   4.056   6.420 -0.7886  0.3032 -0.2410
  156SAPE   H2R17286   7.065   4.155   6.370  1.5154  1.6396  1.9065
  156SAPE   H2S17287   7.169   4.074   6.467 -0.9165  0.8821 -0.1794
  156SAPE    C317288   6.926   4.304   6.765 -0.7601  0.1961 -0.2909
  156SAPE    HX17289   7.024   4.278   6.810 -0.0160  2.9423 -0.1542
  156SAPE    HY17290   6.860   4.343   6.845 -0.6879 -3.0997  1.5695
  156SAPE   O3117291   6.942   4.409   6.660 -0.2378  0.4763 -0.6259
  156SAPE   C3117292   7.041   4.491   6.676 -0.0377  0.4064  0.1573
  156SAPE   O3217293   7.103   4.512   6.781 -0.3647  0.1797  0.7519
  156SAPE   C3217294   7.076   4.557   6.537  0.3555  0.7349 -0.4335
  156SAPE   H2X17295   7.172   4.610   6.557  0.9474 -0.1230 -0.9555
  156SAPE   H2Y17296   7.005   4.640   6.516  1.8348  2.0494 -0.4241
  156SAPE   C2317297   7.076   3.930   6.325  0.2199 -0.2180  0.4988
  156SAPE   H3R17298   6.986   3.928   6.259 -1.3887 -1.7479  2.6073
  156SAPE   H3S17299   7.077   3.835   6.383 -2.2044 -0.8848 -0.4344
  156SAPE   C2417300   7.198   3.915   6.233  0.0481  0.0668  0.4406
  156SAPE   H4R17301   7.191   3.829   6.162  0.5135 -0.3524  0.8972
  156SAPE   H4S17302   7.281   3.898   6.305  0.7120  0.2556 -0.2652
  156SAPE   C2517303   7.232   4.038   6.150 -0.0391  0.3795  0.1300
  156SAPE   H5R17304   7.269   4.127   6.202  0.3602 -0.5784  1.5689
  156SAPE   C2617305   7.224   4.038   6.016  0.2153 -0.3978  0.0287
  156SAPE   H6R17306   7.244   4.137   5.971  1.7748 -0.4956  0.4544
  156SAPE   C2717307   7.183   3.939   5.912 -0.2175 -0.1782  0.3874
  156SAPE   H7R17308   7.129   3.988   5.828 -0.5399  2.9176  2.2332
  156SAPE   H7S17309   7.107   3.869   5.952 -0.6271 -0.4611 -0.8301
  156SAPE   C2817310   7.288   3.844   5.871  0.2768 -0.4070 -0.9473
  156SAPE   H8R17311   7.331   3.777   5.946  2.5717  0.5977 -1.2525
  156SAPE   C2917312   7.333   3.812   5.749  0.3343 -0.9463  0.9020
  156SAPE   H9R17313   7.419   3.743   5.748  4.7554  3.8547  4.0679
  156SAPE  C21017314   7.291   3.885   5.616 -0.1193 -0.3351  0.6619
  156SAPE  H10R17315   7.360   3.970   5.601  1.1231 -1.1063  1.8342
  156SAPE  H10S17316   7.194   3.938   5.628 -0.9509 -1.4128 -0.9873
  156SAPE  C21117317   7.278   3.783   5.502 -0.2463  0.0681  0.1304
  156SAPE  H11R17318   7.216   3.696   5.530 -1.8926  0.9000 -0.7997
  156SAPE  C21217319   7.305   3.806   5.376 -0.5709  0.1268  1.2480
  156SAPE  H12R17320   7.286   3.717   5.315 -0.2310  1.0783 -0.2786
  156SAPE  C21317321   7.364   3.929   5.306 -0.0399 -0.4404 -0.0190
  156SAPE  H13R17322   7.474   3.930   5.321 -0.2036 -0.6546  1.3194
  156SAPE  H13S17323   7.328   4.023   5.354 -3.7962 -1.5440 -0.3296
  156SAPE  C21417324   7.329   3.926   5.157 -0.4390  1.2983  0.4087
  156SAPE  H14R17325   7.389   3.863   5.088 -0.6684  1.3456  0.1624
  156SAPE  C21517326   7.244   4.006   5.095  0.3086  0.1912  0.3148
  156SAPE  H15R17327   7.232   3.992   4.986 -1.6392  0.1652  0.4857
  156SAPE  C21617328   7.168   4.122   5.159  0.5038  0.1962 -0.2634
  156SAPE  H16R17329   7.185   4.125   5.268  0.5818 -1.3056 -0.2204
  156SAPE  H16S17330   7.058   4.108   5.151  0.5448  0.1942 -0.8543
  156SAPE  C21717331   7.204   4.248   5.084  0.1614  0.0416 -0.9051
  156SAPE  H17R17332   7.311   4.269   5.104 -0.0860 -0.2321  0.8446
  156SAPE  H17S17333   7.157   4.335   5.133  1.9938  1.6441 -1.8778
  156SAPE  C21817334   7.178   4.259   4.935  0.8790 -0.2653 -0.1872
  156SAPE  H18R17335   7.070   4.238   4.924  0.9709 -0.8281 -0.0421
  156SAPE  H18S17336   7.235   4.191   4.868  1.2865  1.4064 -1.6377
  156SAPE  C21917337   7.210   4.403   4.886  0.4791  0.5733  0.5846
  156SAPE  H19R17338   7.319   4.419   4.897  0.3032  2.1065  0.3502
  156SAPE  H19S17339   7.159   4.476   4.953 -0.8009  0.2726 -0.0366
  156SAPE  C22017340   7.176   4.434   4.734 -0.2236 -0.4961  0.3512
  156SAPE  H20R17341   7.261   4.410   4.667 -2.3216 -1.5949 -2.0975
  156SAPE  H20S17342   7.156   4.542   4.718 -0.5571 -0.7142 -0.7613
  156SAPE  H20T17343   7.091   4.382   4.684 -1.2788  1.6681 -0.1962
  156SAPE   C3317344   7.090   4.463   6.416 -0.3150 -0.8021 -0.1034
  156SAPE   H3X17345   7.010   4.386   6.421  0.1893 -1.2719  1.1293
  156SAPE   H3Y17346   7.180   4.408   6.449  0.7459  0.4293 -0.8750
  156SAPE   C3417347   7.101   4.542   6.286  0.1036 -0.1580  0.6469
  156SAPE   H4X17348   7.196   4.598   6.288  0.7592 -1.2434  0.5781
  156SAPE   H4Y17349   7.007   4.598   6.266  0.3945  0.8856  2.0568
  156SAPE   C3517350   7.121   4.447   6.163  0.0117 -0.2061 -0.2135
  156SAPE   H5X17351   7.032   4.382   6.149  0.5694 -0.9216 -0.5023
  156SAPE   H5Y17352   7.206   4.382   6.192 -0.7365 -1.2216 -0.2487
  156SAPE   C3617353   7.154   4.506   6.027 -0.5987  0.2394  0.3831
  156SAPE   H6X17354   7.190   4.425   5.960  1.0694 -0.8338  2.4661
  156SAPE   H6Y17355   7.233   4.582   6.048  1.2476 -2.0093  2.0990
  156SAPE   C3717356   7.033   4.566   5.954  0.5535 -0.2602 -1.2065
  156SAPE   H7X17357   7.007   4.649   6.023  0.0370 -0.9301 -0.5594
  156SAPE   H7Y17358   6.948   4.494   5.957  0.2584  0.0919  0.7346
  156SAPE   C3817359   7.073   4.614   5.811  0.5972  0.3282  0.3705
  156SAPE   H8X17360   7.182   4.638   5.810  0.5855  0.5780  2.0967
  156SAPE   H8Y17361   7.034   4.712   5.777  2.2339  1.0648  0.5401
  156SAPE   C3917362   7.052   4.504   5.708  0.0989  0.3935 -0.3138
  156SAPE   H9X17363   6.945   4.476   5.711  0.6093 -1.6135  1.1970
  156SAPE   H9Y17364   7.096   4.409   5.746  1.2407  0.2311 -1.9343
  156SAPE  C31017365   7.098   4.542   5.571  0.1603  0.3507  0.0224
  156SAPE  H10X17366   7.204   4.574   5.570 -0.1279  1.3274 -0.0321
  156SAPE  H10Y17367   7.053   4.636   5.532  1.9663  0.9440 -0.6981
  156SAPE  C31117368   7.086   4.424   5.462 -0.1715 -0.2317 -0.2729
  156SAPE  H11X17369   7.113   4.332   5.519  0.2352  0.7001  1.0917
  156SAPE  H11Y17370   7.151   4.447   5.374  0.8173 -1.3453  0.1323
  156SAPE  C31217371   6.942   4.406   5.413 -0.7876  0.4119 -0.3217
  156SAPE  H12X17372   6.871   4.369   5.491 -0.6034 -0.7643 -0.6990
  156SAPE  H12Y17373   6.950   4.325   5.338  3.5047  0.0923  0.2200
  156SAPE  C31317374   6.873   4.535   5.350  0.0833  0.3304  0.5809
  156SAPE  H13X17375   6.946   4.608   5.309 -0.1535  0.8899  1.1394
  156SAPE  H13Y17376   6.833   4.598   5.432 -0.8522  0.1404  0.2838
  156SAPE  C31417377   6.769   4.513   5.240 -0.0715 -0.2916 -0.5021
  156SAPE  H14X17378   6.725   4.614   5.227  0.2873  0.1236  1.2469
  156SAPE  H14Y17379   6.688   4.444   5.271  0.7248 -0.2026  1.9976
  156SAPE  C31517380   6.835   4.469   5.108  0.6822 -0.0302  1.0778
  156SAPE  H15X17381   6.827   4.359   5.093 -0.4041  0.3500 -1.9423
  156SAPE  H15Y17382   6.943   4.492   5.105  0.5984  0.3284  0.6980
  156SAPE  C31617383   6.764   4.543   4.995 -0.5226 -1.1626 -0.3000
  156SAPE  H16X17384   6.802   4.645   4.978 -2.7820 -0.2867 -0.3787
  156SAPE  H16Y17385   6.654   4.541   5.010 -0.9122 -0.4135 -2.7572
  156SAPE  C31717386   6.797   4.476   4.858  0.5570 -0.2388  0.6686
  156SAPE  H17X17387   6.765   4.370   4.861  4.4302 -1.5839  0.0984
  156SAPE  H17Y17388   6.908   4.474   4.845  0.8995 -0.9276  3.1326
  156SAPE  C31817389   6.730   4.554   4.737 -0.2983  0.0834 -0.8416
  156SAPE  H18X17390   6.763   4.659   4.749 -0.3051  0.1508 -1.3902
  156SAPE  H18Y17391   6.621   4.536   4.752  0.1986 -1.9737  0.7371
  156SAPE  H18Z17392   6.752   4.511   4.637  0.7284  1.2460 -1.1369
  157SAPE     N17393   2.155   2.630   7.505 -0.3675  0.0152  0.1425
  157SAPE   HN117394   2.090   2.697   7.550 -0.7424  0.3579 -0.8839
  157SAPE   HN217395   2.241   2.663   7.554  0.2323  2.1038 -2.1269
  157SAPE   HN317396   2.150   2.662   7.407  0.7097 -0.4804 -0.0986
  157SAPE   C1217397   2.119   2.487   7.523  0.2286 -0.0662 -0.1528
  157SAPE  H12A17398   2.017   2.478   7.480  0.6007 -3.0857 -0.6006
  157SAPE  H12B17399   2.126   2.457   7.630 -2.1054  0.8731  0.3333
  157SAPE   C1117400   2.206   2.382   7.437 -0.0962  0.4451 -0.4107
  157SAPE  H11A17401   2.185   2.390   7.329  3.1476 -0.2864 -1.2132
  157SAPE  H11B17402   2.177   2.278   7.463  0.7468  0.5302  1.0239
  157SAPE     P17403   2.439   2.290   7.380 -0.4412  0.0463 -0.0068
  157SAPE   O1317404   2.568   2.356   7.367 -0.1059 -0.2959 -0.2054
  157SAPE   O1417405   2.432   2.157   7.442 -0.6855 -0.4566  0.1295
  157SAPE   O1217406   2.344   2.394   7.467 -0.5516  0.5222  0.0923
  157SAPE   O1117407   2.373   2.282   7.234  0.1519  0.0169  0.2894
  157SAPE    C117408   2.378   2.405   7.156  0.6264  0.1071 -0.1220
  157SAPE    HA17409   2.328   2.492   7.203 -0.8287  0.1534 -1.6595
  157SAPE    HB17410   2.485   2.424   7.131  0.5104  1.4008  0.2958
  157SAPE    C217411   2.298   2.385   7.024  0.6240 -0.3242  0.6289
  157SAPE    HS17412   2.192   2.371   7.052  0.5960  2.0422  1.9708
  157SAPE   O2117413   2.334   2.268   6.950  0.1682  0.1669  0.5558
  157SAPE   C2117414   2.447   2.278   6.899 -0.4721 -0.2722 -0.4459
  157SAPE   O2217415   2.538   2.360   6.916 -0.0849 -0.2634 -0.4941
  157SAPE   C2217416   2.448   2.163   6.797 -0.0479 -0.0103 -0.0042
  157SAPE   H2R17417   2.485   2.070   6.845 -2.3000 -0.7843  0.3534
  157SAPE   H2S17418   2.343   2.143   6.768 -0.0550  1.4484 -1.0648
  157SAPE    C317419   2.292   2.519   6.939  0.6763  0.3289 -0.3739
  157SAPE    HX17420   2.391   2.568   6.950  1.4717 -0.6386 -2.5651
  157SAPE    HY17421   2.224   2.591   6.989 -0.1001 -0.6745  0.0405
  157SAPE   O3117422   2.272   2.500   6.792 -0.7119 -0.0403 -0.1420
  157SAPE   C3117423   2.141   2.474   6.758  0.2209 -0.3126  0.1013
  157SAPE   O3217424   2.050   2.473   6.836  0.4501  0.1463  0.1118
  157SAPE   C3217425   2.146   2.414   6.614  0.7788  1.0345 -0.0230
  157SAPE   H2X17426   2.234   2.346   6.608 -0.1893 -0.2084 -0.3776
  157SAPE   H2Y17427   2.169   2.502   6.550 -0.3983 -0.4742 -2.6698
  157SAPE   C2317428   2.537   2.195   6.672  0.7425 -0.0515 -0.1239
  157SAPE   H3R17429   2.645   2.186   6.700  0.1660  1.1799  2.8958
  157SAPE   H3S17430   2.518   2.297   6.632 -2.6059 -0.0317  1.1891
  157SAPE   C2417431   2.513   2.089   6.566 -0.1879 -0.2798 -1.1364
  157SAPE   H4R17432   2.507   1.989   6.615 -1.7764  0.4410  0.2544
  157SAPE   H4S17433   2.609   2.081   6.511  2.5150  1.9551  2.7105
  157SAPE   C2517434   2.389   2.099   6.475  0.0546 -0.3059  0.5366
  157SAPE   H5R17435   2.292   2.094   6.525  0.2789  0.0430  1.0166
  157SAPE   C2617436   2.392   2.131   6.344 -0.4130  0.4191 -0.7400
  157SAPE   H6R17437   2.298   2.127   6.288 -2.0502  0.7277  1.8547
  157SAPE   C2717438   2.516   2.163   6.261 -0.0214 -0.1933  0.0947
  157SAPE   H7R17439   2.522   2.082   6.185  0.1357 -0.0897 -0.0052
  157SAPE   H7S17440   2.612   2.162   6.316  0.3406  1.4826 -0.4230
  157SAPE   C2817441   2.492   2.311   6.207  0.0895 -0.5456  0.2103
  157SAPE   H8R17442   2.443   2.381   6.275  2.4991  1.5951 -0.0962
  157SAPE   C2917443   2.515   2.351   6.080 -0.5819  0.0555  0.0051
  157SAPE   H9R17444   2.507   2.460   6.069  0.2263  0.1981  0.7029
  157SAPE  C21017445   2.571   2.268   5.964 -0.1681 -0.0392  0.5077
  157SAPE  H10R17446   2.494   2.265   5.884 -0.2952 -4.0859  0.5728
  157SAPE  H10S17447   2.578   2.160   5.992  4.3585  0.0489  0.3395
  157SAPE  C21117448   2.707   2.298   5.901  0.5400  0.8765 -0.0306
  157SAPE  H11R17449   2.780   2.350   5.965  2.0561  1.4542 -2.1093
  157SAPE  C21217450   2.747   2.243   5.784  0.0399 -0.1409  0.3986
  157SAPE  H12R17451   2.848   2.263   5.745  0.4098 -3.0413 -0.3835
  157SAPE  C21317452   2.660   2.180   5.678 -0.0496  0.0120  0.3339
  157SAPE  H13R17453   2.580   2.115   5.720 -0.2437 -0.5967 -0.9290
  157SAPE  H13S17454   2.724   2.096   5.645 -0.8954 -0.4826 -0.0827
  157SAPE  C21417455   2.591   2.278   5.587 -0.3175 -0.5877 -0.6833
  157SAPE  H14R17456   2.501   2.325   5.629  0.5880  2.7208 -2.0903
  157SAPE  C21517457   2.646   2.328   5.473  0.1752  0.4600 -0.4960
  157SAPE  H15R17458   2.592   2.411   5.427 -0.2994  1.1815  1.2650
  157SAPE  C21617459   2.779   2.283   5.417  0.1715 -0.5188 -0.5751
  157SAPE  H16R17460   2.810   2.194   5.476  0.5459  0.3784  0.6372
  157SAPE  H16S17461   2.849   2.368   5.435 -1.5340  0.6383  0.9132
  157SAPE  C21717462   2.775   2.250   5.264  0.1238 -0.6644 -0.3085
  157SAPE  H17R17463   2.746   2.344   5.213  0.1035  0.3020  1.4307
  157SAPE  H17S17464   2.681   2.190   5.264 -1.2526  1.3034  2.2162
  157SAPE  C21817465   2.906   2.191   5.224  0.2044 -0.1945 -0.1054
  157SAPE  H18R17466   2.958   2.127   5.299 -0.9804  0.2774  1.1741
  157SAPE  H18S17467   2.975   2.271   5.191 -1.2178  0.2094 -2.3409
  157SAPE  C21917468   2.895   2.107   5.093 -0.7200  0.1744 -0.4182
  157SAPE  H19R17469   2.870   2.171   5.006 -0.7196  0.2260 -0.3808
  157SAPE  H19S17470   2.808   2.039   5.106 -1.4368  1.1980  0.2805
  157SAPE  C22017471   3.009   2.005   5.068  0.4186 -0.0275 -0.1448
  157SAPE  H20R17472   3.002   1.933   5.153 -0.4597  1.2875  0.9388
  157SAPE  H20S17473   3.112   2.048   5.068  0.5826 -0.3164  1.8794
  157SAPE  H20T17474   2.976   1.952   4.977 -0.8051  0.1821  0.1628
  157SAPE   C3317475   2.018   2.350   6.575 -0.3170  0.7912 -0.0603
  157SAPE   H3X17476   1.941   2.431   6.579 -0.3243  0.8121 -0.5432
  157SAPE   H3Y17477   1.997   2.267   6.645  3.7787 -1.4592 -1.1885
  157SAPE   C3417478   2.013   2.288   6.438  0.2140  0.5791  0.1489
  157SAPE   H4X17479   2.082   2.200   6.441 -1.6948 -0.9662  0.9455
  157SAPE   H4Y17480   2.043   2.373   6.373 -0.7945  1.3865  0.7156
  157SAPE   C3517481   1.864   2.241   6.395 -1.1034 -0.5914 -0.2822
  157SAPE   H5X17482   1.789   2.319   6.421 -0.2244  0.4676 -0.8640
  157SAPE   H5Y17483   1.834   2.156   6.460 -2.9813  1.3973  1.6068
  157SAPE   C3617484   1.871   2.193   6.254 -0.0158  0.3710 -0.3057
  157SAPE   H6X17485   1.966   2.139   6.239 -0.0932  0.6589 -2.0294
  157SAPE   H6Y17486   1.883   2.278   6.183 -1.7543 -0.2669 -1.4206
  157SAPE   C3717487   1.758   2.100   6.210  0.2494 -0.5597 -0.3028
  157SAPE   H7X17488   1.667   2.163   6.204  1.2313  0.7855 -1.5662
  157SAPE   H7Y17489   1.740   2.020   6.286  0.4638  0.1323  0.4919
  157SAPE   C3817490   1.776   2.037   6.070 -0.3318  0.5388 -0.1630
  157SAPE   H8X17491   1.763   1.926   6.068 -3.9334  0.8371  0.1532
  157SAPE   H8Y17492   1.878   2.050   6.028 -0.9495 -1.1144 -2.3728
  157SAPE   C3917493   1.689   2.100   5.966  0.3916 -0.0969 -0.6607
  157SAPE   H9X17494   1.709   2.208   5.987  0.4517 -0.3418  0.6424
  157SAPE   H9Y17495   1.581   2.079   5.980 -0.1326  2.3794 -0.5031
  157SAPE  C31017496   1.726   2.074   5.815 -0.1554  0.2655 -0.1576
  157SAPE  H10X17497   1.689   1.970   5.799 -1.8840  0.1666  3.5689
  157SAPE  H10Y17498   1.834   2.080   5.792 -0.3103  2.1991 -0.5783
  157SAPE  C31117499   1.669   2.166   5.710  0.5940  0.2191  0.2740
  157SAPE  H11X17500   1.711   2.131   5.614 -2.8931 -0.9213 -1.0081
  157SAPE  H11Y17501   1.709   2.270   5.717  0.3378  0.2925  0.6983
  157SAPE  C31217502   1.514   2.140   5.711 -0.0198 -0.7565 -0.1856
  157SAPE  H12X17503   1.486   2.196   5.803  0.9640  1.0766 -0.9511
  157SAPE  H12Y17504   1.480   2.035   5.725  1.6948 -1.4778 -1.1463
  157SAPE  C31317505   1.442   2.211   5.598  0.6126  0.5648  0.4308
  157SAPE  H13X17506   1.480   2.315   5.605 -1.0336  1.2472 -0.2298
  157SAPE  H13Y17507   1.334   2.215   5.626 -0.0936 -0.4207 -1.9184
  157SAPE  C31417508   1.464   2.166   5.451 -0.3361  0.8128 -0.1350
  157SAPE  H14X17509   1.424   2.063   5.449  1.2152  0.1224  1.4515
  157SAPE  H14Y17510   1.574   2.165   5.433 -0.3709 -2.6577 -0.7584
  157SAPE  C31517511   1.388   2.254   5.347  0.0576 -0.2424 -0.3405
  157SAPE  H15X17512   1.449   2.347   5.340  2.0234 -1.5922 -2.9580
  157SAPE  H15Y17513   1.280   2.270   5.370 -0.0084 -1.2426  0.0787
  157SAPE  C31617514   1.397   2.196   5.193  0.8420  0.2814  0.1157
  157SAPE  H16X17515   1.390   2.086   5.202 -1.9899  0.4384  0.9110
  157SAPE  H16Y17516   1.496   2.221   5.149 -0.2796  0.8851 -2.1837
  157SAPE  C31717517   1.295   2.263   5.101 -0.4354 -0.7494  0.8745
  157SAPE  H17X17518   1.308   2.373   5.090  1.1725 -0.8751  1.2592
  157SAPE  H17Y17519   1.201   2.252   5.159 -1.6776  0.0503 -0.8844
  157SAPE  C31817520   1.267   2.195   4.972 -0.2804  0.7692 -0.6274
  157SAPE  H18X17521   1.242   2.089   4.994  1.2787  0.7526  1.4010
  157SAPE  H18Y17522   1.360   2.185   4.911  0.9806  0.1213  1.2989
  157SAPE  H18Z17523   1.188   2.249   4.915  1.2586  3.3429 -0.4940
  158SAPE     N17524   1.435   0.930   6.955 -0.5952 -0.1319 -0.1503
  158SAPE   HN117525   1.409   1.030   6.943 -1.3673 -0.2690  0.2820
  158SAPE   HN217526   1.457   0.898   6.859  0.6884 -1.9137  0.6837
  158SAPE   HN317527   1.354   0.872   6.987 -1.8198  2.2421  1.3966
  158SAPE   C1217528   1.549   0.923   7.058  0.2464 -0.5026 -0.2697
  158SAPE  H12A17529   1.554   0.822   7.104 -0.7595  0.2956  1.7126
  158SAPE  H12B17530   1.521   0.996   7.138 -1.6264 -1.2785 -0.1770
  158SAPE   C1117531   1.688   0.962   7.001 -0.1601 -0.8625 -0.0459
  158SAPE  H11A17532   1.720   0.897   6.917  0.5422  2.7559 -2.8386
  158SAPE  H11B17533   1.763   0.950   7.082 -1.2225 -1.7290  0.8344
  158SAPE     P17534   1.753   1.141   6.823 -0.0696 -0.5115  0.1096
  158SAPE   O1317535   1.695   1.056   6.716  0.4175 -0.2605  0.2435
  158SAPE   O1417536   1.747   1.291   6.802 -0.2782 -0.1821  0.0686
  158SAPE   O1217537   1.698   1.097   6.964 -0.4348  0.2438 -0.5408
  158SAPE   O1117538   1.908   1.099   6.843  0.5086  0.2765  0.1500
  158SAPE    C117539   1.970   0.980   6.805  0.7857  1.3322  0.5041
  158SAPE    HA17540   2.016   0.933   6.895 -0.2968 -0.4653  0.1595
  158SAPE    HB17541   1.899   0.906   6.763  1.6011  0.6440  0.3230
  158SAPE    C217542   2.080   1.007   6.699  0.3967  0.0731  0.4498
  158SAPE    HS17543   2.169   1.052   6.747  1.8022 -2.0639 -0.0198
  158SAPE   O2117544   2.025   1.075   6.584  0.0702 -0.4770 -0.1153
  158SAPE   C2117545   2.040   1.204   6.588  0.0685  0.4736  0.8596
  158SAPE   O2217546   2.093   1.272   6.679 -0.5743 -0.1015  0.1657
  158SAPE   C2217547   1.992   1.269   6.458  0.8563 -0.4288  0.7688
  158SAPE   H2R17548   1.988   1.380   6.467 -0.0491 -0.6032  3.3829
  158SAPE   H2S17549   2.075   1.246   6.388  1.4445 -0.8569  1.5827
  158SAPE    C317550   2.132   0.863   6.662  0.1582 -0.5888  0.1595
  158SAPE    HX17551   2.046   0.794   6.652  1.1786 -1.8993  0.0346
  158SAPE    HY17552   2.188   0.824   6.750 -0.3385 -0.8618  0.3595
  158SAPE   O3117553   2.214   0.856   6.538  0.4452 -0.0433 -0.4031
  158SAPE   C3117554   2.314   0.933   6.542 -0.4733 -0.4535  0.1901
  158SAPE   O3217555   2.360   0.998   6.631  0.2335  0.1143  0.4446
  158SAPE   C3217556   2.370   0.950   6.397  0.7554  0.3497 -0.1322
  158SAPE   H2X17557   2.449   0.873   6.386  0.0424 -0.5636  0.9124
  158SAPE   H2Y17558   2.401   1.056   6.407  1.7581 -0.1208  3.0776
  158SAPE   C2317559   1.856   1.217   6.417 -0.8540  0.2236  0.4445
  158SAPE   H3R17560   1.775   1.267   6.474 -1.4899 -0.7998  0.4607
  158SAPE   H3S17561   1.839   1.109   6.434 -1.4087  0.1089 -0.6943
  158SAPE   C2417562   1.833   1.257   6.270  0.4224 -0.0609  0.0277
  158SAPE   H4R17563   1.866   1.363   6.268 -0.5427  0.3387  2.3940
  158SAPE   H4S17564   1.722   1.259   6.267  0.3775 -0.1938  1.0845
  158SAPE   C2517565   1.874   1.165   6.162  0.1276  0.2122  0.1100
  158SAPE   H5R17566   1.841   1.061   6.176 -2.9317  1.0595 -0.0443
  158SAPE   C2617567   1.939   1.212   6.053 -0.0254  0.5430  0.5784
  158SAPE   H6R17568   1.947   1.150   5.963 -0.7712  0.9319  0.2305
  158SAPE   C2717569   1.987   1.351   6.020  0.3118 -0.1764 -0.0107
  158SAPE   H7R17570   2.054   1.355   5.931  0.9652 -2.6255  0.2830
  158SAPE   H7S17571   2.055   1.391   6.098 -0.4140  2.6606 -0.7218
  158SAPE   C2817572   1.878   1.463   6.010  0.0763  0.3113  0.2428
  158SAPE   H8R17573   1.811   1.475   6.097 -2.4968  0.1501 -1.5844
  158SAPE   C2917574   1.882   1.554   5.909 -0.3200  0.1777  0.6969
  158SAPE   H9R17575   1.801   1.629   5.914  1.4720  2.1548  2.6319
  158SAPE  C21017576   1.969   1.559   5.791  0.8813 -0.2026 -0.1616
  158SAPE  H10R17577   2.072   1.540   5.828  0.7383 -1.5851 -0.4335
  158SAPE  H10S17578   1.962   1.665   5.758 -1.6532 -0.8557 -2.0732
  158SAPE  C21117579   1.918   1.461   5.683  0.2032  0.2527 -0.1346
  158SAPE  H11R17580   1.816   1.421   5.694 -0.1305 -0.2143 -3.7810
  158SAPE  C21217581   1.984   1.432   5.572 -1.0841 -0.0497  0.1182
  158SAPE  H12R17582   1.956   1.356   5.498  2.5065 -1.6323  0.2036
  158SAPE  C21317583   2.116   1.492   5.539 -0.7144 -0.1656  0.1311
  158SAPE  H13R17584   2.183   1.403   5.544 -0.8498 -0.2059  2.7073
  158SAPE  H13S17585   2.161   1.563   5.611 -1.4390 -0.0231  0.4543
  158SAPE  C21417586   2.123   1.562   5.409  0.3433 -0.1938  0.7990
  158SAPE  H14R17587   2.104   1.671   5.410 -2.1064 -0.5248 -0.5148
  158SAPE  C21517588   2.140   1.497   5.289  0.5149  0.6000  0.2043
  158SAPE  H15R17589   2.140   1.556   5.197  0.4043  1.3814  0.6983
  158SAPE  C21617590   2.125   1.351   5.252  0.4104 -0.1144  0.8316
  158SAPE  H16R17591   2.041   1.332   5.182  0.5665 -0.3460  0.7008
  158SAPE  H16S17592   2.081   1.296   5.338 -2.0637 -0.2772 -0.4504
  158SAPE  C21717593   2.248   1.286   5.197 -0.3256 -0.5102 -0.2620
  158SAPE  H17R17594   2.307   1.363   5.142 -2.4935  0.2243 -1.6687
  158SAPE  H17S17595   2.215   1.207   5.127  0.1217 -0.4397 -0.5600
  158SAPE  C21817596   2.337   1.223   5.295 -0.4634 -0.4067 -0.2708
  158SAPE  H18R17597   2.274   1.192   5.381 -1.1394  1.8067  0.0879
  158SAPE  H18S17598   2.420   1.279   5.343  0.2990 -2.2893  0.7177
  158SAPE  C21917599   2.411   1.110   5.227  0.0346 -0.0853  0.2717
  158SAPE  H19R17600   2.488   1.155   5.160 -0.1810  0.4182  0.3566
  158SAPE  H19S17601   2.347   1.050   5.158  0.1647  0.1701 -0.0752
  158SAPE  C22017602   2.461   1.010   5.328 -0.0360 -0.3888  0.2242
  158SAPE  H20R17603   2.392   0.933   5.369 -0.8620 -0.5593 -1.4201
  158SAPE  H20S17604   2.510   1.069   5.409  1.5595  1.0852 -1.6862
  158SAPE  H20T17605   2.545   0.957   5.278 -0.1860  0.4763 -0.9854
  158SAPE   C3317606   2.285   0.920   6.271  0.2789  0.1975 -0.2901
  158SAPE   H3X17607   2.180   0.946   6.296 -0.3616 -1.2041 -1.3869
  158SAPE   H3Y17608   2.284   0.814   6.237  2.0592  0.4223 -1.1786
  158SAPE   C3417609   2.324   1.009   6.153 -0.3942  0.2395 -0.7010
  158SAPE   H4X17610   2.435   1.015   6.156 -0.4765  3.1066  1.5791
  158SAPE   H4Y17611   2.293   1.114   6.176 -1.6959  0.3124 -2.5720
  158SAPE   C3517612   2.269   0.966   6.019 -0.0384 -0.0858 -0.5838
  158SAPE   H5X17613   2.159   0.978   6.017  0.1032  1.5608  0.0857
  158SAPE   H5Y17614   2.295   0.861   5.997 -0.1966 -0.3558  0.4851
  158SAPE   C3617615   2.320   1.059   5.908 -0.3619  0.7927  0.7407
  158SAPE   H6X17616   2.423   1.026   5.883 -0.4251 -0.3196  1.8311
  158SAPE   H6Y17617   2.325   1.158   5.959  2.0476  0.8641  0.4833
  158SAPE   C3717618   2.230   1.072   5.780 -0.0032  0.6009 -0.5219
  158SAPE   H7X17619   2.287   1.128   5.704  2.3658 -0.3333  0.4758
  158SAPE   H7Y17620   2.130   1.117   5.796 -0.7441 -1.1331  0.0013
  158SAPE   C3817621   2.200   0.931   5.731 -0.0368  0.3240 -0.6359
  158SAPE   H8X17622   2.128   0.889   5.805  0.3317  2.2652  0.9044
  158SAPE   H8Y17623   2.293   0.872   5.733  1.2293  2.2379 -0.5072
  158SAPE   C3917624   2.128   0.915   5.591  0.4331 -0.2394  0.1988
  158SAPE   H9X17625   2.088   0.812   5.581  1.2167 -0.4757 -0.6247
  158SAPE   H9Y17626   2.211   0.929   5.519  1.8075 -1.6684  1.4362
  158SAPE  C31017627   2.019   1.019   5.575 -0.3531 -0.2298 -0.4210
  158SAPE  H10X17628   1.985   1.021   5.469 -1.8346  0.3529  0.0388
  158SAPE  H10Y17629   2.053   1.121   5.604 -1.3366 -0.2885  1.0859
  158SAPE  C31117630   1.897   0.992   5.657  0.2587  0.2398 -0.6253
  158SAPE  H11X17631   1.923   0.969   5.763 -3.5309  1.5420  0.7711
  158SAPE  H11Y17632   1.847   0.905   5.608  0.7644  0.8596 -2.2811
  158SAPE  C31217633   1.805   1.118   5.662  0.5318  0.1417 -0.1143
  158SAPE  H12X17634   1.788   1.142   5.555 -0.2489 -2.3983 -0.6266
  158SAPE  H12Y17635   1.855   1.203   5.714 -1.1679  1.5360 -0.6623
  158SAPE  C31317636   1.661   1.111   5.714  0.1578  0.8359  0.2285
  158SAPE  H13X17637   1.610   1.021   5.674  1.4933 -0.0883  0.5232
  158SAPE  H13Y17638   1.599   1.194   5.673 -1.1896 -0.6508 -0.8493
  158SAPE  C31417639   1.652   1.110   5.866 -0.1249  0.3406 -0.9116
  158SAPE  H14X17640   1.692   1.206   5.905  3.1525 -0.3118 -2.3933
  158SAPE  H14Y17641   1.724   1.033   5.901  1.1594  2.2857  1.0234
  158SAPE  C31517642   1.513   1.062   5.924 -0.0088 -0.5749  0.1530
  158SAPE  H15X17643   1.490   0.962   5.881  1.4980 -0.3724 -1.2392
  158SAPE  H15Y17644   1.436   1.135   5.893 -0.8717 -2.0100 -1.2510
  158SAPE  C31617645   1.502   1.059   6.072 -0.6401 -0.5879 -0.4285
  158SAPE  H16X17646   1.394   1.072   6.095 -0.3883  2.6436 -0.5878
  158SAPE  H16Y17647   1.563   1.147   6.100 -0.0183  0.1331 -3.6109
  158SAPE  C31717648   1.560   0.936   6.135  0.1249 -0.0324  0.2077
  158SAPE  H17X17649   1.669   0.940   6.115  0.1299 -0.3673  0.1578
  158SAPE  H17Y17650   1.508   0.843   6.102  0.1662 -0.7179  1.9538
  158SAPE  C31817651   1.536   0.933   6.284  0.2209  0.3044  0.2562
  158SAPE  H18X17652   1.437   0.978   6.310 -1.2840 -2.8960  0.5342
  158SAPE  H18Y17653   1.615   0.992   6.335  1.5819  1.0978 -2.5652
  158SAPE  H18Z17654   1.545   0.826   6.313  2.0229  0.3701  0.0295
  159SAPE     N17655   0.662   0.841   2.473  0.1401 -0.4114 -0.1096
  159SAPE   HN117656   0.644   0.775   2.551  1.0538 -0.6508 -0.0950
  159SAPE   HN217657   0.650   0.789   2.384 -0.6427 -0.3075 -0.0772
  159SAPE   HN317658   0.761   0.871   2.481  0.5549 -2.0014  1.1470
  159SAPE   C1217659   0.567   0.954   2.476 -0.4658  0.3174  0.5662
  159SAPE  H12A17660   0.586   1.024   2.392 -0.1828 -0.6440 -0.1915
  159SAPE  H12B17661   0.581   1.014   2.569  2.7638 -1.8113  1.6342
  159SAPE   C1117662   0.425   0.901   2.461 -0.3571 -0.2268  0.0717
  159SAPE  H11A17663   0.406   0.856   2.361 -2.2812 -1.2125  0.8396
  159SAPE  H11B17664   0.363   0.993   2.466  1.8677  1.3921 -0.8187
  159SAPE     P17665   0.274   0.710   2.558 -0.2909 -0.2573 -0.2809
  159SAPE   O1317666   0.235   0.685   2.421 -0.2344  0.3201  0.9525
  159SAPE   O1417667   0.316   0.584   2.623  0.1238 -0.0432 -0.3287
  159SAPE   O1217668   0.391   0.805   2.568  0.1868 -0.2631 -0.2499
  159SAPE   O1117669   0.156   0.775   2.639 -0.3191 -0.2660  0.1099
  159SAPE    C117670   0.191   0.880   2.734 -0.0101 -0.4740 -0.0817
  159SAPE    HA17671   0.257   0.960   2.694 -1.2319  0.8999  0.5860
  159SAPE    HB17672   0.095   0.930   2.758 -0.5094 -0.5440 -1.8130
  159SAPE    C217673   0.268   0.825   2.859  0.6351 -0.5703 -0.2023
  159SAPE    HS17674   0.351   0.761   2.822  0.5119 -1.0190  0.2908
  159SAPE   O2117675   0.172   0.764   2.945 -0.0852  0.7942  0.2208
  159SAPE   C2117676   0.210   0.667   3.028 -0.7364  0.8444 -0.0155
  159SAPE   O2217677   0.329   0.634   3.035 -0.1453  0.0240 -0.6521
  159SAPE   C2217678   0.098   0.625   3.117  0.3958  0.7824 -0.8283
  159SAPE   H2R17679   0.007   0.685   3.095 -1.2280 -0.1427  2.6501
  159SAPE   H2S17680   0.081   0.516   3.107  0.2832  0.9752 -3.4808
  159SAPE    C317681   0.340   0.952   2.929 -0.1896  0.3094  0.2200
  159SAPE    HX17682   0.262   1.011   2.980  1.2648  0.9881  1.7592
  159SAPE    HY17683   0.383   1.010   2.845 -2.8346  1.6626 -0.2806
  159SAPE   O3117684   0.439   0.913   3.027 -0.6446 -0.3238 -0.1385
  159SAPE   C3117685   0.567   0.908   2.985  0.5214  0.9816  0.6494
  159SAPE   O3217686   0.601   0.930   2.869 -0.2885  0.2032 -0.2816
  159SAPE   C3217687   0.648   0.831   3.087  0.5325  0.1007 -0.2047
  159SAPE   H2X17688   0.748   0.878   3.103  0.6834  0.2140 -1.3675
  159SAPE   H2Y17689   0.653   0.728   3.044  0.2002  0.8856 -2.2589
  159SAPE   C2317690   0.128   0.664   3.264  0.2036 -1.0695 -0.1013
  159SAPE   H3R17691   0.033   0.680   3.319 -0.1397 -2.2180 -0.3430
  159SAPE   H3S17692   0.183   0.760   3.270  2.7541 -2.4547 -0.0502
  159SAPE   C2417693   0.209   0.561   3.347 -0.7178 -0.6592 -0.2499
  159SAPE   H4R17694   0.250   0.603   3.441 -1.1833 -0.6857 -0.0277
  159SAPE   H4S17695   0.300   0.528   3.293  0.0406 -1.2836  1.3484
  159SAPE   C2517696   0.138   0.431   3.377 -0.3422 -0.2139  0.4453
  159SAPE   H5R17697   0.144   0.355   3.297  1.1369  1.3142 -0.9964
  159SAPE   C2617698   0.093   0.391   3.496  0.2029 -0.4283  0.3230
  159SAPE   H6R17699   0.055   0.289   3.510  0.7499 -0.8503 -1.0827
  159SAPE   C2717700   0.097   0.477   3.617 -0.0581 -0.4096 -0.9582
  159SAPE   H7R17701   0.139   0.578   3.600  0.4608 -0.6323 -1.0154
  159SAPE   H7S17702   0.176   0.422   3.672  2.4935  2.3480 -1.5881
  159SAPE   C2817703  -0.032   0.488   3.698 -0.1893  0.0428 -0.4613
  159SAPE   H8R17704  -0.114   0.530   3.638 -0.0916  0.2850 -0.4263
  159SAPE   C2917705  -0.056   0.441   3.824 -0.3994 -0.3725 -0.2568
  159SAPE   H9R17706  -0.157   0.454   3.866 -0.9268  3.0100 -2.2054
  159SAPE  C21017707   0.042   0.376   3.920  0.0741 -0.1005  0.0985
  159SAPE  H10R17708   0.062   0.447   4.003  0.5292 -1.0868  0.8538
  159SAPE  H10S17709   0.143   0.355   3.879  0.3326 -1.5063  1.3514
  159SAPE  C21117710  -0.027   0.251   3.974 -0.3029  0.0739  0.0825
  159SAPE  H11R17711  -0.007   0.158   3.919  0.1221 -0.0309  0.4085
  159SAPE  C21217712  -0.112   0.242   4.077  0.4152  0.8088 -0.5361
  159SAPE  H12R17713  -0.165   0.147   4.095  0.7530  0.4710 -1.2579
  159SAPE  C21317714  -0.155   0.355   4.166 -0.2866  0.6407  0.1578
  159SAPE  H13R17715  -0.261   0.388   4.160  0.6168  3.9793  1.0803
  159SAPE  H13S17716  -0.096   0.445   4.143  1.6633 -0.5675  0.2279
  159SAPE  C21417717  -0.149   0.307   4.308  0.0589 -0.9211 -0.7452
  159SAPE  H14R17718  -0.219   0.228   4.337 -0.5892 -0.4908 -1.0815
  159SAPE  C21517719  -0.091   0.357   4.418 -0.7540 -0.7230  0.7042
  159SAPE  H15R17720  -0.094   0.297   4.510  1.1134  0.0022  1.2893
  159SAPE  C21617721  -0.005   0.483   4.420 -0.5624  0.5745 -0.1875
  159SAPE  H16R17722  -0.021   0.544   4.512 -1.0158 -0.1523  0.2238
  159SAPE  H16S17723  -0.038   0.548   4.336 -1.4595 -0.2798 -0.5168
  159SAPE  C21717724   0.142   0.450   4.404  0.1173 -0.4982 -0.0208
  159SAPE  H17R17725   0.192   0.532   4.348  1.1443 -0.2939  1.1623
  159SAPE  H17S17726   0.155   0.364   4.334  1.2229 -0.2319 -0.1489
  159SAPE  C21817727   0.214   0.418   4.539  0.1915 -0.3719  0.2177
  159SAPE  H18R17728   0.189   0.318   4.580 -0.1103 -0.0684  0.7861
  159SAPE  H18S17729   0.166   0.492   4.607  0.3955  1.2388 -1.3134
  159SAPE  C21917730   0.366   0.447   4.550  0.5005  0.2492 -0.2752
  159SAPE  H19R17731   0.407   0.428   4.651  1.1751  2.2646 -0.1324
  159SAPE  H19S17732   0.387   0.551   4.516  0.2700 -0.4625 -2.8538
  159SAPE  C22017733   0.447   0.366   4.441  0.9934  0.0843 -0.7752
  159SAPE  H20R17734   0.393   0.389   4.347 -0.5738 -0.6496 -0.0961
  159SAPE  H20S17735   0.430   0.257   4.460 -2.5357  0.5586 -0.4340
  159SAPE  H20T17736   0.555   0.392   4.443  0.3678  2.9719 -0.1486
  159SAPE   C3317737   0.576   0.815   3.223  0.0478  0.4220 -0.5161
  159SAPE   H3X17738   0.498   0.737   3.209  0.8186 -0.6700  0.9610
  159SAPE   H3Y17739   0.535   0.912   3.260 -0.5451 -0.1148  0.2940
  159SAPE   C3417740   0.666   0.756   3.336 -0.6054  0.3601  0.2604
  159SAPE   H4X17741   0.744   0.830   3.363  0.0751 -0.5204  0.7137
  159SAPE   H4Y17742   0.705   0.662   3.291 -3.2499  0.3536 -2.3887
  159SAPE   C3517743   0.591   0.707   3.462  0.3378 -0.3322  0.7003
  159SAPE   H5X17744   0.659   0.672   3.543  0.3367  0.2434  0.9512
  159SAPE   H5Y17745   0.534   0.617   3.429  0.7630  0.0029 -1.0501
  159SAPE   C3617746   0.490   0.797   3.519  0.3491  0.4828 -0.0463
  159SAPE   H6X17747   0.415   0.833   3.445 -1.6353 -1.1278  1.0606
  159SAPE   H6Y17748   0.542   0.885   3.562  2.5136 -1.1618  0.8561
  159SAPE   C3717749   0.422   0.730   3.633  0.1942  0.4202 -0.6522
  159SAPE   H7X17750   0.480   0.725   3.728 -2.4484 -0.5673  1.0376
  159SAPE   H7Y17751   0.394   0.624   3.615  1.6794 -0.1558  0.1973
  159SAPE   C3817752   0.293   0.809   3.689  0.8309  0.6951 -0.1225
  159SAPE   H8X17753   0.257   0.745   3.773 -1.4427  2.3476  0.2565
  159SAPE   H8Y17754   0.225   0.785   3.604  1.7393 -2.6619 -0.0657
  159SAPE   C3917755   0.301   0.953   3.711 -0.2936  0.2570  0.3217
  159SAPE   H9X17756   0.392   0.999   3.666 -0.1814 -1.2011 -1.0304
  159SAPE   H9Y17757   0.296   0.975   3.820 -2.0359 -1.6298  0.6848
  159SAPE  C31017758   0.191   1.034   3.645  0.3274 -0.2386 -0.0160
  159SAPE  H10X17759   0.187   1.135   3.692 -0.1338  0.3609 -1.2985
  159SAPE  H10Y17760   0.093   0.994   3.678 -0.1036  0.0507 -0.9183
  159SAPE  C31117761   0.201   1.051   3.491  0.3595 -0.2729 -0.0564
  159SAPE  H11X17762   0.109   1.094   3.444  0.4453  2.0317  1.6825
  159SAPE  H11Y17763   0.227   0.951   3.450  2.1346  1.0861 -2.5697
  159SAPE  C31217764   0.319   1.141   3.444  0.7267 -0.1323 -0.5177
  159SAPE  H12X17765   0.419   1.113   3.483  1.7266  2.1519 -1.2565
  159SAPE  H12Y17766   0.293   1.241   3.485 -2.0866 -0.2425 -1.8140
  159SAPE  C31317767   0.334   1.148   3.291  0.6567 -0.7019  1.5474
  159SAPE  H13X17768   0.227   1.169   3.269  1.1256 -0.6802 -1.0471
  159SAPE  H13Y17769   0.367   1.055   3.239  1.6554  1.6151 -2.4084
  159SAPE  C31417770   0.426   1.270   3.240  0.3365  1.0859 -0.3842
  159SAPE  H14X17771   0.404   1.363   3.297 -2.0792  1.2755 -1.5211
  159SAPE  H14Y17772   0.411   1.281   3.130 -1.0359  0.1687 -0.3122
  159SAPE  C31517773   0.574   1.222   3.244  0.1913  0.2629 -0.5937
  159SAPE  H15X17774   0.593   1.133   3.181 -0.8736  0.5839 -1.3956
  159SAPE  H15Y17775   0.602   1.186   3.345 -0.5389  1.8514  0.2208
  159SAPE  C31617776   0.680   1.327   3.203 -0.2900 -0.2297  0.3536
  159SAPE  H16X17777   0.781   1.281   3.200  0.4126  1.2668  0.1956
  159SAPE  H16Y17778   0.674   1.397   3.289 -1.4024 -0.6807  0.6702
  159SAPE  C31717779   0.646   1.401   3.079 -0.3015  0.0588 -0.0954
  159SAPE  H17X17780   0.553   1.458   3.102  0.8958  2.6897 -1.3682
  159SAPE  H17Y17781   0.618   1.334   2.995  0.3940  2.4152 -2.3416
  159SAPE  C31817782   0.748   1.509   3.038  0.4320  0.6729  0.4800
  159SAPE  H18X17783   0.828   1.456   2.982 -1.1558 -0.1499 -1.1137
  159SAPE  H18Y17784   0.787   1.541   3.137  1.5064 -2.1023  1.0473
  159SAPE  H18Z17785   0.705   1.593   2.980  1.6217  1.5616  0.8580
  160SAPE     N17786   3.376   0.911   2.550  0.0398  0.1188 -0.0143
  160SAPE   HN117787   3.449   0.837   2.542 -0.7192 -0.7186  0.6602
  160SAPE   HN217788   3.426   1.000   2.530  0.8321 -0.5893 -1.3743
  160SAPE   HN317789   3.353   0.928   2.650  0.4780  1.8898 -0.1697
  160SAPE   C1217790   3.253   0.907   2.460 -0.3229  0.4399  0.1505
  160SAPE  H12A17791   3.226   0.803   2.433  1.8578  0.4469 -2.4670
  160SAPE  H12B17792   3.279   0.950   2.361 -0.0637  1.6035  0.7063
  160SAPE   C1117793   3.145   0.999   2.512 -0.2511  0.2259 -0.0806
  160SAPE  H11A17794   3.085   0.946   2.589 -0.4609  0.0032 -0.3949
  160SAPE  H11B17795   3.071   1.015   2.431 -1.6765 -1.0914  0.9079
  160SAPE     P17796   3.238   1.251   2.486 -0.1554  0.0583  0.2912
  160SAPE   O1317797   3.365   1.223   2.410  0.9755  0.2919  0.3227
  160SAPE   O1417798   3.114   1.298   2.410 -0.7266 -0.1480  0.3345
  160SAPE   O1217799   3.203   1.122   2.566  0.0251 -0.0332 -0.0307
  160SAPE   O1117800   3.285   1.346   2.607  0.5000 -0.1617 -0.1969
  160SAPE    C117801   3.402   1.430   2.604 -0.0300  0.0943 -0.3214
  160SAPE    HA17802   3.467   1.397   2.519  0.2471 -2.0886  0.6772
  160SAPE    HB17803   3.383   1.539   2.600  0.0690  0.0947 -1.1211
  160SAPE    C217804   3.487   1.386   2.734 -0.5804 -0.2045  0.1080
  160SAPE    HS17805   3.490   1.275   2.727  0.9794 -0.1269 -0.9756
  160SAPE   O2117806   3.424   1.443   2.850 -0.5394  0.1230 -0.6372
  160SAPE   C2117807   3.377   1.349   2.931 -0.4809  0.0213  0.0443
  160SAPE   O2217808   3.392   1.230   2.918  0.3476  0.6932  0.2811
  160SAPE   C2217809   3.352   1.417   3.071 -0.4551 -1.1038 -0.3158
  160SAPE   H2R17810   3.439   1.478   3.105 -1.5810 -0.5468  1.6956
  160SAPE   H2S17811   3.266   1.485   3.052  1.9718  2.0987 -0.7760
  160SAPE    C317812   3.638   1.432   2.739  0.4987 -0.2515 -0.5079
  160SAPE    HX17813   3.628   1.542   2.737 -1.9187 -0.4047 -1.2863
  160SAPE    HY17814   3.697   1.396   2.652  1.4890 -0.9211  0.4172
  160SAPE   O3117815   3.707   1.411   2.864  0.5339 -0.2320 -0.1195
  160SAPE   C3117816   3.753   1.289   2.879 -0.0890  0.0665  0.7574
  160SAPE   O3217817   3.742   1.198   2.798  0.1696 -0.0610 -0.1252
  160SAPE   C3217818   3.818   1.281   3.011 -0.3478 -0.0974 -0.8677
  160SAPE   H2X17819   3.833   1.381   3.059 -1.2856 -1.5698  2.7700
  160SAPE   H2Y17820   3.921   1.239   3.002 -0.7940 -2.0022  1.8625
  160SAPE   C2317821   3.330   1.313   3.179  0.3427 -0.3097 -0.4942
  160SAPE   H3R17822   3.324   1.373   3.273  1.3149  1.5031 -1.5307
  160SAPE   H3S17823   3.413   1.240   3.181  1.7463  1.2438  0.5715
  160SAPE   C2417824   3.191   1.232   3.184 -0.3846 -0.0345  0.7275
  160SAPE   H4R17825   3.181   1.168   3.274 -2.4816  1.7526  1.8630
  160SAPE   H4S17826   3.196   1.170   3.092  1.4188  0.0293  0.7510
  160SAPE   C2517827   3.062   1.323   3.177 -0.2913 -0.6506 -0.4972
  160SAPE   H5R17828   3.067   1.404   3.103 -1.1626 -1.1330 -1.1125
  160SAPE   C2617829   2.938   1.290   3.229  0.1605 -0.3773 -0.4748
  160SAPE   H6R17830   2.855   1.363   3.222  1.7410  1.3453 -3.1420
  160SAPE   C2717831   2.895   1.166   3.302  0.1139  0.2276 -0.2288
  160SAPE   H7R17832   2.988   1.120   3.342 -0.4298  0.5208  1.4482
  160SAPE   H7S17833   2.849   1.095   3.231 -2.8564  0.9899  0.7731
  160SAPE   C2817834   2.792   1.170   3.414 -0.7783 -0.3032  0.7929
  160SAPE   H8R17835   2.688   1.169   3.377 -0.2294  0.5695 -0.8478
  160SAPE   C2917836   2.825   1.177   3.547  0.1423  0.7689  0.1093
  160SAPE   H9R17837   2.742   1.185   3.619 -2.3409 -1.1935 -2.3042
  160SAPE  C21017838   2.965   1.179   3.602  0.3997 -0.7586 -0.3435
  160SAPE  H10R17839   3.035   1.112   3.548  0.2609 -2.4744  1.4404
  160SAPE  H10S17840   2.963   1.136   3.705  0.6634  0.5599  0.2357
  160SAPE  C21117841   3.023   1.322   3.607  0.1164  0.1505  0.8384
  160SAPE  H11R17842   3.013   1.371   3.508 -1.1359  1.4120  1.5554
  160SAPE  C21217843   3.103   1.380   3.701  0.0513  0.2009  0.2060
  160SAPE  H12R17844   3.143   1.481   3.686 -2.2155  1.1301  0.0774
  160SAPE  C21317845   3.141   1.306   3.827 -0.2306 -0.4491 -0.5232
  160SAPE  H13R17846   3.221   1.230   3.812  0.5663  0.0358  1.0911
  160SAPE  H13S17847   3.053   1.256   3.871 -1.5912  1.7928 -0.5977
  160SAPE  C21417848   3.198   1.408   3.926 -0.2046 -0.1772 -0.0586
  160SAPE  H14R17849   3.188   1.514   3.899 -1.3493 -0.3071 -0.1948
  160SAPE  C21517850   3.266   1.376   4.039  0.6695 -1.1762  0.0381
  160SAPE  H15R17851   3.307   1.461   4.096  0.9363 -1.4876  0.3161
  160SAPE  C21617852   3.279   1.241   4.105  0.4959  0.7062  0.1024
  160SAPE  H16R17853   3.382   1.213   4.137  0.6026  0.8983 -0.0685
  160SAPE  H16S17854   3.253   1.153   4.041  0.4628 -0.6446  1.9031
  160SAPE  C21717855   3.191   1.240   4.228  0.8151  0.2507 -0.3189
  160SAPE  H17R17856   3.089   1.270   4.194  0.5003  0.2339  0.5814
  160SAPE  H17S17857   3.217   1.315   4.306 -0.6698  2.1779 -1.5672
  160SAPE  C21817858   3.172   1.106   4.302 -0.5124  0.0491 -0.2727
  160SAPE  H18R17859   3.271   1.090   4.349  0.2065  0.4595 -1.5904
  160SAPE  H18S17860   3.163   1.024   4.227  4.5896  0.6376 -1.8651
  160SAPE  C21917861   3.053   1.113   4.408 -0.6771  0.3281 -0.1517
  160SAPE  H19R17862   2.959   1.113   4.349 -1.4631  2.2937  1.0220
  160SAPE  H19S17863   3.066   1.214   4.451  0.9952  0.1805 -0.2297
  160SAPE  C22017864   3.063   1.010   4.520  0.3983  0.6062  0.2153
  160SAPE  H20R17865   2.982   1.029   4.593  0.0423 -0.3360  0.0835
  160SAPE  H20S17866   3.163   1.025   4.567  0.6275  0.0907 -0.0970
  160SAPE  H20T17867   3.054   0.906   4.483  2.5620  0.5800 -0.3601
  160SAPE   C3317868   3.727   1.203   3.108  0.3669 -0.3802  0.6263
  160SAPE   H3X17869   3.708   1.102   3.064 -1.7741  0.1407  0.2415
  160SAPE   H3Y17870   3.624   1.242   3.118  1.0443  1.3293  1.3642
  160SAPE   C3417871   3.780   1.193   3.252 -0.3487 -0.3003 -0.7543
  160SAPE   H4X17872   3.891   1.185   3.249 -0.3335 -1.3758  1.2146
  160SAPE   H4Y17873   3.735   1.102   3.297 -2.3299  0.0850 -1.8810
  160SAPE   C3517874   3.756   1.321   3.339  0.1424 -0.3062  1.1219
  160SAPE   H5X17875   3.658   1.366   3.315  0.3270  0.2660  1.4323
  160SAPE   H5Y17876   3.843   1.391   3.337 -0.6840  0.7463  1.3987
  160SAPE   C3617877   3.735   1.291   3.488 -0.0562 -0.1743  0.2581
  160SAPE   H6X17878   3.664   1.206   3.484 -2.4527  1.7498 -1.7191
  160SAPE   H6Y17879   3.674   1.374   3.531  1.9193  1.7643 -0.4597
  160SAPE   C3717880   3.865   1.270   3.568  0.5722 -0.0141 -0.7506
  160SAPE   H7X17881   3.940   1.348   3.542 -1.1513  1.4625 -1.5456
  160SAPE   H7Y17882   3.915   1.176   3.539 -1.0043 -1.0880 -0.1329
  160SAPE   C3817883   3.827   1.270   3.715  0.5784  0.5386  0.6900
  160SAPE   H8X17884   3.807   1.376   3.741  0.4891  0.7102 -0.0730
  160SAPE   H8Y17885   3.922   1.232   3.760 -0.6418  1.1008  4.0842
  160SAPE   C3917886   3.706   1.183   3.756  0.1839 -0.7311  0.2646
  160SAPE   H9X17887   3.722   1.091   3.695  1.4938  1.2314 -2.5795
  160SAPE   H9Y17888   3.612   1.229   3.720 -0.0051 -0.6441  0.8565
  160SAPE  C31017889   3.699   1.160   3.908  0.1774 -0.2349  0.2430
  160SAPE  H10X17890   3.790   1.105   3.939  1.0060  0.4251 -0.9469
  160SAPE  H10Y17891   3.610   1.099   3.937 -0.5767 -0.5169 -2.3554
  160SAPE  C31117892   3.686   1.297   3.985 -0.0892  0.0800 -0.0422
  160SAPE  H11X17893   3.593   1.340   3.942  0.2908 -0.7855 -1.8129
  160SAPE  H11Y17894   3.774   1.363   3.969  0.6617 -1.1397 -1.1599
  160SAPE  C31217895   3.670   1.269   4.130 -0.3913  0.2257 -0.1787
  160SAPE  H12X17896   3.764   1.220   4.163 -0.7161  0.1602  0.6983
  160SAPE  H12Y17897   3.580   1.205   4.146 -0.0184 -0.1722  0.3990
  160SAPE  C31317898   3.652   1.397   4.202  0.2648  0.6994 -0.2232
  160SAPE  H13X17899   3.567   1.447   4.152 -0.0524  0.2720 -0.1161
  160SAPE  H13Y17900   3.744   1.455   4.180 -0.0209  0.4298 -2.4063
  160SAPE  C31417901   3.636   1.387   4.354  0.4234 -0.2936 -0.8233
  160SAPE  H14X17902   3.625   1.487   4.402 -0.2818 -0.2147 -1.1395
  160SAPE  H14Y17903   3.727   1.339   4.397  0.4302  1.0734  0.7965
  160SAPE  C31517904   3.506   1.323   4.392  0.3628 -0.3017 -0.2726
  160SAPE  H15X17905   3.499   1.220   4.350  1.1768 -0.7117  0.5548
  160SAPE  H15Y17906   3.419   1.377   4.348  0.7193  1.1248  0.7032
  160SAPE  C31617907   3.495   1.323   4.549 -0.0688  0.3768 -0.3267
  160SAPE  H16X17908   3.504   1.429   4.582 -2.4081  0.2842  0.8461
  160SAPE  H16Y17909   3.575   1.265   4.599 -1.5704  1.4242  3.7081
  160SAPE  C31717910   3.361   1.262   4.602 -0.2835 -0.0334 -0.6664
  160SAPE  H17X17911   3.349   1.154   4.576 -0.7244  0.0952 -1.0322
  160SAPE  H17Y17912   3.272   1.311   4.556 -0.3019 -2.3008 -3.3757
  160SAPE  C31817913   3.355   1.283   4.750 -0.1692  0.7611 -0.1166
  160SAPE  H18X17914   3.405   1.377   4.780  1.6874 -0.5323  1.0337
  160SAPE  H18Y17915   3.407   1.200   4.802  0.2158  0.1991 -1.3390
  160SAPE  H18Z17916   3.252   1.277   4.790  0.6586  0.3736  2.0587
  161SAPE     N17917   4.848   4.153   2.343 -0.1849 -0.4270 -0.3787
  161SAPE   HN117918   4.950   4.148   2.362 -0.7360 -1.6791  2.9089
  161SAPE   HN217919   4.839   4.159   2.239  2.0301 -1.0583 -0.6579
  161SAPE   HN317920   4.805   4.243   2.373 -1.2472 -0.6324 -1.2020
  161SAPE   C1217921   4.783   4.032   2.398 -0.6337  0.2067 -0.2827
  161SAPE  H12A17922   4.815   3.939   2.345  0.2316  0.3667 -0.0432
  161SAPE  H12B17923   4.674   4.048   2.379 -0.6365  0.3944 -0.1020
  161SAPE   C1117924   4.812   4.017   2.549  0.2467  0.2417  0.2340
  161SAPE  H11A17925   4.919   4.030   2.575 -0.3444  2.1351  2.0435
  161SAPE  H11B17926   4.784   3.914   2.580  1.7310 -0.5007 -0.7943
  161SAPE     P17927   4.587   4.095   2.649  0.3465 -0.6134 -0.0323
  161SAPE   O1317928   4.506   4.224   2.638  0.4295 -0.4940 -0.3337
  161SAPE   O1417929   4.538   3.986   2.567 -0.0863  0.2141  0.2237
  161SAPE   O1217930   4.738   4.118   2.616  0.1136 -0.6345  0.0062
  161SAPE   O1117931   4.602   4.050   2.798 -0.4385  0.3584 -0.2059
  161SAPE    C117932   4.586   4.125   2.919 -0.5905 -0.1287  0.1152
  161SAPE    HA17933   4.573   4.232   2.894 -0.7167  0.0181  0.7997
  161SAPE    HB17934   4.502   4.088   2.981 -0.6167 -0.8087 -0.3141
  161SAPE    C217935   4.709   4.104   3.010 -1.0275 -0.7734 -0.0933
  161SAPE    HS17936   4.796   4.107   2.941 -0.2578  2.9883  0.8280
  161SAPE   O2117937   4.698   3.978   3.077  0.2150  0.3144  0.1090
  161SAPE   C2117938   4.809   3.950   3.139  0.1340 -0.5294  0.1349
  161SAPE   O2217939   4.917   3.998   3.116 -0.5197 -0.1689  0.0489
  161SAPE   C2217940   4.771   3.851   3.245  0.6855 -0.4019  0.1364
  161SAPE   H2R17941   4.662   3.833   3.241  0.9966 -2.4418 -0.1728
  161SAPE   H2S17942   4.820   3.755   3.220 -1.9528 -2.6299  2.7898
  161SAPE    C317943   4.735   4.227   3.101  0.5372  0.6568  0.1912
  161SAPE    HX17944   4.730   4.308   3.025  1.0095 -0.5551 -1.1838
  161SAPE    HY17945   4.836   4.224   3.147  0.2296  0.3879  0.8601
  161SAPE   O3117946   4.628   4.241   3.209 -0.6146  0.1117  0.3049
  161SAPE   C3117947   4.663   4.340   3.297 -0.4850 -0.0427  0.1690
  161SAPE   O3217948   4.764   4.407   3.281 -0.2416  0.0619  0.0886
  161SAPE   C3217949   4.553   4.349   3.406 -0.6566 -0.8872  0.3194
  161SAPE   H2X17950   4.525   4.241   3.409  3.4051 -2.0653  2.3432
  161SAPE   H2Y17951   4.469   4.411   3.367 -0.3683 -0.5878  0.1645
  161SAPE   C2317952   4.810   3.892   3.392  0.3402  0.6229 -0.1377
  161SAPE   H3R17953   4.913   3.933   3.397  0.3775  0.4288  0.8554
  161SAPE   H3S17954   4.802   3.802   3.456 -2.4110  0.7500 -0.1884
  161SAPE   C2417955   4.719   4.001   3.449 -0.0861 -0.7089 -0.3691
  161SAPE   H4R17956   4.623   3.947   3.463 -0.6684  0.5999  0.8964
  161SAPE   H4S17957   4.704   4.082   3.374 -0.9194  1.8775  2.3730
  161SAPE   C2517958   4.769   4.066   3.578 -0.6015  1.1164 -1.1426
  161SAPE   H5R17959   4.854   4.135   3.565 -1.1103  1.4355 -3.1750
  161SAPE   C2617960   4.720   4.052   3.702 -0.6188 -0.1151  0.5856
  161SAPE   H6R17961   4.774   4.101   3.784 -1.4230 -0.9905  1.6690
  161SAPE   C2717962   4.603   3.965   3.743 -0.3581 -0.4923 -0.6142
  161SAPE   H7R17963   4.648   3.864   3.755  1.8382  0.5165  0.2213
  161SAPE   H7S17964   4.521   3.956   3.669  1.1469  1.5213 -2.6785
  161SAPE   C2817965   4.531   4.021   3.868 -0.1041 -0.4404  0.0301
  161SAPE   H8R17966   4.428   4.053   3.849 -0.4388 -2.2136 -1.4402
  161SAPE   C2917967   4.580   4.038   3.993 -0.2052  0.8765  0.1926
  161SAPE   H9R17968   4.518   4.086   4.069 -1.0342 -3.1287  2.3296
  161SAPE  C21017969   4.714   4.006   4.044 -0.3300  0.1840 -0.0499
  161SAPE  H10R17970   4.785   3.958   3.974  1.9630  1.4956  1.2721
  161SAPE  H10S17971   4.697   3.941   4.133 -1.7208  0.4727 -0.0779
  161SAPE  C21117972   4.790   4.133   4.078  0.5611  0.4524 -0.0143
  161SAPE  H11R17973   4.866   4.162   4.004  0.6926 -0.2998 -0.1778
  161SAPE  C21217974   4.790   4.210   4.187  0.1338 -0.1307 -0.6001
  161SAPE  H12R17975   4.868   4.287   4.190 -1.6120  2.0798 -4.5572
  161SAPE  C21317976   4.696   4.198   4.307 -0.0991  0.5919  0.2366
  161SAPE  H13R17977   4.610   4.131   4.285  1.6201 -1.9959  0.9568
  161SAPE  H13S17978   4.663   4.297   4.347  1.7782  1.1005  0.6437
  161SAPE  C21417979   4.769   4.130   4.418  0.5598  0.2657 -0.1051
  161SAPE  H14R17980   4.820   4.036   4.391  2.4479  0.5194  2.2027
  161SAPE  C21517981   4.783   4.176   4.543 -0.3605 -0.1727  0.4738
  161SAPE  H15R17982   4.837   4.115   4.617 -1.9422 -2.0164  0.2031
  161SAPE  C21617983   4.740   4.304   4.595 -0.5566  0.3814 -0.2151
  161SAPE  H16R17984   4.743   4.384   4.518 -2.6649  0.6637 -0.0899
  161SAPE  H16S17985   4.801   4.328   4.685  2.0909 -1.3069 -1.4691
  161SAPE  C21717986   4.591   4.304   4.652  0.2394  0.1179 -0.5445
  161SAPE  H17R17987   4.513   4.305   4.573  0.9402  1.4577 -1.2507
  161SAPE  H17S17988   4.578   4.401   4.703 -2.4385  0.0920 -1.0318
  161SAPE  C21817989   4.568   4.194   4.752 -0.0530 -0.0545 -0.2888
  161SAPE  H18R17990   4.641   4.200   4.835  1.0331  1.3570 -1.2803
  161SAPE  H18S17991   4.586   4.092   4.713 -3.2684 -0.9453  0.3297
  161SAPE  C21917992   4.425   4.201   4.810  0.3423 -0.5344  0.6452
  161SAPE  H19R17993   4.345   4.222   4.736 -1.7355  0.5531  3.0507
  161SAPE  H19S17994   4.413   4.278   4.889  0.2021 -1.5837  1.6609
  161SAPE  C22017995   4.385   4.076   4.879 -0.1407  0.5185 -0.2142
  161SAPE  H20R17996   4.370   3.987   4.813 -2.1151 -0.5874  1.6136
  161SAPE  H20S17997   4.283   4.091   4.919  0.5580  1.8255  1.1853
  161SAPE  H20T17998   4.452   4.044   4.962 -0.7737 -0.4044 -0.0375
  161SAPE   C3317999   4.595   4.396   3.552  0.1972 -0.3696 -0.4157
  161SAPE   H3X18000   4.606   4.506   3.540  2.0557 -0.3678  0.8014
  161SAPE   H3Y18001   4.686   4.339   3.582  0.5821  1.5035  2.2600
  161SAPE   C3418002   4.495   4.359   3.657  0.4201  0.3728  0.3520
  161SAPE   H4X18003   4.468   4.252   3.643 -0.3733  0.3923  1.4967
  161SAPE   H4Y18004   4.399   4.413   3.640 -0.2609 -0.1672  2.1630
  161SAPE   C3518005   4.527   4.387   3.806 -0.3689  0.2533  0.0817
  161SAPE   H5X18006   4.605   4.310   3.827 -1.6716 -1.0574  0.2318
  161SAPE   H5Y18007   4.435   4.370   3.865  0.7023 -0.6615  1.5713
  161SAPE   C3618008   4.584   4.528   3.825 -0.2480 -0.6965 -0.6166
  161SAPE   H6X18009   4.529   4.587   3.748 -1.7384 -0.0331  0.8855
  161SAPE   H6Y18010   4.694   4.523   3.813  0.2584  2.7804  1.2776
  161SAPE   C3718011   4.556   4.587   3.978  0.3366  0.7813  1.1803
  161SAPE   H7X18012   4.447   4.586   4.001 -0.9700 -0.6157 -3.7559
  161SAPE   H7Y18013   4.594   4.690   3.992  0.2977  0.6591  2.3106
  161SAPE   C3818014   4.635   4.510   4.080 -0.3226 -0.1527 -0.2054
  161SAPE   H8X18015   4.742   4.512   4.053 -0.5365 -1.8861 -1.3303
  161SAPE   H8Y18016   4.603   4.404   4.073 -5.2004  0.9723  0.8289
  161SAPE   C3918017   4.629   4.560   4.231  0.4312  0.6993 -0.5940
  161SAPE   H9X18018   4.667   4.664   4.240  1.7191  0.1364  0.8120
  161SAPE   H9Y18019   4.700   4.497   4.287  0.4559  1.0106 -0.2723
  161SAPE  C31018020   4.478   4.553   4.282 -0.2026  0.6718  0.4939
  161SAPE  H10X18021   4.436   4.450   4.278  1.1413  0.0847  0.6913
  161SAPE  H10Y18022   4.409   4.615   4.221  1.6465  0.0664 -2.4250
  161SAPE  C31118023   4.480   4.593   4.426 -0.4739  0.2459 -0.4590
  161SAPE  H11X18024   4.531   4.692   4.435  0.4823 -0.1688 -1.1891
  161SAPE  H11Y18025   4.531   4.524   4.497 -1.8972 -0.5823 -0.2194
  161SAPE  C31218026   4.340   4.607   4.489 -0.1212 -0.0028 -0.4853
  161SAPE  H12X18027   4.287   4.510   4.482 -0.3087  0.0058  0.6409
  161SAPE  H12Y18028   4.284   4.691   4.441 -1.2063 -0.9252 -0.8643
  161SAPE  C31318029   4.342   4.630   4.636  0.1173  0.5348  0.0743
  161SAPE  H13X18030   4.375   4.733   4.660 -1.9069  1.3796 -0.5567
  161SAPE  H13Y18031   4.411   4.559   4.687  0.0880  1.3841  1.3442
  161SAPE  C31418032   4.212   4.600   4.714  0.2847  0.8495  0.2880
  161SAPE  H14X18033   4.185   4.498   4.681 -3.7199  3.1664 -5.2036
  161SAPE  H14Y18034   4.131   4.670   4.685  1.1465  1.2428 -1.3586
  161SAPE  C31518035   4.229   4.637   4.859 -0.4463 -0.2392  0.3504
  161SAPE  H15X18036   4.332   4.615   4.893  0.9290  1.1562 -2.5591
  161SAPE  H15Y18037   4.167   4.572   4.924  0.4401 -0.6555  0.7963
  161SAPE  C31618038   4.213   4.785   4.899 -0.4809  1.3516  0.4472
  161SAPE  H16X18039   4.103   4.789   4.916 -0.4628 -0.5577  1.3491
  161SAPE  H16Y18040   4.250   4.849   4.817  0.6152  1.1530  0.7709
  161SAPE  C31718041   4.290   4.828   5.030  0.5693 -1.0233  0.2125
  161SAPE  H17X18042   4.395   4.796   5.013  0.9058 -0.2934  0.8516
  161SAPE  H17Y18043   4.255   4.767   5.116  1.5876 -0.4625  1.0596
  161SAPE  C31818044   4.289   4.975   5.060 -0.4093 -0.1635  0.2535
  161SAPE  H18X18045   4.334   5.034   4.977  0.9041  0.5678  1.4239
  161SAPE  H18Y18046   4.347   5.000   5.152  1.1691 -0.3673 -0.6666
  161SAPE  H18Z18047   4.182   5.005   5.065 -0.7802 -1.1725 -1.1269
  162SAPE     N18048   0.162   5.302   2.785 -0.7465  0.2399 -0.1268
  162SAPE   HN118049   0.259   5.339   2.790 -1.1551  1.1863  1.7238
  162SAPE   HN218050   0.164   5.254   2.693 -0.9025 -0.7643  0.3823
  162SAPE   HN318051   0.091   5.378   2.786  0.2015  1.1506  0.0556
  162SAPE   C1218052   0.142   5.209   2.898 -0.0493  1.0338  0.1256
  162SAPE  H12A18053   0.203   5.118   2.881  1.0336  1.5034  1.2951
  162SAPE  H12B18054   0.036   5.177   2.905 -0.0384  1.1835  1.1042
  162SAPE   C1118055   0.174   5.266   3.032 -0.4316  0.2096  0.5814
  162SAPE  H11A18056   0.162   5.190   3.112  1.8153  0.8349  1.6145
  162SAPE  H11B18057   0.108   5.353   3.052  1.2430  1.5693  0.4757
  162SAPE     P18058   0.428   5.246   3.086  0.4581  0.0453 -0.0410
  162SAPE   O1318059   0.406   5.102   3.065 -0.1428 -0.2985  0.4535
  162SAPE   O1418060   0.542   5.316   3.014  0.7097 -0.6094  0.1109
  162SAPE   O1218061   0.302   5.321   3.033  0.5166  0.3158  0.6165
  162SAPE   O1118062   0.429   5.282   3.242  0.8119 -0.0181  0.0184
  162SAPE    C118063   0.491   5.403   3.287  0.6276 -0.1517 -0.7094
  162SAPE    HA18064   0.466   5.486   3.217  0.1281 -0.5861 -1.0569
  162SAPE    HB18065   0.461   5.432   3.391 -0.7878 -0.0217 -1.1254
  162SAPE    C218066   0.640   5.381   3.304  0.1196 -0.8085 -0.0893
  162SAPE    HS18067   0.673   5.333   3.209  3.0606  0.0926  0.3825
  162SAPE   O2118068   0.671   5.305   3.416 -0.1611 -0.9443  0.0599
  162SAPE   C2118069   0.765   5.211   3.405  0.3702  0.4104 -0.4142
  162SAPE   O2218070   0.832   5.193   3.302  0.3332 -0.5046  0.7107
  162SAPE   C2218071   0.763   5.122   3.537  0.1605 -0.4809  0.2592
  162SAPE   H2R18072   0.672   5.152   3.592  0.7125  0.1855  0.8179
  162SAPE   H2S18073   0.744   5.019   3.499 -1.4807  1.0091 -3.5666
  162SAPE    C318074   0.696   5.532   3.311  0.3595  0.1909  0.4331
  162SAPE    HX18075   0.659   5.573   3.214 -0.8958 -0.0409  0.7940
  162SAPE    HY18076   0.807   5.522   3.316  0.1687 -1.6437  2.5731
  162SAPE   O3118077   0.646   5.607   3.425  0.3146  0.1649  0.7988
  162SAPE   C3118078   0.671   5.733   3.429  0.2242 -0.5095 -0.2463
  162SAPE   O3218079   0.737   5.794   3.347 -0.5632  1.1023  0.1418
  162SAPE   C3218080   0.617   5.790   3.561 -0.3110 -0.0529 -0.0340
  162SAPE   H2X18081   0.519   5.837   3.539 -0.7385 -0.4555  0.9334
  162SAPE   H2Y18082   0.684   5.874   3.593 -0.7692 -0.0012  0.8158
  162SAPE   C2318083   0.896   5.129   3.621  0.2776  0.0975  0.1663
  162SAPE   H3R18084   0.982   5.119   3.551  1.7594  1.1421  1.7793
  162SAPE   H3S18085   0.895   5.039   3.686 -1.1028 -0.4308 -0.5405
  162SAPE   C2418086   0.922   5.262   3.702 -0.3295 -0.1951 -0.6262
  162SAPE   H4R18087   0.953   5.345   3.636  0.4476  0.1304  0.1255
  162SAPE   H4S18088   1.015   5.249   3.762 -0.5162 -0.2456 -0.3405
  162SAPE   C2518089   0.795   5.313   3.771  0.4573  0.6474  0.3565
  162SAPE   H5R18090   0.723   5.371   3.710 -0.0442 -1.4614 -1.2093
  162SAPE   C2618091   0.757   5.288   3.895 -0.5573 -0.3590 -0.0032
  162SAPE   H6R18092   0.662   5.338   3.922 -0.5533  0.1322 -0.8719
  162SAPE   C2718093   0.822   5.202   3.997  0.1435 -0.6885 -0.2538
  162SAPE   H7R18094   0.870   5.116   3.946 -0.6471  0.2722 -2.7145
  162SAPE   H7S18095   0.742   5.162   4.064  0.3108  0.4090  0.6261
  162SAPE   C2818096   0.933   5.294   4.057 -0.0953 -0.3359  0.4791
  162SAPE   H8R18097   0.947   5.389   4.003 -0.2410 -0.4428  0.2516
  162SAPE   C2918098   1.009   5.270   4.160 -0.0566 -0.0453 -0.0766
  162SAPE   H9R18099   1.089   5.341   4.188 -0.6039 -0.1884  2.0546
  162SAPE  C21018100   1.003   5.153   4.248 -0.3468 -0.3208 -0.2628
  162SAPE  H10R18101   1.106   5.109   4.248  0.5533  1.6464  0.8711
  162SAPE  H10S18102   0.939   5.077   4.198 -0.9989  0.8802 -1.3157
  162SAPE  C21118103   0.935   5.154   4.388 -0.6398 -0.8878  0.0476
  162SAPE  H11R18104   0.895   5.249   4.425 -0.3022 -1.2315  1.3452
  162SAPE  C21218105   0.919   5.043   4.461 -0.9475  0.8090 -0.0464
  162SAPE  H12R18106   0.897   5.056   4.569  1.2806  2.5703  0.2836
  162SAPE  C21318107   0.992   4.913   4.421  0.8012  0.2600  0.3950
  162SAPE  H13R18108   1.100   4.929   4.401  0.5499  0.8700 -0.5340
  162SAPE  H13S18109   0.948   4.881   4.324  2.6238  2.7423 -1.3812
  162SAPE  C21418110   0.982   4.802   4.520  0.1510 -0.2222 -0.8875
  162SAPE  H14R18111   0.878   4.785   4.552  0.7138 -0.0247  1.1462
  162SAPE  C21518112   1.075   4.725   4.577 -0.3392  0.5338  1.1284
  162SAPE  H15R18113   1.049   4.647   4.650 -0.9958 -0.3922 -0.0559
  162SAPE  C21618114   1.222   4.733   4.561  0.4567  0.6913 -0.1189
  162SAPE  H16R18115   1.250   4.808   4.484  3.4362  1.1210  1.2418
  162SAPE  H16S18116   1.265   4.636   4.529  1.5235  1.7344 -2.0335
  162SAPE  C21718117   1.286   4.773   4.691 -0.1073  0.4114  0.4787
  162SAPE  H17R18118   1.235   4.864   4.729 -1.7925  0.5018 -1.7878
  162SAPE  H17S18119   1.393   4.798   4.674  0.6729 -1.6079  2.0933
  162SAPE  C21818120   1.271   4.664   4.804  0.3004 -0.1879  0.6189
  162SAPE  H18R18121   1.303   4.565   4.764 -1.6285 -0.4026 -0.5047
  162SAPE  H18S18122   1.167   4.666   4.841  0.3270 -1.6400  0.8262
  162SAPE  C21918123   1.378   4.689   4.917 -0.4833 -0.0594 -0.3955
  162SAPE  H19R18124   1.480   4.681   4.874 -0.0344 -0.6463  0.7335
  162SAPE  H19S18125   1.376   4.599   4.982 -0.6791  1.7251  2.1961
  162SAPE  C22018126   1.367   4.810   5.012  0.4490 -0.2141 -0.4163
  162SAPE  H20R18127   1.262   4.846   5.016  0.8328  0.8155  1.1841
  162SAPE  H20S18128   1.439   4.889   4.983 -1.8330  1.2965 -2.3734
  162SAPE  H20T18129   1.384   4.784   5.119 -1.7422 -1.4314 -0.3077
  162SAPE   C3318130   0.625   5.690   3.680 -0.4756  0.2182 -0.2497
  162SAPE   H3X18131   0.715   5.626   3.675 -2.1852 -2.3622  0.0287
  162SAPE   H3Y18132   0.550   5.608   3.671  1.5145 -1.7627  0.2788
  162SAPE   C3418133   0.600   5.737   3.824  0.1313  0.1057 -0.1145
  162SAPE   H4X18134   0.503   5.790   3.828  0.8920  1.5099  0.6874
  162SAPE   H4Y18135   0.677   5.812   3.854 -0.5302  0.3762  0.9393
  162SAPE   C3518136   0.585   5.623   3.927 -0.1449  0.5048  0.1740
  162SAPE   H5X18137   0.661   5.547   3.901 -0.6048  0.1737 -0.2263
  162SAPE   H5Y18138   0.483   5.578   3.919  0.5195 -1.3414  1.4190
  162SAPE   C3618139   0.610   5.684   4.066 -0.2245 -0.2047 -0.0826
  162SAPE   H6X18140   0.524   5.750   4.093  0.7181  0.0823  2.5776
  162SAPE   H6Y18141   0.702   5.745   4.060 -0.7942  0.4968 -2.9636
  162SAPE   C3718142   0.637   5.579   4.178  0.4931 -0.3752 -0.0635
  162SAPE   H7X18143   0.736   5.529   4.168  1.1887  0.8588  0.4408
  162SAPE   H7Y18144   0.561   5.498   4.189 -0.7711  0.8852  0.8988
  162SAPE   C3818145   0.637   5.655   4.312  0.3646 -0.9903  0.6950
  162SAPE   H8X18146   0.544   5.715   4.310 -1.8996 -4.2197  1.3929
  162SAPE   H8Y18147   0.719   5.727   4.332  0.9202 -2.0094  2.2897
  162SAPE   C3918148   0.626   5.572   4.436  0.7290 -0.2131 -0.2167
  162SAPE   H9X18149   0.570   5.480   4.410 -2.3797  1.3383  0.4677
  162SAPE   H9Y18150   0.557   5.627   4.505 -0.1627 -0.9467 -0.5099
  162SAPE  C31018151   0.762   5.553   4.490 -0.4979  0.0534 -0.3868
  162SAPE  H10X18152   0.829   5.641   4.491  1.7731 -1.5918 -0.5297
  162SAPE  H10Y18153   0.811   5.478   4.425 -2.4144  0.1674 -2.0738
  162SAPE  C31118154   0.756   5.493   4.630  0.0250 -0.1519 -0.8167
  162SAPE  H11X18155   0.811   5.397   4.632 -3.0368 -2.0664  0.1498
  162SAPE  H11Y18156   0.658   5.463   4.674  0.6105 -1.2197 -0.2107
  162SAPE  C31218157   0.824   5.573   4.739  0.2935 -0.2831  0.3744
  162SAPE  H12X18158   0.801   5.681   4.743 -0.9317 -0.3608 -2.4990
  162SAPE  H12Y18159   0.933   5.569   4.719  0.6563  0.5264  1.9899
  162SAPE  C31318160   0.798   5.527   4.885 -0.1670 -0.7856 -0.2084
  162SAPE  H13X18161   0.873   5.568   4.956 -0.3094 -0.0622 -0.4659
  162SAPE  H13Y18162   0.806   5.418   4.864 -3.2878 -1.2667  0.5615
  162SAPE  C31418163   0.656   5.545   4.942  0.5774 -1.2998 -0.6693
  162SAPE  H14X18164   0.576   5.495   4.883  0.9944 -1.8729 -0.7601
  162SAPE  H14Y18165   0.627   5.652   4.949  0.9496 -1.1642 -1.0734
  162SAPE  C31518166   0.628   5.473   5.074  0.3092 -0.5510  0.8778
  162SAPE  H15X18167   0.680   5.511   5.164 -0.1109 -1.3565  1.4752
  162SAPE  H15Y18168   0.653   5.365   5.067 -2.1432 -1.1039 -0.6792
  162SAPE  C31618169   0.484   5.501   5.117  0.0372  0.3734  0.1330
  162SAPE  H16X18170   0.406   5.489   5.039 -3.1864  1.3572  2.9478
  162SAPE  H16Y18171   0.480   5.606   5.151  0.6004 -0.1726  2.0342
  162SAPE  C31718172   0.460   5.404   5.238 -0.0060  0.1122  0.6249
  162SAPE  H17X18173   0.551   5.406   5.302 -0.7937 -1.0843  1.8463
  162SAPE  H17Y18174   0.457   5.300   5.200 -1.7353  1.0737 -2.0962
  162SAPE  C31818175   0.331   5.438   5.319  0.1050 -0.3692  0.4778
  162SAPE  H18X18176   0.312   5.366   5.401 -1.9976  0.9008  1.1848
  162SAPE  H18Y18177   0.242   5.441   5.253 -0.9549 -0.8811  1.8358
  162SAPE  H18Z18178   0.359   5.535   5.367 -0.4999 -0.0961  0.2819
  163SAPE     N18179   6.145   2.707   2.951  0.0747  0.0762 -0.8123
  163SAPE   HN118180   6.131   2.795   2.897  0.8034 -0.2957 -1.6358
  163SAPE   HN218181   6.066   2.641   2.935 -1.0305  1.3034 -0.5735
  163SAPE   HN318182   6.140   2.740   3.050  0.7394 -1.6157 -0.1908
  163SAPE   C1218183   6.285   2.654   2.921 -0.4376 -0.4181 -0.3893
  163SAPE  H12A18184   6.280   2.627   2.813 -1.3342 -1.0861 -0.2032
  163SAPE  H12B18185   6.303   2.553   2.964  2.2395 -0.4073 -1.2865
  163SAPE   C1118186   6.406   2.743   2.954 -0.2829 -0.4294 -0.0140
  163SAPE  H11A18187   6.498   2.685   2.932  0.0002 -0.3494  0.9477
  163SAPE  H11B18188   6.401   2.753   3.064 -1.8957 -1.7166  0.0787
  163SAPE     P18189   6.497   2.900   2.764  0.0809  0.2758 -0.0624
  163SAPE   O1318190   6.502   2.775   2.682 -0.1755  0.3662  0.5417
  163SAPE   O1418191   6.451   3.021   2.691 -0.0248  0.0317  0.3903
  163SAPE   O1218192   6.394   2.870   2.881  0.3479 -0.0433  0.0783
  163SAPE   O1118193   6.632   2.928   2.836  0.3353  0.2348  0.2798
  163SAPE    C118194   6.640   3.021   2.949 -0.1786  0.0056 -0.7154
  163SAPE    HA18195   6.721   3.096   2.933  1.2884 -1.4147 -0.2132
  163SAPE    HB18196   6.549   3.074   2.985 -0.0179 -1.7117  2.6433
  163SAPE    C218197   6.680   2.940   3.074 -0.2533  0.3984  1.2210
  163SAPE    HS18198   6.591   2.876   3.087 -0.9205  1.1656  0.5739
  163SAPE   O2118199   6.703   3.027   3.186  0.0345  0.3838  0.1751
  163SAPE   C2118200   6.666   2.960   3.302 -0.0717  0.1735  0.6127
  163SAPE   O2218201   6.583   2.876   3.315 -0.3954 -0.4865  0.3332
  163SAPE   C2218202   6.756   3.018   3.408  0.2852 -0.2866  0.3088
  163SAPE   H2R18203   6.855   2.968   3.399  0.0591 -0.4760 -1.7778
  163SAPE   H2S18204   6.776   3.122   3.372  1.1785 -0.7617 -0.6210
  163SAPE    C318205   6.804   2.849   3.044 -0.1616  0.0047  0.3819
  163SAPE    HX18206   6.884   2.923   3.023 -1.5455  0.9235 -1.9982
  163SAPE    HY18207   6.782   2.795   2.950  0.0136 -0.5187  0.6371
  163SAPE   O3118208   6.847   2.762   3.157  0.1462  0.6344  0.4707
  163SAPE   C3118209   6.808   2.636   3.147  0.8085  0.8245  0.3236
  163SAPE   O3218210   6.731   2.587   3.062 -0.4350 -0.3513  0.1143
  163SAPE   C3218211   6.882   2.561   3.259 -0.7472 -0.6231  0.1753
  163SAPE   H2X18212   6.955   2.632   3.305 -0.7079 -0.8770  0.5082
  163SAPE   H2Y18213   6.949   2.484   3.216  0.5717  0.4617  0.2097
  163SAPE   C2318214   6.698   2.984   3.550 -0.2321 -0.4404  0.0626
  163SAPE   H3R18215   6.690   2.875   3.574 -1.6080  0.0125  1.8321
  163SAPE   H3S18216   6.598   3.029   3.563 -0.3327 -0.7189  0.2613
  163SAPE   C2418217   6.783   3.049   3.661 -0.5831  0.5611 -0.5236
  163SAPE   H4R18218   6.772   3.159   3.646 -1.4452  0.3635 -1.5118
  163SAPE   H4S18219   6.891   3.030   3.643 -0.7557 -0.2941 -0.7066
  163SAPE   C2518220   6.733   3.008   3.799  0.4676 -0.1283  0.4049
  163SAPE   H5R18221   6.631   3.044   3.813  0.4009 -0.3873  0.5932
  163SAPE   C2618222   6.787   2.930   3.894 -0.3201 -0.5678  0.3388
  163SAPE   H6R18223   6.728   2.905   3.983 -0.3992 -0.0044  0.4519
  163SAPE   C2718224   6.925   2.860   3.880  0.5056  0.0156 -0.2965
  163SAPE   H7R18225   6.988   2.919   3.810  1.0088  0.7630  0.7709
  163SAPE   H7S18226   6.912   2.762   3.829 -1.6407 -0.0889  0.3329
  163SAPE   C2818227   7.000   2.849   4.010  0.1606  0.1073  0.0345
  163SAPE   H8R18228   7.037   2.943   4.054  3.0807 -1.1266  0.4378
  163SAPE   C2918229   7.011   2.740   4.086  0.1455  0.3180 -1.0172
  163SAPE   H9R18230   7.060   2.741   4.185 -0.7140 -1.2514 -0.5444
  163SAPE  C21018231   6.978   2.600   4.046  0.1452 -0.2337  0.7009
  163SAPE  H10R18232   7.073   2.557   4.006  0.1241 -1.7220  2.1640
  163SAPE  H10S18233   6.895   2.604   3.972 -0.4262 -1.1082  1.2763
  163SAPE  C21118234   6.923   2.519   4.159  0.5124 -0.2684 -0.2551
  163SAPE  H11R18235   6.998   2.462   4.215  0.5479  0.1187  0.0972
  163SAPE  C21218236   6.789   2.491   4.176 -0.1121  0.1880  0.6329
  163SAPE  H12R18237   6.766   2.432   4.266  1.4402 -0.1987  0.8067
  163SAPE  C21318238   6.678   2.545   4.083  1.1327  0.5327 -0.4429
  163SAPE  H13R18239   6.681   2.485   3.990  1.2721  2.2810 -1.6115
  163SAPE  H13S18240   6.693   2.652   4.059  4.3232  0.0405 -1.0126
  163SAPE  C21418241   6.539   2.521   4.139 -0.1826 -0.2902  0.0590
  163SAPE  H14R18242   6.493   2.607   4.190 -2.4101 -1.5711  0.3491
  163SAPE  C21518243   6.466   2.402   4.141 -0.0863  0.2576 -0.3325
  163SAPE  H15R18244   6.369   2.410   4.192  1.1169 -0.1760  2.2077
  163SAPE  C21618245   6.521   2.261   4.098 -0.5925  0.1525 -0.4608
  163SAPE  H16R18246   6.621   2.292   4.061 -0.5031 -0.4341 -0.7201
  163SAPE  H16S18247   6.471   2.218   4.008  0.1852 -2.0410  0.0965
  163SAPE  C21718248   6.541   2.176   4.228  0.6521  0.0579  0.5089
  163SAPE  H17R18249   6.446   2.176   4.286 -0.5347  0.0266 -1.3543
  163SAPE  H17S18250   6.629   2.204   4.290  0.2283  0.1140  1.0972
  163SAPE  C21818251   6.559   2.028   4.205  0.1050  0.1137  0.0710
  163SAPE  H18R18252   6.655   2.008   4.153 -0.1325  0.2740 -0.4362
  163SAPE  H18S18253   6.478   1.995   4.137  1.8241 -0.6497 -1.7140
  163SAPE  C21918254   6.547   1.931   4.328  0.3286  0.1178  0.4319
  163SAPE  H19R18255   6.554   1.828   4.288 -0.1787 -0.1276  0.9490
  163SAPE  H19S18256   6.447   1.949   4.373  0.3743  2.5374 -0.2578
  163SAPE  C22018257   6.644   1.949   4.440 -0.4904 -0.1793  0.0714
  163SAPE  H20R18258   6.669   2.057   4.445 -1.2852  0.0805 -1.1019
  163SAPE  H20S18259   6.739   1.911   4.399 -0.1773  0.8238 -0.1735
  163SAPE  H20T18260   6.629   1.901   4.540  0.5864  0.4638  0.5600
  163SAPE   C3318261   6.789   2.491   3.361 -0.0936  0.4487 -0.0984
  163SAPE   H3X18262   6.839   2.394   3.381  0.2576  0.1508 -2.1695
  163SAPE   H3Y18263   6.690   2.478   3.311  0.1313 -1.1307 -0.1912
  163SAPE   C3418264   6.771   2.565   3.495 -0.6117 -0.9809  0.2623
  163SAPE   H4X18265   6.755   2.674   3.485  1.8608 -0.1244  3.8918
  163SAPE   H4Y18266   6.854   2.570   3.568 -1.0170 -1.2443  0.7464
  163SAPE   C3518267   6.650   2.518   3.570 -0.0544  1.0203 -0.0960
  163SAPE   H5X18268   6.663   2.409   3.588  1.3263  0.9435 -1.4200
  163SAPE   H5Y18269   6.561   2.530   3.506  1.7876 -1.2200 -3.3758
  163SAPE   C3618270   6.628   2.589   3.704  0.4119  0.1102 -0.0074
  163SAPE   H6X18271   6.644   2.697   3.684 -2.5556  0.4039 -1.3244
  163SAPE   H6Y18272   6.705   2.547   3.772  0.3829 -0.8061 -0.5173
  163SAPE   C3718273   6.494   2.583   3.786  0.1811 -0.1722 -0.9656
  163SAPE   H7X18274   6.502   2.639   3.882  1.0601 -1.2532 -0.3794
  163SAPE   H7Y18275   6.481   2.478   3.819  0.0825  0.2100  0.2902
  163SAPE   C3818276   6.365   2.624   3.712  0.0108 -0.5125  0.7820
  163SAPE   H8X18277   6.358   2.550   3.630  1.5062  0.1106  0.0573
  163SAPE   H8Y18278   6.385   2.724   3.667 -0.2710 -0.8733 -0.1555
  163SAPE   C3918279   6.240   2.608   3.804 -0.3391  0.3879  0.5846
  163SAPE   H9X18280   6.159   2.675   3.770  0.6762  0.1917 -2.4977
  163SAPE   H9Y18281   6.269   2.632   3.909  1.9173  0.0025  0.1161
  163SAPE  C31018282   6.189   2.463   3.806 -0.2680  0.0605 -0.1940
  163SAPE  H10X18283   6.271   2.391   3.785  0.2921 -0.0542  2.1145
  163SAPE  H10Y18284   6.124   2.458   3.716  0.4317 -0.9138 -0.6686
  163SAPE  C31118285   6.120   2.427   3.933 -0.2094  0.0456 -1.1732
  163SAPE  H11X18286   6.016   2.467   3.926 -0.0734  1.0016  1.3403
  163SAPE  H11Y18287   6.164   2.470   4.025  0.2340 -0.1366 -1.2964
  163SAPE  C31218288   6.117   2.277   3.957  0.1499 -0.1889  1.4076
  163SAPE  H12X18289   6.222   2.241   3.962  1.9072  3.8006 -1.2816
  163SAPE  H12Y18290   6.088   2.220   3.867 -0.4083  1.4058  0.5335
  163SAPE  C31318291   6.017   2.236   4.056 -0.5763 -0.0877 -0.0850
  163SAPE  H13X18292   6.021   2.127   4.040  0.4787  0.0257 -0.6578
  163SAPE  H13Y18293   5.910   2.259   4.036 -0.8992 -0.0043  1.5689
  163SAPE  C31418294   6.057   2.269   4.201  0.3110 -0.4061 -0.4211
  163SAPE  H14X18295   6.165   2.293   4.212 -0.0622  1.1456  0.0487
  163SAPE  H14Y18296   6.035   2.176   4.258 -0.5539 -0.0239 -0.1106
  163SAPE  C31518297   5.976   2.390   4.262  0.0740 -0.3899  0.3747
  163SAPE  H15X18298   5.867   2.374   4.249  0.1756 -0.0245 -1.1180
  163SAPE  H15Y18299   6.025   2.476   4.213 -2.2022  0.2691 -0.8648
  163SAPE  C31618300   5.991   2.422   4.412 -0.2410  0.3004  0.5113
  163SAPE  H16X18301   6.100   2.422   4.433 -0.1194 -1.4962  0.0324
  163SAPE  H16Y18302   5.947   2.340   4.473  2.5482 -3.4821 -2.1329
  163SAPE  C31718303   5.924   2.558   4.446  0.4035  0.3368 -0.0901
  163SAPE  H17X18304   5.816   2.538   4.428  0.3932 -1.2302  1.4645
  163SAPE  H17Y18305   5.960   2.635   4.375  1.6048  0.3982  0.5617
  163SAPE  C31818306   5.942   2.607   4.584 -0.1089  0.3918 -0.2718
  163SAPE  H18X18307   6.041   2.655   4.603 -0.9647  1.2417  2.4888
  163SAPE  H18Y18308   5.922   2.530   4.661  0.6659 -0.4068 -0.8460
  163SAPE  H18Z18309   5.863   2.684   4.597 -0.8616 -0.3396 -0.4096
  164SAPE     N18310   4.701   2.883   2.819 -0.9234  0.4666  0.3285
  164SAPE   HN118311   4.736   2.977   2.846  0.3706 -0.4230  1.9383
  164SAPE   HN218312   4.788   2.826   2.810 -1.3731 -0.1150 -0.3875
  164SAPE   HN318313   4.661   2.889   2.723 -2.2555 -3.0119  0.5090
  164SAPE   C1218314   4.600   2.817   2.907 -0.5783  0.4332  0.6123
  164SAPE  H12A18315   4.643   2.806   3.008 -1.9506  0.2598  1.1902
  164SAPE  H12B18316   4.578   2.716   2.867  0.1763  0.8211 -0.8809
  164SAPE   C1118317   4.487   2.919   2.922  0.0588  0.2318  0.1106
  164SAPE  H11A18318   4.536   3.011   2.960 -1.1553  0.7902  0.3437
  164SAPE  H11B18319   4.412   2.893   2.999 -0.7423  0.9593 -0.4009
  164SAPE     P18320   4.275   2.878   2.753  0.1432 -0.3495  0.0772
  164SAPE   O1318321   4.188   2.980   2.684  0.0748  0.4510 -0.0547
  164SAPE   O1418322   4.317   2.765   2.665 -0.2439 -0.4664  0.4736
  164SAPE   O1218323   4.415   2.942   2.805  0.4589 -0.2431  0.5610
  164SAPE   O1118324   4.204   2.800   2.866 -0.0318 -0.1166  0.2273
  164SAPE    C118325   4.096   2.866   2.946 -0.1737  1.2820  0.0168
  164SAPE    HA18326   4.000   2.857   2.892 -0.1625 -3.4081  0.3104
  164SAPE    HB18327   4.078   2.805   3.037 -2.7083  1.4919 -0.2746
  164SAPE    C218328   4.119   3.009   3.009  0.7903 -0.1028  0.4250
  164SAPE    HS18329   4.125   3.080   2.924 -0.8981 -0.2202  0.1733
  164SAPE   O2118330   4.239   3.003   3.087  0.1204 -0.2455  0.4374
  164SAPE   C2118331   4.287   3.121   3.127 -0.3429 -0.1665  0.4087
  164SAPE   O2218332   4.257   3.231   3.084  0.1212 -0.5122 -0.1174
  164SAPE   C2218333   4.407   3.093   3.214 -0.2449  0.4106 -0.0941
  164SAPE   H2R18334   4.383   3.053   3.315 -1.9712 -0.2944 -0.7490
  164SAPE   H2S18335   4.471   3.017   3.163 -0.2079 -0.3167  1.0138
  164SAPE    C318336   3.993   3.058   3.097  0.0810 -0.0418 -0.4585
  164SAPE    HX18337   3.903   3.007   3.056  2.6697 -3.1627 -2.8980
  164SAPE    HY18338   3.975   3.167   3.087  1.6847  0.4647  1.6052
  164SAPE   O3118339   4.012   3.019   3.237  1.1123 -0.7262 -0.4909
  164SAPE   C3118340   3.898   3.023   3.307 -0.1055  0.0639 -1.1422
  164SAPE   O3218341   3.792   3.059   3.261 -0.0075 -0.6124  0.2767
  164SAPE   C3218342   3.906   2.980   3.454  0.0375 -0.6160 -0.0891
  164SAPE   H2X18343   3.870   3.067   3.513  2.5945  1.4654 -1.4048
  164SAPE   H2Y18344   4.013   2.963   3.478  0.7035 -0.5830 -2.7613
  164SAPE   C2318345   4.490   3.220   3.253 -0.1809 -0.4267  0.0463
  164SAPE   H3R18346   4.520   3.286   3.169  2.4272 -2.7521 -1.0140
  164SAPE   H3S18347   4.585   3.171   3.282  1.2734  1.3108 -1.5106
  164SAPE   C2418348   4.420   3.313   3.351 -0.3576 -0.5704  1.2037
  164SAPE   H4R18349   4.311   3.304   3.336 -0.4465 -0.0940  1.5488
  164SAPE   H4S18350   4.442   3.418   3.321  1.1683 -0.3141  3.0270
  164SAPE   C2518351   4.459   3.295   3.493 -0.0608  0.1659 -0.3512
  164SAPE   H5R18352   4.553   3.346   3.515 -0.6036  0.8284  0.4973
  164SAPE   C2618353   4.392   3.241   3.597 -0.5778  0.4480  0.2419
  164SAPE   H6R18354   4.454   3.223   3.686  0.9540 -0.4816 -0.9574
  164SAPE   C2718355   4.272   3.153   3.580  0.4310  0.4910  0.9613
  164SAPE   H7R18356   4.289   3.050   3.619 -0.1922  0.6022  1.5345
  164SAPE   H7S18357   4.249   3.130   3.474  2.1234 -1.1398  0.8884
  164SAPE   C2818358   4.139   3.201   3.643 -0.2221  0.9272  0.4125
  164SAPE   H8R18359   4.072   3.258   3.578  0.9751  1.7544 -0.1374
  164SAPE   C2918360   4.107   3.186   3.768 -0.1426 -0.3280  0.1750
  164SAPE   H9R18361   4.017   3.236   3.806 -0.3018 -1.9423  2.0677
  164SAPE  C21018362   4.178   3.122   3.881 -0.2409 -0.8793  0.5815
  164SAPE  H10R18363   4.264   3.072   3.832 -1.2795  0.9388 -3.5316
  164SAPE  H10S18364   4.115   3.046   3.934 -0.2183 -0.2946  1.4649
  164SAPE  C21118365   4.217   3.243   3.956  0.5132  0.4882  0.2284
  164SAPE  H11R18366   4.218   3.342   3.907  0.8483  1.1363  1.5045
  164SAPE  C21218367   4.274   3.242   4.079 -0.9988  0.0776 -0.1631
  164SAPE  H12R18368   4.295   3.337   4.130  0.1059 -0.8351  1.1506
  164SAPE  C21318369   4.298   3.116   4.159  0.3395  0.2289  0.5017
  164SAPE  H13R18370   4.311   3.028   4.093  0.9224  0.4554  0.3068
  164SAPE  H13S18371   4.203   3.092   4.211  0.0526 -0.1131 -0.1642
  164SAPE  C21418372   4.418   3.126   4.250 -0.2485  0.2993 -1.5084
  164SAPE  H14R18373   4.517   3.101   4.209  0.5331  2.2121 -0.8877
  164SAPE  C21518374   4.409   3.156   4.383  0.5871 -0.2402  0.3389
  164SAPE  H15R18375   4.496   3.147   4.450 -1.3120  3.1160  3.5915
  164SAPE  C21618376   4.282   3.192   4.456 -0.1451  0.3277  0.7524
  164SAPE  H16R18377   4.243   3.101   4.507 -1.4199  1.3660  1.6955
  164SAPE  H16S18378   4.209   3.216   4.376  0.7704  0.1626 -0.1441
  164SAPE  C21718379   4.290   3.317   4.554 -0.0167  0.7018  1.1111
  164SAPE  H17R18380   4.333   3.403   4.499 -1.5609  1.0197  0.3324
  164SAPE  H17S18381   4.356   3.306   4.643  2.0061  0.1984 -0.3815
  164SAPE  C21818382   4.157   3.357   4.618  0.2387 -0.3552  1.2369
  164SAPE  H18R18383   4.100   3.269   4.655  1.2957 -1.9974 -0.8087
  164SAPE  H18S18384   4.095   3.402   4.537  0.6681  0.0282  1.1188
  164SAPE  C21918385   4.178   3.449   4.738  0.2071  0.8586 -0.9467
  164SAPE  H19R18386   4.219   3.385   4.820  0.2179  2.8568  0.7047
  164SAPE  H19S18387   4.079   3.488   4.773  0.1302 -0.4668  0.4017
  164SAPE  C22018388   4.271   3.565   4.736 -0.2980 -0.4051  0.2394
  164SAPE  H20R18389   4.299   3.605   4.835 -0.0471  5.3598 -1.7676
  164SAPE  H20S18390   4.226   3.642   4.670  1.5252  0.2756 -0.2794
  164SAPE  H20T18391   4.367   3.539   4.686  0.1607  0.5716  0.5837
  164SAPE   C3318392   3.827   2.851   3.489  0.1009 -0.3184 -0.1551
  164SAPE   H3X18393   3.822   2.772   3.411 -1.1339  0.7794 -1.2451
  164SAPE   H3Y18394   3.719   2.874   3.502  0.3396  0.8222 -0.0430
  164SAPE   C3418395   3.879   2.788   3.622  0.4145  0.6503 -0.7451
  164SAPE   H4X18396   3.986   2.763   3.607  0.2876 -1.6466  1.4564
  164SAPE   H4Y18397   3.835   2.689   3.646  1.2262  0.7678  1.5250
  164SAPE   C3518398   3.862   2.883   3.742  0.0983  0.1124  0.6719
  164SAPE   H5X18399   3.757   2.920   3.749 -0.5387 -1.5430  0.3513
  164SAPE   H5Y18400   3.934   2.968   3.733 -0.6235  0.6239 -0.5680
  164SAPE   C3618401   3.887   2.803   3.875 -0.5712  0.0599  0.1873
  164SAPE   H6X18402   3.997   2.787   3.883 -0.1736  2.4408  0.1633
  164SAPE   H6Y18403   3.829   2.709   3.869 -1.3483  0.6134 -1.5520
  164SAPE   C3718404   3.853   2.892   3.997 -0.1927 -0.4547 -0.2723
  164SAPE   H7X18405   3.745   2.898   4.022  0.4101 -0.6752  2.6796
  164SAPE   H7Y18406   3.884   2.996   3.972  0.9501 -1.2516 -2.4100
  164SAPE   C3818407   3.934   2.839   4.115 -0.2283 -0.1334  0.0665
  164SAPE   H8X18408   4.044   2.846   4.101  0.1431 -1.9209  1.6509
  164SAPE   H8Y18409   3.912   2.730   4.117  0.6944 -0.5134 -3.4169
  164SAPE   C3918410   3.892   2.906   4.245  0.3399 -0.1097  0.4110
  164SAPE   H9X18411   3.781   2.908   4.247  0.3627  0.9069  1.6069
  164SAPE   H9Y18412   3.925   3.012   4.247  1.1032 -0.3148 -0.5870
  164SAPE  C31018413   3.935   2.832   4.373  0.8909  0.4161  0.1886
  164SAPE  H10X18414   4.044   2.815   4.382  0.6583 -1.7344 -0.3772
  164SAPE  H10Y18415   3.880   2.735   4.366  0.1580  0.8285  0.2034
  164SAPE  C31118416   3.886   2.917   4.495 -0.0194 -0.0679 -0.0606
  164SAPE  H11X18417   3.775   2.927   4.486  0.0287 -0.1293 -0.8136
  164SAPE  H11Y18418   3.936   3.015   4.484 -1.5611  0.6025 -1.5760
  164SAPE  C31218419   3.912   2.861   4.634 -0.1602  0.3353 -0.7340
  164SAPE  H12X18420   4.022   2.850   4.646 -0.1454  0.7822 -0.4540
  164SAPE  H12Y18421   3.879   2.755   4.643  1.7872 -0.2979 -0.5738
  164SAPE  C31318422   3.874   2.963   4.748 -0.4420 -0.7442  0.0644
  164SAPE  H13X18423   3.764   2.965   4.767 -0.5898 -2.7454 -0.3977
  164SAPE  H13Y18424   3.895   3.067   4.716 -3.5930  0.7770  2.3749
  164SAPE  C31418425   3.955   2.934   4.875  0.1605 -0.7343 -0.0758
  164SAPE  H14X18426   4.059   2.915   4.843 -0.1576  1.3749 -2.7189
  164SAPE  H14Y18427   3.913   2.845   4.926 -1.4910  0.1310  0.1634
  164SAPE  C31518428   3.948   3.048   4.983 -0.3630  0.2427  0.1781
  164SAPE  H15X18429   4.011   3.024   5.071  2.4001  2.0180 -1.1851
  164SAPE  H15Y18430   3.843   3.073   5.010  0.6047  1.4882  3.0937
  164SAPE  C31618431   4.011   3.185   4.931 -0.5143  0.0791 -0.3802
  164SAPE  H16X18432   3.944   3.234   4.858 -0.4347  2.6047  1.1252
  164SAPE  H16Y18433   4.108   3.151   4.888 -1.2580 -2.9071  0.1156
  164SAPE  C31718434   4.028   3.300   5.037 -0.5557  0.3267 -0.6366
  164SAPE  H17X18435   3.938   3.366   5.040 -2.2206 -1.7865 -1.1814
  164SAPE  H17Y18436   4.106   3.365   4.993  0.0890 -0.0973 -0.1216
  164SAPE  C31818437   4.085   3.256   5.175 -0.3087  0.6083  0.0618
  164SAPE  H18X18438   4.002   3.212   5.236 -1.9309  0.3225 -2.2390
  164SAPE  H18Y18439   4.101   3.347   5.236  1.4285  0.9360 -0.8215
  164SAPE  H18Z18440   4.170   3.185   5.163 -2.4545 -2.5691  1.8952
  165SAPE     N18441   5.017   5.847   2.669  0.0506 -0.0634  0.7024
  165SAPE   HN118442   5.068   5.758   2.683 -1.0845 -0.9764 -0.6961
  165SAPE   HN218443   4.936   5.814   2.612  0.3962 -0.1292  0.2467
  165SAPE   HN318444   5.077   5.906   2.608 -0.2691 -0.0793  0.3664
  165SAPE   C1218445   4.967   5.933   2.786 -1.0261 -0.5561  0.3438
  165SAPE  H12A18446   4.945   5.871   2.875 -1.9114  1.0796  1.3270
  165SAPE  H12B18447   4.867   5.972   2.756  0.4653  4.1548  0.7393
  165SAPE   C1118448   5.066   6.045   2.820  0.1380  0.3950 -0.0965
  165SAPE  H11A18449   5.159   6.001   2.861  0.2167  1.2494  0.6690
  165SAPE  H11B18450   5.037   6.100   2.912  1.3240 -0.1788  0.6447
  165SAPE     P18451   5.222   6.214   2.693 -0.1410  0.1603 -0.4295
  165SAPE   O1318452   5.330   6.137   2.628 -0.4731  0.6686 -0.9065
  165SAPE   O1418453   5.191   6.348   2.635  0.5901  0.7595 -0.0462
  165SAPE   O1218454   5.090   6.127   2.708 -0.1197 -0.0826 -0.4335
  165SAPE   O1118455   5.254   6.230   2.851  0.3442 -0.5720  0.1452
  165SAPE    C118456   5.247   6.364   2.903 -0.9941  0.2887 -0.0380
  165SAPE    HA18457   5.312   6.441   2.856  0.8260 -1.4524 -0.5320
  165SAPE    HB18458   5.148   6.412   2.917 -0.3458  1.5327  0.3759
  165SAPE    C218459   5.296   6.357   3.051 -0.4155  0.2998 -0.4198
  165SAPE    HS18460   5.288   6.453   3.105 -2.0591 -1.1238  2.0226
  165SAPE   O2118461   5.431   6.310   3.058  0.2865  0.2077 -0.6724
  165SAPE   C2118462   5.523   6.406   3.037 -0.0707  0.0769  0.3951
  165SAPE   O2218463   5.501   6.521   3.005  0.6355  0.2425  0.0978
  165SAPE   C2218464   5.660   6.346   3.078 -0.6761  0.4252  0.1936
  165SAPE   H2R18465   5.656   6.236   3.095  0.1300  0.4431  0.5451
  165SAPE   H2S18466   5.736   6.365   2.999 -0.6739 -0.1131  0.0648
  165SAPE    C318467   5.211   6.250   3.138  0.0076 -1.1077 -0.3708
  165SAPE    HX18468   5.245   6.152   3.099  2.4516 -0.0803 -1.0072
  165SAPE    HY18469   5.106   6.275   3.111  0.2503  0.5886  0.1352
  165SAPE   O3118470   5.218   6.271   3.282  0.2640  0.5334  0.1816
  165SAPE   C3118471   5.213   6.161   3.358  0.2031 -0.3168 -0.0316
  165SAPE   O3218472   5.210   6.045   3.320 -0.1099 -0.1423  0.4254
  165SAPE   C3218473   5.230   6.194   3.502  0.1898 -0.1906 -0.4645
  165SAPE   H2X18474   5.136   6.248   3.529  0.0014  0.0622 -1.5854
  165SAPE   H2Y18475   5.315   6.264   3.517  0.5441 -1.2230  3.1282
  165SAPE   C2318476   5.716   6.401   3.214  0.2056 -0.9167 -0.0144
  165SAPE   H3R18477   5.753   6.506   3.211 -0.8825 -0.0904  5.2735
  165SAPE   H3S18478   5.815   6.357   3.241  1.0375  0.8100 -0.0865
  165SAPE   C2418479   5.613   6.396   3.327 -0.4275  0.5092 -1.0206
  165SAPE   H4R18480   5.513   6.441   3.306 -1.3996 -0.5094  1.0363
  165SAPE   H4S18481   5.662   6.453   3.409  0.2898 -1.5761  0.0554
  165SAPE   C2518482   5.590   6.252   3.367 -0.1941  0.3836 -0.3413
  165SAPE   H5R18483   5.571   6.184   3.282  0.6124 -2.2745  1.4638
  165SAPE   C2618484   5.599   6.192   3.489 -0.9011  0.4178 -0.0455
  165SAPE   H6R18485   5.578   6.084   3.494 -0.7516  0.3596 -0.5666
  165SAPE   C2718486   5.624   6.256   3.618 -0.6801 -0.3998 -0.2923
  165SAPE   H7R18487   5.540   6.226   3.684 -1.3905 -2.0587 -1.8641
  165SAPE   H7S18488   5.607   6.366   3.615 -0.1218 -0.2313  1.3427
  165SAPE   C2818489   5.764   6.218   3.656  0.1347  0.1686  0.7001
  165SAPE   H8R18490   5.830   6.188   3.574  1.3797 -0.7091  1.9815
  165SAPE   C2918491   5.810   6.196   3.778 -0.0030  0.4766 -0.5520
  165SAPE   H9R18492   5.918   6.175   3.789  0.1811  1.1931 -0.9346
  165SAPE  C21018493   5.739   6.203   3.916  0.2561  0.0232  0.3529
  165SAPE  H10R18494   5.648   6.266   3.915  0.7443  0.7368 -0.3232
  165SAPE  H10S18495   5.808   6.252   3.988  3.1493 -0.6464 -1.7724
  165SAPE  C21118496   5.714   6.063   3.977 -0.5722 -0.7072  0.0579
  165SAPE  H11R18497   5.684   5.994   3.897  0.0860 -0.6083 -0.2837
  165SAPE  C21218498   5.712   6.020   4.107 -0.5635  0.8336 -0.4424
  165SAPE  H12R18499   5.680   5.916   4.128  2.2891 -0.2231 -0.8087
  165SAPE  C21318500   5.737   6.109   4.229 -0.0754  0.3894 -0.2999
  165SAPE  H13R18501   5.662   6.189   4.246  0.5890  1.3341 -1.5994
  165SAPE  H13S18502   5.824   6.172   4.199 -0.1117  1.6021  1.8780
  165SAPE  C21418503   5.763   6.031   4.356 -0.4201  0.6424 -0.0712
  165SAPE  H14R18504   5.843   5.955   4.356 -1.7966 -0.9926 -2.7268
  165SAPE  C21518505   5.708   6.059   4.476 -0.8298 -0.0108 -0.2895
  165SAPE  H15R18506   5.738   5.994   4.559 -0.3774 -2.1756 -2.0245
  165SAPE  C21618507   5.605   6.166   4.507  0.5958 -0.0873 -0.1683
  165SAPE  H16R18508   5.502   6.139   4.474  0.5647  0.2096 -0.3161
  165SAPE  H16S18509   5.627   6.263   4.458  3.1845 -0.9023 -0.7523
  165SAPE  C21718510   5.621   6.195   4.658 -0.1687 -0.0357 -0.4573
  165SAPE  H17R18511   5.563   6.289   4.670 -0.9630 -0.4008 -1.3166
  165SAPE  H17S18512   5.729   6.214   4.674 -0.2605  0.8358 -0.8510
  165SAPE  C21818513   5.556   6.087   4.746  0.1319 -0.3483  0.3188
  165SAPE  H18R18514   5.592   5.986   4.718 -0.3308 -0.2172 -0.8189
  165SAPE  H18S18515   5.449   6.097   4.721 -0.2811  4.5269  2.8100
  165SAPE  C21918516   5.573   6.117   4.896  0.0911  0.0863  0.0162
  165SAPE  H19R18517   5.475   6.111   4.947  1.0374 -0.1342  1.9129
  165SAPE  H19S18518   5.615   6.220   4.904  1.1082 -0.2763 -0.4028
  165SAPE  C22018519   5.669   6.024   4.967 -0.2335 -0.5788 -0.7796
  165SAPE  H20R18520   5.777   6.039   4.945 -0.2293 -1.6091 -1.4809
  165SAPE  H20S18521   5.637   5.924   4.932 -1.3284 -0.6000  0.2401
  165SAPE  H20T18522   5.665   6.030   5.078  0.5279  0.6949 -0.7889
  165SAPE   C3318523   5.248   6.071   3.599  0.1361  0.3986 -0.5321
  165SAPE   H3X18524   5.336   6.008   3.571 -0.3383 -0.0643 -1.0092
  165SAPE   H3Y18525   5.160   6.004   3.586 -1.4019  2.0371  0.9570
  165SAPE   C3418526   5.252   6.103   3.754  0.6102 -0.0213  0.3731
  165SAPE   H4X18527   5.151   6.136   3.786  0.6611  0.8563 -0.3201
  165SAPE   H4Y18528   5.323   6.189   3.758  0.5787  0.1099 -1.0991
  165SAPE   C3518529   5.286   5.978   3.846  0.1770  1.5536  0.3335
  165SAPE   H5X18530   5.383   5.945   3.803 -1.6225 -2.3931 -1.0835
  165SAPE   H5Y18531   5.214   5.898   3.821  1.7959 -0.2281  1.1403
  165SAPE   C3618532   5.283   6.016   3.987 -1.2405 -0.1795  0.5857
  165SAPE   H6X18533   5.184   6.062   4.011 -0.1971  1.9681  1.0292
  165SAPE   H6Y18534   5.361   6.096   3.994  1.5751 -2.5668 -1.2894
  165SAPE   C3718535   5.311   5.899   4.086  0.1753  0.5464  0.5316
  165SAPE   H7X18536   5.410   5.860   4.055  0.1534  0.0724  1.0472
  165SAPE   H7Y18537   5.233   5.820   4.073 -0.7543  1.3155  1.2956
  165SAPE   C3818538   5.308   5.941   4.233 -0.0696  0.0745 -0.1144
  165SAPE   H8X18539   5.206   5.977   4.260 -0.8950 -1.0464 -1.5880
  165SAPE   H8Y18540   5.379   6.024   4.251 -2.6679  2.2621  0.7469
  165SAPE   C3918541   5.334   5.834   4.337 -0.5962  0.9372 -0.3600
  165SAPE   H9X18542   5.436   5.791   4.349 -0.5804  0.6459 -1.4206
  165SAPE   H9Y18543   5.265   5.751   4.310  1.0903 -0.7910  0.3615
  165SAPE  C31018544   5.284   5.881   4.479  0.6435  0.7484  0.6063
  165SAPE  H10X18545   5.185   5.928   4.461  0.5300  0.0712 -0.6903
  165SAPE  H10Y18546   5.334   5.964   4.533 -0.1248  0.1028  2.4090
  165SAPE  C31118547   5.270   5.762   4.566 -0.1698  0.3467 -0.0478
  165SAPE  H11X18548   5.362   5.700   4.567  0.5759  1.3296  2.6769
  165SAPE  H11Y18549   5.177   5.701   4.556 -0.7723  1.3298 -0.5285
  165SAPE  C31218550   5.279   5.800   4.715  0.7359 -0.1791 -0.1021
  165SAPE  H12X18551   5.196   5.870   4.741 -2.3438 -3.0673 -1.3892
  165SAPE  H12Y18552   5.370   5.862   4.729  0.2690  1.4657 -3.1952
  165SAPE  C31318553   5.296   5.674   4.807 -0.4049 -0.5427 -0.2535
  165SAPE  H13X18554   5.364   5.605   4.752  1.0966 -2.6948  3.8456
  165SAPE  H13Y18555   5.206   5.616   4.837 -0.6512  0.7606  1.7592
  165SAPE  C31418556   5.363   5.710   4.941 -0.0802 -0.3146 -0.1499
  165SAPE  H14X18557   5.457   5.769   4.929 -1.3555  1.3670 -3.1071
  165SAPE  H14Y18558   5.390   5.618   4.996  0.5920 -1.1161 -1.7491
  165SAPE  C31518559   5.272   5.797   5.031  0.5175 -0.1990  0.5124
  165SAPE  H15X18560   5.178   5.740   5.051 -1.4058  1.4271 -2.9094
  165SAPE  H15Y18561   5.236   5.883   4.971  0.2131  1.4467  2.9382
  165SAPE  C31618562   5.349   5.843   5.153 -0.0012 -0.2705  0.4186
  165SAPE  H16X18563   5.426   5.915   5.118 -2.6004  2.4448 -0.1967
  165SAPE  H16Y18564   5.408   5.757   5.192  0.6737 -0.2400 -0.5037
  165SAPE  C31718565   5.257   5.924   5.258 -0.5275 -0.1378  0.1920
  165SAPE  H17X18566   5.196   5.846   5.309  0.7751 -0.5980  1.0836
  165SAPE  H17Y18567   5.188   5.985   5.195 -0.9597  0.5079  1.2745
  165SAPE  C31818568   5.333   6.012   5.358 -0.5204 -0.2462  0.7134
  165SAPE  H18X18569   5.260   6.064   5.423  0.9529 -0.3385  2.5056
  165SAPE  H18Y18570   5.393   6.082   5.296  0.0705 -0.4935  0.9995
  165SAPE  H18Z18571   5.407   5.947   5.410 -0.1829  0.9685  1.7999
  166SAPE     N18572   4.325   4.349   2.470 -0.0683  0.5699  0.3321
  166SAPE   HN118573   4.396   4.319   2.540 -2.6025 -1.1687  2.3100
  166SAPE   HN218574   4.268   4.423   2.514  1.2811  2.0214 -0.2681
  166SAPE   HN318575   4.270   4.264   2.449 -0.3476  0.7358  0.3934
  166SAPE   C1218576   4.402   4.394   2.349  0.0725  0.1148 -0.3951
  166SAPE  H12A18577   4.328   4.434   2.278  1.1235  1.0354 -0.9866
  166SAPE  H12B18578   4.454   4.306   2.306  0.3088 -0.4984  1.0682
  166SAPE   C1118579   4.500   4.508   2.373 -1.2429  0.4061  0.3492
  166SAPE  H11A18580   4.446   4.606   2.371 -1.1692  0.4490  0.4395
  166SAPE  H11B18581   4.571   4.501   2.288 -0.0739  0.1300  1.3156
  166SAPE     P18582   4.726   4.501   2.516  0.1201  0.2382  0.3510
  166SAPE   O1318583   4.800   4.392   2.442  0.2349  0.1418  0.1063
  166SAPE   O1418584   4.765   4.638   2.481  0.0068  0.3307  0.0669
  166SAPE   O1218585   4.570   4.487   2.493 -0.1396  0.1265 -0.1761
  166SAPE   O1118586   4.746   4.468   2.674 -0.1710  0.1718  0.1670
  166SAPE    C118587   4.708   4.564   2.772 -0.2892 -0.6713 -0.1285
  166SAPE    HA18588   4.633   4.635   2.730 -1.5639 -2.9725 -1.9931
  166SAPE    HB18589   4.657   4.508   2.853  0.6994 -0.8467  0.3805
  166SAPE    C218590   4.814   4.630   2.857  0.3222  1.0840 -0.3130
  166SAPE    HS18591   4.883   4.677   2.784  1.0423 -0.0128 -0.3475
  166SAPE   O2118592   4.877   4.529   2.932  0.3315  0.3472  0.0647
  166SAPE   C2118593   4.999   4.561   2.971 -0.1932 -0.9500  0.0809
  166SAPE   O2218594   5.061   4.666   2.943 -1.0479 -0.0275 -0.0479
  166SAPE   C2218595   5.054   4.448   3.054 -0.0898  0.5284 -0.6514
  166SAPE   H2R18596   4.971   4.425   3.124  2.1222  1.0609  2.3375
  166SAPE   H2S18597   5.076   4.357   2.992  1.2289 -0.6715  1.4543
  166SAPE    C318598   4.758   4.742   2.946  0.0839  0.2928  0.3910
  166SAPE    HX18599   4.718   4.823   2.880 -3.5016 -0.0699  1.8909
  166SAPE    HY18600   4.841   4.788   3.003 -0.2922  0.1703  1.0510
  166SAPE   O3118601   4.642   4.689   3.017 -0.4371 -0.1134  0.0323
  166SAPE   C3118602   4.598   4.765   3.115 -0.3174 -0.8702  0.4257
  166SAPE   O3218603   4.649   4.870   3.148  0.3419  0.0958 -0.8710
  166SAPE   C3218604   4.474   4.700   3.179  0.0597  0.1366  0.2545
  166SAPE   H2X18605   4.471   4.596   3.139 -1.9067  0.0489  0.5175
  166SAPE   H2Y18606   4.388   4.763   3.146  0.8732  0.5638 -1.1205
  166SAPE   C2318607   5.178   4.475   3.137 -0.1624  0.6080 -0.9520
  166SAPE   H3R18608   5.169   4.554   3.214 -1.3855 -1.6900  1.3892
  166SAPE   H3S18609   5.263   4.502   3.069  0.4138 -1.3060 -1.0497
  166SAPE   C2418610   5.224   4.338   3.207  0.4632 -0.1481 -1.1343
  166SAPE   H4R18611   5.311   4.372   3.266  1.5304  1.1463 -3.3300
  166SAPE   H4S18612   5.263   4.261   3.137 -1.2062  0.0213 -2.3042
  166SAPE   C2518613   5.120   4.268   3.293 -0.4217 -0.0282 -0.3182
  166SAPE   H5R18614   5.088   4.171   3.252 -2.4554 -0.6306  2.3796
  166SAPE   C2618615   5.094   4.298   3.423 -0.4559  0.2137 -0.0882
  166SAPE   H6R18616   5.024   4.226   3.467  1.0127 -1.1928  0.0760
  166SAPE   C2718617   5.123   4.422   3.500  0.6712 -0.3404  0.3995
  166SAPE   H7R18618   5.170   4.497   3.431  0.0588  0.1455  0.5010
  166SAPE   H7S18619   5.200   4.403   3.577 -1.0137  2.0288  2.8512
  166SAPE   C2818620   4.999   4.478   3.568  0.1549 -0.3818 -0.2742
  166SAPE   H8R18621   4.929   4.530   3.501  0.9901  0.2407 -0.6721
  166SAPE   C2918622   4.982   4.478   3.704  0.1122 -0.0174 -0.5728
  166SAPE   H9R18623   4.878   4.499   3.732  0.1571  2.7413 -2.1591
  166SAPE  C21018624   5.066   4.396   3.806 -0.3810  1.1897  0.1903
  166SAPE  H10R18625   5.119   4.313   3.757 -0.7907 -0.4742  2.3902
  166SAPE  H10S18626   4.998   4.344   3.877  0.0082 -1.9229 -1.5425
  166SAPE  C21118627   5.168   4.479   3.885  0.3332  0.0814  0.5471
  166SAPE  H11R18628   5.224   4.542   3.815  2.6077 -3.5558 -1.2548
  166SAPE  C21218629   5.186   4.497   4.020  0.4198  0.3899  0.3109
  166SAPE  H12R18630   5.249   4.579   4.059  0.9613  1.0146 -1.7492
  166SAPE  C21318631   5.107   4.418   4.120 -0.0566  0.4443  0.3270
  166SAPE  H13R18632   5.106   4.318   4.072 -1.3565 -0.1995  1.6486
  166SAPE  H13S18633   5.010   4.472   4.124 -0.3625 -0.1046  0.4781
  166SAPE  C21418634   5.155   4.387   4.259  0.4391 -0.8908  0.5108
  166SAPE  H14R18635   5.192   4.285   4.274  0.8472 -1.2625 -2.4219
  166SAPE  C21518636   5.168   4.476   4.362  0.0777  0.5999  0.1373
  166SAPE  H15R18637   5.201   4.427   4.455 -1.3287  0.2539  0.4683
  166SAPE  C21618638   5.126   4.622   4.364  0.1710 -0.7291 -0.2554
  166SAPE  H16R18639   5.044   4.639   4.291  1.4295  0.4258 -1.4348
  166SAPE  H16S18640   5.217   4.682   4.347 -0.8930  0.3281 -2.7416
  166SAPE  C21718641   5.071   4.656   4.502  0.5818  0.9925 -0.8365
  166SAPE  H17R18642   5.063   4.766   4.501  3.4381  1.2832  0.1764
  166SAPE  H17S18643   5.143   4.631   4.583  2.2267  0.4669 -2.3866
  166SAPE  C21818644   4.941   4.588   4.535  0.3125 -0.4251  0.7076
  166SAPE  H18R18645   4.950   4.478   4.548  0.8878 -0.6159 -1.0425
  166SAPE  H18S18646   4.878   4.591   4.443  1.7130 -2.3811 -0.3789
  166SAPE  C21918647   4.861   4.637   4.654  0.2643  0.0978  0.0567
  166SAPE  H19R18648   4.753   4.613   4.644  0.0067  1.5734 -1.0047
  166SAPE  H19S18649   4.862   4.747   4.667  0.6292  0.2280 -0.9997
  166SAPE  C22018650   4.900   4.580   4.791  0.2232  0.0053  0.1033
  166SAPE  H20R18651   4.858   4.647   4.869 -0.0687  0.8486 -0.7579
  166SAPE  H20S18652   5.011   4.581   4.797  0.3089 -2.5104  0.0167
  166SAPE  H20T18653   4.861   4.477   4.808  2.7184 -1.1695 -0.7915
  166SAPE   C3318654   4.483   4.710   3.328  0.2023 -0.4132 -1.2929
  166SAPE   H3X18655   4.541   4.800   3.359  0.7016 -0.6686 -1.4704
  166SAPE   H3Y18656   4.527   4.615   3.366  0.7112  0.4352  0.3362
  166SAPE   C3418657   4.349   4.723   3.402  0.2941 -0.1710  0.0122
  166SAPE   H4X18658   4.290   4.636   3.367  1.0909  0.0255 -1.9595
  166SAPE   H4Y18659   4.294   4.814   3.370  0.9865  0.6405  1.0555
  166SAPE   C3518660   4.359   4.728   3.558 -0.2902 -0.2159 -0.2026
  166SAPE   H5X18661   4.374   4.832   3.596  2.0213 -1.4265  2.5287
  166SAPE   H5Y18662   4.452   4.669   3.572 -1.2382 -1.6281  0.2684
  166SAPE   C3618663   4.237   4.668   3.623 -0.2834 -0.7480  0.3307
  166SAPE   H6X18664   4.239   4.563   3.587 -1.3048 -0.1424 -1.6515
  166SAPE   H6Y18665   4.147   4.726   3.593  0.1331  0.6135  1.6318
  166SAPE   C3718666   4.250   4.657   3.771 -0.5412 -0.4726 -0.1909
  166SAPE   H7X18667   4.325   4.728   3.812 -1.7705 -0.6735  2.6546
  166SAPE   H7Y18668   4.293   4.560   3.804  2.7966  0.7675 -0.5619
  166SAPE   C3818669   4.122   4.674   3.854  0.0877  0.4589  0.5399
  166SAPE   H8X18670   4.047   4.597   3.825 -0.1521  0.6057  0.7754
  166SAPE   H8Y18671   4.082   4.776   3.840  0.4645  0.6497  0.8514
  166SAPE   C3918672   4.131   4.655   4.005 -0.8636 -0.0266 -0.2304
  166SAPE   H9X18673   4.174   4.754   4.034 -1.8059  0.6440 -1.0579
  166SAPE   H9Y18674   4.204   4.571   4.013 -1.4366 -0.9881 -3.7003
  166SAPE  C31018675   4.000   4.637   4.077  0.1618  0.2729  0.1806
  166SAPE  H10X18676   3.956   4.541   4.042  0.5578  0.0617  0.2595
  166SAPE  H10Y18677   3.929   4.718   4.048  0.3170  1.4462  2.7721
  166SAPE  C31118678   4.012   4.634   4.227 -0.2994 -0.7227 -0.2495
  166SAPE  H11X18679   4.051   4.736   4.250  1.1077 -1.1658 -0.5743
  166SAPE  H11Y18680   4.098   4.573   4.263  1.6818  2.6298  1.2466
  166SAPE  C31218681   3.882   4.610   4.310 -0.4888  0.0017 -0.1159
  166SAPE  H12X18682   3.818   4.527   4.276 -0.6402 -0.3144  0.8955
  166SAPE  H12Y18683   3.832   4.702   4.274  0.9553  0.8865  0.0445
  166SAPE  C31318684   3.899   4.607   4.457  0.2690 -0.3414 -0.3986
  166SAPE  H13X18685   3.935   4.707   4.489 -1.7948  0.2905  0.1282
  166SAPE  H13Y18686   3.976   4.530   4.478  0.1720 -0.5306 -0.7316
  166SAPE  C31418687   3.766   4.584   4.536 -0.7128  0.2302 -0.2347
  166SAPE  H14X18688   3.707   4.510   4.478  1.5515 -1.6036 -0.3839
  166SAPE  H14Y18689   3.706   4.676   4.527 -2.8904 -1.1447 -0.3999
  166SAPE  C31518690   3.773   4.563   4.685 -0.0089 -0.4250 -0.2646
  166SAPE  H15X18691   3.840   4.641   4.727  0.4682  0.5163 -2.6161
  166SAPE  H15Y18692   3.816   4.462   4.707  1.7564  0.3297 -0.0854
  166SAPE  C31618693   3.636   4.572   4.760  0.3262  0.9808 -0.7417
  166SAPE  H16X18694   3.561   4.506   4.712  0.5589  0.1687 -0.0076
  166SAPE  H16Y18695   3.603   4.678   4.748  2.3383  1.7438 -0.0185
  166SAPE  C31718696   3.639   4.528   4.908 -0.0481 -0.1852 -0.8807
  166SAPE  H17X18697   3.690   4.429   4.916 -1.1483 -0.8030 -1.3839
  166SAPE  H17Y18698   3.533   4.526   4.940  0.4749 -0.0350  0.9950
  166SAPE  C31818699   3.695   4.628   5.012  0.3089  0.3126  0.3966
  166SAPE  H18X18700   3.636   4.604   5.103 -0.9697  0.5085 -0.3614
  166SAPE  H18Y18701   3.677   4.735   4.986  0.0798  0.2817  0.4294
  166SAPE  H18Z18702   3.804   4.609   5.021  0.8006  2.2872 -0.7559
  167SAPE     N18703   4.680   1.716   2.246  0.5231  0.1981 -0.4732
  167SAPE   HN118704   4.591   1.758   2.280 -0.6656 -3.2603  1.1842
  167SAPE   HN218705   4.752   1.783   2.280 -0.7140  1.4903 -0.3133
  167SAPE   HN318706   4.676   1.723   2.142 -0.0286 -1.0653 -0.5566
  167SAPE   C1218707   4.706   1.572   2.290  0.4064 -0.2221  0.4805
  167SAPE  H12A18708   4.812   1.551   2.265  0.0823 -0.0526 -1.1790
  167SAPE  H12B18709   4.646   1.503   2.227 -1.1575 -0.2170  1.9040
  167SAPE   C1118710   4.666   1.545   2.439 -0.1812  0.1594  0.7677
  167SAPE  H11A18711   4.720   1.450   2.460  0.5365  0.2868 -0.4096
  167SAPE  H11B18712   4.557   1.526   2.442 -0.6405  2.0277 -1.3444
  167SAPE     P18713   4.756   1.621   2.671 -0.5302 -0.6156  0.4283
  167SAPE   O1318714   4.843   1.500   2.661  0.3331 -0.3791 -0.7816
  167SAPE   O1418715   4.816   1.742   2.725 -0.7013  0.1236 -0.5320
  167SAPE   O1218716   4.691   1.650   2.532 -0.2586 -0.1302  0.2721
  167SAPE   O1118717   4.630   1.593   2.755  0.1729  0.7425  0.8633
  167SAPE    C118718   4.539   1.696   2.791 -0.0918 -0.0481  0.1147
  167SAPE    HA18719   4.549   1.787   2.727  0.4523 -0.7149 -0.7685
  167SAPE    HB18720   4.437   1.660   2.768 -1.3560  0.6818  3.9650
  167SAPE    C218721   4.543   1.726   2.946  0.0557 -0.5772  0.4936
  167SAPE    HS18722   4.646   1.750   2.978  0.2494 -3.3359  2.1646
  167SAPE   O2118723   4.492   1.610   3.013 -0.3553 -0.6373  0.2354
  167SAPE   C2118724   4.584   1.513   3.028  0.7353 -0.0655 -0.5326
  167SAPE   O2218725   4.703   1.531   3.008  0.1448 -0.0460 -0.5292
  167SAPE   C2218726   4.521   1.382   3.069  0.0081  0.1244  0.2999
  167SAPE   H2R18727   4.428   1.371   3.009 -0.8379  1.1859  1.3683
  167SAPE   H2S18728   4.596   1.306   3.039 -0.9373 -0.5436 -0.4587
  167SAPE    C318729   4.448   1.842   2.981 -0.6302  0.0788  0.1028
  167SAPE    HX18730   4.344   1.803   2.983 -0.4552 -0.4866  3.3960
  167SAPE    HY18731   4.449   1.925   2.908  1.8682  1.0074  1.1021
  167SAPE   O3118732   4.483   1.891   3.112  0.2826  0.0122  0.6154
  167SAPE   C3118733   4.557   1.996   3.117  0.8377 -0.1389 -0.4110
  167SAPE   O3218734   4.608   2.052   3.020 -0.1485 -0.1171  0.0994
  167SAPE   C3218735   4.561   2.040   3.264 -0.8812  0.1846 -0.3514
  167SAPE   H2X18736   4.458   2.034   3.305 -0.5625 -0.2387  0.3994
  167SAPE   H2Y18737   4.595   2.145   3.250 -0.6822 -0.0510 -1.8059
  167SAPE   C2318738   4.481   1.387   3.222  0.0061  0.4141 -0.1124
  167SAPE   H3R18739   4.415   1.474   3.239  0.7356  0.5707  2.1771
  167SAPE   H3S18740   4.579   1.403   3.272 -0.2922 -1.6826  1.2430
  167SAPE   C2418741   4.419   1.253   3.281  0.3441 -0.1427 -0.1687
  167SAPE   H4R18742   4.482   1.229   3.370  0.1889  1.2604  0.3443
  167SAPE   H4S18743   4.458   1.178   3.209  3.8971  0.6975  0.6741
  167SAPE   C2518744   4.274   1.245   3.310  0.1334  0.0559  0.1142
  167SAPE   H5R18745   4.209   1.222   3.224  1.3830 -1.9319 -0.3714
  167SAPE   C2618746   4.219   1.240   3.435 -0.4392 -0.1143  0.3440
  167SAPE   H6R18747   4.110   1.231   3.445 -0.7323  1.4706 -0.9520
  167SAPE   C2718748   4.283   1.259   3.568 -0.2121  0.1043 -0.2369
  167SAPE   H7R18749   4.372   1.323   3.549 -1.1922  0.9785 -2.2049
  167SAPE   H7S18750   4.317   1.159   3.602  0.7696  0.9884  1.5487
  167SAPE   C2818751   4.201   1.324   3.674 -0.9575 -0.0916  0.2172
  167SAPE   H8R18752   4.102   1.359   3.641 -0.2502  2.6376  0.7410
  167SAPE   C2918753   4.239   1.359   3.798 -0.3751 -0.4040  0.2196
  167SAPE   H9R18754   4.160   1.401   3.862 -2.1198 -0.2947 -1.8926
  167SAPE  C21018755   4.375   1.349   3.860  0.1760  0.5766 -0.0105
  167SAPE  H10R18756   4.428   1.446   3.859  0.6719  0.3146 -1.4235
  167SAPE  H10S18757   4.442   1.294   3.790  0.3142  0.5295  0.1612
  167SAPE  C21118758   4.375   1.291   4.003 -0.4339 -1.1093 -0.2670
  167SAPE  H11R18759   4.424   1.194   4.015 -2.0806 -1.8451  0.8680
  167SAPE  C21218760   4.318   1.351   4.113 -0.3291 -0.0431 -0.8359
  167SAPE  H12R18761   4.315   1.297   4.209  2.7562  1.0964  0.0133
  167SAPE  C21318762   4.251   1.488   4.107  0.1893 -0.1730 -0.1251
  167SAPE  H13R18763   4.140   1.475   4.107  0.1626 -0.5397 -2.4425
  167SAPE  H13S18764   4.275   1.545   4.014  0.3270 -1.1079 -0.6796
  167SAPE  C21418765   4.303   1.564   4.228 -0.0738  0.1598 -0.1773
  167SAPE  H14R18766   4.407   1.597   4.220 -0.3400  1.2616  0.6603
  167SAPE  C21518767   4.243   1.591   4.347  0.2500  0.1882  0.4715
  167SAPE  H15R18768   4.295   1.637   4.432  0.0344 -0.8532  1.1834
  167SAPE  C21618769   4.100   1.545   4.381  0.3132  0.2216  0.4382
  167SAPE  H16R18770   4.066   1.448   4.339  0.0653  0.7119 -0.5123
  167SAPE  H16S18771   4.029   1.617   4.337  0.9619  1.2424  1.0194
  167SAPE  C21718772   4.078   1.539   4.537 -0.1859 -0.4080  0.2981
  167SAPE  H17R18773   4.109   1.640   4.571 -0.5463  0.2407 -1.2354
  167SAPE  H17S18774   4.145   1.464   4.585  1.0424  1.5747  1.8393
  167SAPE  C21818775   3.939   1.511   4.585  0.1385  0.3963 -0.6609
  167SAPE  H18R18776   3.939   1.446   4.675 -0.6624  0.2847 -0.7329
  167SAPE  H18S18777   3.880   1.448   4.515 -1.1100  1.3268 -0.4869
  167SAPE  C21918778   3.859   1.636   4.628  0.4024 -0.2140 -0.0975
  167SAPE  H19R18779   3.868   1.711   4.547 -0.9662  0.4937  0.3754
  167SAPE  H19S18780   3.912   1.672   4.719 -0.4105  0.6465  0.0511
  167SAPE  C22018781   3.703   1.631   4.666 -0.2726 -0.3188  0.6836
  167SAPE  H20R18782   3.695   1.570   4.758 -0.1926  1.0971  1.6537
  167SAPE  H20S18783   3.650   1.607   4.571  1.6811  2.9071 -1.3900
  167SAPE  H20T18784   3.666   1.734   4.682 -2.2590 -0.8431 -0.1743
  167SAPE   C3318785   4.667   1.963   3.345  0.8807  0.2006 -0.1767
  167SAPE   H3X18786   4.771   1.980   3.312  1.1176 -0.9470 -0.0540
  167SAPE   H3Y18787   4.647   1.854   3.344  2.8886 -0.1994 -1.2355
  167SAPE   C3418788   4.669   2.019   3.482  0.0188  0.2035 -0.3537
  167SAPE   H4X18789   4.580   1.982   3.536 -0.9877 -0.0786 -2.1285
  167SAPE   H4Y18790   4.672   2.130   3.485  1.3763  0.1694  0.8764
  167SAPE   C3518791   4.798   1.971   3.548  0.1664  0.1989 -0.0481
  167SAPE   H5X18792   4.884   1.988   3.479  1.4033 -1.5518  0.9794
  167SAPE   H5Y18793   4.799   1.863   3.572 -1.7815  0.0416 -0.5346
  167SAPE   C3618794   4.831   2.041   3.683 -0.3122  0.0052 -0.0098
  167SAPE   H6X18795   4.843   2.151   3.681 -0.8450  0.0662 -2.6172
  167SAPE   H6Y18796   4.936   2.008   3.700  0.6877  1.2307 -3.1111
  167SAPE   C3718797   4.742   2.005   3.797 -0.1758  1.5752  0.0959
  167SAPE   H7X18798   4.743   1.894   3.808 -0.5417  1.2054 -2.8651
  167SAPE   H7Y18799   4.635   2.031   3.781 -0.1226  0.1331 -3.4441
  167SAPE   C3818800   4.792   2.077   3.927 -0.8892  0.2837 -0.7006
  167SAPE   H8X18801   4.765   2.182   3.902  0.2190  0.8487  0.3658
  167SAPE   H8Y18802   4.903   2.065   3.931 -1.0436 -1.0533  1.1679
  167SAPE   C3918803   4.728   2.027   4.056  0.0848  0.2014 -0.5060
  167SAPE   H9X18804   4.620   2.050   4.057  0.0817  0.2765  1.3264
  167SAPE   H9Y18805   4.772   2.078   4.144  0.7266 -2.8022  1.0419
  167SAPE  C31018806   4.747   1.872   4.081  0.2529  0.5791  0.0580
  167SAPE  H10X18807   4.851   1.840   4.058  0.2950  1.4812 -1.1012
  167SAPE  H10Y18808   4.675   1.825   4.010  0.2695  2.0200 -0.9390
  167SAPE  C31118809   4.717   1.839   4.230 -0.7134  0.2920  0.2836
  167SAPE  H11X18810   4.706   1.731   4.254  0.7909  0.3417  1.3487
  167SAPE  H11Y18811   4.618   1.886   4.247 -0.4231  0.5933  1.1656
  167SAPE  C31218812   4.826   1.890   4.323  0.3179 -0.0496 -0.3431
  167SAPE  H12X18813   4.815   2.000   4.328 -0.1615 -0.0602 -1.1463
  167SAPE  H12Y18814   4.925   1.857   4.283  2.7692  5.1808  0.5002
  167SAPE  C31318815   4.813   1.831   4.463  0.4295  0.2779 -0.8275
  167SAPE  H13X18816   4.843   1.725   4.451 -0.7033 -0.0963 -0.5452
  167SAPE  H13Y18817   4.705   1.828   4.490  0.5197 -1.8323 -0.5017
  167SAPE  C31418818   4.902   1.889   4.564 -0.1520 -0.2678  0.6580
  167SAPE  H14X18819   4.873   1.997   4.569 -0.2467 -0.3121  1.0739
  167SAPE  H14Y18820   5.006   1.875   4.526  1.0889 -0.4942  3.8638
  167SAPE  C31518821   4.899   1.811   4.693 -0.0634 -0.8617  0.7647
  167SAPE  H15X18822   4.793   1.799   4.726 -0.2062  0.8572  1.0341
  167SAPE  H15Y18823   4.957   1.866   4.770 -0.0616 -1.0041  0.8662
  167SAPE  C31618824   4.963   1.674   4.686  0.4361  0.2844 -0.6661
  167SAPE  H16X18825   5.045   1.669   4.611 -0.2015  1.1920 -1.4560
  167SAPE  H16Y18826   4.884   1.599   4.665 -0.7042  1.1116  0.4916
  167SAPE  C31718827   5.016   1.646   4.833 -0.5335  0.4870  0.3897
  167SAPE  H17X18828   4.925   1.664   4.893 -2.4902 -0.2621 -2.1901
  167SAPE  H17Y18829   5.097   1.718   4.859 -0.6615  1.1704 -0.9726
  167SAPE  C31818830   5.070   1.502   4.844  0.1709 -0.3701 -0.6893
  167SAPE  H18X18831   5.152   1.494   4.770 -1.1889 -0.7234 -2.2258
  167SAPE  H18Y18832   4.989   1.428   4.824  0.4751 -0.8079 -0.3305
  167SAPE  H18Z18833   5.107   1.479   4.946  0.3621  0.6682 -0.5164
  168SAPE     N18834   2.514   0.258   2.767 -0.3324  0.3596  0.4293
  168SAPE   HN118835   2.613   0.252   2.734 -0.1438  1.8043  0.6958
  168SAPE   HN218836   2.486   0.357   2.782 -0.4359  0.2006  1.3286
  168SAPE   HN318837   2.506   0.194   2.849 -0.7402 -1.3106 -0.8452
  168SAPE   C1218838   2.432   0.205   2.656  0.4342  0.7320  0.7226
  168SAPE  H12A18839   2.428   0.268   2.565  0.3029 -2.5296 -1.7287
  168SAPE  H12B18840   2.329   0.187   2.692  0.9556 -3.8841  0.6160
  168SAPE   C1118841   2.471   0.058   2.627 -0.1789 -0.3348 -0.3636
  168SAPE  H11A18842   2.567   0.050   2.571  0.6141  1.8412  0.5786
  168SAPE  H11B18843   2.390   0.014   2.566 -0.0181  0.5082 -1.1987
  168SAPE     P18844   2.523  -0.170   2.745  0.3749  0.1082  0.4919
  168SAPE   O1318845   2.452  -0.234   2.634  0.2263  0.1128 -0.2058
  168SAPE   O1418846   2.671  -0.191   2.744  0.1776  0.0357  0.1088
  168SAPE   O1218847   2.484  -0.014   2.748 -0.1292  0.3307 -0.0759
  168SAPE   O1118848   2.466  -0.224   2.882  0.7048  0.2389 -0.3555
  168SAPE    C118849   2.324  -0.231   2.896  0.4374  0.0776  0.1245
  168SAPE    HA18850   2.257  -0.189   2.819 -1.0160  3.8362  3.1096
  168SAPE    HB18851   2.299  -0.339   2.906 -1.2353  0.3864 -0.3688
  168SAPE    C218852   2.275  -0.159   3.025  0.2340 -0.2644 -0.1453
  168SAPE    HS18853   2.289  -0.049   3.019 -2.0192  0.0483 -0.6133
  168SAPE   O2118854   2.357  -0.221   3.130  0.0793  0.0509  0.1126
  168SAPE   C2118855   2.456  -0.159   3.185 -0.9106 -0.3622 -0.2076
  168SAPE   O2218856   2.482  -0.040   3.167 -0.7124 -0.4380 -0.4993
  168SAPE   C2218857   2.517  -0.234   3.297 -0.5212 -0.5589  0.6998
  168SAPE   H2R18858   2.449  -0.221   3.384 -1.5387  0.8642 -0.2666
  168SAPE   H2S18859   2.507  -0.343   3.275  1.0973 -1.0382  2.1658
  168SAPE    C318860   2.119  -0.168   3.047 -0.4974  0.3656 -0.4650
  168SAPE    HX18861   2.096  -0.272   3.079 -0.1902  1.0204  2.1911
  168SAPE    HY18862   2.075  -0.131   2.953 -0.8252  1.2616  0.0284
  168SAPE   O3118863   2.077  -0.087   3.159  0.5432  0.6905 -0.1762
  168SAPE   C3118864   1.942  -0.071   3.142  0.1549 -0.1096 -0.6664
  168SAPE   O3218865   1.883  -0.087   3.037 -0.4303 -0.3065 -0.2028
  168SAPE   C3218866   1.878  -0.021   3.271  0.1903  0.7898 -0.1426
  168SAPE   H2X18867   1.938   0.065   3.308 -0.9735  0.9148  1.6273
  168SAPE   H2Y18868   1.883  -0.107   3.341  0.3331 -0.0949 -1.2275
  168SAPE   C2318869   2.661  -0.200   3.318  0.1133  0.1063 -0.0850
  168SAPE   H3R18870   2.665  -0.090   3.327  1.1374  0.1467 -0.8247
  168SAPE   H3S18871   2.731  -0.224   3.235 -0.5670  2.3067 -1.3744
  168SAPE   C2418872   2.698  -0.250   3.454 -0.1904 -0.5459 -0.2728
  168SAPE   H4R18873   2.626  -0.211   3.529 -1.8852 -0.8878 -1.6571
  168SAPE   H4S18874   2.790  -0.192   3.479  0.7903 -2.0239 -0.3139
  168SAPE   C2518875   2.727  -0.396   3.453  1.1193 -0.4492  0.1185
  168SAPE   H5R18876   2.801  -0.424   3.377  0.6609  1.5046 -1.1182
  168SAPE   C2618877   2.687  -0.494   3.544  0.5805 -0.6158  0.7777
  168SAPE   H6R18878   2.716  -0.598   3.525  1.3984 -0.2417 -0.0989
  168SAPE   C2718879   2.585  -0.474   3.645  0.1600  0.0155  0.0429
  168SAPE   H7R18880   2.485  -0.492   3.600 -0.2472 -2.1806  1.6345
  168SAPE   H7S18881   2.596  -0.367   3.674  2.3961 -0.0944 -0.1983
  168SAPE   C2818882   2.603  -0.565   3.761  0.0426  0.2009 -0.2947
  168SAPE   H8R18883   2.606  -0.672   3.735  0.6622  0.2350 -0.3734
  168SAPE   C2918884   2.596  -0.530   3.892  0.1405  0.2001  0.2074
  168SAPE   H9R18885   2.610  -0.610   3.967  0.8947  0.8854  0.8092
  168SAPE  C21018886   2.585  -0.387   3.941  0.0373 -0.4959  0.0526
  168SAPE  H10R18887   2.601  -0.314   3.859  2.1954 -0.6499  0.2632
  168SAPE  H10S18888   2.675  -0.371   4.005  0.6905 -1.1063 -0.6864
  168SAPE  C21118889   2.460  -0.353   4.003  0.2234  0.8595  0.0655
  168SAPE  H11R18890   2.382  -0.320   3.932  0.3306  0.0696 -0.4325
  168SAPE  C21218891   2.426  -0.355   4.137 -0.6796  0.2484 -0.4061
  168SAPE  H12R18892   2.323  -0.323   4.160 -0.6568  1.1566 -1.4683
  168SAPE  C21318893   2.522  -0.389   4.249 -1.1745  0.6777  0.0085
  168SAPE  H13R18894   2.624  -0.398   4.204 -1.0328 -0.1851  0.4896
  168SAPE  H13S18895   2.512  -0.493   4.287  4.3683 -0.4873 -0.7316
  168SAPE  C21418896   2.521  -0.298   4.371  0.3560 -0.0232 -0.2789
  168SAPE  H14R18897   2.607  -0.229   4.371  0.8782 -0.6079  1.5743
  168SAPE  C21518898   2.443  -0.294   4.479  0.1004 -0.1788  0.7669
  168SAPE  H15R18899   2.478  -0.219   4.551  0.1699  2.0221 -1.4060
  168SAPE  C21618900   2.333  -0.390   4.512  0.0602  0.1219  0.2881
  168SAPE  H16R18901   2.341  -0.450   4.605 -0.2319 -2.2708 -1.1592
  168SAPE  H16S18902   2.310  -0.461   4.430  2.1684  0.4532 -0.6498
  168SAPE  C21718903   2.193  -0.319   4.526 -0.5159 -0.1370  0.9756
  168SAPE  H17R18904   2.176  -0.262   4.432  0.4476 -2.4703 -0.7067
  168SAPE  H17S18905   2.196  -0.247   4.610 -1.2923  0.2182  0.7097
  168SAPE  C21818906   2.088  -0.417   4.540 -0.0409  0.0032  0.1551
  168SAPE  H18R18907   2.125  -0.492   4.614  2.5312  1.6573  0.6686
  168SAPE  H18S18908   2.065  -0.471   4.445  0.5752 -0.7623  0.4309
  168SAPE  C21918909   1.955  -0.363   4.601  0.6848  0.6301 -0.6393
  168SAPE  H19R18910   1.909  -0.280   4.542 -3.3490 -0.3661  0.8139
  168SAPE  H19S18911   1.977  -0.312   4.697  1.6888 -1.3975  0.2665
  168SAPE  C22018912   1.846  -0.473   4.610 -0.5613 -0.2114  0.2939
  168SAPE  H20R18913   1.820  -0.502   4.506 -0.1761  0.3922  0.0237
  168SAPE  H20S18914   1.757  -0.444   4.671 -1.6585  1.4314 -1.9562
  168SAPE  H20T18915   1.885  -0.571   4.645 -0.4945  0.1167  1.1740
  168SAPE   C3318916   1.730   0.005   3.248 -0.8891 -0.9337 -0.4964
  168SAPE   H3X18917   1.666  -0.078   3.211 -1.0879 -0.4890 -1.1722
  168SAPE   H3Y18918   1.728   0.082   3.168 -2.9445  0.6525  0.9474
  168SAPE   C3418919   1.656   0.068   3.367 -0.6017 -0.7047 -0.0854
  168SAPE   H4X18920   1.564   0.114   3.325  0.5327  0.4201 -1.4398
  168SAPE   H4Y18921   1.726   0.148   3.399 -0.4493 -0.7312 -0.3452
  168SAPE   C3518922   1.635  -0.030   3.484 -0.4408 -0.3618  0.4848
  168SAPE   H5X18923   1.729  -0.044   3.542 -0.2899  0.7208  0.5119
  168SAPE   H5Y18924   1.600  -0.129   3.447  2.9602 -1.1827 -0.8907
  168SAPE   C3618925   1.525   0.025   3.579 -0.0549  0.7174  0.7666
  168SAPE   H6X18926   1.436   0.049   3.516  1.6005 -0.0822 -2.0623
  168SAPE   H6Y18927   1.546   0.117   3.638  0.5135  2.2117 -1.5980
  168SAPE   C3718928   1.497  -0.081   3.684  0.5120 -0.1028 -0.2058
  168SAPE   H7X18929   1.585  -0.098   3.750  0.9106  0.3016 -0.6288
  168SAPE   H7Y18930   1.450  -0.172   3.641  0.0628  0.1633 -0.2875
  168SAPE   C3818931   1.379  -0.028   3.778 -0.1072  0.3988  0.2521
  168SAPE   H8X18932   1.284  -0.026   3.720  0.9134 -1.9259 -1.6637
  168SAPE   H8Y18933   1.404   0.073   3.817 -0.5865  0.4233  0.5039
  168SAPE   C3918934   1.374  -0.117   3.901 -0.4504  1.0270 -0.1621
  168SAPE   H9X18935   1.467  -0.174   3.922 -1.0118  1.1359  3.3293
  168SAPE   H9Y18936   1.293  -0.194   3.901 -0.1238  0.6580  0.8150
  168SAPE  C31018937   1.336  -0.035   4.026  0.0873 -0.2656  0.5637
  168SAPE  H10X18938   1.242   0.020   4.005 -0.0769 -0.3651  1.0369
  168SAPE  H10Y18939   1.411   0.044   4.048  0.4013 -0.6636  0.9570
  168SAPE  C31118940   1.307  -0.128   4.148 -0.5235 -0.0689 -0.2541
  168SAPE  H11X18941   1.396  -0.194   4.153  1.1994  2.2081  0.5604
  168SAPE  H11Y18942   1.220  -0.196   4.137 -0.2689 -0.5064  0.3575
  168SAPE  C31218943   1.284  -0.057   4.284 -0.2402 -0.3647 -0.3424
  168SAPE  H12X18944   1.295  -0.132   4.365  0.4937  1.0123  0.8738
  168SAPE  H12Y18945   1.189   0.000   4.283 -0.4009 -0.6296 -0.4588
  168SAPE  C31318946   1.385   0.057   4.328  0.1340  0.3644  0.3913
  168SAPE  H13X18947   1.343   0.110   4.417  1.3387 -3.6071  3.6292
  168SAPE  H13Y18948   1.381   0.126   4.241  1.8030 -1.6525 -1.3998
  168SAPE  C31418949   1.531   0.016   4.349  0.4900 -0.0207 -0.4476
  168SAPE  H14X18950   1.589   0.021   4.255  0.3468  0.8665 -0.5027
  168SAPE  H14Y18951   1.521  -0.088   4.385 -1.2341  0.6335  1.1416
  168SAPE  C31518952   1.591   0.105   4.461  0.3432  0.4867  0.0200
  168SAPE  H15X18953   1.543   0.085   4.559 -3.9021  2.5686 -1.3558
  168SAPE  H15Y18954   1.579   0.212   4.432  1.0794  0.7601  0.6878
  168SAPE  C31618955   1.748   0.084   4.484  0.4360 -0.7497  0.8319
  168SAPE  H16X18956   1.756  -0.020   4.521  0.9872 -1.5911 -1.4774
  168SAPE  H16Y18957   1.773   0.155   4.566 -1.7526 -0.2542  1.1244
  168SAPE  C31718958   1.856   0.112   4.381 -0.2270 -0.3177 -0.3067
  168SAPE  H17X18959   1.896   0.215   4.393 -1.8579  0.4382 -1.1786
  168SAPE  H17Y18960   1.819   0.093   4.278  0.3387 -0.3931 -0.5002
  168SAPE  C31818961   1.983   0.031   4.396  0.2325  0.2257 -0.5215
  168SAPE  H18X18962   1.963  -0.078   4.395  0.6631  0.1463 -0.6206
  168SAPE  H18Y18963   2.034   0.046   4.493 -1.5117 -0.2480  0.5061
  168SAPE  H18Z18964   2.060   0.057   4.320  1.1612 -1.2006 -0.1003
  169SAPE     N18965   6.081   2.095   2.777  0.3484  0.1416 -0.1434
  169SAPE   HN118966   6.166   2.124   2.725  0.5366  1.7573  0.9773
  169SAPE   HN218967   6.075   1.992   2.775  1.9216  0.0119  0.5289
  169SAPE   HN318968   5.997   2.121   2.721  0.1319  2.1163  0.9887
  169SAPE   C1218969   6.081   2.127   2.925 -0.2344 -0.1179  0.2451
  169SAPE  H12A18970   6.148   2.048   2.965 -1.2360 -0.8359  0.5100
  169SAPE  H12B18971   5.974   2.115   2.951 -0.2027 -0.4179  0.2446
  169SAPE   C1118972   6.120   2.269   2.959 -0.1880  0.2279  0.5573
  169SAPE  H11A18973   6.230   2.276   2.942 -0.1556 -1.1499  0.0664
  169SAPE  H11B18974   6.106   2.286   3.068  2.5235  2.0667  0.7288
  169SAPE     P18975   5.920   2.420   2.898  0.0972 -0.3139 -0.1844
  169SAPE   O1318976   5.918   2.567   2.863 -0.2078 -0.4191 -0.4372
  169SAPE   O1418977   5.824   2.336   2.819 -0.1326  0.3846 -0.4202
  169SAPE   O1218978   6.061   2.366   2.872  0.2922 -0.3663  0.5826
  169SAPE   O1118979   5.903   2.413   3.054  0.5512  0.3314 -0.4002
  169SAPE    C118980   5.780   2.465   3.106  0.1428  0.2522 -0.1431
  169SAPE    HA18981   5.694   2.436   3.043  0.4445  0.6840 -0.7622
  169SAPE    HB18982   5.757   2.406   3.198 -0.6771  0.6930 -0.0579
  169SAPE    C218983   5.787   2.622   3.135  0.3083  0.0038 -0.6451
  169SAPE    HS18984   5.854   2.671   3.061  1.5834 -2.0918 -0.9556
  169SAPE   O2118985   5.829   2.646   3.271 -0.1134 -0.0463 -0.3394
  169SAPE   C2118986   5.943   2.699   3.286 -0.4059 -0.7040 -0.0993
  169SAPE   O2218987   6.021   2.739   3.200  0.0057 -0.0695 -0.2688
  169SAPE   C2218988   5.986   2.692   3.437  0.2990  0.2361  0.4269
  169SAPE   H2R18989   5.941   2.602   3.485  1.4012 -0.5282  0.0635
  169SAPE   H2S18990   6.095   2.675   3.439 -0.0059 -2.2585 -0.1170
  169SAPE    C318991   5.649   2.683   3.121  0.1406 -0.0409  0.4130
  169SAPE    HX18992   5.575   2.621   3.177 -1.2828  1.2653  0.0374
  169SAPE    HY18993   5.624   2.663   3.015  1.4235 -0.0197  0.0919
  169SAPE   O3118994   5.638   2.823   3.168  0.1423  0.3254  0.1123
  169SAPE   C3118995   5.653   2.918   3.083 -0.6440  0.2615  0.4644
  169SAPE   O3218996   5.668   2.912   2.962  0.2818  0.1780 -0.1828
  169SAPE   C3218997   5.655   3.056   3.149  0.1578 -0.3463  0.3977
  169SAPE   H2X18998   5.549   3.085   3.160  0.1498 -0.4440  0.5789
  169SAPE   H2Y18999   5.703   3.123   3.074 -1.0640  1.9992  1.6143
  169SAPE   C2319000   5.973   2.822   3.516  0.1227  0.3857 -0.1280
  169SAPE   H3R19001   5.920   2.898   3.454 -0.9540 -1.1993 -1.2258
  169SAPE   H3S19002   6.072   2.862   3.547  0.8092 -0.1570 -1.5115
  169SAPE   C2419003   5.894   2.796   3.638  0.6608 -0.1771 -0.5543
  169SAPE   H4R19004   5.911   2.867   3.721  0.6391  0.6796 -1.2751
  169SAPE   H4S19005   5.927   2.701   3.686 -1.6930  0.1460  1.9882
  169SAPE   C2519006   5.742   2.782   3.611  0.3490 -0.5334 -0.6792
  169SAPE   H5R19007   5.699   2.866   3.554 -0.6238 -0.5157  0.0716
  169SAPE   C2619008   5.660   2.676   3.640  0.0730  0.9072  0.6731
  169SAPE   H6R19009   5.561   2.672   3.592  1.3929 -0.9681 -2.1195
  169SAPE   C2719010   5.695   2.542   3.687  0.2941  0.6548 -0.0595
  169SAPE   H7R19011   5.796   2.532   3.731  0.5899 -2.7676 -1.2580
  169SAPE   H7S19012   5.693   2.472   3.602  0.5488  0.3880  0.1526
  169SAPE   C2819013   5.591   2.475   3.770  0.3306 -0.5077  0.7221
  169SAPE   H8R19014   5.497   2.474   3.713  0.9793  0.5733 -0.4286
  169SAPE   C2919015   5.588   2.434   3.893 -0.0455 -0.1289 -0.1394
  169SAPE   H9R19016   5.496   2.385   3.926 -0.6219  0.1208 -1.3539
  169SAPE  C21019017   5.701   2.448   3.992  0.0950 -0.3494 -0.0272
  169SAPE  H10R19018   5.795   2.431   3.935  1.2572 -0.5705  1.8864
  169SAPE  H10S19019   5.694   2.362   4.062 -2.1916  2.0704  3.0385
  169SAPE  C21119020   5.720   2.576   4.066  0.1946  0.4626 -0.4197
  169SAPE  H11R19021   5.805   2.633   4.027  0.5658 -0.0467 -0.3716
  169SAPE  C21219022   5.633   2.622   4.162 -0.1586  0.1570 -0.3784
  169SAPE  H12R19023   5.673   2.701   4.227  1.3051 -0.6302 -0.2748
  169SAPE  C21319024   5.513   2.542   4.217  0.4597  0.1276  0.4733
  169SAPE  H13R19025   5.523   2.549   4.327  0.7875  0.5271  0.4221
  169SAPE  H13S19026   5.515   2.433   4.195 -1.0245 -0.0786  1.2113
  169SAPE  C21419027   5.381   2.593   4.170 -0.5833  0.1015  0.1620
  169SAPE  H14R19028   5.371   2.604   4.061 -1.3098  1.3078  0.3337
  169SAPE  C21519029   5.283   2.622   4.255  0.2561  0.0107 -0.0141
  169SAPE  H15R19030   5.187   2.640   4.205 -0.3988 -0.2524  1.1022
  169SAPE  C21619031   5.262   2.601   4.400 -0.1747 -0.8948 -0.6990
  169SAPE  H16R19032   5.169   2.642   4.446  1.1771 -0.7927  2.1695
  169SAPE  H16S19033   5.353   2.639   4.451 -3.2213  2.0632  3.1871
  169SAPE  C21719034   5.264   2.451   4.429 -0.1505 -0.3271 -0.1100
  169SAPE  H17R19035   5.357   2.398   4.398  0.2177  0.6940 -0.7937
  169SAPE  H17S19036   5.185   2.397   4.373  1.9149 -3.7475  0.0128
  169SAPE  C21819037   5.246   2.412   4.583  0.7766 -0.6644  0.7493
  169SAPE  H18R19038   5.147   2.456   4.609  0.8904  0.4696 -0.6439
  169SAPE  H18S19039   5.337   2.460   4.625  1.4646 -0.4710 -0.8888
  169SAPE  C21919040   5.242   2.266   4.605  0.0011  0.6795  0.5094
  169SAPE  H19R19041   5.266   2.251   4.712 -0.0588  1.6401  0.6592
  169SAPE  H19S19042   5.330   2.215   4.560 -0.4565 -0.1457  0.5264
  169SAPE  C22019043   5.103   2.215   4.557 -0.5983 -0.5116 -0.0452
  169SAPE  H20R19044   5.091   2.230   4.448 -0.3084  0.7460  0.0783
  169SAPE  H20S19045   5.024   2.273   4.609 -0.2728  1.8975 -2.0322
  169SAPE  H20T19046   5.083   2.109   4.580 -1.2444 -0.7147 -1.4927
  169SAPE   C3319047   5.728   3.064   3.289 -0.7648  0.4096 -0.0621
  169SAPE   H3X19048   5.833   3.028   3.283 -1.0665 -0.3979 -0.6406
  169SAPE   H3Y19049   5.681   3.001   3.367  0.1113 -0.8491 -0.5160
  169SAPE   C3419050   5.724   3.214   3.330 -0.3594  0.0891  0.5238
  169SAPE   H4X19051   5.620   3.254   3.331 -0.1384  0.6747  1.4110
  169SAPE   H4Y19052   5.787   3.276   3.263  0.5646  1.1721  2.2964
  169SAPE   C3519053   5.781   3.228   3.470 -0.2885  0.3648  0.5383
  169SAPE   H5X19054   5.880   3.177   3.463 -1.3403 -1.6761 -0.0734
  169SAPE   H5Y19055   5.717   3.158   3.527  3.0711 -0.2044  4.0481
  169SAPE   C3619056   5.790   3.364   3.524  0.4872  0.1584 -0.1794
  169SAPE   H6X19057   5.694   3.418   3.515 -0.6899 -1.9180 -0.8494
  169SAPE   H6Y19058   5.870   3.409   3.461 -0.2699 -2.3310 -3.1663
  169SAPE   C3719059   5.840   3.388   3.666  0.3702  0.5163  0.1359
  169SAPE   H7X19060   5.876   3.493   3.670 -0.2031  0.8299 -1.9403
  169SAPE   H7Y19061   5.936   3.332   3.670 -0.3864 -0.9169 -0.7723
  169SAPE   C3819062   5.749   3.340   3.783  0.3949  0.0306 -0.3382
  169SAPE   H8X19063   5.712   3.237   3.765 -0.4679  0.4461 -1.0445
  169SAPE   H8Y19064   5.657   3.403   3.786 -1.0816 -1.7975 -2.6446
  169SAPE   C3919065   5.817   3.349   3.925  0.2188 -0.2931 -0.2752
  169SAPE   H9X19066   5.834   3.458   3.941  0.4405 -0.3406 -0.1812
  169SAPE   H9Y19067   5.916   3.305   3.903  1.3478  1.6747  0.5834
  169SAPE  C31019068   5.746   3.295   4.047 -0.9685  0.2501 -0.5903
  169SAPE  H10X19069   5.637   3.286   4.028 -1.2009  1.4016  0.1427
  169SAPE  H10Y19070   5.760   3.360   4.136  0.7121 -0.0110 -0.6244
  169SAPE  C31119071   5.810   3.160   4.104 -0.1977 -0.1714  0.3749
  169SAPE  H11X19072   5.919   3.180   4.109 -0.4311  1.2075  0.3454
  169SAPE  H11Y19073   5.780   3.080   4.032 -0.3965  0.8493 -0.6971
  169SAPE  C31219074   5.755   3.126   4.249  0.7481 -0.0412 -0.1961
  169SAPE  H12X19075   5.644   3.136   4.240  0.7569 -0.1626 -0.4687
  169SAPE  H12Y19076   5.780   3.208   4.318 -1.0812  0.4065 -0.0190
  169SAPE  C31319077   5.792   2.983   4.292 -0.2463 -0.7048 -0.1811
  169SAPE  H13X19078   5.903   2.984   4.292 -0.2034 -1.1988 -2.0947
  169SAPE  H13Y19079   5.760   2.919   4.207 -3.5500 -0.0006  0.3966
  169SAPE  C31419080   5.736   2.943   4.432  0.1130  0.2715  0.3763
  169SAPE  H14X19081   5.774   2.995   4.522  1.3806  0.4093 -0.2214
  169SAPE  H14Y19082   5.762   2.835   4.443  1.3847  0.0489 -3.4029
  169SAPE  C31519083   5.581   2.945   4.441 -0.2182  0.3943  0.0955
  169SAPE  H15X19084   5.530   2.883   4.365 -1.8147  1.5382  0.1782
  169SAPE  H15Y19085   5.550   3.048   4.411 -1.0838 -0.0147 -0.4578
  169SAPE  C31619086   5.523   2.910   4.577 -0.1138  0.6466 -0.1730
  169SAPE  H16X19087   5.551   2.977   4.661 -1.5383 -1.3377  1.9999
  169SAPE  H16Y19088   5.541   2.802   4.595 -5.2191 -0.4601 -0.0046
  169SAPE  C31719089   5.367   2.915   4.578  0.0310  0.0061  0.3296
  169SAPE  H17X19090   5.330   2.859   4.490 -0.9350  1.5784 -0.3032
  169SAPE  H17Y19091   5.328   3.019   4.565 -1.2159 -0.4432  0.3666
  169SAPE  C31819092   5.304   2.841   4.698  0.1500  0.3474  0.2811
  169SAPE  H18X19093   5.359   2.837   4.794  0.2603  0.1481  0.2088
  169SAPE  H18Y19094   5.299   2.735   4.667  0.7493  0.8638 -1.7973
  169SAPE  H18Z19095   5.200   2.876   4.712 -0.5905 -1.4752 -0.3822
  170SAPE     N19096   5.459   4.996   2.496 -0.4444  0.7081  0.1142
  170SAPE   HN119097   5.379   4.931   2.481 -0.7628  0.8989  0.9325
  170SAPE   HN219098   5.439   5.095   2.472  1.2567  1.1556  0.3960
  170SAPE   HN319099   5.538   4.963   2.436 -1.0275  2.8071 -1.9805
  170SAPE   C1219100   5.487   4.980   2.644 -0.1601 -0.2314 -0.2261
  170SAPE  H12A19101   5.556   4.894   2.647 -0.1497 -0.2184  2.9122
  170SAPE  H12B19102   5.392   4.945   2.689  0.4491 -0.9250  0.5286
  170SAPE   C1119103   5.562   5.108   2.694 -0.2536 -0.1287 -0.6221
  170SAPE  H11A19104   5.609   5.084   2.792 -1.0593  1.3723  0.1645
  170SAPE  H11B19105   5.480   5.180   2.714 -1.1641 -0.7279 -2.0577
  170SAPE     P19106   5.796   5.090   2.578  0.3016 -0.0470 -0.0724
  170SAPE   O1319107   5.760   4.963   2.511  0.0683 -0.3112 -0.1453
  170SAPE   O1419108   5.892   5.173   2.506 -0.3163 -0.0763 -0.4289
  170SAPE   O1219109   5.658   5.162   2.601  0.6710  0.2268 -0.3181
  170SAPE   O1119110   5.851   5.070   2.726  0.0271 -0.0088 -0.0254
  170SAPE    C119111   5.905   4.939   2.764  1.0593  0.5529 -0.2869
  170SAPE    HA19112   5.819   4.868   2.767  0.2606  1.4313 -1.6276
  170SAPE    HB19113   5.973   4.898   2.686  2.4905 -1.5624  1.9036
  170SAPE    C219114   5.972   4.931   2.906  0.7191  0.0088  0.3222
  170SAPE    HS19115   6.016   4.831   2.931  2.3080 -0.2022 -2.7904
  170SAPE   O2119116   5.891   4.987   3.009 -0.3347  0.1453  1.2636
  170SAPE   C2119117   5.777   4.927   3.031  0.7692 -0.6783 -0.1119
  170SAPE   O2219118   5.738   4.822   2.981 -0.2859  0.1702  0.0372
  170SAPE   C2219119   5.703   5.012   3.131  0.2312 -0.6071 -0.3894
  170SAPE   H2R19120   5.760   5.103   3.160 -0.3717 -0.7855  1.5013
  170SAPE   H2S19121   5.605   5.042   3.088  1.2926  3.8171 -0.1958
  170SAPE    C319122   6.094   5.016   2.902 -0.1556 -0.0930 -0.0984
  170SAPE    HX19123   6.069   5.123   2.887 -3.9305 -0.8870 -0.4232
  170SAPE    HY19124   6.152   4.982   2.814  0.0258 -1.3217  0.4739
  170SAPE   O3119125   6.171   4.993   3.027 -0.0016  0.1745  0.3709
  170SAPE   C3119126   6.295   5.048   3.021 -0.2825  0.0767  0.2146
  170SAPE   O3219127   6.333   5.123   2.933 -0.6511  0.3936 -0.0608
  170SAPE   C3219128   6.379   5.001   3.144 -0.3788  0.0155  0.3613
  170SAPE   H2X19129   6.483   5.034   3.122  0.3099 -2.4387 -0.4011
  170SAPE   H2Y19130   6.389   4.891   3.145 -1.8984 -0.1566  3.1341
  170SAPE   C2319131   5.687   4.932   3.261 -0.1055  0.7357  0.2766
  170SAPE   H3R19132   5.602   4.861   3.251  1.8288 -1.4736 -2.1796
  170SAPE   H3S19133   5.651   5.003   3.338 -1.8430 -0.3553  0.5341
  170SAPE   C2419134   5.816   4.865   3.320  0.1379 -0.3273 -0.2692
  170SAPE   H4R19135   5.850   4.775   3.264  0.1470 -1.1196  0.9862
  170SAPE   H4S19136   5.794   4.835   3.424 -2.0400  1.5910 -0.0919
  170SAPE   C2519137   5.925   4.971   3.327  0.9033 -0.4109 -0.2115
  170SAPE   H5R19138   5.946   5.031   3.237  1.6321 -2.1555 -1.2464
  170SAPE   C2619139   6.007   4.981   3.434 -0.1873  0.0943 -0.7515
  170SAPE   H6R19140   6.090   5.053   3.440  0.3456 -0.3833 -2.0576
  170SAPE   C2719141   6.000   4.893   3.562  0.2455 -0.0997 -0.7150
  170SAPE   H7R19142   6.097   4.861   3.605 -0.5290 -3.7316 -1.3329
  170SAPE   H7S19143   5.975   4.790   3.527  0.7217 -0.2936 -0.4923
  170SAPE   C2819144   5.893   4.935   3.662 -0.7961  0.8126 -0.3385
  170SAPE   H8R19145   5.792   4.953   3.625 -0.4486  0.5684 -1.4372
  170SAPE   C2919146   5.891   4.895   3.788  0.1864 -0.2787  0.3394
  170SAPE   H9R19147   5.802   4.927   3.843 -1.0058 -0.3299 -1.4712
  170SAPE  C21019148   5.994   4.824   3.869  0.3861  0.0034 -0.7768
  170SAPE  H10R19149   6.081   4.774   3.820  0.5070  0.4815 -1.0584
  170SAPE  H10S19150   5.942   4.747   3.930 -3.1270  1.6613 -1.4750
  170SAPE  C21119151   6.060   4.910   3.967  0.2123 -0.6556  0.1371
  170SAPE  H11R19152   6.090   5.005   3.922  3.0138 -1.4698  0.0988
  170SAPE  C21219153   6.100   4.886   4.096 -0.4924  1.3412 -0.4032
  170SAPE  H12R19154   6.152   4.967   4.149 -0.9062  0.6185  1.1617
  170SAPE  C21319155   6.091   4.757   4.170 -0.1047 -0.0931 -0.4774
  170SAPE  H13R19156   6.192   4.724   4.204 -1.3954 -0.6716  3.1730
  170SAPE  H13S19157   6.064   4.673   4.102 -0.9682 -0.7550  0.6560
  170SAPE  C21419158   6.005   4.758   4.291 -0.4597 -0.1523  0.0854
  170SAPE  H14R19159   5.897   4.755   4.275 -0.1994  1.0306 -2.2873
  170SAPE  C21519160   6.054   4.792   4.408 -0.1539  0.2052 -0.4160
  170SAPE  H15R19161   5.976   4.779   4.484  0.0958  1.6634  0.1137
  170SAPE  C21619162   6.194   4.816   4.451  0.2196 -0.5720  0.1029
  170SAPE  H16R19163   6.272   4.818   4.371 -2.5404 -1.0323 -2.7851
  170SAPE  H16S19164   6.227   4.740   4.524  0.1227 -0.7237 -0.0107
  170SAPE  C21719165   6.207   4.952   4.532 -0.8407  0.4805 -0.1217
  170SAPE  H17R19166   6.148   4.938   4.626  3.6558  0.7356  3.0720
  170SAPE  H17S19167   6.166   5.041   4.479 -1.7285  0.3466  0.3145
  170SAPE  C21819168   6.358   4.971   4.575 -0.0295 -0.6753 -0.1669
  170SAPE  H18R19169   6.418   4.957   4.482  2.2738  0.5238  1.0501
  170SAPE  H18S19170   6.387   4.905   4.659  1.0777  1.5610  1.3031
  170SAPE  C21919171   6.379   5.120   4.614  0.0379  0.0474  0.5491
  170SAPE  H19R19172   6.292   5.145   4.679 -1.7379 -1.8209 -0.9352
  170SAPE  H19S19173   6.368   5.172   4.517 -0.5065 -1.3494 -0.1733
  170SAPE  C22019174   6.506   5.170   4.679  0.0797  0.0098 -0.0445
  170SAPE  H20R19175   6.514   5.277   4.651  0.5050  0.1080  0.4512
  170SAPE  H20S19176   6.600   5.131   4.635 -0.8828  0.9029 -3.2033
  170SAPE  H20T19177   6.509   5.161   4.790  1.3325 -0.1280 -0.0753
  170SAPE   C3319178   6.332   5.064   3.276  0.2244 -0.4066  0.0749
  170SAPE   H3X19179   6.222   5.053   3.283  0.4412 -2.9965  0.4266
  170SAPE   H3Y19180   6.367   5.169   3.288 -0.6505 -0.2289  1.2783
  170SAPE   C3419181   6.391   4.987   3.394  0.7711 -0.5989 -0.5768
  170SAPE   H4X19182   6.494   4.953   3.373 -0.1794 -2.0335 -3.4000
  170SAPE   H4Y19183   6.333   4.894   3.412 -3.1756  1.4488 -1.6090
  170SAPE   C3519184   6.382   5.069   3.523  0.6002  0.3583  0.3721
  170SAPE   H5X19185   6.277   5.100   3.542  0.1530 -0.9383  0.1180
  170SAPE   H5Y19186   6.448   5.157   3.506 -1.1008  1.3260 -1.6145
  170SAPE   C3619187   6.424   4.973   3.644  0.1007  0.2956 -0.3623
  170SAPE   H6X19188   6.529   4.944   3.625  0.2909 -1.5395  2.8223
  170SAPE   H6Y19189   6.359   4.883   3.648 -1.6984  1.5534  0.0317
  170SAPE   C3719190   6.405   5.032   3.783  0.5006 -0.7901  0.0174
  170SAPE   H7X19191   6.302   5.015   3.820  0.2856  1.3493  0.4869
  170SAPE   H7Y19192   6.423   5.140   3.763 -1.4198 -0.0254  2.0157
  170SAPE   C3819193   6.497   4.992   3.903 -0.1480 -0.6643 -0.0652
  170SAPE   H8X19194   6.599   5.027   3.876 -1.0070  0.4026 -2.1411
  170SAPE   H8Y19195   6.492   4.883   3.921  0.0878 -0.5208  0.9727
  170SAPE   C3919196   6.464   5.068   4.034 -0.9391  0.8461  0.8271
  170SAPE   H9X19197   6.354   5.053   4.047 -0.7216 -0.9958  0.7912
  170SAPE   H9Y19198   6.496   5.174   4.028 -0.2839  0.6177  0.2577
  170SAPE  C31019199   6.535   5.008   4.150  0.0203  0.6032  0.0680
  170SAPE  H10X19200   6.483   4.911   4.167  2.3902 -0.8384 -0.5117
  170SAPE  H10Y19201   6.516   5.067   4.242  0.6405 -2.3295  2.2151
  170SAPE  C31119202   6.679   4.989   4.131  0.0164  0.8406  0.1717
  170SAPE  H11X19203   6.734   5.079   4.095  1.3724 -0.1830 -0.3973
  170SAPE  H11Y19204   6.688   4.912   4.051 -0.6858 -1.2615  2.0097
  170SAPE  C31219205   6.759   4.934   4.243 -0.0175  0.9493 -1.0550
  170SAPE  H12X19206   6.728   4.994   4.332 -0.9205  0.8379 -1.2882
  170SAPE  H12Y19207   6.869   4.948   4.229  0.1660 -0.8671 -1.6405
  170SAPE  C31319208   6.742   4.777   4.266  0.4722 -0.6153 -0.6877
  170SAPE  H13X19209   6.783   4.728   4.175  2.2366  0.7008 -0.6537
  170SAPE  H13Y19210   6.635   4.752   4.278  0.8399 -2.1218 -0.4137
  170SAPE  C31419211   6.806   4.732   4.397 -0.7515 -0.2300 -0.3080
  170SAPE  H14X19212   6.774   4.630   4.430 -2.3220  0.3376  0.0220
  170SAPE  H14Y19213   6.778   4.804   4.477  0.7227  0.1587 -0.1072
  170SAPE  C31519214   6.960   4.741   4.393  0.6640  0.4152  0.4522
  170SAPE  H15X19215   6.998   4.825   4.332 -0.1628 -1.1357 -2.4106
  170SAPE  H15Y19216   6.994   4.654   4.332 -0.5530  1.7041 -2.2436
  170SAPE  C31619217   7.022   4.756   4.529 -0.4492 -0.2731 -0.1866
  170SAPE  H16X19218   6.982   4.674   4.592  1.3028 -0.1127  1.1803
  170SAPE  H16Y19219   6.998   4.856   4.571 -4.1131 -0.5117 -1.2803
  170SAPE  C31719220   7.177   4.764   4.525 -0.0724  0.3202 -0.0463
  170SAPE  H17X19221   7.191   4.855   4.463 -2.7836  0.7775 -0.1211
  170SAPE  H17Y19222   7.207   4.673   4.469  0.8005  1.6831 -1.9034
  170SAPE  C31819223   7.245   4.799   4.652 -0.4767  0.2568  0.4126
  170SAPE  H18X19224   7.334   4.741   4.682  0.6336  1.7691  0.1440
  170SAPE  H18Y19225   7.180   4.794   4.742 -1.4632 -0.3296 -0.3124
  170SAPE  H18Z19226   7.292   4.899   4.644  1.8430 -0.8762 -0.9990
  171SAPE     N19227   6.352   5.171   2.651 -0.6090  0.3943 -0.0528
  171SAPE   HN119228   6.291   5.120   2.583 -0.6848 -0.3582  0.5600
  171SAPE   HN219229   6.388   5.104   2.722 -1.6141  1.8103  1.8833
  171SAPE   HN319230   6.306   5.255   2.692 -0.0059  1.4203 -1.4147
  171SAPE   C1219231   6.464   5.217   2.564 -0.3632  0.4423  0.4121
  171SAPE  H12A19232   6.441   5.314   2.515  1.2314  2.2231  2.9644
  171SAPE  H12B19233   6.471   5.135   2.489 -2.5669 -1.1968  1.8859
  171SAPE   C1119234   6.593   5.217   2.636  0.1240  0.3903 -0.1671
  171SAPE  H11A19235   6.670   5.234   2.558  1.3750  2.9568  1.4842
  171SAPE  H11B19236   6.612   5.113   2.671 -0.2042  0.1594 -0.6654
  171SAPE     P19237   6.633   5.448   2.742 -0.2171  0.0204  0.2861
  171SAPE   O1319238   6.781   5.449   2.753  0.5827  0.0749  0.0213
  171SAPE   O1419239   6.567   5.506   2.624  0.4984 -0.4320 -0.7955
  171SAPE   O1219240   6.589   5.307   2.748 -0.0758 -0.3759 -0.6438
  171SAPE   O1119241   6.575   5.509   2.871  0.0232 -0.5457  0.6168
  171SAPE    C119242   6.448   5.492   2.925  0.6068 -0.1687 -0.3250
  171SAPE    HA19243   6.382   5.578   2.899 -0.1319 -0.9583 -1.1641
  171SAPE    HB19244   6.397   5.408   2.873  0.0029  0.9356 -1.5675
  171SAPE    C219245   6.454   5.463   3.078  0.0586 -0.3557  0.0931
  171SAPE    HS19246   6.348   5.445   3.108  0.2142 -0.7777  0.3913
  171SAPE   O2119247   6.496   5.578   3.142 -0.4182 -0.1681 -0.4787
  171SAPE   C2119248   6.417   5.686   3.155 -0.6345 -0.2656  0.2550
  171SAPE   O2219249   6.305   5.697   3.112 -0.3232  0.2505 -0.7033
  171SAPE   C2219250   6.494   5.793   3.232 -0.9105  0.7117  0.0625
  171SAPE   H2R19251   6.574   5.832   3.166 -1.0454  0.5175 -0.2209
  171SAPE   H2S19252   6.424   5.877   3.251  0.6767  2.4745 -1.5142
  171SAPE    C319253   6.548   5.343   3.108  0.0003  0.2718 -0.7693
  171SAPE    HX19254   6.641   5.358   3.049  1.4081 -0.1613  1.2251
  171SAPE    HY19255   6.503   5.252   3.065  0.2953 -0.5290  0.5581
  171SAPE   O3119256   6.571   5.331   3.252  0.3956  0.1990 -0.0568
  171SAPE   C3119257   6.687   5.358   3.293  0.5649 -0.1060  0.1634
  171SAPE   O3219258   6.776   5.409   3.230 -0.0072 -0.2035 -0.5066
  171SAPE   C3219259   6.701   5.320   3.437 -0.1554 -0.3054 -1.0771
  171SAPE   H2X19260   6.808   5.336   3.464 -0.5271  0.3502  0.0885
  171SAPE   H2Y19261   6.686   5.210   3.447  1.5521 -0.5955 -1.3629
  171SAPE   C2319262   6.564   5.736   3.362  0.0586  0.0676  0.2207
  171SAPE   H3R19263   6.618   5.643   3.335  3.5401  2.2453 -1.0607
  171SAPE   H3S19264   6.483   5.708   3.433  0.9645 -0.0402  1.2395
  171SAPE   C2419265   6.660   5.840   3.426  0.4059  0.0460 -0.1261
  171SAPE   H4R19266   6.740   5.876   3.358  0.4160 -0.1747 -0.2342
  171SAPE   H4S19267   6.719   5.783   3.501 -0.9950  0.2071  1.1420
  171SAPE   C2519268   6.609   5.962   3.494  0.3163 -0.6994  0.3757
  171SAPE   H5R19269   6.551   6.033   3.433  1.4420 -0.1120 -0.0350
  171SAPE   C2619270   6.643   6.010   3.612 -0.2156  0.4263  0.0218
  171SAPE   H6R19271   6.606   6.110   3.641  0.1687  0.3331  0.8608
  171SAPE   C2719272   6.729   5.949   3.724  0.8205 -0.3652  0.5189
  171SAPE   H7R19273   6.790   6.033   3.765  0.6419 -0.5151  1.0947
  171SAPE   H7S19274   6.807   5.881   3.683  1.0179  0.8916 -1.3495
  171SAPE   C2819275   6.632   5.887   3.821  0.1516  0.2555 -0.0479
  171SAPE   H8R19276   6.570   5.804   3.786 -1.1696  0.8772  0.7554
  171SAPE   C2919277   6.601   5.932   3.945  0.3366  0.5025  0.2747
  171SAPE   H9R19278   6.514   5.876   3.982  0.7079  0.0407  0.4690
  171SAPE  C21019279   6.673   6.043   4.017 -0.4549  0.5398 -0.0697
  171SAPE  H10R19280   6.727   6.113   3.950  0.1659  1.8867  1.7734
  171SAPE  H10S19281   6.742   5.990   4.086 -0.1521 -0.1615 -0.8898
  171SAPE  C21119282   6.579   6.117   4.106  0.3945  0.2158 -0.4011
  171SAPE  H11R19283   6.508   6.177   4.046 -0.2538 -2.0547 -2.0433
  171SAPE  C21219284   6.553   6.091   4.234 -0.3798  0.2109 -0.9892
  171SAPE  H12R19285   6.472   6.152   4.277 -1.0642  0.1255 -2.1140
  171SAPE  C21319286   6.618   5.985   4.322 -0.1822  0.2650 -0.7223
  171SAPE  H13R19287   6.728   5.994   4.320 -0.2419  1.6731  0.7165
  171SAPE  H13S19288   6.584   5.887   4.281  2.1807 -0.0270 -2.1328
  171SAPE  C21419289   6.593   6.005   4.472  0.1482 -0.1437  0.0514
  171SAPE  H14R19290   6.615   6.103   4.517 -0.0497 -1.4910  3.3716
  171SAPE  C21519291   6.551   5.914   4.568  0.0185 -0.2603 -0.3760
  171SAPE  H15R19292   6.532   5.938   4.674  2.0475  0.8621 -0.2175
  171SAPE  C21619293   6.529   5.769   4.538 -0.2216  0.2760  0.4477
  171SAPE  H16R19294   6.619   5.737   4.482  0.0148  1.8735 -0.1388
  171SAPE  H16S19295   6.446   5.768   4.464  0.3590 -0.4147 -0.2120
  171SAPE  C21719296   6.507   5.677   4.655 -0.1611 -0.0176  0.1065
  171SAPE  H17R19297   6.485   5.573   4.622  0.8983 -0.6104  1.2029
  171SAPE  H17S19298   6.420   5.713   4.714 -0.8395 -0.5658 -0.5324
  171SAPE  C21819299   6.636   5.659   4.731 -0.0430 -0.1732 -0.5180
  171SAPE  H18R19300   6.687   5.754   4.757 -2.8502  1.4411 -0.4172
  171SAPE  H18S19301   6.712   5.612   4.665 -0.2843 -1.2112 -0.0722
  171SAPE  C21919302   6.610   5.578   4.859  0.4185  0.9153  0.3427
  171SAPE  H19R19303   6.609   5.470   4.832  1.3951  1.3208 -1.4692
  171SAPE  H19S19304   6.511   5.610   4.899  0.5981 -0.4109  1.9659
  171SAPE  C22019305   6.715   5.603   4.967  0.5922  0.5995  0.2316
  171SAPE  H20R19306   6.809   5.549   4.944  0.7004  0.8625  0.0513
  171SAPE  H20S19307   6.690   5.549   5.061  0.5991  0.4638  0.1564
  171SAPE  H20T19308   6.725   5.712   4.987 -0.4647  0.4541  1.7365
  171SAPE   C3319309   6.623   5.399   3.549  0.4207  0.3499  0.0921
  171SAPE   H3X19310   6.513   5.398   3.537  0.5330  1.8695 -1.5497
  171SAPE   H3Y19311   6.641   5.505   3.523  1.5421 -0.4167 -2.7195
  171SAPE   C3419312   6.659   5.367   3.698  0.3951 -0.2720  0.5576
  171SAPE   H4X19313   6.770   5.373   3.705  0.5454  1.0930 -2.0297
  171SAPE   H4Y19314   6.621   5.273   3.744 -3.0126  1.5061  1.7500
  171SAPE   C3519315   6.606   5.479   3.789 -0.3066 -0.4674 -0.5791
  171SAPE   H5X19316   6.508   5.510   3.747 -0.0988  0.4124 -0.4319
  171SAPE   H5Y19317   6.676   5.564   3.778 -0.2326 -0.0375  2.4343
  171SAPE   C3619318   6.587   5.435   3.937  0.2043  0.0652  0.1241
  171SAPE   H6X19319   6.669   5.369   3.971  0.6876  0.8691  0.5452
  171SAPE   H6Y19320   6.495   5.374   3.952  1.9305 -2.2116  1.9835
  171SAPE   C3719321   6.568   5.564   4.032  0.3439  0.4527 -1.1269
  171SAPE   H7X19322   6.514   5.647   3.982 -1.7558  0.8941  1.6032
  171SAPE   H7Y19323   6.661   5.610   4.073 -1.0747  0.9010  1.9448
  171SAPE   C3819324   6.489   5.539   4.168  0.0244  0.0229  0.0430
  171SAPE   H8X19325   6.387   5.516   4.131  0.3692 -1.6624  0.0614
  171SAPE   H8Y19326   6.477   5.638   4.217 -0.7033 -1.4484  3.0191
  171SAPE   C3919327   6.540   5.427   4.269  0.7958  0.0156 -0.3076
  171SAPE   H9X19328   6.528   5.328   4.219 -1.4712 -0.8709  1.7942
  171SAPE   H9Y19329   6.469   5.438   4.354 -0.0801 -0.9998 -0.8817
  171SAPE  C31019330   6.686   5.445   4.320  0.2183 -0.5953  0.7917
  171SAPE  H10X19331   6.701   5.546   4.364  1.7381  0.1272 -1.2594
  171SAPE  H10Y19332   6.758   5.436   4.236 -1.2804  0.1184 -0.6323
  171SAPE  C31119333   6.718   5.339   4.426  0.4299  0.7916 -0.1902
  171SAPE  H11X19334   6.697   5.235   4.392  1.4972  0.4748  0.0772
  171SAPE  H11Y19335   6.659   5.358   4.518 -0.0368  1.6175 -0.6524
  171SAPE  C31219336   6.867   5.336   4.452 -0.2836  0.0613 -0.0719
  171SAPE  H12X19337   6.912   5.438   4.460  2.1383 -0.9579  0.2521
  171SAPE  H12Y19338   6.924   5.286   4.371 -0.3915  1.5698 -1.1041
  171SAPE  C31319339   6.891   5.259   4.581  0.0085 -0.5960  0.7690
  171SAPE  H13X19340   6.844   5.159   4.570  2.1832 -1.5026 -0.8965
  171SAPE  H13Y19341   6.835   5.309   4.663  0.9175 -0.4526  1.3157
  171SAPE  C31419342   7.033   5.235   4.631 -0.6996 -0.5280  0.0731
  171SAPE  H14X19343   7.093   5.326   4.613 -2.3104  0.6242  0.3051
  171SAPE  H14Y19344   7.066   5.143   4.578 -0.1608 -0.6100  0.5387
  171SAPE  C31519345   7.044   5.207   4.787 -0.8897  0.1833  0.1358
  171SAPE  H15X19346   6.984   5.118   4.814 -0.1901 -0.3361  0.0160
  171SAPE  H15Y19347   7.001   5.305   4.819 -0.2131  0.4394  0.2843
  171SAPE  C31619348   7.190   5.196   4.820  0.2129 -0.6650 -0.2705
  171SAPE  H16X19349   7.261   5.279   4.800  0.0823 -0.8620 -1.7279
  171SAPE  H16Y19350   7.220   5.112   4.754 -0.3704  1.1724 -3.0777
  171SAPE  C31719351   7.210   5.140   4.957 -0.3783 -0.1434 -0.9174
  171SAPE  H17X19352   7.143   5.052   4.966  0.3214 -0.6108 -0.1673
  171SAPE  H17Y19353   7.164   5.214   5.026 -0.1472 -1.6580  0.9065
  171SAPE  C31819354   7.350   5.111   4.988  0.0497 -0.2754  0.0568
  171SAPE  H18X19355   7.402   5.052   4.911  0.7520  1.0128 -0.4805
  171SAPE  H18Y19356   7.363   5.047   5.078  0.6047 -0.0877  0.1102
  171SAPE  H18Z19357   7.408   5.206   4.989 -1.6171  0.7883  0.7198
  172SAPE     N19358   5.595   6.155   2.631 -0.6200  0.2012  0.6772
  172SAPE   HN119359   5.683   6.206   2.607 -0.3444 -0.3548  0.4796
  172SAPE   HN219360   5.587   6.072   2.568 -1.2197 -1.1765  2.4924
  172SAPE   HN319361   5.506   6.205   2.617 -0.4658 -0.1064 -1.9886
  172SAPE   C1219362   5.605   6.118   2.783 -0.2198  0.4989  0.0317
  172SAPE  H12A19363   5.540   6.028   2.792  0.6055 -0.0104  1.1284
  172SAPE  H12B19364   5.556   6.203   2.837  1.9767  2.4206 -0.8822
  172SAPE   C1119365   5.754   6.091   2.816 -0.3999 -1.2827 -0.0376
  172SAPE  H11A19366   5.799   6.023   2.740  0.0791 -0.3278 -0.6208
  172SAPE  H11B19367   5.760   6.042   2.916  1.9686  1.2278  1.1789
  172SAPE     P19368   5.908   6.276   2.699 -0.0945 -0.0849 -0.2331
  172SAPE   O1319369   6.040   6.199   2.691  0.2202  0.0555  0.2959
  172SAPE   O1419370   5.826   6.273   2.578  0.5349  0.0091  0.5925
  172SAPE   O1219371   5.830   6.217   2.820  0.0581 -0.0832  0.0165
  172SAPE   O1119372   5.934   6.428   2.749 -0.1853 -0.1564 -0.5205
  172SAPE    C119373   6.063   6.474   2.791 -0.2292  0.0648  0.7755
  172SAPE    HA19374   6.146   6.400   2.781  0.9513  1.5855 -1.4965
  172SAPE    HB19375   6.098   6.558   2.727  0.3754 -1.9655 -1.7384
  172SAPE    C219376   6.066   6.527   2.939 -0.0635 -0.2893  0.2063
  172SAPE    HS19377   6.165   6.557   2.979  0.0674  0.1888 -0.4742
  172SAPE   O2119378   6.021   6.417   3.025 -0.4791 -0.3767 -0.3297
  172SAPE   C2119379   6.102   6.309   3.043 -0.2600 -0.1198 -0.2473
  172SAPE   O2219380   6.206   6.292   2.987  0.3575 -0.2905 -0.4508
  172SAPE   C2219381   6.048   6.222   3.154  0.0013 -0.3475 -0.5584
  172SAPE   H2R19382   6.038   6.278   3.249 -0.1800 -1.0874 -0.1347
  172SAPE   H2S19383   5.944   6.194   3.124  0.2741  0.2531 -2.1705
  172SAPE    C319384   5.969   6.646   2.944 -0.4916 -0.4865  0.4367
  172SAPE    HX19385   5.875   6.588   2.942  1.6788 -4.3427 -0.7160
  172SAPE    HY19386   5.986   6.712   2.857  0.7714 -0.6002  0.5740
  172SAPE   O3119387   5.982   6.723   3.066  0.3218  0.1694  0.5641
  172SAPE   C3119388   5.891   6.813   3.074  0.2290  0.0514  0.5716
  172SAPE   O3219389   5.816   6.851   2.981 -0.3561 -0.1405 -0.2131
  172SAPE   C3219390   5.892   6.871   3.218 -0.0324  0.3108  0.6940
  172SAPE   H2X19391   5.850   6.974   3.216  0.6209  0.5764 -0.2835
  172SAPE   H2Y19392   5.997   6.864   3.252  0.0378 -1.4892  0.2041
  172SAPE   C2319393   6.115   6.087   3.179 -0.0640  0.4099  0.3649
  172SAPE   H3R19394   6.224   6.086   3.204 -0.0218  1.8303  0.3209
  172SAPE   H3S19395   6.115   6.038   3.080 -1.1318 -0.9906  1.0177
  172SAPE   C2419396   6.047   5.989   3.275 -0.8665  0.3615 -0.7379
  172SAPE   H4R19397   6.111   5.898   3.273  0.9515  1.4850  1.5784
  172SAPE   H4S19398   5.944   5.965   3.240 -1.7427 -0.8889  2.3455
  172SAPE   C2519399   6.039   6.049   3.412  0.4560 -0.2261  0.0745
  172SAPE   H5R19400   5.998   6.149   3.397  1.2560  0.1777  0.5159
  172SAPE   C2619401   6.070   6.002   3.535  0.0539  0.6243  0.6980
  172SAPE   H6R19402   6.075   6.072   3.620 -0.1198  1.4417  0.0547
  172SAPE   C2719403   6.139   5.866   3.551 -0.1387 -0.8113 -0.3588
  172SAPE   H7R19404   6.174   5.821   3.456  1.4093  1.6800 -1.0752
  172SAPE   H7S19405   6.073   5.798   3.608 -1.0199 -0.0756 -0.4732
  172SAPE   C2819406   6.260   5.876   3.633 -1.0589 -1.1676  0.4066
  172SAPE   H8R19407   6.333   5.945   3.590 -1.3739 -0.3354  1.1809
  172SAPE   C2919408   6.271   5.835   3.758  0.2044  0.0521  0.0631
  172SAPE   H9R19409   6.367   5.863   3.805  0.2789  0.2483 -0.1990
  172SAPE  C21019410   6.175   5.758   3.837 -0.3527  1.1540 -0.0216
  172SAPE  H10R19411   6.142   5.672   3.776  0.1577  1.6914 -1.0715
  172SAPE  H10S19412   6.086   5.824   3.853 -1.1349  0.5996 -1.8541
  172SAPE  C21119413   6.223   5.687   3.961 -0.1217  0.5450  0.4012
  172SAPE  H11R19414   6.285   5.597   3.944 -0.3332  0.4728 -0.0057
  172SAPE  C21219415   6.203   5.729   4.089 -0.5606 -0.2995  0.0799
  172SAPE  H12R19416   6.244   5.663   4.166  0.5424 -1.9119 -1.7848
  172SAPE  C21319417   6.127   5.854   4.129  0.1385 -0.2231  0.0751
  172SAPE  H13R19418   6.018   5.839   4.142 -0.1363 -0.3339 -1.9534
  172SAPE  H13S19419   6.137   5.926   4.045  0.6188 -0.2701  0.0876
  172SAPE  C21419420   6.183   5.908   4.262 -0.2058 -0.0137 -0.2348
  172SAPE  H14R19421   6.227   6.008   4.251  1.4615 -0.7496 -0.4622
  172SAPE  C21519422   6.161   5.866   4.382 -0.7994  1.4942 -0.3282
  172SAPE  H15R19423   6.200   5.925   4.467 -1.3760 -1.0932  1.8728
  172SAPE  C21619424   6.079   5.745   4.421  0.1953 -0.2869  0.4032
  172SAPE  H16R19425   6.086   5.662   4.348  2.0294  0.4765 -0.3466
  172SAPE  H16S19426   5.972   5.776   4.413 -0.1005 -1.7501 -2.0273
  172SAPE  C21719427   6.112   5.705   4.566 -0.2556  0.2809 -0.0087
  172SAPE  H17R19428   6.223   5.694   4.570 -0.3336 -1.0493 -0.8605
  172SAPE  H17S19429   6.066   5.606   4.587 -2.0708  0.9251 -0.7783
  172SAPE  C21819430   6.069   5.806   4.670 -0.2140 -0.3490 -0.1107
  172SAPE  H18R19431   5.959   5.822   4.675 -0.7059 -3.3303  0.2954
  172SAPE  H18S19432   6.119   5.905   4.657 -0.5752  0.2511  2.5025
  172SAPE  C21919433   6.096   5.761   4.818  0.3700 -0.8101 -0.2531
  172SAPE  H19R19434   6.202   5.733   4.837  0.2491 -1.2450 -0.2112
  172SAPE  H19S19435   6.028   5.680   4.853 -1.5061  0.7660 -0.0498
  172SAPE  C22019436   6.065   5.872   4.919 -0.6379 -0.3221  0.1723
  172SAPE  H20R19437   6.087   5.979   4.898 -0.6250 -0.0546  1.4681
  172SAPE  H20S19438   6.124   5.842   5.008 -0.5326  0.2174  0.2881
  172SAPE  H20T19439   5.955   5.864   4.936 -0.7684  2.0592  0.8104
  172SAPE   C3319440   5.807   6.789   3.316 -0.5622 -0.1181  0.0252
  172SAPE   H3X19441   5.828   6.829   3.418  2.4147 -3.6012  0.9737
  172SAPE   H3Y19442   5.839   6.683   3.319 -0.3901 -0.1571 -1.9401
  172SAPE   C3419443   5.659   6.779   3.305 -0.1079 -0.1872 -0.1708
  172SAPE   H4X19444   5.627   6.696   3.239 -2.2085  1.6293 -1.6121
  172SAPE   H4Y19445   5.605   6.865   3.259  0.5706 -0.7949 -2.2360
  172SAPE   C3519446   5.593   6.766   3.444  0.7393  0.2005 -0.1290
  172SAPE   H5X19447   5.612   6.855   3.507 -0.3978 -0.7341  1.6214
  172SAPE   H5Y19448   5.649   6.680   3.488  0.5752  1.1051  1.9624
  172SAPE   C3619449   5.433   6.746   3.433 -0.0651 -0.2058  0.1143
  172SAPE   H6X19450   5.408   6.655   3.373 -0.4638 -1.0444  1.4977
  172SAPE   H6Y19451   5.399   6.829   3.368  0.0853  0.6242  1.0746
  172SAPE   C3719452   5.351   6.755   3.564  0.0760  0.0565  0.5605
  172SAPE   H7X19453   5.247   6.786   3.539  0.6587  1.2248 -0.4823
  172SAPE   H7Y19454   5.399   6.838   3.619  2.1713 -0.4638 -0.3878
  172SAPE   C3819455   5.347   6.633   3.657 -0.4100 -0.0119  0.2278
  172SAPE   H8X19456   5.343   6.532   3.610  2.6795  0.1754 -0.6238
  172SAPE   H8Y19457   5.253   6.642   3.715 -0.4652  1.3644 -0.0423
  172SAPE   C3919458   5.474   6.626   3.744 -0.5538  0.5255 -0.0664
  172SAPE   H9X19459   5.483   6.723   3.799  0.9911 -0.7207  2.0338
  172SAPE   H9Y19460   5.560   6.603   3.678 -0.1062 -3.6523  1.6640
  172SAPE  C31019461   5.471   6.509   3.847 -0.0653 -0.4919 -0.1534
  172SAPE  H10X19462   5.551   6.528   3.921 -0.8716  0.7673  0.4327
  172SAPE  H10Y19463   5.492   6.411   3.800  1.2634 -0.1804 -0.2258
  172SAPE  C31119464   5.349   6.516   3.940 -0.4672  0.0266 -0.4307
  172SAPE  H11X19465   5.253   6.496   3.888  0.0246  2.5850 -2.5647
  172SAPE  H11Y19466   5.348   6.619   3.983  0.1657 -0.3661  0.5580
  172SAPE  C31219467   5.365   6.428   4.063 -0.0824  0.4325  0.2361
  172SAPE  H12X19468   5.454   6.456   4.124  0.0538 -0.9194  0.6816
  172SAPE  H12Y19469   5.366   6.323   4.027 -1.2038  0.9820 -1.5412
  172SAPE  C31319470   5.234   6.433   4.138  0.1302 -0.3027 -0.4542
  172SAPE  H13X19471   5.153   6.397   4.071 -0.4192 -1.3195  0.7135
  172SAPE  H13Y19472   5.222   6.539   4.170  0.5891  0.2299 -1.9515
  172SAPE  C31419473   5.223   6.320   4.247  0.4072 -0.3989  0.2028
  172SAPE  H14X19474   5.244   6.214   4.224 -1.8058 -1.1336  1.2871
  172SAPE  H14Y19475   5.120   6.315   4.288 -0.4865 -0.9000 -2.0014
  172SAPE  C31519476   5.312   6.357   4.367 -0.1588 -0.8774  0.5736
  172SAPE  H15X19477   5.411   6.388   4.327 -0.9378  1.6328  0.3908
  172SAPE  H15Y19478   5.324   6.269   4.434  1.4918 -0.9350  0.2517
  172SAPE  C31619479   5.264   6.484   4.442  0.1720 -0.6218  0.3942
  172SAPE  H16X19480   5.155   6.479   4.464  0.1906 -1.4766  0.3417
  172SAPE  H16Y19481   5.278   6.564   4.367 -0.9092 -2.1890 -1.6057
  172SAPE  C31719482   5.340   6.517   4.569 -0.6534 -0.4770 -0.3840
  172SAPE  H17X19483   5.318   6.624   4.588  2.8930  0.2617  0.2532
  172SAPE  H17Y19484   5.451   6.514   4.574 -0.6109 -0.2632 -1.1375
  172SAPE  C31819485   5.282   6.422   4.681 -0.0805 -0.3577  0.3605
  172SAPE  H18X19486   5.186   6.385   4.639  0.2850 -0.9571  0.0476
  172SAPE  H18Y19487   5.259   6.471   4.778  1.9629 -0.1108  0.7677
  172SAPE  H18Z19488   5.345   6.335   4.705 -0.2597 -0.1815  1.5419
  173SLPC     N19489   0.940   2.660   7.343  0.5428 -0.0644  0.1783
  173SLPC   C1319490   0.856   2.739   7.442 -0.5129 -0.2543 -0.2969
  173SLPC  H13A19491   0.788   2.667   7.484 -2.1571 -0.1483 -2.5458
  173SLPC  H13B19492   0.911   2.792   7.519 -1.2523 -0.8007  0.6230
  173SLPC  H13C19493   0.805   2.819   7.389  2.8546  1.8094 -0.7141
  173SLPC   C1419494   0.837   2.606   7.243  0.2684  0.4241 -0.5026
  173SLPC  H14A19495   0.774   2.531   7.287 -0.4420  1.4891  0.3390
  173SLPC  H14B19496   0.778   2.679   7.189  2.0667  1.5529 -1.0529
  173SLPC  H14C19497   0.891   2.553   7.166  2.1070  1.0311  0.3155
  173SLPC   C1519498   1.014   2.545   7.403  0.2949  0.5502 -0.0699
  173SLPC  H15A19499   1.085   2.569   7.481 -1.8483  0.1400  2.1355
  173SLPC  H15B19500   0.949   2.471   7.449  3.8591 -3.4907 -0.9302
  173SLPC  H15C19501   1.074   2.493   7.331 -0.1993 -1.3168  0.7829
  173SLPC   C1219502   1.041   2.756   7.275  0.2280  0.0267 -0.4627
  173SLPC  H12A19503   1.102   2.690   7.215 -3.2398 -2.5760 -1.4364
  173SLPC  H12B19504   1.108   2.784   7.355  2.4604 -4.0928 -0.6402
  173SLPC   C1119505   0.978   2.879   7.201 -0.0892 -0.0605 -0.4452
  173SLPC  H11A19506   1.067   2.934   7.164  1.9481 -1.3119  2.2369
  173SLPC  H11B19507   0.929   2.949   7.272  0.0594  1.2876 -1.6281
  173SLPC     P19508   0.913   2.848   6.945  0.2422 -0.2078 -0.1069
  173SLPC   O1319509   0.882   2.711   6.887 -0.6318  0.4576 -0.1395
  173SLPC   O1419510   0.838   2.961   6.889 -0.0593 -0.3438 -0.1379
  173SLPC   O1219511   0.879   2.847   7.103  0.3112 -0.4863 -0.0757
  173SLPC   O1119512   1.066   2.884   6.943 -0.4649  0.8442  0.0573
  173SLPC    C119513   1.168   2.789   6.905 -0.0435 -0.3238  0.1798
  173SLPC    HA19514   1.256   2.803   6.972  0.3328  1.8337 -0.6750
  173SLPC    HB19515   1.137   2.684   6.926  1.2018 -0.8497 -0.4769
  173SLPC    C219516   1.217   2.803   6.756 -0.3948 -0.2879  0.6977
  173SLPC    HS19517   1.308   2.742   6.737 -1.2847 -1.8630  1.2199
  173SLPC   O2119518   1.237   2.946   6.730 -0.7401  0.0132 -0.2533
  173SLPC   C2119519   1.355   2.999   6.772 -0.5522  0.4165  0.5084
  173SLPC   O2219520   1.452   2.930   6.810 -0.2830 -1.0981 -0.2232
  173SLPC   C2219521   1.358   3.145   6.743  0.6527  0.8383 -1.1692
  173SLPC   H2R19522   1.255   3.183   6.726  0.9456  2.0411 -0.3511
  173SLPC   H2S19523   1.407   3.195   6.829 -0.8259  0.7307 -0.2274
  173SLPC    C319524   1.123   2.738   6.646 -0.1314  0.3614  0.5505
  173SLPC    HX19525   1.025   2.790   6.650  0.9623  2.4432  1.8317
  173SLPC    HY19526   1.097   2.633   6.668  0.1141  0.6525  2.3598
  173SLPC   O3119527   1.193   2.734   6.518  0.2816  0.4027 -0.2719
  173SLPC   C3119528   1.112   2.746   6.410 -0.4558 -0.3226 -0.6639
  173SLPC   O3219529   0.991   2.770   6.416  0.3086  0.6859 -1.0999
  173SLPC   C3219530   1.198   2.740   6.293 -0.0711  0.0034 -0.5187
  173SLPC   H2X19531   1.163   2.658   6.226 -0.8576 -0.8386  0.8914
  173SLPC   H2Y19532   1.304   2.721   6.322  0.3908 -0.1732 -2.2125
  173SLPC   C2319533   1.439   3.171   6.611 -0.7060 -0.5096 -0.2864
  173SLPC   H3R19534   1.527   3.105   6.619 -1.0232 -0.7471  1.7883
  173SLPC   H3S19535   1.473   3.277   6.613 -0.5197 -0.5179 -1.8349
  173SLPC   C2419536   1.353   3.134   6.492  0.4424  0.4370 -0.4441
  173SLPC   H4R19537   1.254   3.184   6.502 -0.2134 -0.7893 -0.5230
  173SLPC   H4S19538   1.337   3.024   6.492 -3.2089  0.8268 -1.1783
  173SLPC   C2519539   1.408   3.175   6.356  0.2397 -0.5683  0.7153
  173SLPC   H5R19540   1.440   3.281   6.357  0.0253 -0.4839  2.9899
  173SLPC   H5S19541   1.316   3.162   6.294  1.3919 -1.8625 -0.8199
  173SLPC   C2619542   1.519   3.087   6.302  0.2188 -0.1118  0.3842
  173SLPC   H6R19543   1.499   2.979   6.317 -0.2429 -0.0581  0.1795
  173SLPC   H6S19544   1.611   3.113   6.358  1.1314 -0.2061 -1.0184
  173SLPC   C2719545   1.542   3.109   6.157  0.2070 -0.1055  0.2975
  173SLPC   H7R19546   1.576   3.210   6.127  2.1180 -1.4121 -2.3262
  173SLPC   H7S19547   1.446   3.089   6.106 -0.5390 -0.9495  1.9236
  173SLPC   C2819548   1.652   3.002   6.113  0.4089 -0.0810 -0.5746
  173SLPC   H8R19549   1.609   2.902   6.135  2.6080 -0.2874  3.9151
  173SLPC   H8S19550   1.730   3.019   6.190 -0.7171 -1.9058  1.0476
  173SLPC   C2919551   1.699   3.024   5.976  0.7897  0.6427 -0.1731
  173SLPC   H9R19552   1.677   3.127   5.946 -1.4320  1.0528  2.4152
  173SLPC  C21019553   1.759   2.935   5.893 -0.3729 -0.1674 -0.0807
  173SLPC  H10R19554   1.796   2.972   5.797  1.0857  3.5463  1.7297
  173SLPC  C21119555   1.784   2.789   5.919  0.7575 -0.0394  0.5009
  173SLPC  H11R19556   1.736   2.766   6.017 -1.7893  0.7618 -0.4774
  173SLPC  H11S19557   1.890   2.767   5.946  1.0003  0.2518 -0.1996
  173SLPC  C21219558   1.744   2.689   5.820  0.1073 -0.5470 -0.3024
  173SLPC  H12R19559   1.822   2.653   5.750 -1.1316 -0.8981 -1.5561
  173SLPC  C21319560   1.619   2.641   5.797  0.1536  0.3568  0.1081
  173SLPC  H13R19561   1.602   2.568   5.715 -0.4775  1.1734 -0.5087
  173SLPC  C21419562   1.503   2.681   5.881 -0.0999  0.3855  0.1586
  173SLPC  H14R19563   1.434   2.729   5.807  1.0164 -1.9759 -2.5990
  173SLPC  H14S19564   1.524   2.758   5.958 -1.9061 -0.5513  1.6664
  173SLPC  C21519565   1.431   2.552   5.939  0.4366  1.0148  0.7068
  173SLPC  H15R19566   1.421   2.476   5.858  0.7045  0.5695  1.0916
  173SLPC  H15S19567   1.326   2.579   5.964 -0.0714  0.2001 -0.4630
  173SLPC  C21619568   1.488   2.511   6.078  0.2842 -0.0427 -0.3968
  173SLPC  H16R19569   1.484   2.605   6.136 -0.2007 -0.0484 -0.4179
  173SLPC  H16S19570   1.593   2.482   6.058  0.8701  0.7421  1.3395
  173SLPC  C21719571   1.408   2.407   6.155  0.0654 -0.4256  0.4626
  173SLPC  H17R19572   1.315   2.452   6.194 -0.1185 -0.5566  0.1756
  173SLPC  H17S19573   1.462   2.372   6.247  1.7716 -2.0346 -1.0572
  173SLPC  C21819574   1.371   2.288   6.072  0.8593  0.2877 -0.9519
  173SLPC  H18R19575   1.303   2.311   5.987  0.3790 -2.7876 -1.5385
  173SLPC  H18S19576   1.319   2.205   6.126  1.8792 -1.1125 -2.0278
  173SLPC  H18T19577   1.458   2.230   6.034  1.0997 -0.1458  0.2192
  173SLPC   C3319578   1.186   2.874   6.211 -0.4700  0.0949  0.2365
  173SLPC   H3X19579   1.247   2.958   6.253  1.5941 -0.3906 -1.6185
  173SLPC   H3Y19580   1.082   2.909   6.197 -0.4405 -0.9227 -3.4233
  173SLPC   C3419581   1.240   2.864   6.066 -0.1221  0.5154  0.3011
  173SLPC   H4X19582   1.203   2.773   6.016  1.8188 -0.1016 -0.0853
  173SLPC   H4Y19583   1.350   2.849   6.069  0.0291  1.2855 -0.8204
  173SLPC   C3519584   1.213   2.996   5.993 -0.6884  0.1691  0.4812
  173SLPC   H5X19585   1.244   3.090   6.044  0.6175  0.3763 -0.6426
  173SLPC   H5Y19586   1.104   3.008   5.982 -0.4486  1.1486 -1.1530
  173SLPC   C3619587   1.288   2.987   5.854  0.1189 -0.4263 -0.0680
  173SLPC   H6X19588   1.270   2.895   5.796  2.8392 -0.0707 -1.6363
  173SLPC   H6Y19589   1.397   2.975   5.867  0.3654  0.3944 -1.2425
  173SLPC   C3719590   1.262   3.114   5.772 -0.8027  0.0189  0.7310
  173SLPC   H7X19591   1.299   3.204   5.826  3.7050 -0.8014 -0.5505
  173SLPC   H7Y19592   1.153   3.123   5.751 -0.8090 -0.6608  0.4545
  173SLPC   C3819593   1.341   3.097   5.640 -0.0150  0.0132  0.1876
  173SLPC   H8X19594   1.296   3.172   5.572 -0.9058 -0.0315  0.7086
  173SLPC   H8Y19595   1.310   2.996   5.606  0.1000  0.9080 -2.9109
  173SLPC   C3919596   1.491   3.121   5.632  0.0850  0.1551  0.0364
  173SLPC   H9X19597   1.530   3.101   5.530 -2.1323  1.3189 -1.0994
  173SLPC   H9Y19598   1.549   3.058   5.703  0.4122 -1.3614 -1.5184
  173SLPC  C31019599   1.530   3.273   5.653  0.1264  0.8239  0.2413
  173SLPC  H10X19600   1.507   3.304   5.757  0.5799  1.6717  0.1019
  173SLPC  H10Y19601   1.459   3.333   5.592 -0.5367 -1.3696 -1.2506
  173SLPC  C31119602   1.681   3.291   5.635  0.5116  0.1763 -0.8245
  173SLPC  H11X19603   1.710   3.252   5.535  0.8686 -1.0704 -0.2494
  173SLPC  H11Y19604   1.733   3.231   5.712  1.5942 -1.0198 -2.4314
  173SLPC  C31219605   1.726   3.435   5.641  0.7717  0.3855 -0.7742
  173SLPC  H12X19606   1.685   3.471   5.738  0.8275 -2.0521  0.2127
  173SLPC  H12Y19607   1.671   3.486   5.559 -2.4514 -2.6822 -0.7654
  173SLPC  C31319608   1.876   3.468   5.656  0.4675  0.4145  0.4526
  173SLPC  H13X19609   1.891   3.578   5.659 -0.4328  0.5455  0.3786
  173SLPC  H13Y19610   1.933   3.420   5.574 -1.5242 -0.9892 -0.1786
  173SLPC  C31419611   1.940   3.405   5.784  0.3290  0.1352 -0.6521
  173SLPC  H14X19612   2.045   3.439   5.787 -0.3165  2.2364  0.0807
  173SLPC  H14Y19613   1.955   3.296   5.769  1.5304  0.1842  0.0225
  173SLPC  C31519614   1.867   3.428   5.918  0.4447 -0.0908  0.0045
  173SLPC  H15X19615   1.774   3.370   5.901  1.2537 -1.3272 -0.3574
  173SLPC  H15Y19616   1.826   3.528   5.946  0.2519 -0.1330 -0.1264
  173SLPC  C31619617   1.936   3.369   6.038 -0.6695 -0.2516 -0.0220
  173SLPC  H16X19618   2.039   3.406   6.054  0.4210 -2.4601 -1.4368
  173SLPC  H16Y19619   1.960   3.264   6.012  2.3666  0.2019  0.5596
  173SLPC  C31719620   1.857   3.374   6.169  0.2661 -0.7658 -0.3880
  173SLPC  H17X19621   1.772   3.307   6.146  0.1473  0.1703 -2.9641
  173SLPC  H17Y19622   1.809   3.470   6.196  1.1149 -0.1792 -0.9003
  173SLPC  C31819623   1.935   3.330   6.290 -0.1921 -0.7758 -0.1422
  173SLPC  H18X19624   2.003   3.409   6.326 -2.1894  0.3966  1.2247
  173SLPC  H18Y19625   1.999   3.244   6.262 -2.6725 -2.2144 -1.8436
  173SLPC  H18Z19626   1.875   3.301   6.379 -0.9699  0.5966 -0.1983
  174SLPC     N19627   4.240   2.352   7.324 -0.4508 -0.0045  0.1102
  174SLPC   C1319628   4.238   2.501   7.315  0.0884  0.1761  0.0069
  174SLPC  H13A19629   4.143   2.538   7.279  0.1986 -0.0035 -0.4682
  174SLPC  H13B19630   4.245   2.534   7.418 -0.6073 -1.0112  0.4547
  174SLPC  H13C19631   4.323   2.531   7.256  0.0614 -0.2416 -0.2442
  174SLPC   C1419632   4.133   2.310   7.415  0.5066  0.9317 -0.0762
  174SLPC  H14A19633   4.039   2.356   7.385  0.8226  1.4337 -0.3215
  174SLPC  H14B19634   4.123   2.203   7.421 -2.7341  1.2169  2.6580
  174SLPC  H14C19635   4.151   2.350   7.514 -2.6075 -0.3333  1.1267
  174SLPC   C1519636   4.368   2.302   7.391 -0.0366 -0.0471 -0.0952
  174SLPC  H15A19637   4.352   2.199   7.422 -0.8921 -0.2866 -1.2701
  174SLPC  H15B19638   4.442   2.293   7.313 -0.5399 -0.2168 -0.5577
  174SLPC  H15C19639   4.413   2.370   7.462 -0.7967  1.9386 -1.4452
  174SLPC   C1219640   4.209   2.290   7.191 -0.7795 -0.1466  0.4860
  174SLPC  H12A19641   4.115   2.338   7.169 -0.4339  0.5179  0.4162
  174SLPC  H12B19642   4.206   2.182   7.187  0.3248 -0.2065  0.9111
  174SLPC   C1119643   4.301   2.335   7.071  0.2727  0.7995  0.0594
  174SLPC  H11A19644   4.288   2.260   6.990  0.2896 -0.0793  0.8525
  174SLPC  H11B19645   4.406   2.327   7.106 -0.2783 -0.7409  1.5019
  174SLPC     P19646   4.137   2.495   6.949  0.3064  0.1672 -0.1739
  174SLPC   O1319647   4.033   2.441   7.034  0.2439  0.9971  0.8200
  174SLPC   O1419648   4.130   2.638   6.941 -0.5826  0.0939  0.1373
  174SLPC   O1219649   4.274   2.465   7.025 -0.6829 -0.3307  0.0995
  174SLPC   O1119650   4.151   2.424   6.818 -0.1220  0.3407  1.0018
  174SLPC    C119651   4.233   2.466   6.709 -0.1038 -0.1931 -0.3869
  174SLPC    HA19652   4.340   2.456   6.739 -0.1843 -0.1237 -0.0716
  174SLPC    HB19653   4.219   2.388   6.631 -1.1483  0.2056 -0.5999
  174SLPC    C219654   4.201   2.596   6.644  0.2890  0.0481  0.1875
  174SLPC    HS19655   4.234   2.676   6.714 -0.0146 -0.3845  0.8366
  174SLPC   O2119656   4.057   2.604   6.613 -0.2260 -0.3226  0.1851
  174SLPC   C2119657   4.016   2.715   6.557  1.0503 -0.4512  0.2829
  174SLPC   O2219658   4.080   2.820   6.548  0.3868  0.0941 -0.0744
  174SLPC   C2219659   3.862   2.711   6.536  0.1401 -0.5244 -0.4928
  174SLPC   H2R19660   3.842   2.626   6.467  1.0459 -2.1565  1.1705
  174SLPC   H2S19661   3.821   2.677   6.634 -2.7893  2.5458 -0.4729
  174SLPC    C319662   4.294   2.611   6.517 -0.2772 -0.0389  0.3253
  174SLPC    HX19663   4.394   2.586   6.558 -0.0216  1.0776  0.3962
  174SLPC    HY19664   4.293   2.718   6.487 -2.8173  0.3119  1.3579
  174SLPC   O3119665   4.263   2.507   6.419 -0.2402  0.1782  1.0975
  174SLPC   C3119666   4.353   2.505   6.321 -0.8486  0.3791  0.8570
  174SLPC   O3219667   4.460   2.565   6.317  0.2722 -0.3548  0.2914
  174SLPC   C3219668   4.305   2.405   6.207 -0.2041 -0.0648 -0.2243
  174SLPC   H2X19669   4.202   2.377   6.238  0.5378 -0.4044  2.1814
  174SLPC   H2Y19670   4.366   2.313   6.216 -1.9478 -1.1597  1.0372
  174SLPC   C2319671   3.798   2.841   6.486 -0.2133 -0.1816 -0.4211
  174SLPC   H3R19672   3.827   2.864   6.381  2.4979  1.1254  0.5522
  174SLPC   H3S19673   3.830   2.923   6.553 -1.3374 -1.9712  2.4675
  174SLPC   C2419674   3.644   2.839   6.490 -0.3173 -0.2317  0.0682
  174SLPC   H4R19675   3.612   2.936   6.444  3.7952  0.4591 -1.8162
  174SLPC   H4S19676   3.602   2.841   6.592  2.9605  0.1582  1.5434
  174SLPC   C2519677   3.589   2.725   6.400 -0.2246 -0.5128 -0.3294
  174SLPC   H5R19678   3.636   2.628   6.427 -0.5085 -0.0224  2.2155
  174SLPC   H5S19679   3.622   2.754   6.298 -0.2430 -1.4909 -0.6197
  174SLPC   C2619680   3.440   2.714   6.410  0.2118  0.3953 -0.3758
  174SLPC   H6R19681   3.417   2.676   6.512  0.5774  0.3667 -0.3026
  174SLPC   H6S19682   3.402   2.637   6.339 -0.9374  1.3009 -0.7723
  174SLPC   C2719683   3.362   2.850   6.398  0.2806  0.3311 -0.2946
  174SLPC   H7R19684   3.406   2.923   6.469 -0.1416  1.6520 -1.3460
  174SLPC   H7S19685   3.262   2.833   6.442 -0.8623  1.9904 -2.0535
  174SLPC   C2819686   3.342   2.912   6.262  0.1083 -0.6394 -0.1981
  174SLPC   H8R19687   3.433   2.966   6.229 -1.1155  1.3806 -0.4626
  174SLPC   H8S19688   3.265   2.992   6.276 -0.9343 -1.6818  0.1642
  174SLPC   C2919689   3.292   2.826   6.152  0.2910  0.0415 -0.1049
  174SLPC   H9R19690   3.191   2.794   6.180 -0.1171  0.6491 -0.8284
  174SLPC  C21019691   3.357   2.789   6.041  0.1844  0.2775 -0.1163
  174SLPC  H10R19692   3.302   2.724   5.971 -0.8785  0.7935  0.2181
  174SLPC  C21119693   3.502   2.820   5.999 -0.4832 -0.3170  0.2409
  174SLPC  H11R19694   3.572   2.764   6.064  1.8579  2.0664 -0.0339
  174SLPC  H11S19695   3.526   2.925   6.029  0.2787 -0.2442 -0.5865
  174SLPC  C21219696   3.545   2.807   5.850  0.1588 -0.4330  0.2966
  174SLPC  H12R19697   3.555   2.701   5.820 -0.1062 -1.3095  3.0170
  174SLPC  C21319698   3.571   2.904   5.759  0.0103  0.1192  0.2770
  174SLPC  H13R19699   3.568   2.862   5.657 -1.9979  1.5508 -0.2934
  174SLPC  C21419700   3.550   3.057   5.766 -0.3989  0.0656  0.7490
  174SLPC  H14R19701   3.645   3.099   5.725  1.3471 -2.3484  2.0699
  174SLPC  H14S19702   3.554   3.094   5.871  0.8349  0.4232  0.5944
  174SLPC  C21519703   3.428   3.092   5.679  0.1250 -1.0257 -0.5286
  174SLPC  H15R19704   3.432   3.035   5.584 -1.3091 -3.3986  0.7318
  174SLPC  H15S19705   3.435   3.203   5.668  0.5507 -0.8163  1.4320
  174SLPC  C21619706   3.297   3.058   5.753  0.2916  0.2334 -0.5635
  174SLPC  H16R19707   3.292   2.959   5.802 -3.9805  0.6406  0.2040
  174SLPC  H16S19708   3.225   3.053   5.669  1.1046  0.5183 -1.2956
  174SLPC  C21719709   3.253   3.172   5.854  0.1751 -0.0862 -0.4982
  174SLPC  H17R19710   3.240   3.270   5.805  0.8715  0.6629  0.7746
  174SLPC  H17S19711   3.328   3.176   5.936 -0.6537  1.8279  0.2307
  174SLPC  C21819712   3.119   3.150   5.930  0.4597 -0.2631 -0.1189
  174SLPC  H18R19713   3.037   3.160   5.855  1.3477 -1.5353 -1.3060
  174SLPC  H18S19714   3.101   3.226   6.008 -2.6094 -2.4262  1.4900
  174SLPC  H18T19715   3.115   3.046   5.970 -0.3996 -0.4423 -0.6335
  174SLPC   C3319716   4.300   2.468   6.064  0.6224 -0.0550  0.1640
  174SLPC   H3X19717   4.397   2.443   6.017  0.0484 -1.0270 -0.5568
  174SLPC   H3Y19718   4.285   2.578   6.060  2.9184  0.2820 -0.7420
  174SLPC   C3419719   4.189   2.408   5.983  0.8548 -0.3434 -0.1061
  174SLPC   H4X19720   4.082   2.430   6.006  0.5707 -1.6484 -0.1321
  174SLPC   H4Y19721   4.211   2.300   5.992  0.6688 -0.3176  0.8113
  174SLPC   C3519722   4.212   2.435   5.835 -0.5632 -0.2733  0.3184
  174SLPC   H5X19723   4.315   2.421   5.795  0.4513  1.7824  1.9802
  174SLPC   H5Y19724   4.216   2.546   5.827  1.2526 -0.3481 -0.3881
  174SLPC   C3619725   4.118   2.370   5.736 -0.1216  0.7900 -0.1345
  174SLPC   H6X19726   4.019   2.414   5.762 -0.4408  0.3782 -0.6305
  174SLPC   H6Y19727   4.107   2.261   5.759 -0.2319  0.7903 -0.1827
  174SLPC   C3719728   4.157   2.385   5.590 -0.0554  0.1541  0.0305
  174SLPC   H7X19729   4.252   2.336   5.558 -0.7675 -1.1934 -0.0957
  174SLPC   H7Y19730   4.180   2.488   5.557  0.1666  0.3085  0.6468
  174SLPC   C3819731   4.047   2.329   5.500  0.1843  0.1174 -0.4392
  174SLPC   H8X19732   3.944   2.369   5.512 -0.5086 -0.2640 -3.9447
  174SLPC   H8Y19733   4.040   2.218   5.506 -0.2176  0.1899  0.7964
  174SLPC   C3919734   4.080   2.365   5.351  0.0107 -0.1317  0.5367
  174SLPC   H9X19735   4.111   2.470   5.334  0.3973 -0.6556 -2.6026
  174SLPC   H9Y19736   3.994   2.328   5.291  0.3943 -0.1785  0.0091
  174SLPC  C31019737   4.197   2.280   5.287 -0.0127  0.3399 -0.4422
  174SLPC  H10X19738   4.190   2.177   5.328  0.0606  1.2085  1.8909
  174SLPC  H10Y19739   4.291   2.322   5.330  0.3842 -1.8876  0.9758
  174SLPC  C31119740   4.190   2.310   5.139 -0.2071  0.1502  0.1639
  174SLPC  H11X19741   4.165   2.418   5.136  0.7661  0.3874 -2.6457
  174SLPC  H11Y19742   4.110   2.252   5.088  1.1980 -1.8991  0.1829
  174SLPC  C31219743   4.321   2.288   5.053 -0.6035  0.5235 -0.0990
  174SLPC  H12X19744   4.410   2.299   5.118  0.8424  1.7181 -2.1459
  174SLPC  H12Y19745   4.324   2.354   4.963  0.0947 -1.5384 -1.6559
  174SLPC  C31319746   4.331   2.146   5.009  0.2340 -0.3447 -0.4263
  174SLPC  H13X19747   4.233   2.126   4.961 -0.3176 -1.1772  0.9892
  174SLPC  H13Y19748   4.355   2.067   5.083  0.4472 -0.5003 -0.6642
  174SLPC  C31419749   4.443   2.129   4.904  0.2160  0.1652 -0.0867
  174SLPC  H14X19750   4.541   2.153   4.948 -0.2258  0.1570  0.9279
  174SLPC  H14Y19751   4.431   2.204   4.822  0.5078 -0.4827 -0.7358
  174SLPC  C31519752   4.438   1.992   4.837  0.6793  0.5909  1.0923
  174SLPC  H15X19753   4.344   1.966   4.782  2.1857 -1.1809 -0.8138
  174SLPC  H15Y19754   4.457   1.911   4.911  1.3763 -1.2556 -0.9953
  174SLPC  C31619755   4.562   1.968   4.733 -0.5311  0.4190  0.4247
  174SLPC  H16X19756   4.546   1.866   4.692  0.7891 -0.0721  1.1039
  174SLPC  H16Y19757   4.657   1.961   4.789  0.3926 -0.1472 -1.1467
  174SLPC  C31719758   4.569   2.067   4.610  0.2805  0.7010 -0.5430
  174SLPC  H17X19759   4.666   2.048   4.560  2.0632 -0.4206  2.9636
  174SLPC  H17Y19760   4.584   2.167   4.655  0.3608  0.7859 -0.7579
  174SLPC  C31819761   4.439   2.070   4.524  0.5844  0.0424 -0.5431
  174SLPC  H18X19762   4.421   1.964   4.496  1.1728 -0.9772  2.5570
  174SLPC  H18Y19763   4.455   2.129   4.431 -0.2721  0.3923 -0.4798
  174SLPC  H18Z19764   4.347   2.111   4.571 -0.3677 -1.4929 -0.9985
  175SLPC     N19765   0.607   0.421   7.167 -0.0655 -0.9632 -0.5243
  175SLPC   C1319766   0.603   0.432   7.315 -0.0498  0.2234  0.3793
  175SLPC  H13A19767   0.592   0.334   7.359 -0.1771 -2.1198 -4.2563
  175SLPC  H13B19768   0.696   0.470   7.355  0.6816  0.6413 -1.5678
  175SLPC  H13C19769   0.528   0.500   7.352  1.2114 -0.3163  4.3485
  175SLPC   C1419770   0.487   0.342   7.125 -0.5309 -0.1333  0.0762
  175SLPC  H14A19771   0.392   0.390   7.145  0.1224  0.6543  1.3751
  175SLPC  H14B19772   0.489   0.323   7.019 -1.3363  1.6820 -0.2984
  175SLPC  H14C19773   0.470   0.253   7.185 -1.8077 -0.2512 -0.4117
  175SLPC   C1519774   0.730   0.344   7.133  0.6346  0.5622 -0.5158
  175SLPC  H15A19775   0.725   0.244   7.174 -0.4713  0.4170 -0.9772
  175SLPC  H15B19776   0.729   0.335   7.025  0.9744  0.6884 -0.5324
  175SLPC  H15C19777   0.813   0.408   7.158 -0.5998  1.7493  0.7534
  175SLPC   C1219778   0.604   0.554   7.093  0.0293 -0.8575 -0.3439
  175SLPC  H12A19779   0.502   0.588   7.093  0.3691  0.2080  0.2665
  175SLPC  H12B19780   0.639   0.544   6.991  0.3595 -2.3233 -0.1128
  175SLPC   C1119781   0.682   0.675   7.153 -0.0774  0.0822 -0.0629
  175SLPC  H11A19782   0.681   0.671   7.264  2.9701  1.7099  0.1430
  175SLPC  H11B19783   0.632   0.771   7.129  1.5833  1.0716  0.2117
  175SLPC     P19784   0.859   0.739   6.976  0.2441  0.2196 -0.3900
  175SLPC   O1319785   0.805   0.877   6.969  0.2413  0.5806  0.3730
  175SLPC   O1419786   1.005   0.737   6.966 -0.5553 -0.1448  0.0668
  175SLPC   O1219787   0.816   0.661   7.110  0.6053 -0.4052  0.7211
  175SLPC   O1119788   0.802   0.658   6.858  0.0603 -0.5278  0.2700
  175SLPC    C119789   0.860   0.529   6.819  1.0474 -0.0014  0.1967
  175SLPC    HA19790   0.961   0.513   6.863  1.4617  0.4857 -0.5516
  175SLPC    HB19791   0.795   0.448   6.859 -0.5871  0.4879 -1.3354
  175SLPC    C219792   0.879   0.527   6.668  0.9929  0.3085 -0.4727
  175SLPC    HS19793   0.954   0.604   6.641  0.2571  0.0087 -3.7638
  175SLPC   O2119794   0.743   0.551   6.615  0.2219 -0.4995 -0.2261
  175SLPC   C2119795   0.750   0.624   6.507  0.3249 -0.3836 -0.1481
  175SLPC   O2219796   0.853   0.661   6.457 -0.6294 -0.1750  0.2340
  175SLPC   C2219797   0.611   0.673   6.458  0.0657  0.3690 -0.1321
  175SLPC   H2R19798   0.568   0.740   6.535 -0.3561  0.6942 -0.6403
  175SLPC   H2S19799   0.623   0.737   6.367 -2.4424  3.0882  1.2715
  175SLPC    C319800   0.929   0.383   6.616 -0.5316 -0.1267 -0.5814
  175SLPC    HX19801   0.860   0.297   6.625 -0.1239 -0.3605  0.4814
  175SLPC    HY19802   1.015   0.356   6.680 -1.4860 -0.5045  0.5722
  175SLPC   O3119803   0.973   0.388   6.474  0.4757  0.4729 -0.2586
  175SLPC   C3119804   1.087   0.443   6.452 -0.9928  0.2311  0.9171
  175SLPC   O3219805   1.172   0.479   6.529  0.2632 -0.4555 -0.1429
  175SLPC   C3219806   1.092   0.445   6.295 -0.9083 -0.3129  0.0102
  175SLPC   H2X19807   1.006   0.510   6.268  0.8742  1.7293 -1.0884
  175SLPC   H2Y19808   1.086   0.342   6.255 -2.4375  0.1041 -0.9395
  175SLPC   C2319809   0.507   0.555   6.437  0.0037  0.4440 -0.1214
  175SLPC   H3R19810   0.406   0.601   6.428  0.2225  0.7631 -1.1260
  175SLPC   H3S19811   0.501   0.494   6.529 -1.3225  0.9623  0.1532
  175SLPC   C2419812   0.510   0.479   6.305  0.4457 -0.4017  0.4443
  175SLPC   H4R19813   0.476   0.548   6.225 -1.4853 -0.7932  0.8804
  175SLPC   H4S19814   0.442   0.391   6.307 -0.7798  0.5390  1.3059
  175SLPC   C2519815   0.645   0.434   6.249 -0.4442  0.0113 -0.4896
  175SLPC   H5R19816   0.659   0.340   6.306  2.4061  0.4230 -0.3314
  175SLPC   H5S19817   0.730   0.504   6.263 -1.7306  1.3824  0.8091
  175SLPC   C2619818   0.626   0.387   6.105 -0.0410 -0.1509 -0.0653
  175SLPC   H6R19819   0.579   0.478   6.061  0.8536 -0.4970 -1.8656
  175SLPC   H6S19820   0.556   0.303   6.090  2.2315 -2.4233  1.3488
  175SLPC   C2719821   0.751   0.344   6.018 -0.2781  0.1685 -0.0730
  175SLPC   H7R19822   0.786   0.250   6.067 -0.7021  0.1397  0.1819
  175SLPC   H7S19823   0.839   0.412   6.016 -1.2007  1.5025  1.5912
  175SLPC   C2819824   0.713   0.319   5.864 -0.0910 -0.0522 -0.4129
  175SLPC   H8R19825   0.618   0.261   5.861 -0.2139  0.1787 -1.9612
  175SLPC   H8S19826   0.786   0.249   5.817  0.1061  1.6853 -2.8975
  175SLPC   C2919827   0.692   0.445   5.779  0.4273  0.3541 -0.6631
  175SLPC   H9R19828   0.707   0.543   5.826 -0.9226 -0.3637  1.3814
  175SLPC  C21019829   0.631   0.447   5.661 -0.5942 -0.2097  0.6015
  175SLPC  H10R19830   0.632   0.541   5.604 -2.7216 -0.3198  0.2842
  175SLPC  C21119831   0.584   0.329   5.570  0.3236 -1.1840  0.2163
  175SLPC  H11R19832   0.478   0.351   5.544  0.3883  2.5235  2.3332
  175SLPC  H11S19833   0.580   0.240   5.636  0.2536 -1.7492 -0.5457
  175SLPC  C21219834   0.687   0.305   5.463 -0.1956  0.1317 -0.3764
  175SLPC  H12R19835   0.781   0.267   5.505 -0.9099 -0.1228  1.0598
  175SLPC  C21319836   0.683   0.335   5.336 -0.0928  0.2801  0.1902
  175SLPC  H13R19837   0.772   0.312   5.275  0.4401  2.4425  0.0790
  175SLPC  C21419838   0.568   0.394   5.259  0.5462 -0.1834 -0.3517
  175SLPC  H14R19839   0.609   0.464   5.183 -2.6843  0.7389 -1.3972
  175SLPC  H14S19840   0.503   0.458   5.322 -1.1186 -0.7614 -1.4364
  175SLPC  C21519841   0.498   0.281   5.180 -0.1870  0.0850 -0.6273
  175SLPC  H15R19842   0.425   0.230   5.246 -1.2788  0.6265 -1.3735
  175SLPC  H15S19843   0.573   0.209   5.141  0.8209  1.1424 -0.7245
  175SLPC  C21619844   0.417   0.334   5.057  0.6528 -0.3271  0.3785
  175SLPC  H16R19845   0.472   0.400   4.986  3.4133 -2.4394  0.3785
  175SLPC  H16S19846   0.337   0.397   5.101  1.4725  0.3218  1.0061
  175SLPC  C21719847   0.364   0.227   4.958 -0.4717  0.3199 -0.8814
  175SLPC  H17R19848   0.302   0.277   4.880  0.2451  1.5564 -0.6902
  175SLPC  H17S19849   0.306   0.162   5.027  2.1526  0.3516  1.5334
  175SLPC  C21819850   0.470   0.139   4.889 -0.6975 -0.4673 -0.4816
  175SLPC  H18R19851   0.540   0.192   4.820  1.7442 -0.0982  2.0890
  175SLPC  H18S19852   0.413   0.054   4.846  0.8358 -2.0746  0.5370
  175SLPC  H18T19853   0.528   0.103   4.976  1.7887  1.5231 -1.1978
  175SLPC   C3319854   1.229   0.499   6.253  0.5349  0.1329  0.4174
  175SLPC   H3X19855   1.311   0.446   6.305  1.2845  0.1148 -0.7431
  175SLPC   H3Y19856   1.228   0.610   6.259 -2.3206  0.2200 -0.2985
  175SLPC   C3419857   1.241   0.478   6.100  0.1858  0.0370  0.2012
  175SLPC   H4X19858   1.144   0.498   6.050  1.1204  0.8731 -1.3536
  175SLPC   H4Y19859   1.264   0.369   6.090  1.2181  0.2183  0.4964
  175SLPC   C3519860   1.352   0.558   6.035 -0.5557  0.2003  0.6729
  175SLPC   H5X19861   1.444   0.519   6.084 -0.9857 -1.2013  0.4219
  175SLPC   H5Y19862   1.353   0.665   6.062  0.2953  0.4482 -0.2875
  175SLPC   C3619863   1.358   0.527   5.885  0.4897  0.4252 -0.3711
  175SLPC   H6X19864   1.261   0.560   5.841  1.2018  1.8766 -0.9405
  175SLPC   H6Y19865   1.373   0.419   5.866 -1.4124 -0.1192  0.8929
  175SLPC   C3719866   1.466   0.608   5.811 -0.1864 -0.2691 -0.0340
  175SLPC   H7X19867   1.560   0.552   5.827  0.0253  0.3567  1.0272
  175SLPC   H7Y19868   1.467   0.697   5.879 -2.5691 -0.4289  0.3088
  175SLPC   C3819869   1.436   0.633   5.662 -0.5537 -0.1533 -0.1511
  175SLPC   H8X19870   1.339   0.687   5.651 -0.7274 -0.6426 -1.0825
  175SLPC   H8Y19871   1.427   0.534   5.612  0.2655 -0.5231  0.4205
  175SLPC   C3919872   1.558   0.709   5.596  0.2091  0.0482  0.3564
  175SLPC   H9X19873   1.643   0.666   5.653  0.0672 -0.1670  0.4047
  175SLPC   H9Y19874   1.554   0.820   5.606  3.1580  0.2331  0.3947
  175SLPC  C31019875   1.574   0.681   5.444  0.3414 -0.3550 -0.7228
  175SLPC  H10X19876   1.475   0.711   5.404  0.0772  0.2362  0.3344
  175SLPC  H10Y19877   1.599   0.574   5.427  1.9536 -0.6537  2.6111
  175SLPC  C31119878   1.668   0.773   5.369 -0.0392  0.0385 -0.2454
  175SLPC  H11X19879   1.770   0.732   5.387 -1.9490 -5.2026  0.3629
  175SLPC  H11Y19880   1.661   0.880   5.395 -0.3448 -0.0080 -0.1363
  175SLPC  C31219881   1.652   0.754   5.216 -0.1023  0.7416  0.4483
  175SLPC  H12X19882   1.559   0.807   5.185 -1.6309 -1.4275  1.0966
  175SLPC  H12Y19883   1.643   0.647   5.187 -0.9143  0.1424  2.6448
  175SLPC  C31319884   1.776   0.806   5.148  0.2305 -0.7318 -0.8834
  175SLPC  H13X19885   1.863   0.762   5.203 -0.4086 -2.2814 -1.0586
  175SLPC  H13Y19886   1.783   0.917   5.147  2.3953 -0.6661  2.6549
  175SLPC  C31419887   1.802   0.755   5.006 -0.8859  0.1448 -0.6353
  175SLPC  H14X19888   1.801   0.644   5.009 -1.6150  0.1642  1.6438
  175SLPC  H14Y19889   1.898   0.799   4.973 -0.5422  0.8190  1.1298
  175SLPC  C31519890   1.705   0.812   4.906  0.1417  0.9661  0.2807
  175SLPC  H15X19891   1.718   0.922   4.896  2.4609  0.7181 -0.0917
  175SLPC  H15Y19892   1.598   0.791   4.924 -0.1232  0.7184 -1.4281
  175SLPC  C31619893   1.733   0.748   4.758  0.5743  0.8679  0.4686
  175SLPC  H16X19894   1.837   0.769   4.728  0.1362  2.8752  0.2334
  175SLPC  H16Y19895   1.679   0.810   4.684  0.6360  0.1375 -0.2100
  175SLPC  C31719896   1.683   0.599   4.759 -0.4036 -0.6084  0.1531
  175SLPC  H17X19897   1.579   0.598   4.798 -1.5263  1.5868 -2.4754
  175SLPC  H17Y19898   1.757   0.542   4.819  2.3969  1.4105 -1.1237
  175SLPC  C31819899   1.681   0.531   4.622  0.2904 -0.4581 -1.0393
  175SLPC  H18X19900   1.662   0.422   4.634  1.5664 -0.5926 -0.0305
  175SLPC  H18Y19901   1.769   0.556   4.560  0.1060  1.3973 -0.6142
  175SLPC  H18Z19902   1.590   0.563   4.567 -0.8492  3.9993  2.7745
  176SLPC     N19903   4.209   3.209   7.170  0.3427  0.6885  0.2986
  176SLPC   C1319904   4.123   3.328   7.139 -0.3154 -0.3235 -0.1776
  176SLPC  H13A19905   4.032   3.294   7.092  0.0589 -3.5332  1.1472
  176SLPC  H13B19906   4.092   3.388   7.223 -2.7925  0.9543 -1.8709
  176SLPC  H13C19907   4.174   3.395   7.071  0.9561  0.2243  1.2589
  176SLPC   C1419908   4.132   3.115   7.252 -0.2589  0.8424 -0.1109
  176SLPC  H14A19909   4.110   3.164   7.346  3.5834 -2.3024  2.7304
  176SLPC  H14B19910   4.041   3.077   7.209 -0.4839 -1.8830  2.4430
  176SLPC  H14C19911   4.182   3.022   7.270 -2.3455 -0.4001 -0.3703
  176SLPC   C1519912   4.325   3.254   7.250  0.1947 -0.3344  0.6368
  176SLPC  H15A19913   4.387   3.167   7.268 -1.7295 -1.9051  0.1130
  176SLPC  H15B19914   4.395   3.303   7.184  2.0837 -1.2105  1.9005
  176SLPC  H15C19915   4.307   3.316   7.336  2.7559 -1.0388  1.7700
  176SLPC   C1219916   4.256   3.135   7.037 -0.2800 -0.0311 -0.3467
  176SLPC  H12A19917   4.170   3.086   6.993  0.6629 -0.2536 -2.0349
  176SLPC  H12B19918   4.322   3.057   7.073  0.2428  0.8585  0.6678
  176SLPC   C1119919   4.335   3.214   6.926 -0.3555  0.1523  0.5720
  176SLPC  H11A19920   4.271   3.296   6.887 -2.0468 -2.1119 -1.6435
  176SLPC  H11B19921   4.353   3.161   6.830  0.1891  0.3087  0.5818
  176SLPC     P19922   4.597   3.177   6.963  0.1428  0.5858  0.3910
  176SLPC   O1319923   4.711   3.250   7.019 -0.6675  0.3947  0.0588
  176SLPC   O1419924   4.570   3.045   7.019  0.4193 -0.3125 -0.1520
  176SLPC   O1219925   4.463   3.264   6.970 -0.4118 -0.2445 -0.0161
  176SLPC   O1119926   4.626   3.167   6.814 -0.6523  0.3182 -0.3085
  176SLPC    C119927   4.638   3.289   6.734 -0.2154 -0.1105  0.3132
  176SLPC    HA19928   4.540   3.340   6.727 -0.4256  0.2039  3.8799
  176SLPC    HB19929   4.720   3.353   6.772 -0.6724  0.2743  0.6586
  176SLPC    C219930   4.677   3.253   6.586 -0.4163  0.4433 -0.0018
  176SLPC    HS19931   4.662   3.348   6.531  1.8097  1.1209  0.4592
  176SLPC   O2119932   4.585   3.149   6.540  0.6573 -0.1759  0.2374
  176SLPC   C2119933   4.470   3.178   6.482  0.3486 -0.4215 -0.0388
  176SLPC   O2219934   4.420   3.293   6.486 -0.1228 -0.5513  0.4133
  176SLPC   C2219935   4.408   3.062   6.415 -0.0179  0.3266  0.0409
  176SLPC   H2R19936   4.495   3.009   6.373  0.0633  0.8500 -0.4645
  176SLPC   H2S19937   4.369   3.000   6.498  0.1024  0.8030  0.4567
  176SLPC    C319938   4.819   3.196   6.566 -0.7989 -0.0385 -0.5085
  176SLPC    HX19939   4.840   3.113   6.637 -1.9105 -0.3530 -0.5319
  176SLPC    HY19940   4.900   3.266   6.596 -0.0426 -2.0626  2.7558
  176SLPC   O3119941   4.838   3.152   6.436 -0.5863 -0.0272  0.4562
  176SLPC   C3119942   4.818   3.020   6.404 -0.6470  0.0261 -0.5072
  176SLPC   O3219943   4.784   2.933   6.483  0.4068 -0.5661  0.2534
  176SLPC   C3219944   4.855   3.006   6.259  0.2057  0.0400  0.6012
  176SLPC   H2X19945   4.921   2.918   6.243 -2.1875 -2.0378  1.4574
  176SLPC   H2Y19946   4.913   3.096   6.228  0.8308 -1.0512 -1.6054
  176SLPC   C2319947   4.300   3.090   6.302 -0.1522  0.5865  0.5124
  176SLPC   H3R19948   4.207   3.119   6.354  0.0568 -0.7251  1.6902
  176SLPC   H3S19949   4.266   3.002   6.242  3.0423 -0.7011  0.3926
  176SLPC   C2419950   4.353   3.182   6.199  0.1280  0.1444 -0.4423
  176SLPC   H4R19951   4.435   3.136   6.140 -0.6856 -1.6653 -0.2077
  176SLPC   H4S19952   4.386   3.278   6.244 -2.1817  1.8222 -2.0765
  176SLPC   C2519953   4.251   3.223   6.097 -0.5157  0.6222 -0.2281
  176SLPC   H5R19954   4.296   3.311   6.045 -2.4276  3.2278  2.2508
  176SLPC   H5S19955   4.170   3.276   6.150  1.4107  1.7227  1.7665
  176SLPC   C2619956   4.200   3.112   6.006 -0.2656  0.6109  0.2911
  176SLPC   H6R19957   4.118   3.053   6.053  0.3467  1.5562  2.6732
  176SLPC   H6S19958   4.281   3.042   5.975 -0.3440  1.2338 -1.4132
  176SLPC   C2719959   4.153   3.169   5.870  0.1672 -0.6786 -0.4399
  176SLPC   H7R19960   4.086   3.256   5.884 -0.1444 -1.0575  0.4963
  176SLPC   H7S19961   4.093   3.090   5.818  0.6085 -1.8084  0.7104
  176SLPC   C2819962   4.275   3.200   5.779  0.0106 -0.3868 -0.1462
  176SLPC   H8R19963   4.328   3.104   5.758  1.3492  0.7762 -2.4910
  176SLPC   H8S19964   4.350   3.257   5.838  0.8721 -0.7800 -0.8389
  176SLPC   C2919965   4.248   3.260   5.648 -0.1603 -0.4127  1.0470
  176SLPC   H9R19966   4.257   3.370   5.644 -0.8999 -0.3676  0.1646
  176SLPC  C21019967   4.211   3.205   5.526 -0.1153  0.1887  0.3077
  176SLPC  H10R19968   4.202   3.271   5.438 -0.4500  0.3611  0.4677
  176SLPC  C21119969   4.182   3.060   5.493  0.3261 -0.0719  0.2022
  176SLPC  H11R19970   4.214   2.993   5.576  1.4959  0.7204  0.4108
  176SLPC  H11S19971   4.230   3.034   5.397  3.4753 -0.8554  1.8606
  176SLPC  C21219972   4.037   3.025   5.463  0.2483 -0.5839 -0.1308
  176SLPC  H12R19973   3.993   3.082   5.380  1.4769 -0.7669 -0.9325
  176SLPC  C21319974   3.977   2.914   5.511  0.3903  0.4821 -0.2990
  176SLPC  H13R19975   3.870   2.912   5.487  0.1026 -0.6975  0.9386
  176SLPC  C21419976   4.020   2.800   5.607  0.1892 -0.2353  0.2108
  176SLPC  H14R19977   4.124   2.825   5.636  0.0342  2.4403 -1.2364
  176SLPC  H14S19978   4.020   2.700   5.559 -1.0341 -1.0929  1.8781
  176SLPC  C21519979   3.940   2.802   5.743  0.0523  0.4526 -0.4256
  176SLPC  H15R19980   3.845   2.749   5.723 -0.7789  1.2338  1.2303
  176SLPC  H15S19981   3.920   2.898   5.795 -2.1971 -0.2985  0.2168
  176SLPC  C21619982   4.015   2.735   5.867 -0.6462 -0.1969 -0.3578
  176SLPC  H16R19983   4.109   2.793   5.875  0.3844 -2.0691  2.5097
  176SLPC  H16S19984   4.034   2.627   5.850  1.3796 -0.1738  1.4163
  176SLPC  C21719985   3.939   2.752   5.999  0.6009 -0.3574 -0.2166
  176SLPC  H17R19986   3.858   2.677   6.013  2.8333 -2.9811 -0.7256
  176SLPC  H17S19987   3.895   2.854   5.992  0.6030 -0.4383 -1.8015
  176SLPC  C21819988   4.034   2.747   6.119 -0.1275  0.4276  0.1733
  176SLPC  H18R19989   4.128   2.802   6.102  0.3342 -0.3957 -0.0062
  176SLPC  H18S19990   4.069   2.643   6.139 -1.8143 -0.2892 -0.3315
  176SLPC  H18T19991   4.000   2.787   6.217  2.2727 -0.2461  1.3639
  176SLPC   C3319992   4.736   2.986   6.165 -0.0424  0.2214  0.3373
  176SLPC   H3X19993   4.784   2.996   6.065  1.0058 -0.3050  0.7783
  176SLPC   H3Y19994   4.656   3.063   6.172  0.5795  1.0562 -1.2161
  176SLPC   C3419995   4.683   2.842   6.166  0.1580  0.1313 -0.1197
  176SLPC   H4X19996   4.640   2.817   6.265  0.7798  2.0805  0.6850
  176SLPC   H4Y19997   4.757   2.762   6.145 -0.1141 -0.3791  0.8358
  176SLPC   C3519998   4.567   2.826   6.068 -0.9078 -0.2329  0.2240
  176SLPC   H5X19999   4.523   2.923   6.036 -2.3834 -0.5729  1.1070
  176SLPC   H5Y20000   4.497   2.756   6.119 -1.3512 -0.0701 -0.1534
  176SLPC   C3620001   4.610   2.744   5.946 -0.0905 -0.2494 -0.5038
  176SLPC   H6X20002   4.629   2.636   5.964  0.3740 -0.4915 -2.2629
  176SLPC   H6Y20003   4.705   2.783   5.904 -1.1814  1.4795 -1.5182
  176SLPC   C3720004   4.509   2.739   5.835  0.0779 -0.1270  0.5491
  176SLPC   H7X20005   4.488   2.841   5.795 -0.4058 -0.3830  0.1307
  176SLPC   H7Y20006   4.409   2.700   5.864 -1.3403  2.3572 -0.6884
  176SLPC   C3820007   4.557   2.664   5.704  0.7510  0.5391 -0.0457
  176SLPC   H8X20008   4.584   2.557   5.710  2.2736  0.8939 -0.0750
  176SLPC   H8Y20009   4.649   2.718   5.673  0.9107 -0.0296 -0.5698
  176SLPC   C3920010   4.454   2.677   5.586 -0.2368 -0.0997 -0.9556
  176SLPC   H9X20011   4.443   2.784   5.560 -0.5842 -0.2910 -1.6252
  176SLPC   H9Y20012   4.353   2.654   5.628  0.3584  1.9390  1.8861
  176SLPC  C31020013   4.487   2.603   5.466 -0.1696 -0.3104  0.9288
  176SLPC  H10X20014   4.489   2.493   5.480 -1.2485 -0.2086  2.0959
  176SLPC  H10Y20015   4.591   2.628   5.434 -0.4816 -1.6126 -1.3236
  176SLPC  C31120016   4.393   2.635   5.347 -0.3422  0.4802  0.1724
  176SLPC  H11X20017   4.381   2.745   5.352 -0.3854  0.4449  4.5119
  176SLPC  H11Y20018   4.290   2.599   5.369 -0.7714  2.1081  0.9268
  176SLPC  C31220019   4.458   2.604   5.215 -0.8319  0.2179 -0.5619
  176SLPC  H12X20020   4.447   2.494   5.203 -0.1695  0.4042 -4.6043
  176SLPC  H12Y20021   4.567   2.626   5.216 -0.6224 -0.5808  2.1337
  176SLPC  C31320022   4.396   2.675   5.095 -0.3544  0.3232  0.3089
  176SLPC  H13X20023   4.399   2.784   5.112  1.0630  0.2112  0.8926
  176SLPC  H13Y20024   4.291   2.637   5.094 -0.3200  0.1550 -1.5938
  176SLPC  C31420025   4.473   2.651   4.949  0.5975 -0.8186 -0.4852
  176SLPC  H14X20026   4.501   2.544   4.945 -2.5040 -1.7489  0.3331
  176SLPC  H14Y20027   4.563   2.716   4.945  0.8089 -0.9916  0.9704
  176SLPC  C31520028   4.384   2.690   4.829 -0.4166  0.9271 -0.2832
  176SLPC  H15X20029   4.298   2.620   4.822  0.5384 -0.2981 -0.1154
  176SLPC  H15Y20030   4.455   2.683   4.743  1.1190 -1.6114  1.0878
  176SLPC  C31620031   4.329   2.834   4.836  0.9972 -0.1338  0.3966
  176SLPC  H16X20032   4.282   2.853   4.935 -3.3083  0.9541 -1.6021
  176SLPC  H16Y20033   4.243   2.835   4.765  0.1102  2.0188  1.3970
  176SLPC  C31720034   4.419   2.947   4.791 -0.1834  0.6917  0.1632
  176SLPC  H17X20035   4.443   2.925   4.685 -2.9958  2.1990 -0.9014
  176SLPC  H17Y20036   4.517   2.939   4.844  1.0241  0.6684 -1.9829
  176SLPC  C31820037   4.364   3.078   4.829 -0.4646 -0.2218 -0.3456
  176SLPC  H18X20038   4.273   3.104   4.769 -1.3174  1.0024  1.3978
  176SLPC  H18Y20039   4.438   3.157   4.808 -1.2030  1.3270  2.4190
  176SLPC  H18Z20040   4.338   3.100   4.935  1.1186 -1.4355  0.3380
  177SLPC     N20041   6.203   6.294   7.490 -0.2727 -0.4076  0.2373
  177SLPC   C1320042   6.346   6.264   7.458 -0.2327 -0.2367  0.3292
  177SLPC  H13A20043   6.419   6.316   7.519 -1.3895  0.0641  1.5099
  177SLPC  H13B20044   6.364   6.158   7.457  0.0829 -0.1903 -1.5596
  177SLPC  H13C20045   6.353   6.293   7.354  0.2938 -1.7190 -0.0708
  177SLPC   C1420046   6.188   6.264   7.634 -0.5653 -0.2571  0.1527
  177SLPC  H14A20047   6.229   6.340   7.699  0.0868  0.2835 -0.8584
  177SLPC  H14B20048   6.084   6.266   7.662 -0.3747  2.5687  0.9554
  177SLPC  H14C20049   6.226   6.167   7.664 -0.9544 -0.2934  0.5292
  177SLPC   C1520050   6.109   6.218   7.399  0.3960 -0.4032  0.2402
  177SLPC  H15A20051   6.110   6.242   7.294 -0.7640 -1.9621 -0.1613
  177SLPC  H15B20052   6.104   6.111   7.411 -0.5763 -0.1568  2.7515
  177SLPC  H15C20053   6.009   6.248   7.427  1.0481  1.2412  0.9473
  177SLPC   C1220054   6.182   6.445   7.467 -0.1731 -0.0471  0.5065
  177SLPC  H12A20055   6.259   6.515   7.496  0.5505  0.5337 -2.4896
  177SLPC  H12B20056   6.085   6.476   7.504 -0.2187 -0.5327  0.8012
  177SLPC   C1120057   6.184   6.491   7.317  0.1868 -0.3784  0.8088
  177SLPC  H11A20058   6.166   6.601   7.314 -0.9171 -0.5707 -0.8706
  177SLPC  H11B20059   6.104   6.438   7.260  1.3419 -0.7579 -0.5000
  177SLPC     P20060   6.403   6.563   7.180  0.3533 -0.0854 -0.0008
  177SLPC   O1320061   6.310   6.647   7.095 -0.5880 -0.3241  0.9600
  177SLPC   O1420062   6.489   6.626   7.279  0.1788  0.1758 -0.2616
  177SLPC   O1220063   6.312   6.462   7.256 -0.2861 -0.0498 -0.1987
  177SLPC   O1120064   6.484   6.467   7.083  0.0194 -0.5955  0.2710
  177SLPC    C120065   6.481   6.321   7.107  0.3523  0.1339  0.9245
  177SLPC    HA20066   6.508   6.289   7.210 -0.6237 -0.9861  0.8484
  177SLPC    HB20067   6.377   6.286   7.087  0.4674  0.9197 -1.3804
  177SLPC    C220068   6.577   6.245   7.007 -0.5157 -0.0880 -0.6375
  177SLPC    HS20069   6.672   6.294   7.037 -0.3894  0.2153 -1.5103
  177SLPC   O2120070   6.541   6.271   6.871  0.2667  0.1404 -0.1403
  177SLPC   C2120071   6.639   6.270   6.791 -0.5659  0.1245 -0.2958
  177SLPC   O2220072   6.756   6.257   6.820 -0.3039  0.2900 -0.1796
  177SLPC   C2220073   6.593   6.301   6.648  0.3522 -0.0947  0.1661
  177SLPC   H2R20074   6.492   6.258   6.629  0.5444 -0.2725 -0.4844
  177SLPC   H2S20075   6.589   6.411   6.639  3.3451  0.0508 -0.3263
  177SLPC    C320076   6.583   6.095   7.048  0.2405  0.3566 -0.2583
  177SLPC    HX20077   6.592   6.086   7.159  1.8023  1.0062 -0.3020
  177SLPC    HY20078   6.678   6.052   7.012 -0.3042 -1.6989  0.6205
  177SLPC   O3120079   6.473   6.028   6.986  0.6743 -0.2034  0.1287
  177SLPC   C3120080   6.486   5.976   6.864  0.2817  0.2357 -0.3563
  177SLPC   O3220081   6.594   5.976   6.808  0.0143 -0.1783 -0.2516
  177SLPC   C3220082   6.354   5.914   6.807  0.2574 -0.0022  0.6683
  177SLPC   H2X20083   6.267   5.958   6.862  1.0687  0.6943  1.4275
  177SLPC   H2Y20084   6.354   5.807   6.837 -0.3844 -0.5825 -1.3046
  177SLPC   C2320085   6.694   6.236   6.541  0.2606 -0.5202 -1.1472
  177SLPC   H3R20086   6.668   6.128   6.536 -0.7801 -0.5077  1.8843
  177SLPC   H3S20087   6.799   6.244   6.576 -0.1520 -2.2940  0.7061
  177SLPC   C2420088   6.668   6.292   6.405  0.7220  0.1673  0.6249
  177SLPC   H4R20089   6.730   6.383   6.388  1.8197 -0.6458  0.1753
  177SLPC   H4S20090   6.560   6.313   6.387  1.0457  0.5787 -1.1148
  177SLPC   C2520091   6.707   6.194   6.300 -0.1178  0.3752  0.2799
  177SLPC   H5R20092   6.632   6.113   6.315 -0.2434  0.4993  0.3200
  177SLPC   H5S20093   6.810   6.154   6.314  0.5428  1.9564  0.1823
  177SLPC   C2620094   6.680   6.243   6.159  0.0175 -0.1207 -0.0634
  177SLPC   H6R20095   6.745   6.328   6.131  1.1038 -1.5358 -2.0718
  177SLPC   H6S20096   6.572   6.270   6.157 -1.5242 -5.2795 -0.1784
  177SLPC   C2720097   6.694   6.131   6.056  0.3565 -0.2952 -1.2209
  177SLPC   H7R20098   6.618   6.063   6.100  0.9663 -0.3393 -0.2134
  177SLPC   H7S20099   6.799   6.096   6.059  0.4857  0.0326  2.4729
  177SLPC   C2820100   6.664   6.168   5.915 -0.3613  0.2613 -0.0645
  177SLPC   H8R20101   6.725   6.259   5.894 -0.5430  0.4692  0.2917
  177SLPC   H8S20102   6.555   6.191   5.915 -0.5813 -0.6831  0.9352
  177SLPC   C2920103   6.687   6.064   5.805  0.3552 -0.5554  0.4733
  177SLPC   H9R20104   6.768   6.001   5.844  1.7404  1.3311  0.8143
  177SLPC  C21020105   6.625   6.054   5.686  0.2164 -0.3452  0.0672
  177SLPC  H10R20106   6.662   5.983   5.610  0.3894  0.2041 -0.3712
  177SLPC  C21120107   6.517   6.137   5.618  0.5233  0.9594  0.3830
  177SLPC  H11R20108   6.439   6.152   5.696 -0.7424 -1.5708 -0.2834
  177SLPC  H11S20109   6.461   6.071   5.548  1.2732 -0.1899  0.8314
  177SLPC  C21220110   6.568   6.262   5.552 -0.2202  0.6424 -0.2716
  177SLPC  H12R20111   6.584   6.343   5.625 -0.4471 -1.4929  2.3007
  177SLPC  C21320112   6.616   6.287   5.427  0.1718 -0.0138 -0.7404
  177SLPC  H13R20113   6.634   6.394   5.411  1.3617  0.0087  0.5438
  177SLPC  C21420114   6.641   6.201   5.308 -0.1191  0.7292 -0.2606
  177SLPC  H14R20115   6.584   6.226   5.217 -2.3342  1.4462  1.2422
  177SLPC  H14S20116   6.615   6.095   5.332  0.7624  0.8889  1.6354
  177SLPC  C21520117   6.785   6.183   5.268  0.3228 -0.2910 -0.1283
  177SLPC  H15R20118   6.799   6.086   5.217  0.4330 -0.5285  0.3551
  177SLPC  H15S20119   6.844   6.189   5.361 -1.9381 -0.0989  1.3641
  177SLPC  C21620120   6.813   6.293   5.164  0.7010  0.7067  0.2179
  177SLPC  H16R20121   6.774   6.394   5.191  0.1599 -0.2022  3.1976
  177SLPC  H16S20122   6.761   6.261   5.071  3.7210  1.4396 -1.8789
  177SLPC  C21720123   6.966   6.300   5.127  0.1937 -0.2031 -0.0511
  177SLPC  H17R20124   6.983   6.193   5.105 -3.2275 -0.9205  0.3071
  177SLPC  H17S20125   7.025   6.348   5.208 -0.0647  0.9013 -0.5013
  177SLPC  C21820126   6.993   6.377   4.997  0.1082 -0.2426  0.5427
  177SLPC  H18R20127   7.102   6.396   4.985  0.2419 -1.5061 -0.3522
  177SLPC  H18S20128   6.933   6.470   4.987  0.8970  0.2961  0.6744
  177SLPC  H18T20129   6.982   6.308   4.911 -0.5910  0.5620 -0.0326
  177SLPC   C3320130   6.349   5.931   6.655  0.4616 -0.3021 -0.6185
  177SLPC   H3X20131   6.284   5.852   6.612  0.5256 -1.8745  1.9609
  177SLPC   H3Y20132   6.450   5.914   6.612  0.6831 -1.4003  0.2651
  177SLPC   C3420133   6.299   6.063   6.602  0.1012 -0.3916  0.1191
  177SLPC   H4X20134   6.342   6.141   6.669 -2.0643  1.3464 -0.3918
  177SLPC   H4Y20135   6.189   6.053   6.618  0.2649 -0.7163  1.0787
  177SLPC   C3520136   6.330   6.094   6.453 -0.6229 -0.4222  0.3453
  177SLPC   H5X20137   6.431   6.062   6.421 -1.0422 -0.6494 -0.7858
  177SLPC   H5Y20138   6.330   6.202   6.430 -1.9364 -0.3919  0.3901
  177SLPC   C3620139   6.224   6.032   6.362 -0.5039  0.1493 -0.7353
  177SLPC   H6X20140   6.126   6.065   6.404  1.3503  2.4071  2.2310
  177SLPC   H6Y20141   6.238   5.921   6.364  2.0751  0.4183  1.1688
  177SLPC   C3720142   6.242   6.071   6.214  0.2832  0.6616  0.0111
  177SLPC   H7X20143   6.351   6.063   6.191  1.1079  1.5977  3.0475
  177SLPC   H7Y20144   6.223   6.177   6.189  0.2569  0.6631  0.0377
  177SLPC   C3820145   6.162   5.970   6.122 -0.2207  0.3192  0.4489
  177SLPC   H8X20146   6.060   6.014   6.122  0.4962  2.2461 -2.5131
  177SLPC   H8Y20147   6.169   5.867   6.164  0.6734  1.4893  3.5052
  177SLPC   C3920148   6.199   5.970   5.970 -0.3064 -0.5937  0.1472
  177SLPC   H9X20149   6.304   5.940   5.953 -0.6468 -2.4326  1.1157
  177SLPC   H9Y20150   6.184   6.073   5.929  0.3767  0.2179  1.8257
  177SLPC  C31020151   6.110   5.873   5.884  0.0423 -0.0601 -0.6463
  177SLPC  H10X20152   6.000   5.885   5.890 -0.2343 -2.7076  1.3980
  177SLPC  H10Y20153   6.134   5.774   5.929 -3.7599 -0.5432  0.6593
  177SLPC  C31120154   6.150   5.882   5.738  0.0803  0.0826  0.3092
  177SLPC  H11X20155   6.256   5.851   5.732  0.4766  1.3227  0.5554
  177SLPC  H11Y20156   6.155   5.992   5.722 -0.0614  0.4779  2.6895
  177SLPC  C31220157   6.064   5.816   5.628 -0.1811  0.0298  0.0968
  177SLPC  H12X20158   6.122   5.831   5.535  0.9134 -0.2712  0.7055
  177SLPC  H12Y20159   5.963   5.862   5.623 -0.1395  0.0274 -0.8927
  177SLPC  C31320160   6.053   5.661   5.644  0.9427  0.2548 -0.4972
  177SLPC  H13X20161   6.021   5.650   5.749  1.1238  0.0014 -0.4676
  177SLPC  H13Y20162   6.142   5.597   5.626  0.2732 -0.4574 -1.4315
  177SLPC  C31420163   5.937   5.611   5.565  0.2177 -0.1786  0.2981
  177SLPC  H14X20164   5.848   5.671   5.593  0.3575  0.8067 -1.2621
  177SLPC  H14Y20165   5.919   5.505   5.596  1.9641 -0.1067  1.7151
  177SLPC  C31520166   5.964   5.623   5.411 -0.5812  0.1081 -0.6790
  177SLPC  H15X20167   5.971   5.519   5.373  0.7953  0.2924 -0.9897
  177SLPC  H15Y20168   6.045   5.693   5.381  0.5549 -0.1402  1.5525
  177SLPC  C31620169   5.841   5.681   5.330  0.0802  1.5519  0.9124
  177SLPC  H16X20170   5.815   5.786   5.353 -3.7505  0.6420  1.4519
  177SLPC  H16Y20171   5.754   5.626   5.372 -0.1932 -0.2319 -1.7480
  177SLPC  C31720172   5.842   5.667   5.178  0.4118  0.2200  0.3188
  177SLPC  H17X20173   5.854   5.559   5.153 -2.9685  0.2539 -2.0441
  177SLPC  H17Y20174   5.931   5.723   5.142 -0.2623  0.3670 -1.1965
  177SLPC  C31820175   5.715   5.711   5.116  0.1053  0.1944  0.4378
  177SLPC  H18X20176   5.686   5.814   5.143  3.1285  0.9262  1.3026
  177SLPC  H18Y20177   5.628   5.642   5.123 -0.2763  0.5826 -0.2748
  177SLPC  H18Z20178   5.738   5.719   5.007  0.2560 -0.1534  0.4415
  178SLPC     N20179   3.533   4.335   7.581  0.6967  0.3664 -1.4442
  178SLPC   C1320180   3.656   4.413   7.539  0.0261  0.2429  0.0970
  178SLPC  H13A20181   3.620   4.498   7.483  2.2034  1.1322 -0.0486
  178SLPC  H13B20182   3.702   4.460   7.624  0.4164  1.4202 -0.7400
  178SLPC  H13C20183   3.720   4.355   7.473 -2.2905 -1.5590 -0.7101
  178SLPC   C1420184   3.468   4.417   7.687 -0.9073  0.2787 -0.3847
  178SLPC  H14A20185   3.543   4.433   7.763 -0.2205  0.0837 -0.9965
  178SLPC  H14B20186   3.441   4.514   7.649  0.1923  0.7684  0.0443
  178SLPC  H14C20187   3.380   4.375   7.733 -0.6708  1.4150  1.1583
  178SLPC   C1520188   3.566   4.203   7.629 -0.0586 -0.3840 -0.6476
  178SLPC  H15A20189   3.477   4.148   7.656 -0.5072  0.4570 -0.3716
  178SLPC  H15B20190   3.618   4.153   7.548 -1.7878 -0.0991 -1.9896
  178SLPC  H15C20191   3.635   4.208   7.712  1.8091  0.1185 -2.1482
  178SLPC   C1220192   3.433   4.326   7.468  0.4399  0.9141  0.3827
  178SLPC  H12A20193   3.385   4.421   7.451 -0.3110  0.2961 -1.1415
  178SLPC  H12B20194   3.352   4.265   7.504  0.8097  0.6420  0.7549
  178SLPC   C1120195   3.463   4.275   7.326 -0.1942 -0.3860  0.7086
  178SLPC  H11A20196   3.540   4.340   7.280 -0.8683  0.7254  1.1216
  178SLPC  H11B20197   3.373   4.288   7.261  0.7505  1.9975 -0.2281
  178SLPC     P20198   3.416   4.014   7.331  0.0714  0.3577  0.3686
  178SLPC   O1320199   3.473   3.914   7.427  0.3863 -0.2044  1.4504
  178SLPC   O1420200   3.280   4.051   7.347  0.3836 -0.6388 -0.2505
  178SLPC   O1220201   3.508   4.141   7.338 -0.3794  0.1787 -0.5695
  178SLPC   O1120202   3.439   3.955   7.185 -0.7581  0.3640 -0.3890
  178SLPC    C120203   3.357   4.007   7.077 -0.2806 -0.0321 -0.1453
  178SLPC    HA20204   3.248   4.007   7.100 -0.8887 -0.8657 -2.7352
  178SLPC    HB20205   3.407   4.102   7.050  3.7792 -1.5966  1.1526
  178SLPC    C220206   3.361   3.902   6.958 -0.4863 -0.4302 -0.1208
  178SLPC    HS20207   3.324   3.810   7.008  0.0454 -0.6853 -0.1862
  178SLPC   O2120208   3.501   3.899   6.912 -0.3468 -0.2588 -0.1232
  178SLPC   C2120209   3.535   3.792   6.842 -0.0598  0.0369 -0.7116
  178SLPC   O2220210   3.467   3.692   6.827 -0.0572 -0.1956  0.6830
  178SLPC   C2220211   3.677   3.812   6.782  0.5353 -0.1715 -0.3751
  178SLPC   H2R20212   3.674   3.921   6.763  0.8914 -0.2002 -0.6173
  178SLPC   H2S20213   3.751   3.812   6.864 -0.0631 -0.4674  0.1735
  178SLPC    C320214   3.267   3.943   6.848  0.0071 -0.6183  1.1005
  178SLPC    HX20215   3.296   4.048   6.827 -4.2783  0.1864 -2.0070
  178SLPC    HY20216   3.162   3.952   6.882 -0.5118 -0.9529 -0.3714
  178SLPC   O3120217   3.271   3.859   6.732  0.7185 -0.1048 -0.3509
  178SLPC   C3120218   3.183   3.757   6.742  0.1801  0.1388 -0.3693
  178SLPC   O3220219   3.117   3.730   6.844  0.3311 -0.0066  0.6890
  178SLPC   C3220220   3.181   3.685   6.610 -0.0054  0.3931  0.5811
  178SLPC   H2X20221   3.226   3.586   6.632 -1.0600 -0.2582 -0.1285
  178SLPC   H2Y20222   3.246   3.736   6.536  2.3474  0.6563  2.6822
  178SLPC   C2320223   3.702   3.730   6.655 -0.5193 -0.5508  0.4233
  178SLPC   H3R20224   3.658   3.628   6.660 -1.8648 -0.0226 -0.1835
  178SLPC   H3S20225   3.812   3.720   6.646 -0.5227 -0.5379  0.3648
  178SLPC   C2420226   3.665   3.808   6.530 -0.8095 -0.3064 -0.1255
  178SLPC   H4R20227   3.714   3.906   6.515  3.8050 -2.4932 -1.1030
  178SLPC   H4S20228   3.554   3.809   6.517 -0.9639  2.6405  0.7034
  178SLPC   C2520229   3.717   3.739   6.400  0.1950  0.4025 -0.4119
  178SLPC   H5R20230   3.670   3.638   6.399  0.4282  0.2961 -0.4461
  178SLPC   H5S20231   3.827   3.728   6.408  0.4066  3.0153  1.6357
  178SLPC   C2620232   3.673   3.819   6.274 -0.9592 -0.4230 -0.8680
  178SLPC   H6R20233   3.697   3.926   6.292 -0.0238 -0.6125 -0.9247
  178SLPC   H6S20234   3.563   3.804   6.269 -1.2653  0.6821  1.3974
  178SLPC   C2720235   3.756   3.761   6.156  0.0099  0.4943  0.3471
  178SLPC   H7R20236   3.744   3.651   6.159 -2.0234  0.6649  0.1139
  178SLPC   H7S20237   3.861   3.797   6.163 -0.5443  1.9659  2.1393
  178SLPC   C2820238   3.704   3.804   6.019  0.8121  0.4429 -0.6068
  178SLPC   H8R20239   3.740   3.908   6.011 -1.5968  1.5537  1.3609
  178SLPC   H8S20240   3.593   3.808   6.022  0.8007  0.1893 -0.6380
  178SLPC   C2920241   3.752   3.723   5.902 -0.6287  0.2734  0.9151
  178SLPC   H9R20242   3.792   3.626   5.936  2.9851  2.0001  2.1412
  178SLPC  C21020243   3.770   3.762   5.773 -0.4092 -0.6178  0.6390
  178SLPC  H10R20244   3.788   3.684   5.697 -1.3909 -0.7841  0.5669
  178SLPC  C21120245   3.714   3.892   5.723  0.1170  0.3096 -0.8929
  178SLPC  H11R20246   3.714   3.968   5.804 -0.0592 -0.6512  0.0320
  178SLPC  H11S20247   3.607   3.878   5.696  0.0258 -0.9718  0.0110
  178SLPC  C21220248   3.782   3.961   5.609  0.6074  0.0141 -0.4151
  178SLPC  H12R20249   3.888   3.991   5.618 -0.0047  2.3898 -0.4819
  178SLPC  C21320250   3.721   3.984   5.490 -0.0416  0.3531 -0.0469
  178SLPC  H13R20251   3.781   4.033   5.412  0.1723 -0.9483 -0.7282
  178SLPC  C21420252   3.573   3.958   5.441  0.6443  0.5704 -0.2652
  178SLPC  H14R20253   3.521   4.052   5.412  1.5623  1.4751  0.9115
  178SLPC  H14S20254   3.510   3.912   5.520  0.7507 -0.3606 -0.7097
  178SLPC  C21520255   3.581   3.854   5.328 -0.4557  0.5635  0.2765
  178SLPC  H15R20256   3.482   3.805   5.318 -1.5563  2.6512  0.4621
  178SLPC  H15S20257   3.649   3.771   5.358 -0.2528  0.3289 -0.7899
  178SLPC  C21620258   3.637   3.908   5.195 -1.2403 -0.0887  0.3096
  178SLPC  H16R20259   3.719   3.837   5.170 -1.5107 -0.4212  0.3677
  178SLPC  H16S20260   3.681   4.008   5.214  3.6162 -1.8081 -0.3107
  178SLPC  C21720261   3.535   3.919   5.084  0.1301  0.0908  0.7366
  178SLPC  H17R20262   3.458   3.998   5.097 -0.7055 -0.4155 -0.7907
  178SLPC  H17S20263   3.467   3.831   5.081  0.7664 -0.3862 -0.6988
  178SLPC  C21820264   3.591   3.941   4.943 -0.1972 -0.0968  0.0012
  178SLPC  H18R20265   3.655   3.852   4.923 -1.3002 -1.0977  0.8265
  178SLPC  H18S20266   3.642   4.039   4.924 -0.2201 -0.2338 -0.8278
  178SLPC  H18T20267   3.512   3.938   4.865 -0.2105  1.4340 -0.0697
  178SLPC   C3320268   3.047   3.675   6.536  0.0052  0.0017  0.7500
  178SLPC   H3X20269   2.976   3.757   6.561 -1.5760 -0.0953 -2.8220
  178SLPC   H3Y20270   3.001   3.581   6.571  2.3322 -1.1729  0.9023
  178SLPC   C3420271   3.060   3.671   6.383  0.3060 -0.2148 -0.5216
  178SLPC   H4X20272   3.142   3.602   6.351  3.2392  1.9663  1.7550
  178SLPC   H4Y20273   3.103   3.768   6.351 -1.6821  0.5923 -0.8917
  178SLPC   C3520274   2.930   3.647   6.321  0.3835  0.6053  0.2211
  178SLPC   H5X20275   2.843   3.698   6.369 -0.3772  0.1109 -0.5965
  178SLPC   H5Y20276   2.924   3.538   6.344  1.1582  1.0882  3.2205
  178SLPC   C3620277   2.915   3.667   6.164  0.0636  0.9477 -0.1038
  178SLPC   H6X20278   2.958   3.760   6.122  1.5923 -0.6090 -2.2141
  178SLPC   H6Y20279   2.807   3.662   6.139 -0.6914  4.0625  2.0002
  178SLPC   C3720280   2.985   3.554   6.077  0.0611  0.2386 -0.1473
  178SLPC   H7X20281   2.984   3.457   6.130 -0.1833 -0.1872 -0.9149
  178SLPC   H7Y20282   3.091   3.584   6.062 -0.4212  1.7344 -0.7921
  178SLPC   C3820283   2.921   3.540   5.941 -0.9575  0.1087  0.6641
  178SLPC   H8X20284   2.822   3.496   5.966 -0.6734 -0.2052  1.2505
  178SLPC   H8Y20285   2.979   3.472   5.874 -0.5512 -0.5515  1.6620
  178SLPC   C3920286   2.906   3.669   5.859  0.4360 -0.2903  0.7206
  178SLPC   H9X20287   3.005   3.717   5.841  1.6442 -3.0062 -0.4233
  178SLPC   H9Y20288   2.842   3.737   5.919 -0.9172 -0.4959 -0.4406
  178SLPC  C31020289   2.830   3.645   5.731 -0.4888  0.4544  0.4094
  178SLPC  H10X20290   2.737   3.588   5.755 -0.4328  1.1061  2.4081
  178SLPC  H10Y20291   2.882   3.577   5.660 -1.2811 -0.3360  0.5603
  178SLPC  C31120292   2.792   3.771   5.663  0.2437  0.1842  0.1639
  178SLPC  H11X20293   2.884   3.826   5.632  1.2712 -1.5389  0.0600
  178SLPC  H11Y20294   2.739   3.828   5.742  0.3400 -1.8269  1.7467
  178SLPC  C31220295   2.689   3.749   5.548 -0.1734 -0.3817 -0.3947
  178SLPC  H12X20296   2.597   3.715   5.601 -0.1597  2.1872  1.4909
  178SLPC  H12Y20297   2.718   3.674   5.471 -1.5034 -1.3962  0.0529
  178SLPC  C31320298   2.647   3.878   5.472  0.0434  0.0741  0.0037
  178SLPC  H13X20299   2.709   3.876   5.379 -0.2502 -0.1331 -0.1888
  178SLPC  H13Y20300   2.684   3.972   5.518  1.3977 -0.8759  0.9381
  178SLPC  C31420301   2.497   3.885   5.438  0.0067  0.4849 -0.4064
  178SLPC  H14X20302   2.445   3.868   5.535  1.3887  1.3269  0.5131
  178SLPC  H14Y20303   2.476   3.797   5.374  0.1944 -0.9562  1.3965
  178SLPC  C31520304   2.461   4.019   5.363 -0.5767  0.7930 -0.2157
  178SLPC  H15X20305   2.468   4.105   5.432 -2.0696  1.0376 -0.3282
  178SLPC  H15Y20306   2.355   4.001   5.332 -1.4840  3.0426  1.3739
  178SLPC  C31620307   2.549   4.045   5.234  0.3953 -0.0629 -0.0610
  178SLPC  H16X20308   2.658   4.059   5.254  0.3379  1.7100 -0.8104
  178SLPC  H16Y20309   2.514   4.137   5.183  0.1393 -0.2492 -0.2263
  178SLPC  C31720310   2.529   3.930   5.129 -0.0505 -0.9377 -0.6030
  178SLPC  H17X20311   2.419   3.920   5.116 -0.3506 -0.7355  1.4081
  178SLPC  H17Y20312   2.575   3.836   5.164  0.8872  0.3438  1.8853
  178SLPC  C31820313   2.590   3.975   4.994  0.1770  0.4635  0.1539
  178SLPC  H18X20314   2.566   3.893   4.922  1.4038 -0.7703  1.0955
  178SLPC  H18Y20315   2.701   3.982   4.992  0.3870 -1.9095  0.5411
  178SLPC  H18Z20316   2.545   4.065   4.946  2.2140  0.7893 -1.2892
  179SLPC     N20317   0.630   4.820   2.752  0.4424 -0.2721  0.2646
  179SLPC   C1320318   0.672   4.931   2.841  0.6848  0.6960 -0.2490
  179SLPC  H13A20319   0.733   4.889   2.919 -0.8184 -2.5463 -0.6399
  179SLPC  H13B20320   0.712   5.013   2.783  1.6043 -0.1702 -0.8622
  179SLPC  H13C20321   0.591   4.957   2.907 -0.6093 -1.3799 -0.9148
  179SLPC   C1420322   0.527   4.863   2.651 -0.2163  0.2478 -0.5170
  179SLPC  H14A20323   0.491   4.772   2.605  0.9390 -0.5831  0.1905
  179SLPC  H14B20324   0.439   4.904   2.699 -0.3640 -0.8331  0.1698
  179SLPC  H14C20325   0.561   4.928   2.571  2.1067  1.4962  1.3594
  179SLPC   C1520326   0.565   4.718   2.841  0.2077 -0.4305 -0.3460
  179SLPC  H15A20327   0.522   4.632   2.791 -0.2162 -0.8386  0.6978
  179SLPC  H15B20328   0.632   4.691   2.921 -1.4443 -0.2651  1.1502
  179SLPC  H15C20329   0.481   4.760   2.893  0.7861  1.4455 -0.8473
  179SLPC   C1220330   0.757   4.764   2.680 -0.5748  0.3935 -0.8357
  179SLPC  H12A20331   0.800   4.843   2.620  0.4844 -0.1962 -0.8875
  179SLPC  H12B20332   0.732   4.691   2.605 -0.2823  0.1867 -0.7378
  179SLPC   C1120333   0.868   4.702   2.773  0.3465  0.6310 -0.3610
  179SLPC  H11A20334   0.945   4.667   2.701  1.5820  2.3494  0.0654
  179SLPC  H11B20335   0.824   4.619   2.832 -0.0275  0.1118 -1.3435
  179SLPC     P20336   1.057   4.879   2.839 -0.1132  0.0711 -0.3503
  179SLPC   O1320337   1.100   4.884   2.694 -0.5454  0.0635 -0.2685
  179SLPC   O1420338   1.040   5.008   2.915  0.3801  0.3808 -0.0928
  179SLPC   O1220339   0.932   4.794   2.861  0.5625  0.2872  0.8729
  179SLPC   O1120340   1.172   4.792   2.918  0.1150 -0.4801 -0.0526
  179SLPC    C120341   1.138   4.673   2.986 -0.3991  0.5876  0.2875
  179SLPC    HA20342   1.080   4.606   2.917 -1.4188  0.9537  0.7686
  179SLPC    HB20343   1.228   4.619   3.020 -1.1973 -0.0716  1.4350
  179SLPC    C220344   1.068   4.688   3.120  0.6892  0.0341 -0.0935
  179SLPC    HS20345   0.980   4.754   3.108 -0.5850 -1.1381  2.1236
  179SLPC   O2120346   1.151   4.727   3.233 -0.5626 -0.0581  0.1596
  179SLPC   C2120347   1.147   4.856   3.263  0.6759  0.4368 -0.8491
  179SLPC   O2220348   1.070   4.939   3.226  0.1619  0.4213 -0.9033
  179SLPC   C2220349   1.272   4.880   3.353 -0.5764 -0.1560 -0.0066
  179SLPC   H2R20350   1.298   4.779   3.390  1.1574 -1.3216 -3.9805
  179SLPC   H2S20351   1.359   4.918   3.295 -0.4286 -1.5352 -0.7257
  179SLPC    C320352   1.005   4.549   3.159  0.0892  0.5204 -0.0460
  179SLPC    HX20353   1.091   4.479   3.170 -2.5489 -2.8331  0.8576
  179SLPC    HY20354   0.935   4.519   3.079 -0.7832  1.6672  0.2689
  179SLPC   O3120355   0.945   4.556   3.292  0.2922 -0.2123  0.5285
  179SLPC   C3120356   0.827   4.606   3.295 -0.3456  0.1648  0.4105
  179SLPC   O3220357   0.762   4.638   3.196  0.1585 -0.0311  0.1198
  179SLPC   C3220358   0.789   4.627   3.442 -0.9354 -0.0540 -0.2263
  179SLPC   H2X20359   0.757   4.526   3.477  0.6527 -1.8796 -3.5828
  179SLPC   H2Y20360   0.702   4.696   3.436 -0.3973  0.6635  0.1434
  179SLPC   C2320361   1.247   4.976   3.476 -0.2050 -0.0301 -0.0250
  179SLPC   H3R20362   1.159   4.946   3.537  0.3119  1.0826  1.3137
  179SLPC   H3S20363   1.230   5.082   3.445 -1.2946 -0.6392 -1.6624
  179SLPC   C2420364   1.355   4.977   3.586  0.0164 -0.5367 -0.2121
  179SLPC   H4R20365   1.442   5.044   3.566 -1.6422  2.2514  1.3111
  179SLPC   H4S20366   1.389   4.872   3.592  0.4247 -0.3192  1.9409
  179SLPC   C2520367   1.306   5.021   3.732 -0.1580  0.1244  0.2849
  179SLPC   H5R20368   1.392   4.989   3.795 -0.5925  0.3295  0.9877
  179SLPC   H5S20369   1.210   4.970   3.757  0.5049 -1.2480  0.1447
  179SLPC   C2620370   1.286   5.174   3.739  0.3351 -0.2684  0.9259
  179SLPC   H6R20371   1.192   5.176   3.680  1.3983 -0.4882 -0.8501
  179SLPC   H6S20372   1.367   5.227   3.685 -0.5570  1.0788  0.8537
  179SLPC   C2720373   1.277   5.231   3.876  0.1854  0.1418  0.2849
  179SLPC   H7R20374   1.368   5.213   3.936  2.1455  0.1371 -2.5221
  179SLPC   H7S20375   1.188   5.180   3.920  0.7336 -0.1139  1.1112
  179SLPC   C2820376   1.251   5.385   3.872  0.3024  0.0114  0.3039
  179SLPC   H8R20377   1.194   5.418   3.961 -1.8147 -0.0132 -0.9860
  179SLPC   H8S20378   1.187   5.414   3.786  2.3323 -1.9905 -2.0355
  179SLPC   C2920379   1.377   5.466   3.848  0.2382  0.1821 -0.7917
  179SLPC   H9R20380   1.401   5.491   3.743 -0.0551  0.7174 -0.7322
  179SLPC  C21020381   1.477   5.499   3.930 -0.5656  0.0194 -0.0553
  179SLPC  H10R20382   1.562   5.552   3.885 -1.0035  0.5484 -0.2673
  179SLPC  C21120383   1.463   5.493   4.080 -0.0118  0.1392 -0.1757
  179SLPC  H11R20384   1.372   5.435   4.103  1.1941 -1.8884 -0.2463
  179SLPC  H11S20385   1.449   5.591   4.130  0.8849 -0.9346  2.3344
  179SLPC  C21220386   1.576   5.413   4.145  0.5056 -0.3366  0.0236
  179SLPC  H12R20387   1.593   5.319   4.092 -0.5939  0.3055 -1.5579
  179SLPC  C21320388   1.643   5.438   4.265 -0.0067  0.1919  0.0945
  179SLPC  H13R20389   1.721   5.372   4.305 -2.2030 -1.9904  1.0442
  179SLPC  C21420390   1.604   5.547   4.358 -0.0411 -0.5765  0.2112
  179SLPC  H14R20391   1.522   5.612   4.323 -0.4046 -2.1625 -2.1378
  179SLPC  H14S20392   1.699   5.602   4.375 -0.0773 -1.0772  2.2959
  179SLPC  C21520393   1.562   5.496   4.501  0.5140  0.5607 -0.2136
  179SLPC  H15R20394   1.539   5.585   4.563 -3.1054  0.2550 -0.9088
  179SLPC  H15S20395   1.649   5.437   4.537  0.2273 -0.9767 -1.8808
  179SLPC  C21620396   1.436   5.415   4.491  0.2391  0.7407 -0.6656
  179SLPC  H16R20397   1.439   5.334   4.567  1.7741  2.4919  1.2516
  179SLPC  H16S20398   1.418   5.374   4.389 -2.7248 -0.0925  0.1013
  179SLPC  C21720399   1.306   5.492   4.502 -0.1563  0.6112 -0.4241
  179SLPC  H17R20400   1.290   5.540   4.403 -1.1970 -0.5106 -0.8171
  179SLPC  H17S20401   1.311   5.577   4.573 -0.3501 -0.4776  0.9286
  179SLPC  C21820402   1.177   5.409   4.534 -0.2126  0.2533 -0.6746
  179SLPC  H18R20403   1.180   5.352   4.629 -1.0641 -1.0029 -1.3702
  179SLPC  H18S20404   1.140   5.333   4.462 -0.3937  0.6478 -1.0004
  179SLPC  H18T20405   1.098   5.484   4.553  0.2690  0.4244  0.8168
  179SLPC   C3320406   0.903   4.687   3.529  0.6559 -0.8598  0.6441
  179SLPC   H3X20407   0.947   4.774   3.476 -0.6102 -0.7645 -0.2904
  179SLPC   H3Y20408   0.985   4.613   3.536  1.8997  0.2801 -0.9301
  179SLPC   C3420409   0.856   4.738   3.669  0.4972 -0.1455  0.1356
  179SLPC   H4X20410   0.801   4.658   3.723  0.9036  0.1395  0.9827
  179SLPC   H4Y20411   0.784   4.823   3.663 -1.1090 -1.4286  0.4703
  179SLPC   C3520412   0.974   4.781   3.758 -0.7618  0.9328 -0.1113
  179SLPC   H5X20413   1.040   4.692   3.749 -1.4097  0.5455 -1.2615
  179SLPC   H5Y20414   1.027   4.864   3.706  0.8752 -0.5530 -0.9508
  179SLPC   C3620415   0.934   4.808   3.903  0.3578  0.0047  0.3572
  179SLPC   H6X20416   0.893   4.711   3.938  1.9663 -0.8105  0.0991
  179SLPC   H6Y20417   0.850   4.878   3.889 -1.7880 -2.4571  0.1306
  179SLPC   C3720418   1.048   4.843   3.996  0.6841 -0.0854  0.1938
  179SLPC   H7X20419   0.997   4.854   4.095  1.4926  1.3425  0.4663
  179SLPC   H7Y20420   1.082   4.940   3.955  1.8074 -1.2278 -1.7033
  179SLPC   C3820421   1.165   4.749   4.000 -0.7290  0.4285  0.4422
  179SLPC   H8X20422   1.213   4.744   3.900  0.7207 -0.4212  1.1362
  179SLPC   H8Y20423   1.127   4.645   4.011  0.3273 -0.1199 -0.8197
  179SLPC   C3920424   1.265   4.783   4.109 -1.1587 -0.4020 -0.2175
  179SLPC   H9X20425   1.319   4.689   4.136 -2.6207 -1.6120 -1.3214
  179SLPC   H9Y20426   1.209   4.818   4.198 -0.9346 -1.5502  0.4059
  179SLPC  C31020427   1.355   4.900   4.064 -0.0123 -0.0119  0.7521
  179SLPC  H10X20428   1.286   4.981   4.031 -2.7568 -1.9701  1.2872
  179SLPC  H10Y20429   1.402   4.864   3.971 -1.2473  0.5565 -0.1248
  179SLPC  C31120430   1.459   4.952   4.160  0.6500 -0.1409  0.2791
  179SLPC  H11X20431   1.533   5.016   4.107  0.5085 -0.4723 -0.3166
  179SLPC  H11Y20432   1.513   4.861   4.195 -0.0167 -0.9114 -0.6732
  179SLPC  C31220433   1.394   5.031   4.267 -0.5831  0.1162  0.3854
  179SLPC  H12X20434   1.308   4.977   4.314  2.1344 -1.1865  4.3711
  179SLPC  H12Y20435   1.350   5.120   4.218 -0.6819  0.2114  0.6420
  179SLPC  C31320436   1.485   5.083   4.376  0.1641  0.4022 -0.1330
  179SLPC  H13X20437   1.427   5.142   4.450 -1.0991  0.6127 -1.2660
  179SLPC  H13Y20438   1.562   5.149   4.332  0.8011 -1.9270 -2.8674
  179SLPC  C31420439   1.555   4.975   4.456 -0.3869  0.2040 -0.4254
  179SLPC  H14X20440   1.650   4.944   4.406  0.0322  0.0513  0.4325
  179SLPC  H14Y20441   1.489   4.885   4.454  0.1480 -0.2802  1.2792
  179SLPC  C31520442   1.593   5.022   4.604 -0.4553  0.1182  0.1310
  179SLPC  H15X20443   1.507   5.010   4.673  0.9757  0.1988  2.0003
  179SLPC  H15Y20444   1.621   5.129   4.591  0.6763 -0.1255  0.4481
  179SLPC  C31620445   1.690   4.936   4.685 -0.6953  0.0864  0.1410
  179SLPC  H16X20446   1.798   4.930   4.658 -0.7580 -0.6028  0.0288
  179SLPC  H16Y20447   1.655   4.831   4.695 -2.6076  0.4511 -1.8655
  179SLPC  C31720448   1.707   4.989   4.830  0.2622  0.4746 -0.4411
  179SLPC  H17X20449   1.607   5.002   4.876  0.8077  2.4167  0.2646
  179SLPC  H17Y20450   1.748   5.092   4.821  0.0085  0.4204 -3.1519
  179SLPC  C31820451   1.787   4.886   4.913  0.4549 -0.5388  0.2782
  179SLPC  H18X20452   1.741   4.785   4.910  0.8284 -0.7473  1.1168
  179SLPC  H18Y20453   1.794   4.925   5.017  0.3754  1.4483 -0.4380
  179SLPC  H18Z20454   1.895   4.879   4.887  1.3254  1.8377  2.7789
  180SLPC     N20455   6.678   0.686   2.487 -0.3225 -0.1550 -0.2653
  180SLPC   C1320456   6.669   0.835   2.477  0.3415 -0.2491 -0.5784
  180SLPC  H13A20457   6.627   0.866   2.383  0.9529  0.6730 -0.5570
  180SLPC  H13B20458   6.612   0.879   2.558  2.3579  0.3400  0.5974
  180SLPC  H13C20459   6.769   0.877   2.479  1.5419 -2.8571 -0.6324
  180SLPC   C1420460   6.730   0.648   2.618  0.1142  0.7476  0.2555
  180SLPC  H14A20461   6.737   0.541   2.616 -0.0258  0.6897 -3.0326
  180SLPC  H14B20462   6.832   0.674   2.640 -0.0670  0.2907  1.6920
  180SLPC  H14C20463   6.663   0.684   2.694  0.5952  2.4902 -0.0994
  180SLPC   C1520464   6.767   0.648   2.381 -0.1815 -0.0279  0.8262
  180SLPC  H15A20465   6.785   0.542   2.372  1.1915  0.1338  1.3658
  180SLPC  H15B20466   6.730   0.675   2.284 -0.6617 -1.3132  0.6372
  180SLPC  H15C20467   6.864   0.693   2.396 -1.0242  2.0572  0.3304
  180SLPC   C1220468   6.529   0.635   2.470 -0.9462  0.3426  0.1227
  180SLPC  H12A20469   6.497   0.660   2.370 -1.8828 -2.0072 -0.2284
  180SLPC  H12B20470   6.468   0.697   2.534  2.2586  2.0045  1.8453
  180SLPC   C1120471   6.507   0.479   2.457  0.0687  0.1934  0.2431
  180SLPC  H11A20472   6.401   0.455   2.434  0.6419 -3.7952  0.9263
  180SLPC  H11B20473   6.514   0.448   2.563 -1.3024  0.1830  0.3447
  180SLPC     P20474   6.619   0.261   2.375 -0.3706 -0.3660  0.4084
  180SLPC   O1320475   6.490   0.193   2.351 -0.6044  0.1639  0.2451
  180SLPC   O1420476   6.734   0.223   2.285  0.4242  0.3138  0.2533
  180SLPC   O1220477   6.587   0.415   2.355 -0.4274  1.4074 -0.2663
  180SLPC   O1120478   6.660   0.237   2.519  0.4048 -0.3162 -0.0925
  180SLPC    C120479   6.793   0.291   2.551  0.3081 -0.0530 -0.6447
  180SLPC    HA20480   6.866   0.218   2.508 -2.2307 -2.1620 -1.6755
  180SLPC    HB20481   6.813   0.395   2.519  1.6054  0.4513  1.6317
  180SLPC    C220482   6.805   0.288   2.712 -0.4764 -0.0283  0.2330
  180SLPC    HS20483   6.808   0.181   2.738  0.4058 -0.5419 -1.7878
  180SLPC   O2120484   6.695   0.363   2.763  0.2920  0.5751 -0.0147
  180SLPC   C2120485   6.651   0.335   2.891 -0.6108  0.1958 -0.0487
  180SLPC   O2220486   6.705   0.260   2.969 -0.5404  0.2593  0.3284
  180SLPC   C2220487   6.521   0.416   2.913 -0.1037  0.2333  0.7585
  180SLPC   H2R20488   6.517   0.491   2.831  0.4457 -1.0779 -0.5040
  180SLPC   H2S20489   6.435   0.348   2.897 -0.8243  0.5470  2.8961
  180SLPC    C320490   6.948   0.357   2.746 -0.4039 -0.3716 -0.0011
  180SLPC    HX20491   6.941   0.458   2.698  1.3630 -1.4077 -2.7357
  180SLPC    HY20492   7.023   0.300   2.687 -0.4070  0.1278 -0.5025
  180SLPC   O3120493   6.978   0.368   2.889  0.0206  0.0980 -0.4316
  180SLPC   C3120494   7.032   0.253   2.928 -0.4902 -0.4279  0.6104
  180SLPC   O3220495   7.042   0.152   2.859  0.1805 -0.1557  0.0597
  180SLPC   C3220496   7.081   0.271   3.069  0.3514  1.0876 -0.4081
  180SLPC   H2X20497   7.002   0.223   3.131  1.8916  0.7939  1.4341
  180SLPC   H2Y20498   7.089   0.378   3.096 -1.2743  1.2734 -0.5655
  180SLPC   C2320499   6.520   0.487   3.053 -0.1950 -0.4787  0.4117
  180SLPC   H3R20500   6.441   0.564   3.044  0.9078  0.5496 -0.8726
  180SLPC   H3S20501   6.615   0.539   3.079 -1.6469  1.9029  1.3757
  180SLPC   C2420502   6.477   0.401   3.167  0.4024  0.2052  0.6570
  180SLPC   H4R20503   6.536   0.307   3.153  0.2399  0.1860  0.1045
  180SLPC   H4S20504   6.376   0.364   3.141  0.2656  1.8535 -1.3965
  180SLPC   C2520505   6.512   0.468   3.298 -0.6300 -0.2381  0.3389
  180SLPC   H5R20506   6.482   0.575   3.295  1.3107  0.3192 -0.4870
  180SLPC   H5S20507   6.623   0.464   3.301 -0.5794  0.4247 -0.3170
  180SLPC   C2620508   6.461   0.382   3.416 -0.0531  0.0561  0.4095
  180SLPC   H6R20509   6.524   0.291   3.429  0.1398 -0.0055 -0.8387
  180SLPC   H6S20510   6.359   0.344   3.394  0.8348 -1.7133 -0.9572
  180SLPC   C2720511   6.460   0.466   3.545  0.2652  0.0854  0.7397
  180SLPC   H7R20512   6.373   0.534   3.545  1.0599  1.1500 -0.0269
  180SLPC   H7S20513   6.548   0.531   3.563 -1.8900  3.2043  0.6687
  180SLPC   C2820514   6.444   0.360   3.663 -0.3085 -0.2882  0.2477
  180SLPC   H8R20515   6.448   0.415   3.759 -0.8549 -1.4945  0.9739
  180SLPC   H8S20516   6.533   0.293   3.663 -0.5032 -0.5591  1.3817
  180SLPC   C2920517   6.322   0.277   3.661 -0.0838  0.2873  0.4222
  180SLPC   H9R20518   6.256   0.282   3.572 -0.9140  0.4497  1.0331
  180SLPC  C21020519   6.270   0.198   3.756  0.9822 -0.0389 -0.6410
  180SLPC  H10R20520   6.173   0.149   3.736 -0.7695  1.9490  2.2688
  180SLPC  C21120521   6.331   0.179   3.894  0.9714 -0.4998 -0.6030
  180SLPC  H11R20522   6.268   0.236   3.966  1.1951 -1.5107  0.4385
  180SLPC  H11S20523   6.435   0.220   3.895  0.4964  0.7818  0.9778
  180SLPC  C21220524   6.323   0.037   3.951 -0.9600  0.1800  0.3351
  180SLPC  H12R20525   6.320  -0.035   3.868 -2.8253 -0.4474  0.8923
  180SLPC  C21320526   6.341  -0.005   4.077 -0.0624  0.7271  0.7677
  180SLPC  H13R20527   6.341  -0.115   4.082  0.0466  0.6152 -1.0573
  180SLPC  C21420528   6.345   0.089   4.193 -0.6036 -0.1447  0.0431
  180SLPC  H14R20529   6.352   0.197   4.168 -1.3655 -0.3497 -1.1133
  180SLPC  H14S20530   6.427   0.052   4.258 -0.3779 -0.5235 -0.4530
  180SLPC  C21520531   6.229   0.086   4.283  0.6827 -0.0705  0.1738
  180SLPC  H15R20532   6.135   0.094   4.224  0.9760 -1.2271 -0.4727
  180SLPC  H15S20533   6.233   0.180   4.342  0.5970  0.7030 -1.0157
  180SLPC  C21620534   6.220  -0.032   4.385  0.3757 -0.0796 -0.3190
  180SLPC  H16R20535   6.299  -0.012   4.461  0.0604  0.1969 -0.0591
  180SLPC  H16S20536   6.235  -0.129   4.333  2.0438 -0.9727  1.6709
  180SLPC  C21720537   6.092  -0.016   4.466 -0.3739  0.4866 -0.5414
  180SLPC  H17R20538   6.012  -0.060   4.403  1.2047 -0.6932 -1.8090
  180SLPC  H17S20539   6.061   0.085   4.502  1.8343  1.3311 -0.8844
  180SLPC  C21820540   6.109  -0.103   4.591  0.3689 -0.5014 -0.3219
  180SLPC  H18R20541   6.008  -0.117   4.637  0.3492  2.0088  0.5664
  180SLPC  H18S20542   6.184  -0.062   4.662 -0.8868 -2.3419  2.2308
  180SLPC  H18T20543   6.131  -0.200   4.543 -1.2683 -1.6704  1.1609
  180SLPC   C3320544   7.215   0.194   3.088  0.6196  0.0045  0.3030
  180SLPC   H3X20545   7.291   0.242   3.023 -0.6836  1.8260  0.0451
  180SLPC   H3Y20546   7.211   0.084   3.070  1.7274 -0.5775  3.1150
  180SLPC   C3420547   7.266   0.209   3.227 -0.5274 -0.0299  0.0678
  180SLPC   H4X20548   7.267   0.317   3.255  0.3870 -0.1628  0.6072
  180SLPC   H4Y20549   7.373   0.178   3.229 -0.9656 -1.7846 -1.3367
  180SLPC   C3520550   7.200   0.121   3.332  0.0463 -0.3652 -0.6212
  180SLPC   H5X20551   7.223   0.014   3.316  0.4192 -0.2235 -1.0700
  180SLPC   H5Y20552   7.089   0.122   3.334  0.0584 -0.4916  0.4417
  180SLPC   C3620553   7.256   0.163   3.469  0.1842 -0.1696 -0.3806
  180SLPC   H6X20554   7.244   0.273   3.484 -0.2380 -0.5171  2.2372
  180SLPC   H6Y20555   7.362   0.135   3.484 -0.0846 -0.3263  1.3689
  180SLPC   C3720556   7.166   0.102   3.575 -0.9624 -0.1025  0.4304
  180SLPC   H7X20557   7.173  -0.009   3.576 -0.0338 -0.0543  1.4470
  180SLPC   H7Y20558   7.058   0.120   3.555 -1.4625 -2.3283  0.8817
  180SLPC   C3820559   7.199   0.161   3.710 -1.1355  0.7667 -0.1950
  180SLPC   H8X20560   7.191   0.271   3.720  0.8788  0.9290 -0.0661
  180SLPC   H8Y20561   7.306   0.143   3.734 -1.6575 -0.6496  1.2779
  180SLPC   C3920562   7.124   0.079   3.820 -1.0473 -0.1318 -0.1160
  180SLPC   H9X20563   7.154  -0.026   3.799  0.4148  0.1769  0.2897
  180SLPC   H9Y20564   7.013   0.086   3.813 -1.2196 -0.2941  1.9388
  180SLPC  C31020565   7.169   0.118   3.962  0.4264 -0.4717 -0.3403
  180SLPC  H10X20566   7.150   0.223   3.992  0.4791 -1.0873  2.0056
  180SLPC  H10Y20567   7.279   0.108   3.969  0.6335  1.8164  0.6203
  180SLPC  C31120568   7.114   0.024   4.070 -0.3315 -0.1710  0.2795
  180SLPC  H11X20569   7.127  -0.084   4.048 -1.4406 -0.2634  0.0158
  180SLPC  H11Y20570   7.004   0.035   4.073 -0.6739 -1.9014 -2.3032
  180SLPC  C31220571   7.174   0.066   4.207  0.6112 -0.1850  0.5142
  180SLPC  H12X20572   7.144   0.170   4.233  1.0499  0.3620 -1.0153
  180SLPC  H12Y20573   7.285   0.060   4.202  0.5604 -0.3375 -1.2678
  180SLPC  C31320574   7.116  -0.031   4.305  0.7194 -1.0688  0.3988
  180SLPC  H13X20575   7.164  -0.131   4.292 -0.4282 -1.6276  0.3053
  180SLPC  H13Y20576   7.010  -0.060   4.290  0.9233 -2.3073  1.1861
  180SLPC  C31420577   7.130   0.016   4.447 -0.1152  0.2582 -0.1697
  180SLPC  H14X20578   7.107   0.124   4.434  2.2580  0.7222 -1.1085
  180SLPC  H14Y20579   7.228   0.005   4.497  1.5389 -1.0807 -3.3760
  180SLPC  C31520580   7.025  -0.058   4.535  0.3982 -0.3377  0.2549
  180SLPC  H15X20581   7.051  -0.165   4.520  2.7626  0.1553  0.4232
  180SLPC  H15Y20582   6.924  -0.050   4.491  0.1785 -3.6016 -0.1130
  180SLPC  C31620583   7.035  -0.029   4.685 -0.0039  0.3227 -0.5355
  180SLPC  H16X20584   7.046   0.080   4.701  0.0318 -0.0678  2.8260
  180SLPC  H16Y20585   7.123  -0.083   4.726 -0.4687 -0.3520 -0.4013
  180SLPC  C31720586   6.914  -0.095   4.763  0.1778  0.0349  0.3047
  180SLPC  H17X20587   6.930  -0.204   4.764  1.3573  0.1173 -2.4416
  180SLPC  H17Y20588   6.825  -0.082   4.698  0.0623  1.4376  0.6899
  180SLPC  C31820589   6.887  -0.033   4.899  0.3929  0.0179  0.1962
  180SLPC  H18X20590   6.854   0.073   4.893  1.2558  0.1901 -2.6282
  180SLPC  H18Y20591   6.976  -0.026   4.965 -0.2348  1.8760  0.9165
  180SLPC  H18Z20592   6.823  -0.102   4.958  0.6941  0.1814  0.7235
  181SLPC     N20593   3.748   5.331   2.248  0.1714 -0.0857 -0.3318
  181SLPC   C1320594   3.618   5.386   2.311 -0.4732  0.0971  0.2860
  181SLPC  H13A20595   3.567   5.446   2.237  2.2025 -0.4607 -2.1920
  181SLPC  H13B20596   3.548   5.314   2.349 -1.2963 -0.0643 -1.4434
  181SLPC  H13C20597   3.643   5.449   2.395  0.3099  1.1670 -0.7150
  181SLPC   C1420598   3.840   5.447   2.225  0.5358 -0.3502 -0.0949
  181SLPC  H14A20599   3.795   5.516   2.155 -0.5755 -0.6246  0.3387
  181SLPC  H14B20600   3.855   5.516   2.307 -1.1429 -0.2963  0.1920
  181SLPC  H14C20601   3.937   5.413   2.190 -0.0768  0.2657 -2.5960
  181SLPC   C1520602   3.714   5.270   2.117  0.5708  0.1549 -0.2485
  181SLPC  H15A20603   3.644   5.191   2.134 -0.3112  0.7078 -1.2508
  181SLPC  H15B20604   3.660   5.339   2.054 -1.5010 -0.6894  0.5266
  181SLPC  H15C20605   3.803   5.239   2.063  0.6707  1.2270 -0.7235
  181SLPC   C1220606   3.800   5.221   2.346  0.0517  0.8094  0.3930
  181SLPC  H12A20607   3.715   5.170   2.389  0.5066  1.4861  2.1374
  181SLPC  H12B20608   3.855   5.273   2.423  0.3472  0.8528  0.1579
  181SLPC   C1120609   3.898   5.109   2.280 -0.1695  0.5681 -0.1102
  181SLPC  H11A20610   3.852   5.059   2.193  2.3317 -1.7319 -0.2266
  181SLPC  H11B20611   3.917   5.023   2.347  0.7045 -1.1239 -2.4236
  181SLPC     P20612   4.140   5.199   2.320  0.1800  0.2055  0.1080
  181SLPC   O1320613   4.224   5.076   2.334  0.4434 -0.0923  0.0254
  181SLPC   O1420614   4.198   5.330   2.270 -0.5422 -0.2304  0.0200
  181SLPC   O1220615   4.020   5.163   2.229  0.1962  0.4005  0.6058
  181SLPC   O1120616   4.073   5.216   2.463 -0.0649 -0.2102 -0.4201
  181SLPC    C120617   4.120   5.333   2.537 -0.2286  0.4086  0.0415
  181SLPC    HA20618   4.113   5.427   2.478 -3.2822  0.3133  0.0912
  181SLPC    HB20619   4.048   5.345   2.620 -0.5013  1.2841 -0.3154
  181SLPC    C220620   4.266   5.314   2.597  0.2025 -0.1941  0.4009
  181SLPC    HS20621   4.331   5.286   2.512 -0.2288  1.8706 -0.6771
  181SLPC   O2120622   4.268   5.202   2.686 -0.9598  0.1096 -0.0206
  181SLPC   C2120623   4.386   5.148   2.715  0.0399 -0.5601 -0.2128
  181SLPC   O2220624   4.491   5.178   2.664 -0.3287  0.5424  0.8917
  181SLPC   C2220625   4.366   5.032   2.810 -0.0004  0.3993  0.9389
  181SLPC   H2R20626   4.259   5.004   2.821  0.4120 -1.4948  0.4624
  181SLPC   H2S20627   4.412   4.944   2.760  0.9597  1.3422  0.1119
  181SLPC    C320628   4.308   5.456   2.664 -0.1348  0.1420  0.2069
  181SLPC    HX20629   4.227   5.470   2.738 -1.8233 -0.4896 -1.4455
  181SLPC    HY20630   4.324   5.533   2.585  2.4559  0.1592  0.6606
  181SLPC   O3120631   4.440   5.450   2.723 -0.5869  0.1475  0.0653
  181SLPC   C3120632   4.455   5.541   2.816 -0.1412  0.1096  0.3888
  181SLPC   O3220633   4.376   5.629   2.842 -0.2396 -0.4552  0.9973
  181SLPC   C3220634   4.585   5.503   2.891 -0.3475  0.4457 -0.0506
  181SLPC   H2X20635   4.666   5.495   2.814  1.3094 -0.7387  1.7372
  181SLPC   H2Y20636   4.561   5.401   2.928  2.4005 -0.1038  0.4767
  181SLPC   C2320637   4.422   5.058   2.955  0.2538 -0.0668  0.1714
  181SLPC   H3R20638   4.517   5.116   2.952  0.8254 -0.8472  1.8591
  181SLPC   H3S20639   4.453   4.962   3.002 -2.7067 -1.7664 -1.0472
  181SLPC   C2420640   4.325   5.142   3.039 -0.0635  0.0737  0.0209
  181SLPC   H4R20641   4.225   5.093   3.050  0.2151 -0.4839  0.1184
  181SLPC   H4S20642   4.331   5.235   2.979 -2.5016 -0.1336 -0.6851
  181SLPC   C2520643   4.379   5.173   3.173 -0.1308  0.4535 -0.0978
  181SLPC   H5R20644   4.330   5.270   3.193  0.4229  0.4394  1.4450
  181SLPC   H5S20645   4.490   5.179   3.167  0.0379 -1.2794  0.6403
  181SLPC   C2620646   4.339   5.066   3.276 -0.0237 -0.2750 -0.3252
  181SLPC   H6R20647   4.416   4.987   3.265  1.1029  0.8889 -1.1424
  181SLPC   H6S20648   4.241   5.015   3.260 -0.6997  0.4791  1.2183
  181SLPC   C2720649   4.339   5.129   3.419  0.4124  0.0707  0.2281
  181SLPC   H7R20650   4.407   5.216   3.411 -0.2227  0.4229 -2.1181
  181SLPC   H7S20651   4.384   5.061   3.494 -1.2963 -1.3631  0.0097
  181SLPC   C2820652   4.211   5.180   3.471  0.6370  0.3608 -0.0866
  181SLPC   H8R20653   4.165   5.236   3.386  0.1294  1.5730  0.9640
  181SLPC   H8S20654   4.230   5.254   3.551  0.0205 -0.1699  0.5565
  181SLPC   C2920655   4.110   5.072   3.514  0.8929 -0.7699 -0.1935
  181SLPC   H9R20656   4.061   5.021   3.429 -0.1011  0.0392 -0.1156
  181SLPC  C21020657   4.079   5.039   3.640  0.2993 -0.0186 -0.1821
  181SLPC  H10R20658   4.016   4.950   3.654  1.3156 -0.7563 -0.2381
  181SLPC  C21120659   4.131   5.105   3.767 -0.5875 -0.4368  0.0471
  181SLPC  H11R20660   4.074   5.072   3.856  1.0689  1.8235  2.0493
  181SLPC  H11S20661   4.096   5.210   3.765  2.9834  0.8776 -0.4956
  181SLPC  C21220662   4.276   5.100   3.804 -0.3225 -0.3986 -0.0348
  181SLPC  H12R20663   4.345   5.130   3.723 -0.4708 -0.2178 -0.0969
  181SLPC  C21320664   4.340   5.074   3.921 -0.4436 -0.3679 -0.1897
  181SLPC  H13R20665   4.449   5.083   3.913 -0.6258  0.1691 -4.4753
  181SLPC  C21420666   4.287   5.045   4.054  0.0291  0.7903 -0.0662
  181SLPC  H14R20667   4.198   4.978   4.051  1.5002 -1.2302 -2.2649
  181SLPC  H14S20668   4.252   5.135   4.110 -3.9107 -1.8668  2.2583
  181SLPC  C21520669   4.393   4.969   4.140  0.0801 -0.6485 -0.0847
  181SLPC  H15R20670   4.475   5.043   4.148 -1.9014  1.6395  0.3668
  181SLPC  H15S20671   4.422   4.884   4.076 -3.0109 -0.3442 -2.1226
  181SLPC  C21620672   4.353   4.930   4.280 -0.2596  0.1924 -0.0776
  181SLPC  H16R20673   4.447   4.887   4.322 -1.1967 -1.1169  0.7555
  181SLPC  H16S20674   4.297   4.834   4.272 -0.7803  0.3325  1.4681
  181SLPC  C21720675   4.268   5.023   4.367 -0.1192 -0.5091  0.2039
  181SLPC  H17R20676   4.191   5.062   4.298 -0.4839 -1.7032 -0.0962
  181SLPC  H17S20677   4.333   5.108   4.395  2.6498 -1.6519 -2.2551
  181SLPC  C21820678   4.216   4.961   4.487  0.1743  0.0584  0.3923
  181SLPC  H18R20679   4.168   5.031   4.559  1.6745  0.3929  1.1083
  181SLPC  H18S20680   4.295   4.908   4.546  0.5213  1.4130  1.1992
  181SLPC  H18T20681   4.144   4.880   4.462  1.1031 -0.2615 -1.3985
  181SLPC   C3320682   4.610   5.573   3.022  0.3610 -0.4291  0.2520
  181SLPC   H3X20683   4.566   5.674   3.010  2.6601  0.5726 -0.2550
  181SLPC   H3Y20684   4.719   5.594   3.017  0.2138  0.2006 -0.5585
  181SLPC   C3420685   4.574   5.493   3.147  0.0290 -0.3523 -0.1552
  181SLPC   H4X20686   4.647   5.410   3.160 -0.2689 -0.2241  3.4625
  181SLPC   H4Y20687   4.475   5.444   3.137 -0.0643 -0.4147  0.9736
  181SLPC   C3520688   4.584   5.566   3.283  0.1158  0.5088 -0.4869
  181SLPC   H5X20689   4.518   5.655   3.289  0.3986  0.7267 -0.5503
  181SLPC   H5Y20690   4.688   5.606   3.285  0.1169  0.5013 -0.4005
  181SLPC   C3620691   4.555   5.484   3.407  0.3394 -0.0101 -0.1147
  181SLPC   H6X20692   4.621   5.397   3.421 -3.0237 -2.7683 -0.1017
  181SLPC   H6Y20693   4.456   5.434   3.394 -0.6632  1.3386  1.7747
  181SLPC   C3720694   4.555   5.561   3.537  0.1523 -0.2178 -0.2706
  181SLPC   H7X20695   4.479   5.643   3.536  2.3642  1.9504 -1.3955
  181SLPC   H7Y20696   4.647   5.623   3.543 -1.0693  1.5625  1.6548
  181SLPC   C3820697   4.522   5.468   3.657 -0.6130 -0.3744 -0.1167
  181SLPC   H8X20698   4.610   5.401   3.656 -1.6189 -1.7917  1.2533
  181SLPC   H8Y20699   4.431   5.416   3.620  0.0638 -0.4520 -1.7210
  181SLPC   C3920700   4.502   5.553   3.785 -0.0329  0.0815 -0.7627
  181SLPC   H9X20701   4.418   5.627   3.782 -0.1759 -0.0857 -0.9895
  181SLPC   H9Y20702   4.591   5.618   3.790 -0.1628  0.2635 -0.8004
  181SLPC  C31020703   4.494   5.458   3.905  0.3962  0.6102 -0.0829
  181SLPC  H10X20704   4.588   5.399   3.900 -1.0932 -2.1859  1.7183
  181SLPC  H10Y20705   4.417   5.384   3.874  1.3238 -0.2080 -0.4854
  181SLPC  C31120706   4.478   5.501   4.045 -0.1121 -0.2850  0.3760
  181SLPC  H11X20707   4.388   5.566   4.053 -1.0825 -1.3727 -1.1433
  181SLPC  H11Y20708   4.561   5.564   4.085  0.4349  1.1162 -2.7185
  181SLPC  C31220709   4.482   5.376   4.132  0.7044  0.4759  0.4256
  181SLPC  H12X20710   4.579   5.326   4.110  1.0578  0.2780  2.2816
  181SLPC  H12Y20711   4.402   5.305   4.102 -0.6757  2.8329 -1.9524
  181SLPC  C31320712   4.480   5.409   4.280 -0.0276  0.3904  0.0108
  181SLPC  H13X20713   4.566   5.477   4.296  0.2757  0.5472 -1.9716
  181SLPC  H13Y20714   4.501   5.314   4.333  0.5344  2.0831  3.0186
  181SLPC  C31420715   4.352   5.481   4.327 -0.0755  0.7387  0.3663
  181SLPC  H14X20716   4.257   5.424   4.324  0.6627 -0.6103  1.5452
  181SLPC  H14Y20717   4.327   5.574   4.271 -1.5973  0.0664 -0.1171
  181SLPC  C31520718   4.362   5.512   4.476 -0.0864 -0.4166  0.4338
  181SLPC  H15X20719   4.282   5.587   4.489 -1.5659 -1.9048  0.2371
  181SLPC  H15Y20720   4.462   5.557   4.493 -1.6925  3.1857  1.2245
  181SLPC  C31620721   4.340   5.398   4.567 -1.0486  0.3787  0.1470
  181SLPC  H16X20722   4.424   5.327   4.552 -0.0195  1.5819  0.1099
  181SLPC  H16Y20723   4.248   5.342   4.539  0.4245 -0.9059 -2.4777
  181SLPC  C31720724   4.344   5.436   4.715 -1.0022 -0.0626  0.5314
  181SLPC  H17X20725   4.268   5.513   4.738 -0.1772  0.8937  0.1374
  181SLPC  H17Y20726   4.442   5.479   4.746 -0.5501 -0.1672 -0.6899
  181SLPC  C31820727   4.310   5.312   4.803 -0.2192 -0.3884 -0.4647
  181SLPC  H18X20728   4.314   5.352   4.907 -0.9163 -2.1062  0.2596
  181SLPC  H18Y20729   4.380   5.228   4.784  1.2649  1.2628 -2.8433
  181SLPC  H18Z20730   4.208   5.275   4.779 -0.7479  0.8703 -0.2132
  182SLPC     N20731   1.535   4.595   2.730 -0.1245 -0.8190  0.4273
  182SLPC   C1320732   1.435   4.520   2.805 -0.0472  0.1465  0.5286
  182SLPC  H13A20733   1.375   4.458   2.739 -0.7755  1.9561 -0.5952
  182SLPC  H13B20734   1.488   4.459   2.876 -0.9843  1.7098  2.6762
  182SLPC  H13C20735   1.370   4.581   2.866 -3.6601 -2.7048 -0.1062
  182SLPC   C1420736   1.477   4.656   2.608  0.1210 -0.0928  0.7819
  182SLPC  H14A20737   1.421   4.746   2.626  0.7646  0.4340  0.2128
  182SLPC  H14B20738   1.559   4.694   2.548 -0.2469 -0.8453 -0.2292
  182SLPC  H14C20739   1.413   4.598   2.543 -1.7584  0.6031  1.9301
  182SLPC   C1520740   1.644   4.500   2.686 -0.3681  0.2459  0.3577
  182SLPC  H15A20741   1.724   4.559   2.644 -1.0470  1.3119  0.5074
  182SLPC  H15B20742   1.674   4.436   2.767  1.8050  0.5428 -0.1720
  182SLPC  H15C20743   1.609   4.444   2.600  0.2913  1.3890 -0.6924
  182SLPC   C1220744   1.592   4.699   2.830 -0.2772  0.0297  0.2559
  182SLPC  H12A20745   1.636   4.647   2.914 -0.9600 -0.3026  0.4144
  182SLPC  H12B20746   1.513   4.757   2.874 -1.7579 -1.1635 -0.7187
  182SLPC   C1120747   1.701   4.786   2.773  0.6297 -0.0178 -0.0968
  182SLPC  H11A20748   1.733   4.859   2.851 -2.5049  0.4358  0.8883
  182SLPC  H11B20749   1.665   4.852   2.692  3.1959  1.8570  0.1728
  182SLPC     P20750   1.924   4.654   2.825  0.0790  0.2195  0.5134
  182SLPC   O1320751   1.962   4.525   2.767  0.2106 -0.4500  0.2627
  182SLPC   O1420752   2.031   4.756   2.844 -0.4013 -0.3240 -0.3525
  182SLPC   O1220753   1.819   4.713   2.723  0.2179  0.6065 -0.4812
  182SLPC   O1120754   1.849   4.629   2.959 -1.1680 -0.1948 -0.1546
  182SLPC    C120755   1.849   4.732   3.061 -0.0358  0.3410 -0.0429
  182SLPC    HA20756   1.871   4.835   3.025 -0.8021  0.4527 -0.2107
  182SLPC    HB20757   1.749   4.731   3.109 -1.1913 -0.2380 -2.3246
  182SLPC    C220758   1.967   4.707   3.159  0.5216  0.0415  0.5510
  182SLPC    HS20759   2.059   4.697   3.098  0.3756 -0.1484  0.3633
  182SLPC   O2120760   1.936   4.589   3.229 -0.1996  1.1886 -0.1162
  182SLPC   C2120761   2.052   4.522   3.266  0.1842  0.0778 -0.1516
  182SLPC   O2220762   2.163   4.567   3.257 -0.8880 -0.0542 -0.0603
  182SLPC   C2220763   2.015   4.392   3.342  0.7495 -0.1788  0.4755
  182SLPC   H2R20764   1.971   4.324   3.265 -0.8524  0.8680  0.4165
  182SLPC   H2S20765   2.105   4.356   3.396  1.1830  0.2181  0.0329
  182SLPC    C320766   1.982   4.833   3.248  0.1636  0.1424 -0.3688
  182SLPC    HX20767   2.001   4.914   3.175  0.0705 -0.6729 -1.3212
  182SLPC    HY20768   2.072   4.826   3.313  1.2648 -2.0871 -1.9713
  182SLPC   O3120769   1.856   4.849   3.311  0.2976 -0.1350  0.7670
  182SLPC   C3120770   1.846   4.802   3.429 -0.2099 -0.1243  0.5445
  182SLPC   O3220771   1.935   4.756   3.495  0.2429 -0.3215 -0.5259
  182SLPC   C3220772   1.700   4.804   3.469 -0.5964 -0.1954  0.0039
  182SLPC   H2X20773   1.646   4.764   3.381 -0.7035  0.0277 -0.0339
  182SLPC   H2Y20774   1.654   4.903   3.490 -0.0968  0.1539 -0.5186
  182SLPC   C2320775   1.906   4.407   3.450 -0.9887  0.3977 -0.2673
  182SLPC   H3R20776   1.800   4.405   3.417 -0.7474  0.1275 -1.0381
  182SLPC   H3S20777   1.933   4.499   3.506  1.2848  0.2824 -1.0688
  182SLPC   C2420778   1.912   4.286   3.555 -0.1529 -0.0033 -0.8791
  182SLPC   H4R20779   2.009   4.281   3.610 -0.2954  1.4299 -0.4607
  182SLPC   H4S20780   1.902   4.194   3.493 -0.0355 -1.1260  0.7009
  182SLPC   C2520781   1.806   4.315   3.663 -0.2595  0.1285  0.3697
  182SLPC   H5R20782   1.712   4.338   3.609  0.5223 -1.6857 -1.9615
  182SLPC   H5S20783   1.844   4.406   3.713 -0.5702 -0.7853  2.3816
  182SLPC   C2620784   1.793   4.200   3.759 -0.7737  0.4013 -0.4672
  182SLPC   H6R20785   1.897   4.165   3.774 -0.7267  0.2910 -1.0407
  182SLPC   H6S20786   1.738   4.119   3.706 -0.3871  0.2637 -0.6547
  182SLPC   C2720787   1.722   4.224   3.894  0.7575 -0.2618  0.4729
  182SLPC   H7R20788   1.613   4.235   3.874  0.9671 -2.1857 -2.2961
  182SLPC   H7S20789   1.758   4.313   3.950 -1.3526 -1.2823  3.7286
  182SLPC   C2820790   1.740   4.107   3.993 -0.6968  0.3929  0.3846
  182SLPC   H8R20791   1.848   4.104   4.018 -0.8720 -3.5253  1.3988
  182SLPC   H8S20792   1.723   4.018   3.928  1.8746  0.1378 -0.0242
  182SLPC   C2920793   1.644   4.129   4.105 -0.3551 -0.0725 -0.5276
  182SLPC   H9R20794   1.542   4.151   4.070 -0.4448  1.4325  0.5837
  182SLPC  C21020795   1.674   4.128   4.231  0.4886 -0.1558 -0.0243
  182SLPC  H10R20796   1.583   4.129   4.292 -0.2786 -2.8665 -0.9979
  182SLPC  C21120797   1.798   4.096   4.305  0.2844  1.4087  0.5044
  182SLPC  H11R20798   1.874   4.060   4.233 -1.7017  0.2314 -1.1148
  182SLPC  H11S20799   1.771   4.009   4.369 -1.0588  1.8810  0.6189
  182SLPC  C21220800   1.850   4.206   4.394 -0.1526 -0.3710 -0.2033
  182SLPC  H12R20801   1.870   4.302   4.344  1.4059 -0.7303 -0.3327
  182SLPC  C21320802   1.872   4.195   4.525 -0.3666 -0.1337  0.1859
  182SLPC  H13R20803   1.906   4.286   4.577 -0.0588  1.0493 -1.9855
  182SLPC  C21420804   1.865   4.070   4.613  0.0581  0.7002  0.0612
  182SLPC  H14R20805   1.960   4.047   4.667 -1.4793 -2.0960  1.8298
  182SLPC  H14S20806   1.848   3.979   4.552 -1.6933  1.7183 -1.0419
  182SLPC  C21520807   1.761   4.069   4.726  0.0724  0.3793 -0.2824
  182SLPC  H15R20808   1.660   4.076   4.680 -0.1760  1.0681  0.3626
  182SLPC  H15S20809   1.776   4.156   4.793  0.0024 -0.3575  0.7161
  182SLPC  C21620810   1.768   3.934   4.803 -0.7795  0.4745  0.1408
  182SLPC  H16R20811   1.857   3.940   4.869 -0.7222 -1.8117  0.3339
  182SLPC  H16S20812   1.790   3.848   4.736  0.8987 -0.1913  1.4787
  182SLPC  C21720813   1.642   3.914   4.887  0.1536  0.7458  0.0740
  182SLPC  H17R20814   1.606   4.017   4.904 -1.0788  0.2523  0.5385
  182SLPC  H17S20815   1.671   3.872   4.985  1.0569  0.0831 -0.4626
  182SLPC  C21820816   1.539   3.837   4.816 -0.1225  0.3260  0.2213
  182SLPC  H18R20817   1.562   3.851   4.708  0.4659  2.1592  0.5496
  182SLPC  H18S20818   1.433   3.865   4.832  0.0953  1.3274 -0.0316
  182SLPC  H18T20819   1.545   3.730   4.849 -0.0331  0.5764  1.0523
  182SLPC   C3320820   1.666   4.711   3.584  0.2456 -0.0552  0.8046
  182SLPC   H3X20821   1.717   4.615   3.563 -0.0316 -0.1734  0.6579
  182SLPC   H3Y20822   1.555   4.706   3.584  0.0341  1.5467 -2.6461
  182SLPC   C3420823   1.697   4.754   3.730 -0.1312 -0.7029 -1.1067
  182SLPC   H4X20824   1.635   4.845   3.741  0.1122 -0.6455 -0.1756
  182SLPC   H4Y20825   1.806   4.768   3.741 -0.2639 -1.5124  2.2983
  182SLPC   C3520826   1.657   4.654   3.828  0.3237 -0.1146 -0.3178
  182SLPC   H5X20827   1.707   4.559   3.798 -1.1200 -1.4493  1.2498
  182SLPC   H5Y20828   1.548   4.635   3.818  0.4627 -0.2255 -1.7699
  182SLPC   C3620829   1.689   4.691   3.972 -0.1106  0.1493 -0.4399
  182SLPC   H6X20830   1.645   4.789   4.002 -3.1228 -0.4559 -2.4573
  182SLPC   H6Y20831   1.800   4.700   3.978 -0.0666 -0.6727  0.1185
  182SLPC   C3720832   1.651   4.588   4.081  0.3342 -0.1132  0.1226
  182SLPC   H7X20833   1.685   4.487   4.053 -0.4733 -0.6117  0.8686
  182SLPC   H7Y20834   1.541   4.591   4.101  0.0281  1.3499 -1.4506
  182SLPC   C3820835   1.722   4.627   4.211 -0.3117 -0.1497  0.6769
  182SLPC   H8X20836   1.723   4.738   4.209 -0.1532 -0.1497 -1.0444
  182SLPC   H8Y20837   1.831   4.605   4.212 -0.2410  0.1012 -0.2864
  182SLPC   C3920838   1.647   4.582   4.335 -0.1772  0.5556 -0.1765
  182SLPC   H9X20839   1.612   4.479   4.312 -1.7568  1.1628 -0.6554
  182SLPC   H9Y20840   1.557   4.645   4.352 -0.4802  0.4329 -1.2387
  182SLPC  C31020841   1.723   4.592   4.462 -0.3338  0.1201  0.1957
  182SLPC  H10X20842   1.748   4.699   4.480  0.6659  0.0967 -0.8830
  182SLPC  H10Y20843   1.821   4.540   4.452  1.2210  1.8218  4.4087
  182SLPC  C31120844   1.658   4.541   4.590  0.3461  0.8835 -0.3184
  182SLPC  H11X20845   1.646   4.430   4.593 -0.5246  0.9444 -1.0457
  182SLPC  H11Y20846   1.568   4.599   4.620  0.2992  1.4282 -1.4491
  182SLPC  C31220847   1.768   4.561   4.703  0.0574  0.0344  0.0266
  182SLPC  H12X20848   1.790   4.669   4.718  3.0526 -0.4447 -0.3800
  182SLPC  H12Y20849   1.858   4.517   4.656  1.1317  0.8888  1.2219
  182SLPC  C31320850   1.746   4.500   4.842  0.4111  0.0194  0.0326
  182SLPC  H13X20851   1.728   4.391   4.837 -0.5901  0.1866 -0.3320
  182SLPC  H13Y20852   1.659   4.549   4.892  0.1329 -1.7712  1.3960
  182SLPC  C31420853   1.876   4.530   4.930 -0.0478  0.3508 -0.6758
  182SLPC  H14X20854   1.913   4.634   4.917 -0.7201  0.6703 -0.1424
  182SLPC  H14Y20855   1.964   4.472   4.897 -1.5631 -3.4403  1.3328
  182SLPC  C31520856   1.854   4.488   5.071  0.1384 -0.3255  0.1916
  182SLPC  H15X20857   1.843   4.377   5.072  1.7232 -0.5034  1.0606
  182SLPC  H15Y20858   1.773   4.549   5.115  2.9594  2.1151  2.4323
  182SLPC  C31620859   1.984   4.529   5.143 -0.3992 -0.0757 -0.7768
  182SLPC  H16X20860   2.019   4.627   5.104 -1.1604 -0.0550 -1.4290
  182SLPC  H16Y20861   2.068   4.458   5.127  0.2790  0.4512  0.2818
  182SLPC  C31720862   1.978   4.539   5.299  0.6302 -0.4378  0.2968
  182SLPC  H17X20863   1.942   4.438   5.329 -1.9385  0.9792  2.4269
  182SLPC  H17Y20864   1.909   4.626   5.308  0.2323 -0.5225 -1.6129
  182SLPC  C31820865   2.103   4.578   5.365 -0.4485  0.1917  0.2347
  182SLPC  H18X20866   2.177   4.497   5.351 -0.9353 -0.1456 -0.4590
  182SLPC  H18Y20867   2.098   4.609   5.472  2.0513  0.1739  0.4123
  182SLPC  H18Z20868   2.144   4.664   5.308 -0.6718  1.8007  2.3625
  183SLPC     N20869   4.417   0.513   2.580 -0.0087 -0.3752  0.0781
  183SLPC   C1320870   4.329   0.528   2.458  0.4744  0.3247 -0.2090
  183SLPC  H13A20871   4.388   0.518   2.369  0.5490  1.1485 -0.2640
  183SLPC  H13B20872   4.253   0.452   2.458 -0.0924  0.8620  0.9495
  183SLPC  H13C20873   4.294   0.630   2.462 -1.3411 -0.2671 -0.0901
  183SLPC   C1420874   4.530   0.608   2.588 -0.4678 -0.1286 -0.4313
  183SLPC  H14A20875   4.592   0.611   2.499 -1.0860  1.3357 -0.8269
  183SLPC  H14B20876   4.496   0.707   2.614  1.0734  0.8070 -1.7666
  183SLPC  H14C20877   4.596   0.573   2.666  0.8219  1.6127 -0.6669
  183SLPC   C1520878   4.465   0.370   2.580 -0.0631  0.1216  0.2842
  183SLPC  H15A20879   4.495   0.337   2.679  0.6336 -1.7632 -0.5123
  183SLPC  H15B20880   4.392   0.302   2.540  0.1211  0.3631 -0.4780
  183SLPC  H15C20881   4.551   0.362   2.516 -0.6044  0.9063 -0.5621
  183SLPC   C1220882   4.328   0.527   2.708 -0.2940  0.5267  0.7491
  183SLPC  H12A20883   4.381   0.497   2.797  0.2787 -2.1225 -0.4036
  183SLPC  H12B20884   4.261   0.442   2.705  1.8362 -1.3469  2.7149
  183SLPC   C1120885   4.249   0.656   2.738  0.4335 -1.1004 -0.3928
  183SLPC  H11A20886   4.311   0.747   2.752  0.3726 -1.3186  1.5258
  183SLPC  H11B20887   4.200   0.642   2.837 -2.2505  0.3108 -1.4124
  183SLPC     P20888   4.012   0.609   2.646  0.2718  0.0798  0.1157
  183SLPC   O1320889   3.921   0.669   2.544 -0.2070 -0.9671 -0.0230
  183SLPC   O1420890   4.022   0.459   2.628 -0.6056 -0.4949 -0.6050
  183SLPC   O1220891   4.148   0.683   2.635 -0.2487 -0.7097 -0.4104
  183SLPC   O1120892   3.957   0.656   2.784 -0.3009  0.2863  0.4215
  183SLPC    C120893   3.928   0.796   2.800  0.0322 -0.8191  0.0890
  183SLPC    HA20894   4.015   0.862   2.818 -1.6245  1.4820  0.2231
  183SLPC    HB20895   3.882   0.839   2.708  1.4027  1.0576  0.2141
  183SLPC    C220896   3.825   0.824   2.910 -0.4311  0.4576  0.8412
  183SLPC    HS20897   3.808   0.934   2.903 -2.7142  0.3371  2.9280
  183SLPC   O2120898   3.881   0.784   3.037  0.7393 -0.2371 -0.5393
  183SLPC   C2120899   3.955   0.877   3.103  0.6562  0.0787  0.9230
  183SLPC   O2220900   3.988   0.989   3.065 -0.2778  0.5506  0.0766
  183SLPC   C2220901   3.973   0.825   3.245 -0.1213  0.1088  0.2764
  183SLPC   H2R20902   3.874   0.826   3.295  0.2775 -0.4675  1.1129
  183SLPC   H2S20903   4.021   0.725   3.256 -0.8126 -0.2868 -0.2959
  183SLPC    C320904   3.698   0.737   2.885  0.7276 -0.2604 -0.5366
  183SLPC    HX20905   3.722   0.632   2.914  0.4128  0.5218  2.9898
  183SLPC    HY20906   3.673   0.751   2.778 -0.5270 -0.2496 -0.2583
  183SLPC   O3120907   3.586   0.793   2.965 -0.8200  0.1141 -0.0767
  183SLPC   C3120908   3.543   0.732   3.074  0.0985  0.2457  0.0823
  183SLPC   O3220909   3.589   0.634   3.123  0.2890 -0.0956 -0.2787
  183SLPC   C3220910   3.422   0.813   3.130  0.2637  0.0565 -0.1064
  183SLPC   H2X20911   3.333   0.769   3.081 -1.6433  1.0024  2.3129
  183SLPC   H2Y20912   3.420   0.919   3.098  0.5339  0.0755 -0.0653
  183SLPC   C2320913   4.056   0.910   3.338 -0.6797 -0.5469 -0.4830
  183SLPC   H3R20914   4.016   1.013   3.352 -1.6111 -1.1100  1.2483
  183SLPC   H3S20915   4.162   0.909   3.304  0.1378 -0.1157  1.8291
  183SLPC   C2420916   4.057   0.844   3.475  0.0117  0.6613 -0.9108
  183SLPC   H4R20917   4.110   0.747   3.469 -1.5089 -0.3658  1.1631
  183SLPC   H4S20918   3.949   0.832   3.496  0.4502  1.2818  2.2312
  183SLPC   C2520919   4.112   0.930   3.592 -0.0306 -0.0255  0.3573
  183SLPC   H5R20920   4.064   1.030   3.598 -1.3359 -0.6892  1.6795
  183SLPC   H5S20921   4.217   0.959   3.573  0.0908 -0.2349  0.6992
  183SLPC   C2620922   4.094   0.861   3.723 -0.2040  0.3281 -0.5293
  183SLPC   H6R20923   4.138   0.759   3.724  0.0429  0.3800  2.6774
  183SLPC   H6S20924   3.987   0.852   3.751  0.2350 -1.4677  0.7061
  183SLPC   C2720925   4.148   0.942   3.842  0.0629  0.1984  0.6135
  183SLPC   H7R20926   4.090   1.036   3.835 -0.8490 -0.5085 -3.6375
  183SLPC   H7S20927   4.252   0.970   3.815 -0.0542 -0.1677 -0.2329
  183SLPC   C2820928   4.163   0.867   3.976  0.2270 -0.2118 -0.4251
  183SLPC   H8R20929   4.232   0.784   3.949  0.7725  0.8437 -2.4659
  183SLPC   H8S20930   4.067   0.818   4.002  0.4885 -0.3614  0.2755
  183SLPC   C2920931   4.219   0.948   4.085 -0.8910 -0.4128  0.2418
  183SLPC   H9R20932   4.329   0.943   4.086 -0.7172  2.0956  0.6468
  183SLPC  C21020933   4.153   1.023   4.173 -0.1982 -0.4500 -0.1228
  183SLPC  H10R20934   4.205   1.087   4.246 -2.2616  0.4753  0.6012
  183SLPC  C21120935   4.004   1.050   4.185 -0.5541  0.1580  0.2760
  183SLPC  H11R20936   3.965   1.081   4.086  1.5856 -2.0222 -1.3616
  183SLPC  H11S20937   3.988   1.143   4.244  0.5095  1.6956 -1.7137
  183SLPC  C21220938   3.915   0.940   4.234 -0.4455  0.3320  0.3225
  183SLPC  H12R20939   3.920   0.855   4.164  1.4019 -0.7578  1.6938
  183SLPC  C21320940   3.841   0.919   4.346  0.0566 -0.4480  0.1890
  183SLPC  H13R20941   3.787   0.825   4.365 -0.6583 -0.0695  0.0597
  183SLPC  C21420942   3.817   1.030   4.448 -0.3444  0.3897  0.1510
  183SLPC  H14R20943   3.710   1.061   4.444  0.3860  3.1395 -0.6035
  183SLPC  H14S20944   3.865   1.127   4.421  1.0235 -0.0727  0.8563
  183SLPC  C21520945   3.869   0.976   4.582  0.2048  0.1938 -0.5415
  183SLPC  H15R20946   3.831   0.872   4.596 -1.1254  0.9055  1.5290
  183SLPC  H15S20947   3.830   1.040   4.663  2.1852  0.1144  0.5079
  183SLPC  C21620948   4.012   0.980   4.615  0.3124  0.2232  0.0040
  183SLPC  H16R20949   4.069   0.922   4.539  0.7466 -0.8366  1.1200
  183SLPC  H16S20950   4.024   0.927   4.712  0.3318  0.9392  0.3980
  183SLPC  C21720951   4.055   1.119   4.638  0.3326  0.3687 -0.1253
  183SLPC  H17R20952   3.984   1.164   4.710 -0.9752  0.6474 -1.5416
  183SLPC  H17S20953   4.037   1.167   4.539  0.9324  0.3781 -0.2347
  183SLPC  C21820954   4.206   1.142   4.662  0.7361 -0.2217 -0.3260
  183SLPC  H18R20955   4.223   1.250   4.644 -0.2348 -0.0737 -0.3950
  183SLPC  H18S20956   4.275   1.079   4.602 -0.2455 -2.9169  1.1833
  183SLPC  H18T20957   4.218   1.132   4.772 -1.5331 -0.7389 -0.0676
  183SLPC   C3320958   3.407   0.807   3.285  0.2354 -0.5249 -0.1225
  183SLPC   H3X20959   3.402   0.702   3.320 -1.5499 -0.3227  0.2850
  183SLPC   H3Y20960   3.308   0.850   3.307  1.0818  2.5888 -1.7517
  183SLPC   C3420961   3.512   0.878   3.361  0.5664  0.1559  0.0877
  183SLPC   H4X20962   3.515   0.979   3.315 -0.7199 -0.0150 -0.4127
  183SLPC   H4Y20963   3.613   0.848   3.324 -0.2840  0.4150 -2.6508
  183SLPC   C3520964   3.488   0.878   3.504 -0.3543 -0.0412  0.1496
  183SLPC   H5X20965   3.561   0.942   3.558 -0.1867  0.6026 -0.8200
  183SLPC   H5Y20966   3.498   0.773   3.539 -1.3263 -0.0487  0.4350
  183SLPC   C3620967   3.348   0.916   3.553  0.2585 -0.4081 -0.6116
  183SLPC   H6X20968   3.279   0.831   3.538  0.5818 -0.6464 -0.7471
  183SLPC   H6Y20969   3.310   0.996   3.486 -2.8845 -1.9019 -0.7638
  183SLPC   C3720970   3.334   0.963   3.699  0.3894  0.2165  0.2490
  183SLPC   H7X20971   3.226   0.980   3.719 -0.2851 -2.7049 -0.4285
  183SLPC   H7Y20972   3.396   1.054   3.712  0.2817  0.3240 -0.0003
  183SLPC   C3820973   3.396   0.856   3.802 -0.0226 -0.2737  0.5719
  183SLPC   H8X20974   3.505   0.848   3.779 -0.2154 -1.0726 -0.1248
  183SLPC   H8Y20975   3.337   0.766   3.776 -0.6835  0.3614 -0.1873
  183SLPC   C3920976   3.378   0.885   3.950  0.1981  0.7846 -0.3273
  183SLPC   H9X20977   3.274   0.918   3.972  0.0871  0.2644 -0.0691
  183SLPC   H9Y20978   3.454   0.961   3.980 -0.3133  2.0168 -1.9691
  183SLPC  C31020979   3.419   0.776   4.042 -0.3417  0.3055 -0.2478
  183SLPC  H10X20980   3.528   0.759   4.051 -0.1150  2.5739  3.1852
  183SLPC  H10Y20981   3.383   0.678   4.005  0.4536 -0.1334  0.1161
  183SLPC  C31120982   3.347   0.785   4.184  0.2639  0.0894 -1.0601
  183SLPC  H11X20983   3.237   0.779   4.172  0.0337 -1.8827  1.2832
  183SLPC  H11Y20984   3.361   0.880   4.240 -0.7419 -1.4386  1.9592
  183SLPC  C31220985   3.388   0.664   4.277 -0.0339 -0.0311 -0.3616
  183SLPC  H12X20986   3.496   0.640   4.277  0.4869  1.6040  3.1713
  183SLPC  H12Y20987   3.334   0.576   4.238 -1.0968 -0.2297  1.4104
  183SLPC  C31320988   3.345   0.696   4.421 -0.5940  0.2297 -0.3436
  183SLPC  H13X20989   3.340   0.598   4.472  1.0624  0.0850 -0.3880
  183SLPC  H13Y20990   3.241   0.734   4.421 -0.2187  1.3232 -0.5089
  183SLPC  C31420991   3.449   0.796   4.483 -1.1289 -0.6174 -1.0409
  183SLPC  H14X20992   3.446   0.896   4.433  1.7260  1.5837  2.6582
  183SLPC  H14Y20993   3.549   0.749   4.474 -0.0049  1.2585  0.7989
  183SLPC  C31520994   3.401   0.816   4.628 -0.1482  0.2780  0.3254
  183SLPC  H15X20995   3.369   0.715   4.662 -0.4551  1.1880  2.9701
  183SLPC  H15Y20996   3.329   0.901   4.639  0.9512  1.1543  0.9021
  183SLPC  C31620997   3.527   0.850   4.714 -0.4917  0.0038 -0.3661
  183SLPC  H16X20998   3.571   0.941   4.667 -1.5700 -0.5287 -2.5594
  183SLPC  H16Y20999   3.590   0.764   4.684 -2.2838 -1.0916 -1.1491
  183SLPC  C31721000   3.513   0.853   4.864  0.7307 -0.2202 -0.1214
  183SLPC  H17X21001   3.484   0.756   4.910 -2.7169  0.5277 -0.4358
  183SLPC  H17Y21002   3.427   0.918   4.890  0.6405 -0.1559 -0.5670
  183SLPC  C31821003   3.631   0.920   4.928  0.6642  0.2262 -0.9008
  183SLPC  H18X21004   3.609   0.930   5.036 -1.5141  0.6197 -1.3431
  183SLPC  H18Y21005   3.653   1.020   4.885  1.7419  0.9973  1.2955
  183SLPC  H18Z21006   3.717   0.849   4.925  1.3749  0.7727  2.4268
  184SLPC     N21007   5.765   1.712   2.375 -0.3712  0.0670 -0.1839
  184SLPC   C1321008   5.641   1.749   2.307  1.0103  0.4512  0.2251
  184SLPC  H13A21009   5.599   1.837   2.353 -0.2052 -0.8402  1.7501
  184SLPC  H13B21010   5.656   1.762   2.201  1.4507 -1.8654 -0.0492
  184SLPC  H13C21011   5.565   1.672   2.316  1.3851 -0.1285 -1.3305
  184SLPC   C1421012   5.837   1.843   2.398 -0.1601  0.6952 -0.3382
  184SLPC  H14A21013   5.918   1.832   2.468  0.7067  1.2370 -1.2325
  184SLPC  H14B21014   5.881   1.879   2.306 -1.1566  1.3270 -0.5915
  184SLPC  H14C21015   5.774   1.925   2.431  2.3000  1.8277  2.0290
  184SLPC   C1521016   5.850   1.626   2.287 -0.3217  0.5803 -0.4136
  184SLPC  H15A21017   5.898   1.670   2.202  1.6168  0.2486  0.4492
  184SLPC  H15B21018   5.917   1.563   2.343 -1.0812 -0.6629 -0.8579
  184SLPC  H15C21019   5.787   1.545   2.253  0.3730 -0.3429  0.4159
  184SLPC   C1221020   5.742   1.640   2.509 -0.0398 -0.4193 -0.0466
  184SLPC  H12A21021   5.673   1.558   2.499 -0.2739 -0.7853  3.4705
  184SLPC  H12B21022   5.703   1.718   2.572  0.0934  0.3396 -0.8838
  184SLPC   C1121023   5.873   1.582   2.590 -0.3087 -0.6075  0.4674
  184SLPC  H11A21024   5.921   1.500   2.531  1.9855  0.9655  0.0366
  184SLPC  H11B21025   5.825   1.532   2.677 -0.8273 -1.2402 -0.1642
  184SLPC     P21026   5.951   1.777   2.742 -0.1416 -0.1038 -0.1490
  184SLPC   O1321027   6.077   1.805   2.815  0.1016 -0.3091 -0.2978
  184SLPC   O1421028   5.879   1.897   2.697  0.2179  0.2296  0.1117
  184SLPC   O1221029   5.972   1.678   2.621  0.1361  0.4194 -0.0533
  184SLPC   O1121030   5.867   1.689   2.835  0.2070  0.1400 -0.0083
  184SLPC    C121031   5.726   1.707   2.862  0.5432 -0.3000 -0.3126
  184SLPC    HA21032   5.672   1.770   2.788  0.3463 -0.9193 -0.7040
  184SLPC    HB21033   5.680   1.609   2.839 -1.1344  0.5099 -0.5563
  184SLPC    C221034   5.691   1.747   3.007 -0.8571  0.1976 -0.3687
  184SLPC    HS21035   5.588   1.707   3.019  0.1951 -2.5169  0.2166
  184SLPC   O2121036   5.704   1.887   3.025  0.4391 -1.0025  0.5574
  184SLPC   C2121037   5.592   1.959   3.011 -0.1723  0.4038 -0.9693
  184SLPC   O2221038   5.479   1.918   2.983 -0.0240  0.3558  0.1343
  184SLPC   C2221039   5.626   2.105   3.039  0.0920 -0.6084 -0.1441
  184SLPC   H2R21040   5.731   2.130   3.010 -0.2244  0.2788 -0.5517
  184SLPC   H2S21041   5.540   2.160   2.996  1.8825  1.6849 -1.0261
  184SLPC    C321042   5.782   1.671   3.107  0.7498  0.3694 -0.1648
  184SLPC    HX21043   5.887   1.682   3.074  0.4349  1.0159 -0.9652
  184SLPC    HY21044   5.751   1.564   3.098  0.1498  0.3862  1.4553
  184SLPC   O3121045   5.764   1.718   3.243 -0.2449  0.4493 -0.3639
  184SLPC   C3121046   5.655   1.694   3.313  0.5885  0.4657 -0.0754
  184SLPC   O3221047   5.550   1.642   3.269 -0.5575  0.0077  0.7742
  184SLPC   C3221048   5.657   1.760   3.447 -0.6156 -0.6120 -0.1189
  184SLPC   H2X21049   5.634   1.868   3.436  1.5043 -0.2404 -1.3373
  184SLPC   H2Y21050   5.754   1.746   3.499 -0.2014  0.1609 -0.6596
  184SLPC   C2321051   5.619   2.147   3.189 -0.1819 -0.0170  0.0006
  184SLPC   H3R21052   5.540   2.085   3.236 -1.9355  1.4237 -0.9001
  184SLPC   H3S21053   5.585   2.253   3.189 -0.4630 -0.0320  3.0973
  184SLPC   C2421054   5.756   2.128   3.268  0.0337 -0.3456  0.1132
  184SLPC   H4R21055   5.832   2.179   3.206  1.6142 -2.7108 -0.0371
  184SLPC   H4S21056   5.788   2.022   3.267  1.3579  0.0435 -0.9156
  184SLPC   C2521057   5.748   2.181   3.417  0.1796  0.0688 -0.2690
  184SLPC   H5R21058   5.686   2.109   3.474  2.0560 -0.1224  1.6727
  184SLPC   H5S21059   5.717   2.287   3.429 -0.0611 -0.1700  1.4628
  184SLPC   C2621060   5.884   2.158   3.482 -0.5600 -0.3333 -0.1128
  184SLPC   H6R21061   5.953   2.231   3.434  0.6620 -0.0992  1.8666
  184SLPC   H6S21062   5.924   2.055   3.471 -0.2349 -0.1596 -0.5851
  184SLPC   C2721063   5.884   2.205   3.626  0.2460  0.4537  0.2996
  184SLPC   H7R21064   5.865   2.314   3.622 -0.3979  0.3718  1.0152
  184SLPC   H7S21065   5.989   2.192   3.662  1.4332  3.2414 -1.7158
  184SLPC   C2821066   5.791   2.133   3.729 -0.3420  0.2802  0.3082
  184SLPC   H8R21067   5.698   2.103   3.676  0.8742 -1.0548 -1.1648
  184SLPC   H8S21068   5.764   2.197   3.816 -2.1718  0.5850 -0.4327
  184SLPC   C2921069   5.858   2.003   3.777  0.0781 -0.5989  0.0227
  184SLPC   H9R21070   5.923   1.969   3.696  0.8452  1.7945 -0.4435
  184SLPC  C21021071   5.829   1.933   3.892  0.3082  0.2194  0.5358
  184SLPC  H10R21072   5.895   1.848   3.915  0.6794  0.6187  0.9376
  184SLPC  C21121073   5.729   1.978   3.993 -0.1587 -0.2533  0.0377
  184SLPC  H11R21074   5.635   2.023   3.953 -0.6170  0.7484  2.1278
  184SLPC  H11S21075   5.757   2.051   4.071 -2.3621  2.4617 -1.5056
  184SLPC  C21221076   5.665   1.858   4.063  0.2125 -0.7900  0.3912
  184SLPC  H12R21077   5.569   1.816   4.029 -0.8276  0.8641  1.1293
  184SLPC  C21321078   5.721   1.794   4.166  0.1480  0.2630 -0.3150
  184SLPC  H13R21079   5.662   1.709   4.203  2.5600 -3.3927 -4.0733
  184SLPC  C21421080   5.854   1.826   4.239  0.2052 -0.0283 -0.4173
  184SLPC  H14R21081   5.914   1.886   4.167  1.4714 -1.3782 -0.5410
  184SLPC  H14S21082   5.912   1.735   4.264 -0.1955  0.3073  1.9416
  184SLPC  C21521083   5.834   1.899   4.374  0.6673  0.0640 -0.7139
  184SLPC  H15R21084   5.930   1.936   4.417  1.4201 -1.4846 -1.0102
  184SLPC  H15S21085   5.793   1.816   4.434  1.8879  1.0478  1.6092
  184SLPC  C21621086   5.747   2.028   4.365  0.0073 -0.2293 -0.5494
  184SLPC  H16R21087   5.643   2.000   4.337  0.0629 -0.1843 -0.7972
  184SLPC  H16S21088   5.797   2.087   4.286 -1.6941  2.9944  0.6060
  184SLPC  C21721089   5.742   2.097   4.500 -0.2177  0.5852 -0.1499
  184SLPC  H17R21090   5.839   2.144   4.528  0.8989 -2.7046  2.0818
  184SLPC  H17S21091   5.714   2.019   4.574  0.6127 -0.0619 -0.5004
  184SLPC  C21821092   5.630   2.196   4.494 -0.5599  0.2671  0.0092
  184SLPC  H18R21093   5.644   2.265   4.409  2.7988  1.4980  1.3791
  184SLPC  H18S21094   5.637   2.264   4.582 -3.2934 -1.6146  1.8709
  184SLPC  H18T21095   5.527   2.158   4.483 -1.2045  1.4282  1.5680
  184SLPC   C3321096   5.551   1.699   3.541  0.2998 -0.3023 -0.3295
  184SLPC   H3X21097   5.590   1.604   3.585 -0.4536 -1.2592 -1.6403
  184SLPC   H3Y21098   5.460   1.677   3.481  0.2212  0.7457 -0.6108
  184SLPC   C3421099   5.503   1.789   3.661 -0.3976  0.5102 -0.4598
  184SLPC   H4X21100   5.442   1.870   3.616 -0.3010 -0.3971 -2.3343
  184SLPC   H4Y21101   5.594   1.820   3.715  0.9560 -1.9854 -1.1368
  184SLPC   C3521102   5.417   1.702   3.750  0.4870 -0.4829  0.3359
  184SLPC   H5X21103   5.483   1.655   3.826 -1.7905 -1.2709  1.9302
  184SLPC   H5Y21104   5.360   1.632   3.685  2.2882  0.8419 -2.9558
  184SLPC   C3621105   5.321   1.788   3.829  0.0587  0.5362 -0.2427
  184SLPC   H6X21106   5.254   1.829   3.750 -0.9491  1.2139  0.9209
  184SLPC   H6Y21107   5.366   1.870   3.890  0.1307 -1.0529  1.9653
  184SLPC   C3721108   5.235   1.715   3.932 -0.1968  0.4539  0.6299
  184SLPC   H7X21109   5.229   1.773   4.026  0.6826 -1.1119  1.6943
  184SLPC   H7Y21110   5.295   1.626   3.960 -0.2356  0.1600 -0.1754
  184SLPC   C3821111   5.091   1.688   3.881  0.5093  0.8212 -0.5606
  184SLPC   H8X21112   5.099   1.630   3.787  1.7857 -1.5291  0.8919
  184SLPC   H8Y21113   5.042   1.787   3.865 -1.3049  0.4405  1.9390
  184SLPC   C3921114   5.019   1.604   3.990 -0.5553 -0.5910 -0.3666
  184SLPC   H9X21115   5.010   1.671   4.078  2.2842  0.6474 -0.8956
  184SLPC   H9Y21116   5.070   1.510   4.021 -0.0488 -1.0193 -2.3889
  184SLPC  C31021117   4.885   1.557   3.940 -0.5458 -0.2810 -0.4968
  184SLPC  H10X21118   4.883   1.518   3.836 -1.0176 -0.7669 -0.3093
  184SLPC  H10Y21119   4.816   1.644   3.936 -1.1854 -0.5049  2.7629
  184SLPC  C31121120   4.829   1.436   4.016 -0.1088 -0.1589 -0.1623
  184SLPC  H11X21121   4.888   1.352   3.975  1.3555  1.3916 -1.3599
  184SLPC  H11Y21122   4.722   1.425   3.987 -1.0581  3.3930  1.4612
  184SLPC  C31221123   4.843   1.439   4.170  0.3723  0.6043 -0.4134
  184SLPC  H12X21124   4.759   1.510   4.183 -0.9568 -0.4439 -2.7960
  184SLPC  H12Y21125   4.947   1.472   4.194  0.5549  0.4714 -1.0088
  184SLPC  C31321126   4.827   1.309   4.244 -0.2988  0.5124  0.2095
  184SLPC  H13X21127   4.913   1.248   4.209 -2.2559  0.4772 -5.6019
  184SLPC  H13Y21128   4.737   1.249   4.216 -0.0696  0.8279 -1.2892
  184SLPC  C31421129   4.841   1.313   4.401  0.7212 -0.0612 -0.0255
  184SLPC  H14X21130   4.934   1.367   4.427  0.0291  1.5581 -0.7568
  184SLPC  H14Y21131   4.846   1.207   4.433  1.1089  0.2572  1.0046
  184SLPC  C31521132   4.711   1.383   4.466  0.3426 -1.1120  1.0637
  184SLPC  H15X21133   4.622   1.347   4.410  1.2391 -0.4528 -0.8690
  184SLPC  H15Y21134   4.729   1.493   4.466  4.1259 -1.5977  1.9372
  184SLPC  C31621135   4.696   1.350   4.618  0.0278 -0.0142  0.1551
  184SLPC  H16X21136   4.797   1.337   4.662  1.0371  0.9743 -1.7222
  184SLPC  H16Y21137   4.637   1.256   4.625 -0.5422  0.3524  0.2916
  184SLPC  C31721138   4.610   1.439   4.712 -0.4537 -0.2293 -0.1614
  184SLPC  H17X21139   4.650   1.542   4.720 -0.5247 -0.2861  1.1429
  184SLPC  H17Y21140   4.622   1.405   4.817 -1.3460  0.8983  0.3303
  184SLPC  C31821141   4.457   1.446   4.675 -0.2438 -0.7863  0.1520
  184SLPC  H18X21142   4.437   1.484   4.572  1.8227  1.6627  0.5742
  184SLPC  H18Y21143   4.408   1.526   4.735  3.8002  1.8828  0.2568
  184SLPC  H18Z21144   4.409   1.346   4.680 -1.6305 -0.1505 -0.0025
  185POPC     N21145   0.570   1.576   7.110 -0.1916 -0.5915  0.2078
  185POPC   C1221146   0.608   1.474   7.002  0.0554  0.9903  0.3585
  185POPC  H12A21147   0.659   1.390   7.049  0.8742  1.0408 -0.3994
  185POPC  H12B21148   0.685   1.518   6.940  0.3534 -1.6602 -1.3360
  185POPC   C1321149   0.471   1.677   7.056 -0.3610 -0.1096  0.6541
  185POPC  H13A21150   0.386   1.628   7.011 -0.7946 -0.3416  1.6990
  185POPC  H13B21151   0.449   1.737   7.143  0.6224  0.7129  0.3503
  185POPC  H13C21152   0.517   1.742   6.984 -1.4358  1.1703  1.0973
  185POPC   C1421153   0.502   1.511   7.225  0.5248  0.3550 -1.0719
  185POPC  H14A21154   0.434   1.566   7.288 -0.8402 -1.7442 -0.5748
  185POPC  H14B21155   0.457   1.422   7.182  3.1248 -1.0191 -1.1655
  185POPC  H14C21156   0.579   1.463   7.283 -0.0458  1.8187  1.0012
  185POPC   C1521157   0.693   1.655   7.158 -0.5410 -0.1572  0.3159
  185POPC  H15A21158   0.755   1.684   7.075  0.2011  1.7300  1.4698
  185POPC  H15B21159   0.746   1.603   7.237 -0.8995  1.0639  1.3914
  185POPC  H15C21160   0.667   1.746   7.210 -1.1575  0.2595 -0.7126
  185POPC   C1121161   0.505   1.407   6.898 -0.7064 -0.0395  0.5566
  185POPC  H11A21162   0.555   1.315   6.861 -0.2838  0.3814  0.0642
  185POPC  H11B21163   0.466   1.466   6.813 -0.4411 -0.7687 -0.0836
  185POPC     P21164   0.372   1.223   7.033 -0.0195  0.5439 -0.6716
  185POPC   O1321165   0.288   1.245   7.155  0.5118  0.4575  0.4426
  185POPC   O1421166   0.514   1.188   7.057 -0.0866  0.5020 -0.3249
  185POPC   O1221167   0.387   1.367   6.972  0.1483  0.1006  0.7818
  185POPC   O1121168   0.310   1.132   6.923 -0.0827 -0.1510  0.1270
  185POPC    C121169   0.274   1.186   6.800  0.3779 -0.2482  0.2541
  185POPC    HA21170   0.365   1.188   6.736 -0.5672  1.3457 -1.1220
  185POPC    HB21171   0.237   1.291   6.800  0.0033 -0.3765  0.9027
  185POPC    C221172   0.177   1.104   6.709  0.3397 -0.2146 -0.1265
  185POPC    HS21173   0.076   1.103   6.755 -1.8198  1.7476 -4.2244
  185POPC   O2121174   0.227   0.969   6.698  0.5253 -0.3548 -0.6849
  185POPC   C2121175   0.124   0.881   6.676 -0.8997 -0.1293  0.0322
  185POPC   O2221176   0.006   0.903   6.686  0.2352  0.0859 -0.1394
  185POPC   C2221177   0.196   0.757   6.633  0.1540  0.3407  0.4665
  185POPC   H2R21178   0.203   0.699   6.727  0.2715  0.9312  0.8278
  185POPC   H2S21179   0.300   0.775   6.599  0.8255 -0.8315  1.8392
  185POPC    C321180   0.151   1.177   6.567 -0.8679  0.1673 -0.6061
  185POPC    HX21181   0.246   1.173   6.510 -1.1704 -4.3033 -1.1670
  185POPC    HY21182   0.114   1.280   6.586  0.3361  0.1808  2.1551
  185POPC   O3121183   0.059   1.107   6.481  0.2328  0.4121  0.2369
  185POPC   C3121184  -0.067   1.140   6.492 -0.5043 -0.9026 -0.1781
  185POPC   O3221185  -0.109   1.232   6.561  0.0018  0.6728 -0.1721
  185POPC   C3221186  -0.152   1.051   6.395  0.2188 -0.1826 -0.6958
  185POPC   H2X21187  -0.253   1.051   6.443  1.1276 -0.8803  1.3390
  185POPC   H2Y21188  -0.110   0.948   6.391 -3.1302 -1.6685 -1.6658
  185POPC   C2321189   0.131   0.679   6.513  0.6517  0.6071 -0.5642
  185POPC   H3R21190   0.022   0.668   6.533  0.7635  1.1357  0.4034
  185POPC   H3S21191   0.170   0.576   6.500  2.2730  0.9755  0.9737
  185POPC   C2421192   0.156   0.760   6.381 -0.2997  0.1301  0.0749
  185POPC   H4R21193   0.267   0.763   6.373 -0.1789 -2.6055 -0.0956
  185POPC   H4S21194   0.126   0.867   6.375 -0.3878  0.0954 -0.1070
  185POPC   C2521195   0.103   0.679   6.259 -0.4771 -0.5206 -0.7290
  185POPC   H5R21196  -0.004   0.708   6.255  0.1126  2.0022 -0.0197
  185POPC   H5S21197   0.117   0.569   6.266  2.9464 -0.1103  1.2137
  185POPC   C2621198   0.167   0.728   6.130 -0.1845 -0.0676 -0.4056
  185POPC   H6R21199   0.276   0.720   6.148 -0.2805  1.4705  1.2352
  185POPC   H6S21200   0.144   0.837   6.127 -1.2065 -0.2875 -2.5135
  185POPC   C2721201   0.109   0.662   6.001 -0.4485  0.5021 -0.0716
  185POPC   H7R21202   0.156   0.713   5.915  2.8875  1.7903  2.2814
  185POPC   H7S21203   0.000   0.683   5.995 -0.7124 -0.1387  1.6458
  185POPC   C2821204   0.125   0.507   5.989 -0.0560 -0.1962 -0.1583
  185POPC   H8R21205   0.047   0.464   5.923  1.1028 -2.3166 -0.2059
  185POPC   H8S21206   0.107   0.449   6.081  2.2208  0.5155  0.8153
  185POPC   C2921207   0.258   0.465   5.932  0.7267 -0.3276  0.2186
  185POPC   H9121208   0.340   0.514   5.986 -0.6850  1.7173  0.6054
  185POPC  C21021209   0.279   0.395   5.820 -0.4238  0.8721 -0.1830
  185POPC  H10121210   0.385   0.383   5.792 -0.9422 -1.3673 -1.4125
  185POPC  C21121211   0.168   0.327   5.738 -0.0655 -0.5679  0.6342
  185POPC  H11R21212   0.068   0.332   5.786  0.6623  0.2722  2.0978
  185POPC  H11S21213   0.188   0.217   5.742 -0.8808 -0.7490  0.1562
  185POPC  C21221214   0.155   0.396   5.594 -0.0783 -0.2594 -0.0714
  185POPC  H12R21215   0.251   0.413   5.541 -0.3808  1.5325 -0.1146
  185POPC  H12S21216   0.112   0.497   5.615  1.8425  0.3386  1.3057
  185POPC  C21321217   0.063   0.308   5.507  0.2244 -0.3026 -0.2660
  185POPC  H13R21218  -0.012   0.261   5.574 -1.4404 -0.5051 -2.1567
  185POPC  H13S21219   0.133   0.226   5.478  0.5926 -0.5402  1.2178
  185POPC  C21421220   0.013   0.370   5.373  0.8447  0.2002  0.1615
  185POPC  H14R21221   0.093   0.407   5.305 -0.8749  0.0955 -2.0119
  185POPC  H14S21222  -0.045   0.464   5.387  0.1790  0.1494 -1.9081
  185POPC  C21521223  -0.081   0.278   5.280 -0.6257  0.1980  0.7970
  185POPC  H15R21224  -0.165   0.254   5.348  0.8327  4.4211  4.6546
  185POPC  H15S21225  -0.022   0.185   5.265  0.0704  1.0147 -2.2935
  185POPC  C21621226  -0.137   0.337   5.152 -0.4447 -0.5557  0.3220
  185POPC  H16R21227  -0.194   0.432   5.161 -1.9493 -1.4815  0.8494
  185POPC  H16S21228  -0.208   0.263   5.109  2.3044 -2.8003 -0.6597
  185POPC  C21721229  -0.035   0.353   5.042  0.5540 -0.5340  0.1481
  185POPC  H17R21230   0.012   0.253   5.031  0.4642 -0.5111 -0.4802
  185POPC  H17S21231   0.039   0.431   5.071 -1.4060  0.8019  1.8384
  185POPC  C21821232  -0.098   0.388   4.905  0.0853 -0.4724 -0.2724
  185POPC  H18R21233  -0.033   0.383   4.815  0.5995  1.4284 -0.0490
  185POPC  H18S21234  -0.140   0.491   4.908 -0.5786 -0.7606  2.0011
  185POPC  H18T21235  -0.184   0.319   4.893 -0.3538  0.2514 -1.5369
  185POPC   C3321236  -0.160   1.116   6.259 -0.0984 -0.7728  0.6563
  185POPC   H3X21237  -0.180   1.224   6.274  1.2639 -0.3158 -0.6003
  185POPC   H3Y21238  -0.245   1.077   6.200  0.3883 -1.8364  0.6340
  185POPC   C3421239  -0.039   1.100   6.169  0.1654  0.3569  0.2661
  185POPC   H4X21240   0.003   0.998   6.163  0.9287  0.7523 -2.0245
  185POPC   H4Y21241   0.043   1.161   6.213 -0.2109  1.1848 -0.1550
  185POPC   C3521242  -0.058   1.159   6.035 -0.7709  0.2838  0.7562
  185POPC   H5X21243   0.042   1.185   5.993 -1.3374 -1.3003 -1.8168
  185POPC   H5Y21244  -0.112   1.256   6.039 -2.2932 -0.5584  1.6233
  185POPC   C3621245  -0.124   1.060   5.934 -0.4806 -0.0150  0.2007
  185POPC   H6X21246  -0.232   1.050   5.960 -0.2791  2.1211  2.2146
  185POPC   H6Y21247  -0.076   0.960   5.936 -0.5306 -0.2336 -3.4909
  185POPC   C3721248  -0.117   1.106   5.784 -0.5840 -0.0467 -0.1550
  185POPC   H7X21249  -0.100   1.216   5.782 -1.3937  0.0664 -1.4438
  185POPC   H7Y21250  -0.220   1.095   5.744  0.1520 -0.2322 -2.0645
  185POPC   C3821251  -0.017   1.022   5.699  0.5596  0.2765  0.1719
  185POPC   H8X21252   0.085   1.016   5.745 -0.5335 -1.7005  2.6063
  185POPC   H8Y21253  -0.009   1.070   5.599 -0.2348  0.9801  0.4382
  185POPC   C3921254  -0.059   0.881   5.686  0.3950 -0.3241 -0.0422
  185POPC   H9X21255  -0.160   0.884   5.640  0.9251 -0.1333 -1.2515
  185POPC   H9Y21256  -0.060   0.828   5.783  0.2352  1.6368  1.0911
  185POPC  C31021257   0.046   0.799   5.607 -0.0913 -0.8468  1.0025
  185POPC  H10X21258   0.007   0.696   5.599 -1.4523 -0.5103  2.6859
  185POPC  H10Y21259   0.147   0.796   5.652 -0.0978 -0.8953  1.0130
  185POPC  C31121260   0.059   0.849   5.460 -0.5224 -0.8240 -0.6041
  185POPC  H11X21261   0.126   0.938   5.462  1.5463 -2.2875  2.2051
  185POPC  H11Y21262  -0.043   0.879   5.431 -0.5281  0.8150  0.9404
  185POPC  C31221263   0.125   0.750   5.370  0.2590 -0.2327 -0.2716
  185POPC  H12X21264   0.073   0.652   5.372  0.5963 -0.3959  1.1732
  185POPC  H12Y21265   0.225   0.739   5.415 -0.7201 -2.5749  1.5714
  185POPC  C31321266   0.135   0.793   5.218 -0.6491 -0.0487 -0.1596
  185POPC  H13X21267   0.174   0.896   5.208  0.9058 -0.7335 -1.6027
  185POPC  H13Y21268   0.032   0.800   5.175 -0.3779  1.1034 -0.6676
  185POPC  C31421269   0.222   0.699   5.122  0.6994  0.3855 -1.0001
  185POPC  H14X21270   0.193   0.592   5.126  2.7267 -0.2244 -1.1818
  185POPC  H14Y21271   0.325   0.710   5.162 -0.1293  3.0560  0.6760
  185POPC  C31521272   0.231   0.735   4.975  0.1629 -0.5452 -0.4733
  185POPC  H15X21273   0.290   0.828   4.960 -0.0707 -0.2830  0.1797
  185POPC  H15Y21274   0.132   0.766   4.937 -0.6907 -1.9693  0.5016
  185POPC  C31621275   0.280   0.627   4.879  0.7469  0.5386 -0.2558
  185POPC  H16X21276   0.202   0.551   4.858  1.8017  0.0216 -2.5828
  185POPC  H16Y21277   0.366   0.567   4.916  0.6410  0.0257 -0.8314
  185POPC  H16Z21278   0.312   0.676   4.785  0.0478  1.2717 -0.1242
  186POPC     N21279   2.448   1.844   7.121 -0.4376 -0.2620 -0.6377
  186POPC   C1221280   2.546   1.891   7.227  1.0123  0.3631 -0.4997
  186POPC  H12A21281   2.616   1.813   7.255 -0.3265 -0.3228  1.1148
  186POPC  H12B21282   2.485   1.911   7.313 -1.6691  1.6967 -2.5538
  186POPC   C1321283   2.377   1.717   7.161 -0.0660  0.6299 -0.0556
  186POPC  H13A21284   2.314   1.679   7.083  0.0661  0.5750 -0.1358
  186POPC  H13B21285   2.452   1.645   7.192  1.4940  2.5915  0.9832
  186POPC  H13C21286   2.323   1.738   7.253 -0.6487  2.9219 -0.8427
  186POPC   C1421287   2.348   1.958   7.094 -0.1288  0.0322  0.2678
  186POPC  H14A21288   2.277   1.924   7.021 -2.8221  2.8486  1.3405
  186POPC  H14B21289   2.281   1.984   7.175 -1.8514  2.1267 -1.6775
  186POPC  H14C21290   2.394   2.052   7.063 -0.1724  0.3724  1.2129
  186POPC   C1521291   2.521   1.817   6.988  0.2818  0.1993 -0.1993
  186POPC  H15A21292   2.567   1.719   6.992  1.4883  0.7894  0.8519
  186POPC  H15B21293   2.601   1.884   6.959  0.1965  0.3450 -0.0993
  186POPC  H15C21294   2.452   1.819   6.905  0.6414  1.0030 -0.4900
  186POPC   C1121295   2.626   2.028   7.198 -0.9012  0.6002  0.1292
  186POPC  H11A21296   2.658   2.067   7.297  1.3663 -1.2164  0.1955
  186POPC  H11B21297   2.561   2.114   7.172 -1.7821 -0.0564  0.1162
  186POPC     P21298   2.864   1.933   7.143  0.2896 -0.2677 -0.4032
  186POPC   O1321299   2.818   1.791   7.162  0.0215 -0.0604  0.3242
  186POPC   O1421300   2.942   1.987   7.259 -0.1611  0.4179 -0.1772
  186POPC   O1221301   2.737   2.022   7.108  0.2143 -0.0839  0.0312
  186POPC   O1121302   2.948   1.950   7.012  0.6834 -0.5740 -0.2398
  186POPC    C121303   2.895   1.908   6.893 -0.3282 -0.4882 -0.5672
  186POPC    HA21304   2.933   1.970   6.809 -0.0543  0.6983  0.3935
  186POPC    HB21305   2.784   1.904   6.885 -0.5418 -1.1822  1.8224
  186POPC    C221306   2.944   1.768   6.843 -0.8532  0.3147  0.0165
  186POPC    HS21307   2.939   1.693   6.925  0.1909  3.0239  2.7293
  186POPC   O2121308   3.084   1.784   6.798  0.6115 -0.0774  0.0052
  186POPC   C2121309   3.142   1.662   6.788 -0.1143  0.0969 -0.2778
  186POPC   O2221310   3.085   1.556   6.802 -0.2641 -0.3727 -0.1320
  186POPC   C2221311   3.289   1.689   6.762 -0.6149  0.3864  0.2136
  186POPC   H2R21312   3.343   1.596   6.788 -1.2279 -0.8567 -2.5064
  186POPC   H2S21313   3.328   1.767   6.831  1.0462  1.6428 -2.0015
  186POPC    C321314   2.849   1.722   6.730 -0.3659  0.2282  0.5173
  186POPC    HX21315   2.746   1.697   6.763 -0.1421 -0.9838  0.3153
  186POPC    HY21316   2.896   1.627   6.698 -3.1235 -1.1544  0.2171
  186POPC   O3121317   2.830   1.820   6.620  0.1522  0.4957  0.4518
  186POPC   C3121318   2.921   1.824   6.528  0.5363  0.8349 -0.2358
  186POPC   O3221319   3.020   1.753   6.521 -0.1941 -0.1981  0.1405
  186POPC   C3221320   2.861   1.898   6.406  0.3544 -0.8075  0.1621
  186POPC   H2X21321   2.782   1.966   6.443 -0.8740 -0.7275 -2.3498
  186POPC   H2Y21322   2.827   1.817   6.337  2.5291 -2.3146  0.7474
  186POPC   C2321323   3.312   1.723   6.612  0.4792  0.8086 -0.1461
  186POPC   H3R21324   3.267   1.824   6.598  2.1862  1.6486  0.2140
  186POPC   H3S21325   3.259   1.649   6.548 -0.3827 -0.1448  1.5913
  186POPC   C2421326   3.456   1.738   6.581 -0.0888 -0.2104  0.1393
  186POPC   H4R21327   3.500   1.637   6.565 -0.5923 -0.1643 -1.8539
  186POPC   H4S21328   3.507   1.795   6.661 -0.3248  1.3912 -0.8103
  186POPC   C2521329   3.503   1.820   6.456  0.1949  0.5698 -0.7321
  186POPC   H5R21330   3.614   1.821   6.453  0.2462  2.2351  0.2084
  186POPC   H5S21331   3.472   1.927   6.457 -0.5029  0.3669  0.0307
  186POPC   C2621332   3.462   1.766   6.318 -0.4033 -0.7366  0.1965
  186POPC   H6R21333   3.357   1.732   6.311  0.1929 -2.7238  0.4511
  186POPC   H6S21334   3.536   1.687   6.292 -0.2376 -0.6274  0.3312
  186POPC   C2721335   3.477   1.873   6.205 -0.3305  0.2261  0.4416
  186POPC   H7R21336   3.585   1.899   6.195 -0.4953  0.2808 -1.8145
  186POPC   H7S21337   3.427   1.970   6.223  0.7529  0.8821 -0.0209
  186POPC   C2821338   3.426   1.816   6.066 -0.2547  0.6742  0.0078
  186POPC   H8R21339   3.433   1.899   5.992 -0.1284 -1.1552 -2.1492
  186POPC   H8S21340   3.322   1.787   6.093 -0.7756  0.6118 -1.9457
  186POPC   C2921341   3.516   1.698   6.013  0.5045  0.1631  0.1594
  186POPC   H9121342   3.583   1.663   6.093 -0.1533 -0.8958  0.2636
  186POPC  C21021343   3.514   1.647   5.890 -0.1934  0.2722  0.0164
  186POPC  H10121344   3.581   1.565   5.860  1.2668  1.5210 -0.2840
  186POPC  C21121345   3.418   1.689   5.777  0.0401 -0.2999 -0.2076
  186POPC  H11R21346   3.407   1.798   5.793  2.3796  0.0441 -0.7047
  186POPC  H11S21347   3.320   1.636   5.769  0.1252 -0.7690  1.5851
  186POPC  C21221348   3.472   1.677   5.628  0.1743 -0.4301 -0.2527
  186POPC  H12R21349   3.482   1.570   5.601 -4.5495 -1.4775  1.2068
  186POPC  H12S21350   3.574   1.721   5.632  0.4046 -1.0286  2.0256
  186POPC  C21321351   3.382   1.749   5.535  0.2796  0.2829  0.1027
  186POPC  H13R21352   3.408   1.857   5.539 -1.4039  0.7835 -1.0759
  186POPC  H13S21353   3.278   1.724   5.564  1.0061 -2.5060  0.5818
  186POPC  C21421354   3.397   1.703   5.390  0.3942 -0.2274 -0.3033
  186POPC  H14R21355   3.384   1.593   5.381  0.5277 -0.3488  0.8705
  186POPC  H14S21356   3.497   1.737   5.353  1.4660 -1.1542  1.5990
  186POPC  C21521357   3.291   1.761   5.301 -0.0048 -0.3294 -0.6047
  186POPC  H15R21358   3.282   1.867   5.334  1.6624 -0.1465 -0.6916
  186POPC  H15S21359   3.189   1.720   5.321  0.1791 -0.3465  0.3377
  186POPC  C21621360   3.322   1.771   5.155  0.8827  0.3478 -0.0272
  186POPC  H16R21361   3.423   1.815   5.140  0.3388  2.1653  1.2497
  186POPC  H16S21362   3.247   1.840   5.112 -0.1274 -0.4979  0.3299
  186POPC  C21721363   3.293   1.641   5.073 -0.3837  0.1006  0.0469
  186POPC  H17R21364   3.191   1.613   5.106 -0.4405  0.4546  0.1833
  186POPC  H17S21365   3.360   1.560   5.108  1.4994  1.4315 -0.3171
  186POPC  C21821366   3.314   1.666   4.924 -0.2117  0.2474 -0.0898
  186POPC  H18R21367   3.271   1.585   4.862 -1.3307  1.2112 -0.5943
  186POPC  H18S21368   3.422   1.671   4.900 -0.4439  2.0629 -0.9195
  186POPC  H18T21369   3.259   1.754   4.883  0.3300  0.0315 -1.3275
  186POPC   C3321370   2.965   1.992   6.327  0.3264  0.7830  0.0022
  186POPC   H3X21371   3.010   2.065   6.398 -1.1337  1.5392  0.1942
  186POPC   H3Y21372   2.911   2.049   6.249 -1.6796 -0.9175  0.0445
  186POPC   C3421373   3.084   1.905   6.257  0.7493  0.0145  0.3066
  186POPC   H4X21374   3.131   1.837   6.332 -1.3163  1.7795  3.4119
  186POPC   H4Y21375   3.161   1.982   6.234 -0.6043  2.0229  2.0954
  186POPC   C3521376   3.041   1.848   6.126 -0.2461  0.2994 -0.3529
  186POPC   H5X21377   2.941   1.800   6.139 -0.6861  0.6587 -2.1584
  186POPC   H5Y21378   3.106   1.763   6.096 -0.1983 -0.5564  1.9048
  186POPC   C3621379   3.043   1.941   6.010  0.8999 -0.6396 -0.1547
  186POPC   H6X21380   3.130   2.010   6.019  0.3623 -0.0700  0.8826
  186POPC   H6Y21381   2.948   1.996   5.997  1.1995 -0.6991 -3.1496
  186POPC   C3721382   3.067   1.860   5.883  0.2434  0.1612  0.3309
  186POPC   H7X21383   2.982   1.788   5.881  0.6242 -0.2891  0.1111
  186POPC   H7Y21384   3.160   1.801   5.880 -0.0550 -0.3507  0.8837
  186POPC   C3821385   3.069   1.933   5.753  0.8069 -0.6376 -0.0118
  186POPC   H8X21386   2.967   1.967   5.725  1.0642  0.9674  0.8656
  186POPC   H8Y21387   3.114   1.864   5.679  0.1416 -1.7726  0.6063
  186POPC   C3921388   3.157   2.063   5.754  0.3167  1.1119  0.0155
  186POPC   H9X21389   3.260   2.030   5.778 -0.0789 -0.7981 -0.7362
  186POPC   H9Y21390   3.116   2.133   5.830 -1.0497 -0.6913  1.0283
  186POPC  C31021391   3.157   2.129   5.614  0.0080  0.1801 -0.2137
  186POPC  H10X21392   3.055   2.139   5.572 -0.6469 -3.3782  0.1825
  186POPC  H10Y21393   3.193   2.040   5.558  3.4946  0.5735  1.1194
  186POPC  C31121394   3.244   2.251   5.595  0.2333  0.6296 -0.0723
  186POPC  H11X21395   3.349   2.227   5.622  0.3661 -1.6384 -2.2265
  186POPC  H11Y21396   3.218   2.329   5.669 -0.4756 -1.0547  1.5441
  186POPC  C31221397   3.239   2.309   5.449  0.6458 -0.1307 -0.3197
  186POPC  H12X21398   3.290   2.408   5.444  2.7174 -1.0728  0.7390
  186POPC  H12Y21399   3.136   2.314   5.410  1.2626 -1.0116 -2.1976
  186POPC  C31321400   3.324   2.217   5.355  0.6301  0.6520  0.5738
  186POPC  H13X21401   3.266   2.123   5.346 -0.4424  1.5160 -2.7552
  186POPC  H13Y21402   3.431   2.205   5.382  0.8833  0.4697 -0.4896
  186POPC  C31421403   3.305   2.267   5.211  0.3771 -0.2527 -0.6777
  186POPC  H14X21404   3.338   2.371   5.190 -3.4089  1.3796  0.5782
  186POPC  H14Y21405   3.196   2.277   5.193  0.3816  2.1542  0.2793
  186POPC  C31521406   3.367   2.166   5.115 -0.5431 -0.2847 -0.1159
  186POPC  H15X21407   3.319   2.161   5.015  3.0167  0.0893 -1.9761
  186POPC  H15Y21408   3.353   2.070   5.170 -0.4727  0.3737  1.0970
  186POPC  C31621409   3.524   2.191   5.087 -0.1590 -0.5560  0.1979
  186POPC  H16X21410   3.584   2.180   5.179  2.2375 -0.0671 -1.2321
  186POPC  H16Y21411   3.534   2.289   5.034 -0.8647  0.2858  1.5689
  186POPC  H16Z21412   3.548   2.110   5.015  1.6181 -0.7388  0.9605
  187POPC     N21413   3.774   1.508   2.158 -0.2592 -0.2178  0.1184
  187POPC   C1221414   3.803   1.609   2.277  0.1715  0.5064 -0.4662
  187POPC  H12A21415   3.832   1.556   2.366 -2.2131  1.6224  1.0637
  187POPC  H12B21416   3.704   1.648   2.297 -0.7226 -3.0900  3.4944
  187POPC   C1321417   3.903   1.449   2.117  0.3899  0.5026 -0.3953
  187POPC  H13A21418   3.982   1.523   2.114  1.6528 -0.8174 -1.7647
  187POPC  H13B21419   3.944   1.379   2.188  0.4388  1.4685  0.5482
  187POPC  H13C21420   3.894   1.395   2.024 -3.3827 -2.5190  1.4331
  187POPC   C1421421   3.675   1.410   2.202  0.3130 -0.3490  0.3113
  187POPC  H14A21422   3.582   1.462   2.219  0.9145  0.4214  1.3788
  187POPC  H14B21423   3.664   1.332   2.128 -0.2980 -0.9464  1.0273
  187POPC  H14C21424   3.717   1.365   2.290  0.7502 -0.2586  0.1563
  187POPC   C1521425   3.724   1.591   2.043 -0.1965 -0.4511  0.7216
  187POPC  H15A21426   3.706   1.532   1.955  0.5063 -1.7925  1.4466
  187POPC  H15B21427   3.793   1.666   2.008 -1.9138  1.1220  0.5475
  187POPC  H15C21428   3.633   1.641   2.072 -0.4377  1.2437 -2.4980
  187POPC   C1121429   3.913   1.713   2.256  0.7210  0.3788 -0.3107
  187POPC  H11A21430   3.897   1.801   2.322  2.2860  0.4313  0.0381
  187POPC  H11B21431   3.909   1.753   2.152  0.4500  1.6982  0.1913
  187POPC     P21432   4.102   1.600   2.411 -0.5731  0.2638  0.4714
  187POPC   O1321433   4.189   1.708   2.466  0.3461  0.6763  0.2967
  187POPC   O1421434   4.168   1.467   2.373  0.1595 -0.6948  0.2701
  187POPC   O1221435   4.040   1.657   2.277  1.2426 -0.1419 -0.0770
  187POPC   O1121436   3.975   1.563   2.493  0.6279  0.0788 -0.2917
  187POPC    C121437   3.896   1.647   2.577 -0.2979 -0.7646 -0.1090
  187POPC    HA21438   3.821   1.578   2.622  1.6380 -2.7956  0.2097
  187POPC    HB21439   3.844   1.724   2.517  0.4600 -1.2024 -1.3679
  187POPC    C221440   3.976   1.706   2.696 -0.2173  0.0202 -0.1222
  187POPC    HS21441   4.061   1.762   2.652 -1.2630  0.4767 -1.6744
  187POPC   O2121442   4.012   1.586   2.768  0.4039 -0.3545 -0.5217
  187POPC   C2121443   4.130   1.592   2.828  0.0766 -0.6121  0.3009
  187POPC   O2221444   4.220   1.678   2.811  0.3089 -0.0652  0.0532
  187POPC   C2221445   4.135   1.479   2.937  0.7191 -0.1977  0.0175
  187POPC   H2R21446   4.204   1.404   2.894 -1.0361 -1.0965 -1.3687
  187POPC   H2S21447   4.036   1.430   2.950 -0.3866  1.5253 -1.4570
  187POPC    C321448   3.888   1.802   2.778  0.2547 -0.3155  0.6042
  187POPC    HX21449   3.797   1.745   2.808  0.0827 -0.1470  0.3983
  187POPC    HY21450   3.843   1.890   2.728  0.0835  0.3898  1.9609
  187POPC   O3121451   3.963   1.833   2.895  0.0551  0.2549 -0.2326
  187POPC   C3121452   4.051   1.938   2.880  0.0954  0.2248 -0.1171
  187POPC   O3221453   4.076   1.994   2.776  0.4187 -0.0455  0.7847
  187POPC   C3221454   4.118   1.980   3.007  1.1933 -0.1364 -1.3297
  187POPC   H2X21455   4.204   2.050   2.998  1.8663 -0.3550  2.0291
  187POPC   H2Y21456   4.153   1.889   3.059 -1.3371  0.9694  2.8416
  187POPC   C2321457   4.183   1.533   3.072  0.0341 -0.2283 -0.8272
  187POPC   H3R21458   4.262   1.608   3.056 -1.3650  0.9519 -2.5196
  187POPC   H3S21459   4.228   1.449   3.130 -0.6751 -0.8365 -1.1342
  187POPC   C2421460   4.074   1.586   3.158  0.2949 -0.0779 -0.3662
  187POPC   H4R21461   4.000   1.503   3.161  0.7792 -0.6505 -2.4359
  187POPC   H4S21462   4.033   1.681   3.116  0.3182 -0.5895 -1.5990
  187POPC   C2521463   4.125   1.607   3.304 -0.5067  0.5597 -0.8406
  187POPC   H5R21464   4.208   1.679   3.291  0.9231 -1.1375 -1.4881
  187POPC   H5S21465   4.167   1.512   3.344  1.1298  1.7351  0.3699
  187POPC   C2621466   4.015   1.652   3.409 -1.2363 -0.6775 -0.5899
  187POPC   H6R21467   3.953   1.565   3.440 -2.3211  0.3095  0.0834
  187POPC   H6S21468   3.945   1.725   3.365  0.2856  1.0411 -0.2889
  187POPC   C2721469   4.070   1.709   3.543  0.2818 -0.1647 -0.4017
  187POPC   H7R21470   4.155   1.782   3.539 -0.5120  0.8234  0.2460
  187POPC   H7S21471   4.105   1.621   3.601 -0.3458 -1.9244 -2.5945
  187POPC   C2821472   3.946   1.766   3.614 -0.4849  0.0203  0.5263
  187POPC   H8R21473   3.862   1.694   3.621 -1.3488  0.7475 -1.5479
  187POPC   H8S21474   3.918   1.855   3.554 -0.5131 -0.7696 -0.6714
  187POPC   C2921475   3.986   1.815   3.753 -0.4133 -0.1915 -0.3569
  187POPC   H9121476   4.072   1.885   3.756  0.1003 -0.8214 -0.2184
  187POPC  C21021477   3.918   1.772   3.866 -0.6762 -0.4863 -0.4000
  187POPC  H10121478   3.944   1.800   3.969 -1.1476 -2.4607  0.2967
  187POPC  C21121479   3.791   1.688   3.862 -0.4325 -0.3643  0.6041
  187POPC  H11R21480   3.822   1.583   3.845  0.5872 -0.2974  1.8725
  187POPC  H11S21481   3.710   1.721   3.793 -0.5164 -4.5670 -1.5975
  187POPC  C21221482   3.722   1.689   4.004 -0.1348 -0.1511  0.2390
  187POPC  H12R21483   3.785   1.653   4.088  0.3142 -0.5485 -0.2563
  187POPC  H12S21484   3.646   1.608   3.997  1.2896 -1.9086  3.0529
  187POPC  C21321485   3.652   1.811   4.055 -0.5172 -0.0113  0.5855
  187POPC  H13R21486   3.585   1.850   3.975  0.3751  1.6490  0.6162
  187POPC  H13S21487   3.728   1.891   4.072 -1.6727  1.2868 -0.0971
  187POPC  C21421488   3.573   1.799   4.185 -0.0080  0.3156  1.0284
  187POPC  H14R21489   3.650   1.769   4.259  0.4396 -1.4638 -0.1006
  187POPC  H14S21490   3.498   1.717   4.174 -0.1410  0.5984 -0.4206
  187POPC  C21521491   3.505   1.930   4.222 -1.0874 -0.1456  0.3352
  187POPC  H15R21492   3.430   1.961   4.146 -0.3486 -2.4849 -1.4650
  187POPC  H15S21493   3.581   2.011   4.227  0.0334 -0.8673 -2.7445
  187POPC  C21621494   3.425   1.917   4.356 -0.2896  0.2977  0.1193
  187POPC  H16R21495   3.354   1.832   4.367  0.2136 -0.4754 -2.1411
  187POPC  H16S21496   3.359   2.005   4.365 -0.7641  0.2453 -2.3721
  187POPC  C21721497   3.508   1.917   4.486 -0.3134  0.0059 -0.4394
  187POPC  H17R21498   3.567   2.011   4.487  0.6465 -0.5266  2.1957
  187POPC  H17S21499   3.584   1.836   4.488  1.1449  1.3287  0.5236
  187POPC  C21821500   3.421   1.930   4.610 -0.3043  0.5087 -0.0418
  187POPC  H18R21501   3.485   1.941   4.701  1.0110 -1.4319 -0.6657
  187POPC  H18S21502   3.353   1.842   4.609  0.7938 -0.4401 -3.2890
  187POPC  H18T21503   3.359   2.022   4.605 -0.8798  0.1711  0.6550
  187POPC   C3321504   4.022   2.048   3.107  0.4746  0.2511  0.6216
  187POPC   H3X21505   3.950   1.977   3.153 -1.0990  1.3162 -0.1078
  187POPC   H3Y21506   3.961   2.126   3.056 -0.3432 -0.7420  0.0579
  187POPC   C3421507   4.091   2.105   3.225 -0.1366  0.5568  0.1118
  187POPC   H4X21508   4.050   2.206   3.244  1.5057  1.4681 -0.8953
  187POPC   H4Y21509   4.200   2.108   3.203 -0.2431 -0.3407 -0.5709
  187POPC   C3521510   4.088   2.021   3.354  0.4176  0.1596  0.0670
  187POPC   H5X21511   4.167   1.943   3.349 -1.3606 -1.7073 -0.8555
  187POPC   H5Y21512   3.995   1.961   3.368  0.2958  0.7331  2.1023
  187POPC   C3621513   4.115   2.091   3.484  0.8451 -1.0928 -0.1348
  187POPC   H6X21514   4.154   2.014   3.553  1.8260 -0.8894 -0.4457
  187POPC   H6Y21515   4.026   2.145   3.523 -0.1930 -0.6056 -2.9192
  187POPC   C3721516   4.227   2.199   3.469 -0.0722  0.1863  0.5497
  187POPC   H7X21517   4.204   2.269   3.386  1.8780  1.2497  0.8532
  187POPC   H7Y21518   4.329   2.163   3.445  0.1060  1.6691 -1.0963
  187POPC   C3821519   4.236   2.297   3.589  0.0388 -0.2656 -0.3170
  187POPC   H8X21520   4.140   2.352   3.605  0.0491 -0.5378  0.7465
  187POPC   H8Y21521   4.311   2.374   3.561 -2.0293  1.8059 -0.4844
  187POPC   C3921522   4.287   2.232   3.716  0.0910  1.0051 -0.6530
  187POPC   H9X21523   4.376   2.171   3.692  0.7109  0.8222  1.8633
  187POPC   H9Y21524   4.196   2.178   3.749  1.0270  0.1611  0.6446
  187POPC  C31021525   4.335   2.345   3.818  0.4530 -0.0158  0.1016
  187POPC  H10X21526   4.253   2.418   3.833  0.0611 -0.3636 -0.3262
  187POPC  H10Y21527   4.410   2.400   3.756 -0.4884  1.2852  0.0754
  187POPC  C31121528   4.396   2.306   3.948 -0.0954 -0.1018 -0.0587
  187POPC  H11X21529   4.475   2.230   3.928  0.4119  0.3071  0.3383
  187POPC  H11Y21530   4.309   2.273   4.009  0.9714 -1.7072  0.6646
  187POPC  C31221531   4.474   2.415   4.024 -0.3124 -0.9334  0.1143
  187POPC  H12X21532   4.410   2.496   4.065  1.3621  0.0395  0.9414
  187POPC  H12Y21533   4.541   2.465   3.951 -0.5750  0.7527  0.9803
  187POPC  C31321534   4.563   2.363   4.142  0.1177  0.0451 -0.0656
  187POPC  H13X21535   4.625   2.284   4.095  2.4516 -0.3290  3.2724
  187POPC  H13Y21536   4.502   2.305   4.214  0.1118 -1.3111 -1.1145
  187POPC  C31421537   4.663   2.465   4.205  0.7304  0.0196 -0.3375
  187POPC  H14X21538   4.604   2.531   4.272 -0.1322  0.4181 -1.4652
  187POPC  H14Y21539   4.704   2.534   4.127  1.6521  1.0953  1.0398
  187POPC  C31521540   4.778   2.408   4.291  0.0417  0.4310  0.4006
  187POPC  H15X21541   4.738   2.323   4.350 -0.1666  0.1314 -0.1720
  187POPC  H15Y21542   4.823   2.492   4.349  1.4721  1.4874 -2.1035
  187POPC  C31621543   4.892   2.349   4.215 -0.1461  0.7750 -0.0629
  187POPC  H16X21544   4.951   2.425   4.159  0.9210  0.5456  0.7120
  187POPC  H16Y21545   4.855   2.272   4.143 -1.6292  1.5546 -0.1510
  187POPC  H16Z21546   4.968   2.294   4.276 -1.4326 -0.4183  0.5237
  188POPC     N21547   5.248   3.370   2.650 -0.2070  0.3765  0.5793
  188POPC   C1221548   5.210   3.410   2.792  0.2114  0.4354 -0.1530
  188POPC  H12A21549   5.237   3.512   2.817 -1.5631  1.0345 -0.5255
  188POPC  H12B21550   5.275   3.353   2.857  1.1527  3.6308  1.9794
  188POPC   C1321551   5.384   3.421   2.613  0.1777 -0.4354  0.0906
  188POPC  H13A21552   5.452   3.380   2.687 -1.5730 -5.1054 -0.5268
  188POPC  H13B21553   5.426   3.388   2.520 -1.6477 -1.5496 -0.3892
  188POPC  H13C21554   5.394   3.528   2.624  1.0100 -0.0258 -3.4314
  188POPC   C1421555   5.273   3.222   2.662  0.0212  0.0557 -0.5278
  188POPC  H14A21556   5.179   3.177   2.689 -0.9174  1.3180 -1.5705
  188POPC  H14B21557   5.294   3.178   2.565 -1.0733 -1.2990 -0.1807
  188POPC  H14C21558   5.349   3.189   2.732 -0.1523 -1.6410 -1.0823
  188POPC   C1521559   5.140   3.402   2.548 -0.4140  1.0229  0.0980
  188POPC  H15A21560   5.096   3.499   2.568 -0.0281  1.1131  0.5311
  188POPC  H15B21561   5.070   3.319   2.552  0.1813  0.5014 -0.2685
  188POPC  H15C21562   5.184   3.397   2.450 -2.2605  0.2228 -0.7474
  188POPC   C1121563   5.059   3.397   2.838 -0.3627 -0.2015 -0.0738
  188POPC  H11A21564   4.999   3.465   2.773 -1.0370 -0.2071  0.5242
  188POPC  H11B21565   5.058   3.438   2.941 -0.5332 -0.9223  0.2177
  188POPC     P21566   4.869   3.223   2.774  0.2336 -0.0156 -0.2483
  188POPC   O1321567   4.804   3.117   2.857  0.3328 -0.5339  0.1953
  188POPC   O1421568   4.897   3.195   2.632  0.2294  0.3515  0.0019
  188POPC   O1221569   5.007   3.263   2.841  0.1983 -0.9487 -0.5410
  188POPC   O1121570   4.784   3.363   2.788  0.2441  0.4028  0.0147
  188POPC    C121571   4.643   3.358   2.820  0.5999  0.0800  0.0110
  188POPC    HA21572   4.614   3.264   2.872  0.3161 -0.3295 -0.8663
  188POPC    HB21573   4.586   3.374   2.726 -1.2014 -0.6791  0.9269
  188POPC    C221574   4.622   3.464   2.923  0.2226  0.0834 -0.3762
  188POPC    HS21575   4.665   3.562   2.895 -0.3049  0.7114  0.8841
  188POPC   O2121576   4.685   3.420   3.043  0.2117 -0.1356 -0.3011
  188POPC   C2121577   4.799   3.464   3.075 -0.3283  0.0761 -0.4672
  188POPC   O2221578   4.856   3.564   3.036  0.2890  0.4971 -0.2161
  188POPC   C2221579   4.867   3.349   3.161 -0.8717  0.0397 -0.0502
  188POPC   H2R21580   4.943   3.302   3.095  0.0970  2.8812 -1.1057
  188POPC   H2S21581   4.788   3.271   3.173  0.0356 -1.3713 -2.3644
  188POPC    C321582   4.472   3.474   2.953  0.1054  0.0627  0.1554
  188POPC    HX21583   4.451   3.388   3.020  3.4921 -1.8369 -1.0170
  188POPC    HY21584   4.414   3.464   2.859  0.0843 -0.7376  0.2548
  188POPC   O3121585   4.446   3.598   3.030 -0.9919 -0.2319 -0.3506
  188POPC   C3121586   4.389   3.693   2.949 -0.2287  0.0778 -0.5095
  188POPC   O3221587   4.360   3.686   2.832  0.1053 -0.0757  0.4624
  188POPC   C3221588   4.362   3.812   3.039 -0.0850  0.2796  0.0386
  188POPC   H2X21589   4.281   3.877   2.999 -1.6868 -1.5878  0.0817
  188POPC   H2Y21590   4.451   3.878   3.042  0.5092 -0.3884 -1.4974
  188POPC   C2321591   4.928   3.392   3.297  0.8609  0.2584 -0.7374
  188POPC   H3R21592   4.983   3.488   3.289 -1.0225  1.2923 -2.1533
  188POPC   H3S21593   4.986   3.310   3.345  1.8380  1.7032  0.6394
  188POPC   C2421594   4.822   3.432   3.403  0.3965 -0.5494  1.3484
  188POPC   H4R21595   4.767   3.339   3.431  0.0193 -0.1204  2.0802
  188POPC   H4S21596   4.754   3.512   3.365  1.0939 -0.0722  1.1005
  188POPC   C2521597   4.889   3.478   3.535  0.7780 -0.2123 -0.3135
  188POPC   H5R21598   4.953   3.562   3.502 -0.9025  1.4826  0.5741
  188POPC   H5S21599   4.959   3.402   3.576  1.4387  0.4659 -0.1722
  188POPC   C2621600   4.774   3.510   3.626 -0.1151 -0.4609  0.0037
  188POPC   H6R21601   4.723   3.412   3.639 -2.0214  0.5327  0.3631
  188POPC   H6S21602   4.707   3.586   3.583 -1.5748 -1.2787  0.7362
  188POPC   C2721603   4.803   3.564   3.769  0.1734  0.4534  1.6360
  188POPC   H7R21604   4.866   3.655   3.756 -0.0037  0.4078  0.3190
  188POPC   H7S21605   4.864   3.492   3.828 -0.8426  0.9652  3.4238
  188POPC   C2821606   4.676   3.608   3.852 -0.1448  0.1875  0.1482
  188POPC   H8R21607   4.605   3.657   3.782  1.6814  2.8254  0.0046
  188POPC   H8S21608   4.706   3.680   3.931  2.1176  0.1042 -0.5488
  188POPC   C2921609   4.613   3.486   3.903  0.0045 -0.0815 -0.4068
  188POPC   H9121610   4.522   3.454   3.850 -1.6821  1.5797  1.3958
  188POPC  C21021611   4.639   3.421   4.019  0.5727 -0.1915 -0.4615
  188POPC  H10121612   4.586   3.331   4.051 -0.1951  1.1270  2.2560
  188POPC  C21121613   4.759   3.455   4.109  0.4436  0.0620  0.8054
  188POPC  H11R21614   4.838   3.522   4.068  0.9423 -0.7431  0.4148
  188POPC  H11S21615   4.815   3.361   4.130  4.4876  1.4166 -2.4937
  188POPC  C21221616   4.710   3.501   4.250 -0.3214 -0.5263 -0.3398
  188POPC  H12R21617   4.632   3.427   4.279  2.7688 -2.3768  4.2263
  188POPC  H12S21618   4.666   3.603   4.243  0.2336 -0.1284  1.4433
  188POPC  C21321619   4.826   3.493   4.352  0.3822 -0.7085 -0.3235
  188POPC  H13R21620   4.918   3.543   4.314 -1.5477  3.3412 -0.2349
  188POPC  H13S21621   4.846   3.384   4.361 -0.2323 -0.7345  1.0249
  188POPC  C21421622   4.791   3.538   4.491  0.3887 -0.4676 -0.7436
  188POPC  H14R21623   4.870   3.510   4.564 -1.3649 -1.4832  0.8532
  188POPC  H14S21624   4.697   3.484   4.513  0.9599 -1.4253 -0.6193
  188POPC  C21521625   4.754   3.688   4.513  0.2459 -0.0504 -0.3663
  188POPC  H15R21626   4.656   3.713   4.468 -0.2425 -0.4362  0.4446
  188POPC  H15S21627   4.840   3.755   4.490  0.6218 -1.1429 -2.3056
  188POPC  C21621628   4.743   3.699   4.663  0.5084 -0.3715  0.5352
  188POPC  H16R21629   4.842   3.678   4.709  1.3837 -0.4428 -1.3072
  188POPC  H16S21630   4.672   3.621   4.697 -0.1742 -0.0912 -0.2215
  188POPC  C21721631   4.678   3.830   4.721  0.4783  0.0995  0.3539
  188POPC  H17R21632   4.575   3.837   4.682  0.2687  3.0140  1.2130
  188POPC  H17S21633   4.740   3.916   4.688 -0.1445  0.2135 -0.5282
  188POPC  C21821634   4.682   3.817   4.878  0.1178  0.6578  0.3855
  188POPC  H18R21635   4.619   3.730   4.906  0.7326 -0.3219 -1.1516
  188POPC  H18S21636   4.636   3.908   4.922  1.3905  0.6199  1.9010
  188POPC  H18T21637   4.785   3.810   4.918 -0.0539  2.0989  1.1577
  188POPC   C3321638   4.328   3.774   3.182 -0.0222 -0.1990 -0.6295
  188POPC   H3X21639   4.321   3.872   3.233  4.1969 -0.1533  0.1911
  188POPC   H3Y21640   4.406   3.712   3.232 -0.8303 -0.1490  0.7335
  188POPC   C3421641   4.189   3.700   3.195 -0.5019  0.1503  0.6524
  188POPC   H4X21642   4.187   3.616   3.122 -1.5168  2.2904 -1.9533
  188POPC   H4Y21643   4.103   3.758   3.155  1.3490  2.7593  0.1722
  188POPC   C3521644   4.172   3.645   3.338  0.3573  0.1115 -0.5238
  188POPC   H5X21645   4.266   3.597   3.371 -1.1945 -1.4345  1.9868
  188POPC   H5Y21646   4.088   3.572   3.328  0.4302 -0.0741  0.1830
  188POPC   C3621647   4.139   3.749   3.436  0.2802 -0.2660  0.0069
  188POPC   H6X21648   4.048   3.795   3.394  0.9702  1.3244  0.1663
  188POPC   H6Y21649   4.212   3.831   3.454  1.6516 -1.5967  0.7890
  188POPC   C3721650   4.112   3.691   3.581  0.1012 -0.4006 -0.0962
  188POPC   H7X21651   4.104   3.580   3.585 -1.0461 -0.4203 -2.0214
  188POPC   H7Y21652   4.025   3.748   3.620  1.3994  0.6047  1.4951
  188POPC   C3821653   4.221   3.724   3.684  0.2887  0.6820  0.0143
  188POPC   H8X21654   4.239   3.833   3.697 -1.1212  0.6977  2.4384
  188POPC   H8Y21655   4.311   3.669   3.649 -1.3006 -1.5933 -0.7245
  188POPC   C3921656   4.170   3.676   3.820 -0.6309  0.0087 -0.1232
  188POPC   H9X21657   4.147   3.570   3.798 -0.5414  0.1676 -1.0325
  188POPC   H9Y21658   4.081   3.737   3.848  0.3126  0.8318  1.1840
  188POPC  C31021659   4.281   3.691   3.928 -0.1058  0.1094  0.0629
  188POPC  H10X21660   4.316   3.795   3.944  2.3140 -0.5195 -0.5961
  188POPC  H10Y21661   4.371   3.644   3.882 -0.2530  1.1429 -1.3425
  188POPC  C31121662   4.245   3.624   4.065  0.8267 -0.5929 -0.4140
  188POPC  H11X21663   4.238   3.514   4.048 -0.1239 -0.7002  0.6174
  188POPC  H11Y21664   4.140   3.652   4.085  0.0541 -2.4715 -1.5481
  188POPC  C31221665   4.342   3.664   4.182  0.3799 -0.2050 -0.2630
  188POPC  H12X21666   4.449   3.640   4.163  0.3668 -0.6052  0.1237
  188POPC  H12Y21667   4.320   3.592   4.264  0.1261 -1.2021 -1.1785
  188POPC  C31321668   4.321   3.809   4.241 -0.5069 -0.4512 -0.6681
  188POPC  H13X21669   4.213   3.820   4.264 -0.2029  1.2076  0.0569
  188POPC  H13Y21670   4.351   3.881   4.162  0.0897 -0.3660 -0.3642
  188POPC  C31421671   4.421   3.830   4.359 -0.3144  0.3164 -0.0801
  188POPC  H14X21672   4.516   3.870   4.320  0.3765 -1.9339 -0.8537
  188POPC  H14Y21673   4.450   3.729   4.395  1.3340  0.2899 -1.4054
  188POPC  C31521674   4.380   3.918   4.473  0.6409 -0.2027 -0.1379
  188POPC  H15X21675   4.469   3.925   4.539  0.2069  0.8094  0.3664
  188POPC  H15Y21676   4.296   3.875   4.532  1.1794  0.9407  1.5461
  188POPC  C31621677   4.337   4.055   4.429 -0.6573 -1.1841  0.3278
  188POPC  H16X21678   4.243   4.041   4.370  0.0523 -1.9394 -0.6510
  188POPC  H16Y21679   4.420   4.081   4.359  0.1699  0.3360  1.8061
  188POPC  H16Z21680   4.325   4.132   4.508 -0.3323 -0.3604 -0.4031
  189SAPI   C1221681   1.552   2.236   7.286 -0.8140  0.1317  0.0824
  189SAPI    H221682   1.511   2.189   7.193 -0.2743  1.0174 -0.6214
  189SAPI    O221683   1.482   2.185   7.398  0.2981 -0.2458  0.0476
  189SAPI   HO221684   1.412   2.249   7.412  1.5866  0.7484  2.7599
  189SAPI   C1321685   1.701   2.187   7.279  0.3847 -0.3440 -0.2548
  189SAPI    H321686   1.741   2.230   7.185 -0.0102  0.4269 -0.0776
  189SAPI    O321687   1.704   2.045   7.282  0.9527  0.7407 -0.8479
  189SAPI   HO321688   1.691   2.013   7.193  3.1815  1.4304 -1.4945
  189SAPI   C1421689   1.781   2.245   7.397  0.1081 -0.5305 -0.5787
  189SAPI    H421690   1.768   2.183   7.488  1.5362  0.6538  0.4815
  189SAPI    O421691   1.924   2.227   7.378  0.8285  0.8343 -0.4525
  189SAPI   HO421692   1.952   2.280   7.304 -1.3742 -0.6304 -2.4879
  189SAPI   C1521693   1.748   2.394   7.436  0.4904  0.9167 -0.7170
  189SAPI    H521694   1.820   2.454   7.375  2.4051  0.4365  0.9623
  189SAPI    O521695   1.782   2.412   7.574  0.1851 -0.5584  0.0718
  189SAPI   HO521696   1.808   2.502   7.595  0.0834 -0.4015 -0.4590
  189SAPI   C1621697   1.611   2.445   7.402 -0.0704  0.2967  0.0080
  189SAPI    H621698   1.542   2.424   7.486  0.6477  0.1861  0.5758
  189SAPI    O621699   1.617   2.582   7.385 -0.0250  0.3391  0.3925
  189SAPI   HO621700   1.545   2.617   7.331  1.2690 -0.3186 -1.8658
  189SAPI   C1121701   1.535   2.386   7.282 -0.1937  0.5704  0.0255
  189SAPI    H121702   1.596   2.415   7.193 -0.3647 -1.3563 -0.7774
  189SAPI     P21703   1.370   2.538   7.141 -0.1543  0.0862  0.4868
  189SAPI   O1321704   1.423   2.673   7.167 -0.2763  0.0540 -0.2357
  189SAPI   O1421705   1.222   2.527   7.119  0.1542  0.0097 -0.0129
  189SAPI   O1221706   1.409   2.430   7.256  0.0221  0.4996 -0.5509
  189SAPI   O1121707   1.444   2.488   7.005  0.1588  0.7727 -0.1148
  189SAPI    C121708   1.417   2.365   6.949 -0.2474  0.5146  0.0668
  189SAPI    HA21709   1.505   2.301   6.969 -0.0122  0.3856 -1.2605
  189SAPI    HB21710   1.330   2.316   6.998 -1.3859  0.6291 -1.7350
  189SAPI    C221711   1.392   2.375   6.798 -0.1762  0.8806  0.4671
  189SAPI    HS21712   1.428   2.280   6.753  0.5177  0.6525  1.4601
  189SAPI   O2121713   1.454   2.481   6.720 -0.1835 -0.0524 -0.4064
  189SAPI   C2121714   1.583   2.501   6.733 -0.0458  0.5345 -0.5925
  189SAPI   O2221715   1.661   2.424   6.787  0.7449  0.1812  0.0661
  189SAPI   C2221716   1.618   2.636   6.674  0.2909 -0.5593 -0.3716
  189SAPI   H2R21717   1.571   2.710   6.743  0.5698 -1.6698  1.0729
  189SAPI   H2S21718   1.727   2.649   6.687  0.1497 -0.4012  0.8160
  189SAPI    C321719   1.237   2.394   6.770  0.2571 -0.6124 -0.3685
  189SAPI    HX21720   1.215   2.496   6.809  2.6994 -0.3693  0.5257
  189SAPI    HY21721   1.173   2.320   6.822  0.8956 -0.4187  0.7301
  189SAPI   O3121722   1.211   2.403   6.634 -0.0906 -0.0609  0.4140
  189SAPI   C3121723   1.200   2.280   6.575  0.3031  0.2578  0.0703
  189SAPI   O3221724   1.202   2.174   6.633  1.1143  0.2351  0.4957
  189SAPI   C3221725   1.168   2.306   6.424 -0.3668 -0.2333 -0.4528
  189SAPI   H2X21726   1.217   2.220   6.373 -0.2513  0.3639 -1.3686
  189SAPI   H2Y21727   1.216   2.397   6.385 -0.0602  0.8422  2.2199
  189SAPI   C2321728   1.584   2.647   6.523 -0.3575 -0.4293 -0.1136
  189SAPI   H3R21729   1.479   2.614   6.509 -0.0331 -1.2302 -0.7135
  189SAPI   H3S21730   1.651   2.569   6.480  0.0930 -0.8762  1.3656
  189SAPI   C2421731   1.617   2.778   6.445  0.4478 -0.5570  0.1388
  189SAPI   H4R21732   1.554   2.865   6.473 -1.4429 -1.6123 -0.6809
  189SAPI   H4S21733   1.573   2.761   6.345 -2.9866  0.0652  1.4201
  189SAPI   C2521734   1.759   2.825   6.435  0.0177 -0.6459  0.3593
  189SAPI   H5R21735   1.763   2.935   6.435 -1.2072 -0.5738 -1.4253
  189SAPI   C2621736   1.875   2.764   6.406 -0.6533  0.4607  0.2474
  189SAPI   H6R21737   1.965   2.825   6.391 -1.5457  1.2566 -2.4748
  189SAPI   C2721738   1.900   2.620   6.369 -0.5003  0.0149  0.0487
  189SAPI   H7R21739   1.840   2.560   6.440  0.1618  0.4149  0.9619
  189SAPI   H7S21740   2.009   2.599   6.381  0.0659  1.7105 -1.5675
  189SAPI   C2821741   1.863   2.583   6.233  0.1581  0.4306 -0.3024
  189SAPI   H8R21742   1.754   2.586   6.216  0.1005  0.9608  0.1055
  189SAPI   C2921743   1.944   2.552   6.131 -0.2988  0.4595  0.1126
  189SAPI   H9R21744   1.902   2.525   6.033 -0.1501  0.0856  0.1505
  189SAPI  C21021745   2.096   2.538   6.118  0.7071 -0.3391 -0.2262
  189SAPI  H10R21746   2.133   2.553   6.221  0.2463  0.3978 -0.1657
  189SAPI  H10S21747   2.133   2.620   6.053 -0.6235 -1.0261 -1.9374
  189SAPI  C21121748   2.141   2.412   6.064  0.2150 -0.0606 -0.2938
  189SAPI  H11R21749   2.159   2.347   6.151  0.0193  0.0704 -0.1546
  189SAPI  C21221750   2.189   2.373   5.941  0.1565 -0.4744  0.2121
  189SAPI  H12R21751   2.231   2.272   5.936  0.8347 -0.3301  1.9662
  189SAPI  C21321752   2.183   2.455   5.818  0.0822 -0.2883  0.4589
  189SAPI  H13R21753   2.283   2.443   5.770  0.2327  0.7056  0.5000
  189SAPI  H13S21754   2.178   2.564   5.842  2.1677 -0.6355  2.7857
  189SAPI  C21421755   2.069   2.432   5.719  0.9768 -0.3234 -0.1628
  189SAPI  H14R21756   1.997   2.352   5.739  0.3890  0.4890  1.0591
  189SAPI  C21521757   2.057   2.494   5.605 -0.6963 -0.1206  0.4504
  189SAPI  H15R21758   1.980   2.462   5.532 -0.1508  1.9642 -1.1310
  189SAPI  C21621759   2.160   2.592   5.557 -0.0492  0.3937  0.6877
  189SAPI  H16R21760   2.255   2.603   5.614  1.5408  2.0434 -1.9992
  189SAPI  H16S21761   2.115   2.693   5.548 -1.9921 -0.5941 -1.9188
  189SAPI  C21721762   2.203   2.555   5.410 -0.0571 -0.4803 -0.7607
  189SAPI  H17R21763   2.266   2.638   5.373 -3.0182  1.2087 -2.3690
  189SAPI  H17S21764   2.122   2.543   5.336  0.4535  0.1569 -1.4328
  189SAPI  C21821765   2.278   2.426   5.402  0.5204  0.0644 -0.4258
  189SAPI  H18R21766   2.205   2.346   5.428 -1.1827  1.3825 -0.9283
  189SAPI  H18S21767   2.352   2.423   5.485 -0.7153 -0.7511  0.7001
  189SAPI  C21921768   2.356   2.402   5.272  0.1726  0.3432 -0.9149
  189SAPI  H19R21769   2.460   2.437   5.285  1.1532 -3.1212  2.5001
  189SAPI  H19S21770   2.304   2.458   5.191  0.7255  2.2809  0.0250
  189SAPI  C22021771   2.370   2.255   5.230 -0.3404 -0.5887  0.1596
  189SAPI  H20R21772   2.433   2.242   5.140 -1.1425 -0.8682 -0.3770
  189SAPI  H20S21773   2.265   2.224   5.207 -1.5924  1.3176  2.7695
  189SAPI  H20T21774   2.403   2.194   5.316  3.0406 -0.1488 -0.6920
  189SAPI   C3321775   1.014   2.296   6.400 -0.0324  0.0674 -0.4751
  189SAPI   H3X21776   0.972   2.342   6.492 -1.8167  1.4792 -1.9174
  189SAPI   H3Y21777   0.988   2.188   6.403 -1.9741  0.5212  0.6607
  189SAPI   C3421778   0.954   2.368   6.280 -0.1040 -0.0980  0.1496
  189SAPI   H4X21779   1.006   2.464   6.260 -2.4636  0.8441 -2.0196
  189SAPI   H4Y21780   0.850   2.385   6.315  0.3336  0.3096  1.3179
  189SAPI   C3521781   0.968   2.291   6.153  0.5124  0.4417  0.2668
  189SAPI   H5X21782   0.916   2.194   6.166  0.9372 -0.0244 -1.2019
  189SAPI   H5Y21783   1.074   2.261   6.142  0.7549  1.8227 -2.0976
  189SAPI   C3621784   0.907   2.362   6.034 -0.6654 -0.4318  0.1368
  189SAPI   H6X21785   0.828   2.435   6.065  0.9568  1.2873  0.4091
  189SAPI   H6Y21786   0.866   2.290   5.961  0.8055 -0.3416 -0.8057
  189SAPI   C3721787   1.012   2.455   5.952  0.9108  0.9643  0.6082
  189SAPI   H7X21788   1.096   2.387   5.925 -0.2370 -0.5684  0.7761
  189SAPI   H7Y21789   1.042   2.537   6.022 -3.1665  2.0992  1.2611
  189SAPI   C3821790   0.959   2.524   5.827 -0.3227  0.2275 -0.3010
  189SAPI   H8X21791   0.885   2.593   5.873 -1.6612 -2.5530  2.0377
  189SAPI   H8Y21792   0.900   2.451   5.769  1.6288 -0.6221 -1.3002
  189SAPI   C3921793   1.064   2.596   5.750  0.5919 -0.2641 -0.3920
  189SAPI   H9X21794   1.147   2.636   5.813 -0.2908  0.5021  0.3030
  189SAPI   H9Y21795   1.019   2.684   5.699  0.5441 -1.3184 -2.2594
  189SAPI  C31021796   1.125   2.500   5.646 -0.6545 -0.4847 -0.6009
  189SAPI  H10X21797   1.049   2.443   5.588  0.6777 -1.4124 -1.4911
  189SAPI  H10Y21798   1.183   2.426   5.705 -1.1593  0.4339  1.1209
  189SAPI  C31121799   1.227   2.565   5.548 -0.3878  0.5943 -0.6740
  189SAPI  H11X21800   1.265   2.489   5.475  0.8812 -0.0857  0.6588
  189SAPI  H11Y21801   1.315   2.597   5.606  0.3427 -0.5563 -1.1090
  189SAPI  C31221802   1.171   2.672   5.463  0.0210 -0.2739 -0.2953
  189SAPI  H12X21803   1.115   2.743   5.529 -0.3648 -0.7067 -0.1466
  189SAPI  H12Y21804   1.092   2.634   5.395 -0.0900 -0.1664 -0.2275
  189SAPI  C31321805   1.276   2.744   5.378  0.3353 -0.3708  0.2507
  189SAPI  H13X21806   1.309   2.676   5.297  0.9279 -0.8022  0.8468
  189SAPI  H13Y21807   1.365   2.764   5.441 -1.1344 -1.3019  2.7799
  189SAPI  C31421808   1.229   2.884   5.332  0.4704  0.0344  0.0374
  189SAPI  H14X21809   1.201   2.941   5.423  1.7771 -0.5594  0.8461
  189SAPI  H14Y21810   1.139   2.881   5.267 -1.6971  0.4745  2.8467
  189SAPI  C31521811   1.341   2.954   5.257 -0.2036 -0.5689  0.9743
  189SAPI  H15X21812   1.429   2.956   5.325 -1.8186  0.2210  3.2090
  189SAPI  H15Y21813   1.302   3.057   5.241  1.2270 -0.3395 -1.3679
  189SAPI  C31621814   1.380   2.881   5.125  0.5551 -0.1726 -0.2721
  189SAPI  H16X21815   1.434   2.789   5.158 -0.8881 -1.3787 -1.1206
  189SAPI  H16Y21816   1.443   2.961   5.080  0.6229  0.8024  1.4748
  189SAPI  C31721817   1.258   2.828   5.041  0.4485 -0.3915  0.2223
  189SAPI  H17X21818   1.185   2.907   5.014  0.6100 -0.6075 -0.9104
  189SAPI  H17Y21819   1.206   2.750   5.099 -1.0973  0.7015  0.3627
  189SAPI  C31821820   1.289   2.747   4.917 -0.4545 -0.2528 -0.6666
  189SAPI  H18X21821   1.210   2.680   4.878  2.0552 -3.0210 -1.3639
  189SAPI  H18Y21822   1.374   2.684   4.951  0.0929  2.2662  3.3602
  189SAPI  H18Z21823   1.329   2.809   4.834  0.0954 -0.5606 -0.6352
  190SAPI   C1221824   0.607   4.607   7.316  0.1411 -0.2950 -0.3621
  190SAPI    H221825   0.664   4.605   7.220  1.0538 -2.0957  0.1673
  190SAPI    O221826   0.512   4.502   7.306  0.5188  0.4230 -0.1188
  190SAPI   HO221827   0.449   4.528   7.239  2.1029  1.0603 -1.4278
  190SAPI   C1321828   0.699   4.595   7.437  0.1838 -0.0204 -0.1763
  190SAPI    H321829   0.763   4.686   7.434 -0.5425  0.5634  1.3954
  190SAPI    O321830   0.779   4.476   7.430 -0.1390  0.2389 -0.2016
  190SAPI   HO321831   0.873   4.495   7.436  0.2804 -1.7769  0.4184
  190SAPI   C1421832   0.627   4.611   7.568  0.5573  0.6622 -0.3340
  190SAPI    H421833   0.553   4.529   7.577 -0.4780  1.5462 -0.5427
  190SAPI    O421834   0.708   4.605   7.682 -0.1460  0.0087  0.1229
  190SAPI   HO421835   0.739   4.514   7.693  1.2480  0.3655 -0.6366
  190SAPI   C1521836   0.542   4.737   7.582 -0.0801 -0.8561  0.0946
  190SAPI    H521837   0.616   4.817   7.602  1.7787 -2.7759  1.2991
  190SAPI    O521838   0.457   4.725   7.693 -0.2002  0.1852 -0.4520
  190SAPI   HO521839   0.445   4.810   7.737  2.6904 -1.2140  3.5532
  190SAPI   C1621840   0.458   4.752   7.452  0.4632  0.1323 -0.2580
  190SAPI    H621841   0.380   4.672   7.453 -0.0969  0.6687 -0.2976
  190SAPI    O621842   0.388   4.878   7.455 -0.5886  0.5827  0.0558
  190SAPI   HO621843   0.456   4.941   7.430  0.4988 -0.9501 -1.0349
  190SAPI   C1121844   0.531   4.742   7.324 -0.0705  0.4918  0.6006
  190SAPI    H121845   0.610   4.819   7.335 -0.1478  0.4582  1.5291
  190SAPI     P21846   0.463   4.902   7.122  0.1415 -0.3280  0.0834
  190SAPI   O1321847   0.502   5.014   7.213  0.0164  0.5763 -0.1166
  190SAPI   O1421848   0.340   4.914   7.041  0.2496  0.4790 -0.0260
  190SAPI   O1221849   0.445   4.762   7.205  0.3085 -0.1328 -0.1635
  190SAPI   O1121850   0.591   4.855   7.033 -0.4400 -0.6728  0.0826
  190SAPI    C121851   0.573   4.741   6.948  0.7450  0.5272  0.1337
  190SAPI    HA21852   0.640   4.660   6.984 -1.7669 -0.8126  2.0773
  190SAPI    HB21853   0.472   4.695   6.948  0.4554  1.0737  2.1618
  190SAPI    C221854   0.620   4.772   6.801  0.3149  0.0734 -0.6696
  190SAPI    HS21855   0.719   4.823   6.810  0.1370  0.3816 -0.4473
  190SAPI   O2121856   0.527   4.856   6.731  0.0083 -0.4060  0.5184
  190SAPI   C2121857   0.560   4.982   6.719 -0.4601  0.4033 -0.2264
  190SAPI   O2221858   0.660   5.031   6.774 -0.1527  0.3120  0.3912
  190SAPI   C2221859   0.464   5.057   6.633 -0.1990  0.0901 -0.3956
  190SAPI   H2R21860   0.373   4.995   6.620 -0.6161  0.7101 -0.4698
  190SAPI   H2S21861   0.438   5.153   6.683 -0.1658  1.3709 -2.7066
  190SAPI    C321862   0.624   4.638   6.720 -0.6519 -0.3912  0.1296
  190SAPI    HX21863   0.518   4.605   6.717 -0.4357 -1.0276 -1.9662
  190SAPI    HY21864   0.683   4.574   6.789  3.3194  1.8136 -0.8828
  190SAPI   O3121865   0.682   4.649   6.587 -0.0182 -0.2731  0.0101
  190SAPI   C3121866   0.811   4.653   6.599  0.4840 -0.9399 -0.3489
  190SAPI   O3221867   0.873   4.624   6.703  0.4638  0.0996 -0.1106
  190SAPI   C3221868   0.879   4.685   6.471 -0.0359  0.0537  0.1387
  190SAPI   H2X21869   0.808   4.720   6.393 -0.4383 -1.0959 -0.0162
  190SAPI   H2Y21870   0.923   4.592   6.431 -0.5795  0.5364 -1.6646
  190SAPI   C2321871   0.530   5.080   6.493  0.0232  0.4649 -0.1187
  190SAPI   H3R21872   0.614   5.148   6.518  0.7911 -1.1588  1.9914
  190SAPI   H3S21873   0.454   5.140   6.437  1.2339  2.9192  0.7404
  190SAPI   C2421874   0.564   4.948   6.413  0.0562  0.0646  0.3002
  190SAPI   H4R21875   0.635   4.889   6.475 -0.0982 -1.0465 -0.5472
  190SAPI   H4S21876   0.624   4.973   6.323 -2.8890  0.3814 -1.7147
  190SAPI   C2521877   0.451   4.883   6.360  0.4906  0.9456 -0.2372
  190SAPI   H5R21878   0.377   4.844   6.431  0.4183 -1.9840 -1.7332
  190SAPI   C2621879   0.424   4.870   6.227 -0.5187 -0.0248  0.1718
  190SAPI   H6R21880   0.331   4.814   6.207 -0.2783 -0.6233  0.7052
  190SAPI   C2721881   0.505   4.911   6.106 -0.7051  0.1425  0.6130
  190SAPI   H7R21882   0.572   4.999   6.116 -0.0499 -0.1514 -1.0048
  190SAPI   H7S21883   0.426   4.923   6.029 -0.0880 -0.3150 -0.0920
  190SAPI   C2821884   0.596   4.797   6.064 -0.9279 -0.0800  0.4137
  190SAPI   H8R21885   0.646   4.741   6.144  0.7547 -0.9414 -1.1631
  190SAPI   C2921886   0.619   4.774   5.937  0.0316 -0.9075 -0.3464
  190SAPI   H9R21887   0.676   4.683   5.915  0.9748 -0.7100  1.1559
  190SAPI  C21021888   0.564   4.849   5.819 -0.1173 -0.3330  0.6185
  190SAPI  H10R21889   0.571   4.958   5.840 -0.5200  0.0048 -0.8931
  190SAPI  H10S21890   0.454   4.839   5.814 -0.3864  2.3447 -2.9032
  190SAPI  C21121891   0.631   4.795   5.689 -0.3849 -0.3183  0.3954
  190SAPI  H11R21892   0.655   4.688   5.681 -1.4628 -0.4369 -2.4938
  190SAPI  C21221893   0.606   4.853   5.574 -0.5232  0.6637  0.3762
  190SAPI  H12R21894   0.655   4.818   5.482  0.3771  0.8068  0.7861
  190SAPI  C21321895   0.529   4.981   5.543 -0.0106  0.6603 -0.3411
  190SAPI  H13R21896   0.562   5.004   5.440  1.8096  1.1478  0.3226
  190SAPI  H13S21897   0.553   5.073   5.601 -1.4304 -0.8158  2.8302
  190SAPI  C21421898   0.378   4.957   5.534  0.0971  0.2428  0.0497
  190SAPI  H14R21899   0.316   4.985   5.620 -0.6333  1.8799 -0.9552
  190SAPI  C21521900   0.312   4.920   5.421  0.2420 -0.2149 -1.0152
  190SAPI  H15R21901   0.204   4.903   5.431  0.0328  0.5858 -1.7482
  190SAPI  C21621902   0.372   4.904   5.288 -0.2364  0.2423 -0.2813
  190SAPI  H16R21903   0.478   4.936   5.278 -0.0967 -0.3609 -0.8350
  190SAPI  H16S21904   0.325   4.971   5.213  0.7342  1.2237 -0.0415
  190SAPI  C21721905   0.366   4.753   5.247 -0.1545 -0.3260  0.2238
  190SAPI  H17R21906   0.260   4.729   5.227 -0.5096  2.7308 -2.4046
  190SAPI  H17S21907   0.395   4.685   5.331  1.8360 -1.7650 -1.5286
  190SAPI  C21821908   0.444   4.725   5.117 -0.2594 -0.2212  0.6462
  190SAPI  H18R21909   0.427   4.806   5.044 -0.1752 -0.9576 -0.2086
  190SAPI  H18S21910   0.391   4.633   5.081  1.3466 -1.2744  0.8755
  190SAPI  C21921911   0.592   4.708   5.126 -0.7849 -0.0797  0.3841
  190SAPI  H19R21912   0.624   4.626   5.195 -0.4078 -0.8796 -0.7111
  190SAPI  H19S21913   0.642   4.799   5.166 -1.4710 -0.1351  1.3988
  190SAPI  C22021914   0.653   4.684   4.984  0.1919 -0.8187  0.1380
  190SAPI  H20R21915   0.616   4.755   4.908 -1.0739 -2.4946 -0.8789
  190SAPI  H20S21916   0.637   4.583   4.941  1.6523 -0.9930 -0.0591
  190SAPI  H20T21917   0.763   4.693   4.993  0.0697 -0.3719  1.4425
  190SAPI   C3321918   0.991   4.792   6.493 -0.2547  0.0639 -0.1412
  190SAPI   H3X21919   1.068   4.751   6.562 -0.3726  0.2122  0.0813
  190SAPI   H3Y21920   0.952   4.881   6.548  1.5967  0.2701  0.8815
  190SAPI   C3421921   1.061   4.842   6.360 -0.8091  0.2445  0.1513
  190SAPI   H4X21922   1.094   4.753   6.303 -0.9696 -1.2780  2.3358
  190SAPI   H4Y21923   1.150   4.899   6.396 -1.9372  1.4663  1.0803
  190SAPI   C3521924   0.975   4.940   6.275  1.2490  0.0808  0.1249
  190SAPI   H5X21925   0.928   5.002   6.354 -0.6196 -2.0747  0.8124
  190SAPI   H5Y21926   0.901   4.875   6.223  0.5399 -1.3928  2.7965
  190SAPI   C3621927   1.064   5.023   6.182  0.0883 -0.7532 -0.8133
  190SAPI   H6X21928   1.131   4.949   6.134  3.0429  0.2100  1.5008
  190SAPI   H6Y21929   1.136   5.080   6.245  3.0070 -2.5531 -2.3056
  190SAPI   C3721930   0.993   5.106   6.072 -0.6278 -0.4596  0.0973
  190SAPI   H7X21931   1.040   5.206   6.055 -0.3243  0.0642  3.3670
  190SAPI   H7Y21932   0.887   5.130   6.092 -0.6579  1.5160 -2.0176
  190SAPI   C3821933   0.988   5.030   5.939  0.5322 -0.2681 -0.3672
  190SAPI   H8X21934   0.907   4.955   5.952  0.3684  0.0734  0.7076
  190SAPI   H8Y21935   1.082   4.976   5.913  0.6522 -0.3926  0.3071
  190SAPI   C3921936   0.964   5.122   5.819 -0.4259 -0.1524  1.0272
  190SAPI   H9X21937   1.052   5.190   5.813 -1.0937  0.6402  0.0156
  190SAPI   H9Y21938   0.881   5.192   5.842 -3.0256 -3.0261  0.9600
  190SAPI  C31021939   0.932   5.054   5.679  0.2986  0.5908 -1.0882
  190SAPI  H10X21940   0.849   4.982   5.698  0.0305  1.2430  0.3462
  190SAPI  H10Y21941   1.024   5.001   5.647 -0.3260 -0.5829 -1.0123
  190SAPI  C31121942   0.886   5.147   5.567  0.3764 -0.2045  0.5923
  190SAPI  H11X21943   0.964   5.225   5.575  0.0865  0.2863 -0.9467
  190SAPI  H11Y21944   0.787   5.189   5.594 -0.4499 -0.8577 -1.1974
  190SAPI  C31221945   0.891   5.079   5.429  0.4655 -0.5009  0.0726
  190SAPI  H12X21946   0.834   4.984   5.435 -1.2395  0.5540  1.8087
  190SAPI  H12Y21947   0.997   5.049   5.413  0.9402  0.7400  0.7730
  190SAPI  C31321948   0.856   5.154   5.304  0.6953 -0.2026  0.2063
  190SAPI  H13X21949   0.910   5.251   5.298 -1.7297  1.1484 -1.8867
  190SAPI  H13Y21950   0.747   5.176   5.312  0.9069  0.5898  1.1503
  190SAPI  C31421951   0.876   5.071   5.179 -0.0522  0.0955 -0.0564
  190SAPI  H14X21952   0.800   4.991   5.182  1.6611 -1.5865  0.8640
  190SAPI  H14Y21953   0.964   5.004   5.189  0.6052  1.2015  2.4053
  190SAPI  C31521954   0.879   5.157   5.048 -0.2441  0.8839 -0.1810
  190SAPI  H15X21955   0.960   5.232   5.059 -0.0364  0.6167  0.1183
  190SAPI  H15Y21956   0.778   5.204   5.045 -0.6592 -0.0171 -1.9076
  190SAPI  C31621957   0.908   5.084   4.923 -0.9741  0.4969  0.1661
  190SAPI  H16X21958   0.886   5.143   4.832  0.5386 -0.3195 -0.7534
  190SAPI  H16Y21959   0.849   4.990   4.917  0.0234 -0.0787 -0.9948
  190SAPI  C31721960   1.056   5.036   4.902  0.4983  0.3612 -0.6674
  190SAPI  H17X21961   1.044   4.954   4.828  0.9809 -0.3012 -0.0233
  190SAPI  H17Y21962   1.088   4.985   4.995 -0.3426  1.2726  0.1508
  190SAPI  C31821963   1.167   5.137   4.860  0.8708  0.6207 -0.8881
  190SAPI  H18X21964   1.262   5.090   4.829  0.7453 -1.7384  1.8374
  190SAPI  H18Y21965   1.194   5.196   4.951 -2.0654  1.6249 -0.5647
  190SAPI  H18Z21966   1.136   5.208   4.781 -1.0566 -0.0998 -0.8368
  191SAPI   C1221967   1.609   2.221   2.781 -0.3424 -0.7919  0.2603
  191SAPI    H221968   1.677   2.182   2.859  0.7899 -0.1497 -0.3700
  191SAPI    O221969   1.472   2.201   2.824  0.6693 -0.4076 -0.1678
  191SAPI   HO221970   1.428   2.134   2.770 -0.0362  1.1673 -1.6311
  191SAPI   C1321971   1.641   2.368   2.760 -0.0301  0.1798  0.6078
  191SAPI    H321972   1.747   2.374   2.725 -0.4558 -1.5749 -1.1614
  191SAPI    O321973   1.623   2.458   2.879  0.6714  0.4015  0.9043
  191SAPI   HO321974   1.682   2.428   2.949 -1.0356 -1.2929  1.7153
  191SAPI   C1421975   1.548   2.427   2.647  0.0941  0.4254  0.1234
  191SAPI    H421976   1.451   2.448   2.697 -0.5017 -0.7639 -0.4857
  191SAPI    O421977   1.605   2.553   2.610 -0.0883 -0.1885 -0.3209
  191SAPI   HO421978   1.532   2.616   2.617  0.5462  0.4010  1.4934
  191SAPI   C1521979   1.521   2.337   2.525 -0.5000 -0.4907  0.4428
  191SAPI    H521980   1.620   2.357   2.479 -0.4207  0.3896  0.9862
  191SAPI    O521981   1.416   2.388   2.443 -0.4952 -0.7926  0.0502
  191SAPI   HO521982   1.328   2.368   2.477 -0.7274  2.0305  1.4146
  191SAPI   C1621983   1.534   2.187   2.539  0.2200 -0.7712 -0.4884
  191SAPI    H621984   1.435   2.148   2.571 -0.2983  1.6342  1.0761
  191SAPI    O621985   1.571   2.124   2.415  1.1467  0.1481  0.1238
  191SAPI   HO621986   1.667   2.115   2.413  1.2115  0.6027  0.7336
  191SAPI   C1121987   1.629   2.146   2.652 -0.0804  0.1884  0.7228
  191SAPI    H121988   1.730   2.167   2.611 -0.2674  0.4699  0.3987
  191SAPI     P21989   1.744   1.909   2.695  0.4033  0.1414  0.3223
  191SAPI   O1321990   1.851   1.990   2.744 -0.6257  0.6689 -0.4734
  191SAPI   O1421991   1.765   1.834   2.568  0.0071 -0.3085  0.0250
  191SAPI   O1221992   1.612   2.006   2.667  0.0835 -0.0892 -0.6874
  191SAPI   O1121993   1.697   1.809   2.808 -0.0361  0.5827 -0.4929
  191SAPI    C121994   1.726   1.841   2.950  0.2353 -0.3058  0.0576
  191SAPI    HA21995   1.800   1.765   2.982 -0.2753 -1.0105 -0.3980
  191SAPI    HB21996   1.777   1.939   2.957  1.6960 -0.8466 -2.0463
  191SAPI    C221997   1.604   1.831   3.044 -0.0444 -0.3441 -0.6521
  191SAPI    HS21998   1.632   1.854   3.149 -0.2561 -2.4190 -0.0911
  191SAPI   O2121999   1.532   1.707   3.028 -0.2215  0.5599 -0.2512
  191SAPI   C2122000   1.568   1.619   3.115 -0.6482 -0.1111 -0.1976
  191SAPI   O2222001   1.669   1.619   3.182 -0.2108 -0.1881  0.0793
  191SAPI   C2222002   1.468   1.500   3.124 -0.0144  0.6364 -0.7465
  191SAPI   H2R22003   1.411   1.499   3.028 -0.7991  1.0371 -0.2920
  191SAPI   H2S22004   1.533   1.410   3.130 -1.0927 -0.1748 -0.7767
  191SAPI    C322005   1.520   1.954   3.010  0.1177 -0.4865 -0.1216
  191SAPI    HX22006   1.506   1.956   2.900 -1.4113 -0.2544  0.0597
  191SAPI    HY22007   1.580   2.041   3.047 -2.1369  0.9685  0.3342
  191SAPI   O3122008   1.397   1.949   3.090  0.0836 -0.4898  0.2686
  191SAPI   C3122009   1.285   1.901   3.038 -0.1682 -0.8219 -0.6640
  191SAPI   O3222010   1.265   1.867   2.924  0.0401 -0.1265  0.1240
  191SAPI   C3222011   1.181   1.895   3.151  0.7881 -0.5335  0.3473
  191SAPI   H2X22012   1.144   1.999   3.162  1.5376 -0.4351  2.4468
  191SAPI   H2Y22013   1.235   1.870   3.245  2.1706  1.4666  0.1478
  191SAPI   C2322014   1.369   1.509   3.241 -1.0686  0.4266 -0.5613
  191SAPI   H3R22015   1.264   1.495   3.207 -1.1819  1.0943 -0.5068
  191SAPI   H3S22016   1.368   1.612   3.282  0.3109  0.3290 -0.2293
  191SAPI   C2422017   1.386   1.409   3.354 -0.5045 -0.2128  0.3586
  191SAPI   H4R22018   1.307   1.419   3.431  0.4717  1.9687  1.1747
  191SAPI   H4S22019   1.483   1.439   3.399 -0.5480 -0.8864  0.9080
  191SAPI   C2522020   1.384   1.264   3.311 -0.5983  1.0160  0.1681
  191SAPI   H5R22021   1.317   1.257   3.224 -1.0768  2.6592  0.3790
  191SAPI   C2622022   1.453   1.162   3.364 -0.1109 -0.0331 -0.3035
  191SAPI   H6R22023   1.444   1.061   3.322  0.1107  0.9671 -2.9207
  191SAPI   C2722024   1.556   1.182   3.475 -0.1160  0.7206  0.1962
  191SAPI   H7R22025   1.496   1.185   3.569  0.6130 -1.3085  0.7828
  191SAPI   H7S22026   1.622   1.270   3.465  1.2110 -0.3944 -1.3007
  191SAPI   C2822027   1.646   1.061   3.480  0.4686 -0.2724 -0.0130
  191SAPI   H8R22028   1.710   1.064   3.391  1.3898  1.4683  0.6539
  191SAPI   C2922029   1.636   0.953   3.559  0.2123  0.3362  0.6240
  191SAPI   H9R22030   1.713   0.876   3.545 -1.0418 -0.9142  0.4415
  191SAPI  C21022031   1.536   0.928   3.663  0.1681  0.3192 -0.1404
  191SAPI  H10R22032   1.441   0.979   3.637 -0.2058  0.2927  1.1163
  191SAPI  H10S22033   1.570   0.965   3.762 -0.3768  0.4816 -0.0134
  191SAPI  C21122034   1.518   0.779   3.691  0.2536  0.1538  0.0041
  191SAPI  H11R22035   1.549   0.719   3.605 -2.5002 -0.5016 -0.6141
  191SAPI  C21222036   1.450   0.722   3.794 -0.1133  0.6772  0.1700
  191SAPI  H12R22037   1.458   0.613   3.804  1.2433  0.7991  0.6199
  191SAPI  C21322038   1.391   0.797   3.909 -0.2560  0.5669  0.3892
  191SAPI  H13R22039   1.318   0.870   3.866 -0.8544 -0.5275 -0.4963
  191SAPI  H13S22040   1.462   0.860   3.966 -1.9884  0.1453  3.1860
  191SAPI  C21422041   1.315   0.706   3.999 -0.3835 -0.0775 -0.0176
  191SAPI  H14R22042   1.262   0.628   3.944  3.2477 -0.8413 -2.8376
  191SAPI  C21522043   1.328   0.698   4.134 -0.5981  0.0006 -0.0953
  191SAPI  H15R22044   1.267   0.624   4.188  0.8184 -2.5223 -1.7568
  191SAPI  C21622045   1.410   0.782   4.224  0.1784  0.3467 -0.0537
  191SAPI  H16R22046   1.489   0.836   4.167  2.3178 -1.7079  0.7837
  191SAPI  H16S22047   1.462   0.720   4.300 -1.5449  1.1974  1.9172
  191SAPI  C21722048   1.326   0.885   4.307 -0.0541 -0.2952  0.2706
  191SAPI  H17R22049   1.252   0.936   4.241 -1.5971 -1.0792  1.3320
  191SAPI  H17S22050   1.395   0.969   4.330 -1.3283  0.8770 -0.0595
  191SAPI  C21822051   1.244   0.827   4.429  0.1892  0.5613  0.2629
  191SAPI  H18R22052   1.333   0.805   4.492 -0.1785  0.7453  0.8527
  191SAPI  H18S22053   1.194   0.729   4.410  1.9886 -0.7414  1.7245
  191SAPI  C21922054   1.143   0.931   4.480 -0.4379 -0.1736 -0.4215
  191SAPI  H19R22055   1.076   0.963   4.398 -0.8712 -1.0904 -0.4421
  191SAPI  H19S22056   1.195   1.016   4.528  0.3744 -0.6978 -0.3604
  191SAPI  C22022057   1.054   0.870   4.586  0.7540  0.1370 -0.2689
  191SAPI  H20R22058   0.968   0.940   4.598  1.1099  0.3518  1.3036
  191SAPI  H20S22059   1.098   0.862   4.688  1.3925  4.4586 -0.0345
  191SAPI  H20T22060   1.016   0.774   4.545 -1.2398  0.3570  0.9337
  191SAPI   C3322061   1.066   1.799   3.124  0.9462  0.0380 -0.0588
  191SAPI   H3X22062   1.113   1.704   3.090  0.8601  0.5818 -1.7755
  191SAPI   H3Y22063   1.010   1.840   3.037  0.5394  0.1658  0.2573
  191SAPI   C3422064   0.973   1.780   3.238 -0.4159  0.5623  0.7313
  191SAPI   H4X22065   0.873   1.744   3.206 -1.4102  4.0845 -0.5606
  191SAPI   H4Y22066   0.963   1.873   3.298  4.3714  2.1128 -0.4182
  191SAPI   C3522067   1.018   1.666   3.334 -0.3191  0.1658 -0.0328
  191SAPI   H5X22068   1.124   1.684   3.359 -0.5498  2.9833 -0.6819
  191SAPI   H5Y22069   1.018   1.568   3.282  0.1635 -0.3147  0.8648
  191SAPI   C3622070   0.923   1.637   3.458 -0.4126  0.6835  0.1361
  191SAPI   H6X22071   0.819   1.617   3.424 -0.0113  1.0456 -1.3834
  191SAPI   H6Y22072   0.927   1.722   3.530 -1.4850 -0.5271  1.6697
  191SAPI   C3722073   0.970   1.512   3.531 -0.1351 -0.0797 -0.2995
  191SAPI   H7X22074   1.079   1.519   3.552 -0.4047 -0.4063  1.3040
  191SAPI   H7Y22075   0.961   1.419   3.471  0.4889 -0.6441  0.4644
  191SAPI   C3822076   0.898   1.503   3.667  0.1359  0.0206 -0.0360
  191SAPI   H8X22077   0.797   1.457   3.661  0.0640  0.0467  0.8300
  191SAPI   H8Y22078   0.881   1.606   3.705 -0.6355 -0.0580 -0.1524
  191SAPI   C3922079   0.983   1.427   3.776  0.0112 -0.4943 -0.2400
  191SAPI   H9X22080   1.077   1.482   3.798 -0.9301  0.7998  0.7327
  191SAPI   H9Y22081   1.009   1.325   3.740 -0.9011 -0.3397 -1.3757
  191SAPI  C31022082   0.919   1.416   3.916  0.2217 -0.2116  0.8140
  191SAPI  H10X22083   0.824   1.358   3.908 -1.4864  2.7148 -2.7969
  191SAPI  H10Y22084   0.895   1.519   3.950 -1.3483 -0.2295 -0.1640
  191SAPI  C31122085   0.998   1.344   4.029 -0.0384  1.1576  1.0925
  191SAPI  H11X22086   1.100   1.387   4.037  1.3000 -1.6353  0.1185
  191SAPI  H11Y22087   1.015   1.237   4.008  0.6757  1.5834 -0.7247
  191SAPI  C31222088   0.923   1.361   4.162 -0.0846  0.2219 -0.1521
  191SAPI  H12X22089   0.834   1.295   4.162  1.6369 -2.2116  0.6814
  191SAPI  H12Y22090   0.895   1.469   4.170  0.1270  0.1886  1.1926
  191SAPI  C31322091   1.007   1.318   4.282  0.0533  0.9890 -0.2452
  191SAPI  H13X22092   1.104   1.370   4.268  0.3220  0.2690 -1.2120
  191SAPI  H13Y22093   1.027   1.209   4.281 -1.3853  0.7031 -1.7826
  191SAPI  C31422094   0.930   1.354   4.413 -0.2447 -0.9804 -1.2197
  191SAPI  H14X22095   0.824   1.323   4.422 -0.5892  0.6438  0.9163
  191SAPI  H14Y22096   0.937   1.465   4.412  0.0424 -0.7594  3.8235
  191SAPI  C31522097   1.006   1.327   4.548 -0.5184  0.1731 -0.6135
  191SAPI  H15X22098   1.107   1.375   4.538  0.0555 -0.6543  0.9274
  191SAPI  H15Y22099   1.032   1.219   4.556 -1.6777 -0.1894 -1.5102
  191SAPI  C31622100   0.926   1.370   4.677 -0.6479 -0.0473  0.7250
  191SAPI  H16X22101   0.825   1.324   4.683 -1.2929  1.3100  0.8962
  191SAPI  H16Y22102   0.908   1.479   4.663  1.1323  0.5214  2.4407
  191SAPI  C31722103   1.008   1.352   4.806 -0.7874  0.1163 -0.5573
  191SAPI  H17X22104   0.948   1.401   4.886  0.4327  0.0405  0.4512
  191SAPI  H17Y22105   1.105   1.403   4.788  0.6610 -2.2400  0.0059
  191SAPI  C31822106   1.037   1.212   4.846 -0.1448 -0.3138  0.4387
  191SAPI  H18X22107   1.070   1.200   4.951 -1.8862 -0.3180  1.0176
  191SAPI  H18Y22108   1.111   1.171   4.773 -2.2508  0.6401 -2.4413
  191SAPI  H18Z22109   0.942   1.155   4.854  0.0752 -0.8609 -0.5795
  192SAPI   C1222110   5.841   1.150   2.684  0.1524 -0.2558  0.1519
  192SAPI    H222111   5.863   1.140   2.793 -1.0983  0.6477  0.5172
  192SAPI    O222112   5.827   1.019   2.625  0.3503 -0.5097  0.4444
  192SAPI   HO222113   5.795   0.951   2.685  0.9175 -0.0556  1.2797
  192SAPI   C1322114   5.724   1.243   2.661 -0.0147  0.4729  0.8877
  192SAPI    H322115   5.752   1.339   2.710  0.5483  1.6101 -1.5187
  192SAPI    O322116   5.605   1.198   2.728  0.0281  0.2694  0.5111
  192SAPI   HO322117   5.572   1.264   2.789 -1.2650  1.3172 -1.2311
  192SAPI   C1422118   5.698   1.256   2.514  0.3289 -0.9582  0.8096
  192SAPI    H422119   5.644   1.163   2.486 -0.6529  0.5792 -3.1764
  192SAPI    O422120   5.606   1.365   2.478 -0.0826 -0.4935 -0.0003
  192SAPI   HO422121   5.516   1.342   2.504 -0.0877  0.6999  1.1310
  192SAPI   C1522122   5.823   1.260   2.421 -0.3300  0.5084  0.0267
  192SAPI    H522123   5.847   1.365   2.393  3.7271 -0.9602 -2.9190
  192SAPI    O522124   5.804   1.201   2.295  0.8639 -0.2054 -0.1473
  192SAPI   HO522125   5.752   1.260   2.240  2.0347  1.8055  0.7947
  192SAPI   C1622126   5.963   1.224   2.485 -0.0222 -0.0833  0.2218
  192SAPI    H622127   5.983   1.119   2.454  1.5273  0.6172 -1.3182
  192SAPI    O622128   6.069   1.301   2.434 -0.0954 -0.6399  0.6041
  192SAPI   HO622129   6.131   1.311   2.507  1.8486  0.7587 -1.1240
  192SAPI   C1122130   5.966   1.226   2.633 -0.6373 -0.8384 -0.1153
  192SAPI    H122131   5.969   1.331   2.670  2.2935 -0.8623 -0.0236
  192SAPI     P22132   6.192   1.205   2.784 -0.2111 -0.2906  0.0714
  192SAPI   O1322133   6.143   1.335   2.836 -0.4852 -0.9508 -0.2721
  192SAPI   O1422134   6.326   1.195   2.723  0.4426  0.5797 -0.2104
  192SAPI   O1222135   6.084   1.160   2.674 -0.5125  0.2953 -0.0033
  192SAPI   O1122136   6.187   1.101   2.901 -0.5237  0.2803  0.2386
  192SAPI    C122137   6.151   0.963   2.891  0.4126 -0.0076  0.6243
  192SAPI    HA22138   6.056   0.948   2.835  0.3376 -0.1963  0.8048
  192SAPI    HB22139   6.230   0.895   2.853 -0.8253 -1.2972  0.3124
  192SAPI    C222140   6.127   0.906   3.035  0.4856 -0.3622 -0.4442
  192SAPI    HS22141   6.077   0.807   3.025  0.1080 -0.2324  0.1101
  192SAPI   O2122142   6.049   0.996   3.119  0.1306 -0.0232  0.0606
  192SAPI   C2122143   5.921   0.996   3.098 -0.6061  0.1016  0.5744
  192SAPI   O2222144   5.858   0.922   3.022  0.6800 -0.1033  0.1447
  192SAPI   C2222145   5.860   1.091   3.197  0.7324  0.3462  0.4142
  192SAPI   H2R22146   5.760   1.122   3.160  0.3874  0.5655  1.4857
  192SAPI   H2S22147   5.840   1.034   3.290  0.2058  1.4506  0.9950
  192SAPI    C322148   6.259   0.870   3.105 -0.4090 -0.0749  0.6885
  192SAPI    HX22149   6.335   0.950   3.096 -1.1668  0.6663  0.6956
  192SAPI    HY22150   6.303   0.794   3.037  1.1558  2.2820 -1.0989
  192SAPI   O3122151   6.246   0.819   3.239  0.0969 -0.1110 -0.4214
  192SAPI   C3122152   6.261   0.915   3.334  0.1172  0.0105 -0.1950
  192SAPI   O3222153   6.284   1.034   3.310  0.3379  0.2341 -0.1784
  192SAPI   C3222154   6.254   0.860   3.478 -0.0763  0.5583 -0.2844
  192SAPI   H2X22155   6.310   0.935   3.539 -1.7073  1.2804  0.3767
  192SAPI   H2Y22156   6.305   0.761   3.481  0.0803  0.5867 -1.6619
  192SAPI   C2322157   5.943   1.220   3.238 -0.1763  0.4125  0.2799
  192SAPI   H3R22158   6.017   1.237   3.157 -0.7037  0.4662 -0.2012
  192SAPI   H3S22159   6.008   1.196   3.325 -0.2646 -0.8070  0.0282
  192SAPI   C2422160   5.864   1.350   3.253  0.0689  0.6773 -0.4835
  192SAPI   H4R22161   5.782   1.333   3.326 -0.6029 -0.6611 -1.4821
  192SAPI   H4S22162   5.819   1.367   3.152 -2.4718 -2.4853 -0.0679
  192SAPI   C2522163   5.954   1.465   3.297 -1.2334  0.4438 -0.4756
  192SAPI   H5R22164   5.992   1.524   3.212  1.5102  0.5172  0.6972
  192SAPI   C2622165   5.993   1.488   3.423 -0.8661  0.1255  0.7891
  192SAPI   H6R22166   6.071   1.566   3.433 -0.5913 -0.0473  0.0831
  192SAPI   C2722167   5.961   1.408   3.554 -0.0022  0.5998  0.3955
  192SAPI   H7R22168   6.043   1.335   3.572  0.5484  0.5877 -1.8463
  192SAPI   H7S22169   5.866   1.353   3.535 -0.3967  1.4387 -0.1338
  192SAPI   C2822170   5.946   1.509   3.664 -0.1663 -0.6225  0.1341
  192SAPI   H8R22171   6.016   1.594   3.660 -0.5188 -0.1439  2.6836
  192SAPI   C2922172   5.872   1.505   3.771  0.2885 -0.8898 -0.0093
  192SAPI   H9R22173   5.878   1.582   3.849  2.2333 -0.4972 -0.4929
  192SAPI  C21022174   5.769   1.391   3.795 -0.0535  0.3602 -0.2260
  192SAPI  H10R22175   5.742   1.339   3.701  0.8480  1.1635 -0.9484
  192SAPI  H10S22176   5.675   1.440   3.828 -0.8548 -1.4484  0.2651
  192SAPI  C21122177   5.828   1.279   3.881  0.5201 -0.3791  0.2517
  192SAPI  H11R22178   5.915   1.232   3.833 -1.4683 -2.4685 -1.5004
  192SAPI  C21222179   5.798   1.252   4.010 -0.5165 -0.2297 -0.4890
  192SAPI  H12R22180   5.844   1.176   4.075  0.3957 -0.9496 -1.9323
  192SAPI  C21322181   5.665   1.289   4.078 -0.5605  0.0167 -0.3731
  192SAPI  H13R22182   5.631   1.196   4.130 -0.6079 -0.4308 -1.1835
  192SAPI  H13S22183   5.592   1.318   4.000 -0.8146  0.7526  0.1240
  192SAPI  C21422184   5.672   1.396   4.188 -0.1874  0.5605  0.0183
  192SAPI  H14R22185   5.681   1.498   4.147 -1.0250  0.1439 -1.2253
  192SAPI  C21522186   5.669   1.374   4.324 -0.5732 -0.7149 -0.1516
  192SAPI  H15R22187   5.685   1.466   4.382  1.3423 -0.7941 -0.5139
  192SAPI  C21622188   5.655   1.241   4.400  0.2169 -0.2532 -0.0206
  192SAPI  H16R22189   5.669   1.156   4.330 -0.9920  0.9129 -1.7783
  192SAPI  H16S22190   5.548   1.220   4.423 -0.8659  2.3327 -2.0957
  192SAPI  C21722191   5.743   1.220   4.527  0.2432 -0.2735 -0.9390
  192SAPI  H17R22192   5.845   1.266   4.527 -0.1330  0.7341  1.5118
  192SAPI  H17S22193   5.768   1.112   4.536 -0.0457 -0.3700 -1.2694
  192SAPI  C21822194   5.675   1.270   4.661  0.5574  0.2645 -0.1764
  192SAPI  H18R22195   5.602   1.195   4.697  1.8713 -0.6100  0.7500
  192SAPI  H18S22196   5.620   1.363   4.634  0.1218  0.1393  0.2743
  192SAPI  C21922197   5.771   1.295   4.774  0.5881  0.4157 -0.2616
  192SAPI  H19R22198   5.723   1.353   4.856  0.9088 -1.0512  1.0250
  192SAPI  H19S22199   5.859   1.356   4.744  0.8095 -0.7015 -2.0550
  192SAPI  C22022200   5.819   1.169   4.850 -0.2204  0.1718  0.0821
  192SAPI  H20R22201   5.734   1.113   4.893 -0.7333  1.5802  0.9813
  192SAPI  H20S22202   5.881   1.192   4.939 -2.1216 -1.3737  1.8955
  192SAPI  H20T22203   5.877   1.106   4.779 -1.1942 -0.6872  0.0280
  192SAPI   C3322204   6.106   0.850   3.527  0.0605  0.0045  0.1179
  192SAPI   H3X22205   6.042   0.776   3.475 -0.6730  1.2605 -0.8427
  192SAPI   H3Y22206   6.049   0.944   3.513 -0.6870  0.0989  3.0057
  192SAPI   C3422207   6.093   0.837   3.678 -0.6182 -0.0161 -0.7770
  192SAPI   H4X22208   5.986   0.828   3.707 -0.7156 -0.4556 -1.2709
  192SAPI   H4Y22209   6.129   0.927   3.734  1.0388 -1.2745  0.2703
  192SAPI   C3522210   6.169   0.708   3.725  0.3082  0.1741  1.2110
  192SAPI   H5X22211   6.278   0.728   3.714  0.6873 -1.8545  0.8341
  192SAPI   H5Y22212   6.151   0.630   3.649  3.0273  0.6001 -0.0174
  192SAPI   C3622213   6.137   0.665   3.862 -0.6287  0.0616  0.2318
  192SAPI   H6X22214   6.038   0.615   3.874  0.1960 -1.6742  0.0711
  192SAPI   H6Y22215   6.142   0.756   3.925 -2.1370 -0.4209  1.1040
  192SAPI   C3722216   6.243   0.562   3.905 -0.6355  0.1353  0.3914
  192SAPI   H7X22217   6.348   0.597   3.897 -0.9676  0.8155 -1.5905
  192SAPI   H7Y22218   6.238   0.480   3.831  0.1400  0.5863 -0.1839
  192SAPI   C3822219   6.224   0.522   4.046 -0.0103  0.8806  0.2028
  192SAPI   H8X22220   6.296   0.441   4.069  0.5866  1.6351  1.0499
  192SAPI   H8Y22221   6.117   0.493   4.058 -0.4861  1.9956 -1.0925
  192SAPI   C3922222   6.245   0.629   4.150 -0.0786 -0.3564 -0.3810
  192SAPI   H9X22223   6.186   0.721   4.129  0.1111 -0.4451 -1.3604
  192SAPI   H9Y22224   6.353   0.655   4.140 -0.3178  1.8762  1.9054
  192SAPI  C31022225   6.214   0.578   4.293  0.7122 -0.2882 -0.2119
  192SAPI  H10X22226   6.114   0.531   4.284  1.2919 -1.4681 -0.7226
  192SAPI  H10Y22227   6.212   0.661   4.367  1.3079 -0.0107 -0.4938
  192SAPI  C31122228   6.316   0.476   4.341  0.3358 -0.0080  0.1326
  192SAPI  H11X22229   6.415   0.525   4.327  0.3848  0.6058  2.3047
  192SAPI  H11Y22230   6.313   0.384   4.279 -1.0190  0.8401 -1.1385
  192SAPI  C31222231   6.292   0.420   4.484 -0.0050 -0.2413 -0.7365
  192SAPI  H12X22232   6.193   0.369   4.477 -0.0408 -0.0790 -1.5136
  192SAPI  H12Y22233   6.282   0.505   4.555 -0.9293 -0.8088 -0.1586
  192SAPI  C31322234   6.401   0.333   4.533  0.0098  0.0988  0.8816
  192SAPI  H13X22235   6.491   0.394   4.555  2.0851 -3.1704  2.3169
  192SAPI  H13Y22236   6.422   0.264   4.448 -1.2768  1.8281 -0.9521
  192SAPI  C31422237   6.352   0.257   4.659 -0.9281  0.4637 -0.5185
  192SAPI  H14X22238   6.445   0.204   4.690  0.0257  0.0192 -3.7473
  192SAPI  H14Y22239   6.273   0.181   4.638 -1.3816  1.4082 -2.4972
  192SAPI  C31522240   6.285   0.356   4.760  0.3440 -0.2802  0.1416
  192SAPI  H15X22241   6.269   0.305   4.858  0.2539 -0.8633 -0.1692
  192SAPI  H15Y22242   6.185   0.390   4.727 -0.8807 -0.7999  3.0055
  192SAPI  C31622243   6.367   0.475   4.809 -0.1628  0.4125 -0.6123
  192SAPI  H16X22244   6.427   0.513   4.723 -0.8789 -0.4242 -1.5138
  192SAPI  H16Y22245   6.450   0.447   4.877 -1.8266 -0.9343  0.9701
  192SAPI  C31722246   6.279   0.580   4.871  0.2489 -0.2702  0.6848
  192SAPI  H17X22247   6.187   0.587   4.809  1.3599  0.5805 -0.9350
  192SAPI  H17Y22248   6.337   0.674   4.883 -1.9182  1.0394  1.4643
  192SAPI  C31822249   6.222   0.556   5.011  0.6761  0.2337 -0.6721
  192SAPI  H18X22250   6.160   0.466   4.991  1.4611 -0.0305 -2.0615
  192SAPI  H18Y22251   6.155   0.633   5.053 -0.0910  0.6921 -2.6221
  192SAPI  H18Z22252   6.300   0.526   5.084 -1.3522 -1.2237  1.0400
  193SOD    SOD22253   2.469   2.392   0.592  0.5769  0.2631  0.6429
  194SOD    SOD22254   5.650   6.497   2.249 -0.2307 -0.0923 -0.1191
  195SOD    SOD22255   6.185   6.340   0.547 -0.2898 -0.0677  0.3080
  196SOD    SOD22256   4.219   4.867   2.267 -0.2676 -0.1792 -0.0533
  197SOD    SOD22257   0.674   4.324   7.283 -0.3841  0.1909  0.4060
  198SOD    SOD22258   1.053   5.873   8.206 -0.7236 -0.0292 -0.1842
  199SOD    SOD22259   5.547   3.339   2.223 -0.3242 -0.2632  0.0104
  200SOD    SOD22260   3.943   5.590   7.750  0.1900 -0.2810 -0.3397
  201SOD    SOD22261   5.039   1.830   1.843 -0.2283 -0.2684  0.2081
  202SOD    SOD22262   2.756   2.440   6.942 -0.2715 -0.3866 -0.0683
  203SOD    SOD22263   6.469   5.143   0.517 -0.7418  0.1413 -0.4079
  204SOD    SOD22264   2.598   5.758   8.578  0.6514 -0.4870  0.4255
  205SOD    SOD22265   4.831   6.167   7.805 -0.4858 -0.6781  0.1515
  206SOD    SOD22266   1.592   1.629   8.312 -0.0250 -0.1291 -0.0183
  207SOD    SOD22267   6.566   5.073   2.139  0.2195  0.2991  0.0213
  208SOD    SOD22268   0.153   5.259   6.874 -0.3594  0.3621 -0.0865
  209SOD    SOD22269   1.170   0.240   8.176 -0.2907  0.2240 -0.6559
  210SOD    SOD22270   2.737   3.832   0.257  0.1769  0.4161  0.0285
  211SOD    SOD22271   6.183   1.980   8.350  0.1951  0.1205  0.0074
  212SOD    SOD22272   6.529   1.605   2.892  0.3282  0.4399  0.0419
  213SOD    SOD22273   6.087   5.634   2.492  0.2268 -0.3479 -0.5081
  214SOD    SOD22274   1.369   2.815   3.049  0.2356  0.0337  0.1247
  215SOD    SOD22275   2.166   1.440   6.831  0.0866 -0.1098 -0.6114
  216SOD    SOD22276   5.687   6.450   7.801 -0.2005  0.3467 -0.2118
  217SOD    SOD22277   1.937   4.338   7.626  0.0278  0.4422  0.1871
  218SOD    SOD22278   3.562   6.102   2.109  0.1389  0.3913 -0.1607
  219SOD    SOD22279   3.351   2.576   1.777 -0.8323  0.1688  0.3747
  220SOD    SOD22280   0.937   5.071   3.104  0.2678 -0.0812  0.3657
  221SOD    SOD22281   5.804   4.664   8.084 -0.1986 -0.4337  0.2734
  222SOD    SOD22282   4.985   0.370   8.142 -0.0816  0.4096  0.1501
  223SOD    SOD22283   4.774   6.681   2.398  0.1144  0.1682  0.3895
  224SOD    SOD22284   1.329   6.582   8.505  0.0023 -0.4562 -0.1401
  225SOD    SOD22285   4.454   0.457   0.615 -0.3715 -0.1391 -0.4214
  226SOD    SOD22286   6.421   0.627   1.974 -0.1312  0.2650  0.1753
  227SOD    SOD22287   1.604   4.133   2.377 -0.2256 -0.1491  0.0752
  228SOD    SOD22288   6.549   1.370   1.792 -0.1689  0.1458 -0.4761
  229SOD    SOD22289   2.604   6.507   7.937  0.0266  0.1986 -0.3207
  230SOD    SOD22290   1.327   3.199   0.926  0.2650  0.4400  0.2605
  231SOD    SOD22291   4.558   2.820   6.978  0.0598  0.1825 -0.3059
  232SOD    SOD22292   6.618   1.391   6.698  0.5946 -0.3806  0.2392
  233SOD    SOD22293   5.881   0.406   6.985  0.1432 -0.3183  0.3632
  234CLA    CLA22294   0.661   3.705   1.359  0.2906 -0.1811  0.2426
  235CLA    CLA22295   0.727   2.005   8.499 -0.4244  0.0640  0.4956
  236CLA    CLA22296   3.260   5.838   0.128 -0.0856 -0.0526  0.0211
  237CLA    CLA22297   5.018   1.235   1.786 -0.0576 -0.1273  0.0829
  238CLA    CLA22298   0.181   5.074   7.812 -0.1301 -0.3764 -0.1540
  239CLA    CLA22299   1.209   6.678   0.988  0.4156 -0.0249  0.4790
  240CLA    CLA22300   4.914   6.762   1.664 -0.0165 -0.1576 -0.2583
  241CLA    CLA22301   2.262   3.550   2.259  0.2285  0.4043  0.3609
  242CLA    CLA22302   6.776   5.561   0.236  0.0775  0.3629 -0.3654
  243CLA    CLA22303   2.537   6.412   0.263 -0.0615 -0.3464 -0.0508
  244CLA    CLA22304   5.354   0.612   8.001 -0.2754  0.1736  0.0251
  245CLA    CLA22305   2.625   5.427   8.187  0.5276  0.1328 -0.3288
  246CLA    CLA22306   5.558   6.116   1.153  0.1884 -0.0878  0.0863
  247CLA    CLA22307   0.979   4.430   2.310  0.2570  0.0174  0.1139
  248CLA    CLA22308   1.083   6.102   0.326  0.2049 -0.0520 -0.5603
  249CLA    CLA22309   2.715   0.597   8.192  0.0587  0.0591 -0.2987
  250CLA    CLA22310   5.273   5.797   7.905 -0.3411  0.0926 -0.0828
  251TIP3   OH222311   5.285   0.209   8.366 -0.2701 -0.0436  0.2636
  251TIP3    H122312   5.216   0.207   8.301  0.9043 -0.1777 -1.0264
  251TIP3    H222313   5.249   0.162   8.442 -1.9997  0.9191  0.0968
  252TIP3   OH222314   5.881   3.632   6.692 -0.3372  0.2401  0.3765
  252TIP3    H122315   5.829   3.575   6.635  0.4538 -1.5401  1.3530
  252TIP3    H222316   5.826   3.709   6.705 -2.0838 -0.9039  0.1301
  253TIP3   OH222317   6.396   6.014   1.873 -0.3694 -0.4207  0.0591
  253TIP3    H122318   6.343   5.987   1.798 -1.3330 -1.5094  1.0826
  253TIP3    H222319   6.413   6.107   1.859  1.3294 -1.0293 -2.5954
  254TIP3   OH222320   5.493   3.513   0.131 -0.2907 -0.6497  0.2042
  254TIP3    H122321   5.403   3.524   0.101  0.7775  1.6068 -2.6497
  254TIP3    H222322   5.532   3.451   0.069  1.3604  2.3191 -1.9501
  255TIP3   OH222323   6.313   1.246   3.112 -0.2205  0.4829  0.3726
  255TIP3    H122324   6.306   1.195   3.193 -0.3643  0.3237  0.2621
  255TIP3    H222325   6.279   1.188   3.045 -0.8969  0.9291  0.3260
  256TIP3   OH222326   6.351   3.190   2.241 -0.1220 -0.4766  0.1903
  256TIP3    H122327   6.353   3.112   2.296  0.7249 -1.9825 -1.8592
  256TIP3    H222328   6.440   3.225   2.246 -0.3904  0.1300  0.7819
  257TIP3   OH222329   0.564   0.433   2.244  0.2107  0.6815 -0.2194
  257TIP3    H122330   0.576   0.407   2.153  0.3341 -1.7401  0.4317
  257TIP3    H222331   0.486   0.489   2.243  1.6599  2.8369 -2.1223
  258TIP3   OH222332   0.784   1.940   2.088  0.5345  0.1606  0.4556
  258TIP3    H122333   0.880   1.936   2.079  0.6238  2.4801 -0.2315
  258TIP3    H222334   0.756   1.992   2.013 -1.1403  0.6438  1.3787
  259TIP3   OH222335   1.219   1.840   0.437  0.3235  0.0954  0.2147
  259TIP3    H122336   1.245   1.748   0.432 -1.9252 -0.5653 -0.3137
  259TIP3    H222337   1.250   1.879   0.356  1.3350 -0.1753  0.4652
  260TIP3   OH222338   5.458   3.325   1.575  0.5348  0.1548  0.0623
  260TIP3    H122339   5.379   3.363   1.614  1.8371  1.5094  1.5244
  260TIP3    H222340   5.427   3.246   1.531 -1.6752  0.8012  0.3158
  261TIP3   OH222341   4.988   1.946   0.350 -0.2396 -0.3457  0.0031
  261TIP3    H122342   5.023   1.860   0.371 -0.5236 -1.1047 -2.3740
  261TIP3    H222343   4.902   1.948   0.392 -1.0120 -1.9891 -1.3847
  262TIP3   OH222344   1.403   5.075   3.102  0.0489  0.0352  0.3154
  262TIP3    H122345   1.324   5.100   3.150  0.1329  0.5623  0.1862
  262TIP3    H222346   1.385   4.987   3.071 -0.8545  0.4767 -0.4677
  263TIP3   OH222347   6.565   0.490   0.363  0.1164  0.4271 -0.6994
  263TIP3    H122348   6.526   0.473   0.449 -0.1308  0.3190 -0.8353
  263TIP3    H222349   6.593   0.404   0.332  0.8681  0.5562 -0.4068
  264TIP3   OH222350   4.400   4.450   2.731 -0.0074  0.2844 -0.1865
  264TIP3    H122351   4.349   4.389   2.784  1.8082 -0.9395  0.2644
  264TIP3    H222352   4.481   4.403   2.712  0.4891  1.7037 -1.8396
  265TIP3   OH222353   2.509   2.042   0.056  0.1473 -0.0880  0.2086
  265TIP3    H122354   2.519   1.960   0.007 -0.9489 -0.5284  0.6936
  265TIP3    H222355   2.414   2.054   0.064  0.2545 -0.2747  2.5596
  266TIP3   OH222356   0.341   6.451   2.206 -0.3034 -0.4426 -0.0885
  266TIP3    H122357   0.362   6.410   2.290 -0.9829  0.7597  0.6949
  266TIP3    H222358   0.422   6.494   2.179 -0.4721  0.3757  0.6774
  267TIP3   OH222359   4.366   1.281   0.510  0.5087  1.1175 -0.7006
  267TIP3    H122360   4.332   1.288   0.421 -0.7804 -2.1044 -0.6173
  267TIP3    H222361   4.426   1.207   0.506  1.0541  1.4393  0.9407
  268TIP3   OH222362   0.116   6.479   1.310 -0.0441 -0.1815 -0.3403
  268TIP3    H122363   0.041   6.538   1.316  1.2031  1.3201  1.7824
  268TIP3    H222364   0.193   6.536   1.310  1.1706 -1.7293 -0.1282
  269TIP3   OH222365   0.758   4.138   0.493 -0.1661 -0.2584  0.2651
  269TIP3    H122366   0.717   4.119   0.409 -0.9244  1.4062  0.2220
  269TIP3    H222367   0.783   4.052   0.528  0.5976 -0.9527 -1.8437
  270TIP3   OH222368   6.584   1.707   0.321 -0.2665  0.6332 -0.7093
  270TIP3    H122369   6.508   1.762   0.339 -0.4295 -0.0281  0.7432
  270TIP3    H222370   6.655   1.769   0.307 -0.4818  1.2451  0.7264
  271TIP3   OH222371   3.993   2.051   7.715 -0.1990  0.0073 -0.2638
  271TIP3    H122372   4.084   2.075   7.735 -0.3285 -0.7612  1.4851
  271TIP3    H222373   3.991   1.956   7.727 -1.4780  0.1486  0.9301
  272TIP3   OH222374   2.602   1.516   7.006  0.5071  0.2555  0.1145
  272TIP3    H122375   2.660   1.550   7.075  0.4781 -0.2221  0.3809
  272TIP3    H222376   2.640   1.430   6.984 -1.1196 -0.8990  1.5799
  273TIP3   OH222377   0.057   2.744   2.376  0.4363  0.0913 -0.5481
  273TIP3    H122378  -0.034   2.771   2.383  0.1201 -0.3370 -2.4191
  273TIP3    H222379   0.105   2.825   2.360  0.3213  0.2593 -0.0462
  274TIP3   OH222380   4.139   3.620   7.045  0.3764 -0.2271 -0.3870
  274TIP3    H122381   4.112   3.705   7.009  2.1147  0.4488 -0.2161
  274TIP3    H222382   4.073   3.601   7.112 -0.6638  0.4410 -1.1812
  275TIP3   OH222383   0.351   3.856   7.718 -0.0250  0.5885 -0.1438
  275TIP3    H122384   0.412   3.869   7.791 -0.6936 -0.2498  0.5906
  275TIP3    H222385   0.270   3.899   7.746 -0.3374  0.1196 -0.3043
  276TIP3   OH222386   5.477   4.631   2.658  0.6225  0.0429 -0.4635
  276TIP3    H122387   5.546   4.564   2.664  2.2413  1.4071 -2.4435
  276TIP3    H222388   5.431   4.610   2.577  0.2496  0.5492 -0.3846
  277TIP3   OH222389   0.175   0.211   2.271  0.1442 -0.6341 -0.0092
  277TIP3    H122390   0.087   0.208   2.235 -0.0472  1.4606  0.2063
  277TIP3    H222391   0.176   0.288   2.328  1.9563 -0.9343  0.4361
  278TIP3   OH222392   1.252   2.402   0.383  0.5429  0.4264  0.4422
  278TIP3    H122393   1.203   2.484   0.372  0.0539 -0.2082 -3.0621
  278TIP3    H222394   1.226   2.370   0.469 -3.2758  1.4164 -0.1859
  279TIP3   OH222395   0.439   5.744   1.496 -0.1713  0.3550  0.2176
  279TIP3    H122396   0.523   5.717   1.458  0.4086  1.6175  0.5474
  279TIP3    H222397   0.447   5.839   1.506 -1.8011  0.5579 -0.1316
  280TIP3   OH222398   2.438   6.617   0.501 -0.1373 -0.4217  0.6662
  280TIP3    H122399   2.482   6.572   0.429  0.4315 -1.5594  1.6853
  280TIP3    H222400   2.482   6.585   0.580 -0.4728  1.1028  1.5120
  281TIP3   OH222401   3.944   6.209   0.578  0.1516 -0.9403  0.5380
  281TIP3    H122402   3.889   6.286   0.594 -0.4153 -1.2390  0.0599
  281TIP3    H222403   4.022   6.243   0.535 -0.5664 -0.7555 -0.6472
  282TIP3   OH222404   2.149   5.343   7.507 -0.2821  0.5423 -0.3238
  282TIP3    H122405   2.240   5.319   7.523 -0.3215  0.5117 -0.1493
  282TIP3    H222406   2.133   5.315   7.417 -1.2073 -2.9476  0.7664
  283TIP3   OH222407   4.097   3.482   8.654 -0.4392 -0.4261  0.3036
  283TIP3    H122408   4.088   3.506   8.746  1.5851 -1.0440  0.7145
  283TIP3    H222409   4.121   3.564   8.610  1.5120 -0.6595  0.8584
  284TIP3   OH222410   1.111   2.932   1.304  0.3261  0.3137 -0.1580
  284TIP3    H122411   1.044   2.985   1.347  0.8564  1.0644 -0.2511
  284TIP3    H222412   1.191   2.984   1.309  0.6269 -0.0248 -1.1511
  285TIP3   OH222413   1.306   6.429   6.889 -0.0100 -0.2121  0.0222
  285TIP3    H122414   1.366   6.363   6.854 -1.2550 -2.0065  1.0878
  285TIP3    H222415   1.363   6.502   6.913  1.4144 -0.8034 -1.3047
  286TIP3   OH222416   4.966   6.750   8.625 -0.5253 -0.4755 -0.4020
  286TIP3    H122417   5.000   6.676   8.575  2.5812 -1.3102  2.5851
  286TIP3    H222418   4.916   6.710   8.696  1.8194  0.0639  1.6993
  287TIP3   OH222419   0.202   2.860   0.530  0.2608  0.4212  0.0194
  287TIP3    H122420   0.142   2.914   0.477  0.2342  1.1151  0.7361
  287TIP3    H222421   0.216   2.912   0.609  0.4960 -0.4934  0.5824
  288TIP3   OH222422   4.416   4.060   8.167 -0.6591 -0.2718 -0.3680
  288TIP3    H122423   4.459   4.094   8.246  0.2471 -1.3964 -0.3424
  288TIP3    H222424   4.443   4.120   8.098 -0.1032 -0.2137 -0.1111
  289TIP3   OH222425   5.849   3.299   1.771 -0.0224  0.1013 -0.0828
  289TIP3    H122426   5.929   3.289   1.824  0.1520 -1.7941 -0.6251
  289TIP3    H222427   5.790   3.232   1.805 -1.0346  0.8542 -0.3299
  290TIP3   OH222428   2.535   2.813   8.416  0.1521  0.4222  0.0280
  290TIP3    H122429   2.557   2.873   8.487  0.8928 -0.5111  0.6225
  290TIP3    H222430   2.588   2.842   8.342 -1.2380  1.9044 -0.4224
  291TIP3   OH222431   6.115   1.113   7.602 -0.5597  0.2513  0.3624
  291TIP3    H122432   6.170   1.043   7.568 -1.3122 -1.5736  2.6609
  291TIP3    H222433   6.037   1.113   7.546  0.2853  0.6509 -0.8622
  292TIP3   OH222434   6.654   1.201   0.521 -0.3274 -0.3394  0.5466
  292TIP3    H122435   6.733   1.155   0.494  0.0498 -0.2806  1.4950
  292TIP3    H222436   6.596   1.197   0.445  0.8297  0.1658 -0.3859
  293TIP3   OH222437   2.003   5.072   8.012 -0.1490 -0.4137  0.1781
  293TIP3    H122438   2.070   5.013   7.978  0.9817  0.3316  1.0412
  293TIP3    H222439   1.983   5.038   8.100 -0.4839 -0.2881  0.1534
  294TIP3   OH222440   1.734   6.684   8.075  0.3747 -0.0108  0.2886
  294TIP3    H122441   1.713   6.770   8.040 -1.0756  0.0574  1.2588
  294TIP3    H222442   1.805   6.701   8.138 -0.0622  0.5135  0.6461
  295TIP3   OH222443   6.392   3.406   1.068 -0.3532  0.2382  0.2285
  295TIP3    H122444   6.354   3.441   0.987  2.9970  1.5127 -0.9901
  295TIP3    H222445   6.357   3.317   1.074 -2.6331  0.9365 -1.2193
  296TIP3   OH222446   6.640   0.128   1.153  0.0890  0.4135  0.4399
  296TIP3    H122447   6.592   0.046   1.160  0.4578  0.0503 -0.9854
  296TIP3    H222448   6.585   0.183   1.098  0.0925  0.9553  0.9585
  297TIP3   OH222449   2.624   0.006   0.167  0.7669  0.1211 -0.0041
  297TIP3    H122450   2.654   0.006   0.076  1.0724  0.2487  0.0951
  297TIP3    H222451   2.545   0.060   0.166 -0.9960 -2.2854 -0.7522
  298TIP3   OH222452   0.004   1.112   7.036 -0.5181  0.0733  0.1310
  298TIP3    H122453  -0.042   1.028   7.034  0.0009 -0.2221 -2.5149
  298TIP3    H222454   0.096   1.089   7.028 -0.0275  0.7937  2.8342
  299TIP3   OH222455   4.961   4.688   7.815 -0.2709  0.2354  0.3065
  299TIP3    H122456   5.030   4.661   7.875 -0.6774 -1.1036  0.2159
  299TIP3    H222457   5.006   4.737   7.747  0.0493  2.8203  2.2533
  300TIP3   OH222458   1.962   3.689   7.876  0.0561  0.1785  0.4273
  300TIP3    H122459   1.938   3.642   7.956  0.5573 -2.6537 -0.9247
  300TIP3    H222460   2.048   3.726   7.895  0.7535 -1.5332  0.8713
  301TIP3   OH222461   3.438   3.211   0.101 -0.6606  0.0571 -0.5224
  301TIP3    H122462   3.525   3.172   0.108 -0.4303  0.0114 -2.8999
  301TIP3    H222463   3.411   3.227   0.191  0.9249 -1.8741  0.3591
  302TIP3   OH222464   2.944   4.025   1.529 -0.1385 -0.6936 -0.1612
  302TIP3    H122465   2.875   3.984   1.581 -1.9420  0.4414 -1.5594
  302TIP3    H222466   3.008   4.056   1.593 -1.0991 -1.4316  1.1903
  303TIP3   OH222467   4.007   6.379   1.459  0.3590  0.0487 -0.4532
  303TIP3    H122468   3.932   6.370   1.400  0.6714 -0.5446 -0.7751
  303TIP3    H222469   4.052   6.295   1.453  0.4909  0.0418  0.5140
  304TIP3   OH222470   4.711   5.824   7.186  0.5164  0.0601 -0.3278
  304TIP3    H122471   4.739   5.753   7.128  0.6609  0.5260 -0.8460
  304TIP3    H222472   4.628   5.795   7.222 -1.0255  0.8822 -2.9233
  305TIP3   OH222473   1.131   6.430   7.410  0.2172  0.3714 -0.4132
  305TIP3    H122474   1.090   6.502   7.459 -0.9875  0.7785 -1.9170
  305TIP3    H222475   1.176   6.473   7.337  0.7049 -0.3007 -0.5175
  306TIP3   OH222476   5.591   6.304   8.348  0.5816 -0.2479 -0.3067
  306TIP3    H122477   5.678   6.310   8.387 -0.1410 -0.3468  1.4220
  306TIP3    H222478   5.553   6.391   8.360 -0.6689 -1.0241  1.8273
  307TIP3   OH222479   3.633   0.196   7.708  0.2314  0.1539  0.3934
  307TIP3    H122480   3.698   0.141   7.665 -1.7697  0.0131 -2.8265
  307TIP3    H222481   3.569   0.135   7.743 -0.3645  0.3249 -0.3627
  308TIP3   OH222482   1.699   6.162   1.643 -0.3300 -0.3074 -0.4865
  308TIP3    H122483   1.673   6.158   1.735  0.0159 -0.4091 -0.3923
  308TIP3    H222484   1.747   6.081   1.628  0.3444  0.0924 -0.5288
  309TIP3   OH222485   4.449   3.600   0.568 -0.1949  0.0474  0.5768
  309TIP3    H122486   4.461   3.505   0.563 -1.7180 -0.1657  0.3108
  309TIP3    H222487   4.364   3.611   0.612 -0.6502  1.2320 -0.5241
  310TIP3   OH222488   6.324   2.632   1.247 -0.4848 -0.5795 -0.4932
  310TIP3    H122489   6.337   2.590   1.163  1.2555 -1.0821 -0.0207
  310TIP3    H222490   6.363   2.572   1.311 -2.1375 -0.4152  0.7471
  311TIP3   OH222491   0.932   1.919   0.160  0.7246 -0.0237  0.1705
  311TIP3    H122492   0.936   1.953   0.071  1.1143  0.0932  0.2293
  311TIP3    H222493   1.023   1.898   0.182  0.8338  1.1723  1.0039
  312TIP3   OH222494   5.006   6.686   0.886 -0.2910 -0.8378  0.4793
  312TIP3    H122495   5.088   6.709   0.928  0.1982  0.1124 -0.9277
  312TIP3    H222496   5.030   6.626   0.815 -0.5048  0.9236 -1.1738
  313TIP3   OH222497   1.165   0.601   1.082  0.2692  0.7874 -0.2213
  313TIP3    H122498   1.239   0.630   1.030 -0.0466 -0.3162 -1.3288
  313TIP3    H222499   1.120   0.536   1.027 -0.6098  0.2674  1.0503
  314TIP3   OH222500   3.841   2.311   1.369  0.1792  0.4799  0.5272
  314TIP3    H122501   3.930   2.347   1.373  0.8801 -1.1917  2.2041
  314TIP3    H222502   3.794   2.355   1.440 -0.2265  1.0910 -0.1166
  315TIP3   OH222503   0.482   2.134   2.158  0.0922  0.0117  0.1080
  315TIP3    H122504   0.564   2.182   2.150  1.0041 -1.7516 -2.5840
  315TIP3    H222505   0.418   2.187   2.109 -0.3555  1.1698  1.8494
  316TIP3   OH222506   3.246   2.748   7.851  0.0001  0.1138  0.0419
  316TIP3    H122507   3.283   2.685   7.913  2.1295  0.7271 -0.5153
  316TIP3    H222508   3.292   2.830   7.871  0.1160  0.5214 -1.7785
  317TIP3   OH222509   3.042   3.222   8.466  0.1260 -0.7604  0.0778
  317TIP3    H122510   3.110   3.178   8.518 -0.9313 -2.0308  0.4358
  317TIP3    H222511   2.961   3.201   8.512 -0.5516  0.4658 -0.5326
  318TIP3   OH222512   6.665   5.158   1.938  0.1987  0.3712 -0.1570
  318TIP3    H122513   6.740   5.153   1.879  2.6608  0.1781  2.7938
  318TIP3    H222514   6.675   5.241   1.984 -0.4270 -0.4106  1.4717
  319TIP3   OH222515   3.735   3.098   2.764  0.3890  0.3560  0.2291
  319TIP3    H122516   3.718   3.148   2.843 -1.0123  0.9493 -0.3998
  319TIP3    H222517   3.825   3.118   2.740  0.8558  0.1062  1.6906
  320TIP3   OH222518   4.825   3.232   0.969 -0.2014 -0.1967  0.1239
  320TIP3    H122519   4.861   3.149   0.937  0.7633 -0.2321  1.2358
  320TIP3    H222520   4.830   3.225   1.064  3.1040  2.4170  0.3179
  321TIP3   OH222521   4.305   6.751   0.578  0.2269  0.5516  0.0572
  321TIP3    H122522   4.395   6.747   0.543  0.0142  2.4857 -0.8425
  321TIP3    H222523   4.264   6.671   0.546  1.8022 -0.7266  1.0681
  322TIP3   OH222524   5.029   1.718   1.465 -0.0005 -0.8938  0.3105
  322TIP3    H122525   5.112   1.674   1.482  0.1509 -0.3442  1.0517
  322TIP3    H222526   4.962   1.654   1.491  0.2196 -0.5235  1.8465
  323TIP3   OH222527   3.660   5.001   1.127  0.5575 -0.1632  0.0082
  323TIP3    H122528   3.639   5.034   1.040 -0.2111  1.1509  0.6631
  323TIP3    H222529   3.664   4.906   1.116 -2.8944 -0.3273 -0.8121
  324TIP3   OH222530   4.152   5.736   8.121  0.3491  0.8181 -0.1372
  324TIP3    H122531   4.191   5.823   8.128 -0.3392  1.4170 -2.5412
  324TIP3    H222532   4.091   5.731   8.195  1.2209  1.9216  0.6810
  325TIP3   OH222533   2.474   1.785   2.794 -0.2067 -0.0382  0.2257
  325TIP3    H122534   2.404   1.721   2.807 -0.7663  0.2401 -1.1632
  325TIP3    H222535   2.452   1.857   2.853 -1.3745  0.2436 -0.5145
  326TIP3   OH222536   0.492   1.742   2.144 -0.1470  0.0236 -0.1708
  326TIP3    H122537   0.547   1.664   2.151  0.1729  0.1612 -1.0206
  326TIP3    H222538   0.501   1.785   2.229  1.3522  0.2329 -0.3992
  327TIP3   OH222539   5.840   4.669   1.081  0.2803 -0.1778  0.4202
  327TIP3    H122540   5.841   4.628   1.167 -3.3727 -2.0747 -0.2475
  327TIP3    H222541   5.762   4.634   1.038  1.0486  1.8940 -3.1071
  328TIP3   OH222542   0.031   5.631   1.704  0.0225 -0.2970 -0.2568
  328TIP3    H122543   0.113   5.598   1.667 -0.1625 -0.5466 -0.4464
  328TIP3    H222544  -0.037   5.589   1.652 -0.2170  0.4198 -0.5298
  329TIP3   OH222545   2.653   4.291   1.156 -0.1592  0.8201 -0.8996
  329TIP3    H122546   2.741   4.273   1.190 -0.6642 -1.1463 -0.4802
  329TIP3    H222547   2.596   4.282   1.231 -0.7763  1.7438 -1.2416
  330TIP3   OH222548   4.003   0.367   8.300  0.3478 -0.0531 -0.2045
  330TIP3    H122549   3.920   0.321   8.309 -0.1818  0.9848  0.2430
  330TIP3    H222550   3.989   0.428   8.227  1.5841 -1.7231 -1.9508
  331TIP3   OH222551   6.701   3.910   1.614  0.1365  0.2194  0.6731
  331TIP3    H122552   6.618   3.862   1.605  0.0120  0.6851 -0.9124
  331TIP3    H222553   6.722   3.904   1.707 -1.7447  0.1970  1.1359
  332TIP3   OH222554   3.392   5.778   0.950  0.3678  0.5906  0.5499
  332TIP3    H122555   3.436   5.859   0.924  2.0947 -0.3411  0.4275
  332TIP3    H222556   3.337   5.755   0.875  0.2328  1.3983  0.3986
  333TIP3   OH222557   6.675   2.814   8.516 -0.7210 -0.2060  0.0757
  333TIP3    H122558   6.727   2.737   8.539 -1.2263 -0.3562  0.7478
  333TIP3    H222559   6.615   2.783   8.448  0.6776  0.2030 -1.4091
  334TIP3   OH222560   6.281   5.578   6.600  0.6932 -0.2233  0.6489
  334TIP3    H122561   6.347   5.538   6.657  1.0740  0.0816  0.4335
  334TIP3    H222562   6.250   5.654   6.649  3.0989  1.7731 -0.6385
  335TIP3   OH222563   0.521   6.003   1.510 -0.1635 -0.2294  0.2559
  335TIP3    H122564   0.590   6.025   1.446 -0.2584  1.8493  0.7839
  335TIP3    H222565   0.446   6.056   1.483 -0.6303 -0.3172  1.3476
  336TIP3   OH222566   0.339   0.634   6.977 -0.1887  0.1392  0.1705
  336TIP3    H122567   0.389   0.643   6.896  1.4813 -0.3540  1.0940
  336TIP3    H222568   0.255   0.677   6.958  0.7053  1.3549 -1.3213
  337TIP3   OH222569   0.360   5.789   8.571 -0.0258 -0.0765  0.2131
  337TIP3    H122570   0.289   5.852   8.565 -0.1610 -0.3023 -0.6338
  337TIP3    H222571   0.349   5.748   8.657 -0.2084  0.7158  0.5758
  338TIP3   OH222572   0.246   3.379   2.526 -0.0514  0.7398 -0.1902
  338TIP3    H122573   0.210   3.295   2.554  2.5476 -0.8515 -1.1758
  338TIP3    H222574   0.333   3.382   2.567  0.3127  2.4680 -0.9996
  339TIP3   OH222575   2.428   1.781   8.273 -0.0502  0.4226 -0.4914
  339TIP3    H122576   2.385   1.696   8.272 -2.7617  1.6823 -0.1412
  339TIP3    H222577   2.396   1.825   8.195  1.4740  1.0918 -0.7802
  340TIP3   OH222578   6.557   2.725   7.690 -0.7560  0.6808  0.0640
  340TIP3    H122579   6.593   2.715   7.778 -3.6091  0.4589  1.3279
  340TIP3    H222580   6.510   2.808   7.693  0.9036  1.7810 -2.0289
  341TIP3   OH222581   1.082   1.444   1.105  0.5758 -0.2671  0.4091
  341TIP3    H122582   1.036   1.402   1.178  0.9763 -0.5525  0.4995
  341TIP3    H222583   1.059   1.391   1.028  1.6163 -1.0681  0.6311
  342TIP3   OH222584   6.106   0.558   2.767  0.1967 -0.2000 -0.2592
  342TIP3    H122585   6.015   0.573   2.791  0.5918 -0.4201  1.5360
  342TIP3    H222586   6.104   0.475   2.719 -0.5353 -0.2944 -0.0842
  343TIP3   OH222587   0.620   1.334   1.760 -0.1551 -0.1597 -0.1063
  343TIP3    H122588   0.568   1.403   1.802  0.8540  0.8789 -0.5238
  343TIP3    H222589   0.613   1.260   1.820 -0.3764  0.6440  0.9004
  344TIP3   OH222590   2.929   2.976   6.791  0.0311  0.1825  0.8844
  344TIP3    H122591   2.930   2.881   6.802  0.2245 -0.0396 -0.7757
  344TIP3    H222592   2.838   3.001   6.804  0.0044 -0.2099  1.4643
  345TIP3   OH222593   5.996   3.750   0.752 -0.2862  0.5888  0.7163
  345TIP3    H122594   5.972   3.804   0.827 -0.5838  1.6747 -0.1318
  345TIP3    H222595   6.090   3.765   0.741 -0.4222  1.1621  0.3122
  346TIP3   OH222596   5.774   1.768   1.306 -0.2638  0.4026  0.2794
  346TIP3    H122597   5.839   1.810   1.249 -0.3378  1.0887  0.6892
  346TIP3    H222598   5.735   1.700   1.252  1.3401 -0.5580  0.2552
  347TIP3   OH222599   0.866   1.649   0.233  0.1817 -0.0587 -0.2736
  347TIP3    H122600   0.886   1.743   0.231 -1.4419  0.3321  0.0686
  347TIP3    H222601   0.861   1.624   0.141  0.2496  0.2867 -0.3752
  348TIP3   OH222602   6.544   6.185   1.695  0.1247 -0.8702 -0.1931
  348TIP3    H122603   6.574   6.268   1.658 -1.7448  0.2627  0.6758
  348TIP3    H222604   6.561   6.120   1.626  0.3928  0.4668 -1.4270
  349TIP3   OH222605   1.112   0.252   7.702  0.3259  0.4080 -0.1194
  349TIP3    H122606   1.189   0.284   7.654  1.1345  0.2327  1.0344
  349TIP3    H222607   1.051   0.327   7.702  0.6562  0.6795 -0.6951
  350TIP3   OH222608   0.265   2.294   1.677 -0.2614 -0.5050 -0.3502
  350TIP3    H122609   0.310   2.278   1.594  1.3551  2.2398 -0.1381
  350TIP3    H222610   0.275   2.213   1.726  3.8577 -0.3929 -0.6853
  351TIP3   OH222611   5.335   5.194   8.383 -0.5604  0.9522  0.2236
  351TIP3    H122612   5.395   5.187   8.309 -1.1545  0.5519 -0.2355
  351TIP3    H222613   5.303   5.105   8.396 -1.3621  1.2291  0.1912
  352TIP3   OH222614   2.610   4.096   7.310 -0.6117 -0.1431  0.0029
  352TIP3    H122615   2.529   4.047   7.323 -0.5716 -0.0945  0.4424
  352TIP3    H222616   2.595   4.145   7.229 -0.7268 -0.7280 -0.3367
  353TIP3   OH222617   4.628   2.897   6.740  0.2263 -0.1766  0.2593
  353TIP3    H122618   4.656   2.905   6.649 -0.2585  1.3362  0.2214
  353TIP3    H222619   4.601   2.985   6.765 -3.1807 -1.1766  0.7112
  354TIP3   OH222620   4.504   4.436   1.577  0.6640  0.1085 -0.4190
  354TIP3    H122621   4.577   4.380   1.601  0.8112  1.2426  2.0421
  354TIP3    H222622   4.428   4.398   1.620  0.4846  0.9233  0.0014
  355TIP3   OH222623   0.062   6.486   2.197 -0.0399 -0.1674  0.3660
  355TIP3    H122624   0.156   6.476   2.183  0.0605 -0.8912  1.4528
  355TIP3    H222625   0.053   6.555   2.262 -0.3302  0.6776 -0.5457
  356TIP3   OH222626   3.942   0.927   0.199 -0.9074 -0.0012 -0.0011
  356TIP3    H122627   4.030   0.905   0.230 -0.8599 -0.7713 -0.6540
  356TIP3    H222628   3.953   0.946   0.106 -1.2824  0.8577  0.1223
  357TIP3   OH222629   5.040   3.514   6.822 -0.4515 -0.7302 -0.5972
  357TIP3    H122630   4.999   3.541   6.740  1.5656  0.4763 -1.2889
  357TIP3    H222631   5.122   3.474   6.796 -0.6807 -2.1889  0.7654
  358TIP3   OH222632   2.647   3.743   0.056 -0.3828  0.2211  0.4515
  358TIP3    H122633   2.645   3.737  -0.040  2.3664 -0.0226  0.3369
  358TIP3    H222634   2.631   3.654   0.087  1.1876 -0.2120  0.0926
  359TIP3   OH222635   3.250   3.111   1.293 -0.0362 -0.9768  0.2761
  359TIP3    H122636   3.241   3.124   1.198 -0.3122 -2.2523  0.1052
  359TIP3    H222637   3.165   3.139   1.328  0.6393  1.1282  0.3788
  360TIP3   OH222638   2.503   1.291   7.277 -0.3405  0.1715 -0.1542
  360TIP3    H122639   2.426   1.271   7.329 -0.0266 -1.6693 -0.3511
  360TIP3    H222640   2.513   1.386   7.285 -1.6235  0.2255  1.2562
  361TIP3   OH222641   0.676   4.893   0.721 -0.7388  0.8195 -0.4826
  361TIP3    H122642   0.711   4.949   0.651  2.8693  1.3001  1.5023
  361TIP3    H222643   0.616   4.950   0.769 -0.6914  1.4951 -1.2015
  362TIP3   OH222644   0.778   3.415   7.876 -0.0327  0.0214 -0.2566
  362TIP3    H122645   0.710   3.361   7.917 -0.6102  1.6551  1.0557
  362TIP3    H222646   0.856   3.400   7.928 -0.1869  0.3875  0.0916
  363TIP3   OH222647   2.533   0.401   7.438 -0.0700 -0.2572 -0.1032
  363TIP3    H122648   2.532   0.306   7.431 -0.4398 -0.2324 -0.4251
  363TIP3    H222649   2.522   0.432   7.349 -0.6094  0.0830  0.0753
  364TIP3   OH222650   2.155   6.037   8.452 -0.1115 -0.2037 -0.0138
  364TIP3    H122651   2.182   6.121   8.417 -1.2096 -0.4847 -1.6317
  364TIP3    H222652   2.196   5.972   8.395  0.6715 -0.7882  1.1698
  365TIP3   OH222653   3.976   1.668   1.078 -0.1826 -0.1319 -0.2274
  365TIP3    H122654   3.964   1.622   1.161  1.6293  2.6515  1.7644
  365TIP3    H222655   4.067   1.651   1.053 -0.0326  0.8250 -0.4056
  366TIP3   OH222656   0.588   3.281   0.937  0.1971 -0.1005  0.3148
  366TIP3    H122657   0.644   3.218   0.893  0.5688  0.4162  0.0358
  366TIP3    H222658   0.526   3.228   0.986  0.9504 -0.6804  0.6545
  367TIP3   OH222659   5.967   5.890   1.858  0.0642 -0.2735  0.0708
  367TIP3    H122660   5.963   5.882   1.763  0.1163  0.0029  0.0431
  367TIP3    H222661   6.039   5.832   1.885  1.2305  0.9655 -0.2363
  368TIP3   OH222662   4.224   6.258   7.250 -0.5494  0.0410  0.0688
  368TIP3    H122663   4.319   6.257   7.265 -0.6354  0.0502  0.6403
  368TIP3    H222664   4.207   6.346   7.216 -0.2433 -0.2380 -0.8511
  369TIP3   OH222665   0.605   6.012   0.396  0.2384  0.0097 -0.6070
  369TIP3    H122666   0.577   6.054   0.315 -0.0649  2.0703  0.4708
  369TIP3    H222667   0.526   6.006   0.449  0.8585  1.2614  0.5435
  370TIP3   OH222668   6.233   4.473   8.163 -0.3256  0.6818 -0.6543
  370TIP3    H122669   6.279   4.554   8.140 -0.1344  0.1889 -2.1029
  370TIP3    H222670   6.300   4.405   8.155 -0.8790  0.1805 -1.1063
  371TIP3   OH222671   3.673   4.125   0.707  0.1691  0.1452 -0.0737
  371TIP3    H122672   3.686   4.103   0.799 -0.6778  2.1371  0.5965
  371TIP3    H222673   3.733   4.199   0.691  1.9363 -1.5407 -1.7917
  372TIP3   OH222674   2.630   0.805   1.849 -0.2123 -0.1588 -0.0075
  372TIP3    H122675   2.551   0.860   1.854  1.7792  3.1175 -1.2462
  372TIP3    H222676   2.653   0.806   1.756  2.0551  0.1983  0.5202
  373TIP3   OH222677   5.373   4.544   0.596  0.0877 -0.0165 -0.3259
  373TIP3    H122678   5.314   4.581   0.530  0.0950  1.0087  0.2216
  373TIP3    H222679   5.333   4.460   0.619  0.2012 -0.4859 -1.7798
  374TIP3   OH222680   3.855   6.382   7.947 -0.1621  0.3777 -0.2197
  374TIP3    H122681   3.807   6.454   7.907  0.0410  1.6482  1.6608
  374TIP3    H222682   3.833   6.305   7.894 -0.7988  1.7098 -1.9764
  375TIP3   OH222683   1.269   2.353   7.506 -0.0285 -0.0457 -0.1048
  375TIP3    H122684   1.347   2.396   7.540 -0.0470 -0.8474  1.0120
  375TIP3    H222685   1.217   2.333   7.584 -1.0369 -0.1137 -0.7812
  376TIP3   OH222686   4.963   4.888   0.245 -0.3062 -0.5484 -0.4195
  376TIP3    H122687   4.942   4.880   0.338 -0.5742  0.1651 -0.4193
  376TIP3    H222688   4.879   4.874   0.200 -0.4452  0.4433 -0.4925
  377TIP3   OH222689   6.267   3.040   0.116 -0.0059  0.5603  0.3270
  377TIP3    H122690   6.196   2.996   0.069 -0.0387  2.1884 -1.2579
  377TIP3    H222691   6.225   3.117   0.155  0.8634  1.5936 -0.7066
  378TIP3   OH222692   5.214   4.376   1.983  0.4775  0.3252  0.5291
  378TIP3    H122693   5.253   4.302   1.935 -3.4747 -1.7592  0.0875
  378TIP3    H222694   5.233   4.357   2.075 -0.5872 -1.4558  0.4398
  379TIP3   OH222695   1.413   0.786   7.843  0.2040  0.2316 -0.0957
  379TIP3    H122696   1.422   0.858   7.780 -0.3593 -1.2741 -1.9896
  379TIP3    H222697   1.360   0.720   7.797  0.9396 -1.5209  1.4369
  380TIP3   OH222698   0.151   3.687   0.355  0.1027 -0.3323 -0.1066
  380TIP3    H122699   0.067   3.724   0.327  0.3785  0.8090  0.5098
  380TIP3    H222700   0.137   3.593   0.356 -0.7975 -0.2297 -1.2056
  381TIP3   OH222701   3.426   2.756   1.917 -0.1212 -0.0394 -0.2908
  381TIP3    H122702   3.382   2.744   2.001  0.8592 -0.5506  0.1612
  381TIP3    H222703   3.519   2.752   1.937  0.1780  1.5762 -1.1491
  382TIP3   OH222704   2.424   6.694   2.380  0.7080  0.4965 -0.3145
  382TIP3    H122705   2.426   6.661   2.470  3.8029 -1.7409 -1.0110
  382TIP3    H222706   2.396   6.618   2.328 -0.6779  1.6505 -1.3065
  383TIP3   OH222707   0.939   0.500   0.003 -0.2979  0.0744  0.0293
  383TIP3    H122708   0.855   0.534  -0.029  0.0740  0.6574 -0.3293
  383TIP3    H222709   0.914   0.444   0.077 -1.0058  0.2411 -0.0705
  384TIP3   OH222710   3.192   5.134   2.794  0.4941 -0.0043  0.2249
  384TIP3    H122711   3.269   5.188   2.811  0.3304 -0.0257  1.0519
  384TIP3    H222712   3.121   5.197   2.779  0.2357  0.0262  1.4959
  385TIP3   OH222713   2.224   6.318   8.368  0.4046  0.4384 -0.0420
  385TIP3    H122714   2.192   6.408   8.370  0.0103  0.3243 -0.8776
  385TIP3    H222715   2.318   6.326   8.384  0.0164  0.7732  2.4627
  386TIP3   OH222716   3.612   1.957   2.060 -0.3574 -0.1238  0.1853
  386TIP3    H122717   3.562   1.956   2.141 -2.5715  1.0628 -1.0736
  386TIP3    H222718   3.556   2.003   1.997  1.4993 -0.4919 -1.8831
  387TIP3   OH222719   6.563   1.642   0.005  0.1155 -0.1735  0.1095
  387TIP3    H122720   6.599   1.698  -0.063 -1.9209  0.9624 -0.1033
  387TIP3    H222721   6.598   1.555  -0.014 -0.2122  0.1522 -2.2787
  388TIP3   OH222722   6.044   0.929   7.986 -0.6175 -0.6624 -0.1332
  388TIP3    H122723   6.124   0.973   8.017 -0.9746 -0.0792 -0.0246
  388TIP3    H222724   6.017   0.979   7.909 -2.1778  0.6325  1.1774
  389TIP3   OH222725   0.854   6.718   8.194 -0.4789  0.0674 -0.3303
  389TIP3    H122726   0.763   6.690   8.206 -0.5764  0.5170  0.0275
  389TIP3    H222727   0.858   6.746   8.102 -0.7529  0.2114 -0.3022
  390TIP3   OH222728   5.012   1.127   6.850 -0.5015 -0.0486  0.0229
  390TIP3    H122729   5.049   1.111   6.937  1.0977  2.3814 -0.1131
  390TIP3    H222730   5.052   1.060   6.794 -1.6012 -1.6852  1.1115
  391TIP3   OH222731   4.640   3.548   0.851 -0.1989 -0.0516  0.0760
  391TIP3    H122732   4.555   3.588   0.871 -0.3644 -0.5741  0.4565
  391TIP3    H222733   4.643   3.545   0.756 -0.6454 -0.0928  0.0587
  392TIP3   OH222734   2.952   0.302   1.977  0.0062  0.1756 -0.3412
  392TIP3    H122735   2.897   0.353   1.918  0.8876  0.8897 -0.5681
  392TIP3    H222736   2.979   0.226   1.926 -1.6493 -0.7866  0.1286
  393TIP3   OH222737   2.124   0.062   0.969  0.2236  0.0265 -0.1071
  393TIP3    H122738   2.096   0.153   0.973  1.6658  0.5026 -0.1709
  393TIP3    H222739   2.072   0.018   1.035  0.4694  1.1827  0.8936
  394TIP3   OH222740   1.410   0.753   1.403  0.3218 -0.4144 -0.0571
  394TIP3    H122741   1.411   0.846   1.381  0.1774 -0.5097 -0.4696
  394TIP3    H222742   1.499   0.735   1.435  0.4167 -0.1866 -0.1948
  395TIP3   OH222743   4.540   1.801   1.727  0.2221  0.5692  0.2962
  395TIP3    H122744   4.529   1.823   1.634  1.2369  1.9868  0.4739
  395TIP3    H222745   4.545   1.706   1.729  0.1492  0.5186 -1.1035
  396TIP3   OH222746   4.800   6.553   2.576  0.2272  0.1709  0.4073
  396TIP3    H122747   4.712   6.567   2.610 -1.0552  0.3426 -2.6351
  396TIP3    H222748   4.809   6.458   2.571 -0.6430  0.1295 -1.0829
  397TIP3   OH222749   6.455   2.195   1.340  0.0652 -0.3658 -0.0679
  397TIP3    H122750   6.487   2.189   1.250 -0.8374 -0.3317 -0.4066
  397TIP3    H222751   6.382   2.133   1.344 -0.1137 -0.1257  0.5400
  398TIP3   OH222752   2.852   1.196   0.218  0.0076 -0.4979  0.0971
  398TIP3    H122753   2.940   1.226   0.194 -0.2402  0.6857  0.5911
  398TIP3    H222754   2.856   1.101   0.210  1.3923 -0.4752  0.2907
  399TIP3   OH222755   6.838   6.482   7.069 -0.0640 -0.4077  0.0428
  399TIP3    H122756   6.891   6.554   7.033  0.9913 -1.3287 -0.2945
  399TIP3    H222757   6.883   6.403   7.040 -0.5835 -1.1997  1.3459
  400TIP3   OH222758   5.238   4.814   2.815  0.0669  0.2767 -0.1585
  400TIP3    H122759   5.311   4.817   2.878  0.2539  0.2796 -0.3744
  400TIP3    H222760   5.174   4.756   2.856  0.0762  0.4787  0.1542
  401TIP3   OH222761   1.019   0.596   2.937 -0.0388 -0.1489 -0.1962
  401TIP3    H122762   1.078   0.670   2.949  0.5964 -0.8182  0.9697
  401TIP3    H222763   1.047   0.531   3.002 -1.1391 -1.0638 -0.5880
  402TIP3   OH222764   3.109   0.329   0.335  0.1681 -0.3227 -0.1075
  402TIP3    H122765   3.019   0.295   0.330 -0.5694  1.3372  0.8855
  402TIP3    H222766   3.123   0.342   0.429  0.8640  0.8797 -0.3625
  403TIP3   OH222767   4.340   6.311   1.277 -0.4139  0.1402  0.3221
  403TIP3    H122768   4.413   6.249   1.282 -0.1236  0.4540  0.0278
  403TIP3    H222769   4.299   6.307   1.364  0.1312  0.1764  0.5831
  404TIP3   OH222770   2.670   1.147   1.310  0.2706 -0.4964 -0.0944
  404TIP3    H122771   2.658   1.119   1.400 -0.4631 -0.0364 -0.0354
  404TIP3    H222772   2.745   1.206   1.312  1.6149 -2.1448 -0.1680
  405TIP3   OH222773   1.906   1.180   0.458  0.6602  0.8115  0.0152
  405TIP3    H122774   1.838   1.247   0.453  1.1630  1.4706  1.5684
  405TIP3    H222775   1.858   1.098   0.472  0.1755  1.2393  0.8782
  406TIP3   OH222776   2.637   3.917   1.535 -0.0404 -0.2138 -0.3858
  406TIP3    H122777   2.574   3.877   1.596  1.3231 -0.3567  0.9716
  406TIP3    H222778   2.648   4.007   1.566  0.1959 -0.0930 -0.8074
  407TIP3   OH222779   2.242   2.119   7.750  0.2026  0.2983 -0.5053
  407TIP3    H122780   2.158   2.113   7.705 -0.2149  0.6789  0.1985
  407TIP3    H222781   2.219   2.127   7.843  0.9921  1.0683 -0.3621
  408TIP3   OH222782   1.494   4.361   8.492 -0.0763  0.4686 -0.2286
  408TIP3    H122783   1.412   4.313   8.482 -0.4540  0.9982  0.2641
  408TIP3    H222784   1.556   4.297   8.527  0.3240 -0.5010 -2.5596
  409TIP3   OH222785   6.153   1.802   3.081  0.1261  0.1954  0.1673
  409TIP3    H122786   6.120   1.800   2.991 -0.1269 -1.8553  0.2470
  409TIP3    H222787   6.194   1.716   3.093 -1.6113 -0.4265  2.5929
  410TIP3   OH222788   6.067   0.600   0.771 -0.0492 -0.2450  0.8140
  410TIP3    H122789   6.076   0.517   0.724 -1.0789  0.6622 -1.1024
  410TIP3    H222790   5.995   0.585   0.833 -2.5310  0.0452 -1.7615
  411TIP3   OH222791   2.984   2.809   1.146 -0.5739  0.0572 -0.1385
  411TIP3    H122792   3.080   2.807   1.151 -0.3907 -2.6398 -2.3073
  411TIP3    H222793   2.965   2.859   1.066 -1.1419  1.8446  1.0368
  412TIP3   OH222794   2.597   2.367   1.175  0.1127  0.2111 -0.1397
  412TIP3    H122795   2.524   2.427   1.161 -0.1808 -0.1281 -0.0872
  412TIP3    H222796   2.673   2.423   1.186 -0.2380  0.5858  0.3791
  413TIP3   OH222797   5.645   1.507   2.073 -0.3221  0.0014 -0.5886
  413TIP3    H122798   5.586   1.508   1.998 -0.2592 -1.1831 -0.6793
  413TIP3    H222799   5.588   1.514   2.149 -0.3331  2.0566 -0.7224
  414TIP3   OH222800   5.754   0.110   8.001 -0.0970  0.2952 -0.1442
  414TIP3    H122801   5.845   0.113   8.030 -0.2704  1.4345  0.3623
  414TIP3    H222802   5.758   0.084   7.909  0.7267  0.2320 -0.0958
  415TIP3   OH222803   2.160   3.756   1.849  0.7218  0.3081  0.3222
  415TIP3    H122804   2.173   3.700   1.773  1.6251  1.8355 -0.7098
  415TIP3    H222805   2.225   3.726   1.912 -1.0989 -2.0547  1.2488
  416TIP3   OH222806   2.936   4.872   8.658 -0.1187 -0.3765 -0.1862
  416TIP3    H122807   3.013   4.816   8.667 -2.1112 -3.2595  0.6917
  416TIP3    H222808   2.937   4.901   8.567  0.8185 -2.2626 -0.8278
  417TIP3   OH222809   4.342   4.379   8.581  0.2523  0.0523  0.1406
  417TIP3    H122810   4.378   4.453   8.630  0.3000  0.3776 -0.3757
  417TIP3    H222811   4.316   4.316   8.648 -0.8772  1.0251  0.6571
  418TIP3   OH222812   5.615   4.332   7.733 -0.9677 -0.3650 -0.2542
  418TIP3    H122813   5.524   4.328   7.761 -1.1381 -1.2434 -0.9181
  418TIP3    H222814   5.658   4.259   7.778 -0.5089  0.2144  0.2831
  419TIP3   OH222815   5.261   1.169   7.684  0.1507  0.2847 -0.3948
  419TIP3    H122816   5.345   1.214   7.673  0.2179  0.2372 -0.0902
  419TIP3    H222817   5.284   1.076   7.690 -0.1087  0.0433 -2.5119
  420TIP3   OH222818   1.041   5.263   1.660 -0.3864 -0.2256 -0.6151
  420TIP3    H122819   1.049   5.312   1.578  1.2593  0.4619 -0.0813
  420TIP3    H222820   0.996   5.323   1.719 -1.7233 -0.7829 -1.0349
  421TIP3   OH222821   2.391   6.731   1.904  0.1817  0.2071 -0.1342
  421TIP3    H122822   2.375   6.768   1.817 -0.9172  0.4341  0.1521
  421TIP3    H222823   2.309   6.744   1.951  0.7732  0.1193  0.9558
  422TIP3   OH222824   3.758   6.352   1.345 -0.0336  0.0998  0.0517
  422TIP3    H122825   3.756   6.329   1.252  0.6040  2.4097 -0.5981
  422TIP3    H222826   3.679   6.404   1.358  1.2063  2.1046  0.0618
  423TIP3   OH222827   2.610   3.892   1.260 -0.2091  0.4558 -0.0680
  423TIP3    H122828   2.525   3.849   1.261 -0.1879  0.4034 -0.3861
  423TIP3    H222829   2.631   3.906   1.352  0.5035 -1.6169  0.1393
  424TIP3   OH222830   2.450   2.898   0.471  0.4668 -0.6178  0.0478
  424TIP3    H122831   2.429   2.921   0.381 -1.0427 -1.2366  0.2111
  424TIP3    H222832   2.481   2.980   0.510  0.0849 -0.0826 -0.7413
  425TIP3   OH222833   3.630   1.321   8.597  0.5521  0.3007  0.2541
  425TIP3    H122834   3.632   1.277   8.512 -2.0710 -0.2278  0.3878
  425TIP3    H222835   3.609   1.412   8.577 -0.1569  0.1566  0.3407
  426TIP3   OH222836   0.180   2.486   8.059  0.0411  0.8999 -0.0444
  426TIP3    H122837   0.206   2.399   8.026  0.2188  0.7710  0.4195
  426TIP3    H222838   0.231   2.496   8.140 -1.7153  0.4309  1.1756
  427TIP3   OH222839   5.526   2.792   7.871  0.0867 -0.2177  0.0310
  427TIP3    H122840   5.575   2.872   7.890 -0.9929  0.5301 -0.1729
  427TIP3    H222841   5.439   2.809   7.908 -0.0183 -1.5093  0.4146
  428TIP3   OH222842   5.016   6.537   7.967 -0.1816  0.5007  0.5536
  428TIP3    H122843   5.060   6.471   8.021  1.0676  3.0974  2.9843
  428TIP3    H222844   4.923   6.514   7.971  0.1453 -0.7208  1.9267
  429TIP3   OH222845   3.621   5.635   0.787 -0.4332 -0.7045  0.2654
  429TIP3    H122846   3.527   5.620   0.798 -0.3797 -0.9860  0.3721
  429TIP3    H222847   3.659   5.612   0.872  0.0645 -3.5344 -0.6151
  430TIP3   OH222848   4.942   2.275   0.173 -0.2216 -0.1304  0.7948
  430TIP3    H122849   4.850   2.255   0.153  0.0444  0.8161 -1.7787
  430TIP3    H222850   4.989   2.195   0.149 -0.0620  0.5425 -1.3938
  431TIP3   OH222851   2.675   6.144   8.197 -0.4956 -0.7105  0.3724
  431TIP3    H122852   2.755   6.197   8.193 -2.4190  2.5248  0.7978
  431TIP3    H222853   2.660   6.117   8.107  1.4706 -2.1293  0.4195
  432TIP3   OH222854   5.820   4.478   0.243  0.0060 -0.9254 -0.1584
  432TIP3    H122855   5.734   4.454   0.277 -0.0755 -0.1861  0.1743
  432TIP3    H222856   5.828   4.429   0.161 -1.4808  0.3373 -1.1185
  433TIP3   OH222857   5.196   4.798   1.202 -0.1423  0.3503 -0.1158
  433TIP3    H122858   5.281   4.807   1.246 -0.3821  0.7402  0.2745
  433TIP3    H222859   5.166   4.887   1.188 -0.1471  0.2305 -0.9416
  434TIP3   OH222860   6.591   3.183   2.517 -0.2049 -0.4596  0.3451
  434TIP3    H122861   6.528   3.119   2.551 -0.7063 -0.0423  0.2130
  434TIP3    H222862   6.676   3.140   2.525 -0.3610 -0.5602  1.6951
  435TIP3   OH222863   2.896   4.149   7.162 -0.1179 -0.0455  0.0401
  435TIP3    H122864   2.913   4.065   7.121  1.4273  0.3938 -0.2859
  435TIP3    H222865   2.817   4.182   7.119  1.0450  0.0898 -2.1329
  436TIP3   OH222866   2.585   2.676   0.894  0.2736 -0.0267  0.6791
  436TIP3    H122867   2.504   2.656   0.940 -1.3649 -1.4483 -2.5068
  436TIP3    H222868   2.632   2.593   0.890 -0.4014 -0.3658 -1.4812
  437TIP3   OH222869   1.049   5.835   7.410  0.2210  0.1358 -0.0589
  437TIP3    H122870   1.083   5.799   7.491  0.7516  2.7388  0.9681
  437TIP3    H222871   1.100   5.793   7.341 -0.1160 -1.9833  0.9291
  438TIP3   OH222872   5.451   4.755   0.775 -0.0824  0.1816 -0.9121
  438TIP3    H122873   5.432   4.674   0.728 -0.0055 -0.1922 -0.3104
  438TIP3    H222874   5.366   4.792   0.798 -0.1229  0.4648 -1.5030
  439TIP3   OH222875   5.651   6.629   8.020  0.0150 -0.6019  0.1212
  439TIP3    H122876   5.663   6.654   8.111 -1.1297 -0.3230  0.2017
  439TIP3    H222877   5.692   6.700   7.970 -0.3459 -0.1995  0.3973
  440TIP3   OH222878   2.284   3.126   3.195 -0.2029 -0.3941 -0.0568
  440TIP3    H122879   2.306   3.034   3.201  1.3049 -0.1610 -1.4516
  440TIP3    H222880   2.208   3.129   3.137 -1.5045 -0.8725  1.5485
  441TIP3   OH222881   1.949   6.742   1.205  0.2310  0.3255 -0.2779
  441TIP3    H122882   1.944   6.676   1.136 -1.8375 -1.1536  1.1602
  441TIP3    H222883   1.988   6.696   1.279 -0.2962  0.9960  0.4411
  442TIP3   OH222884   1.116   1.709   2.607 -0.2962  0.6226  0.0168
  442TIP3    H122885   1.109   1.677   2.518 -0.5426  0.3351  0.1385
  442TIP3    H222886   1.113   1.804   2.599 -3.9191  0.6214 -0.0193
  443TIP3   OH222887   0.545   5.888   7.729 -0.2594  0.2682  0.4408
  443TIP3    H122888   0.608   5.877   7.800  1.1511 -3.1294 -1.1272
  443TIP3    H222889   0.473   5.829   7.752  0.1341 -0.7287 -0.7951
  444TIP3   OH222890   4.356   4.651   7.771  0.3017  0.1744  0.2040
  444TIP3    H122891   4.277   4.612   7.734 -0.4175  0.4345  1.4380
  444TIP3    H222892   4.385   4.714   7.705 -0.2813 -0.2040 -0.4251
  445TIP3   OH222893   3.510   6.175   8.078  0.7835 -0.0648 -0.4808
  445TIP3    H122894   3.483   6.140   8.163 -0.4031 -1.7613 -1.5004
  445TIP3    H222895   3.509   6.270   8.091 -1.6794 -0.1686  0.7695
  446TIP3   OH222896   5.176   3.106   2.369 -0.2155  0.3230  0.1870
  446TIP3    H122897   5.090   3.116   2.329  0.0679  1.6933 -0.1299
  446TIP3    H222898   5.189   3.011   2.374 -2.6414 -0.0096  2.2503
  447TIP3   OH222899   5.463   5.858   6.943  0.5470  0.5161 -0.1902
  447TIP3    H122900   5.528   5.794   6.969 -0.9503 -0.7095  0.7240
  447TIP3    H222901   5.486   5.937   6.992  1.8284  0.3967 -0.5644
  448TIP3   OH222902   3.395   0.989   2.810 -0.4034 -0.0488 -0.3224
  448TIP3    H122903   3.392   1.083   2.826 -0.0527 -0.1934  0.6783
  448TIP3    H222904   3.488   0.966   2.820 -0.5724 -0.5928  0.0512
  449TIP3   OH222905   2.641   0.207   7.291  0.5084 -0.1601  0.0632
  449TIP3    H122906   2.732   0.195   7.319  0.5187 -1.3577 -0.4210
  449TIP3    H222907   2.639   0.173   7.202 -0.7897 -1.7391  0.6576
  450TIP3   OH222908   5.177   3.264   7.445 -0.0141 -0.6492  0.1889
  450TIP3    H122909   5.230   3.254   7.525 -1.5143  1.2524  1.4989
  450TIP3    H222910   5.139   3.177   7.431  0.2181 -1.0022  1.5883
  451TIP3   OH222911   4.436   1.022   7.308 -1.0906 -0.0855 -0.4795
  451TIP3    H122912   4.360   1.075   7.331  0.1377  1.9007 -0.7020
  451TIP3    H222913   4.510   1.068   7.348  0.1210 -1.2818 -1.2582
  452TIP3   OH222914   1.944   6.544   0.480 -0.1035 -0.4813  0.2616
  452TIP3    H122915   1.931   6.452   0.504 -0.8106 -0.4447  0.0440
  452TIP3    H222916   1.942   6.591   0.564 -3.1216 -0.2878  0.1789
  453TIP3   OH222917   1.847   5.440   1.811  0.2506  0.1328 -0.6900
  453TIP3    H122918   1.852   5.354   1.853  0.4424  0.2021 -0.5707
  453TIP3    H222919   1.839   5.501   1.884  2.7649  0.4479 -0.6164
  454TIP3   OH222920   3.301   6.459   8.439  0.3680  0.0847 -0.5689
  454TIP3    H122921   3.217   6.456   8.486  0.8691  0.3713  0.3804
  454TIP3    H222922   3.328   6.368   8.433  0.5798  0.0894  0.2354
  455TIP3   OH222923   0.165   5.299   2.076 -0.5176 -0.4922  0.2980
  455TIP3    H122924   0.088   5.349   2.049  1.9148  1.9411 -2.9711
  455TIP3    H222925   0.181   5.238   2.003  1.1578 -0.2829  0.4540
  456TIP3   OH222926   3.496   3.376   1.775  0.5477 -0.0733 -0.4524
  456TIP3    H122927   3.431   3.307   1.790  0.8640 -0.3148 -0.1613
  456TIP3    H222928   3.573   3.330   1.742  0.8283  0.1104 -0.0680
  457TIP3   OH222929   5.184   1.174   1.086  0.5408 -0.5906  0.3828
  457TIP3    H122930   5.201   1.222   1.005  1.7139  0.2865  1.1115
  457TIP3    H222931   5.144   1.239   1.144 -2.0834 -1.6815 -0.0600
  458TIP3   OH222932   2.083   2.506   8.366  0.2032 -0.8237 -0.7267
  458TIP3    H122933   2.039   2.436   8.317  0.9287 -0.8446 -1.3618
  458TIP3    H222934   2.141   2.547   8.302  1.9902 -1.5679  0.3595
  459TIP3   OH222935   5.931   1.333   1.721 -0.2138 -0.1686  0.4258
  459TIP3    H122936   5.876   1.404   1.689 -1.2180 -0.6443  1.0561
  459TIP3    H222937   6.017   1.374   1.734 -0.7947  0.9613  0.8574
  460TIP3   OH222938   2.200   0.047   0.672  0.0916  0.3956  0.5876
  460TIP3    H122939   2.131   0.053   0.738  0.2208 -1.3151  0.9373
  460TIP3    H222940   2.267  -0.008   0.713  0.4825 -0.1219 -0.6959
  461TIP3   OH222941   4.259   4.250   7.732  0.2921  0.0162 -0.8064
  461TIP3    H122942   4.188   4.273   7.672  0.0997  0.3093 -0.4757
  461TIP3    H222943   4.245   4.307   7.808  0.0175 -0.9435 -0.1088
  462TIP3   OH222944   2.193   2.609   2.425 -0.3104  0.0421  0.3910
  462TIP3    H122945   2.143   2.631   2.346  2.2210  1.8392 -0.8917
  462TIP3    H222946   2.183   2.514   2.434 -0.4358 -0.3075 -2.3428
  463TIP3   OH222947   4.092   2.763   1.870 -0.2304  0.2307  0.2039
  463TIP3    H122948   4.030   2.694   1.847  1.2743 -1.4754  1.0211
  463TIP3    H222949   4.055   2.804   1.948 -0.7747 -0.1419  0.1438
  464TIP3   OH222950   2.002   6.784   7.769  0.0575  0.2450  0.3147
  464TIP3    H122951   2.019   6.799   7.676 -0.9168  2.2054  0.4041
  464TIP3    H222952   2.038   6.861   7.813 -2.6602  1.1540  1.1460
  465TIP3   OH222953   5.677   3.881   7.028 -0.4143 -0.1670  0.0561
  465TIP3    H122954   5.628   3.909   6.950 -0.1498 -1.1977 -0.5068
  465TIP3    H222955   5.685   3.786   7.018  1.5184 -0.0711  0.2271
  466TIP3   OH222956   5.025   2.851   6.940 -0.7159  0.3631 -0.3543
  466TIP3    H122957   5.038   2.899   6.858  0.0537 -0.2094 -0.5730
  466TIP3    H222958   5.110   2.812   6.959 -0.7985  0.7460  0.8911
  467TIP3   OH222959   6.175   2.755   2.110 -0.0126  0.4042 -0.3807
  467TIP3    H122960   6.233   2.821   2.072  0.6955  0.1262  0.1942
  467TIP3    H222961   6.154   2.696   2.037  1.1534 -0.0043 -0.4056
  468TIP3   OH222962   4.026   6.062   2.814 -0.0752  0.4863 -0.3670
  468TIP3    H122963   3.936   6.032   2.800 -0.2560  1.1358 -0.6285
  468TIP3    H222964   4.048   6.029   2.902 -1.3423  2.1249  0.6255
  469TIP3   OH222965   1.760   5.042   8.513 -0.4942 -0.2228  0.0218
  469TIP3    H122966   1.704   5.028   8.437  1.6503  0.5315 -1.8172
  469TIP3    H222967   1.824   5.107   8.484  0.5877 -0.1198  2.4050
  470TIP3   OH222968   6.533   2.791   0.850 -0.1393 -0.0861  0.2914
  470TIP3    H122969   6.606   2.756   0.901  0.0697  0.8884  0.6810
  470TIP3    H222970   6.463   2.803   0.914 -1.0427 -1.9834 -0.2442
  471TIP3   OH222971   2.999   1.669   7.529 -0.2462  0.1105  0.1659
  471TIP3    H122972   3.033   1.586   7.495 -0.1197  0.4790 -0.6205
  471TIP3    H222973   2.969   1.716   7.452  0.3101  1.0832  0.5329
  472TIP3   OH222974   3.893   1.295   7.791  0.0355 -0.6597 -0.6116
  472TIP3    H122975   3.869   1.256   7.707  1.5705 -1.0392 -0.9028
  472TIP3    H222976   3.972   1.346   7.773  0.5291 -0.9368  0.6344
  473TIP3   OH222977   2.169   5.535   8.325  0.3284 -0.5237  0.4785
  473TIP3    H122978   2.125   5.474   8.265  1.6482 -0.6106 -0.4416
  473TIP3    H222979   2.238   5.574   8.272  2.1651 -1.3008  2.1850
  474TIP3   OH222980   2.638   3.550   2.985 -0.0939  0.4245 -0.1134
  474TIP3    H122981   2.601   3.616   3.044 -0.1051 -0.0838  0.4572
  474TIP3    H222982   2.641   3.470   3.037  1.5331  0.3714 -0.2447
  475TIP3   OH222983   3.973   3.850   7.022 -0.0432  0.1712  0.6189
  475TIP3    H122984   3.897   3.822   7.073 -0.1199 -0.4765  0.1770
  475TIP3    H222985   3.950   3.936   6.989 -1.1720 -0.5541 -0.6094
  476TIP3   OH222986   4.425   6.406   2.257 -0.6658  0.2843 -0.5147
  476TIP3    H122987   4.398   6.324   2.214 -0.6546 -0.3560  0.6554
  476TIP3    H222988   4.445   6.380   2.347  1.9679  1.0678 -0.7711
  477TIP3   OH222989   3.779   4.839   1.736  0.6164  0.0195 -0.5828
  477TIP3    H122990   3.733   4.917   1.765  1.1823  0.2013 -0.1680
  477TIP3    H222991   3.793   4.853   1.642 -0.2666 -0.0915 -0.7408
  478TIP3   OH222992   3.043   6.542   0.247 -0.0085  0.0073  0.0630
  478TIP3    H122993   2.960   6.526   0.291 -0.5471 -1.0550 -1.2819
  478TIP3    H222994   3.092   6.598   0.308 -0.9823 -0.8140  1.6704
  479TIP3   OH222995   3.990   3.240   7.494 -0.1336  0.4262 -0.4098
  479TIP3    H122996   3.936   3.162   7.497  1.5976 -1.0343 -2.9697
  479TIP3    H222997   3.935   3.305   7.450 -1.0586  0.1938  0.3721
  480TIP3   OH222998   2.663   2.074   2.274 -0.1552 -0.6072  0.7934
  480TIP3    H122999   2.580   2.034   2.299 -0.9974 -0.1854 -1.1269
  480TIP3    H223000   2.685   2.132   2.346 -1.5845 -0.6437  1.2841
  481TIP3   OH223001   3.545   0.915   8.245  0.1376 -0.2198  0.8055
  481TIP3    H123002   3.556   0.972   8.169 -1.5124 -0.4284  0.3570
  481TIP3    H223003   3.519   0.975   8.315  0.6894 -0.1461  0.9483
  482TIP3   OH223004   5.264   1.384   8.407 -0.0056 -0.0275 -0.2124
  482TIP3    H123005   5.264   1.306   8.352  0.9046  0.1155 -0.4466
  482TIP3    H223006   5.254   1.352   8.496 -2.2516 -0.2179 -0.4755
  483TIP3   OH223007   3.142   6.448   8.057 -0.3545  0.1217  0.0894
  483TIP3    H123008   3.141   6.480   7.967 -0.2726  1.4552  0.5418
  483TIP3    H223009   3.235   6.438   8.079 -0.3783 -0.3943 -0.0351
  484TIP3   OH223010   6.750   4.712   7.787  0.2513  0.5939  0.5819
  484TIP3    H123011   6.831   4.727   7.738 -0.1069  1.3616  0.2094
  484TIP3    H223012   6.765   4.752   7.873  1.1269 -1.3296  1.3844
  485TIP3   OH223013   0.237   5.206   0.217 -0.4365 -0.1213 -0.4056
  485TIP3    H123014   0.176   5.214   0.144  0.3663 -0.1224 -1.0828
  485TIP3    H223015   0.198   5.260   0.287 -0.1982  1.5512 -1.5080
  486TIP3   OH223016   2.256   0.253   2.974  0.3403 -0.6867  0.4398
  486TIP3    H123017   2.184   0.222   2.920 -0.1759 -1.1064  1.3325
  486TIP3    H223018   2.232   0.344   2.995  0.4546 -0.5798  0.1057
  487TIP3   OH223019   0.914   3.044   1.443  0.2513  0.0735 -0.6152
  487TIP3    H123020   0.889   3.136   1.450 -0.7800 -0.2097 -0.5013
  487TIP3    H223021   0.887   3.005   1.526  1.8430 -0.0884 -0.1270
  488TIP3   OH223022   0.792   3.868   0.601  0.1183  0.4177 -0.2342
  488TIP3    H123023   0.801   3.783   0.645 -0.2919  0.7585  0.5240
  488TIP3    H223024   0.744   3.848   0.521  2.0057 -0.4245 -1.2393
  489TIP3   OH223025   4.874   6.062   7.591 -0.0562  0.3689  0.1525
  489TIP3    H123026   4.856   5.969   7.603 -2.2075  0.7936  0.7343
  489TIP3    H223027   4.852   6.080   7.500  0.2049  0.3257  0.0827
  490TIP3   OH223028   4.900   2.254   8.231  0.2104  0.0033  0.3180
  490TIP3    H123029   4.901   2.327   8.293 -1.2071 -0.2356  0.6656
  490TIP3    H223030   4.942   2.288   8.152  1.1251  0.6343  1.0552
  491TIP3   OH223031   4.345   2.083   1.447  0.8001  0.6581  0.0016
  491TIP3    H123032   4.372   2.174   1.444 -0.8997  1.1964  0.1133
  491TIP3    H223033   4.306   2.066   1.361  1.8893 -0.2467 -0.3441
  492TIP3   OH223034   2.667   5.368   1.182  0.1172  0.1817  0.2253
  492TIP3    H123035   2.610   5.318   1.124  0.0589 -1.0358  1.2894
  492TIP3    H223036   2.608   5.425   1.231  0.0349  0.3108 -0.0205
  493TIP3   OH223037   0.187   4.065   2.151 -0.1766 -0.3575 -0.4824
  493TIP3    H123038   0.220   4.091   2.237 -4.3644  2.1239  0.6499
  493TIP3    H223039   0.157   3.975   2.163 -0.4853 -0.1229  0.6464
  494TIP3   OH223040   6.417   6.010   2.254 -0.0072 -0.0798 -0.3761
  494TIP3    H123041   6.421   6.081   2.318 -1.7722 -0.0059 -0.3161
  494TIP3    H223042   6.484   6.033   2.189 -0.7289  1.7799 -0.5065
  495TIP3   OH223043   3.572   0.836   0.176  0.1383  0.2382 -0.0927
  495TIP3    H123044   3.507   0.861   0.110 -0.1728 -0.3830 -0.0309
  495TIP3    H223045   3.615   0.918   0.200 -0.4727  0.6258 -0.3007
  496TIP3   OH223046   6.645   1.022   8.418 -0.6735  0.2892 -0.4502
  496TIP3    H123047   6.740   1.015   8.414 -0.7202 -0.0349 -1.1574
  496TIP3    H223048   6.617   1.023   8.327 -1.3053  1.0744 -0.2586
  497TIP3   OH223049   2.223   2.258   8.568  0.6717 -0.3005 -0.2812
  497TIP3    H123050   2.156   2.226   8.628  0.7777 -2.4758 -1.2230
  497TIP3    H223051   2.229   2.352   8.586 -0.6366 -0.5487  1.7390
  498TIP3   OH223052   5.323   4.557   1.124  0.0482 -0.5087 -0.1415
  498TIP3    H123053   5.275   4.625   1.170  0.1970  0.3198 -1.1771
  498TIP3    H223054   5.258   4.488   1.109 -1.5453  1.4417 -3.3615
  499TIP3   OH223055   2.134   2.685   1.737  0.6362  0.1361  0.8340
  499TIP3    H123056   2.108   2.777   1.727  1.3310  0.3514  0.9341
  499TIP3    H223057   2.075   2.651   1.804  1.2161  0.8762  1.7566
  500TIP3   OH223058   0.760   1.355   6.582 -0.0580  0.7670  0.2288
  500TIP3    H123059   0.843   1.362   6.534  0.3136  1.7070  0.9638
  500TIP3    H223060   0.736   1.446   6.601 -1.5707  0.5468 -0.4668
  501TIP3   OH223061   5.035   5.700   0.707 -0.1880  0.4652  0.5466
  501TIP3    H123062   5.047   5.696   0.612  0.4863 -2.1510  0.6578
  501TIP3    H223063   5.123   5.697   0.743 -0.4747  0.2921  1.2592
  502TIP3   OH223064   1.276   5.517   8.542  0.3086  0.2303  0.3407
  502TIP3    H123065   1.294   5.437   8.493  0.1218 -0.2255  1.0007
  502TIP3    H223066   1.345   5.578   8.516  0.0489  0.0997 -0.7012
  503TIP3   OH223067   1.572   3.905   2.381 -0.3174 -0.3479  0.1844
  503TIP3    H123068   1.525   3.865   2.308  0.2173  0.0207 -0.3629
  503TIP3    H223069   1.602   3.830   2.433 -1.0068 -0.6014  0.2272
  504TIP3   OH223070   5.442   0.881   7.911  0.1441 -0.5453  0.0573
  504TIP3    H123071   5.441   0.792   7.947 -0.1680 -0.1840  0.9789
  504TIP3    H223072   5.357   0.917   7.935 -0.6240 -0.7012 -2.1931
  505TIP3   OH223073   0.830   4.964   7.081 -0.1807 -0.7163 -0.0304
  505TIP3    H123074   0.757   4.905   7.062 -1.3105  0.5234  0.2737
  505TIP3    H223075   0.799   5.017   7.155  0.7082  0.3746 -0.4155
  506TIP3   OH223076   4.530   6.533   8.679  0.4442 -0.0925 -0.1120
  506TIP3    H123077   4.462   6.494   8.733  0.6213 -0.2062  0.0342
  506TIP3    H223078   4.484   6.575   8.606  0.1293  1.0952  0.7520
  507TIP3   OH223079   6.182   5.180   8.167 -0.4607 -0.4622  0.2082
  507TIP3    H123080   6.096   5.221   8.167 -1.2510 -2.0085 -1.0205
  507TIP3    H223081   6.192   5.146   8.256 -1.2975 -0.6110  0.2565
  508TIP3   OH223082   1.041   5.934   8.453  0.2937  0.8477  0.9654
  508TIP3    H123083   0.963   5.912   8.504  0.2597  1.3786  1.1508
  508TIP3    H223084   1.110   5.881   8.491 -0.2632 -0.7424 -0.1519
  509TIP3   OH223085   4.746   6.359   0.724 -0.2664  0.8143 -0.3737
  509TIP3    H123086   4.699   6.298   0.667  1.3508  0.2005 -1.0992
  509TIP3    H223087   4.685   6.377   0.795 -1.1787 -0.8402 -0.6887
  510TIP3   OH223088   6.635   3.564   0.632 -0.1443  0.0829  0.5867
  510TIP3    H123089   6.613   3.616   0.709 -1.3356  0.0514  0.2870
  510TIP3    H223090   6.646   3.475   0.666  2.4796  0.5734  1.1933
  511TIP3   OH223091   5.398   4.570   8.271 -0.2838  0.7276  0.7134
  511TIP3    H123092   5.377   4.653   8.315 -1.3126  0.9974 -0.2397
  511TIP3    H223093   5.370   4.503   8.333 -0.4882  1.0968  1.0297
  512TIP3   OH223094   5.050   4.331   7.848  0.3964  0.6567  0.5197
  512TIP3    H123095   4.970   4.369   7.811  0.9738  0.6030 -0.8403
  512TIP3    H223096   5.065   4.253   7.795  2.4910  1.7868 -0.6491
  513TIP3   OH223097   2.175   1.492   7.484  0.5542 -0.0696  0.1080
  513TIP3    H123098   2.165   1.427   7.553 -0.7491  0.5382  0.5365
  513TIP3    H223099   2.228   1.561   7.524 -0.6214  0.5170  0.7146
  514TIP3   OH223100   4.157   0.068   1.250 -0.1308 -0.6593 -0.5149
  514TIP3    H123101   4.150  -0.027   1.236  1.2736 -0.4460 -3.2499
  514TIP3    H223102   4.066   0.098   1.250 -0.7187 -2.1033  1.9889
  515TIP3   OH223103   6.697   4.882   6.545  0.0357 -0.0647  0.1787
  515TIP3    H123104   6.612   4.892   6.501  0.7421  0.5066 -1.1269
  515TIP3    H223105   6.694   4.795   6.584 -0.8792 -0.3318 -0.4568
  516TIP3   OH223106   0.308   6.149   1.338  0.1138  0.3110 -0.1412
  516TIP3    H123107   0.332   6.233   1.300 -1.0131 -0.0879 -1.8301
  516TIP3    H223108   0.343   6.084   1.277 -0.6850 -0.3998  0.1422
  517TIP3   OH223109   1.142   5.161   0.815  0.1682  0.4206 -0.0170
  517TIP3    H123110   1.128   5.250   0.783  1.4891  0.1293 -1.5454
  517TIP3    H223111   1.236   5.156   0.833 -0.1299 -0.2447  1.4601
  518TIP3   OH223112   5.022   3.231   1.773  0.6368 -0.3021  0.0025
  518TIP3    H123113   5.067   3.315   1.773  0.4524 -0.1970  0.6560
  518TIP3    H223114   5.082   3.172   1.727  0.0596  0.5252 -1.9092
  519TIP3   OH223115   3.498   4.523   2.047 -0.0940  0.3928 -0.2345
  519TIP3    H123116   3.519   4.567   1.964  0.0742  0.2387 -0.2751
  519TIP3    H223117   3.403   4.513   2.045 -0.2777  1.8580  0.3407
  520TIP3   OH223118   4.054   3.829   1.897  0.5487 -0.2090 -0.3859
  520TIP3    H123119   4.054   3.821   1.992  1.7426 -1.6218 -0.4734
  520TIP3    H223120   3.967   3.798   1.870  0.6425 -0.9826  0.1711
  521TIP3   OH223121   1.648   5.845   2.145 -0.3415  0.5099 -0.2440
  521TIP3    H123122   1.599   5.927   2.151  1.1060  1.4407 -0.6716
  521TIP3    H223123   1.587   5.784   2.103 -1.2919  1.4710 -0.3155
  522TIP3   OH223124   2.254   1.997   1.549  0.4619 -0.0461 -0.0659
  522TIP3    H123125   2.211   1.951   1.477  0.9701 -2.3768  1.0268
  522TIP3    H223126   2.263   2.087   1.518  0.1422 -0.8362 -2.6714
  523TIP3   OH223127   1.939   5.678   7.853 -0.5858  0.5095 -0.1093
  523TIP3    H123128   1.870   5.647   7.910 -0.4947  2.5317  1.1946
  523TIP3    H223129   2.017   5.628   7.879 -1.0503 -0.1914 -0.0597
  524TIP3   OH223130   1.234   4.260   8.518  1.1696  0.0270  0.3432
  524TIP3    H123131   1.178   4.290   8.446 -1.3597 -0.9769  1.7539
  524TIP3    H223132   1.217   4.323   8.589  2.0599 -0.1486  0.7224
  525TIP3   OH223133   4.173   0.410   2.230 -0.2227  0.2723 -0.1092
  525TIP3    H123134   4.117   0.333   2.228 -1.5245  1.1896 -1.5706
  525TIP3    H223135   4.248   0.385   2.175 -0.0008 -0.3856  0.4817
  526TIP3   OH223136   1.669   4.996   2.468  0.3321 -0.3074 -0.9577
  526TIP3    H123137   1.757   4.975   2.499  0.9481  0.9205 -1.7632
  526TIP3    H223138   1.629   5.046   2.539  0.9272  0.6062 -1.2540
  527TIP3   OH223139   0.738   1.350   7.530  0.2683 -0.1011  0.3586
  527TIP3    H123140   0.690   1.276   7.567 -1.2889  0.4795 -0.4148
  527TIP3    H223141   0.823   1.313   7.505 -1.0524 -2.0980 -1.5882
  528TIP3   OH223142   3.708   0.434   7.817  0.0033  0.1334 -0.1341
  528TIP3    H123143   3.738   0.370   7.881 -2.5281 -0.2610  0.7480
  528TIP3    H223144   3.660   0.383   7.752 -0.7120  0.9519 -0.2618
  529TIP3   OH223145   6.727   3.541   8.686  0.4064 -0.9888 -0.1688
  529TIP3    H123146   6.815   3.504   8.683  1.1701  0.5660  1.4153
  529TIP3    H223147   6.700   3.549   8.595  1.6403 -2.0776 -0.6442
  530TIP3   OH223148   2.151   4.664   0.815  0.2695  0.2293  0.5020
  530TIP3    H123149   2.060   4.650   0.789 -0.6922  0.9671  3.1441
  530TIP3    H223150   2.202   4.641   0.738 -2.2340  1.5083 -1.7134
  531TIP3   OH223151   2.772   6.429   8.421 -0.4684 -0.0869 -0.3902
  531TIP3    H123152   2.720   6.507   8.401 -2.3877 -1.3964 -0.8130
  531TIP3    H223153   2.837   6.425   8.351 -0.0250  1.3726 -0.0940
  532TIP3   OH223154   1.510   5.934   2.549  0.7726 -0.1621  0.6080
  532TIP3    H123155   1.452   5.980   2.488  0.7599 -0.8572  0.0837
  532TIP3    H223156   1.554   5.868   2.496  0.6637 -0.8772  1.3705
  533TIP3   OH223157   1.658   2.470   1.941  0.2718  0.4143  0.2534
  533TIP3    H123158   1.684   2.414   2.014  3.5173  1.4098  0.0580
  533TIP3    H223159   1.628   2.551   1.983  0.1006  0.2134  0.5158
  534TIP3   OH223160   2.319   5.734   1.572  0.4669 -0.2507  0.1813
  534TIP3    H123161   2.403   5.733   1.617  0.6513  0.6946 -0.1105
  534TIP3    H223162   2.293   5.827   1.571 -0.0091 -0.3757 -0.7482
  535TIP3   OH223163   0.696   5.261   0.755  0.2118  0.1863  0.2976
  535TIP3    H123164   0.733   5.253   0.667  2.3758  0.3350  1.1381
  535TIP3    H223165   0.603   5.243   0.743  0.6417 -0.9980 -1.8411
  536TIP3   OH223166   5.254   3.633   8.539 -0.7964  0.0889  0.2465
  536TIP3    H123167   5.324   3.569   8.546 -0.5596  0.0225 -1.9201
  536TIP3    H223168   5.242   3.667   8.628 -1.0342 -3.0103  1.5266
  537TIP3   OH223169   4.799   2.009   0.519  0.0980 -0.2280  0.1459
  537TIP3    H123170   4.706   2.006   0.495  0.2324 -1.0634 -0.2909
  537TIP3    H223171   4.801   1.991   0.612 -0.2413  0.6733  0.3406
  538TIP3   OH223172   4.152   2.630   7.895  0.7316  0.1165 -0.4301
  538TIP3    H123173   4.081   2.621   7.958  1.2267  0.1423  0.1320
  538TIP3    H223174   4.198   2.710   7.920  1.3142 -0.2093 -0.4282
  539TIP3   OH223175   3.546   0.783   2.392 -0.0499  0.5999  0.0426
  539TIP3    H123176   3.609   0.819   2.328  0.7270 -2.6674 -1.2245
  539TIP3    H223177   3.470   0.759   2.339 -0.5700  0.4352  0.8534
  540TIP3   OH223178   5.286   2.903   7.367 -0.1482  0.3766 -0.0831
  540TIP3    H123179   5.206   2.914   7.419 -0.2583  0.6181 -0.2996
  540TIP3    H223180   5.355   2.942   7.421 -0.2496  0.5613 -0.0849
  541TIP3   OH223181   3.282   1.727   2.372  0.4731  0.6955 -0.0397
  541TIP3    H123182   3.262   1.801   2.315  0.7371 -0.6288 -1.9614
  541TIP3    H223183   3.210   1.726   2.436  0.4506  2.5442  0.0119
  542TIP3   OH223184   3.748   3.178   1.873  0.7194  0.0138  0.0018
  542TIP3    H123185   3.696   3.107   1.836 -0.8349 -0.9628  3.5897
  542TIP3    H223186   3.839   3.152   1.856  0.1433 -0.6745 -2.2974
  543TIP3   OH223187   6.626   4.937   7.260 -0.5654  0.4009 -0.2008
  543TIP3    H123188   6.722   4.939   7.265 -0.5875  1.6479  0.0480
  543TIP3    H223189   6.604   4.844   7.254  0.6525  0.0923 -0.0953
  544TIP3   OH223190   2.493   6.341   1.794 -0.2609 -0.5424 -0.0133
  544TIP3    H123191   2.495   6.427   1.753  0.3191 -0.0439  1.0250
  544TIP3    H223192   2.401   6.327   1.815 -0.4737 -0.5347 -0.8991
  545TIP3   OH223193   0.313   6.521   7.714  0.4441 -0.7455 -0.0406
  545TIP3    H123194   0.254   6.459   7.672  0.8058 -2.1178  1.3760
  545TIP3    H223195   0.360   6.469   7.779  0.3544  1.1521  1.6237
  546TIP3   OH223196   2.398   6.573   7.821 -0.7313 -0.3612 -0.4724
  546TIP3    H123197   2.350   6.642   7.776 -0.6076  0.0974  0.0848
  546TIP3    H223198   2.354   6.492   7.794 -0.2933 -0.1608 -1.8708
  547TIP3   OH223199   5.612   3.715   2.505 -1.0758 -0.7137  0.4810
  547TIP3    H123200   5.555   3.758   2.441  3.0262  3.9069 -0.7258
  547TIP3    H223201   5.611   3.774   2.581  1.8254 -0.4458  0.4277
  548TIP3   OH223202   0.292   4.976   0.396  0.4864 -0.5544 -0.0799
  548TIP3    H123203   0.256   5.030   0.327  0.9246 -0.5786 -0.3298
  548TIP3    H223204   0.216   4.934   0.436 -0.4493  3.4374  2.9549
  549TIP3   OH223205   6.156   2.815   8.307  0.3556  0.3041  0.3633
  549TIP3    H123206   6.082   2.761   8.336 -1.4315  1.2249 -2.1033
  549TIP3    H223207   6.118   2.873   8.241  2.7982  2.5941  0.8141
  550TIP3   OH223208   0.368   3.676   1.470 -0.5535  0.0061  0.2331
  550TIP3    H123209   0.320   3.709   1.394 -1.1972 -0.7284  0.3033
  550TIP3    H223210   0.460   3.680   1.444 -0.8467 -1.9074 -1.3007
  551TIP3   OH223211   3.370   2.402   1.596 -0.1274  0.0626 -0.1281
  551TIP3    H123212   3.305   2.331   1.589 -1.0032  0.7261  0.9005
  551TIP3    H223213   3.439   2.365   1.651 -0.8411  0.1512  0.8702
  552TIP3   OH223214   1.936   4.714   0.050  0.0000  0.1361 -0.3878
  552TIP3    H123215   1.985   4.672   0.121 -0.9738 -1.3216 -0.5307
  552TIP3    H223216   1.893   4.788   0.092  1.4680  0.8356 -0.0400
  553TIP3   OH223217   0.935   3.080   8.224 -0.8117  0.1343 -0.5528
  553TIP3    H123218   1.012   3.073   8.281 -0.1399  0.1964 -1.4319
  553TIP3    H223219   0.860   3.070   8.283 -0.2754  3.5606  0.9054
  554TIP3   OH223220   1.456   0.266   7.152 -0.0667  0.1071 -0.3930
  554TIP3    H123221   1.519   0.195   7.146  0.2944  0.5581 -2.3569
  554TIP3    H223222   1.506   0.339   7.189  0.1399  0.0004 -0.4621
  555TIP3   OH223223   1.990   1.437   8.437  0.1384 -0.1601  0.1891
  555TIP3    H123224   2.005   1.397   8.523  0.6960 -2.4421 -0.8927
  555TIP3    H223225   2.071   1.484   8.418  0.2938 -0.2550  0.6067
  556TIP3   OH223226   3.081   0.853   7.781 -0.3938 -0.3599  0.3944
  556TIP3    H123227   3.050   0.768   7.752 -0.6687 -0.1491  0.0643
  556TIP3    H223228   3.101   0.901   7.701 -0.4439 -0.0376  0.5699
  557TIP3   OH223229   1.578   1.940   0.510 -0.2977 -0.0491  0.0437
  557TIP3    H123230   1.643   1.995   0.466  0.3596 -1.0198 -0.2363
  557TIP3    H223231   1.494   1.969   0.474  0.0844  0.3792 -0.5274
  558TIP3   OH223232   1.656   4.832   7.692 -0.3552 -0.2050  0.4515
  558TIP3    H123233   1.668   4.787   7.608 -0.2309  0.7751 -0.0699
  558TIP3    H223234   1.562   4.834   7.706 -0.3322 -1.6344  1.0649
  559TIP3   OH223235   0.024   1.052   8.196 -0.4666 -0.0542  0.3649
  559TIP3    H123236   0.066   1.132   8.228 -0.6409 -0.0714  0.6432
  559TIP3    H223237   0.090   0.983   8.209  0.5624  0.3805 -1.9442
  560TIP3   OH223238   5.213   1.140   8.284 -0.3061  0.5183  0.7443
  560TIP3    H123239   5.150   1.078   8.320 -0.5768  0.3117 -0.0594
  560TIP3    H223240   5.291   1.087   8.266 -0.3275  0.5301  0.6158
  561TIP3   OH223241   2.695   1.337   1.037  0.3239 -0.0945  0.0116
  561TIP3    H123242   2.631   1.281   0.993 -0.5568  2.0491 -1.6222
  561TIP3    H223243   2.662   1.346   1.126  0.2495 -1.7110  0.1932
  562TIP3   OH223244   3.770   0.137   0.942  0.4021 -0.5015 -0.2572
  562TIP3    H123245   3.684   0.179   0.939  0.9878  0.7617 -0.2972
  562TIP3    H223246   3.809   0.168   1.024 -0.0276 -2.8691  0.9168
  563TIP3   OH223247   2.843   5.338   0.057 -0.4064  0.7001 -0.0691
  563TIP3    H123248   2.761   5.330   0.009 -1.1266 -1.0416  1.3395
  563TIP3    H223249   2.858   5.251   0.095  1.7213  1.1602  0.3182
  564TIP3   OH223250   5.165   2.460   2.267 -0.7529 -0.0335 -0.5944
  564TIP3    H123251   5.242   2.505   2.304 -1.1011 -0.5423  0.8116
  564TIP3    H223252   5.111   2.531   2.231 -0.7138  0.5663  0.4902
  565TIP3   OH223253   0.547   1.920   0.731 -0.0536 -0.1986  0.3179
  565TIP3    H123254   0.522   1.999   0.779  0.1239 -1.0686  1.8763
  565TIP3    H223255   0.502   1.849   0.776  1.8923 -1.3083  0.6127
  566TIP3   OH223256   3.590   2.452   6.723  0.2741  0.9679 -0.3809
  566TIP3    H123257   3.612   2.368   6.762 -1.0496  1.4734  1.6215
  566TIP3    H223258   3.511   2.435   6.671  0.4249  0.8466 -0.5726
  567TIP3   OH223259   0.947   1.822   6.597  0.5732 -0.1985 -0.2869
  567TIP3    H123260   0.862   1.865   6.586  0.7200  0.0712 -0.3604
  567TIP3    H223261   0.978   1.851   6.683 -0.6920 -2.5004  1.0700
  568TIP3   OH223262   1.966   4.469   1.233  0.6974 -0.0250 -0.1141
  568TIP3    H123263   1.959   4.500   1.143  1.0619 -1.2410 -0.5687
  568TIP3    H223264   2.054   4.432   1.239  0.0850 -1.4723  0.2499
  569TIP3   OH223265   1.779   4.513   0.279  0.6057  0.9493 -0.1757
  569TIP3    H123266   1.761   4.486   0.369  0.5758  0.7069 -0.2550
  569TIP3    H223267   1.863   4.558   0.284 -0.2575  2.6213  0.3014
  570TIP3   OH223268   4.916   2.427   7.704 -0.3538  0.3431  0.0227
  570TIP3    H123269   4.948   2.337   7.709 -1.2096  0.0835  1.1475
  570TIP3    H223270   4.821   2.418   7.692 -0.9654  1.0217  3.5003
  571TIP3   OH223271   5.278   1.252   2.313  0.2764 -0.3116  0.5281
  571TIP3    H123272   5.319   1.329   2.351 -1.3148 -0.0630  1.8882
  571TIP3    H223273   5.208   1.229   2.375 -1.1492 -1.1157 -1.2757
  572TIP3   OH223274   6.060   0.882   0.814  0.0019 -0.1140 -0.0754
  572TIP3    H123275   5.995   0.896   0.883  1.6334 -1.1202  1.8069
  572TIP3    H223276   6.081   0.789   0.819 -0.7380 -0.5086 -2.8768
  573TIP3   OH223277   2.458   0.739   7.524 -0.1944 -0.3436 -0.2090
  573TIP3    H123278   2.370   0.772   7.542 -0.2240 -0.2659 -0.4954
  573TIP3    H223279   2.469   0.750   7.430  0.4856  0.5433 -0.0442
  574TIP3   OH223280   4.704   3.789   0.294 -0.1198 -0.0255  0.0401
  574TIP3    H123281   4.654   3.869   0.308 -0.1796  0.1014 -0.8460
  574TIP3    H223282   4.649   3.737   0.235 -0.3527 -0.9812  1.0618
  575TIP3   OH223283   5.402   3.626   0.714  0.1737 -0.5746 -0.3206
  575TIP3    H123284   5.411   3.677   0.794  1.3367 -0.0206 -0.7806
  575TIP3    H223285   5.395   3.691   0.644  0.9051 -1.0268 -0.8353
  576TIP3   OH223286   3.481   5.792   1.418 -0.3966  0.2950  0.4943
  576TIP3    H123287   3.498   5.807   1.325  0.0009 -2.0161  0.1372
  576TIP3    H223288   3.565   5.804   1.461 -0.4632  0.8066  0.4878
  577TIP3   OH223289   6.185   4.545   2.134 -0.6014 -0.6491  0.2677
  577TIP3    H123290   6.131   4.560   2.212 -1.1736 -2.7926  0.3518
  577TIP3    H223291   6.123   4.548   2.061 -1.2710 -4.5125  0.4779
  578TIP3   OH223292   4.250   2.014   7.464 -0.0330  0.1146  0.2997
  578TIP3    H123293   4.295   1.937   7.500  0.4737  0.0325 -0.4879
  578TIP3    H223294   4.233   2.069   7.540 -0.5447 -0.8409  0.9048
  579TIP3   OH223295   5.719   2.741   2.170 -0.1494 -0.3663  0.5987
  579TIP3    H123296   5.764   2.664   2.136 -1.1491 -0.3801 -0.7310
  579TIP3    H223297   5.711   2.724   2.264  0.1913 -1.5962  0.4219
  580TIP3   OH223298   0.876   2.195   1.823  0.3130  1.0721  0.1115
  580TIP3    H123299   0.963   2.187   1.862  0.5975  2.4006 -0.2228
  580TIP3    H223300   0.820   2.223   1.896  0.3160  0.9714  0.1529
  581TIP3   OH223301   2.121   0.964   0.096  0.1307  1.5288 -0.5816
  581TIP3    H123302   2.143   1.036   0.155  2.0751 -0.0378  0.7466
  581TIP3    H223303   2.199   0.909   0.096 -0.0649  1.0715 -4.1413
  582TIP3   OH223304   0.594   0.639   2.644  0.1625  0.0488  0.1948
  582TIP3    H123305   0.619   0.623   2.735  0.8382  1.4503  0.2859
  582TIP3    H223306   0.499   0.627   2.642  0.3685 -1.8487  0.6486
  583TIP3   OH223307   6.776   2.687   1.974  0.7280 -0.7273 -0.1118
  583TIP3    H123308   6.747   2.769   2.012  1.1652 -0.0555 -1.1800
  583TIP3    H223309   6.699   2.631   1.974  0.3250 -0.1764  0.2519
  584TIP3   OH223310   6.331   4.456   1.762 -0.2146 -0.0472  0.2455
  584TIP3    H123311   6.290   4.542   1.750  0.9241  0.4772 -0.1147
  584TIP3    H223312   6.381   4.465   1.843 -1.0419 -0.7784  0.8513
  585TIP3   OH223313   0.605   0.052   0.622  0.4493 -0.0373 -0.0182
  585TIP3    H123314   0.522   0.097   0.611  0.3652 -0.0281  0.6223
  585TIP3    H223315   0.591  -0.007   0.696  0.9152 -0.2694 -0.1101
  586TIP3   OH223316   3.540   5.445   1.254  0.1708 -0.1016 -0.1909
  586TIP3    H123317   3.589   5.409   1.180  0.8573 -1.3047  0.7984
  586TIP3    H223318   3.601   5.505   1.297  0.4755 -0.8825  0.4975
  587TIP3   OH223319   0.386   4.886   7.889  1.0095  0.1410 -0.1458
  587TIP3    H123320   0.423   4.930   7.965  2.9800  0.5652 -1.2964
  587TIP3    H223321   0.314   4.943   7.861  0.2707 -0.0057  1.3144
  588TIP3   OH223322   2.238   4.908   1.120  0.2912 -0.5959  0.2507
  588TIP3    H123323   2.307   4.842   1.113 -0.2141 -1.1188  0.0747
  588TIP3    H223324   2.264   4.976   1.059 -0.5496 -1.9080 -1.6718
  589TIP3   OH223325   3.174   0.354   0.883 -0.2726 -0.0725 -0.7670
  589TIP3    H123326   3.142   0.327   0.797 -0.1629  0.6601 -1.0517
  589TIP3    H223327   3.142   0.444   0.893 -0.0039 -0.0338 -0.1845
  590TIP3   OH223328   3.591   2.593   0.337 -0.3899  0.4402  0.1704
  590TIP3    H123329   3.641   2.600   0.255 -0.7376  0.0203 -0.0837
  590TIP3    H223330   3.611   2.505   0.369  0.3415  0.8653  0.9411
  591TIP3   OH223331   5.927   6.058   2.069 -0.5507 -0.0991 -0.5052
  591TIP3    H123332   5.951   6.005   2.145 -1.0964  1.4252  0.8048
  591TIP3    H223333   5.933   5.999   1.995  0.5630 -1.5002  0.6548
  592TIP3   OH223334   4.606   6.724   1.456  0.3685  0.3585 -0.6075
  592TIP3    H123335   4.695   6.689   1.446  0.1345 -0.6703  0.6410
  592TIP3    H223336   4.559   6.691   1.380  0.9552  0.5890 -1.0778
  593TIP3   OH223337   1.294   3.750   2.712 -0.8577  0.0259 -0.1577
  593TIP3    H123338   1.285   3.756   2.617  0.3601  0.0887 -0.2849
  593TIP3    H223339   1.346   3.672   2.727 -0.2711  0.5065  0.3993
  594TIP3   OH223340   6.698   6.827   0.672 -0.6287  0.1287 -0.5644
  594TIP3    H123341   6.740   6.788   0.596 -0.3361  0.8824 -0.7937
  594TIP3    H223342   6.702   6.921   0.657  2.6447  0.5717  1.9957
  595TIP3   OH223343   4.636   5.549   8.651  0.5653 -0.1174 -0.9670
  595TIP3    H123344   4.550   5.579   8.682  0.8796 -0.5909  0.4438
  595TIP3    H223345   4.640   5.458   8.679  0.5150 -0.8781 -3.2673
  596TIP3   OH223346   2.521   4.579   2.378 -0.4457 -0.3882 -0.1503
  596TIP3    H123347   2.581   4.632   2.431  0.5663 -0.1383 -1.5149
  596TIP3    H223348   2.451   4.555   2.439 -0.2602  1.4133  0.8581
  597TIP3   OH223349   3.640   2.282   0.734 -0.0905 -0.4427 -0.1342
  597TIP3    H123350   3.567   2.311   0.790 -0.0238  2.3618 -1.3311
  597TIP3    H223351   3.719   2.309   0.782 -0.0260  1.5162 -1.2252
  598TIP3   OH223352   5.825   4.266   0.068 -0.1639  0.0460  0.7109
  598TIP3    H123353   5.735   4.237   0.052  0.6321 -1.9722 -0.4265
  598TIP3    H223354   5.872   4.243  -0.012  1.8005 -0.8627  2.0571
  599TIP3   OH223355   2.018   2.741   7.018 -0.1550  0.4628 -0.0242
  599TIP3    H123356   1.952   2.674   7.036 -1.3835  1.6145 -0.0195
  599TIP3    H223357   2.014   2.755   6.923 -0.0846  0.6917  0.0040
  600TIP3   OH223358   2.979   1.532   0.466 -0.4380 -0.3216 -0.0497
  600TIP3    H123359   2.992   1.585   0.545 -2.8812 -1.8602  1.5403
  600TIP3    H223360   3.066   1.500   0.443  0.4933  1.0892  1.3372
  601TIP3   OH223361   1.057   5.102   2.551  0.0911 -0.1950 -0.2600
  601TIP3    H123362   1.015   5.045   2.487 -1.0723  2.2552 -1.8309
  601TIP3    H223363   1.080   5.044   2.624 -4.8604 -2.0275  0.2070
  602TIP3   OH223364   2.987   0.121   0.855  0.3735  0.2947 -0.0583
  602TIP3    H123365   3.037   0.196   0.889  0.6247  0.4838 -0.8363
  602TIP3    H223366   2.919   0.160   0.801  1.4711 -0.0580 -1.7846
  603TIP3   OH223367   3.256   0.046   3.176  0.0434 -0.6697 -0.2170
  603TIP3    H123368   3.267   0.032   3.082  0.2340 -0.1198 -0.2798
  603TIP3    H223369   3.272  -0.040   3.215 -0.9898 -1.1246 -0.7586
  604TIP3   OH223370   1.001   3.299   8.057  0.4756  0.4770  0.1659
  604TIP3    H123371   1.087   3.299   8.099  1.4288 -2.0158 -1.5692
  604TIP3    H223372   0.952   3.231   8.102  0.4019 -0.0246 -0.6604
  605TIP3   OH223373   4.115   0.119   1.551  0.1682 -1.0170  0.2551
  605TIP3    H123374   4.180   0.110   1.481 -0.9517 -0.6721 -0.8631
  605TIP3    H223375   4.124   0.038   1.602  0.2717 -1.7804 -0.9299
  606TIP3   OH223376   0.499   5.775   2.660 -0.0351  0.0927  0.4579
  606TIP3    H123377   0.530   5.807   2.745  1.3202  1.0585 -0.3594
  606TIP3    H223378   0.471   5.854   2.614  1.7942 -0.0337 -0.9862
  607TIP3   OH223379   6.318   6.296   1.954 -0.3990  0.4078 -0.0922
  607TIP3    H123380   6.405   6.332   1.970  0.1235 -1.0280  0.4265
  607TIP3    H223381   6.266   6.371   1.925  0.7435  1.4854  0.5598
  608TIP3   OH223382   0.876   2.659   0.807  0.0890 -0.1430  0.6618
  608TIP3    H123383   0.959   2.628   0.772  1.6433  1.0592  3.0182
  608TIP3    H223384   0.889   2.663   0.902 -1.7309  2.5628  0.9459
  609TIP3   OH223385   4.883   6.821   7.523  0.3323  0.7598  0.1176
  609TIP3    H123386   4.848   6.761   7.457 -0.6013  1.0268  0.3550
  609TIP3    H223387   4.900   6.902   7.475 -0.2495  0.9218  0.1837
  610TIP3   OH223388   3.901   0.538   8.092  0.2307  0.5389 -0.1910
  610TIP3    H123389   3.833   0.600   8.121 -0.2703 -0.5259  1.0026
  610TIP3    H223390   3.942   0.582   8.017 -1.5223  1.3883 -0.7318
  611TIP3   OH223391   0.037   4.022   2.564 -0.0131  0.3261 -0.4572
  611TIP3    H123392  -0.050   3.997   2.536  0.3987  0.8284 -2.2808
  611TIP3    H223393   0.038   4.005   2.658 -1.7829 -0.4759 -0.5601
  612TIP3   OH223394   0.714   1.187   2.796 -0.2592 -0.1364  0.0688
  612TIP3    H123395   0.700   1.094   2.813  0.4804  0.0147  1.6601
  612TIP3    H223396   0.802   1.205   2.829  0.2476  0.8040 -1.6801
  613TIP3   OH223397   1.431   3.830   2.991 -0.6514  0.1929 -0.3763
  613TIP3    H123398   1.428   3.798   2.900 -0.2993 -1.1777  0.0631
  613TIP3    H223399   1.500   3.896   2.991 -0.9220  0.4893 -1.1920
  614TIP3   OH223400   2.457   6.177   2.370 -0.5022 -0.0341  0.2191
  614TIP3    H123401   2.419   6.091   2.354 -2.3690  0.6595  0.6179
  614TIP3    H223402   2.397   6.218   2.433  1.3695  0.8579  1.5018
  615TIP3   OH223403   2.688   6.682   1.344  0.3224  0.7499 -0.4802
  615TIP3    H123404   2.653   6.603   1.302  2.9956 -1.1239  0.5287
  615TIP3    H223405   2.617   6.713   1.401  0.2185 -3.0449  1.7859
  616TIP3   OH223406   6.310   4.415   0.081 -0.7631  0.2381  0.4675
  616TIP3    H123407   6.337   4.339   0.030  1.2808  0.3820  1.2520
  616TIP3    H223408   6.261   4.379   0.155  0.8861 -0.4391  1.2799
  617TIP3   OH223409   1.724   0.325   8.672  0.5017  0.2090  0.3350
  617TIP3    H123410   1.720   0.237   8.634 -1.0612 -0.0819  1.1076
  617TIP3    H223411   1.668   0.321   8.749  0.9543  1.7110  0.7821
  618TIP3   OH223412   2.357   5.927   2.327 -0.5599  0.5016 -1.3132
  618TIP3    H123413   2.268   5.904   2.356  0.5902  0.0134  2.3980
  618TIP3    H223414   2.403   5.843   2.323  0.1922  0.9106 -1.4149
  619TIP3   OH223415   3.421   0.187   0.590 -0.0638  0.3428  0.4742
  619TIP3    H123416   3.487   0.120   0.571  0.2392  0.8214 -0.1671
  619TIP3    H223417   3.424   0.196   0.686  0.4739  0.0288  0.4915
  620TIP3   OH223418   2.480   4.971   1.301 -0.0242  0.5998  0.1709
  620TIP3    H123419   2.387   4.981   1.279 -0.3793 -2.4980 -0.1019
  620TIP3    H223420   2.482   4.901   1.366  2.0023  1.9995  1.7632
  621TIP3   OH223421   2.440   4.244   8.208 -0.1649 -0.3263  0.3916
  621TIP3    H123422   2.484   4.250   8.124 -0.0363 -0.8565  0.4140
  621TIP3    H223423   2.397   4.328   8.220 -1.3236 -0.7128 -0.8425
  622TIP3   OH223424   5.271   6.608   8.220 -0.1261  0.0700  0.7037
  622TIP3    H123425   5.245   6.650   8.302  0.9452 -0.6163  1.4157
  622TIP3    H223426   5.278   6.515   8.241  0.9768 -0.0156  0.0483
  623TIP3   OH223427   1.031   0.131   1.824 -0.5129  0.5617 -0.4917
  623TIP3    H123428   0.979   0.211   1.821  0.6800  1.4163  0.5761
  623TIP3    H223429   1.121   0.161   1.839  0.1219 -0.9272 -1.1192
  624TIP3   OH223430   1.033   0.098   2.411  0.0140  0.1403 -0.1262
  624TIP3    H123431   1.062   0.011   2.436 -1.6934 -0.9839 -1.7516
  624TIP3    H223432   1.108   0.138   2.368  1.5260  0.4050  2.5289
  625TIP3   OH223433   6.363   5.614   0.591  0.2779 -0.1000  0.0118
  625TIP3    H123434   6.290   5.572   0.638 -1.4929  2.4660 -0.2376
  625TIP3    H223435   6.440   5.594   0.644 -0.9933 -0.7924  1.7211
  626TIP3   OH223436   4.573   4.525   8.684  0.4411 -0.0550  0.3417
  626TIP3    H123437   4.542   4.445   8.727 -0.0569  0.3914  0.8232
  626TIP3    H223438   4.611   4.494   8.602  0.6476 -0.8326  0.7172
  627TIP3   OH223439   1.449   3.927   1.098 -0.4225 -0.0088 -0.0560
  627TIP3    H123440   1.541   3.953   1.100 -0.2581 -0.4915 -0.9521
  627TIP3    H223441   1.439   3.869   1.174  0.5587 -1.6865 -1.1615
  628TIP3   OH223442   3.801   2.409   7.468  0.2010  0.1812  0.3424
  628TIP3    H123443   3.778   2.374   7.382  1.4515 -1.7873  0.7583
  628TIP3    H223444   3.717   2.419   7.513 -0.5600  2.1268 -1.3634
  629TIP3   OH223445   2.580   5.605   7.818 -0.1974  0.1094  0.3881
  629TIP3    H123446   2.532   5.654   7.752  2.7985  1.8859 -0.6728
  629TIP3    H223447   2.616   5.673   7.876  0.0756 -1.1979  1.7978
  630TIP3   OH223448   1.107   4.414   2.713 -0.1041 -0.0198 -0.0429
  630TIP3    H123449   1.160   4.387   2.788 -1.9670 -1.4097  0.8527
  630TIP3    H223450   1.019   4.381   2.732 -1.2369  1.8346 -1.6447
  631TIP3   OH223451   0.597   1.944   6.915 -1.0277 -0.1856  0.2113
  631TIP3    H123452   0.503   1.961   6.906 -0.4102  4.3311 -0.2907
  631TIP3    H223453   0.623   1.997   6.991  1.4730  1.0968 -1.4018
  632TIP3   OH223454   3.021   4.961   7.844  0.2084 -0.3328 -0.3730
  632TIP3    H123455   2.931   4.930   7.837  0.7975 -2.0407 -0.6874
  632TIP3    H223456   3.027   5.032   7.780 -1.4882  1.3421  1.1918
  633TIP3   OH223457   6.759   1.521   2.301  0.0706 -0.0304 -0.3351
  633TIP3    H123458   6.740   1.430   2.321 -0.3786  0.0261 -0.4961
  633TIP3    H223459   6.725   1.570   2.376  1.1432 -0.0623  0.1911
  634TIP3   OH223460   6.286   4.387   6.586 -0.3443 -0.2098  0.3669
  634TIP3    H123461   6.221   4.408   6.652 -0.7764 -1.1839  0.2649
  634TIP3    H223462   6.305   4.294   6.598 -3.2544 -1.5230 -3.2055
  635TIP3   OH223463   3.389   0.684   1.613  0.4167  0.2621  0.1647
  635TIP3    H123464   3.385   0.661   1.520  0.1336  0.6675  0.0737
  635TIP3    H223465   3.332   0.620   1.656  0.6478 -0.0048  0.0745
  636TIP3   OH223466   0.326   2.302   3.318  0.1721  0.2694 -0.0402
  636TIP3    H123467   0.416   2.319   3.346  0.8609  0.3285 -2.1434
  636TIP3    H223468   0.301   2.378   3.266 -0.7720 -0.1454 -0.2294
  637TIP3   OH223469   4.733   5.202   0.718 -0.3215 -0.6055  0.2204
  637TIP3    H123470   4.734   5.146   0.640 -1.9488 -1.0889  0.5243
  637TIP3    H223471   4.641   5.210   0.741  0.1399 -0.6158  2.2153
  638TIP3   OH223472   1.393   0.555   1.649  0.1217  0.1108  0.6402
  638TIP3    H123473   1.380   0.614   1.575 -1.0606 -0.4041  0.4066
  638TIP3    H223474   1.483   0.570   1.677  0.5546  0.4112 -0.8275
  639TIP3   OH223475   1.299   2.675   1.341  0.1196 -0.3952  0.1387
  639TIP3    H123476   1.335   2.761   1.363  2.5724 -1.5022  0.8444
  639TIP3    H223477   1.324   2.661   1.250  1.3914 -1.0521  0.5518
  640TIP3   OH223478   2.924   4.734   7.667 -0.5990 -0.5514  0.3716
  640TIP3    H123479   2.857   4.748   7.600  0.1348  0.4763 -0.1620
  640TIP3    H223480   2.893   4.782   7.743 -0.0002  0.8061 -0.2050
  641TIP3   OH223481   5.310   2.151   0.011  0.2780 -0.4506 -0.0093
  641TIP3    H123482   5.366   2.151   0.088 -1.3163 -0.3616  1.2132
  641TIP3    H223483   5.234   2.099   0.037 -1.6729  2.0089 -0.4216
  642TIP3   OH223484   0.589   0.075   1.896  0.0202  0.3747 -0.0584
  642TIP3    H123485   0.506   0.097   1.939  0.4442  2.5670 -0.2424
  642TIP3    H223486   0.650   0.061   1.968  0.0868  1.3440  0.0867
  643TIP3   OH223487   6.402   4.892   2.775  0.1664 -0.0083 -0.1606
  643TIP3    H123488   6.345   4.839   2.719  2.6314 -0.5326 -2.4036
  643TIP3    H223489   6.490   4.875   2.742  1.6669  0.9510  2.9346
  644TIP3   OH223490   4.245   2.423   8.464 -0.6342 -0.2019  0.7159
  644TIP3    H123491   4.206   2.504   8.430  0.3186  0.3661  0.9318
  644TIP3    H223492   4.182   2.392   8.530 -0.4406  1.0454  1.5276
  645TIP3   OH223493   4.732   4.299   7.398 -0.2490 -0.9540 -0.0680
  645TIP3    H123494   4.705   4.385   7.365 -1.4123 -1.4098 -0.3522
  645TIP3    H223495   4.710   4.301   7.491 -0.2559 -0.9367 -0.0698
  646TIP3   OH223496   5.302   5.771   1.251  0.3385 -0.2604  0.4115
  646TIP3    H123497   5.213   5.754   1.220  0.1635 -1.6944  1.5978
  646TIP3    H223498   5.345   5.686   1.250  1.5564  0.3288  0.3548
  647TIP3   OH223499   5.771   6.354   1.119 -0.4948  0.2481  0.2806
  647TIP3    H123500   5.737   6.265   1.128  1.9652 -0.9734 -1.4574
  647TIP3    H223501   5.750   6.379   1.029  0.9208  0.4432 -0.0184
  648TIP3   OH223502   4.511   2.012   0.905 -0.2952 -0.5341  0.5191
  648TIP3    H123503   4.556   2.045   0.828 -0.0647  0.4531  1.0554
  648TIP3    H223504   4.418   2.027   0.887 -0.5327 -3.0734 -0.8226
  649TIP3   OH223505   2.376   2.469   0.782 -0.2139 -0.8508 -0.1630
  649TIP3    H123506   2.398   2.434   0.868  0.1086 -2.3378 -0.8213
  649TIP3    H223507   2.297   2.522   0.797 -0.1584 -1.0934  1.0341
  650TIP3   OH223508   3.896   2.111   8.637 -0.2774 -0.0407  0.1329
  650TIP3    H123509   3.820   2.148   8.591  0.1425 -0.7112 -1.1358
  650TIP3    H223510   3.861   2.034   8.681 -0.4148 -0.1367 -0.1391
  651TIP3   OH223511   5.393   2.638   8.462  0.0385 -0.3700  0.0925
  651TIP3    H123512   5.357   2.587   8.535  0.9109 -1.7472 -0.3980
  651TIP3    H223513   5.473   2.677   8.497 -1.1516  1.6063  0.7828
  652TIP3   OH223514   3.404   6.552   7.469 -0.1035  0.0227 -0.6396
  652TIP3    H123515   3.390   6.626   7.527 -0.8901 -0.3222 -0.3757
  652TIP3    H223516   3.324   6.499   7.478  0.6989 -1.1717 -0.3542
  653TIP3   OH223517   0.703   4.626   0.835 -0.1834 -0.0326 -0.2713
  653TIP3    H123518   0.754   4.577   0.770  1.0858  1.7984 -0.7615
  653TIP3    H223519   0.671   4.702   0.787 -0.6563  0.4889  0.8433
  654TIP3   OH223520   5.346   6.309   2.044 -0.4646 -0.7261 -0.1908
  654TIP3    H123521   5.386   6.265   1.969  0.7487 -2.3544  1.3279
  654TIP3    H223522   5.326   6.239   2.105 -0.0107  0.6810  1.6560
  655TIP3   OH223523   6.752   1.443   1.695  0.0614  0.5336 -0.1353
  655TIP3    H123524   6.808   1.382   1.646 -1.6170  0.3715 -1.9462
  655TIP3    H223525   6.814   1.501   1.738  1.6729 -0.9335 -0.3354
  656TIP3   OH223526   0.751   4.276   8.517  0.1928  0.3465  0.1332
  656TIP3    H123527   0.830   4.321   8.549  0.8322  1.0380 -2.2382
  656TIP3    H223528   0.684   4.344   8.514  0.3901  0.5146 -0.7963
  657TIP3   OH223529   0.795   0.731   0.515 -0.0694 -0.5753  0.3296
  657TIP3    H123530   0.744   0.672   0.459 -0.0275  0.6724 -1.1038
  657TIP3    H223531   0.765   0.819   0.490  0.8836  0.0681  1.3615
  658TIP3   OH223532   3.863   2.301   7.176 -0.4205  0.3593 -0.2990
  658TIP3    H123533   3.769   2.313   7.165 -0.2905  0.9012 -0.8393
  658TIP3    H223534   3.902   2.343   7.100  0.2492 -0.1209 -0.2299
  659TIP3   OH223535   1.322   3.033   7.193  0.0446 -0.0164  0.3046
  659TIP3    H123536   1.414   3.061   7.191  0.5544 -1.5674 -1.4552
  659TIP3    H223537   1.287   3.064   7.109 -1.3069  1.2269  1.2814
  660TIP3   OH223538   5.307   0.932   7.384 -0.0582 -0.0153 -0.5838
  660TIP3    H123539   5.213   0.934   7.365 -0.4671 -1.0899  1.0617
  660TIP3    H223540   5.312   0.919   7.479  1.7744  1.5933 -0.3778
  661TIP3   OH223541   2.130   2.921   1.230 -0.9908 -0.3479 -0.0251
  661TIP3    H123542   2.040   2.938   1.259 -0.1486 -0.2315  2.7807
  661TIP3    H223543   2.183   2.937   1.307  1.6352  0.9290 -1.9416
  662TIP3   OH223544   3.011   1.776   0.903  0.5769  0.2629 -0.3252
  662TIP3    H123545   2.986   1.683   0.902  0.1413  0.0724  4.4462
  662TIP3    H223546   2.930   1.822   0.927  1.5273  1.3643  0.9185
  663TIP3   OH223547   6.703   4.027   7.250  0.0870 -0.6117 -0.2302
  663TIP3    H123548   6.674   3.936   7.254  1.7487 -1.1466  1.2935
  663TIP3    H223549   6.785   4.023   7.200  0.7595 -0.1732  0.7933
  664TIP3   OH223550   1.352   1.266   8.178 -0.3581 -0.3803 -0.3601
  664TIP3    H123551   1.345   1.199   8.246 -0.1474 -0.3712 -0.3276
  664TIP3    H223552   1.309   1.227   8.102  0.1397 -0.7300 -0.4714
  665TIP3   OH223553   5.299   3.445   7.852 -0.1887 -0.0764  0.0674
  665TIP3    H123554   5.210   3.417   7.875 -1.0092  2.7632  0.6722
  665TIP3    H223555   5.314   3.406   7.766 -2.1124 -0.4601 -0.1415
  666TIP3   OH223556   6.155   5.344   2.723 -0.1230 -0.1625  0.2234
  666TIP3    H123557   6.119   5.318   2.808 -0.2064  0.9642  0.5438
  666TIP3    H223558   6.121   5.432   2.708  0.6952  0.0424 -0.5166
  667TIP3   OH223559   1.591   2.452   1.678  0.1690  0.3794  0.4218
  667TIP3    H123560   1.590   2.364   1.642  0.6651  0.5972 -0.1366
  667TIP3    H223561   1.627   2.442   1.766  0.7645  0.0990  0.1503
  668TIP3   OH223562   3.353   4.584   1.623 -0.3498  0.8312 -0.6732
  668TIP3    H123563   3.432   4.600   1.570 -0.3153  0.9330 -0.5917
  668TIP3    H223564   3.312   4.670   1.631 -0.2185  0.8641 -0.3190
  669TIP3   OH223565   2.258   6.492   1.691 -0.0698 -0.3689 -0.7053
  669TIP3    H123566   2.232   6.478   1.782  0.4965  3.4638  0.2316
  669TIP3    H223567   2.178   6.523   1.648  0.1142 -0.3228 -1.0157
  670TIP3   OH223568   5.401   1.352   7.492 -0.7967 -0.1325  0.6735
  670TIP3    H123569   5.468   1.368   7.559 -1.5622  1.1160  1.1773
  670TIP3    H223570   5.442   1.290   7.432 -0.6793 -2.6479  3.1697
  671TIP3   OH223571   1.262   3.266   1.692 -0.1880  0.0237  0.0029
  671TIP3    H123572   1.282   3.174   1.711  1.6964  0.5801  1.0280
  671TIP3    H223573   1.252   3.307   1.778  1.3850  1.2051 -0.3112
  672TIP3   OH223574   4.433   0.159   2.203  0.4215 -0.0106 -0.0310
  672TIP3    H123575   4.337   0.168   2.199  0.4685 -0.0977 -1.8902
  672TIP3    H223576   4.464   0.249   2.214  0.1419  0.0326  0.4525
  673TIP3   OH223577   3.005   2.387   0.650 -0.5438  0.0361  0.7249
  673TIP3    H123578   3.010   2.379   0.745  0.8165  1.3998  0.8075
  673TIP3    H223579   3.085   2.344   0.618  0.2166  1.6246  0.3868
  674TIP3   OH223580   6.149   0.421   7.547 -0.3486  0.8072 -0.3223
  674TIP3    H123581   6.110   0.427   7.460 -1.3564  0.4384  0.0837
  674TIP3    H223582   6.096   0.354   7.592  0.7529  0.3106  0.2609
  675TIP3   OH223583   3.013   5.068   7.531  0.6168  0.1369  0.0798
  675TIP3    H123584   2.940   5.113   7.573  0.1667 -2.0847  1.8666
  675TIP3    H223585   3.085   5.131   7.533 -0.3369  1.2296  1.2360
  676TIP3   OH223586   2.268   5.539   1.366  0.3112 -0.0826 -0.9354
  676TIP3    H123587   2.173   5.533   1.371  0.4737 -2.6429  1.3212
  676TIP3    H223588   2.292   5.604   1.433  0.1885  0.2584 -1.2202
  677TIP3   OH223589   6.666   4.962   0.501 -0.2182 -0.0441 -0.1515
  677TIP3    H123590   6.683   4.873   0.531  2.0676  0.0181 -1.0672
  677TIP3    H223591   6.749   5.008   0.514 -1.8581  2.5877  2.2009
  678TIP3   OH223592   1.842   2.123   2.385 -0.3700  0.0555  0.2351
  678TIP3    H123593   1.922   2.167   2.413 -0.5788  0.2012  0.6018
  678TIP3    H223594   1.870   2.034   2.363 -0.1548  0.0199  0.6449
  679TIP3   OH223595   2.490   2.728   0.182 -0.4457  0.1311  0.0406
  679TIP3    H123596   2.551   2.800   0.169 -0.4018  0.6600  2.6811
  679TIP3    H223597   2.522   2.659   0.125  1.0252  1.3019 -0.6258
  680TIP3   OH223598   5.867   3.678   7.479  0.1707 -0.5578  0.0862
  680TIP3    H123599   5.859   3.659   7.385 -0.2091  2.2759 -0.5554
  680TIP3    H223600   5.959   3.703   7.490 -0.3143  1.4978 -0.1162
  681TIP3   OH223601   0.478   4.282   1.819 -0.5453 -0.4920  0.8802
  681TIP3    H123602   0.389   4.315   1.831 -0.9890 -1.2844 -0.1281
  681TIP3    H223603   0.522   4.350   1.767 -1.0893 -0.8909 -0.1294
  682TIP3   OH223604   4.934   6.200   8.456  0.0973 -0.1206 -0.0895
  682TIP3    H123605   4.976   6.264   8.399 -2.4316  0.2931 -1.6311
  682TIP3    H223606   4.871   6.251   8.507  0.7260 -0.8506  1.4665
  683TIP3   OH223607   4.076   0.951   1.372  0.3418  0.6140  0.1854
  683TIP3    H123608   4.127   0.871   1.361  0.7712  1.0655 -1.2019
  683TIP3    H223609   4.076   0.966   1.467 -1.3072 -2.0225  0.7164
  684TIP3   OH223610   3.136   4.907   2.617 -0.0236  0.2820  0.2664
  684TIP3    H123611   3.139   4.976   2.683  0.5251  0.2777  0.2488
  684TIP3    H223612   3.222   4.865   2.623 -0.0723  0.1076 -0.2687
  685TIP3   OH223613   2.762   3.765   1.840 -0.0787  0.1080  0.4193
  685TIP3    H123614   2.712   3.781   1.920 -2.1616 -2.0031 -0.3434
  685TIP3    H223615   2.754   3.846   1.790 -2.1637  0.1246  0.6833
  686TIP3   OH223616   5.899   1.909   6.590  0.5776  0.3382 -0.3301
  686TIP3    H123617   5.934   1.853   6.521  0.2340  0.5158 -0.6517
  686TIP3    H223618   5.857   1.848   6.651 -1.4777  0.3378 -1.6405
  687TIP3   OH223619   0.961   1.099   2.995  0.7100  0.1952  0.0035
  687TIP3    H123620   0.994   1.179   3.037 -2.1776 -0.5995  4.5226
  687TIP3    H223621   1.006   1.028   3.042 -0.2636 -0.8210 -0.5735
  688TIP3   OH223622   4.866   5.983   0.514 -0.9181  0.3045  0.2542
  688TIP3    H123623   4.905   6.052   0.568  1.5495 -0.2607 -0.6669
  688TIP3    H223624   4.865   6.020   0.426 -0.5147 -0.4834 -0.0820
  689TIP3   OH223625   4.239   2.577   1.627 -0.4474 -0.2018  0.0091
  689TIP3    H123626   4.248   2.597   1.534 -1.2804  0.7258  0.1182
  689TIP3    H223627   4.150   2.605   1.649 -0.5588 -1.1980  0.8941
  690TIP3   OH223628   3.496   6.473   1.365  0.2233  0.5524 -0.0938
  690TIP3    H123629   3.460   6.391   1.398  0.3199  1.1572  1.5884
  690TIP3    H223630   3.424   6.536   1.372  1.0123  1.3319  1.5839
  691TIP3   OH223631   0.389   4.415   1.002  0.7072 -0.0814 -0.4439
  691TIP3    H123632   0.482   4.418   1.024  0.5983  0.5717 -0.0347
  691TIP3    H223633   0.374   4.325   0.974  0.9691 -0.8915  1.7590
  692TIP3   OH223634   5.493   1.092   1.425  0.0503 -0.5302  0.0507
  692TIP3    H123635   5.548   1.049   1.360 -1.0265 -1.5862 -0.2093
  692TIP3    H223636   5.534   1.072   1.509  1.1570  0.4012 -0.2420
  693TIP3   OH223637   3.147   2.454   7.787 -0.3276  0.2513  0.3532
  693TIP3    H123638   3.108   2.382   7.736 -0.1849  0.6206 -0.2871
  693TIP3    H223639   3.176   2.413   7.868 -1.2135 -0.2146  0.4526
  694TIP3   OH223640   2.523   3.476   0.835 -0.1280  0.0028  0.6467
  694TIP3    H123641   2.429   3.470   0.849 -0.0383 -0.5290  1.0605
  694TIP3    H223642   2.545   3.567   0.857 -0.6085  0.2565  0.0992
  695TIP3   OH223643   5.015   0.490   0.608  0.4633 -0.1216 -0.4413
  695TIP3    H123644   4.973   0.405   0.603 -0.0596  0.1680 -1.3564
  695TIP3    H223645   5.004   0.527   0.520  1.1690  0.6532 -0.2172
  696TIP3   OH223646   5.940   5.314   0.009 -0.1669  0.6827  0.2804
  696TIP3    H123647   5.914   5.271   0.091  1.2634 -0.7674  0.0273
  696TIP3    H223648   5.965   5.402   0.035 -0.4933  0.4921  1.2780
  697TIP3   OH223649   1.964   5.923   8.604 -0.0044 -0.0280 -0.2922
  697TIP3    H123650   2.016   5.969   8.538 -0.4221  0.7082 -0.1144
  697TIP3    H223651   2.028   5.869   8.651  0.3710 -0.1906 -0.9824
  698TIP3   OH223652   3.987   4.226   1.144  0.5228 -0.1920  0.2009
  698TIP3    H123653   4.051   4.262   1.082  0.5203 -0.3053  0.1315
  698TIP3    H223654   3.965   4.299   1.201 -0.9813  0.4714 -1.1569
  699TIP3   OH223655   0.387   5.282   7.272  0.3753 -0.3486 -0.3256
  699TIP3    H123656   0.436   5.209   7.233 -0.7657 -0.3317 -1.8864
  699TIP3    H223657   0.300   5.276   7.233 -0.2131  0.9347  0.7127
  700TIP3   OH223658   5.815   6.469   1.829 -0.1583 -0.3074 -0.1861
  700TIP3    H123659   5.798   6.561   1.810 -0.4588 -0.3751 -0.2635
  700TIP3    H223660   5.793   6.424   1.747  0.2114 -0.4227 -0.2230
  701TIP3   OH223661   5.983   2.713   6.342  0.0487  1.1117  0.0585
  701TIP3    H123662   6.040   2.637   6.345 -0.4003  0.6053 -2.1456
  701TIP3    H223663   6.032   2.782   6.388  1.0562 -0.1094  0.8801
  702TIP3   OH223664   3.526   5.842   7.308  0.0556  0.3361  0.1985
  702TIP3    H123665   3.596   5.865   7.368  0.0614 -0.3980  0.4873
  702TIP3    H223666   3.570   5.817   7.227  0.2108 -1.1161  0.7009
  703TIP3   OH223667   6.586   1.146   0.953 -0.2213 -0.3145  0.3081
  703TIP3    H123668   6.554   1.176   1.037 -0.0644 -0.6649  0.4970
  703TIP3    H223669   6.669   1.103   0.973  0.0949  0.0918 -0.0986
  704TIP3   OH223670   2.871   2.676   0.613  0.5422 -0.2405 -0.0622
  704TIP3    H123671   2.911   2.631   0.687 -0.9277  0.2895  1.0874
  704TIP3    H223672   2.825   2.607   0.565 -1.8548 -0.0779  1.7957
  705TIP3   OH223673   4.229   1.477   7.778 -0.1331  0.3363 -0.5901
  705TIP3    H123674   4.262   1.533   7.848 -1.0364  0.0770  0.0653
  705TIP3    H223675   4.212   1.393   7.820 -0.8562  0.2242 -1.0825
  706TIP3   OH223676   5.645   1.072   0.188  0.6923  0.1125  0.1471
  706TIP3    H123677   5.615   1.162   0.174 -0.2024 -0.2436 -0.2404
  706TIP3    H223678   5.643   1.060   0.283 -1.2893 -0.1989  0.0927
  707TIP3   OH223679   0.030   1.632   1.079  0.0420  0.0005 -0.2766
  707TIP3    H123680  -0.048   1.628   1.024  0.5682  0.0039 -1.0337
  707TIP3    H223681   0.078   1.709   1.048 -0.3760  0.8830  1.1743
  708TIP3   OH223682   1.072   5.586   0.017  0.4692  0.7036 -0.1456
  708TIP3    H123683   1.009   5.564  -0.051  0.3756  0.8994 -0.1221
  708TIP3    H223684   1.153   5.545  -0.012 -0.1666 -1.3872  0.8999
  709TIP3   OH223685   5.490   6.166   1.813 -0.1682 -0.6688 -0.1501
  709TIP3    H123686   5.467   6.201   1.727  2.1191  0.4574 -0.3904
  709TIP3    H223687   5.575   6.125   1.800 -0.0282 -0.9511  1.4825
  710TIP3   OH223688   6.002   3.014   8.554 -0.4234  0.3930 -0.0531
  710TIP3    H123689   6.065   3.067   8.506 -0.6991  1.9017  1.1917
  710TIP3    H223690   5.917   3.042   8.520 -0.5022 -1.3803 -1.4704
  711TIP3   OH223691   4.511   6.682   1.203 -0.2043  0.1298 -0.0313
  711TIP3    H123692   4.597   6.677   1.160 -1.0223  0.9800 -1.9052
  711TIP3    H223693   4.463   6.747   1.151 -2.7247 -1.8875 -0.4023
  712TIP3   OH223694   2.713   2.273   2.021  0.1736 -0.0408  0.2440
  712TIP3    H123695   2.643   2.245   2.080  0.2518  0.6421  0.6798
  712TIP3    H223696   2.669   2.321   1.952  0.0070 -1.4925 -0.6838
  713TIP3   OH223697   0.097   5.627   2.805  0.3195 -0.0740 -0.0698
  713TIP3    H123698   0.043   5.558   2.766 -1.4210  0.9407  0.4180
  713TIP3    H223699   0.062   5.637   2.894  1.0943  0.8592  0.1456
  714TIP3   OH223700   3.630   5.058   1.818  0.6598 -0.2094 -0.4320
  714TIP3    H123701   3.589   5.057   1.904  1.0393 -0.4101 -0.2505
  714TIP3    H223702   3.557   5.047   1.756  0.5699 -2.0931 -0.0540
  715TIP3   OH223703   4.169   0.028   7.556  0.0418  0.2331 -0.1445
  715TIP3    H123704   4.201   0.117   7.541  0.6793  0.3438  1.5494
  715TIP3    H223705   4.158  -0.010   7.469 -0.5316  2.0639 -0.9061
  716TIP3   OH223706   6.812   1.866   6.684  0.3979 -0.2036  0.7671
  716TIP3    H123707   6.848   1.926   6.749 -0.0401 -0.8931  1.6805
  716TIP3    H223708   6.745   1.917   6.638  1.2568  0.5267  0.3124
  717TIP3   OH223709   4.691   6.178   8.666 -0.0470 -0.1724 -1.1058
  717TIP3    H123710   4.696   6.083   8.659 -0.7861 -0.2989 -0.1856
  717TIP3    H223711   4.674   6.194   8.759  2.4538  0.9673 -0.7652
  718TIP3   OH223712   1.979   6.583   7.257  0.6118 -0.5723  0.0373
  718TIP3    H123713   1.886   6.585   7.282  0.1921 -0.5260 -1.4574
  718TIP3    H223714   2.000   6.490   7.251  0.6582 -0.5824  0.3201
  719TIP3   OH223715   2.213   2.347   0.544  0.3436 -0.1419 -0.1120
  719TIP3    H123716   2.226   2.259   0.508 -1.2575 -0.6959  0.5704
  719TIP3    H223717   2.130   2.377   0.505  0.4788  0.7467  0.2628
  720TIP3   OH223718   3.873   5.569   1.719 -0.1247 -0.2979  0.2135
  720TIP3    H123719   3.909   5.595   1.804 -0.1507  1.0831 -0.1711
  720TIP3    H223720   3.901   5.478   1.708  0.7237 -0.1856  1.2533
  721TIP3   OH223721   3.474   4.104   0.019  0.7658 -0.2964  0.7446
  721TIP3    H123722   3.378   4.109   0.018  0.6882 -1.4774  0.2517
  721TIP3    H223723   3.498   4.098  -0.073  1.3358  0.2498  0.8547
  722TIP3   OH223724   0.657   2.487   2.485 -0.3112 -0.2474  0.0632
  722TIP3    H123725   0.563   2.503   2.494 -0.3385 -1.0039  1.3472
  722TIP3    H223726   0.688   2.473   2.574  1.1140  0.3844 -0.3026
  723TIP3   OH223727   6.356   5.781   7.629  0.0155 -1.1001 -0.1191
  723TIP3    H123728   6.431   5.738   7.670 -0.2718 -1.7614 -0.2773
  723TIP3    H223729   6.315   5.713   7.576 -1.3335 -1.0615  0.8323
  724TIP3   OH223730   2.969   4.830   0.617 -0.4371  0.3965  0.0673
  724TIP3    H123731   3.023   4.857   0.691  1.3177 -0.1889 -0.9201
  724TIP3    H223732   2.916   4.907   0.596 -0.9382  0.5692  1.8779
  725TIP3   OH223733   5.075   5.363   0.985 -0.2083 -0.3547  0.2497
  725TIP3    H123734   5.135   5.343   0.913 -0.3158  0.1139  0.0229
  725TIP3    H223735   5.089   5.456   1.002  0.7815 -0.7448  1.7423
  726TIP3   OH223736   1.970   0.330   0.958 -0.0097  0.8043 -0.0796
  726TIP3    H123737   1.904   0.309   0.892 -0.9735  2.7788  0.1658
  726TIP3    H223738   1.919   0.358   1.034  1.0941  2.3869  0.1178
  727TIP3   OH223739   4.087   4.907   1.027 -0.0955  0.5030 -0.3980
  727TIP3    H123740   4.115   4.943   1.112  1.1947 -0.2732 -0.4616
  727TIP3    H223741   4.040   4.979   0.984  2.0248  1.9955 -0.3536
  728TIP3   OH223742   0.287   2.776   0.917 -0.5877 -0.5783  0.7478
  728TIP3    H123743   0.317   2.710   0.854 -0.1055 -0.3765  0.7664
  728TIP3    H223744   0.345   2.767   0.991  0.7770  1.1934 -0.0295
  729TIP3   OH223745   3.462   4.180   2.576 -0.3249 -0.1013 -0.3081
  729TIP3    H123746   3.375   4.171   2.616 -0.6024  3.1013  0.0607
  729TIP3    H223747   3.512   4.108   2.613 -1.6919  0.3674  2.8052
  730TIP3   OH223748   0.212   0.533   0.413 -0.6126 -0.0295  0.1767
  730TIP3    H123749   0.150   0.557   0.345  1.4516  0.3220 -1.7134
  730TIP3    H223750   0.235   0.615   0.455 -1.0514 -0.0919  0.5399
  731TIP3   OH223751   6.361   0.169   2.655  0.1458 -0.2019  0.2132
  731TIP3    H123752   6.454   0.158   2.639  0.1467  1.6352 -1.3530
  731TIP3    H223753   6.320   0.161   2.569 -0.6588  3.0510  0.1927
  732TIP3   OH223754   5.737   3.093   8.511  0.0635  0.0910  0.0392
  732TIP3    H123755   5.754   3.182   8.543  1.3158  0.6955 -2.1272
  732TIP3    H223756   5.662   3.102   8.452 -0.4144 -0.4907  0.5413
  733TIP3   OH223757   1.549   2.358   0.420  0.2620 -0.2072  0.0500
  733TIP3    H123758   1.628   2.314   0.391  0.4115  0.0980 -0.0131
  733TIP3    H223759   1.479   2.293   0.409  0.5131 -0.4946  0.1637
  734TIP3   OH223760   3.625   3.230   2.973 -0.7274 -0.5328  0.0367
  734TIP3    H123761   3.548   3.237   3.028 -0.0620  0.3154  0.8981
  734TIP3    H223762   3.619   3.304   2.912 -0.4445 -0.2738  0.3177
  735TIP3   OH223763   1.076   4.580   2.031  0.1678 -0.0773 -0.2987
  735TIP3    H123764   0.988   4.596   1.997 -0.9461  0.0147  2.3770
  735TIP3    H223765   1.069   4.598   2.125  2.9396 -0.5427  0.0789
  736TIP3   OH223766   1.041   3.403   0.280  0.0320 -0.0025 -0.2077
  736TIP3    H123767   1.098   3.343   0.327  0.0955  0.1724 -0.0582
  736TIP3    H223768   1.027   3.476   0.342  1.1553  0.8536 -0.9245
  737TIP3   OH223769   0.333   3.390   1.340 -0.1681 -0.3305  0.3630
  737TIP3    H123770   0.322   3.301   1.374  0.0886 -0.3573  0.3771
  737TIP3    H223771   0.370   3.439   1.414  2.0383 -0.7875 -0.3611
  738TIP3   OH223772   2.139   6.021   1.408  0.3210 -0.3504  0.0996
  738TIP3    H123773   2.046   6.005   1.425  0.1429  1.8691  1.5820
  738TIP3    H223774   2.180   6.015   1.494  0.9484  1.9596  0.0281
  739TIP3   OH223775   5.741   0.707   7.886 -0.2967 -0.0060  0.0041
  739TIP3    H123776   5.742   0.654   7.806 -1.7581 -0.5182  0.3078
  739TIP3    H223777   5.699   0.651   7.951 -0.7595  1.0802  0.6569
  740TIP3   OH223778   0.780   2.043   2.710  0.1041  0.2824 -0.3264
  740TIP3    H123779   0.748   2.120   2.662 -1.5946 -0.6399 -0.7229
  740TIP3    H223780   0.758   1.969   2.654 -1.0244 -0.7463  1.3903
  741TIP3   OH223781   0.620   5.990   1.254 -0.0889  0.3919  0.1110
  741TIP3    H123782   0.629   6.057   1.186 -2.2303  1.5185  0.8234
  741TIP3    H223783   0.557   5.928   1.219  0.3136 -0.1238  0.2886
  742TIP3   OH223784   3.423   1.438   0.516  0.5126  0.2111 -0.6201
  742TIP3    H123785   3.370   1.518   0.509  0.9726  0.5102 -0.7387
  742TIP3    H223786   3.472   1.449   0.597 -0.5769 -0.6668  0.1793
  743TIP3   OH223787   3.068   0.541   1.221 -0.2231  0.1261  0.1599
  743TIP3    H123788   3.078   0.451   1.252 -0.1191  1.5995  5.3701
  743TIP3    H223789   2.981   0.567   1.251 -0.7599  1.5246 -2.3140
  744TIP3   OH223790   4.387   4.779   8.020 -0.1829 -0.4194  0.4109
  744TIP3    H123791   4.426   4.730   8.092 -1.3431  0.3208  1.5833
  744TIP3    H223792   4.362   4.712   7.956  1.4162 -1.0359  0.3872
  745TIP3   OH223793   5.422   1.975   7.355 -0.1861  0.0843 -0.3510
  745TIP3    H123794   5.494   1.914   7.371 -0.5056  0.0580  1.1783
  745TIP3    H223795   5.349   1.920   7.325 -0.5788 -0.3853  1.3495
  746TIP3   OH223796   4.788   5.728   0.618  0.3389  0.1476 -0.2234
  746TIP3    H123797   4.796   5.813   0.576 -0.1682 -0.6028 -1.9168
  746TIP3    H223798   4.877   5.707   0.647  0.6270  0.8564 -0.5804
  747TIP3   OH223799   0.873   6.509   7.126 -0.2299  0.5791 -0.4444
  747TIP3    H123800   0.789   6.475   7.158 -0.4520  1.2985 -0.2403
  747TIP3    H223801   0.892   6.457   7.048 -0.3058 -0.3500  0.1402
  748TIP3   OH223802   4.712   6.715   7.045 -0.4345 -0.0642 -0.1524
  748TIP3    H123803   4.778   6.783   7.056  1.0068 -1.4793  0.3956
  748TIP3    H223804   4.651   6.751   6.981  2.0009  0.5399 -2.3133
  749TIP3   OH223805   2.097   4.512   2.243 -0.4156  0.0214 -0.7492
  749TIP3    H123806   2.171   4.469   2.200  0.2269 -0.6126  0.9294
  749TIP3    H223807   2.029   4.516   2.175 -0.0720 -2.5234 -1.3413
  750TIP3   OH223808   6.166   3.345   2.141  0.9163 -0.1233 -0.1896
  750TIP3    H123809   6.238   3.289   2.171  1.2139  0.9611  1.2179
  750TIP3    H223810   6.091   3.319   2.194  1.1550  1.0450  0.7502
  751TIP3   OH223811   3.599   5.092   1.390 -1.0407  0.2545  0.2015
  751TIP3    H123812   3.600   5.096   1.295 -1.8629 -2.1120  0.0416
  751TIP3    H223813   3.567   5.004   1.411  0.1757  0.2967  2.6563
  752TIP3   OH223814   6.385   3.562   7.541  0.7523 -0.0949  0.3084
  752TIP3    H123815   6.383   3.569   7.445  1.6885 -0.4937  0.2505
  752TIP3    H223816   6.453   3.498   7.559 -1.6434 -2.5658  1.1581
  753TIP3   OH223817   6.833   6.122   1.883 -0.0310  0.2687  0.4224
  753TIP3    H123818   6.883   6.048   1.848 -0.7706 -0.0683  0.0644
  753TIP3    H223819   6.888   6.198   1.866  2.0972 -0.4408  3.2995
  754TIP3   OH223820   3.754   5.184   0.647  0.7362 -0.1256 -0.2903
  754TIP3    H123821   3.674   5.203   0.598 -0.6297 -1.2105  1.3676
  754TIP3    H223822   3.794   5.269   0.663 -0.5563  0.5347 -0.4349
  755TIP3   OH223823   5.667   0.018   2.755  0.3299  0.3602 -1.0628
  755TIP3    H123824   5.585  -0.032   2.755  0.1632  0.6359 -1.7606
  755TIP3    H223825   5.695   0.015   2.847 -1.5197  2.0150 -0.3637
  756TIP3   OH223826   0.310   5.564   2.576  0.6665 -0.2943  0.1249
  756TIP3    H123827   0.367   5.641   2.568 -0.6516  1.0675  2.5115
  756TIP3    H223828   0.347   5.514   2.648 -0.1827 -0.2508  0.6140
  757TIP3   OH223829   2.681   3.538   8.114 -0.0793  0.4969 -0.2511
  757TIP3    H123830   2.745   3.578   8.172 -1.6172 -0.6731  2.4178
  757TIP3    H223831   2.733   3.481   8.057  1.4538  1.4047  0.1724
  758TIP3   OH223832   2.610   6.724   7.547 -0.2547  0.6327  0.1259
  758TIP3    H123833   2.586   6.634   7.569 -0.4441  1.0867  1.9945
  758TIP3    H223834   2.528   6.773   7.551 -0.3086  0.7645 -1.8103
  759TIP3   OH223835   0.004   1.380   0.848 -0.6859 -0.9192 -0.2653
  759TIP3    H123836  -0.070   1.390   0.907 -0.5379  0.9362 -0.3371
  759TIP3    H223837  -0.023   1.312   0.786 -1.7622 -1.2316  0.5250
  760TIP3   OH223838   0.734   4.631   2.273  0.3134 -0.0607 -0.1729
  760TIP3    H123839   0.720   4.618   2.179 -0.9700  0.5514 -0.1003
  760TIP3    H223840   0.793   4.561   2.299 -0.5361 -1.1895 -1.1578
  761TIP3   OH223841   2.500   1.032   2.475  0.6318 -0.3410 -0.3812
  761TIP3    H123842   2.441   0.971   2.430  1.6719 -0.8405 -1.1198
  761TIP3    H223843   2.450   1.062   2.551 -0.2831 -1.3434 -0.5535
  762TIP3   OH223844   1.267   3.880   1.453  0.1791  0.0648  0.0101
  762TIP3    H123845   1.206   3.850   1.520 -0.4627 -0.1338 -0.6493
  762TIP3    H223846   1.212   3.918   1.385  0.7256 -0.6506 -0.8665
  763TIP3   OH223847   1.771   4.076   1.810 -0.0835  0.1868 -0.2952
  763TIP3    H123848   1.828   4.010   1.848  0.5969  0.4033 -0.9238
  763TIP3    H223849   1.687   4.032   1.799 -0.5851  0.3550  2.2427
  764TIP3   OH223850   1.781   6.335   0.950 -0.0446 -0.7004 -0.4328
  764TIP3    H123851   1.861   6.305   0.993  0.9361 -1.4197 -2.6010
  764TIP3    H223852   1.754   6.261   0.895 -0.4021  0.5967 -2.1047
  765TIP3   OH223853   6.231   2.105   0.156 -0.0871 -0.2156  0.3149
  765TIP3    H123854   6.249   2.193   0.188 -0.6030 -0.4667  1.3227
  765TIP3    H223855   6.311   2.081   0.108  1.0772 -0.1234  2.0999
  766TIP3   OH223856   5.781   6.259   7.937  0.3874 -0.4391  0.0806
  766TIP3    H123857   5.854   6.240   7.996  0.8027 -2.3802 -0.9774
  766TIP3    H223858   5.706   6.217   7.978  0.6205 -1.5492 -0.6017
  767TIP3   OH223859   1.116   0.926   0.301 -0.1018  0.3909  0.2479
  767TIP3    H123860   1.081   0.889   0.382  0.2594 -0.5966 -0.0350
  767TIP3    H223861   1.046   0.912   0.236  0.5085 -0.9464 -0.1507
  768TIP3   OH223862   2.677   0.171   1.274  0.0147  0.3822  0.1049
  768TIP3    H123863   2.671   0.244   1.212  0.3442 -1.5370 -2.3517
  768TIP3    H223864   2.765   0.178   1.310  0.4196  0.6155 -0.8921
  769TIP3   OH223865   4.849   2.384   0.967  0.2948  0.6359 -0.4605
  769TIP3    H123866   4.929   2.433   0.946  0.8845 -0.4021 -0.7064
  769TIP3    H223867   4.879   2.311   1.020 -0.8061  1.5068  1.4525
  770TIP3   OH223868   3.987   6.274   1.968 -0.0648 -0.1695  0.1364
  770TIP3    H123869   4.035   6.312   1.894 -0.2822 -2.4517 -1.2980
  770TIP3    H223870   3.976   6.346   2.029  0.7863  1.6601 -1.7295
  771TIP3   OH223871   5.819   2.937   8.216  0.4350 -0.2398 -0.3816
  771TIP3    H123872   5.787   2.880   8.286 -2.3951 -0.2063 -1.5283
  771TIP3    H223873   5.826   2.880   8.139 -1.0496  0.6273 -1.1908
  772TIP3   OH223874   3.881   5.651   1.210 -0.4180  0.1023 -0.2208
  772TIP3    H123875   3.914   5.740   1.226  0.1915 -0.0838 -0.4200
  772TIP3    H223876   3.889   5.607   1.295  0.0713 -0.0056 -0.3143
  773TIP3   OH223877   2.234   1.446   1.665  0.3794  0.2655 -0.8746
  773TIP3    H123878   2.312   1.499   1.680 -1.4808  3.2834 -0.9035
  773TIP3    H223879   2.185   1.494   1.598 -2.8146  0.1127  1.1244
  774TIP3   OH223880   1.455   6.726   8.358 -0.4732 -0.0230  0.3785
  774TIP3    H123881   1.438   6.816   8.330 -0.3593 -0.5204 -1.3864
  774TIP3    H223882   1.550   6.722   8.369 -0.3775 -0.1659 -0.4552
  775TIP3   OH223883   3.568   4.560   2.727  0.3041 -0.0642  0.4692
  775TIP3    H123884   3.627   4.633   2.747  0.6853  0.2389 -1.5391
  775TIP3    H223885   3.484   4.586   2.763  0.6716  0.9199  0.6375
  776TIP3   OH223886   4.446   3.328   7.752  0.1302  0.9849 -0.7355
  776TIP3    H123887   4.363   3.318   7.706  0.7912 -0.9396 -1.6157
  776TIP3    H223888   4.511   3.291   7.693  1.3602  0.6803  0.7416
  777TIP3   OH223889   1.724   6.035   7.490 -0.4334  0.7864  0.8159
  777TIP3    H123890   1.664   6.100   7.454 -1.0513  0.4816  1.2819
  777TIP3    H223891   1.686   5.951   7.467  0.8922  0.5489 -0.6684
  778TIP3   OH223892   2.995   3.892   7.042  0.7118 -0.2124 -0.0780
  778TIP3    H123893   3.035   3.812   7.008 -1.3847 -1.2706 -0.1903
  778TIP3    H223894   2.972   3.870   7.132 -1.2170 -0.3099 -0.5503
  779TIP3   OH223895   1.964   1.891   1.892  0.9391 -0.0575 -0.4384
  779TIP3    H123896   1.988   1.966   1.838  1.7691 -1.4143 -2.0566
  779TIP3    H223897   2.043   1.837   1.896  0.0496 -1.4255 -0.3181
  780TIP3   OH223898   1.516   1.818   8.214  0.1978  0.2733 -0.5204
  780TIP3    H123899   1.558   1.867   8.143  0.0234  0.4371 -0.5128
  780TIP3    H223900   1.429   1.858   8.223  0.8219  1.4187  0.9309
  781TIP3   OH223901   5.325   5.450   0.327 -0.6312  0.0585 -0.2628
  781TIP3    H123902   5.278   5.485   0.251  0.0193  1.9530  0.1579
  781TIP3    H223903   5.398   5.511   0.340  2.2279 -2.9494 -1.0925
  782TIP3   OH223904   2.955   5.752   7.163  0.1835 -0.1439 -0.4544
  782TIP3    H123905   2.919   5.840   7.151 -0.6594 -0.3840  0.2492
  782TIP3    H223906   2.886   5.694   7.130  0.0709 -0.5927  0.5471
  783TIP3   OH223907   1.681   4.955   8.011  0.2071 -0.6431  0.6994
  783TIP3    H123908   1.773   4.935   7.991 -0.0824  0.0036 -1.6672
  783TIP3    H223909   1.642   4.973   7.925 -1.7313  0.8222  1.8065
  784TIP3   OH223910   0.169   4.760   7.699 -0.2703  0.5516 -0.3993
  784TIP3    H123911   0.261   4.737   7.713 -0.7886 -0.9424  0.8370
  784TIP3    H223912   0.154   4.834   7.758 -0.3185 -0.4294  0.8558
  785TIP3   OH223913   2.204   5.697   2.495  0.0600 -0.3023  0.1117
  785TIP3    H123914   2.151   5.754   2.441  0.5267  0.6659  0.6514
  785TIP3    H223915   2.146   5.669   2.565 -0.1033 -0.3084 -0.0261
  786TIP3   OH223916   0.945   5.675   0.275 -0.1183 -0.4689 -0.0690
  786TIP3    H123917   1.024   5.729   0.282 -0.3950  0.1009 -1.1289
  786TIP3    H223918   0.949   5.636   0.188 -0.5767 -1.1368  0.1943
  787TIP3   OH223919   0.111   2.366   1.418  0.2729  0.7268  0.3377
  787TIP3    H123920   0.098   2.395   1.328  0.4354  0.6849  0.3008
  787TIP3    H223921   0.205   2.350   1.425  0.5580  2.5294  1.0504
  788TIP3   OH223922   1.556   3.250   1.086  0.0200 -0.2505 -0.1288
  788TIP3    H123923   1.557   3.339   1.120 -0.7196  0.6784 -2.3451
  788TIP3    H223924   1.595   3.258   0.998  0.2961 -2.1883 -0.2197
  789TIP3   OH223925   4.556   6.647   8.062  0.3384  0.9189 -0.3763
  789TIP3    H123926   4.549   6.722   8.122  1.3495 -1.2137  2.6149
  789TIP3    H223927   4.477   6.596   8.078  1.3501 -0.4785  0.4151
  790TIP3   OH223928   3.054   0.043   1.645 -0.0906 -0.2079  0.1172
  790TIP3    H123929   3.106   0.123   1.637 -0.7407  0.0733 -1.5670
  790TIP3    H223930   2.990   0.063   1.713  0.4184  0.3141  0.4539
  791TIP3   OH223931   5.465   1.795   2.056  0.2278 -0.2378  0.1633
  791TIP3    H123932   5.414   1.720   2.026  0.3699  0.4743 -2.0565
  791TIP3    H223933   5.409   1.839   2.120 -0.9123 -0.8285 -0.4083
  792TIP3   OH223934   6.615   0.861   7.618 -0.0870  0.5574  0.0030
  792TIP3    H123935   6.639   0.816   7.699  0.7254  0.4676 -0.2770
  792TIP3    H223936   6.521   0.877   7.626 -0.2441 -0.5206  0.4297
  793TIP3   OH223937   0.151   3.683   1.622  0.1117 -0.5048 -0.2258
  793TIP3    H123938   0.137   3.776   1.602  0.6883 -0.1282  0.9858
  793TIP3    H223939   0.235   3.662   1.581  0.0459 -0.4446 -0.3901
  794TIP3   OH223940   3.135   4.138   8.399 -0.8490  0.2973  0.0917
  794TIP3    H123941   3.171   4.107   8.316  0.1205  1.6408 -0.0229
  794TIP3    H223942   3.063   4.195   8.374 -1.7506 -0.7196  0.2625
  795TIP3   OH223943   0.833   1.774   7.585 -0.4687 -0.5621  0.0168
  795TIP3    H123944   0.855   1.692   7.629  1.3446 -1.2526 -2.0019
  795TIP3    H223945   0.805   1.748   7.497 -0.5821  0.9321 -0.4206
  796TIP3   OH223946   6.186   0.395   7.991 -0.5009  0.1697 -0.1813
  796TIP3    H123947   6.278   0.419   7.993 -0.5562  0.3788 -0.0858
  796TIP3    H223948   6.139   0.477   8.006 -0.7321  0.2592 -1.3309
  797TIP3   OH223949   1.906   3.827   1.870  0.3388  0.4673 -0.5889
  797TIP3    H123950   1.889   3.822   1.776  1.4456 -0.6189 -0.7570
  797TIP3    H223951   2.001   3.821   1.878  0.2137 -0.2090  0.6303
  798TIP3   OH223952   6.249   6.165   8.395  0.7771 -0.3851 -0.0028
  798TIP3    H123953   6.211   6.110   8.463  1.1666 -0.3792  0.2223
  798TIP3    H223954   6.222   6.254   8.417 -0.0630 -0.5012 -0.5050
  799TIP3   OH223955   1.660   5.146   3.257  1.2862 -0.2985 -0.3818
  799TIP3    H123956   1.615   5.119   3.177  0.4700 -0.5052  0.1346
  799TIP3    H223957   1.742   5.097   3.256  0.3265 -1.9984 -0.0172
  800TIP3   OH223958   3.097   5.232   1.150 -0.0035 -0.6061 -0.6000
  800TIP3    H123959   3.179   5.184   1.144  0.5805  0.0065  1.6623
  800TIP3    H223960   3.065   5.214   1.238 -0.4991  1.9481 -0.1788
  801TIP3   OH223961   2.160   4.824   2.105 -0.0171 -0.0904 -0.3817
  801TIP3    H123962   2.222   4.857   2.170 -1.1604  1.1872  0.1238
  801TIP3    H223963   2.150   4.732   2.126  3.1760 -0.8699 -1.7446
  802TIP3   OH223964   6.078   1.543   8.366 -0.2395 -0.2424 -0.1437
  802TIP3    H123965   6.024   1.467   8.342  0.7266 -0.7982 -0.5883
  802TIP3    H223966   6.154   1.538   8.308  0.0152  0.8625  0.0796
  803TIP3   OH223967   4.615   3.764   7.484  0.4425  0.5251  0.5610
  803TIP3    H123968   4.710   3.766   7.479  0.3900  1.0824 -0.8525
  803TIP3    H223969   4.595   3.765   7.577  1.8303 -2.1206  0.9596
  804TIP3   OH223970   3.917   4.709   0.338  0.1606 -0.7975 -0.1474
  804TIP3    H123971   3.900   4.718   0.431 -1.5498  2.4046 -0.6277
  804TIP3    H223972   4.010   4.689   0.331  1.0272  1.8785  2.1977
  805TIP3   OH223973   5.864   4.358   0.539  0.2185  0.0612 -0.1988
  805TIP3    H123974   5.840   4.318   0.623 -1.0028  0.2432 -0.4437
  805TIP3    H223975   5.792   4.419   0.521  0.5527  0.1335 -1.3087
  806TIP3   OH223976   5.958   0.287   7.687  0.0840  0.1259 -0.5970
  806TIP3    H123977   5.958   0.375   7.722  1.4492 -0.1145  0.0811
  806TIP3    H223978   5.878   0.247   7.720 -0.6497  1.1560 -1.0801
  807TIP3   OH223979   6.823   2.409   2.211  0.6243  0.5243 -0.2301
  807TIP3    H123980   6.770   2.485   2.232  1.2570  1.2448 -1.1464
  807TIP3    H223981   6.909   2.444   2.190  0.2204 -0.0642 -3.4858
  808TIP3   OH223982   2.726   5.627   7.061 -0.1785 -0.3121 -0.1095
  808TIP3    H123983   2.686   5.712   7.042  0.7024  0.9239  2.8707
  808TIP3    H223984   2.657   5.563   7.043 -0.6380  0.8806 -3.1430
  809TIP3   OH223985   1.974   2.810   2.339 -0.1347 -0.5045 -0.0551
  809TIP3    H123986   1.928   2.892   2.358  0.7024 -0.1956  0.7433
  809TIP3    H223987   2.044   2.836   2.279 -0.8339 -0.9321 -1.0824
  810TIP3   OH223988   0.600   5.453   8.579  0.0510  0.1497 -0.2671
  810TIP3    H123989   0.636   5.365   8.591 -1.1967 -0.3439  0.1403
  810TIP3    H223990   0.581   5.483   8.668 -0.4054  0.4330 -0.4537
  811TIP3   OH223991   3.190   6.429   1.248 -0.1301  0.4110 -0.8363
  811TIP3    H123992   3.249   6.398   1.180 -0.8790  1.4540 -1.9879
  811TIP3    H223993   3.135   6.353   1.269  0.6240 -0.1373 -0.8104
  812TIP3   OH223994   3.951   6.755   1.867  0.4162  0.2843 -0.5546
  812TIP3    H123995   3.913   6.669   1.847  2.5974 -0.3298 -2.4057
  812TIP3    H223996   3.994   6.782   1.787  0.0511  3.0490  0.0596
  813TIP3   OH223997   2.377   6.727   0.821 -0.3107 -0.1896 -0.2096
  813TIP3    H123998   2.416   6.654   0.773  0.1031  1.1356 -1.9883
  813TIP3    H223999   2.390   6.704   0.913  1.6306 -1.4104 -0.7185
  814TIP3   OH224000   2.654   3.282   0.025 -0.0829  0.0158 -0.0777
  814TIP3    H124001   2.677   3.190   0.011 -0.5594 -0.0767 -0.2953
  814TIP3    H224002   2.670   3.324  -0.059  0.8220  0.2860  0.2251
  815TIP3   OH224003   0.708   6.757   6.869  0.0077 -0.6909 -0.1408
  815TIP3    H124004   0.644   6.730   6.936 -0.6621  0.8839 -0.0908
  815TIP3    H224005   0.659   6.751   6.786  0.3645 -1.1758 -0.3211
  816TIP3   OH224006   2.770   5.012   0.790 -0.6062  0.7409 -0.2863
  816TIP3    H124007   2.849   5.059   0.762 -1.0948  1.9331  0.2735
  816TIP3    H224008   2.735   5.064   0.863 -1.9847  0.3051 -0.6019
  817TIP3   OH224009   3.694   5.635   1.934  0.3051  0.0941  0.0222
  817TIP3    H124010   3.738   5.568   1.882 -0.9073 -0.2787 -0.5523
  817TIP3    H224011   3.624   5.588   1.980  0.3663  0.7081  0.7578
  818TIP3   OH224012   4.767   2.147   2.451  0.5765  0.0723  0.1970
  818TIP3    H124013   4.759   2.123   2.544 -0.3637  2.3727  0.7786
  818TIP3    H224014   4.842   2.206   2.448 -1.0814  2.3106  0.0865
  819TIP3   OH224015   3.301   3.214   1.877 -0.1782 -0.4630 -0.4156
  819TIP3    H124016   3.279   3.172   1.961  0.2633 -0.0397 -0.0841
  819TIP3    H224017   3.217   3.250   1.847 -0.1613  0.2621  0.3492
  820TIP3   OH224018   4.998   1.477   2.434 -0.3723  0.1020  0.5982
  820TIP3    H124019   4.994   1.381   2.432 -0.7873  0.1037  1.1514
  820TIP3    H224020   4.959   1.501   2.518 -0.6534  0.7766  0.2805
  821TIP3   OH224021   4.429   1.810   2.298  0.0452 -0.9838  0.3747
  821TIP3    H124022   4.364   1.805   2.228  0.9103 -1.0437 -0.4367
  821TIP3    H224023   4.383   1.777   2.376 -0.9733 -0.7499 -0.1230
  822TIP3   OH224024   4.341   6.420   0.278 -0.0018  0.6078 -0.8701
  822TIP3    H124025   4.312   6.505   0.244  0.8949  0.7381 -1.3531
  822TIP3    H224026   4.361   6.369   0.199  0.6189  0.3711 -0.5617
  823TIP3   OH224027   3.255   0.593   7.845  0.2385 -0.0868 -0.3661
  823TIP3    H124028   3.209   0.525   7.797  0.3132  0.5444 -1.3557
  823TIP3    H224029   3.339   0.554   7.868  0.7390  0.0269 -1.9179
  824TIP3   OH224030   1.497   5.872   1.076 -0.2209 -0.5119  0.2403
  824TIP3    H124031   1.495   5.927   0.998  2.4290 -1.1941 -0.3888
  824TIP3    H224032   1.526   5.786   1.045  1.7322 -0.5905  2.0325
  825TIP3   OH224033   0.578   3.835   8.213  0.7915 -0.3651 -0.6377
  825TIP3    H124034   0.490   3.806   8.237  0.1503  2.0655  0.2549
  825TIP3    H224035   0.586   3.813   8.120 -0.8043 -0.5138 -0.7646
  826TIP3   OH224036   3.053   5.607   8.455 -0.3304 -1.1173 -0.2128
  826TIP3    H124037   3.136   5.653   8.444 -1.9132  1.6999 -1.2777
  826TIP3    H224038   3.013   5.649   8.531 -0.9375 -2.2526  0.1150
  827TIP3   OH224039   5.353   4.804   8.390 -0.6367 -0.1407  0.2578
  827TIP3    H124040   5.360   4.847   8.475  0.6127 -0.6710  0.4501
  827TIP3    H224041   5.285   4.853   8.343 -2.0416 -0.4335  1.8916
  828TIP3   OH224042   3.195   2.866   0.152 -0.0004 -0.0637  0.3961
  828TIP3    H124043   3.274   2.858   0.205  1.1159  0.8144 -1.0728
  828TIP3    H224044   3.154   2.947   0.184  1.0829  0.8923 -0.5636
  829TIP3   OH224045   0.923   2.905   1.723  0.5404  0.1932 -0.2470
  829TIP3    H124046   0.842   2.937   1.761 -0.1417 -0.0505 -1.4249
  829TIP3    H224047   0.948   2.830   1.777 -0.4310 -0.1857 -0.3040
  830TIP3   OH224048   3.584   2.419   7.639 -0.0385 -0.6071  0.1911
  830TIP3    H124049   3.505   2.464   7.608  0.1046 -0.4334  0.0809
  830TIP3    H224050   3.551   2.340   7.682 -0.2117 -1.3969 -1.2956
  831TIP3   OH224051   2.236   4.270   2.437  0.3395  0.0330 -0.2391
  831TIP3    H124052   2.294   4.345   2.448 -0.8426  0.9135  0.1178
  831TIP3    H224053   2.162   4.287   2.495 -1.4444  0.1409 -2.3930
  832TIP3   OH224054   4.260   2.537   0.825 -0.1000 -0.6012  0.1481
  832TIP3    H124055   4.317   2.546   0.748 -0.2858  0.4743  0.1199
  832TIP3    H224056   4.319   2.514   0.896  0.2620 -0.2730 -0.0419
  833TIP3   OH224057   6.157   5.090   2.481  0.3924  0.0188  0.2238
  833TIP3    H124058   6.062   5.090   2.494  0.3625  0.6164  0.0474
  833TIP3    H224059   6.168   5.097   2.386  0.6210 -2.0982  0.0380
  834TIP3   OH224060   6.081   6.200   1.839 -0.4741  0.3373  0.3883
  834TIP3    H124061   6.161   6.221   1.888 -0.4264 -0.5092  0.6955
  834TIP3    H224062   6.022   6.164   1.905 -0.4720 -0.6596 -0.1402
  835TIP3   OH224063   4.307   5.956   7.284 -0.2049  0.1704  0.0011
  835TIP3    H124064   4.340   5.868   7.268  1.1535  0.9306 -1.6755
  835TIP3    H224065   4.242   5.971   7.215  0.1946  0.7751 -0.2540
  836TIP3   OH224066   1.595   5.806   1.745 -0.1861 -0.2578  0.5700
  836TIP3    H124067   1.556   5.877   1.695 -2.8141 -1.7131  0.3502
  836TIP3    H224068   1.562   5.818   1.834  0.9581 -0.1209  0.9939
  837TIP3   OH224069   0.276   3.423   7.434  0.2111  0.2598  0.0029
  837TIP3    H124070   0.300   3.464   7.352 -1.2137 -1.1217 -1.1810
  837TIP3    H224071   0.288   3.491   7.500 -1.6393  2.4611 -1.7692
  838TIP3   OH224072   1.874   0.043   2.206  0.2193 -0.2203 -0.5382
  838TIP3    H124073   1.949   0.022   2.262  1.8928 -0.7903 -2.8722
  838TIP3    H224074   1.853   0.134   2.227  1.9346  0.1324 -0.2217
  839TIP3   OH224075   0.771   6.328   2.263  0.2591  0.5280 -0.1999
  839TIP3    H124076   0.855   6.370   2.282  0.6514  0.0423 -0.8111
  839TIP3    H224077   0.742   6.294   2.347  1.6957 -1.1289 -0.3135
  840TIP3   OH224078   3.799   4.534   0.859  0.5009 -0.5685 -0.2038
  840TIP3    H124079   3.797   4.455   0.914 -0.2815  0.0608  0.7006
  840TIP3    H224080   3.722   4.584   0.886  0.8229  0.3754 -0.9738
  841TIP3   OH224081   4.901   2.523   1.278  0.1459  0.0068 -0.3083
  841TIP3    H124082   4.945   2.602   1.247 -0.5376  0.8281  0.7513
  841TIP3    H224083   4.971   2.457   1.282  0.6209  0.3941 -1.6784
  842TIP3   OH224084   4.831   4.164   1.433 -0.4108  0.0898 -0.2339
  842TIP3    H124085   4.886   4.228   1.387 -0.8236  0.1880 -0.5951
  842TIP3    H224086   4.763   4.141   1.370  0.2984 -1.4678 -0.4795
  843TIP3   OH224087   2.668   6.210   7.523 -0.2314  0.1879  0.6291
  843TIP3    H124088   2.720   6.216   7.443  1.5074  0.7818  1.7311
  843TIP3    H224089   2.648   6.117   7.532  0.3397 -0.0104 -0.0340
  844TIP3   OH224090   6.705   2.877   2.165 -0.6029 -0.1936 -0.1832
  844TIP3    H124091   6.690   2.886   2.259  0.0255 -1.2397  0.0311
  844TIP3    H224092   6.624   2.908   2.125 -1.1773 -0.4719  0.7252
  845TIP3   OH224093   0.349   5.296   1.061  0.2813 -0.6156  0.3994
  845TIP3    H124094   0.383   5.210   1.086  0.3626 -0.7279 -0.0974
  845TIP3    H224095   0.395   5.357   1.118  1.2004 -0.7793 -0.1610
  846TIP3   OH224096   0.348   1.845   8.370  0.2970  0.3301 -0.3476
  846TIP3    H124097   0.264   1.806   8.392  0.1717  0.5268 -0.4636
  846TIP3    H224098   0.383   1.790   8.300  0.6216 -0.1998  0.2175
  847TIP3   OH224099   1.094   4.110   7.144  0.0280 -0.2889 -0.0268
  847TIP3    H124100   1.148   4.111   7.065 -0.9168 -0.8007 -0.6964
  847TIP3    H224101   1.157   4.102   7.216  0.8132 -2.0190 -0.8491
  848TIP3   OH224102   3.562   2.133   1.644 -0.3767  0.3032  0.0376
  848TIP3    H124103   3.502   2.111   1.573 -1.1764  1.0437  0.4710
  848TIP3    H224104   3.525   2.092   1.722 -0.5052  1.0222  0.3656
  849TIP3   OH224105   4.151   1.927   1.230 -0.1431  0.2296 -0.0683
  849TIP3    H124106   4.112   1.881   1.156 -1.6440 -0.7497  1.2681
  849TIP3    H224107   4.078   1.975   1.270  0.8166  1.4628  0.2641
  850TIP3   OH224108   6.142   5.267   1.972 -0.0131 -0.3876 -0.1879
  850TIP3    H124109   6.060   5.278   1.924  0.6509 -0.4505 -1.3754
  850TIP3    H224110   6.209   5.256   1.904  1.1920  0.9665  0.7072
  851TIP3   OH224111   4.725   6.360   7.723  0.0986 -0.9270  0.3447
  851TIP3    H124112   4.633   6.370   7.748  0.0725 -1.5154  0.4977
  851TIP3    H224113   4.756   6.449   7.709 -0.2498 -0.6630  1.1972
  852TIP3   OH224114   6.799   1.479   0.507 -0.2376  0.1461  0.6342
  852TIP3    H124115   6.760   1.392   0.504  0.5906 -0.2355  0.4214
  852TIP3    H224116   6.736   1.536   0.463  0.1599 -0.7395 -1.1970
  853TIP3   OH224117   0.223   2.227   8.336  0.0369 -0.2287 -0.5253
  853TIP3    H124118   0.266   2.305   8.301  0.7288 -0.6926 -0.7318
  853TIP3    H224119   0.270   2.153   8.297 -1.4041 -0.7658 -1.3222
  854TIP3   OH224120   3.796   5.972   2.688 -0.3493 -0.2708  0.0790
  854TIP3    H124121   3.863   5.944   2.626  0.1126 -0.7254  0.7630
  854TIP3    H224122   3.717   5.926   2.661 -0.0481 -0.7966  0.0750
  855TIP3   OH224123   1.053   1.029   7.707  0.1009  0.1114  0.4490
  855TIP3    H124124   1.004   1.014   7.626  1.2600  1.8058 -0.6178
  855TIP3    H224125   0.989   1.068   7.766 -0.0217  1.9553 -0.8030
  856TIP3   OH224126   5.998   4.637   0.337  0.3071 -0.4025 -0.1740
  856TIP3    H124127   6.040   4.632   0.252  0.3669 -0.4783 -0.1408
  856TIP3    H224128   5.937   4.563   0.338 -0.1698 -0.0157 -0.4045
  857TIP3   OH224129   0.195   5.523   0.673 -0.3884  0.6762 -0.1555
  857TIP3    H124130   0.221   5.442   0.716 -0.4639  0.5245 -0.3934
  857TIP3    H224131   0.147   5.571   0.740 -2.9063 -0.7382 -0.8009
  858TIP3   OH224132   0.598   6.484   0.497  0.0969 -0.0870  0.3590
  858TIP3    H124133   0.514   6.529   0.486 -0.0853  0.1046  2.1163
  858TIP3    H224134   0.663   6.547   0.465 -0.3167  0.5390  0.7101
  859TIP3   OH224135   1.666   6.079   0.699  0.0926  0.2165 -0.1714
  859TIP3    H124136   1.638   6.167   0.676 -1.3246 -0.3971 -0.9125
  859TIP3    H224137   1.705   6.044   0.619 -1.3130 -0.5562 -0.5545
  860TIP3   OH224138   3.386   3.421   8.632  0.0464  0.5682 -0.3128
  860TIP3    H124139   3.457   3.411   8.568  1.6434  0.6460  1.3906
  860TIP3    H224140   3.396   3.347   8.692 -1.3067  0.6029 -0.0226
  861TIP3   OH224141   6.672   0.717   7.873 -0.1905 -0.2351 -0.6741
  861TIP3    H124142   6.700   0.653   7.938  0.2522 -1.4040 -1.9483
  861TIP3    H224143   6.580   0.734   7.893  0.1004 -0.0921  0.6076
  862TIP3   OH224144   0.162   2.064   1.431  0.1979  0.1096  0.3458
  862TIP3    H124145   0.138   2.146   1.474 -0.2716  0.1316  0.0510
  862TIP3    H224146   0.124   2.071   1.344  3.9578  1.5788 -1.4402
  863TIP3   OH224147   6.351   4.169   8.639 -0.0830 -0.0689 -0.3027
  863TIP3    H124148   6.328   4.078   8.616 -1.3611  0.7267 -2.4625
  863TIP3    H224149   6.392   4.204   8.560  0.6834  1.1738  0.6076
  864TIP3   OH224150   2.379   0.680   1.228 -0.0212  0.1654 -0.7231
  864TIP3    H124151   2.386   0.622   1.304 -3.1663  1.2699  0.5764
  864TIP3    H224152   2.453   0.740   1.237  0.7845 -0.9539  0.3455
  865TIP3   OH224153   5.565   4.599   1.017 -0.4463  0.6677  0.1794
  865TIP3    H124154   5.480   4.565   1.046  0.3091 -0.3960  1.2546
  865TIP3    H224155   5.544   4.664   0.950 -2.1053  0.4938  0.5021
  866TIP3   OH224156   0.106   0.972   7.548 -0.8182 -0.3510  0.3517
  866TIP3    H124157   0.041   0.908   7.577 -0.5000 -0.4736  0.8038
  866TIP3    H224158   0.138   1.011   7.629 -0.5707 -0.0500  0.1096
  867TIP3   OH224159   0.535   3.438   0.695 -0.5072  0.1625 -0.0098
  867TIP3    H124160   0.542   3.534   0.695  2.1205  0.0850 -1.4485
  867TIP3    H224161   0.589   3.410   0.769 -0.2629 -0.1953 -0.3172
  868TIP3   OH224162   5.737   3.712   0.625 -0.1205  1.1470  0.2161
  868TIP3    H124163   5.731   3.764   0.705 -2.0020  0.5664  0.5076
  868TIP3    H224164   5.829   3.719   0.598  0.9942  0.0229  3.3142
  869TIP3   OH224165   2.936   3.299   2.105 -0.2274 -0.2801  0.9399
  869TIP3    H124166   2.852   3.296   2.152 -0.9553 -1.6033 -0.3347
  869TIP3    H224167   2.925   3.369   2.041 -0.7425 -1.0349  0.1720
  870TIP3   OH224168   5.333   3.406   0.913 -0.0472  0.1408  0.6357
  870TIP3    H124169   5.262   3.452   0.959 -0.5613 -0.2137  0.2212
  870TIP3    H224170   5.357   3.464   0.841 -1.1918 -0.5139 -0.3222
  871TIP3   OH224171   1.099   2.408   7.939 -0.2634 -0.6089  0.8034
  871TIP3    H124172   1.177   2.365   7.975  0.9045  1.0655  0.3957
  871TIP3    H224173   1.069   2.466   8.010 -0.2744 -0.1818  0.4515
  872TIP3   OH224174   3.158   2.404   2.144 -0.1627 -0.7222 -0.0135
  872TIP3    H124175   3.167   2.435   2.234  0.2685  0.0004 -0.2906
  872TIP3    H224176   3.064   2.396   2.130 -0.2364 -0.6048  0.4272
  873TIP3   OH224177   0.035   4.003   1.828 -0.5013 -0.3864 -0.4463
  873TIP3    H124178   0.093   3.944   1.875  0.3937  0.7469 -0.0830
  873TIP3    H224179   0.040   4.086   1.876  0.5448  0.8716 -2.5479
  874TIP3   OH224180   0.690   3.530   0.963  0.2264 -0.0763 -0.2893
  874TIP3    H124181   0.636   3.596   1.005  0.5870  0.5645 -0.8099
  874TIP3    H224182   0.638   3.450   0.968  0.1119  0.0648  1.0192
  875TIP3   OH224183   0.238   1.664   7.878 -0.2134 -0.5682 -0.4708
  875TIP3    H124184   0.326   1.685   7.909 -0.6545 -1.5173  1.5806
  875TIP3    H224185   0.197   1.750   7.864  0.7726 -0.1175 -0.6660
  876TIP3   OH224186   4.993   3.208   6.985 -0.2626  0.2517 -0.4815
  876TIP3    H124187   5.021   3.297   7.006  1.3542 -0.2700 -0.2813
  876TIP3    H224188   4.900   3.217   6.963 -0.0793  2.0186 -0.7284
  877TIP3   OH224189   1.302   5.753   1.574 -0.0551 -0.2853  0.0406
  877TIP3    H124190   1.346   5.800   1.503  0.9669 -2.1206 -0.5851
  877TIP3    H224191   1.372   5.707   1.620 -1.0852 -1.7416  0.2137
  878TIP3   OH224192   1.723   6.271   2.122  0.5648  0.1347  0.5518
  878TIP3    H124193   1.697   6.363   2.112 -1.0941 -0.1285  2.0150
  878TIP3    H224194   1.676   6.241   2.200 -0.8899 -2.6524 -1.2458
  879TIP3   OH224195   4.567   4.482   7.852  0.6990  0.5397  0.2109
  879TIP3    H124196   4.498   4.548   7.843  1.1891  1.0196 -0.0717
  879TIP3    H224197   4.543   4.432   7.930  0.3300  1.0651  0.4358
  880TIP3   OH224198   4.115   3.296   2.516 -0.1091 -0.3569  0.2716
  880TIP3    H124199   4.158   3.236   2.455 -0.0377  0.6239 -0.6794
  880TIP3    H224200   4.143   3.383   2.488 -2.9650  0.3917 -0.6804
  881TIP3   OH224201   5.016   1.185   2.442 -0.2304 -0.6358  0.5143
  881TIP3    H124202   4.992   1.103   2.399  1.0867 -1.5876  1.5171
  881TIP3    H224203   4.944   1.202   2.503 -1.9430  0.5437 -1.6555
  882TIP3   OH224204   4.164   5.398   7.346 -0.2649  0.1124 -0.7102
  882TIP3    H124205   4.220   5.475   7.356 -0.9548  0.7245 -1.5338
  882TIP3    H224206   4.190   5.360   7.262  1.0965 -1.4278  0.3264
  883TIP3   OH224207   0.336   0.220   8.521 -0.2700  0.2181  0.1427
  883TIP3    H124208   0.258   0.175   8.489  1.1114 -0.3559 -2.7051
  883TIP3    H224209   0.338   0.303   8.473 -0.0431  1.0538  1.5414
  884TIP3   OH224210   4.141   4.205   7.029  0.0710  0.6456  0.1192
  884TIP3    H124211   4.107   4.294   7.016 -1.2037  0.2314  0.4186
  884TIP3    H224212   4.210   4.196   6.964  0.4615  1.9766  0.3136
  885TIP3   OH224213   3.797   6.134   1.740  0.4218 -0.4812  0.2694
  885TIP3    H124214   3.825   6.097   1.657 -1.4268 -2.3615  0.4236
  885TIP3    H224215   3.844   6.082   1.806  0.2812 -0.4014  0.4336
  886TIP3   OH224216   5.501   2.491   1.226 -0.1827 -0.8143 -0.0912
  886TIP3    H124217   5.572   2.541   1.266 -0.9712  0.2297  0.0447
  886TIP3    H224218   5.543   2.411   1.194  1.2384  0.2200 -0.9178
  887TIP3   OH224219   0.864   6.360   7.404 -0.4662 -0.5389 -0.1785
  887TIP3    H124220   0.948   6.387   7.367  0.4476 -0.1898  1.9732
  887TIP3    H224221   0.873   6.266   7.419  0.1582 -0.2767  1.3586
  888TIP3   OH224222   0.095   4.146   2.832 -0.5513  0.1128  0.1176
  888TIP3    H124223   0.087   4.240   2.848 -0.1512  0.3086 -0.7903
  888TIP3    H224224   0.189   4.131   2.824 -0.5396 -0.5512  1.2737
  889TIP3   OH224225   5.366   3.972   8.675  0.0240  0.0653  0.1839
  889TIP3    H124226   5.373   3.926   8.759 -1.5157 -0.3776  0.0963
  889TIP3    H224227   5.296   4.036   8.689 -0.1892  0.0405 -0.7484
  890TIP3   OH224228   6.745   4.992   8.366  0.1278 -0.4888 -0.1221
  890TIP3    H124229   6.751   5.087   8.359 -0.0952 -0.5693 -1.5722
  890TIP3    H224230   6.793   4.971   8.446  0.9626  0.7550 -0.2747
  891TIP3   OH224231   5.932   1.018   8.475  0.5853  0.1196  0.1209
  891TIP3    H124232   5.857   1.021   8.415 -0.6510  2.1285  1.6357
  891TIP3    H224233   5.893   1.003   8.561  2.0642  0.0497  0.8064
  892TIP3   OH224234   2.989   5.933   0.343 -0.1379 -0.2641  0.1951
  892TIP3    H124235   2.904   5.948   0.302  0.0752  0.0700 -0.1274
  892TIP3    H224236   3.041   5.889   0.276 -0.0928 -0.5798  0.4339
  893TIP3   OH224237   0.829   2.332   8.139  0.3861  0.1851 -0.5290
  893TIP3    H124238   0.894   2.402   8.149 -0.0129  0.5128 -0.2196
  893TIP3    H224239   0.786   2.352   8.055  0.9587 -0.2637 -0.9352
  894TIP3   OH224240   2.920   0.082   7.271  0.2337 -0.1936 -0.4565
  894TIP3    H124241   2.940   0.117   7.184 -1.9133  1.6366 -0.3021
  894TIP3    H224242   2.870   0.002   7.254  1.7647 -1.1209 -0.8326
  895TIP3   OH224243   0.702   2.932   7.810 -0.4909  0.2444 -0.3898
  895TIP3    H124244   0.628   2.963   7.862  0.0729  3.1082 -1.1247
  895TIP3    H224245   0.765   2.900   7.875 -0.5320  2.0370  0.5856
  896TIP3   OH224246   2.498   2.039   7.677  0.1486  0.4870  0.6155
  896TIP3    H124247   2.427   2.080   7.726 -0.1661  0.3768  0.2594
  896TIP3    H224248   2.469   2.044   7.586  0.5032  0.2489  0.4896
  897TIP3   OH224249   4.446   0.662   1.846 -0.0181 -0.5456 -0.0971
  897TIP3    H124250   4.538   0.657   1.820  0.6055 -0.0967  1.9033
  897TIP3    H224251   4.413   0.572   1.837  1.0867 -1.0573  0.8142
  898TIP3   OH224252   5.800   4.976   1.071  0.1739  0.1076 -0.2257
  898TIP3    H124253   5.722   4.959   1.018 -0.5965 -0.9565  1.1809
  898TIP3    H224254   5.866   4.915   1.037 -0.2646 -0.4670 -0.0565
  899TIP3   OH224255   5.127   5.886   1.521 -0.3210  0.1987 -0.1565
  899TIP3    H124256   5.201   5.904   1.463 -0.7242  1.1792 -0.4015
  899TIP3    H224257   5.146   5.801   1.560 -0.1652 -0.6455 -1.9503
  900TIP3   OH224258   6.186   5.041   0.940 -0.1312 -0.8535  0.0425
  900TIP3    H124259   6.154   5.069   0.855 -1.9463 -1.7638  0.3734
  900TIP3    H224260   6.212   4.949   0.927  0.9572 -0.5743  0.1497
  901TIP3   OH224261   6.740   1.934   7.961  0.0284 -0.5110  0.5122
  901TIP3    H124262   6.766   1.994   8.031 -1.1023 -0.5737  1.0113
  901TIP3    H224263   6.745   1.987   7.881 -0.5649  0.1352  0.8948
  902TIP3   OH224264   1.165   0.769   1.558  0.7334 -0.5973  0.2557
  902TIP3    H124265   1.117   0.839   1.514  0.3889  0.0414  1.5761
  902TIP3    H224266   1.242   0.754   1.504  1.4968  1.7188  0.5674
  903TIP3   OH224267   6.785   0.056   0.072 -0.3246  0.0072  0.4139
  903TIP3    H124268   6.773   0.106  -0.009  0.5939  0.3528  0.4781
  903TIP3    H224269   6.707   0.001   0.078  0.6712 -1.9127 -2.0547
  904TIP3   OH224270   1.273   5.622   0.620 -0.4641 -0.3250  0.1985
  904TIP3    H124271   1.353   5.671   0.641 -1.9473  1.6376  1.6514
  904TIP3    H224272   1.231   5.674   0.551 -1.5000 -0.1506  0.9403
  905TIP3   OH224273   6.282   4.801   0.874  0.3517  0.3851 -1.0905
  905TIP3    H124274   6.241   4.718   0.850  1.6508 -0.4995 -0.3785
  905TIP3    H224275   6.375   4.789   0.852  0.7436  1.2596  0.0090
  906TIP3   OH224276   2.546   5.156   0.917  0.0349  0.2513  0.0282
  906TIP3    H124277   2.558   5.194   0.830  1.2744 -0.2685 -0.0570
  906TIP3    H224278   2.453   5.135   0.922 -0.0380  0.2224 -1.1995
  907TIP3   OH224279   2.707   5.876   7.434  0.1742  0.3863  0.0862
  907TIP3    H124280   2.624   5.839   7.405  0.5581 -1.8026  1.4983
  907TIP3    H224281   2.760   5.883   7.355 -1.2746  1.7477 -0.8218
  908TIP3   OH224282   0.274   4.209   3.233 -0.5924  0.0388  0.1859
  908TIP3    H124283   0.301   4.173   3.317  0.7018  0.9720  0.2068
  908TIP3    H224284   0.351   4.199   3.177 -1.5476 -0.9048 -1.0162
  909TIP3   OH224285   4.819   3.947   7.696  0.0364 -0.3711 -0.3898
  909TIP3    H124286   4.738   3.924   7.742  0.5374  0.9792  1.2556
  909TIP3    H224287   4.876   3.983   7.764  1.7835 -0.6436 -1.6356
  910TIP3   OH224288   2.412   0.616   0.884  0.3710 -0.2504 -0.8448
  910TIP3    H124289   2.389   0.574   0.801 -0.8469  1.3634 -1.3727
  910TIP3    H224290   2.354   0.577   0.949 -1.1035  0.8845 -1.4244
  911TIP3   OH224291   5.493   4.719   2.926 -0.0235  0.4394  0.3639
  911TIP3    H124292   5.581   4.756   2.920  1.8487 -3.3914  1.5456
  911TIP3    H224293   5.476   4.684   2.839 -0.8340  1.9562 -0.1177
  912TIP3   OH224294   1.188   4.151   0.392 -0.0104 -0.3601 -0.0342
  912TIP3    H124295   1.223   4.230   0.435  0.9523 -0.3229 -0.8445
  912TIP3    H224296   1.254   4.129   0.326 -0.9777 -0.9963 -0.8064
  913TIP3   OH224297   1.144   5.364   2.507  0.1123 -0.0813  0.3120
  913TIP3    H124298   1.239   5.361   2.521  0.3208  0.4614 -0.8405
  913TIP3    H224299   1.116   5.273   2.516  0.9080 -0.3980 -0.2897
  914TIP3   OH224300   2.640   3.347   0.623  0.0401 -0.6830 -0.0773
  914TIP3    H124301   2.732   3.354   0.650  0.6964 -1.4782 -1.9599
  914TIP3    H224302   2.595   3.410   0.678  1.6035 -0.7243  1.3499
  915TIP3   OH224303   4.083   1.233   1.968 -0.1930 -0.0908 -0.6470
  915TIP3    H124304   4.164   1.283   1.964  0.8286 -1.6625 -0.5550
  915TIP3    H224305   4.069   1.217   2.062 -1.9633  2.1879 -0.4330
  916TIP3   OH224306   3.182   2.190   8.521  0.7298 -0.0531  0.4799
  916TIP3    H124307   3.127   2.119   8.487  2.2382 -0.6991 -0.7322
  916TIP3    H224308   3.270   2.152   8.524  1.7375  1.9994 -0.9644
  917TIP3   OH224309   6.813   1.032   1.046 -0.1291 -0.5750  0.3997
  917TIP3    H124310   6.839   1.016   0.956 -1.6231 -1.0186  0.0224
  917TIP3    H224311   6.848   0.957   1.095  0.5660 -0.4023  0.1775
  918TIP3   OH224312   3.982   4.938   8.016  0.0056 -0.0552  0.3133
  918TIP3    H124313   3.944   4.919   8.102 -0.4174  2.3873  0.7510
  918TIP3    H224314   4.076   4.947   8.034 -0.1594  1.0672  0.6673
  919TIP3   OH224315   5.873   2.932   7.064 -0.7919  0.3575 -0.0755
  919TIP3    H124316   5.858   2.996   6.995 -0.4293 -1.1082 -1.5704
  919TIP3    H224317   5.848   2.848   7.025  2.7614 -1.0484  0.2762
  920TIP3   OH224318   1.310   4.526   8.615 -0.0012  0.3798 -0.2454
  920TIP3    H124319   1.280   4.493   8.699 -3.3809 -1.8312 -2.0940
  920TIP3    H224320   1.393   4.481   8.599 -0.2348 -0.5670  1.0938
  921TIP3   OH224321   2.358   0.936   7.768 -0.2077 -0.3626 -0.2516
  921TIP3    H124322   2.325   0.871   7.829 -0.1217 -0.6317 -0.4937
  921TIP3    H224323   2.309   0.922   7.688  0.3649 -0.6510 -0.5589
  922TIP3   OH224324   2.971   3.064   7.722 -0.2940 -0.4502  0.1846
  922TIP3    H124325   3.002   3.023   7.803 -0.3446  2.4225  1.8050
  922TIP3    H224326   3.043   3.122   7.697  0.3392 -2.3205 -2.7759
  923TIP3   OH224327   6.266   0.038   1.172 -0.4350  0.2086 -0.1056
  923TIP3    H124328   6.259   0.133   1.162 -0.0236  0.5157  1.9954
  923TIP3    H224329   6.188   0.013   1.223 -1.0812 -0.7598 -1.5125
  924TIP3   OH224330   4.893   5.225   8.063 -0.0406  0.1887 -0.4919
  924TIP3    H124331   4.878   5.135   8.091  0.8799  0.0188 -0.5100
  924TIP3    H224332   4.806   5.258   8.041 -0.1970 -1.3475 -2.4304
  925TIP3   OH224333   5.234   0.118   0.751  0.3609 -0.4482 -0.1427
  925TIP3    H124334   5.182   0.050   0.709 -0.5382 -0.6425  1.2217
  925TIP3    H224335   5.275   0.075   0.826  1.2449  0.0871 -0.2998
  926TIP3   OH224336   3.646   3.417   0.579 -0.4878  0.2560  0.2282
  926TIP3    H124337   3.712   3.469   0.533  0.3446 -0.8002  0.1702
  926TIP3    H224338   3.603   3.478   0.638  0.2495  1.0625 -0.0529
  927TIP3   OH224339   6.507   0.764   2.807  0.2320 -0.0748 -0.6894
  927TIP3    H124340   6.526   0.842   2.755  0.9655  0.1124 -0.1632
  927TIP3    H224341   6.435   0.722   2.762  1.5767 -0.5307 -2.5290
  928TIP3   OH224342   3.210   2.750   2.536 -0.3442 -0.4589  0.1769
  928TIP3    H124343   3.171   2.796   2.461  0.7704  1.4944  0.7269
  928TIP3    H224344   3.169   2.790   2.612  0.3694 -0.6597  0.6699
  929TIP3   OH224345   6.602   6.080   2.063  0.3731 -0.3245  0.1345
  929TIP3    H124346   6.674   6.089   2.001 -0.4606 -1.3636 -1.0386
  929TIP3    H224347   6.524   6.076   2.008 -0.5291  0.1199  1.3458
  930TIP3   OH224348   1.902   3.310   0.057 -0.1597  0.9174 -0.4282
  930TIP3    H124349   1.936   3.370   0.124  0.6601 -0.5542  0.5268
  930TIP3    H224350   1.977   3.294  -0.000 -0.5052  1.1447 -0.9535
  931TIP3   OH224351   4.457   2.528   2.718 -0.5871  0.0978  0.0194
  931TIP3    H124352   4.551   2.543   2.731  0.0971 -3.2039 -0.4483
  931TIP3    H224353   4.420   2.616   2.718  1.9492  1.4518  3.9360
  932TIP3   OH224354   6.819   3.601   1.252 -0.1530  0.0895  0.2051
  932TIP3    H124355   6.876   3.623   1.178  2.1432  0.5483  2.0026
  932TIP3    H224356   6.739   3.651   1.237  0.1763  0.0408 -2.0184
  933TIP3   OH224357   0.384   4.730   1.151  0.1494 -0.0947  0.1581
  933TIP3    H124358   0.314   4.667   1.170  0.2667 -0.3054 -0.0968
  933TIP3    H224359   0.339   4.812   1.133  0.0070 -0.0256  0.7827
  934TIP3   OH224360   1.962   0.522   2.111 -0.2421  0.4295  0.2485
  934TIP3    H124361   1.899   0.468   2.063  1.4268 -1.7845  0.3843
  934TIP3    H224362   1.909   0.574   2.170 -1.9699 -1.3051  0.3136
  935TIP3   OH224363   6.401   5.973   0.942 -0.2466 -0.1060  0.3472
  935TIP3    H124364   6.457   5.964   1.019  0.7413  1.2631 -0.1820
  935TIP3    H224365   6.440   5.916   0.877 -1.2613 -1.5092  0.9068
  936TIP3   OH224366   4.792   4.503   1.791 -0.4866 -0.0015 -0.0717
  936TIP3    H124367   4.874   4.452   1.789 -0.7789 -0.4905  0.2983
  936TIP3    H224368   4.727   4.443   1.755 -0.9715 -0.1420  1.0033
  937TIP3   OH224369   5.998   3.076   0.447 -0.1074  0.3151 -0.0086
  937TIP3    H124370   6.090   3.092   0.427  0.4633 -3.4386 -1.2309
  937TIP3    H224371   5.999   3.007   0.513 -2.0612  0.3693  0.1477
  938TIP3   OH224372   5.547   6.575   8.432  0.4789 -0.4044 -0.0031
  938TIP3    H124373   5.586   6.549   8.515 -0.0907 -0.9519  0.0946
  938TIP3    H224374   5.620   6.612   8.382  1.0649 -1.1648  0.2792
  939TIP3   OH224375   1.956   3.564   2.225 -0.0700 -0.1470  0.3928
  939TIP3    H124376   2.048   3.544   2.246 -0.7737 -3.9232  0.5618
  939TIP3    H224377   1.946   3.536   2.135 -0.6633  2.2373 -0.3644
  940TIP3   OH224378   2.506   1.191   6.993 -0.0706 -0.0968  0.0937
  940TIP3    H124379   2.576   1.241   6.951  0.8791  0.2191  1.9053
  940TIP3    H224380   2.526   1.198   7.087 -2.1638 -0.5948  0.6161
  941TIP3   OH224381   3.973   5.877   0.583 -0.9245 -0.0048  0.2661
  941TIP3    H124382   3.959   5.958   0.632 -0.1531  0.5550 -0.4028
  941TIP3    H224383   3.890   5.831   0.589 -0.5566 -0.4518  2.9247
  942TIP3   OH224384   3.711   1.578   1.498 -0.2118 -0.0590  0.2373
  942TIP3    H124385   3.636   1.619   1.455  0.5401  1.5657  0.3572
  942TIP3    H224386   3.675   1.535   1.575 -0.9964  1.0364  0.5118
  943TIP3   OH224387   3.767   5.077   7.463  0.3587  0.3558  0.0256
  943TIP3    H124388   3.726   5.029   7.391 -1.4309  1.3470  0.3282
  943TIP3    H224389   3.697   5.130   7.500  1.4519  0.5715  1.9290
  944TIP3   OH224390   2.166   5.464   0.752 -0.0599  0.0941  0.0118
  944TIP3    H124391   2.088   5.495   0.798  0.9871  1.0896  1.1718
  944TIP3    H224392   2.210   5.543   0.721  0.6793 -0.4352 -0.3319
  945TIP3   OH224393   3.241   2.537   8.064 -0.4593  0.3824 -0.0239
  945TIP3    H124394   3.323   2.510   8.104 -0.3047  1.0203  0.1031
  945TIP3    H224395   3.174   2.484   8.107  0.0294 -1.2805 -1.2299
  946TIP3   OH224396   0.548   1.089   1.845 -0.0848  0.9360 -0.4311
  946TIP3    H124397   0.581   1.014   1.795 -1.7569 -0.0856 -0.0548
  946TIP3    H224398   0.582   1.076   1.933 -1.2078  0.0337 -0.1119
  947TIP3   OH224399   2.093   5.421   2.348 -0.3253  0.0712  0.3905
  947TIP3    H124400   2.056   5.342   2.389 -0.5226 -0.1257 -0.1627
  947TIP3    H224401   2.073   5.412   2.255  0.5035  0.2993  0.1758
  948TIP3   OH224402   6.745   5.457   2.046  0.0724 -0.2539  0.5290
  948TIP3    H124403   6.688   5.434   2.120 -1.9806  1.1326 -0.5321
  948TIP3    H224404   6.785   5.540   2.071 -1.4179  0.7450 -0.2680
  949TIP3   OH224405   3.908   2.074   7.310  0.8452 -0.5541  0.2824
  949TIP3    H124406   3.910   2.153   7.256  0.4859 -0.5136  0.3228
  949TIP3    H224407   3.843   2.093   7.378  1.9289 -0.2697  1.2597
  950TIP3   OH224408   4.902   6.016   1.898 -0.3457 -0.2138  0.2136
  950TIP3    H124409   4.993   6.013   1.926 -0.6155  0.1271  1.1807
  950TIP3    H224410   4.887   6.108   1.876 -0.8019 -0.0153  1.3053
  951TIP3   OH224411   6.192   2.058   7.032 -0.2967  0.2192 -0.4570
  951TIP3    H124412   6.162   1.973   7.062 -1.9854  0.5043 -1.2099
  951TIP3    H224413   6.167   2.118   7.102  0.1161  0.2090 -0.3024
  952TIP3   OH224414   3.657   0.682   0.388 -0.3305  0.4758  0.2556
  952TIP3    H124415   3.604   0.604   0.380  3.7882 -2.4632 -3.8690
  952TIP3    H224416   3.652   0.724   0.301  4.6371 -0.8197 -0.9820
  953TIP3   OH224417   0.289   0.312   1.556  0.4446 -0.1728  0.2341
  953TIP3    H124418   0.280   0.217   1.570 -1.9644  0.0414  0.4286
  953TIP3    H224419   0.367   0.320   1.501  0.5148 -2.2906 -0.0637
  954TIP3   OH224420   4.426   3.046   2.092  0.1062 -0.7277  0.0622
  954TIP3    H124421   4.437   2.951   2.095 -1.2968 -0.8941  2.0703
  954TIP3    H224422   4.511   3.081   2.119  1.5390 -1.2240 -3.3102
  955TIP3   OH224423   0.499   5.058   1.092  0.2249 -0.6895 -0.7741
  955TIP3    H124424   0.446   5.007   1.031  0.2701 -0.5396 -0.9401
  955TIP3    H224425   0.580   5.007   1.103  0.2498 -0.6775 -0.9020
  956TIP3   OH224426   2.405   1.635   1.728 -0.3287  0.0568  0.1507
  956TIP3    H124427   2.461   1.639   1.806  2.4279 -1.0447 -1.6110
  956TIP3    H224428   2.385   1.726   1.708  2.3618  0.6924 -0.0644
  957TIP3   OH224429   4.792   4.081   0.162  0.1553 -0.0892 -0.4568
  957TIP3    H124430   4.702   4.097   0.193  0.3415  0.2501 -0.0796
  957TIP3    H224431   4.804   3.986   0.173  0.8517  0.2174  2.3440
  958TIP3   OH224432   4.174   0.662   1.360 -0.2118 -0.5893  0.0980
  958TIP3    H124433   4.241   0.594   1.372  1.0805  0.8883  1.6244
  958TIP3    H224434   4.186   0.692   1.270  1.3546 -0.2014  0.4194
  959TIP3   OH224435   2.884   1.465   1.682 -0.5880  0.2597 -0.5339
  959TIP3    H124436   2.817   1.481   1.615  0.7859  0.1447 -2.0069
  959TIP3    H224437   2.940   1.397   1.644  0.6011  0.6445  0.4666
  960TIP3   OH224438   0.925   4.069   8.666 -0.4251 -0.2108  0.3706
  960TIP3    H124439   0.919   4.003   8.734  1.3042  0.6938  1.4626
  960TIP3    H224440   0.980   4.137   8.703  1.2603 -0.0347 -2.2129
  961TIP3   OH224441   1.258   0.617   7.383  0.0549 -0.0753  0.5939
  961TIP3    H124442   1.229   0.707   7.393  0.0597  0.1785 -1.3254
  961TIP3    H224443   1.219   0.588   7.300  2.5920 -0.7826 -0.4355
  962TIP3   OH224444   2.198   1.767   1.107 -0.1895 -0.4068 -0.2650
  962TIP3    H124445   2.194   1.806   1.019 -0.1954 -1.6784 -0.8549
  962TIP3    H224446   2.286   1.729   1.112  0.3676  0.9419  0.8777
  963TIP3   OH224447   3.422   0.698   1.956 -0.6173  0.0898 -0.1301
  963TIP3    H124448   3.437   0.628   1.893 -2.2862 -0.2974 -0.1538
  963TIP3    H224449   3.508   0.738   1.970  0.3553 -1.8762 -0.2101
  964TIP3   OH224450   0.854   6.251   1.275 -0.2559  0.2252  0.2409
  964TIP3    H124451   0.893   6.324   1.226 -0.1311 -0.8019 -1.2365
  964TIP3    H224452   0.779   6.224   1.222 -0.9972  0.0081  1.3648
  965TIP3   OH224453   6.113   2.422   6.018 -0.0877  0.0926  0.7530
  965TIP3    H124454   6.104   2.447   5.926 -1.4985 -1.3947  0.4411
  965TIP3    H224455   6.155   2.336   6.016  0.2276  0.2187  1.5282
  966TIP3   OH224456   0.945   5.283   7.280  0.1157 -0.2881 -0.3009
  966TIP3    H124457   0.963   5.376   7.261 -1.9258 -0.0587 -1.3126
  966TIP3    H224458   0.877   5.258   7.217  0.4253 -2.4207  0.1380
  967TIP3   OH224459   2.543   0.073   0.997  0.0318 -0.0652  0.0090
  967TIP3    H124460   2.512   0.003   1.054 -1.5503  1.1819  0.7901
  967TIP3    H224461   2.575   0.140   1.058  0.5168  0.3278 -0.6735
  968TIP3   OH224462   1.908   2.572   8.558  0.4322 -0.2583 -0.0114
  968TIP3    H124463   1.957   2.541   8.635  0.7939  0.9691  0.2662
  968TIP3    H224464   1.973   2.576   8.488  0.1764 -1.0346 -0.3053
  969TIP3   OH224465   4.769   6.476   8.069  0.0159 -0.6339  0.0505
  969TIP3    H124466   4.694   6.532   8.090  0.0248 -1.6084  3.2419
  969TIP3    H224467   4.729   6.393   8.041 -0.2177 -1.2505  2.0252
  970TIP3   OH224468   4.221   2.755   0.410 -0.1385 -0.0157  0.0838
  970TIP3    H124469   4.250   2.837   0.370  1.2349 -0.0610  0.8949
  970TIP3    H224470   4.241   2.688   0.345  1.0830  0.0273  0.3961
  971TIP3   OH224471   1.225   3.982   8.559 -0.4775 -0.1932  0.9843
  971TIP3    H124472   1.132   3.986   8.580 -0.7199  1.1753 -0.2184
  971TIP3    H224473   1.244   4.066   8.518  1.2165 -0.5932  0.8730
  972TIP3   OH224474   0.921   6.423   1.902  0.3603 -0.2647  0.2698
  972TIP3    H124475   0.926   6.482   1.977 -0.3238 -0.1894  0.2652
  972TIP3    H224476   1.008   6.384   1.896 -0.1302 -1.9768  2.5021
  973TIP3   OH224477   2.179   6.297   8.041 -0.3925 -0.2616  0.6849
  973TIP3    H124478   2.172   6.315   7.947 -1.2400 -1.2874  0.5359
  973TIP3    H224479   2.096   6.327   8.078 -1.0721 -2.0478  0.7085
  974TIP3   OH224480   6.182   2.750   7.661  0.2342 -0.2900 -0.2189
  974TIP3    H124481   6.203   2.683   7.726 -1.7075  0.2564  1.0609
  974TIP3    H224482   6.116   2.708   7.605 -1.4008  0.6524  0.9220
  975TIP3   OH224483   5.655   4.823   8.171 -0.4426  0.2999  0.6524
  975TIP3    H124484   5.589   4.870   8.121  1.8421  2.1191 -0.8958
  975TIP3    H224485   5.657   4.867   8.256 -0.6956  0.7348  0.4363
  976TIP3   OH224486   0.618   0.868   1.094 -0.0083  0.1657 -0.0750
  976TIP3    H124487   0.675   0.804   1.138 -0.3370  0.7501  1.2507
  976TIP3    H224488   0.571   0.910   1.165 -0.9974  0.7532 -1.0529
  977TIP3   OH224489   1.120   1.269   2.184  0.0985  0.9857 -0.1494
  977TIP3    H124490   1.172   1.303   2.112 -0.0929  1.3499 -0.1208
  977TIP3    H224491   1.155   1.312   2.262 -1.6213  2.9366 -0.3624
  978TIP3   OH224492   2.987   2.655   8.021  0.4779  0.4061 -0.0736
  978TIP3    H124493   2.996   2.581   8.081  0.0029  0.0497 -0.4349
  978TIP3    H224494   3.045   2.633   7.947 -2.3886 -1.4538 -1.9727
  979TIP3   OH224495   2.674   5.830   8.227  0.2204  0.3164 -0.1265
  979TIP3    H124496   2.657   5.923   8.212  3.4912  1.0949  0.3555
  979TIP3    H224497   2.705   5.797   8.143 -0.6647 -0.3370 -0.2212
  980TIP3   OH224498   1.916   1.837   0.407 -0.2363  0.3474 -0.4258
  980TIP3    H124499   1.833   1.790   0.416  0.0657 -0.3173 -0.9682
  980TIP3    H224500   1.983   1.768   0.406  0.2056  0.7618 -1.3868
  981TIP3   OH224501   3.025   1.721   1.928 -0.2167  0.2252  0.6811
  981TIP3    H124502   3.067   1.637   1.945 -2.3077 -1.3167 -1.2672
  981TIP3    H224503   2.933   1.708   1.950 -1.4193  0.6142 -3.3210
  982TIP3   OH224504   2.967   5.625   0.027  0.5328 -0.7327 -0.4468
  982TIP3    H124505   2.971   5.533   0.002 -0.2191 -0.8839 -0.0367
  982TIP3    H224506   3.016   5.630   0.108 -0.6578 -1.0741  0.3309
  983TIP3   OH224507   0.368   0.121   2.058  0.4613  0.0652 -0.2145
  983TIP3    H124508   0.339   0.157   2.142  0.1220 -0.8960  0.0838
  983TIP3    H224509   0.288   0.088   2.017  0.9966 -2.0622  0.3513
  984TIP3   OH224510   5.232   1.738   1.742  0.7296 -0.2906  0.1104
  984TIP3    H124511   5.244   1.686   1.663  0.0374  0.7641 -0.7181
  984TIP3    H224512   5.301   1.805   1.738 -0.3967  0.8802 -0.5713
  985TIP3   OH224513   4.426   6.466   1.699 -0.0986 -0.2133 -0.8121
  985TIP3    H124514   4.520   6.482   1.705 -0.2396  0.4348 -0.0153
  985TIP3    H224515   4.391   6.543   1.653 -0.7104  1.7280  2.5224
  986TIP3   OH224516   3.047   4.543   7.817  0.3303  0.1368 -0.0244
  986TIP3    H124517   3.023   4.624   7.771  0.2154  0.2080  0.1602
  986TIP3    H224518   3.048   4.476   7.749 -0.9417  0.0172  0.0507
  987TIP3   OH224519   3.527   2.619   2.763  0.1848 -0.2136  0.1366
  987TIP3    H124520   3.551   2.553   2.698 -1.7961 -1.7612  0.8499
  987TIP3    H224521   3.534   2.703   2.717  0.8848 -1.0827 -1.4121
  988TIP3   OH224522   6.789   1.193   7.480 -0.2616 -0.1815  0.3473
  988TIP3    H124523   6.823   1.257   7.419 -1.1739  0.8901  0.9223
  988TIP3    H224524   6.859   1.129   7.490  0.8985  1.0225  0.1752
  989TIP3   OH224525   5.103   2.361   7.010 -0.8360 -0.0988 -0.1785
  989TIP3    H124526   5.040   2.362   6.938 -0.2098 -3.5649 -0.9253
  989TIP3    H224527   5.183   2.398   6.973 -1.4332  1.2993 -0.1681
  990TIP3   OH224528   6.740   6.123   8.407 -0.0269 -0.0594  0.5380
  990TIP3    H124529   6.681   6.195   8.384 -1.4901 -1.0013  1.2386
  990TIP3    H224530   6.683   6.051   8.430  1.3059 -0.3112  3.6206
  991TIP3   OH224531   5.512   4.052   0.884  0.4473  0.6486  0.2834
  991TIP3    H124532   5.553   4.101   0.956 -0.0178 -1.8104  2.3596
  991TIP3    H224533   5.576   3.984   0.863  0.7906  1.6174 -2.0713
  992TIP3   OH224534   0.387   0.361   0.995  0.0811  0.1618 -0.3243
  992TIP3    H124535   0.359   0.452   0.982  1.2632  0.9086  1.8528
  992TIP3    H224536   0.324   0.325   1.058  0.7620  0.1209  0.3458
  993TIP3   OH224537   2.878   6.569   1.887  0.2695  0.2601 -0.4668
  993TIP3    H124538   2.899   6.633   1.819 -0.0585  0.6550 -0.2044
  993TIP3    H224539   2.899   6.614   1.969  0.1276 -0.0050 -0.2850
  994TIP3   OH224540   5.034   3.716   2.634  0.2785 -0.2354 -0.1790
  994TIP3    H124541   5.127   3.736   2.628  0.2866 -0.6736 -1.8574
  994TIP3    H224542   5.011   3.739   2.724  2.1172 -0.6602  0.4395
  995TIP3   OH224543   4.205   2.150   8.445  0.0155 -0.4495 -0.8153
  995TIP3    H124544   4.198   2.245   8.436  0.4393 -0.1508  1.5561
  995TIP3    H224545   4.293   2.130   8.413  0.2171  0.0575 -0.5865
  996TIP3   OH224546   0.357   4.812   8.208  0.5752  0.0375 -0.1006
  996TIP3    H124547   0.339   4.823   8.301  1.9441  0.4804  0.1283
  996TIP3    H224548   0.380   4.899   8.177 -0.0933 -0.0614 -0.9163
  997TIP3   OH224549   1.377   3.881   0.619 -0.3159 -0.3725 -0.3272
  997TIP3    H124550   1.445   3.860   0.554  0.2138 -0.8703  0.3769
  997TIP3    H224551   1.422   3.935   0.683 -1.5231  2.6229 -1.8234
  998TIP3   OH224552   5.735   0.538   0.665  0.1895  0.5423 -0.2218
  998TIP3    H124553   5.740   0.521   0.759  0.7288  0.0502 -0.3362
  998TIP3    H224554   5.706   0.629   0.659  0.8270  0.7943  0.4258
  999TIP3   OH224555   3.408   1.339   0.814 -0.4091 -0.4072 -0.2122
  999TIP3    H124556   3.502   1.319   0.813 -0.2739  0.2140 -0.5271
  999TIP3    H224557   3.404   1.433   0.830 -1.0536 -0.7790  2.3849
 1000TIP3   OH224558   0.693   1.822   8.232  0.4178  0.2597 -0.8100
 1000TIP3    H124559   0.600   1.804   8.247  1.1713 -2.8930  0.9074
 1000TIP3    H224560   0.710   1.900   8.286 -1.0270  0.3484 -0.4276
 1001TIP3   OH224561   4.793   6.482   2.007  0.0364 -0.1499 -0.6143
 1001TIP3    H124562   4.870   6.440   2.046  1.1346  1.3885 -1.0635
 1001TIP3    H224563   4.738   6.504   2.082  1.0090  0.6078 -0.0926
 1002TIP3   OH224564   3.557   5.244   7.963  0.1210 -0.4658 -0.0232
 1002TIP3    H124565   3.619   5.194   8.016 -0.6456 -0.6300  0.7361
 1002TIP3    H224566   3.522   5.180   7.901 -0.2366 -0.6774  0.3940
 1003TIP3   OH224567   6.127   0.049   7.697 -0.1009  0.0000 -0.5394
 1003TIP3    H124568   6.079   0.007   7.626 -0.2299  0.6322 -0.8339
 1003TIP3    H224569   6.080   0.131   7.713  1.0841  0.8042 -1.0844
 1004TIP3   OH224570   5.949   4.808   7.970 -0.1464  0.0667  0.2897
 1004TIP3    H124571   5.945   4.798   7.875  2.0787  0.4944  0.0929
 1004TIP3    H224572   6.009   4.881   7.984  0.7634 -0.9502  2.0387
 1005TIP3   OH224573   5.542   5.862   0.593  0.0828 -0.4711  0.5828
 1005TIP3    H124574   5.473   5.796   0.606 -0.5287 -0.1217 -0.6842
 1005TIP3    H224575   5.622   5.811   0.579 -0.0448 -0.9007  1.3812
 1006TIP3   OH224576   2.189   2.074   0.468 -0.1126  0.0671 -0.5608
 1006TIP3    H124577   2.245   2.006   0.506 -1.1353 -1.1059 -1.0893
 1006TIP3    H224578   2.107   2.067   0.516 -0.2136  1.0010 -0.5718
 1007TIP3   OH224579   6.130   5.824   2.875  0.1050 -0.2364 -0.3600
 1007TIP3    H124580   6.180   5.905   2.867 -1.9001  1.2208  0.9662
 1007TIP3    H224581   6.143   5.797   2.966 -0.8578 -0.2808 -0.2280
 1008TIP3   OH224582   6.547   4.619   0.695  0.4009 -0.3886  0.0801
 1008TIP3    H124583   6.499   4.557   0.750 -1.2770  1.3790  0.7123
 1008TIP3    H224584   6.508   4.609   0.608 -0.4340  0.3109  0.3613
 1009TIP3   OH224585   2.616   0.737   7.751  0.4609 -0.2059 -0.1328
 1009TIP3    H124586   2.521   0.744   7.745  0.5222  0.2563 -0.6279
 1009TIP3    H224587   2.643   0.813   7.802  0.6623  0.3249 -1.0104
 1010TIP3   OH224588   0.551   2.614   1.105 -0.0739 -0.2382 -0.3378
 1010TIP3    H124589   0.626   2.659   1.066  0.6994 -0.7244  0.5485
 1010TIP3    H224590   0.495   2.685   1.136  0.2872  0.1302 -0.5104
 1011TIP3   OH224591   3.629   1.575   8.477  0.0299 -0.0649 -0.5629
 1011TIP3    H124592   3.719   1.573   8.446 -0.0297  2.0580 -0.9871
 1011TIP3    H224593   3.582   1.628   8.413 -1.0620  0.6081  0.7336
 1012TIP3   OH224594   4.522   3.819   8.058 -0.5949  0.1220 -0.3793
 1012TIP3    H124595   4.534   3.755   8.128 -1.2445  0.8802  0.4524
 1012TIP3    H224596   4.483   3.895   8.102 -0.1050  0.9809 -1.3942
 1013TIP3   OH224597   2.781   6.091   1.787 -0.1435 -0.1555  0.3074
 1013TIP3    H124598   2.766   6.174   1.833 -0.7929 -0.0104 -0.1417
 1013TIP3    H224599   2.838   6.116   1.714 -0.2023 -0.1277  0.2700
 1014TIP3   OH224600   2.248   3.008   0.654  0.0795  0.4200  0.1611
 1014TIP3    H124601   2.234   2.936   0.592 -0.5667  0.0638  0.6972
 1014TIP3    H224602   2.334   3.043   0.633 -1.2399  2.2295 -2.8760
 1015TIP3   OH224603   2.907   6.251   0.872 -0.6025  0.3786  0.1506
 1015TIP3    H124604   2.862   6.321   0.825 -0.5250 -0.1715 -0.7763
 1015TIP3    H224605   2.977   6.223   0.812 -0.4439 -0.2813  0.6294
 1016TIP3   OH224606   4.155   4.590   1.745  0.3130  0.7731  0.0992
 1016TIP3    H124607   4.091   4.556   1.682  0.9708 -0.4521  0.0656
 1016TIP3    H224608   4.117   4.571   1.831  1.6838 -2.3085  0.1572
 1017TIP3   OH224609   2.321   5.896   8.286 -0.3055  0.0635 -0.6772
 1017TIP3    H124610   2.334   5.976   8.235 -1.4760  0.5646 -0.2257
 1017TIP3    H224611   2.291   5.832   8.222 -0.6020  0.3497 -0.8299
 1018TIP3   OH224612   4.870   6.771   8.299 -0.7016  0.2208 -0.5431
 1018TIP3    H124613   4.842   6.693   8.346  1.4582 -0.6849 -0.6534
 1018TIP3    H224614   4.799   6.835   8.313 -1.6716 -1.1415  1.0469
 1019TIP3   OH224615   5.529   3.014   0.027  0.0306  0.0902  0.7011
 1019TIP3    H124616   5.601   3.075   0.009  0.4512 -0.1795  1.4498
 1019TIP3    H224617   5.544   2.985   0.117 -0.5565 -0.5912  0.5856
 1020TIP3   OH224618   4.669   6.447   6.889  0.4302  0.7486 -0.5914
 1020TIP3    H124619   4.650   6.360   6.925  0.0120  0.1737 -2.1515
 1020TIP3    H224620   4.638   6.507   6.957  0.1211 -0.2998  0.2302
 1021TIP3   OH224621   3.136   2.456   0.920 -0.0789 -0.2279 -0.1891
 1021TIP3    H124622   3.159   2.542   0.884  1.4425  0.1176  1.4516
 1021TIP3    H224623   3.219   2.408   0.924 -0.3460 -0.6399  1.6896
 1022TIP3   OH224624   3.348   1.114   7.197 -0.1933 -0.0307  0.1976
 1022TIP3    H124625   3.398   1.111   7.115  0.4591  0.8228  0.5510
 1022TIP3    H224626   3.261   1.081   7.173 -0.2787  1.0210 -1.0551
 1023TIP3   OH224627   1.462   4.051   8.374 -0.0538 -0.2364  0.1079
 1023TIP3    H124628   1.453   3.959   8.349 -2.1207 -0.2347  0.6059
 1023TIP3    H224629   1.520   4.049   8.450  0.7023 -0.9975 -0.4610
 1024TIP3   OH224630   1.427   6.041   1.709 -0.3424  0.7431 -0.1571
 1024TIP3    H124631   1.423   6.112   1.646 -1.1079  0.6095 -0.2618
 1024TIP3    H224632   1.343   5.996   1.701  0.3960 -0.6152 -0.6071
 1025TIP3   OH224633   3.401   4.258   1.463 -0.5344  0.4971 -0.4307
 1025TIP3    H124634   3.449   4.295   1.538 -0.3145 -0.8096  0.1061
 1025TIP3    H224635   3.427   4.312   1.389  1.9079 -0.1952 -0.1934
 1026TIP3   OH224636   6.128   2.512   1.572 -0.0652  0.3035  0.4695
 1026TIP3    H124637   6.142   2.606   1.558 -1.7917  0.4946 -0.3097
 1026TIP3    H224638   6.112   2.477   1.484  0.5544 -0.7296  0.7537
 1027TIP3   OH224639   3.166   6.661   2.062 -0.6463 -0.0102 -0.0452
 1027TIP3    H124640   3.179   6.624   1.975 -1.2538  0.8500 -0.5233
 1027TIP3    H224641   3.228   6.734   2.067 -0.3260 -0.3046  0.4087
 1028TIP3   OH224642   5.598   2.893   1.289 -0.4496 -0.1951 -0.1326
 1028TIP3    H124643   5.691   2.909   1.305  0.2044 -0.8885 -2.7381
 1028TIP3    H224644   5.582   2.931   1.203 -1.9564 -2.1706 -0.7972
 1029TIP3   OH224645   2.646   4.997   3.270  0.4468 -0.2284  0.1518
 1029TIP3    H124646   2.585   4.966   3.203  0.2461 -1.4797  0.8963
 1029TIP3    H224647   2.635   5.092   3.270  0.0736 -0.2496 -1.2176
 1030TIP3   OH224648   0.826   6.170   0.121  0.4960 -0.5341  0.2227
 1030TIP3    H124649   0.773   6.238   0.163  1.7339  0.4788  0.2220
 1030TIP3    H224650   0.874   6.129   0.193  0.9794 -0.2794  0.0523
 1031TIP3   OH224651   6.606   3.484   2.480 -0.2149 -0.0172 -0.0301
 1031TIP3    H124652   6.604   3.390   2.497 -1.8490 -0.2667 -1.3320
 1031TIP3    H224653   6.519   3.514   2.508  0.1287  1.0306 -0.0666
 1032TIP3   OH224654   5.677   1.660   8.154 -0.0758 -0.0916 -0.2900
 1032TIP3    H124655   5.613   1.594   8.183  0.8753 -0.8070  0.2271
 1032TIP3    H224656   5.624   1.726   8.110 -0.8662 -2.5810 -3.4900
 1033TIP3   OH224657   2.091   6.347   7.764 -0.0404 -0.5267  0.7728
 1033TIP3    H124658   2.025   6.277   7.766 -1.0413  0.3967  0.8288
 1033TIP3    H224659   2.055   6.412   7.704  1.5000 -0.6322 -0.3193
 1034TIP3   OH224660   2.019   6.064   1.163  0.2717  0.2800 -0.0705
 1034TIP3    H124661   2.041   6.054   1.256 -0.1262  0.9375  0.1012
 1034TIP3    H224662   1.947   6.003   1.148  1.1049 -0.6858 -0.2386
 1035TIP3   OH224663   0.510   1.732   7.938  0.5969 -0.1346 -0.0577
 1035TIP3    H124664   0.555   1.813   7.914  0.2485  0.7746  2.0630
 1035TIP3    H224665   0.579   1.666   7.937  1.9179  1.0578  2.2160
 1036TIP3   OH224666   1.048   1.767   7.073  0.2760  0.2975  0.7843
 1036TIP3    H124667   0.987   1.784   7.001  0.0020  1.0795  1.1853
 1036TIP3    H224668   1.021   1.682   7.108 -1.5982  1.3002  1.9274
 1037TIP3   OH224669   3.229   2.724   8.431 -0.1084 -0.5329 -0.5532
 1037TIP3    H124670   3.158   2.770   8.386 -0.0539 -0.4472 -0.5519
 1037TIP3    H224671   3.203   2.632   8.429 -1.5799 -0.2604  1.8174
 1038TIP3   OH224672   5.820   4.992   2.256 -0.0736  0.4171  0.4150
 1038TIP3    H124673   5.801   4.945   2.337  1.4700 -2.4977 -0.7156
 1038TIP3    H224674   5.747   4.970   2.198  0.0740  0.3725  0.2446
 1039TIP3   OH224675   0.756   1.685   8.577  0.0104 -0.1516 -0.0227
 1039TIP3    H124676   0.757   1.780   8.572 -0.1305 -0.1713 -0.4566
 1039TIP3    H224677   0.730   1.656   8.489  1.7177 -0.6322 -0.4002
 1040TIP3   OH224678   2.870   5.831   1.099  0.1361 -0.1381 -0.2285
 1040TIP3    H124679   2.815   5.802   1.172  0.9337  0.2247  0.5422
 1040TIP3    H224680   2.958   5.835   1.136  1.1124 -2.8387 -1.9966
 1041TIP3   OH224681   3.852   0.680   7.762  0.1285 -0.2166 -0.3902
 1041TIP3    H124682   3.806   0.596   7.766  1.0211 -0.6491  1.8764
 1041TIP3    H224683   3.792   0.742   7.803 -0.3443  0.2009 -1.6666
 1042TIP3   OH224684   6.199   1.154   0.878 -0.1892  0.4382  0.0903
 1042TIP3    H124685   6.163   1.072   0.843  0.8790 -0.1356  0.3128
 1042TIP3    H224686   6.267   1.179   0.816  1.5510 -0.4530  1.5306
 1043TIP3   OH224687   6.025   5.902   7.590  0.4679  0.7776 -0.5734
 1043TIP3    H124688   5.961   5.966   7.559 -0.7520  0.0208  0.2960
 1043TIP3    H224689   6.017   5.904   7.686  0.4476 -0.5831 -0.5165
 1044TIP3   OH224690   0.611   3.295   1.711 -0.1962  0.4191  0.1510
 1044TIP3    H124691   0.700   3.275   1.738  0.3996  1.1669 -1.1725
 1044TIP3    H224692   0.596   3.384   1.740 -1.0966 -0.2129  1.7356
 1045TIP3   OH224693   4.959   1.728   1.206  0.4510 -0.4247  0.0206
 1045TIP3    H124694   4.957   1.739   1.301  1.6826 -0.9165  0.1206
 1045TIP3    H224695   5.050   1.708   1.186  0.4876  0.9608 -1.4171
 1046TIP3   OH224696   1.878   6.022   1.423  0.1468 -0.1389  0.2913
 1046TIP3    H124697   1.862   5.990   1.512  1.1574 -2.1028 -0.1872
 1046TIP3    H224698   1.794   6.012   1.378 -0.4250  1.0647  1.0492
 1047TIP3   OH224699   2.421   4.826   7.361  0.7118 -0.2916 -0.2618
 1047TIP3    H124700   2.329   4.801   7.368  0.0462  2.2383  1.8283
 1047TIP3    H224701   2.469   4.743   7.361 -1.5094 -1.6457 -0.3702
 1048TIP3   OH224702   5.043   4.170   0.254  0.6974 -0.5135  0.1336
 1048TIP3    H124703   4.967   4.118   0.228  0.2488  0.9674 -1.6287
 1048TIP3    H224704   5.027   4.190   0.347 -1.1474 -0.1000 -0.2329
 1049TIP3   OH224705   1.886   0.161   6.889  0.2147  0.3067 -0.1574
 1049TIP3    H124706   1.899   0.091   6.825 -1.0662  0.6223 -0.7900
 1049TIP3    H224707   1.899   0.119   6.974 -0.8820 -0.7966 -0.5098
 1050TIP3   OH224708   2.340   1.231   1.818  0.1750 -0.3952  0.5009
 1050TIP3    H124709   2.296   1.255   1.900 -0.4360 -0.6191  0.2441
 1050TIP3    H224710   2.327   1.306   1.761  3.2166  1.1049  1.5622
 1051TIP3   OH224711   3.812   6.166   7.784 -0.2288 -0.9571  0.2406
 1051TIP3    H124712   3.816   6.094   7.847  3.0580  0.9922  2.5469
 1051TIP3    H224713   3.851   6.131   7.704  2.2586 -1.5835  1.6330
 1052TIP3   OH224714   0.312   0.968   1.289  0.3633 -0.2615 -0.0366
 1052TIP3    H124715   0.222   0.944   1.267  1.0795 -1.4860 -1.8603
 1052TIP3    H224716   0.334   0.911   1.362 -1.0920  1.8141  2.1936
 1053TIP3   OH224717   1.280   0.287   8.376 -0.0357 -0.1429 -0.2055
 1053TIP3    H124718   1.223   0.312   8.448  0.8579 -1.7192  1.1236
 1053TIP3    H224719   1.351   0.352   8.379 -0.7386  0.6650 -0.6259
 1054TIP3   OH224720   6.407   2.924   0.633 -0.3916 -0.1217 -0.4498
 1054TIP3    H124721   6.421   2.878   0.550  0.7087 -1.2474  0.3215
 1054TIP3    H224722   6.460   2.876   0.697  1.3617  2.6058  0.3096
 1055TIP3   OH224723   2.968   5.781   3.185  0.1177  0.5695 -0.0003
 1055TIP3    H124724   2.904   5.712   3.198  1.9858 -1.0094  1.4301
 1055TIP3    H224725   2.949   5.844   3.255 -0.3895  0.5527 -0.1170
 1056TIP3   OH224726   5.852   2.660   0.096 -0.2830  0.3768  0.3532
 1056TIP3    H124727   5.882   2.612   0.173  1.1722 -1.3155 -1.1646
 1056TIP3    H224728   5.765   2.625   0.078 -0.0218 -0.3254  0.4014
 1057TIP3   OH224729   5.800   2.197   2.131 -0.4069 -0.1681  0.0689
 1057TIP3    H124730   5.828   2.107   2.116  1.9976  0.1680  1.8392
 1057TIP3    H224731   5.718   2.189   2.179  0.6720 -1.5469  1.8368
 1058TIP3   OH224732   1.725   6.686   8.438  0.6583  0.6473 -0.7583
 1058TIP3    H124733   1.813   6.680   8.401  0.6596 -2.7641 -0.5157
 1058TIP3    H224734   1.732   6.645   8.524 -1.1776  0.1543 -0.7985
 1059TIP3   OH224735   1.762   6.163   8.105 -0.5628  0.1946  0.1357
 1059TIP3    H124736   1.679   6.213   8.105 -0.6627  0.0595 -1.2606
 1059TIP3    H224737   1.829   6.230   8.095 -0.4674  0.3126  1.3520
 1060TIP3   OH224738   2.863   0.040   1.852  0.0459  0.8274  0.1839
 1060TIP3    H124739   2.782   0.089   1.869 -1.7945 -1.2862 -1.8364
 1060TIP3    H224740   2.841  -0.051   1.873  1.7998  0.1385 -0.7312
 1061TIP3   OH224741   6.153   0.806   1.144 -0.7251 -0.2697  0.1816
 1061TIP3    H124742   6.104   0.731   1.179 -1.2983  0.4820  1.0462
 1061TIP3    H224743   6.098   0.882   1.163 -0.8984  0.2453 -2.1055
 1062TIP3   OH224744   0.118   3.397   0.780 -0.5111 -0.2622  0.1181
 1062TIP3    H124745   0.141   3.468   0.721  0.3149 -0.5061  0.1275
 1062TIP3    H224746   0.178   3.407   0.854  1.6370 -2.6078 -1.1435
 1063TIP3   OH224747   1.710   4.371   0.046 -0.0004 -0.1083 -0.4097
 1063TIP3    H124748   1.747   4.407   0.127 -1.6144  2.3732 -0.6615
 1063TIP3    H224749   1.748   4.424  -0.024 -1.2134  0.0761 -0.9585
 1064TIP3   OH224750   6.320   3.843   8.318  0.0160  0.3782 -0.0459
 1064TIP3    H124751   6.354   3.758   8.347 -0.3162 -0.1919 -1.2347
 1064TIP3    H224752   6.306   3.892   8.398  1.0132 -0.3822  0.6266
 1065TIP3   OH224753   4.706   6.722   0.736 -0.2797 -0.1835 -0.3355
 1065TIP3    H124754   4.769   6.654   0.711 -0.1587 -0.0041 -0.5238
 1065TIP3    H224755   4.761   6.797   0.760 -0.3780 -0.4668  0.8207
 1066TIP3   OH224756   0.568   0.099   8.102  0.0906 -0.1572  0.7892
 1066TIP3    H124757   0.518   0.100   8.183  2.1665 -1.2924  2.1615
 1066TIP3    H224758   0.627   0.024   8.111 -0.6426 -1.2942 -2.4511
 1067TIP3   OH224759   1.317   0.092   0.433  0.4293  0.3608 -0.3005
 1067TIP3    H124760   1.395   0.147   0.423 -0.1578  1.4897  1.0195
 1067TIP3    H224761   1.244   0.153   0.429 -0.2846 -0.4245  0.4764
 1068TIP3   OH224762   0.524   6.207   2.760  0.2106 -0.1593  0.2627
 1068TIP3    H124763   0.485   6.279   2.810 -1.8843 -0.5071 -0.7393
 1068TIP3    H224764   0.495   6.128   2.806 -1.7182 -0.4816 -1.3516
 1069TIP3   OH224765   6.048   2.896   0.644  0.2320 -0.2979  0.5191
 1069TIP3    H124766   5.957   2.874   0.663  0.7482 -2.5375  0.6950
 1069TIP3    H224767   6.098   2.853   0.713  1.3779  2.5934  1.6662
 1070TIP3   OH224768   1.002   6.207   0.913 -0.5437  0.0075  1.0043
 1070TIP3    H124769   1.029   6.286   0.958  2.1981 -0.0936 -0.2471
 1070TIP3    H224770   0.945   6.238   0.842  1.1946  1.0257 -0.0111
 1071TIP3   OH224771   2.438   5.422   0.442  0.0917 -0.1702  0.1533
 1071TIP3    H124772   2.388   5.503   0.429  2.1603  1.4050  1.3343
 1071TIP3    H224773   2.462   5.395   0.353 -0.7102  0.4599 -0.2721
 1072TIP3   OH224774   0.694   1.509   0.801 -0.1661  0.0321  0.0641
 1072TIP3    H124775   0.623   1.463   0.847  1.2173 -1.4872  0.7635
 1072TIP3    H224776   0.736   1.561   0.869 -0.3234  0.6072 -0.2681
 1073TIP3   OH224777   4.708   6.413   1.077 -0.1943  0.0598  0.3062
 1073TIP3    H124778   4.735   6.504   1.093 -0.5920  0.4291 -0.9442
 1073TIP3    H224779   4.628   6.421   1.025 -0.1083 -1.0089 -0.0165
 1074TIP3   OH224780   1.221   0.775   2.132  0.1495  0.0119  0.3048
 1074TIP3    H124781   1.241   0.722   2.055  1.7561 -0.3753  0.9593
 1074TIP3    H224782   1.164   0.719   2.185 -0.2674 -0.0467 -0.1941
 1075TIP3   OH224783   5.061   0.933   0.514  0.0879  0.6675 -0.2894
 1075TIP3    H124784   4.975   0.960   0.481  1.0865  1.3106 -2.5375
 1075TIP3    H224785   5.050   0.842   0.539 -1.1630  0.6208 -0.9449
 1076TIP3   OH224786   3.023   5.105   6.989  0.4313  0.1053  0.6863
 1076TIP3    H124787   3.017   5.031   6.930 -1.7541  0.6258  0.1711
 1076TIP3    H224788   2.932   5.131   7.005  1.0532  1.4849  2.3680
 1077TIP3   OH224789   0.117   3.165   0.461 -0.2506  0.1367 -0.3778
 1077TIP3    H124790   0.040   3.132   0.506 -0.1822 -0.8878 -0.9882
 1077TIP3    H224791   0.180   3.184   0.531 -0.5926 -0.2434  0.0331
 1078TIP3   OH224792   3.843   5.108   7.720  0.1845 -0.7991  0.4565
 1078TIP3    H124793   3.809   5.091   7.632  0.0865 -0.3077  0.3970
 1078TIP3    H224794   3.858   5.021   7.757  0.2238 -1.0083 -0.0442
 1079TIP3   OH224795   1.923   5.769   0.772 -0.3679 -0.6062 -0.3056
 1079TIP3    H124796   1.958   5.703   0.832 -0.2563 -1.0859 -0.8926
 1079TIP3    H224797   1.946   5.737   0.685  1.3308  1.0936 -0.5649
 1080TIP3   OH224798   5.654   3.729   0.255 -0.6585 -0.2852  0.4443
 1080TIP3    H124799   5.620   3.697   0.171 -3.1870  1.2190  0.7950
 1080TIP3    H224800   5.612   3.815   0.267  3.2167  1.7578  1.0893
 1081TIP3   OH224801   4.676   1.685   1.967 -0.2809 -0.3773 -0.1315
 1081TIP3    H124802   4.618   1.670   1.892 -1.3315 -1.6190  0.8806
 1081TIP3    H224803   4.764   1.668   1.934 -0.1566  3.3374 -2.2117
 1082TIP3   OH224804   3.652   3.888   2.953  0.5674 -0.4197  0.7841
 1082TIP3    H124805   3.673   3.832   2.878  0.0916 -0.6561  0.8245
 1082TIP3    H224806   3.695   3.971   2.933  1.8977 -1.0228  1.0706
 1083TIP3   OH224807   5.202   4.667   1.960 -0.7708 -0.1586 -0.5938
 1083TIP3    H124808   5.217   4.576   1.935  1.7286 -0.2683  0.9183
 1083TIP3    H224809   5.178   4.661   2.053  1.5405  0.7328  0.1419
 1084TIP3   OH224810   6.548   1.940   0.617 -0.7932 -0.5757 -0.1174
 1084TIP3    H124811   6.570   1.983   0.534 -0.1386 -0.5072  0.0846
 1084TIP3    H224812   6.596   1.857   0.614 -2.1182 -1.3671 -0.5466
 1085TIP3   OH224813   2.858   0.927   0.112 -0.1155 -0.3257 -0.3203
 1085TIP3    H124814   2.926   0.921   0.045 -1.2705  0.6473 -1.6628
 1085TIP3    H224815   2.794   0.859   0.088 -0.9971  0.6380 -0.8278
 1086TIP3   OH224816   0.710   0.037   7.233  0.0647  0.0218  0.1357
 1086TIP3    H124817   0.619   0.063   7.253  0.1115  1.9391 -1.7903
 1086TIP3    H224818   0.702  -0.026   7.162  0.2414  1.0063 -0.7810
 1087TIP3   OH224819   3.176   2.700   1.636  0.1770 -0.4271  0.1499
 1087TIP3    H124820   3.177   2.742   1.550  1.8455  0.0750  0.3792
 1087TIP3    H224821   3.142   2.768   1.695  0.7210 -0.1686  0.1659
 1088TIP3   OH224822   2.572   1.028   8.373 -0.2556  0.1477 -0.4113
 1088TIP3    H124823   2.535   0.942   8.392 -1.0530  0.6048  0.2044
 1088TIP3    H224824   2.582   1.069   8.459 -0.9926  1.0960 -0.7644
 1089TIP3   OH224825   1.497   0.252   7.567  0.3414 -0.0076 -0.7575
 1089TIP3    H124826   1.411   0.277   7.535 -1.4418 -3.6427  0.6734
 1089TIP3    H224827   1.545   0.224   7.488 -1.3239 -1.7923 -1.2133
 1090TIP3   OH224828   1.592   6.189   2.342 -0.1143  0.1777 -0.3869
 1090TIP3    H124829   1.541   6.262   2.377  0.3685 -0.0503  0.8475
 1090TIP3    H224830   1.659   6.172   2.409  0.7119 -0.4300 -1.3302
 1091TIP3   OH224831   6.600   5.493   2.325  0.2009  0.1595  0.1248
 1091TIP3    H124832   6.588   5.525   2.414  0.4824 -1.3190  0.7305
 1091TIP3    H224833   6.558   5.558   2.269 -1.2418  0.4033  1.4449
 1092TIP3   OH224834   3.139   1.505   1.016  0.1493 -0.6230 -0.0950
 1092TIP3    H124835   3.152   1.455   1.096  0.3120  0.0794  0.3278
 1092TIP3    H224836   3.169   1.594   1.038  1.4276 -0.7082 -1.3054
 1093TIP3   OH224837   3.136   0.978   7.524 -0.0284 -0.1913 -0.5980
 1093TIP3    H124838   3.218   1.021   7.548 -0.9439  1.1109  0.3762
 1093TIP3    H224839   3.112   1.017   7.440 -0.4997  0.7527 -0.0508
 1094TIP3   OH224840   1.094   1.330   2.978 -0.0883 -0.0822 -0.3056
 1094TIP3    H124841   1.106   1.398   2.912  0.0917 -1.1635 -1.4214
 1094TIP3    H224842   1.176   1.280   2.976  0.3203  0.4522  1.4539
 1095TIP3   OH224843   0.106   5.835   2.606 -0.4823  0.1790 -0.1973
 1095TIP3    H124844   0.020   5.834   2.647 -0.6156  1.4267 -0.4097
 1095TIP3    H224845   0.153   5.761   2.646 -1.4666 -0.1969  0.2900
 1096TIP3   OH224846   5.188   1.351   2.043  0.0752  0.8246  0.9542
 1096TIP3    H124847   5.193   1.293   2.118  1.2082 -0.3007  0.0650
 1096TIP3    H224848   5.155   1.296   1.972  0.2923  1.4921  0.3178
 1097TIP3   OH224849   1.270   2.257   0.613 -0.4566 -0.6528  0.2587
 1097TIP3    H124850   1.302   2.171   0.640  1.0078  0.5838  2.8546
 1097TIP3    H224851   1.329   2.319   0.656 -2.1944  1.6850 -0.5173
 1098TIP3   OH224852   2.085   1.235   8.232  0.3624 -0.0998  0.4598
 1098TIP3    H124853   2.113   1.283   8.154  0.4526 -0.5878  0.1863
 1098TIP3    H224854   2.058   1.303   8.293  0.3818  0.2957  0.0386
 1099TIP3   OH224855   6.018   1.612   1.355 -0.3708 -0.4734 -0.3855
 1099TIP3    H124856   6.082   1.558   1.308 -1.5494 -0.2048 -2.4439
 1099TIP3    H224857   5.933   1.587   1.318 -1.3640  0.0523  1.3899
 1100TIP3   OH224858   1.506   5.357   0.260  0.5201  0.2520  0.3490
 1100TIP3    H124859   1.479   5.333   0.349  1.6433  2.0532  1.2340
 1100TIP3    H224860   1.438   5.321   0.204 -3.1141  3.2391  2.3210
 1101TIP3   OH224861   2.780   4.864   1.361 -0.1462 -0.3610  0.2759
 1101TIP3    H124862   2.773   4.891   1.270  2.7653  0.8758  0.3022
 1101TIP3    H224863   2.769   4.944   1.412  2.6864 -0.1107  0.6728
 1102TIP3   OH224864   5.260   6.129   1.645 -0.1017  0.1754 -0.1683
 1102TIP3    H124865   5.202   6.158   1.715 -0.2451 -0.4163 -0.0367
 1102TIP3    H224866   5.201   6.094   1.578  0.1317 -2.7405  0.9904
 1103TIP3   OH224867   0.326   4.463   7.061 -0.1683  0.0108  0.3439
 1103TIP3    H124868   0.299   4.472   6.969  0.5282  0.5944  0.1928
 1103TIP3    H224869   0.256   4.505   7.111  1.1262  2.9889 -0.1253
 1104TIP3   OH224870   3.122   0.334   7.720  0.1140  0.2754  0.0383
 1104TIP3    H124871   3.027   0.336   7.724  0.1170  0.2187  0.1475
 1104TIP3    H224872   3.142   0.288   7.638  0.0498  0.9690 -0.3674
 1105TIP3   OH224873   4.670   0.702   7.608  0.7521  0.3493 -0.0824
 1105TIP3    H124874   4.622   0.677   7.687  0.3108  1.4087  0.0001
 1105TIP3    H224875   4.742   0.639   7.603 -0.0241 -0.6003  0.3801
 1106TIP3   OH224876   2.526   6.273   7.930  0.2890 -0.8618  0.4657
 1106TIP3    H124877   2.462   6.275   7.859  1.0339 -0.1120 -0.2024
 1106TIP3    H224878   2.514   6.187   7.971 -2.0664 -0.2407  1.2307
 1107TIP3   OH224879   0.008   3.606   0.964  0.0277 -0.5910 -0.0670
 1107TIP3    H124880   0.057   3.552   0.901  2.1165 -0.8537  1.6493
 1107TIP3    H224881  -0.061   3.548   0.995  1.1684 -1.7497  0.4486
 1108TIP3   OH224882   0.763   3.277   7.596  0.0517 -0.3017  0.4266
 1108TIP3    H124883   0.825   3.218   7.554 -0.9876 -1.1012 -0.0075
 1108TIP3    H224884   0.809   3.306   7.675  1.4160  0.0155 -0.4452
 1109TIP3   OH224885   6.755   0.013   7.285  0.0211 -0.0808  0.5741
 1109TIP3    H124886   6.751  -0.082   7.287 -0.0380 -0.1879 -1.9816
 1109TIP3    H224887   6.848   0.034   7.299  0.1300 -0.5409  0.5365
 1110TIP3   OH224888   2.981   2.337   0.311  0.3209 -0.3961  0.6158
 1110TIP3    H124889   2.991   2.242   0.319  0.4634 -0.4014  0.3547
 1110TIP3    H224890   2.983   2.369   0.402  0.1365 -0.6545  0.7130
 1111TIP3   OH224891   6.100   2.552   2.627 -0.2611 -0.6959  0.2889
 1111TIP3    H124892   6.066   2.545   2.716 -0.1528 -0.8762  0.3168
 1111TIP3    H224893   6.037   2.608   2.581  0.0625 -0.0177  0.6657
 1112TIP3   OH224894   6.715   0.857   7.016  0.1679 -0.4009  0.0382
 1112TIP3    H124895   6.633   0.849   6.968 -0.9006  1.8450  1.3452
 1112TIP3    H224896   6.699   0.812   7.099 -0.8813  2.3752  1.4898
 1113TIP3   OH224897   3.219   4.002   0.053 -0.4698 -0.0020 -0.3160
 1113TIP3    H124898   3.180   3.916   0.067 -1.3016  0.5469  0.8484
 1113TIP3    H224899   3.145   4.061   0.041 -0.0072  0.8929  0.9969
 1114TIP3   OH224900   2.827   1.708   2.174 -0.4723 -0.2672 -0.4039
 1114TIP3    H124901   2.886   1.770   2.217  0.9841 -1.6466 -0.3665
 1114TIP3    H224902   2.774   1.763   2.116  0.7504  1.0327 -0.3512
 1115TIP3   OH224903   1.864   3.794   0.597  0.0409 -0.0315 -0.1318
 1115TIP3    H124904   1.862   3.704   0.631 -1.2651  0.6674  1.8439
 1115TIP3    H224905   1.829   3.788   0.509  3.2300 -1.9096 -1.4316
 1116TIP3   OH224906   1.717   2.335   0.076  0.0883 -0.1394  0.8529
 1116TIP3    H124907   1.628   2.303   0.061 -0.1028  0.4858  0.6208
 1116TIP3    H224908   1.718   2.422   0.037  0.7134 -0.0167  1.1306
 1117TIP3   OH224909   6.698   2.921   8.045  0.2376  0.0730  0.3548
 1117TIP3    H124910   6.689   2.854   8.113  3.1494  0.5516  1.3381
 1117TIP3    H224911   6.659   2.999   8.084  1.2836  0.1677  1.2757
 1118TIP3   OH224912   5.192   3.624   1.056 -0.4748  0.1682 -0.0533
 1118TIP3    H124913   5.221   3.619   1.148 -0.5878  0.4804  0.0013
 1118TIP3    H224914   5.117   3.684   1.058  1.1773  2.4242 -0.7190
 1119TIP3   OH224915   3.533   1.178   8.374  0.3759  0.4015  0.3664
 1119TIP3    H124916   3.579   1.229   8.308  1.2085 -0.4356  0.2956
 1119TIP3    H224917   3.440   1.196   8.357  0.6044  0.7590 -0.5643
 1120TIP3   OH224918   5.262   0.279   1.444 -0.3637  0.1004  0.1213
 1120TIP3    H124919   5.258   0.185   1.428 -1.0566  0.0348  0.6556
 1120TIP3    H224920   5.190   0.297   1.505 -0.9256  1.1482 -0.8164
 1121TIP3   OH224921   3.292   0.633   8.510 -0.1230 -0.5024 -0.4174
 1121TIP3    H124922   3.336   0.649   8.427 -1.5097  0.3286 -1.0374
 1121TIP3    H224923   3.286   0.538   8.517 -1.6454 -0.5899 -2.2194
 1122TIP3   OH224924   5.159   5.898   7.600  0.2731  0.5367  0.2764
 1122TIP3    H124925   5.136   5.990   7.616  0.6642  0.5516  0.7883
 1122TIP3    H224926   5.188   5.866   7.685  1.4533  0.3175 -0.1885
 1123TIP3   OH224927   2.812   6.485   2.590  0.2785  0.9202 -0.2595
 1123TIP3    H124928   2.753   6.536   2.646 -1.6792  0.0547 -1.4022
 1123TIP3    H224929   2.791   6.514   2.501 -1.4654 -2.2384 -1.0369
 1124TIP3   OH224930   4.399   0.655   8.430  0.4806  0.4742 -0.6204
 1124TIP3    H124931   4.321   0.630   8.381 -0.1627  0.2888  0.4677
 1124TIP3    H224932   4.426   0.739   8.391 -0.3194  0.5873 -0.9459
 1125TIP3   OH224933   2.241   1.837   6.684 -0.9433 -0.2731  0.2127
 1125TIP3    H124934   2.226   1.866   6.774  1.5874  0.6813  0.3961
 1125TIP3    H224935   2.164   1.867   6.636 -2.3976 -0.9004  2.0324
 1126TIP3   OH224936   2.603   5.627   2.927 -0.0622  0.3417  0.2279
 1126TIP3    H124937   2.553   5.709   2.931  0.6512  0.7509  1.4872
 1126TIP3    H224938   2.566   5.574   2.998 -1.1160 -0.8103 -1.1333
 1127TIP3   OH224939   3.715   6.532   0.533  0.0130  0.0736 -0.0576
 1127TIP3    H124940   3.745   6.494   0.616  0.8869  1.4026  0.2683
 1127TIP3    H224941   3.620   6.532   0.539  0.0347 -0.9136  0.4436
 1128TIP3   OH224942   1.580   4.623   1.139  0.0583 -0.0949  0.5188
 1128TIP3    H124943   1.493   4.585   1.154 -0.1298 -0.1493 -0.6160
 1128TIP3    H224944   1.621   4.623   1.226 -0.9858 -0.2745  1.0332
 1129TIP3   OH224945   1.873   6.415   8.387  0.1363  0.5410 -0.2126
 1129TIP3    H124946   1.883   6.344   8.324  1.2823 -1.4771  2.0822
 1129TIP3    H224947   1.806   6.384   8.448  1.1741  1.0472  1.2562
 1130TIP3   OH224948   2.721   3.195   7.666 -0.0902 -0.1960 -0.0011
 1130TIP3    H124949   2.708   3.188   7.572 -2.3455  1.8937  0.0559
 1130TIP3    H224950   2.792   3.134   7.685 -1.0214 -2.3421 -2.7032
 1131TIP3   OH224951   1.059   1.716   1.078 -0.0654 -0.3053  0.1937
 1131TIP3    H124952   1.111   1.665   1.141  0.7923 -0.9878 -1.0287
 1131TIP3    H224953   1.104   1.703   0.994 -1.4584  0.1835 -0.6539
 1132TIP3   OH224954   1.172   3.430   7.117  0.4512  0.2493 -0.1851
 1132TIP3    H124955   1.179   3.524   7.099 -4.3172  1.0100  0.4635
 1132TIP3    H224956   1.174   3.424   7.213  0.5571 -0.2816 -0.2175
 1133TIP3   OH224957   3.884   4.747   1.405 -0.5698  0.4225 -0.2372
 1133TIP3    H124958   3.913   4.816   1.464  0.3558 -1.3129  1.4409
 1133TIP3    H224959   3.905   4.780   1.317  1.0744  1.6961  0.5846
 1134TIP3   OH224960   5.499   2.185   0.219  0.0996 -0.0978 -0.0524
 1134TIP3    H124961   5.569   2.229   0.171  0.1812  1.7440  1.6100
 1134TIP3    H224962   5.459   2.254   0.272 -2.5211 -1.2386 -0.3821
 1135TIP3   OH224963   6.522   2.418   2.950  0.1090 -0.5536 -0.3358
 1135TIP3    H124964   6.607   2.448   2.981  0.1022 -0.2627 -0.5981
 1135TIP3    H224965   6.543   2.344   2.892  0.1692 -0.5957 -0.2608
 1136TIP3   OH224966   3.710   3.579   8.261 -0.4932  0.5908  0.0673
 1136TIP3    H124967   3.686   3.628   8.183  1.2198  2.7955  0.8123
 1136TIP3    H224968   3.776   3.516   8.231 -1.2811  0.0526 -0.5700
 1137TIP3   OH224969   1.257   1.961   2.460 -0.2811 -0.0739  0.7333
 1137TIP3    H124970   1.217   2.032   2.410 -2.5929 -3.2438 -2.3239
 1137TIP3    H224971   1.279   2.002   2.544 -1.3447  4.2109 -0.7924
 1138TIP3   OH224972   0.068   4.543   7.094  0.3466  0.2659 -0.0576
 1138TIP3    H124973  -0.019   4.566   7.125  0.7514 -0.8416  2.0772
 1138TIP3    H224974   0.074   4.448   7.105  1.3826  0.1566 -1.3630
 1139TIP3   OH224975   5.480   4.233   0.545 -0.3119  0.2651 -0.7841
 1139TIP3    H124976   5.400   4.258   0.500 -0.4628  0.0786 -0.6197
 1139TIP3    H224977   5.457   4.153   0.592  0.5224 -0.9949 -2.3889
 1140TIP3   OH224978   1.501   1.348   7.345 -0.1924  0.1174 -0.0569
 1140TIP3    H124979   1.531   1.360   7.255 -0.2808 -0.0909 -0.1129
 1140TIP3    H224980   1.426   1.407   7.353  0.2800  0.7075  0.1093
 1141TIP3   OH224981   2.630   3.519   7.634  0.4727 -0.2838  0.4852
 1141TIP3    H124982   2.653   3.580   7.705  2.3806 -0.7322  0.2881
 1141TIP3    H224983   2.607   3.438   7.679  0.8849 -0.3265  0.6156
 1142TIP3   OH224984   6.069   2.795   1.080 -0.1526 -0.3313 -0.6539
 1142TIP3    H124985   6.039   2.875   1.035 -0.0663 -0.8371 -1.6411
 1142TIP3    H224986   5.995   2.771   1.136 -0.7631 -0.3552 -1.4401
 1143TIP3   OH224987   2.572   2.965   8.670 -0.2857 -0.6310 -0.7143
 1143TIP3    H124988   2.655   2.961   8.717  0.3227  0.7249 -1.6153
 1143TIP3    H224989   2.571   3.052   8.630 -2.7187 -0.1043  0.3075
 1144TIP3   OH224990   1.863   4.171   1.448 -0.1748  0.6454 -0.0740
 1144TIP3    H124991   1.862   4.262   1.478 -1.4150  1.0425 -1.2080
 1144TIP3    H224992   1.775   4.157   1.414 -0.2824 -1.2762  0.8751
 1145TIP3   OH224993   3.872   0.259   0.156  0.3266  0.6874  0.1520
 1145TIP3    H124994   3.784   0.235   0.186  0.8686 -0.5394  0.8272
 1145TIP3    H224995   3.868   0.354   0.146 -1.0301  0.6735  0.3247
 1146TIP3   OH224996   1.855   5.918   1.673  0.0415 -0.2550 -0.3992
 1146TIP3    H124997   1.783   5.865   1.705 -0.3859  1.0314  0.8992
 1146TIP3    H224998   1.930   5.891   1.727 -0.2020  0.4986  0.3387
 1147TIP3   OH224999   6.502   1.397   2.740  0.4312  0.3732 -0.8773
 1147TIP3    H125000   6.587   1.354   2.723  0.5829 -0.5992  1.8651
 1147TIP3    H225001   6.442   1.324   2.756 -0.1234  1.1156  0.5120
 1148TIP3   OH225002   6.171   1.413   1.803 -0.1827  0.0321  0.2882
 1148TIP3    H125003   6.241   1.394   1.865  0.8907  1.2226 -0.5106
 1148TIP3    H225004   6.135   1.497   1.832  1.0925  1.1824 -1.2948
 1149TIP3   OH225005   3.451   3.311   8.079 -0.7511 -0.0119  0.0497
 1149TIP3    H125006   3.361   3.297   8.050  0.2370 -1.2398 -2.7217
 1149TIP3    H225007   3.500   3.236   8.045  0.8804 -1.0574  4.1390
 1150TIP3   OH225008   0.367   5.353   6.911  0.3322  0.8436  0.3699
 1150TIP3    H125009   0.413   5.404   6.978 -0.5134  1.7761  0.2701
 1150TIP3    H225010   0.406   5.382   6.828  1.7231 -0.6693  0.4473
 1151TIP3   OH225011   5.996   0.955   1.327  0.1087  0.6304 -0.2286
 1151TIP3    H125012   6.050   0.944   1.404 -0.7650  0.8390  0.4314
 1151TIP3    H225013   5.990   1.050   1.316 -1.1007  0.6490  0.4303
 1152TIP3   OH225014   0.449   5.462   1.264  0.2346 -0.2367 -0.3555
 1152TIP3    H125015   0.439   5.547   1.306  1.9058 -0.1061 -0.1669
 1152TIP3    H225016   0.534   5.430   1.294 -0.3648 -1.9890 -0.4196
 1153TIP3   OH225017   0.507   5.421   7.851 -0.1206  0.0466 -0.3539
 1153TIP3    H125018   0.508   5.339   7.802 -1.7643  0.2829 -0.8327
 1153TIP3    H225019   0.416   5.432   7.878  0.2789  1.1827  0.6343
 1154TIP3   OH225020   0.181   4.799   1.502 -0.6304 -0.4498  0.3472
 1154TIP3    H125021   0.203   4.816   1.411 -0.5830  1.6889  0.7095
 1154TIP3    H225022   0.086   4.810   1.507 -0.4122  1.4534  0.9040
 1155TIP3   OH225023   6.467   5.744   2.278  0.0768 -0.2019  0.1390
 1155TIP3    H125024   6.455   5.836   2.300 -1.4570  0.0377 -1.4420
 1155TIP3    H225025   6.390   5.700   2.315  0.3343 -0.6910  0.0978
 1156TIP3   OH225026   1.489   6.427   2.372  0.1688  0.1345 -0.3652
 1156TIP3    H125027   1.433   6.479   2.314 -1.3725 -1.4307 -0.3867
 1156TIP3    H225028   1.444   6.429   2.456 -0.5807 -2.0244 -0.6449
 1157TIP3   OH225029   4.554   4.268   0.081 -0.8315  0.1269 -0.2285
 1157TIP3    H125030   4.471   4.223   0.093 -0.7648  0.3112  1.0531
 1157TIP3    H225031   4.599   4.218   0.013 -2.2085  0.3584 -1.3382
 1158TIP3   OH225032   4.691   4.845   1.368  0.2410  0.1538 -0.6841
 1158TIP3    H125033   4.783   4.863   1.348  0.6113  1.6502  1.8255
 1158TIP3    H225034   4.652   4.932   1.376 -0.7698 -0.3897  0.6648
 1159TIP3   OH225035   5.934   6.682   0.368 -0.1730  0.2268  0.0048
 1159TIP3    H125036   5.876   6.714   0.299 -0.9371  0.6846  0.8496
 1159TIP3    H225037   5.879   6.629   0.425 -0.0923  1.6964  1.5276
 1160TIP3   OH225038   0.281   5.909   1.690 -0.1216  0.0110  0.2861
 1160TIP3    H125039   0.343   5.837   1.685 -0.9736 -0.6441 -1.9185
 1160TIP3    H225040   0.333   5.987   1.673  0.9222  0.0955  3.2896
 1161TIP3   OH225041   3.830   5.171   0.301  0.5232 -0.2602  0.0760
 1161TIP3    H125042   3.808   5.078   0.311 -0.0152 -0.3030 -1.3647
 1161TIP3    H225043   3.920   5.170   0.268  0.6706 -0.2450  0.4672
 1162TIP3   OH225044   0.752   1.544   7.974  0.1318  0.0686  0.5678
 1162TIP3    H125045   0.811   1.537   7.899 -0.3458  3.2153 -0.2228
 1162TIP3    H225046   0.776   1.469   8.030  2.3498 -0.8271 -1.4015
 1163TIP3   OH225047   2.571   6.205   0.505 -0.1413  0.1928  0.1442
 1163TIP3    H125048   2.535   6.276   0.451  0.4113 -0.3220 -0.9378
 1163TIP3    H225049   2.666   6.220   0.505 -0.1683  0.4859  1.4364
 1164TIP3   OH225050   1.507   1.570   0.056  0.3857 -0.5360  0.6275
 1164TIP3    H125051   1.536   1.584  -0.034 -0.5548 -2.0562  0.0488
 1164TIP3    H225052   1.574   1.513   0.094 -0.2611 -1.6176  0.2057
 1165TIP3   OH225053   0.581   2.572   1.741 -0.5353 -0.2763 -0.2257
 1165TIP3    H125054   0.486   2.561   1.731 -1.1487  2.8916  0.8727
 1165TIP3    H225055   0.599   2.658   1.702  1.8840 -0.7031 -0.1876
 1166TIP3   OH225056   1.761   2.959   1.840 -0.0989 -0.5609  0.4670
 1166TIP3    H125057   1.848   2.949   1.881 -0.1420  0.1880  0.7512
 1166TIP3    H225058   1.751   2.880   1.787  0.1773 -1.3145  1.5043
 1167TIP3   OH225059   3.767   6.724   0.305 -0.3052 -0.6101 -0.4817
 1167TIP3    H125060   3.801   6.635   0.318  0.2798 -0.1811  1.1656
 1167TIP3    H225061   3.844   6.780   0.314 -0.8975  0.1596 -0.1031
 1168TIP3   OH225062   1.699   4.254   1.049 -0.0630  0.6204 -0.2401
 1168TIP3    H125063   1.694   4.234   0.956 -0.9695 -1.7764  0.2423
 1168TIP3    H225064   1.791   4.241   1.071 -0.1625 -0.5853 -0.4783
 1169TIP3   OH225065   4.608   4.188   7.187  0.1034  0.2055 -0.3059
 1169TIP3    H125066   4.575   4.274   7.161  0.7379  0.6615  0.3511
 1169TIP3    H225067   4.657   4.205   7.268  2.2349 -0.3538 -1.4121
 1170TIP3   OH225068   0.573   1.388   1.157 -0.4801 -0.1079  0.1289
 1170TIP3    H125069   0.635   1.461   1.161 -0.5386 -0.0991  0.9682
 1170TIP3    H225070   0.487   1.428   1.166 -0.5287 -0.2474  0.2984
 1171TIP3   OH225071   3.072   3.676   7.348  0.1831 -0.4360  0.0168
 1171TIP3    H125072   3.008   3.741   7.380  0.6603 -0.3275  0.7741
 1171TIP3    H225073   3.044   3.657   7.259 -1.5044 -1.1210  0.6441
 1172TIP3   OH225074   0.873   0.322   2.045  0.0578  0.4171  0.2009
 1172TIP3    H125075   0.964   0.311   2.072 -0.0193  4.0932  2.5920
 1172TIP3    H225076   0.822   0.284   2.116 -0.2946  0.4779 -0.0176
 1173TIP3   OH225077   4.311   6.841   7.837 -0.0450 -0.2351 -0.1677
 1173TIP3    H125078   4.251   6.820   7.766  1.2083 -0.8764 -1.0797
 1173TIP3    H225079   4.254   6.868   7.909 -1.4517 -1.2742 -0.8305
 1174TIP3   OH225080   3.619   4.449   0.504  0.1558 -0.2128 -0.2361
 1174TIP3    H125081   3.579   4.372   0.544  0.5821  0.1560  0.9446
 1174TIP3    H225082   3.550   4.516   0.507 -0.0663 -0.4026 -0.8544
 1175TIP3   OH225083   0.992   3.790   6.862  0.2468 -0.2338  0.4959
 1175TIP3    H125084   1.079   3.753   6.845  0.4635  0.8578 -0.9666
 1175TIP3    H225085   0.997   3.821   6.952  0.5326 -2.3593  1.2681
 1176TIP3   OH225086   1.029   0.496   1.568 -0.2412 -0.0138  0.0963
 1176TIP3    H125087   0.974   0.527   1.496  0.5328  0.4037 -0.3413
 1176TIP3    H225088   1.091   0.568   1.582 -0.3009 -0.1513  1.0968
 1177TIP3   OH225089   5.739   0.569   2.029 -0.1779 -0.1290 -0.6804
 1177TIP3    H125090   5.705   0.567   2.118  0.4776 -0.7805 -0.4334
 1177TIP3    H225091   5.662   0.567   1.973 -0.5712 -0.7653 -0.1304
 1178TIP3   OH225092   5.866   6.022   8.139 -0.1641 -0.7779 -0.0196
 1178TIP3    H125093   5.842   5.930   8.136 -2.4418 -0.2163 -1.6060
 1178TIP3    H225094   5.790   6.066   8.175  0.6274  0.5676  0.0811
 1179TIP3   OH225095   2.438   0.735   0.176  0.0219  0.0667  0.2414
 1179TIP3    H125096   2.427   0.828   0.159 -0.0099  0.6565  3.0048
 1179TIP3    H225097   2.405   0.723   0.265  1.3498 -2.3141  0.4876
 1180TIP3   OH225098   4.816   6.632   7.706  0.1084 -0.6607 -0.4034
 1180TIP3    H125099   4.816   6.666   7.796 -1.3427 -1.2872 -0.1265
 1180TIP3    H225100   4.825   6.710   7.651  0.7806 -0.2433  0.2760
 1181TIP3   OH225101   3.116   3.143   2.405 -0.2461  1.0577  0.7012
 1181TIP3    H125102   3.040   3.197   2.427 -0.7182 -0.0142  1.8100
 1181TIP3    H225103   3.159   3.125   2.489 -1.0186 -1.5854  0.6136
 1182TIP3   OH225104   0.973   0.815   0.813  0.2907 -0.3404 -0.0767
 1182TIP3    H125105   0.979   0.829   0.908  0.1273  0.9965 -0.2484
 1182TIP3    H225106   0.893   0.764   0.802  0.9917 -1.6688  0.5864
 1183TIP3   OH225107   0.956   0.681   7.477  0.4958  0.3419 -0.0924
 1183TIP3    H125108   0.987   0.640   7.397 -1.0410 -0.2825 -0.3940
 1183TIP3    H225109   0.888   0.742   7.448 -0.4198 -0.2482  0.7524
 1184TIP3   OH225110   1.906   0.352   7.931  0.0617 -0.3987 -0.2499
 1184TIP3    H125111   1.843   0.326   7.864 -0.0065  3.7298 -2.1007
 1184TIP3    H225112   1.980   0.292   7.918 -1.2757 -1.8295 -1.7529
 1185TIP3   OH225113   3.499   2.843   0.373  0.0766  0.0591 -0.4050
 1185TIP3    H125114   3.570   2.895   0.336 -0.2745 -0.3120 -1.6422
 1185TIP3    H225115   3.531   2.753   0.370 -0.1927 -0.0392 -0.3663
 1186TIP3   OH225116   5.929   2.499   8.235 -0.1876  0.5500 -0.0524
 1186TIP3    H125117   5.919   2.438   8.308 -0.8011  1.9799  1.1187
 1186TIP3    H225118   5.884   2.579   8.265  2.8398  2.5313 -0.3568
 1187TIP3   OH225119   5.553   5.505   0.988  0.3528  0.2366 -0.6446
 1187TIP3    H125120   5.507   5.565   0.929 -2.0073 -0.4010  0.4238
 1187TIP3    H225121   5.583   5.561   1.060 -1.3106  0.3243  0.0451
 1188TIP3   OH225122   0.976   4.244   0.242  0.6353  0.0000 -0.1661
 1188TIP3    H125123   1.015   4.183   0.305 -0.4966 -0.5536  0.0182
 1188TIP3    H225124   0.883   4.221   0.240 -0.4663  3.3331  1.9039
 1189TIP3   OH225125   4.178   0.836   0.311 -0.5440 -0.3743 -0.0892
 1189TIP3    H125126   4.181   0.748   0.272  1.4047  0.1892 -1.3239
 1189TIP3    H225127   4.148   0.821   0.401  0.3390 -2.3806 -0.0795
 1190TIP3   OH225128   6.729   4.843   8.050  0.3123 -0.2320  0.2385
 1190TIP3    H125129   6.751   4.936   8.060  1.1435 -0.5104  1.1252
 1190TIP3    H225130   6.806   4.797   8.083  0.0328 -1.2465 -0.4927
 1191TIP3   OH225131   0.669   5.167   0.500  0.6256  0.3185  0.2473
 1191TIP3    H125132   0.574   5.160   0.504  0.4660  1.5683 -0.8833
 1191TIP3    H225133   0.693   5.128   0.416  1.2280 -0.8171  0.9130
 1192TIP3   OH225134   3.062   1.237   1.855 -0.0194 -0.3113 -0.1519
 1192TIP3    H125135   3.131   1.240   1.788 -0.2189  0.7124 -0.3386
 1192TIP3    H225136   3.067   1.323   1.898 -0.8112 -0.4334  0.2022
 1193TIP3   OH225137   6.362   5.543   6.921  0.2077  0.3165 -0.2045
 1193TIP3    H125138   6.356   5.611   6.988 -0.6461  0.4870 -0.4455
 1193TIP3    H225139   6.454   5.546   6.893  0.6130  0.1352  1.0493
 1194TIP3   OH225140   3.883   3.216   0.290 -0.5120 -0.3576 -0.7849
 1194TIP3    H125141   3.936   3.159   0.234  1.0746  0.9868 -0.7178
 1194TIP3    H225142   3.881   3.299   0.244 -2.5297 -0.3284 -0.7196
 1195TIP3   OH225143   2.493   4.483   8.395 -0.6122  0.2144  0.3441
 1195TIP3    H125144   2.566   4.425   8.374 -0.2096  0.7101  0.3620
 1195TIP3    H225145   2.524   4.571   8.372 -1.4068  0.3698 -0.1784
 1196TIP3   OH225146   4.611   3.275   0.826  0.4930 -0.9361 -0.3068
 1196TIP3    H125147   4.627   3.369   0.838 -0.9047 -0.7853  0.5388
 1196TIP3    H225148   4.682   3.232   0.874  0.3723 -0.3069  0.4504
 1197TIP3   OH225149   4.904   3.942   1.602  0.9063  0.0296  0.2780
 1197TIP3    H125150   4.848   3.991   1.543  0.7191  0.3651  0.7346
 1197TIP3    H225151   4.990   3.983   1.593  0.9686 -0.1669 -0.0464
 1198TIP3   OH225152   6.533   0.027   0.874 -0.1142 -0.2102  0.0030
 1198TIP3    H125153   6.557  -0.027   0.950  0.2543  0.0064  0.0452
 1198TIP3    H225154   6.592  -0.003   0.804 -0.5661 -0.5242 -0.2469
 1199TIP3   OH225155   6.633   3.860   8.388 -0.1655 -0.0209 -0.4176
 1199TIP3    H125156   6.603   3.859   8.298 -0.0553  0.2470 -0.4564
 1199TIP3    H225157   6.674   3.774   8.400  1.5061  0.6288 -1.1938
 1200TIP3   OH225158   1.112   1.471   0.234 -1.2151  0.4863 -0.5594
 1200TIP3    H125159   1.152   1.535   0.176 -2.0078  0.7856 -0.7849
 1200TIP3    H225160   1.141   1.495   0.322  1.8591 -1.2902 -0.9404
 1201TIP3   OH225161   3.351   5.854   0.417 -0.1892 -0.4426 -0.6030
 1201TIP3    H125162   3.326   5.863   0.325  2.1632 -0.5946 -1.3345
 1201TIP3    H225163   3.342   5.760   0.435  4.1149 -1.4576 -2.3726
 1202TIP3   OH225164   3.500   6.649   0.852  0.2093 -0.0348  0.5209
 1202TIP3    H125165   3.431   6.669   0.915 -0.5167 -0.3298 -0.1485
 1202TIP3    H225166   3.534   6.564   0.879 -0.2277 -0.2463  0.4211
 1203TIP3   OH225167   4.691   0.104   8.393 -0.0200  0.1002 -0.2185
 1203TIP3    H125168   4.598   0.090   8.379  0.3793 -2.0476 -1.1187
 1203TIP3    H225169   4.707   0.078   8.483 -0.1763 -0.1488 -0.2641
 1204TIP3   OH225170   6.378   1.348   1.998 -0.2714  0.2721 -0.1876
 1204TIP3    H125171   6.302   1.330   2.053 -0.3867  1.1104 -0.0661
 1204TIP3    H225172   6.452   1.343   2.058 -0.0723 -1.6628 -0.5052
 1205TIP3   OH225173   0.445   5.240   1.698 -0.2591 -0.1573 -0.5272
 1205TIP3    H125174   0.485   5.316   1.654  1.2534 -0.0048  1.0313
 1205TIP3    H225175   0.506   5.168   1.683 -0.3806 -0.4198  0.1935
 1206TIP3   OH225176   0.878   4.046   2.169 -0.0596 -0.3167  0.2102
 1206TIP3    H125177   0.964   4.046   2.127 -0.3368  2.3839 -0.5541
 1206TIP3    H225178   0.831   4.117   2.126 -2.4190 -1.2158  1.1632
 1207TIP3   OH225179   6.544   5.512   8.547  0.3457  0.6929  0.4182
 1207TIP3    H125180   6.571   5.587   8.599  1.8918  1.3404 -1.2482
 1207TIP3    H225181   6.536   5.545   8.458 -2.2436 -0.3857  0.1506
 1208TIP3   OH225182   6.618   2.092   0.356  0.2587  0.0748  0.0096
 1208TIP3    H125183   6.604   2.107   0.262  1.0510  0.4449 -0.0590
 1208TIP3    H225184   6.663   2.008   0.360  0.3200  0.1098  0.0493
 1209TIP3   OH225185   4.520   6.458   0.485 -0.2297 -0.6215 -0.3012
 1209TIP3    H125186   4.445   6.441   0.428 -0.0861 -1.3285 -0.2864
 1209TIP3    H225187   4.502   6.410   0.565  0.4612 -1.2050 -0.4820
 1210TIP3   OH225188   0.543   3.859   2.093  0.3281  0.1630 -0.5464
 1210TIP3    H125189   0.526   3.941   2.049  0.5329 -0.2556 -1.4222
 1210TIP3    H225190   0.600   3.882   2.167 -0.5184  0.9501 -0.1185
 1211TIP3   OH225191   3.891   0.097   8.614  0.0365  0.1874 -0.2504
 1211TIP3    H125192   3.816   0.118   8.559 -0.7341 -1.9441 -0.1087
 1211TIP3    H225193   3.897   0.171   8.675  0.2363  2.0671 -2.4020
 1212TIP3   OH225194   5.919   1.047   7.394 -0.0689 -0.1995  0.0155
 1212TIP3    H125195   5.867   0.973   7.426 -1.7865  0.7260 -0.4662
 1212TIP3    H225196   5.882   1.066   7.307  0.5460  1.0289  0.0024
 1213TIP3   OH225197   2.619   2.934   6.437 -0.1650  0.0730  0.0329
 1213TIP3    H125198   2.579   2.977   6.513 -1.5114 -0.1859 -0.5035
 1213TIP3    H225199   2.673   3.002   6.397 -1.7719  1.1245 -0.4444
 1214TIP3   OH225200   4.273   6.129   8.564 -0.0203  0.9563  0.3561
 1214TIP3    H125201   4.310   6.043   8.545 -2.0682  0.5022 -2.3401
 1214TIP3    H225202   4.187   6.111   8.601 -0.3504  1.8449  0.0566
 1215TIP3   OH225203   1.445   2.836   7.365  0.1437  0.0665 -0.1425
 1215TIP3    H125204   1.412   2.778   7.296 -0.3974 -0.4327  0.5247
 1215TIP3    H225205   1.510   2.891   7.321  0.6597 -1.0341 -0.8005
 1216TIP3   OH225206   5.726   0.835   0.655 -0.4735 -0.0277 -0.3773
 1216TIP3    H125207   5.692   0.901   0.595 -1.5949 -0.5030 -0.2928
 1216TIP3    H225208   5.737   0.881   0.738  1.1558  0.6512 -0.9380
 1217TIP3   OH225209   2.273   5.722   0.747  0.3214 -0.1932  0.0599
 1217TIP3    H125210   2.287   5.790   0.681  3.0836 -2.0070 -1.4606
 1217TIP3    H225211   2.357   5.717   0.793 -0.6646 -0.8910  1.8539
 1218TIP3   OH225212   3.610   1.958   2.328  0.3763  0.2408  0.1264
 1218TIP3    H125213   3.549   1.987   2.396 -0.8428 -0.3579 -0.6859
 1218TIP3    H225214   3.696   1.981   2.363 -0.2950  1.1388  1.2876
 1219TIP3   OH225215   3.029   0.678   0.251  0.6621 -0.3302  0.8002
 1219TIP3    H125216   2.987   0.760   0.279  0.3083 -0.1403 -0.2458
 1219TIP3    H225217   2.964   0.611   0.270 -0.4477  0.0289 -1.3596
 1220TIP3   OH225218   3.194   4.160   1.662 -0.2638  0.7994 -0.3772
 1220TIP3    H125219   3.237   4.224   1.719 -1.2896  1.6926 -0.5722
 1220TIP3    H225220   3.193   4.202   1.576 -0.9846  0.5419 -0.4981
 1221TIP3   OH225221   0.110   1.040   8.568  0.3545 -0.4003  0.4180
 1221TIP3    H125222   0.089   1.022   8.660 -1.7210  1.0216  0.2943
 1221TIP3    H225223   0.149   1.128   8.570  2.8633 -1.4297  0.1720
 1222TIP3   OH225224   1.094   4.064   3.504  0.3358 -0.6479  0.1674
 1222TIP3    H125225   1.093   3.969   3.489  1.1390 -0.6141 -0.1463
 1222TIP3    H225226   1.017   4.096   3.457 -0.2798 -1.2092  0.7747
 1223TIP3   OH225227   4.638   2.318   0.792 -0.3850  0.6980  0.0813
 1223TIP3    H125228   4.733   2.307   0.791 -0.4929 -0.5987  1.1271
 1223TIP3    H225229   4.612   2.314   0.700  0.5123  0.5502 -0.1734
 1224TIP3   OH225230   5.959   1.420   7.488  0.0096  0.2711 -0.2097
 1224TIP3    H125231   5.918   1.363   7.424  0.9990 -0.6433 -0.0494
 1224TIP3    H225232   5.893   1.433   7.555 -0.3251 -0.4549 -0.3956
 1225TIP3   OH225233   1.200   3.575   3.097 -0.2918  0.2444 -0.6794
 1225TIP3    H125234   1.180   3.526   3.177 -0.6552  0.9227 -0.3411
 1225TIP3    H225235   1.283   3.539   3.067 -0.7814 -0.8973 -0.7116
 1226TIP3   OH225236   3.690   0.840   7.968 -0.5671 -0.0575  0.1741
 1226TIP3    H125237   3.759   0.903   7.989 -0.3309 -0.8576  1.9699
 1226TIP3    H225238   3.610   0.893   7.964 -0.2789  0.4559  1.0119
 1227TIP3   OH225239   0.324   5.875   0.182  0.0822 -0.3126  0.8556
 1227TIP3    H125240   0.253   5.932   0.212 -0.0087  0.5635 -0.9328
 1227TIP3    H225241   0.335   5.812   0.254 -4.2845 -2.1690  0.2544
 1228TIP3   OH225242   2.829   6.661   2.971  0.6914 -0.4560 -0.3105
 1228TIP3    H125243   2.759   6.668   2.906 -0.7995 -0.7573  1.1918
 1228TIP3    H225244   2.834   6.747   3.012  0.7284 -0.6241  0.0463
 1229TIP3   OH225245   2.299   0.247   7.632  0.3200  0.4143  0.6234
 1229TIP3    H125246   2.323   0.337   7.655  0.0239  0.5290  0.4869
 1229TIP3    H225247   2.205   0.250   7.618  0.7410  0.9014 -3.0304
 1230TIP3   OH225248   4.062   6.127   0.253 -0.3437  0.2661  0.1340
 1230TIP3    H125249   4.030   6.176   0.178  1.7263  1.0019 -0.3306
 1230TIP3    H225250   3.983   6.103   0.301 -1.5146  4.1267  0.4739
 1231TIP3   OH225251   5.599   1.830   7.929  0.7990 -0.4185  0.6058
 1231TIP3    H125252   5.602   1.760   7.864 -2.0531 -1.2999  1.2891
 1231TIP3    H225253   5.535   1.892   7.895  0.3459 -0.1718  1.8344
 1232TIP3   OH225254   3.142   5.436   0.867 -0.2504 -0.1978 -0.2138
 1232TIP3    H125255   3.185   5.482   0.938 -1.4123  0.0328  0.3776
 1232TIP3    H225256   3.086   5.502   0.826  0.1710 -0.4098 -1.1457
 1233TIP3   OH225257   1.048   4.082   1.009  0.0007  0.1776  0.2153
 1233TIP3    H125258   1.018   4.170   0.984  0.5086  0.1876 -0.4015
 1233TIP3    H225259   1.000   4.023   0.952 -0.5419  0.0251  0.8165
 1234TIP3   OH225260   3.755   4.122   1.002  0.1050  0.4393  0.4221
 1234TIP3    H125261   3.851   4.124   1.000  0.1422 -0.7065 -0.4131
 1234TIP3    H225262   3.733   4.090   1.090  0.5063  0.3760  0.5008
 1235TIP3   OH225263   3.958   5.299   1.602 -0.0107  0.2343 -0.2184
 1235TIP3    H125264   4.040   5.303   1.652  0.2796 -1.9008 -0.4351
 1235TIP3    H225265   3.893   5.269   1.666 -0.1299 -0.2522 -0.5642
 1236TIP3   OH225266   4.446   4.135   7.916  0.9995  0.2403  0.0513
 1236TIP3    H125267   4.384   4.179   7.858  1.6621  0.1849 -0.7059
 1236TIP3    H225268   4.472   4.056   7.868  0.6114 -0.4662  0.9561
 1237TIP3   OH225269   3.756   4.547   7.851 -0.3877  0.4483 -0.2551
 1237TIP3    H125270   3.827   4.486   7.832 -0.4577  0.5786 -0.9266
 1237TIP3    H225271   3.750   4.546   7.947 -0.9034 -1.1851 -0.2764
 1238TIP3   OH225272   2.005   3.853   1.187  0.0764 -0.3173  0.4561
 1238TIP3    H125273   2.064   3.927   1.204  0.8741 -1.0032  0.7442
 1238TIP3    H225274   1.997   3.809   1.271  1.4982 -1.8908 -0.1747
 1239TIP3   OH225275   3.969   3.133   1.438  0.0820 -0.2104 -0.0648
 1239TIP3    H125276   3.929   3.046   1.439 -0.8339  0.2042  0.1845
 1239TIP3    H225277   4.042   3.126   1.500 -1.3823 -0.1827  1.7509
 1240TIP3   OH225278   0.340   1.855   1.538  0.2520  0.3344  0.6863
 1240TIP3    H125279   0.391   1.870   1.458 -0.0160  0.2506  0.4984
 1240TIP3    H225280   0.250   1.878   1.514  0.2978  1.0348  1.1837
 1241TIP3   OH225281   1.729   3.466   2.718  0.6856  0.0472 -0.0952
 1241TIP3    H125282   1.716   3.375   2.691  0.1517 -0.4485  1.6715
 1241TIP3    H225283   1.815   3.489   2.685  0.2920 -0.6477 -1.7135
 1242TIP3   OH225284   1.283   3.350   1.971 -0.5056  0.1364 -0.0550
 1242TIP3    H125285   1.271   3.410   2.045 -0.6684 -0.5208  0.4589
 1242TIP3    H225286   1.330   3.276   2.008 -2.4971 -1.2215 -0.0797
 1243TIP3   OH225287   4.692   5.344   8.334 -0.0868  0.3320  0.0826
 1243TIP3    H125288   4.700   5.267   8.389  1.2275  0.7671  0.5277
 1243TIP3    H225289   4.644   5.314   8.257 -0.1563 -0.7548  0.5381
 1244TIP3   OH225290   4.519   4.030   0.801  0.2825 -0.0498  0.0809
 1244TIP3    H125291   4.533   4.054   0.893  2.4413  2.0337 -0.6768
 1244TIP3    H225292   4.553   3.941   0.794  1.0329  0.1323  1.1166
 1245TIP3   OH225293   6.236   0.167   0.335  0.3868  0.3283 -0.5334
 1245TIP3    H125294   6.142   0.182   0.327  0.0656  1.5374  3.4752
 1245TIP3    H225295   6.275   0.255   0.332  1.2482 -0.0419 -0.6357
 1246TIP3   OH225296   5.129   0.657   1.313  0.1236 -0.1295  0.8268
 1246TIP3    H125297   5.114   0.744   1.277  0.0559  0.5702  2.4294
 1246TIP3    H225298   5.080   0.657   1.396  2.6199 -0.5374  2.4172
 1247TIP3   OH225299   4.916   3.595   1.643  0.2192 -0.4442  0.0907
 1247TIP3    H125300   4.939   3.656   1.713 -0.2963 -0.2114  0.0669
 1247TIP3    H225301   4.851   3.537   1.682 -2.4543  1.5757 -0.9630
 1248TIP3   OH225302   5.779   4.693   0.672  0.0094 -0.2837 -0.1691
 1248TIP3    H125303   5.715   4.623   0.665 -1.4110  1.1466 -3.1835
 1248TIP3    H225304   5.858   4.657   0.632 -0.1444 -0.7391 -0.0673
 1249TIP3   OH225305   2.657   6.679   8.315  0.6601  0.2562  0.0236
 1249TIP3    H125306   2.600   6.688   8.239 -1.8577 -1.6579  1.5037
 1249TIP3    H225307   2.742   6.711   8.286 -0.6750  1.5132 -2.9193
 1250TIP3   OH225308   6.300   5.528   8.697 -0.2700 -0.3726 -0.4519
 1250TIP3    H125309   6.353   5.469   8.750 -0.4831 -1.0315 -0.9703
 1250TIP3    H225310   6.359   5.602   8.678 -0.0051 -0.4136  0.1919
 1251TIP3   OH225311   2.664   4.304   0.366  0.3257 -0.4847  0.2790
 1251TIP3    H125312   2.681   4.289   0.273  2.0236 -1.1212  0.6649
 1251TIP3    H225313   2.689   4.395   0.380 -1.6337  0.1859 -0.2176
 1252TIP3   OH225314   4.544   0.602   1.124 -0.1001 -0.0928  0.3304
 1252TIP3    H125315   4.563   0.693   1.145  1.8538  0.1964 -2.3042
 1252TIP3    H225316   4.604   0.552   1.180 -0.6107  0.2451  1.1970
 1253TIP3   OH225317   1.633   2.997   0.381  0.3822 -0.1686  0.3419
 1253TIP3    H125318   1.694   2.931   0.348 -0.0765 -1.6952  2.3315
 1253TIP3    H225319   1.551   2.949   0.395 -0.6423  1.3422 -0.1919
 1254TIP3   OH225320   3.708   1.169   1.915 -0.3433  0.6822 -0.3647
 1254TIP3    H125321   3.782   1.224   1.890 -0.7687  0.4133 -2.3225
 1254TIP3    H225322   3.737   1.127   1.996  2.3720 -0.7215 -1.9214
 1255TIP3   OH225323   5.050   4.446   8.583  0.7037  0.0204 -0.1858
 1255TIP3    H125324   4.969   4.421   8.627 -0.8025  1.0840 -2.2045
 1255TIP3    H225325   5.078   4.526   8.627 -0.8937  1.1937 -1.2086
 1256TIP3   OH225326   6.715   4.264   7.852  0.2639  0.3267  0.5533
 1256TIP3    H125327   6.714   4.243   7.758  1.6649 -0.8764  0.7601
 1256TIP3    H225328   6.772   4.341   7.859  0.4815  0.1753  0.4541
 1257TIP3   OH225329   3.045   3.834   2.384  0.7974  0.2209  1.1591
 1257TIP3    H125330   3.132   3.848   2.422  1.9934 -0.0741 -1.2551
 1257TIP3    H225331   3.062   3.791   2.300 -1.5073  2.2395 -0.4973
 1258TIP3   OH225332   1.589   5.543   0.493  0.0168 -0.0940  0.1481
 1258TIP3    H125333   1.616   5.560   0.402 -1.1346 -0.2038 -0.2271
 1258TIP3    H225334   1.565   5.629   0.527  0.1112 -0.1040  0.2414
 1259TIP3   OH225335   0.324   3.603   7.640  0.5836  0.1097  0.3519
 1259TIP3    H125336   0.402   3.558   7.674  0.4031  0.8002  1.7728
 1259TIP3    H225337   0.332   3.692   7.674  0.2837  0.8190 -1.3455
 1260TIP3   OH225338   6.696   3.874   7.838 -0.1994  0.0876 -0.7616
 1260TIP3    H125339   6.642   3.873   7.758 -0.5093  1.1410 -0.5872
 1260TIP3    H225340   6.768   3.934   7.817 -0.7355  1.0452  0.0036
 1261TIP3   OH225341   1.262   4.894   7.164  0.0465 -0.2952  0.1507
 1261TIP3    H125342   1.328   4.826   7.159 -0.5129 -0.7439 -2.0419
 1261TIP3    H225343   1.194   4.857   7.221 -0.1344 -1.5037 -0.8066
 1262TIP3   OH225344   3.520   3.892   8.287 -0.1152 -0.0325 -0.0356
 1262TIP3    H125345   3.486   3.803   8.295  1.1857 -0.5686 -0.3163
 1262TIP3    H225346   3.560   3.896   8.200 -0.2495  0.8640 -0.0734
 1263TIP3   OH225347   5.248   6.577   7.808 -0.2427 -0.3030 -0.2846
 1263TIP3    H125348   5.179   6.577   7.874  0.9497  0.8516  1.0548
 1263TIP3    H225349   5.202   6.588   7.724 -1.6416  1.3551  0.6286
 1264TIP3   OH225350   0.849   5.591   7.835  0.1076 -0.1176 -0.6316
 1264TIP3    H125351   0.764   5.548   7.845 -0.2575  0.9062  0.9558
 1264TIP3    H225352   0.909   5.520   7.812 -1.0120 -0.9943 -0.9250
 1265TIP3   OH225353   0.365   0.378   1.888 -0.2086  0.1785 -0.5633
 1265TIP3    H125354   0.418   0.304   1.916 -0.3145  0.0575 -0.6818
 1265TIP3    H225355   0.299   0.387   1.956  1.5994  2.0872  1.0972
 1266TIP3   OH225356   4.327   6.480   2.591 -0.2402 -0.7697 -0.0694
 1266TIP3    H125357   4.391   6.414   2.563 -0.7764 -1.5523  0.4824
 1266TIP3    H225358   4.266   6.431   2.647 -1.6566 -0.1808 -1.0374
 1267TIP3   OH225359   3.196   4.559   8.274  0.1241  0.2189  0.3352
 1267TIP3    H125360   3.186   4.650   8.247 -1.3110  0.1740  0.6077
 1267TIP3    H225361   3.165   4.508   8.198 -0.9835  0.0292  0.8845
 1268TIP3   OH225362   4.664   6.798   2.245 -0.0055  0.1327  0.2588
 1268TIP3    H125363   4.704   6.885   2.245 -1.3168  0.7586  0.4523
 1268TIP3    H225364   4.578   6.812   2.205  0.3590 -1.3696 -1.1349
 1269TIP3   OH225365   0.530   0.514   2.912 -0.7007 -0.4040  0.5326
 1269TIP3    H125366   0.615   0.502   2.954  0.3177 -1.3140 -1.6002
 1269TIP3    H225367   0.477   0.560   2.977  1.9153  1.7010  1.3843
 1270TIP3   OH225368   0.991   2.139   0.827  0.3260 -0.3769  0.1359
 1270TIP3    H125369   0.914   2.084   0.828  0.0243 -0.0840 -1.9023
 1270TIP3    H225370   1.041   2.110   0.750  0.9350  1.1170 -0.0846
 1271TIP3   OH225371   0.225   2.289   0.317 -0.2411  0.0333 -0.9956
 1271TIP3    H125372   0.238   2.253   0.405  1.7607  0.9925 -0.8286
 1271TIP3    H225373   0.233   2.213   0.259 -2.4018 -0.7474 -0.3706
 1272TIP3   OH225374   0.844   1.184   8.394 -0.4352 -0.1602 -0.5040
 1272TIP3    H125375   0.850   1.098   8.435 -0.5974 -0.5365 -1.2457
 1272TIP3    H225376   0.804   1.240   8.460  0.7218 -0.3760  0.3993
 1273TIP3   OH225377   3.181   3.306   0.423 -0.7226  0.5221  0.1698
 1273TIP3    H125378   3.271   3.336   0.439  0.1332 -0.6023 -2.0502
 1273TIP3    H225379   3.182   3.214   0.449 -1.9033  1.0293  2.1992
 1274TIP3   OH225380   1.255   5.818   0.373  0.1533 -0.4911 -0.3362
 1274TIP3    H125381   1.204   5.893   0.405  0.3198 -0.4136 -0.2518
 1274TIP3    H225382   1.308   5.854   0.302  0.3674 -0.4910 -0.1738
 1275TIP3   OH225383   2.212   3.598   0.077  0.1248  0.8402 -0.1448
 1275TIP3    H125384   2.291   3.544   0.067  0.5887  1.2460  1.1088
 1275TIP3    H225385   2.232   3.656   0.150 -1.7462  0.2047  0.9475
 1276TIP3   OH225386   3.145   6.145   0.170  0.5246 -0.2628 -0.6156
 1276TIP3    H125387   3.050   6.145   0.180  0.4020 -0.4577 -1.7306
 1276TIP3    H225388   3.168   6.053   0.154  0.7028  0.0098 -2.0321
 1277TIP3   OH225389   5.331   4.078   2.900  0.8000  0.2631  0.6251
 1277TIP3    H125390   5.242   4.071   2.865  0.0669 -0.8508  2.5394
 1277TIP3    H225391   5.355   4.169   2.887  0.5793 -0.0128 -2.5391
 1278TIP3   OH225392   6.392   0.401   8.519  0.1574 -0.0207 -0.6899
 1278TIP3    H125393   6.429   0.362   8.440 -1.1379 -0.3908 -1.1542
 1278TIP3    H225394   6.300   0.419   8.496 -0.3506 -0.4847  0.8431
 1279TIP3   OH225395   0.189   4.748   1.963  0.3808 -0.3524 -0.1834
 1279TIP3    H125396   0.132   4.671   1.965  1.0511 -0.8490  0.0188
 1279TIP3    H225397   0.146   4.808   1.901 -1.7539  0.3864  1.8402
 1280TIP3   OH225398   6.230   2.970   1.885  0.3831 -0.2244 -0.4674
 1280TIP3    H125399   6.140   2.939   1.892  0.4636 -0.2916  0.4957
 1280TIP3    H225400   6.223   3.065   1.890  0.2500 -0.1326 -2.0068
 1281TIP3   OH225401   4.504   0.062   8.149 -0.4004 -0.4191 -0.5708
 1281TIP3    H125402   4.423   0.064   8.097 -2.2224  0.6153  2.0932
 1281TIP3    H225403   4.535   0.153   8.147 -2.1486  0.3689  2.3720
 1282TIP3   OH225404   5.585   0.635   1.628  0.5895  0.5809  0.1496
 1282TIP3    H125405   5.655   0.698   1.611  0.2020  1.2120  0.8200
 1282TIP3    H225406   5.514   0.660   1.569  0.8013  0.1603 -0.2820
 1283TIP3   OH225407   5.496   2.949   7.538  0.2442 -0.3108  0.0292
 1283TIP3    H125408   5.516   3.000   7.617 -0.2726 -0.5432  0.3191
 1283TIP3    H225409   5.462   2.867   7.572  0.8440 -0.7643 -0.4355
 1284TIP3   OH225410   6.489   6.741   7.533  0.0426  0.2666 -0.0590
 1284TIP3    H125411   6.577   6.716   7.558 -0.2265  0.0188  0.6585
 1284TIP3    H225412   6.485   6.725   7.438  1.0125  1.0679 -0.2497
 1285TIP3   OH225413   5.990   6.440   0.631 -0.1472 -0.0540 -0.1958
 1285TIP3    H125414   5.959   6.514   0.683 -0.3590 -0.3619  0.1208
 1285TIP3    H225415   5.929   6.369   0.652  0.8114 -0.6880  0.4809
 1286TIP3   OH225416   5.230   6.556   2.444 -0.2454 -0.4772  0.1714
 1286TIP3    H125417   5.152   6.510   2.413  0.1142 -0.5048 -0.7357
 1286TIP3    H225418   5.235   6.535   2.537 -1.2879 -0.5154  0.2264
 1287TIP3   OH225419   4.191   0.786   8.657 -0.6428 -0.3754 -0.6697
 1287TIP3    H125420   4.222   0.742   8.736 -0.0987 -0.3822 -0.8894
 1287TIP3    H225421   4.250   0.758   8.588 -0.7798  0.0632 -0.9730
 1288TIP3   OH225422   2.699   4.993   1.147  0.4518 -0.6826  0.0613
 1288TIP3    H125423   2.652   5.031   1.073  1.1012  0.0672  0.0152
 1288TIP3    H225424   2.634   4.988   1.217  0.3921  0.7645  0.1457
 1289TIP3   OH225425   1.084   3.401   0.606 -0.5437  0.2123  0.1777
 1289TIP3    H125426   1.086   3.426   0.699  0.5239 -0.4274  0.3515
 1289TIP3    H225427   1.023   3.328   0.603 -0.9483  0.5377  0.2839
 1290TIP3   OH225428   2.333   2.975   8.196 -0.2264 -0.2791  0.5795
 1290TIP3    H125429   2.392   2.900   8.194 -0.9928 -0.8749  0.1190
 1290TIP3    H225430   2.247   2.938   8.214 -0.3814  0.6539  1.9230
 1291TIP3   OH225431   2.698   1.292   8.386  0.0099 -0.3290 -0.3832
 1291TIP3    H125432   2.769   1.288   8.450 -1.1009 -0.0301  0.9158
 1291TIP3    H225433   2.691   1.203   8.352  1.0419 -0.3441 -0.5907
 1292TIP3   OH225434   0.477   2.224   0.595  0.4987  0.0082 -0.0357
 1292TIP3    H125435   0.382   2.224   0.589  0.4121  2.8588 -0.0575
 1292TIP3    H225436   0.503   2.136   0.568 -2.0744 -0.5614 -0.9062
 1293TIP3   OH225437   3.901   1.729   1.815  0.1810  0.4217 -0.7760
 1293TIP3    H125438   3.949   1.647   1.822 -0.3201  0.1688 -0.2428
 1293TIP3    H225439   3.910   1.754   1.722  2.1729  0.9051 -0.5103
 1294TIP3   OH225440   2.996   0.547   8.647 -0.2717  0.3117 -0.4699
 1294TIP3    H125441   2.990   0.611   8.576  0.6492  1.5642  0.5400
 1294TIP3    H225442   2.998   0.599   8.727 -2.0050 -1.1078  0.5635
 1295TIP3   OH225443   3.702   1.881   1.214  0.4359 -0.0501  0.1409
 1295TIP3    H125444   3.755   1.945   1.263  2.1740 -0.4792 -1.0911
 1295TIP3    H225445   3.642   1.845   1.280  0.2240  1.9609  1.1348
 1296TIP3   OH225446   2.765   6.202   8.597 -0.4476 -0.3911 -0.4338
 1296TIP3    H125447   2.736   6.268   8.534 -2.0514  0.2408  0.9000
 1296TIP3    H225448   2.821   6.249   8.659 -2.2174 -0.0364  0.9709
 1297TIP3   OH225449   0.231   1.760   2.007 -0.1913  0.4832 -0.1435
 1297TIP3    H125450   0.319   1.758   2.045 -0.3435  0.3873  0.2077
 1297TIP3    H225451   0.192   1.841   2.041 -1.2785 -0.8778  2.1051
 1298TIP3   OH225452   6.436   3.241   7.570 -0.4110  0.2256  0.0270
 1298TIP3    H125453   6.424   3.230   7.476  1.1934 -0.6995 -0.1070
 1298TIP3    H225454   6.527   3.268   7.580 -0.4947  0.0958  1.3240
 1299TIP3   OH225455   0.442   3.875   1.149  0.2572  0.4288  0.2537
 1299TIP3    H125456   0.507   3.851   1.216  1.5859  0.1189 -1.0909
 1299TIP3    H225457   0.358   3.857   1.190  1.0016  0.8021  2.0503
 1300TIP3   OH225458   1.718   5.719   1.418 -0.2386 -0.4943 -0.2493
 1300TIP3    H125459   1.654   5.676   1.361 -1.8807 -0.3129  1.3339
 1300TIP3    H225460   1.694   5.812   1.415 -1.2160 -0.6199  1.6257
 1301TIP3   OH225461   2.262   5.668   2.213 -0.6006  0.0321 -0.1382
 1301TIP3    H125462   2.182   5.668   2.160 -1.3428  1.8374  0.8766
 1301TIP3    H225463   2.232   5.655   2.303  0.3222  0.0122  0.1796
 1302TIP3   OH225464   3.088   6.001   7.676  0.3218 -0.0957  0.2176
 1302TIP3    H125465   3.082   6.014   7.581 -0.3620  1.0171  0.3963
 1302TIP3    H225466   3.051   5.914   7.690 -0.9756  0.3248 -0.3988
 1303TIP3   OH225467   1.484   2.333   7.702  0.2604  0.2429  0.3277
 1303TIP3    H125468   1.536   2.299   7.775  1.4929  1.5535  0.1076
 1303TIP3    H225469   1.488   2.264   7.635 -0.5615 -0.8047  1.3130
 1304TIP3   OH225470   4.921   3.340   8.376  0.2183 -0.2423  0.5053
 1304TIP3    H125471   4.828   3.317   8.377 -0.0163  0.6311  1.5345
 1304TIP3    H225472   4.958   3.290   8.449  0.2237  0.5582  1.0750
 1305TIP3   OH225473   4.109   1.996   6.892 -0.3217  0.5405  0.1335
 1305TIP3    H125474   4.196   2.024   6.862 -0.8869  2.1613 -0.0878
 1305TIP3    H225475   4.124   1.965   6.981  0.3822  1.5470  0.3942
 1306TIP3   OH225476   2.351   3.100   2.522 -0.0776  0.2071 -0.1893
 1306TIP3    H125477   2.339   3.194   2.503 -1.6080 -0.0966 -0.9606
 1306TIP3    H225478   2.279   3.079   2.581  0.1546 -0.5194 -0.1642
 1307TIP3   OH225479   4.271   4.321   1.034  0.3150 -0.5275  0.0196
 1307TIP3    H125480   4.338   4.306   0.968  0.1284  2.0142 -0.8518
 1307TIP3    H225481   4.292   4.406   1.071 -2.8034  0.7403 -0.8192
 1308TIP3   OH225482   2.508   1.337   0.697 -1.0422  0.3412 -0.1624
 1308TIP3    H125483   2.493   1.422   0.739 -1.0968 -0.0306  0.5739
 1308TIP3    H225484   2.600   1.340   0.670 -1.2166  0.8825 -0.7326
 1309TIP3   OH225485   3.443   2.637   2.230 -0.2692 -0.0792 -0.2864
 1309TIP3    H125486   3.508   2.697   2.196  0.4585 -0.7732 -0.1407
 1309TIP3    H225487   3.423   2.669   2.318 -1.2825  1.0272 -0.8895
 1310TIP3   OH225488   2.059   1.787   8.522  0.7889 -0.5772  0.5359
 1310TIP3    H125489   2.044   1.800   8.429  0.7036 -1.3066  0.4453
 1310TIP3    H225490   1.985   1.733   8.552  0.1794  0.6135  1.2720
 1311TIP3   OH225491   5.990   5.613   7.860 -0.6889  0.0610  0.3066
 1311TIP3    H125492   5.968   5.587   7.770 -0.5516  0.7063  0.0750
 1311TIP3    H225493   5.960   5.704   7.866  0.3190  0.3953  0.5387
 1312TIP3   OH225494   1.752   5.248   0.198  0.8175 -0.0478  0.1836
 1312TIP3    H125495   1.661   5.266   0.219  0.9989  0.5775  0.4588
 1312TIP3    H225496   1.760   5.267   0.105  0.7977  0.4662  0.2838
 1313TIP3   OH225497   4.408   4.926   7.195 -0.0682  0.5321 -0.3030
 1313TIP3    H125498   4.445   4.846   7.232  0.9881  0.6428 -1.0877
 1313TIP3    H225499   4.483   4.974   7.161 -0.7758  1.4899 -0.5598
 1314TIP3   OH225500   6.200   0.148   7.280  0.0943  0.7712 -0.8717
 1314TIP3    H125501   6.291   0.119   7.276  0.6002  2.3609 -2.0268
 1314TIP3    H225502   6.159   0.107   7.203 -0.3478 -0.4127 -0.0337
 1315TIP3   OH225503   1.344   1.019   1.378 -0.3715  0.5344  0.1405
 1315TIP3    H125504   1.310   1.057   1.297  1.3040  2.4006  0.2466
 1315TIP3    H225505   1.308   1.075   1.448  0.3855  0.6218  0.4675
 1316TIP3   OH225506   5.003   3.740   1.930  0.1324 -0.0143  0.6431
 1316TIP3    H125507   5.087   3.728   1.975  0.2016 -1.7078  0.1302
 1316TIP3    H225508   4.945   3.777   1.997  0.5675 -1.3767  1.8167
 1317TIP3   OH225509   4.194   0.308   0.163 -0.1759 -0.3124  0.3183
 1317TIP3    H125510   4.103   0.332   0.177 -0.8442 -1.7172 -1.2963
 1317TIP3    H225511   4.196   0.267   0.077  2.2295  0.8317 -0.2738
 1318TIP3   OH225512   1.048   3.161   1.978  0.6209  0.0546 -0.8661
 1318TIP3    H125513   1.121   3.216   2.004  0.1629 -0.3665  1.5333
 1318TIP3    H225514   1.083   3.072   1.980 -0.1840 -0.2785  1.5497
 1319TIP3   OH225515   4.798   6.782   7.998  0.3440  0.0409 -0.3571
 1319TIP3    H125516   4.823   6.775   8.090 -1.2941  1.7833  0.2901
 1319TIP3    H225517   4.708   6.748   7.996  0.2872  0.2398 -1.2610
 1320TIP3   OH225518   3.920   3.520   0.763 -0.0839  0.0749 -0.3304
 1320TIP3    H125519   3.888   3.447   0.816  0.0191 -0.1841 -0.6230
 1320TIP3    H225520   3.887   3.598   0.808 -1.4813 -0.1931 -0.8471
 1321TIP3   OH225521   1.757   5.270   2.018  0.9376 -0.3638 -0.3024
 1321TIP3    H125522   1.752   5.317   2.101 -0.4588  0.5615 -0.8762
 1321TIP3    H225523   1.684   5.208   2.021  1.2007 -0.6933 -0.6240
 1322TIP3   OH225524   0.078   4.390   8.175 -1.3024  0.1684 -0.1461
 1322TIP3    H125525   0.094   4.365   8.265  0.1963 -0.9260 -0.6751
 1322TIP3    H225526   0.041   4.312   8.134  1.8803 -0.8634 -1.4128
 1323TIP3   OH225527   3.673   2.400   8.441  1.2902 -0.0001  0.3149
 1323TIP3    H125528   3.758   2.425   8.478  0.5157  1.8535  0.9603
 1323TIP3    H225529   3.612   2.409   8.514  0.1921  0.8889 -0.6806
 1324TIP3   OH225530   4.349   1.677   1.931 -0.1434 -0.0650 -0.5184
 1324TIP3    H125531   4.325   1.726   2.010  0.4045  0.7373 -0.8463
 1324TIP3    H225532   4.355   1.743   1.862  1.5880 -0.4280 -0.7563
 1325TIP3   OH225533   1.637   0.648   1.537  0.0985  0.2332 -0.3980
 1325TIP3    H125534   1.639   0.560   1.500 -0.1144  0.5120 -1.0769
 1325TIP3    H225535   1.714   0.652   1.594  0.0879 -0.4002 -0.3336
 1326TIP3   OH225536   2.313   4.279   8.501 -0.3069 -0.3213 -0.5073
 1326TIP3    H125537   2.359   4.347   8.451 -1.3725 -0.0910 -1.1898
 1326TIP3    H225538   2.261   4.233   8.436 -1.4066 -0.2766  0.3285
 1327TIP3   OH225539   5.360   1.336   8.038 -0.3709  0.5272 -0.8212
 1327TIP3    H125540   5.408   1.254   8.049 -1.5686  0.0436  1.8931
 1327TIP3    H225541   5.287   1.314   7.980 -1.4853 -0.8381  0.9530
 1328TIP3   OH225542   2.016   0.661   1.880 -0.2308 -0.0622  0.4489
 1328TIP3    H125543   2.004   0.754   1.894  1.7102  0.2947  0.1086
 1328TIP3    H225544   2.004   0.621   1.966 -1.3904  0.4300  0.5350
 1329TIP3   OH225545   1.816   2.662   2.772 -0.3070  0.6873  0.0207
 1329TIP3    H125546   1.743   2.601   2.759  2.1927 -1.9818 -3.1894
 1329TIP3    H225547   1.863   2.627   2.848  1.8208 -2.5824 -2.5038
 1330TIP3   OH225548   3.553   5.690   2.897 -0.5293  0.1782  0.2523
 1330TIP3    H125549   3.496   5.765   2.885 -0.3279  0.3749  0.4959
 1330TIP3    H225550   3.494   5.617   2.915 -0.7514  0.1692 -0.5019
 1331TIP3   OH225551   2.372   0.346   7.891 -0.1435  0.2669 -0.3595
 1331TIP3    H125552   2.377   0.398   7.810 -0.3512  0.7851 -0.0448
 1331TIP3    H225553   2.387   0.410   7.961  2.5056 -0.5760 -0.0640
 1332TIP3   OH225554   0.855   6.501   0.153 -0.0248 -0.5171  0.6126
 1332TIP3    H125555   0.826   6.583   0.115  1.7061 -0.8004 -1.5083
 1332TIP3    H225556   0.776   6.463   0.192 -1.7841  0.2907 -1.8849
 1333TIP3   OH225557   1.317   1.885   0.190 -0.5127 -0.0071  0.2681
 1333TIP3    H125558   1.372   1.815   0.156 -0.1899  0.5998 -0.5039
 1333TIP3    H225559   1.337   1.960   0.134 -1.6740  0.3934  0.3541
 1334TIP3   OH225560   2.503   1.856   0.862 -0.6260 -0.1290  0.0293
 1334TIP3    H125561   2.476   1.802   0.788  1.3595 -0.4212 -0.5588
 1334TIP3    H225562   2.508   1.796   0.936  0.6793 -0.5985 -0.4135
 1335TIP3   OH225563   4.453   4.609   8.230 -0.6267 -0.1127 -0.1860
 1335TIP3    H125564   4.493   4.527   8.199 -2.5475  0.2073 -4.1320
 1335TIP3    H225565   4.365   4.583   8.257 -0.7333  0.4568  0.0124
 1336TIP3   OH225566   1.394   0.619   6.847 -0.1167  0.1528  0.4887
 1336TIP3    H125567   1.329   0.687   6.830 -0.0569 -0.1280 -1.0089
 1336TIP3    H225568   1.351   0.538   6.820 -0.0281 -0.3661  1.8471
 1337TIP3   OH225569   5.657   4.541   8.224 -0.6950 -0.3786  0.5072
 1337TIP3    H125570   5.679   4.483   8.297 -1.5271 -1.9482 -0.4474
 1337TIP3    H225571   5.564   4.557   8.233 -0.8391 -0.7268 -0.2972
 1338TIP3   OH225572   4.071   5.295   8.230  0.0863 -0.7100 -0.0977
 1338TIP3    H125573   4.050   5.244   8.308 -0.2727  0.2504  0.4483
 1338TIP3    H225574   3.993   5.349   8.215 -0.3286 -1.7125 -1.8124
 1339TIP3   OH225575   4.848   0.139   1.434 -0.2168 -0.0496  0.1435
 1339TIP3    H125576   4.757   0.154   1.408 -0.2114  0.8602  0.5842
 1339TIP3    H225577   4.842   0.087   1.514 -0.3704  0.3675  0.4062
 1340TIP3   OH225578   3.506   6.457   2.356 -0.3190  0.2136 -0.5179
 1340TIP3    H125579   3.549   6.444   2.441 -0.2944  2.1702 -0.1832
 1340TIP3    H225580   3.451   6.534   2.369 -3.0453 -1.4614 -1.2923
 1341TIP3   OH225581   1.679   2.629   2.273 -0.0580 -0.7479  0.3004
 1341TIP3    H125582   1.626   2.652   2.196  1.1607  1.6285  0.0595
 1341TIP3    H225583   1.726   2.550   2.246  1.9590  1.1709 -2.3552
 1342TIP3   OH225584   5.369   5.470   7.555 -0.1638  0.2072  0.0647
 1342TIP3    H125585   5.321   5.505   7.631 -1.3744 -0.4966 -0.3516
 1342TIP3    H225586   5.341   5.379   7.549  0.4785  0.0561 -0.8142
 1343TIP3   OH225587   3.347   0.207   0.319  0.5584  0.7325  0.4421
 1343TIP3    H125588   3.262   0.251   0.328  0.0804 -0.0421 -0.1547
 1343TIP3    H225589   3.372   0.184   0.408 -0.2540  0.2530  0.5539
 1344TIP3   OH225590   1.983   5.144   1.363  0.1883 -0.2215  0.2409
 1344TIP3    H125591   1.965   5.217   1.304  0.8958 -0.0140  0.2719
 1344TIP3    H225592   1.949   5.067   1.316 -0.3587  0.0917  0.1120
 1345TIP3   OH225593   4.500   1.865   0.566 -0.1518 -0.4685 -0.3493
 1345TIP3    H125594   4.409   1.836   0.561  0.3158 -1.8638 -1.3304
 1345TIP3    H225595   4.521   1.894   0.477 -0.2996  2.1013  0.3688
 1346TIP3   OH225596   1.340   1.822   7.925 -0.0118  0.0081 -0.3897
 1346TIP3    H125597   1.293   1.739   7.936  0.6012 -0.2698  0.2583
 1346TIP3    H225598   1.426   1.796   7.893  0.3526  0.3486  0.2922
 1347TIP3   OH225599   6.276   4.612   1.124  0.4793 -0.3502  0.2433
 1347TIP3    H125600   6.233   4.623   1.209  1.3093 -0.4682  0.6873
 1347TIP3    H225601   6.271   4.698   1.083  1.6928  0.2060  1.1967
 1348TIP3   OH225602   6.678   5.915   7.848 -0.6316  0.1072  0.2918
 1348TIP3    H125603   6.657   6.005   7.825  0.7301  0.2399 -0.5467
 1348TIP3    H225604   6.749   5.922   7.912 -0.9836 -0.3652  0.7462
 1349TIP3   OH225605   6.629   4.492   6.908 -0.0032 -0.0950  0.1208
 1349TIP3    H125606   6.690   4.444   6.964  2.3647  0.7314 -1.5750
 1349TIP3    H225607   6.571   4.425   6.872  1.3924 -1.2852  0.0278
 1350TIP3   OH225608   2.913   2.535   1.821 -0.3612 -0.0093  0.1977
 1350TIP3    H125609   2.868   2.601   1.768 -0.3001  0.0551  0.2250
 1350TIP3    H225610   2.913   2.456   1.767 -0.7969 -0.1013  0.3330
 1351TIP3   OH225611   0.768   1.729   6.848 -0.2926  0.2669  0.5320
 1351TIP3    H125612   0.718   1.810   6.856  0.3023  1.0767 -2.4874
 1351TIP3    H225613   0.739   1.692   6.765  1.2374 -1.3159  0.6624
 1352TIP3   OH225614   1.638   4.519   3.080 -0.0886 -0.3538  0.1547
 1352TIP3    H125615   1.729   4.548   3.080  0.2038 -0.8726  3.3943
 1352TIP3    H225616   1.643   4.425   3.062  0.0750 -0.4299  0.5750
 1353TIP3   OH225617   6.075   6.583   1.009  0.3772 -0.0301  0.2865
 1353TIP3    H125618   6.043   6.662   1.053  1.1382 -0.0444  0.8843
 1353TIP3    H225619   6.025   6.580   0.927 -1.2704 -0.1352  1.2427
 1354TIP3   OH225620   3.619   4.285   1.902  0.0666 -0.7664 -0.1144
 1354TIP3    H125621   3.653   4.370   1.873  0.6711 -2.1307 -4.1261
 1354TIP3    H225622   3.524   4.295   1.902  0.1476  0.0889  0.2446
 1355TIP3   OH225623   1.078   4.839   8.107  0.1138 -0.3133  0.7394
 1355TIP3    H125624   1.078   4.780   8.032 -1.2312 -0.7630  1.0603
 1355TIP3    H225625   1.073   4.926   8.069 -2.8374 -0.5795  0.2193
 1356TIP3   OH225626   4.691   3.714   2.398  0.5731 -0.1805 -0.1904
 1356TIP3    H125627   4.619   3.741   2.454 -0.1016  0.6979 -1.4199
 1356TIP3    H225628   4.752   3.669   2.456 -0.1699  0.5440  1.1916
 1357TIP3   OH225629   4.156   1.722   1.414  0.1597 -0.3085  0.1536
 1357TIP3    H125630   4.158   1.644   1.358  2.1554 -0.4173  0.3138
 1357TIP3    H225631   4.153   1.795   1.352  0.5617 -0.4620 -0.0488
 1358TIP3   OH225632   0.858   4.266   2.033 -0.0175 -0.2793 -0.6077
 1358TIP3    H125633   0.893   4.286   1.946  0.3066 -1.4544 -0.7569
 1358TIP3    H225634   0.904   4.326   2.092 -0.1628  0.4468 -1.2224
 1359TIP3   OH225635   4.557   3.587   7.746  0.2730  0.4334 -0.8091
 1359TIP3    H125636   4.509   3.504   7.744 -2.3743  1.8299 -0.0801
 1359TIP3    H225637   4.648   3.561   7.755 -0.5398 -2.3965  0.7095
 1360TIP3   OH225638   5.182   5.930   2.478 -0.2657 -0.8505 -0.1138
 1360TIP3    H125639   5.267   5.957   2.512 -1.1821  0.4271  1.3062
 1360TIP3    H225640   5.195   5.924   2.383  1.3173 -0.3632  0.0350
 1361TIP3   OH225641   4.743   6.637   0.077 -0.1278 -0.0640 -0.4569
 1361TIP3    H125642   4.666   6.608   0.029  0.2442  1.5173 -2.1515
 1361TIP3    H225643   4.729   6.608   0.167 -1.2670 -2.4084 -1.3235
 1362TIP3   OH225644   2.892   1.661   7.796  0.1973  0.1265  0.1245
 1362TIP3    H125645   2.945   1.686   7.720 -1.4481  1.4059 -0.6629
 1362TIP3    H225646   2.956   1.653   7.868  1.4524  1.7066 -0.7455
 1363TIP3   OH225647   0.719   1.354   8.187 -0.0455 -0.1902 -0.6029
 1363TIP3    H125648   0.764   1.430   8.223  2.0013 -0.7612 -1.7947
 1363TIP3    H225649   0.741   1.282   8.245 -1.4868 -0.0453  0.1793
 1364TIP3   OH225650   1.115   1.896   7.646  0.3461  0.5707  0.0946
 1364TIP3    H125651   1.023   1.870   7.637  0.8305 -0.8728 -1.3067
 1364TIP3    H225652   1.122   1.931   7.735 -1.7583  1.6807 -0.1021
 1365TIP3   OH225653   0.814   6.675   7.472  0.0901  0.0949 -0.1142
 1365TIP3    H125654   0.860   6.686   7.389 -0.1954  1.0513 -0.1521
 1365TIP3    H225655   0.742   6.616   7.452 -0.6409  1.1970 -0.8203
 1366TIP3   OH225656   4.153   0.794   0.588 -0.2323 -0.9694 -0.0453
 1366TIP3    H125657   4.142   0.884   0.619  0.1061 -1.2939  1.0486
 1366TIP3    H225658   4.068   0.753   0.605 -0.9269 -0.4840 -1.9723
 1367TIP3   OH225659   6.654   6.628   2.387  0.3206 -0.1711 -0.0665
 1367TIP3    H125660   6.594   6.670   2.449 -0.1625 -0.6220 -0.2185
 1367TIP3    H225661   6.629   6.536   2.387  1.6177 -0.5388  0.5260
 1368TIP3   OH225662   3.738   6.686   7.561 -0.6219 -0.1283  0.4811
 1368TIP3    H125663   3.805   6.740   7.603 -2.0574  2.0533  0.1227
 1368TIP3    H225664   3.758   6.691   7.468 -1.6336  1.1066  0.3095
 1369TIP3   OH225665   6.182   1.207   1.600 -0.3064 -0.0085 -0.3324
 1369TIP3    H125666   6.240   1.134   1.621  1.2013  0.7176 -1.7532
 1369TIP3    H225667   6.187   1.265   1.676  0.5233 -0.1635 -0.2580
 1370TIP3   OH225668   2.649   6.607   1.740  0.0787  0.7361  0.2202
 1370TIP3    H125669   2.575   6.656   1.704  1.2038  1.8157 -0.7190
 1370TIP3    H225670   2.628   6.597   1.833 -1.8792 -0.2176 -0.2707
 1371TIP3   OH225671   1.072   3.807   3.408  0.1374 -0.0891 -0.1570
 1371TIP3    H125672   1.046   3.719   3.432 -0.8568 -0.1302 -1.2846
 1371TIP3    H225673   1.150   3.795   3.354 -0.2701 -0.3192 -0.6991
 1372TIP3   OH225674   4.974   4.058   7.916  0.1786  0.3942 -0.4753
 1372TIP3    H125675   5.048   4.098   7.962  1.6546 -0.0784 -2.2718
 1372TIP3    H225676   4.969   3.970   7.952  1.0836  0.1443 -0.9118
 1373TIP3   OH225677   3.141   4.914   0.803  0.0333  0.2629  0.1242
 1373TIP3    H125678   3.120   4.880   0.889 -0.1673 -0.0334 -0.0397
 1373TIP3    H225679   3.163   5.006   0.818 -0.6041  0.3748  0.4126
 1374TIP3   OH225680   4.932   6.107   1.293 -0.4777  0.8241 -0.5297
 1374TIP3    H125681   4.917   6.078   1.383 -0.4076  1.4991 -0.2922
 1374TIP3    H225682   4.916   6.029   1.240  1.2297 -0.0628  0.1921
 1375TIP3   OH225683   3.732   5.071   8.434  0.6608  0.1551  0.5841
 1375TIP3    H125684   3.675   5.140   8.467 -0.8382 -1.3301  1.2582
 1375TIP3    H225685   3.700   4.991   8.476  3.1956 -0.7809  0.8981
 1376TIP3   OH225686   1.990   6.512   1.386  0.0479 -0.5919 -0.2613
 1376TIP3    H125687   2.014   6.458   1.311 -1.5145 -3.1400  0.9282
 1376TIP3    H225688   1.921   6.463   1.430 -0.1442  1.5132  2.0352
 1377TIP3   OH225689   6.091   3.172   8.365  0.0200  0.3373  0.5309
 1377TIP3    H125690   6.084   3.259   8.404  0.8755 -0.0735  1.6226
 1377TIP3    H225691   6.150   3.184   8.291  1.2223  0.4386  1.4814
 1378TIP3   OH225692   6.397   6.364   0.461 -0.1588  0.1941  0.4158
 1378TIP3    H125693   6.456   6.311   0.407  0.1042  0.5987  0.2991
 1378TIP3    H225694   6.427   6.454   0.447  0.4393  0.2475  1.8698
 1379TIP3   OH225695   5.953   2.901   7.472  0.2120 -0.0964  0.6615
 1379TIP3    H125696   5.869   2.908   7.428 -0.6168 -1.7736  1.8902
 1379TIP3    H225697   5.980   2.810   7.459  0.4639 -0.3400  2.6214
 1380TIP3   OH225698   4.121   6.274   8.011 -0.0822  0.0119 -0.7785
 1380TIP3    H125699   4.026   6.275   8.020 -0.0268 -1.3129  0.3491
 1380TIP3    H225700   4.153   6.244   8.097  1.2555 -1.0980 -1.6173
 1381TIP3   OH225701   3.110   3.610   1.595 -0.1066  0.1615  0.4659
 1381TIP3    H125702   3.156   3.526   1.600 -0.4207 -0.0281  0.2227
 1381TIP3    H225703   3.179   3.676   1.604 -0.0129 -0.1122  2.0611
 1382TIP3   OH225704   2.423   2.623   2.242  0.0962 -0.9167  0.1258
 1382TIP3    H125705   2.487   2.635   2.172 -1.4799  0.7097 -1.1389
 1382TIP3    H225706   2.455   2.548   2.292  1.4164 -1.9919 -2.1821
 1383TIP3   OH225707   3.252   1.190   1.651 -0.3640  0.1394 -0.5176
 1383TIP3    H125708   3.267   1.096   1.640 -1.0410 -0.0232 -0.1030
 1383TIP3    H225709   3.337   1.224   1.678 -0.1166 -0.3590 -0.6453
 1384TIP3   OH225710   4.356   5.771   2.342 -0.0751 -0.0263  0.0752
 1384TIP3    H125711   4.275   5.728   2.369  0.3129 -2.6623 -2.5150
 1384TIP3    H225712   4.341   5.800   2.252  1.4668  0.5111 -0.0530
 1385TIP3   OH225713   6.112   1.230   7.868 -0.1182  0.1559 -0.2456
 1385TIP3    H125714   6.205   1.230   7.894  0.2024 -0.5888 -1.3296
 1385TIP3    H225715   6.109   1.176   7.789 -1.2637  1.2592 -1.0031
 1386TIP3   OH225716   6.831   2.619   8.638  0.1023 -0.7809 -0.3388
 1386TIP3    H125717   6.881   2.664   8.707  1.2333 -1.3633 -0.7508
 1386TIP3    H225718   6.877   2.536   8.626 -1.6337 -1.8436  0.0279
 1387TIP3   OH225719   0.882   0.919   0.169  0.4848 -0.7990 -0.3020
 1387TIP3    H125720   0.832   0.982   0.222 -1.7096  0.9723 -4.0682
 1387TIP3    H225721   0.827   0.840   0.168 -0.1771 -0.3486 -0.9541
 1388TIP3   OH225722   0.415   3.726   0.901  0.1877  0.2879  0.2918
 1388TIP3    H125723   0.406   3.632   0.885  0.6441  0.3014 -0.0831
 1388TIP3    H225724   0.407   3.736   0.996  1.9495 -0.3486  0.5312
 1389TIP3   OH225725   5.653   4.955   2.017 -0.6924  0.2230  0.5385
 1389TIP3    H125726   5.615   5.031   1.974 -1.2713  0.1736  0.9535
 1389TIP3    H225727   5.586   4.887   2.011 -0.6010  0.0722  1.0880
 1390TIP3   OH225728   5.651   0.729   8.395  0.1551  0.7466 -0.1180
 1390TIP3    H125729   5.656   0.812   8.347 -2.0616  1.7978  1.2589
 1390TIP3    H225730   5.707   0.742   8.472 -1.5388  1.7329  1.0160
 1391TIP3   OH225731   6.306   5.678   1.051  0.5766 -0.4266  0.1104
 1391TIP3    H125732   6.290   5.647   1.140  0.9701 -1.9633 -0.3212
 1391TIP3    H225733   6.400   5.698   1.049  0.3218  0.9302  0.3948
 1392TIP3   OH225734   1.691   1.634   0.578  0.4400 -0.0248  0.5650
 1392TIP3    H125735   1.654   1.591   0.655 -0.2216  1.2040  0.9616
 1392TIP3    H225736   1.635   1.711   0.565  0.2756 -0.4431 -1.4064
 1393TIP3   OH225737   5.299   1.176   7.242 -0.2661  0.4658  0.3317
 1393TIP3    H125738   5.296   1.160   7.148  1.3918  0.3825  0.2574
 1393TIP3    H225739   5.320   1.091   7.280  1.1809  0.8901  0.5651
 1394TIP3   OH225740   0.771   2.931   2.353  0.0942 -0.2908 -0.4596
 1394TIP3    H125741   0.842   2.893   2.404  1.0171  1.3825 -0.4165
 1394TIP3    H225742   0.790   2.907   2.262  0.5757 -0.0524 -0.4214
 1395TIP3   OH225743   5.420   4.614   8.633  0.8445  0.4381  0.4609
 1395TIP3    H125744   5.419   4.705   8.605  0.1859  1.1452  2.5742
 1395TIP3    H225745   5.503   4.605   8.681  1.5736 -0.5009 -0.9152
 1396TIP3   OH225746   6.579   6.443   1.795  0.6308  0.1162 -0.1370
 1396TIP3    H125747   6.578   6.347   1.797 -1.2676  0.0533 -1.3415
 1396TIP3    H225748   6.577   6.468   1.888  1.6999 -0.9684  0.2152
 1397TIP3   OH225749   5.051   3.241   8.591 -0.1197  0.3157 -0.0586
 1397TIP3    H125750   5.117   3.171   8.584  0.5365  0.8279  0.7379
 1397TIP3    H225751   5.067   3.280   8.677 -0.6280  1.2959 -0.3939
 1398TIP3   OH225752   4.241   2.105   0.267 -0.3402 -0.4826 -0.2120
 1398TIP3    H125753   4.193   2.037   0.315  0.3228 -1.3101 -0.6875
 1398TIP3    H225754   4.228   2.083   0.175 -0.4890  0.3096 -0.3865
 1399TIP3   OH225755   2.028   3.173   3.074  0.9552 -0.1808  0.1096
 1399TIP3    H125756   2.019   3.191   2.981  1.3034 -1.6197 -0.2388
 1399TIP3    H225757   2.033   3.259   3.115  1.2130  0.4815 -1.2427
 1400TIP3   OH225758   0.095   1.866   7.408 -0.2268 -0.2277  0.7842
 1400TIP3    H125759   0.006   1.877   7.443 -0.5073 -1.9940  0.7036
 1400TIP3    H225760   0.100   1.930   7.337 -1.1207  0.5035  1.3528
 1401TIP3   OH225761   4.172   5.747   0.435 -0.3471  0.2389 -0.6559
 1401TIP3    H125762   4.125   5.785   0.509  1.3425  2.0489 -0.4143
 1401TIP3    H225763   4.140   5.657   0.430 -2.7943  0.9678  0.2714
 1402TIP3   OH225764   1.468   3.708   1.996  0.4262  0.5221  0.6284
 1402TIP3    H125765   1.543   3.730   2.051  0.7348  1.1854 -0.0333
 1402TIP3    H225766   1.424   3.792   1.980  0.0082  0.2561  0.3484
 1403TIP3   OH225767   0.272   1.733   2.362 -0.0175  0.1111 -0.1468
 1403TIP3    H125768   0.184   1.770   2.364 -0.2895 -0.5432  0.6194
 1403TIP3    H225769   0.330   1.808   2.368 -0.5260  0.5342 -0.4136
 1404TIP3   OH225770   0.851   1.129   1.680  0.4107  0.0716  0.6783
 1404TIP3    H125771   0.923   1.101   1.738  0.0156 -1.6001  0.4293
 1404TIP3    H225772   0.839   1.221   1.700  1.8603  0.1131  1.5633
 1405TIP3   OH225773   4.581   2.571   0.198  0.2966 -0.4653 -0.0489
 1405TIP3    H125774   4.523   2.563   0.123  1.2655 -0.7696 -0.7901
 1405TIP3    H225775   4.630   2.652   0.182  0.9326 -0.8476 -0.0587
 1406TIP3   OH225776   3.082   6.433   0.535 -0.0898 -0.2822  0.0399
 1406TIP3    H125777   3.051   6.385   0.459  1.1893  0.8296 -1.2408
 1406TIP3    H225778   3.142   6.498   0.500 -0.4974  1.1769  1.8691
 1407TIP3   OH225779   6.041   3.500   8.188 -0.1187 -0.2947 -0.3588
 1407TIP3    H125780   6.048   3.592   8.213 -0.7132 -0.5694  0.8891
 1407TIP3    H225781   5.953   3.491   8.153  0.4219 -0.1010 -1.8494
 1408TIP3   OH225782   6.403   3.003   8.341  0.5978 -0.6835  0.1310
 1408TIP3    H125783   6.413   3.006   8.436  2.2176 -2.2893  0.0713
 1408TIP3    H225784   6.315   2.969   8.327  0.1549  0.0463  1.0307
 1409TIP3   OH225785   5.784   3.373   0.412  0.7655 -0.0440 -0.1335
 1409TIP3    H125786   5.750   3.305   0.470 -0.6896  0.5298 -0.2640
 1409TIP3    H225787   5.735   3.452   0.437  1.4456  0.6387 -0.8962
 1410TIP3   OH225788   5.640   2.117   2.355 -0.1445  0.1516 -0.2346
 1410TIP3    H125789   5.618   2.085   2.443  0.6717  2.5036  0.9018
 1410TIP3    H225790   5.620   2.210   2.358 -0.3157  0.2475 -2.6713
 1411TIP3   OH225791   2.515   3.033   2.322 -0.9272  0.2394  0.1483
 1411TIP3    H125792   2.450   3.059   2.386  0.7229  0.7105  1.7113
 1411TIP3    H225793   2.546   2.947   2.351  0.3802  0.7913  0.4668
 1412TIP3   OH225794   6.300   4.868   7.042  0.1823 -0.2868  1.2426
 1412TIP3    H125795   6.313   4.779   7.008 -0.0170 -0.0153  0.4254
 1412TIP3    H225796   6.230   4.905   6.987  2.8298  1.7018 -1.0523
 1413TIP3   OH225797   5.079   4.389   1.721  0.1931 -0.2961 -0.1830
 1413TIP3    H125798   5.099   4.378   1.814 -1.1351 -2.3371 -0.0791
 1413TIP3    H225799   5.160   4.420   1.683  0.9444  0.0107  1.5513
 1414TIP3   OH225800   5.934   2.763   8.442  0.1268  0.0275 -0.2632
 1414TIP3    H125801   5.868   2.771   8.511  0.1942 -0.1775 -0.1758
 1414TIP3    H225802   5.983   2.845   8.446  0.9129 -0.4670  0.7314
 1415TIP3   OH225803   2.983   4.944   2.907  0.5099 -0.0529 -0.4760
 1415TIP3    H125804   3.064   4.992   2.894 -0.5238  1.7542 -0.5047
 1415TIP3    H225805   2.936   4.993   2.975  0.1670 -2.0404  0.8150
 1416TIP3   OH225806   1.527   1.330   7.894 -1.1685 -0.7951  0.1614
 1416TIP3    H125807   1.566   1.344   7.808 -0.3106  0.6265  0.7333
 1416TIP3    H225808   1.440   1.296   7.876 -1.1379 -0.1785 -1.2847
 1417TIP3   OH225809   0.364   3.724   1.930 -0.0831 -0.3194 -0.3322
 1417TIP3    H125810   0.349   3.780   1.854 -0.0534  1.3312  0.8202
 1417TIP3    H225811   0.428   3.773   1.983  0.4118 -1.7408  0.4355
 1418TIP3   OH225812   2.382   5.401   2.301 -0.1675 -0.4524  0.3528
 1418TIP3    H125813   2.295   5.400   2.343 -0.4060  0.7107 -0.0921
 1418TIP3    H225814   2.385   5.484   2.255  1.2988 -0.3804  0.5600
 1419TIP3   OH225815   6.657   4.660   0.135 -0.0974 -0.9652  0.4475
 1419TIP3    H125816   6.647   4.564   0.131  1.4662 -1.2083  1.5557
 1419TIP3    H225817   6.708   4.675   0.214  0.5742  0.7233 -0.2730
 1420TIP3   OH225818   5.892   2.225   7.274  0.4362  0.5121 -0.1078
 1420TIP3    H125819   5.983   2.203   7.297  0.7812  1.1429 -0.8229
 1420TIP3    H225820   5.899   2.303   7.219 -0.5410  0.5412 -0.2141
 1421TIP3   OH225821   1.666   3.239   1.503 -0.3676 -0.2067 -0.7182
 1421TIP3    H125822   1.625   3.176   1.562 -0.5848 -1.8700 -2.5383
 1421TIP3    H225823   1.598   3.304   1.485 -0.3715  0.1856  0.6048
 1422TIP3   OH225824   5.378   2.538   0.656  0.3895  0.4482 -0.2664
 1422TIP3    H125825   5.330   2.593   0.717 -0.5050 -0.7436  0.1580
 1422TIP3    H225826   5.312   2.475   0.624  1.3664 -0.3827 -0.6950
 1423TIP3   OH225827   3.852   6.611   1.605 -0.0901 -0.2270 -0.3558
 1423TIP3    H125828   3.823   6.554   1.676 -1.5667  0.9979  0.0868
 1423TIP3    H225829   3.878   6.551   1.534 -0.5221 -1.4352  0.4832
 1424TIP3   OH225830   3.537   6.066   1.873 -0.3309  0.0005  0.0884
 1424TIP3    H125831   3.545   6.145   1.820 -1.6126  0.0483 -0.0756
 1424TIP3    H225832   3.586   5.999   1.825 -0.4707  0.3421 -0.5439
 1425TIP3   OH225833   1.619   6.131   1.887  0.0246 -0.0579  0.1943
 1425TIP3    H125834   1.591   6.143   1.977  1.1369  2.6662  0.2489
 1425TIP3    H225835   1.544   6.090   1.844 -1.8490  1.7007  1.6023
 1426TIP3   OH225836   0.301   2.053   0.157 -0.1853  0.0841 -0.0668
 1426TIP3    H125837   0.378   2.055   0.101 -0.5976  1.8939 -0.6701
 1426TIP3    H225838   0.227   2.043   0.096 -0.6427  2.1467  0.0406
 1427TIP3   OH225839   5.363   4.608   0.225  0.2779  0.2032  0.1965
 1427TIP3    H125840   5.429   4.577   0.163  0.8905  1.4419  0.1908
 1427TIP3    H225841   5.281   4.609   0.175  0.6761  0.7194 -0.4651
 1428TIP3   OH225842   1.369   4.353   1.442 -0.0479 -0.5636 -0.2474
 1428TIP3    H125843   1.413   4.327   1.361  1.6471 -1.2231  0.8342
 1428TIP3    H225844   1.432   4.410   1.487 -1.2295  0.3509  0.3169
 1429TIP3   OH225845   3.781   1.311   0.144 -0.3329 -0.2014 -0.3405
 1429TIP3    H125846   3.867   1.327   0.104 -1.2663  1.6113 -1.8008
 1429TIP3    H225847   3.718   1.331   0.074 -1.9851  0.5897  1.2847
 1430TIP3   OH225848   1.897   4.290   7.389  0.0433 -0.3761  0.7003
 1430TIP3    H125849   1.838   4.277   7.314 -0.9990 -1.4214  1.6526
 1430TIP3    H225850   1.982   4.258   7.358  0.5820  2.4903 -1.1938
 1431TIP3   OH225851   6.625   5.048   0.045  0.3801  0.7170  0.5060
 1431TIP3    H125852   6.596   4.957   0.047  1.7182  0.2651  0.7304
 1431TIP3    H225853   6.550   5.097   0.012 -0.2039 -0.5320 -0.0779
 1432TIP3   OH225854   2.202   0.394   0.530  0.8764  0.2143  0.0145
 1432TIP3    H125855   2.171   0.432   0.448  0.9181  2.2622  0.8859
 1432TIP3    H225856   2.202   0.467   0.592  0.6934 -1.3044  1.8948
 1433TIP3   OH225857   0.069   3.699   1.916  0.6078  0.4555 -0.3780
 1433TIP3    H125858   0.160   3.696   1.945  0.4805  2.5157  0.3601
 1433TIP3    H225859   0.072   3.665   1.826  1.6018 -2.3200  0.5848
 1434TIP3   OH225860   2.472   2.139   0.590 -0.0332 -0.4424 -0.0313
 1434TIP3    H125861   2.450   2.072   0.654 -0.1860  0.2172  0.6101
 1434TIP3    H225862   2.460   2.096   0.505 -1.8864 -0.6886  0.3215
 1435TIP3   OH225863   2.421   0.179   8.336 -0.5641  0.4652 -0.0649
 1435TIP3    H125864   2.396   0.163   8.427  0.5711  0.8369  0.3345
 1435TIP3    H225865   2.389   0.268   8.318  0.1748  0.8277  0.3480
 1436TIP3   OH225866   2.230   2.288   2.013 -0.1624  0.7029  0.3356
 1436TIP3    H125867   2.292   2.280   2.086  1.0530 -1.5501 -0.8309
 1436TIP3    H225868   2.272   2.347   1.951 -1.7826  3.7163  1.8760
 1437TIP3   OH225869   5.076   3.004   8.398 -0.0645 -0.4969  0.2850
 1437TIP3    H125870   5.164   3.024   8.430 -1.5087  2.5331  2.9021
 1437TIP3    H225871   5.035   3.090   8.386 -2.9170 -1.8262 -0.1411
 1438TIP3   OH225872   2.858   3.991   0.109 -0.5053  0.0613 -0.2862
 1438TIP3    H125873   2.888   3.961   0.023 -0.9303  0.4386 -0.5741
 1438TIP3    H225874   2.840   4.084   0.097 -2.6614 -0.3064 -0.4113
 1439TIP3   OH225875   0.617   0.913   0.829 -0.1504  0.6245  0.2484
 1439TIP3    H125876   0.618   0.892   0.923 -1.3549  2.8015  0.8151
 1439TIP3    H225877   0.659   0.837   0.787  0.6417 -0.2975  2.5453
 1440TIP3   OH225878   3.706   3.892   2.395 -0.3128 -0.0884 -0.0633
 1440TIP3    H125879   3.689   3.873   2.303  0.0570 -0.3100 -0.0868
 1440TIP3    H225880   3.783   3.949   2.395  0.2897 -0.8708  0.1468
 1441TIP3   OH225881   3.049   5.012   1.642  0.0502  0.6659 -0.0182
 1441TIP3    H125882   2.968   5.034   1.688  0.8425  0.8789  1.3232
 1441TIP3    H225883   3.101   5.092   1.644 -0.1793  0.9095 -1.9758
 1442TIP3   OH225884   0.455   4.154   3.020  0.1314  0.0420  0.3040
 1442TIP3    H125885   0.544   4.169   2.988  0.5941 -1.6550  0.6484
 1442TIP3    H225886   0.412   4.103   2.951  0.1207 -0.9020  0.9745
 1443TIP3   OH225887   0.445   3.503   7.952 -0.0546  0.3882  0.8363
 1443TIP3    H125888   0.354   3.473   7.955 -0.0924  0.5902  1.9262
 1443TIP3    H225889   0.481   3.460   7.874 -0.9033 -0.2049  0.7521
 1444TIP3   OH225890   2.242   0.895   2.703 -0.1976  0.2889 -0.5748
 1444TIP3    H125891   2.265   0.987   2.709 -0.7770  0.4559 -0.7632
 1444TIP3    H225892   2.304   0.850   2.760 -0.9363  0.9733  0.8296
 1445TIP3   OH225893   5.224   6.714   0.572 -0.1549  0.1235 -0.0087
 1445TIP3    H125894   5.241   6.702   0.479 -0.5177 -0.7589  0.0354
 1445TIP3    H225895   5.224   6.626   0.609  1.4243  0.5294  1.0860
 1446TIP3   OH225896   1.281   0.393   6.818  0.9211  0.0478  0.0457
 1446TIP3    H125897   1.284   0.304   6.854  2.4170  0.1575  0.2499
 1446TIP3    H225898   1.267   0.380   6.724 -3.6509 -0.2244  0.5031
 1447TIP3   OH225899   6.490   3.025   2.031 -0.1383  0.1686 -0.0612
 1447TIP3    H125900   6.409   3.021   1.979  0.3736  0.6495 -0.9221
 1447TIP3    H225901   6.479   3.102   2.087 -0.0471  0.5843 -0.6001
 1448TIP3   OH225902   1.291   0.466   8.069  0.3662  0.1967  0.5193
 1448TIP3    H125903   1.276   0.557   8.094  0.1768  0.3580 -0.1591
 1448TIP3    H225904   1.384   0.463   8.045  0.3285  0.2548  0.3651
 1449TIP3   OH225905   0.279   0.668   7.713 -0.2292  0.2330  0.3063
 1449TIP3    H125906   0.360   0.620   7.732 -0.6552  0.3638  2.6179
 1449TIP3    H225907   0.287   0.749   7.763 -1.2077  0.8876 -0.5513
 1450TIP3   OH225908   5.726   0.358   0.905 -0.2631  0.1258 -0.6214
 1450TIP3    H125909   5.645   0.331   0.948 -0.7531  0.0732 -1.5523
 1450TIP3    H225910   5.731   0.303   0.827  2.1794 -1.9332  0.8729
 1451TIP3   OH225911   4.979   1.016   0.196  0.1993  0.1342 -0.0439
 1451TIP3    H125912   4.891   0.992   0.224 -0.2957  0.2948 -1.3944
 1451TIP3    H225913   5.003   0.948   0.132  0.6245  0.6690 -0.4636
 1452TIP3   OH225914   3.199   5.629   7.257 -0.2171 -0.1006 -0.3998
 1452TIP3    H125915   3.133   5.689   7.221  0.7520  0.3897 -1.4037
 1452TIP3    H225916   3.261   5.616   7.186  1.4444  0.4191  0.9005
 1453TIP3   OH225917   4.113   3.585   8.225  0.6283  0.1372  0.1455
 1453TIP3    H125918   4.021   3.580   8.251  0.4944  2.7097  0.3644
 1453TIP3    H225919   4.129   3.502   8.180 -2.1809  0.1206 -1.0551
 1454TIP3   OH225920   5.992   4.336   7.390 -0.8008  0.0142 -0.3208
 1454TIP3    H125921   6.025   4.400   7.453 -0.9639  0.1182 -0.3413
 1454TIP3    H225922   6.054   4.263   7.395 -0.1806  0.4968 -0.8546
 1455TIP3   OH225923   5.681   1.034   0.443 -0.1627 -0.3135  0.1821
 1455TIP3    H125924   5.615   1.092   0.480  0.1129  1.6160 -2.1251
 1455TIP3    H225925   5.754   1.091   0.420  0.2594 -1.5564 -1.8880
 1456TIP3   OH225926   3.711   4.357   1.285 -0.5065  0.4339  0.1868
 1456TIP3    H125927   3.638   4.308   1.322  0.9016 -0.7699  1.5588
 1456TIP3    H225928   3.789   4.317   1.325  1.1082 -0.0957 -3.1240
 1457TIP3   OH225929   3.055   1.321   1.539 -0.4276  0.1322 -0.5482
 1457TIP3    H125930   3.125   1.267   1.574 -0.8749 -1.3488 -1.8334
 1457TIP3    H225931   3.079   1.336   1.448 -1.4359  0.1438 -0.8283
 1458TIP3   OH225932   0.140   1.773   1.336  0.2710  0.0903  0.2168
 1458TIP3    H125933   0.087   1.814   1.405  0.9858 -0.8718  1.3697
 1458TIP3    H225934   0.183   1.847   1.293  0.0185  0.6989  0.9792
 1459TIP3   OH225935   3.976   2.351   0.446 -0.0274 -0.0598 -0.1201
 1459TIP3    H125936   4.016   2.264   0.454 -1.4939 -0.6747  0.9574
 1459TIP3    H225937   4.042   2.411   0.482 -0.0979 -1.0709  1.8539
 1460TIP3   OH225938   0.184   6.277   7.680 -0.5774  0.6759  0.0152
 1460TIP3    H125939   0.099   6.260   7.640 -1.2573  1.2268  1.1420
 1460TIP3    H225940   0.217   6.191   7.706  0.5462  0.1350 -2.8975
 1461TIP3   OH225941   0.661   6.323   0.266  0.6923  0.1191  0.0076
 1461TIP3    H125942   0.635   6.343   0.356  2.3370 -2.1738  1.0875
 1461TIP3    H225943   0.581   6.295   0.223 -0.0099  0.7219  0.8935
 1462TIP3   OH225944   0.833   5.555   1.147  0.2385 -0.4120 -0.4571
 1462TIP3    H125945   0.838   5.571   1.053  1.2659 -0.2382 -0.3862
 1462TIP3    H225946   0.922   5.528   1.172  0.0602 -0.1593  0.5121
 1463TIP3   OH225947   0.516   0.390   6.776  0.2178  0.7697 -0.2864
 1463TIP3    H125948   0.602   0.349   6.788 -0.0665 -1.1533 -3.6219
 1463TIP3    H225949   0.535   0.479   6.748  1.0634  0.8197  0.4034
 1464TIP3   OH225950   0.605   2.900   0.994 -0.3797  0.4174 -0.5352
 1464TIP3    H125951   0.640   2.902   1.083 -0.7343  0.1905 -0.3908
 1464TIP3    H225952   0.544   2.974   0.991 -0.0668  0.6704 -0.7147
 1465TIP3   OH225953   5.298   1.961   0.618 -0.2041 -0.1672  0.4399
 1465TIP3    H125954   5.380   1.919   0.591 -0.4960 -0.9822  0.7859
 1465TIP3    H225955   5.230   1.914   0.570 -0.6281 -0.8714  1.6940
 1466TIP3   OH225956   2.400   0.407   2.294  0.1617 -0.5246 -0.4068
 1466TIP3    H125957   2.469   0.341   2.298  0.9403  0.3001 -0.0739
 1466TIP3    H225958   2.427   0.474   2.356 -2.3537 -1.4880  1.9098
 1467TIP3   OH225959   2.489   2.633   0.546 -0.5676 -0.4736  0.0100
 1467TIP3    H125960   2.463   2.718   0.510 -2.7181  0.4822  3.3669
 1467TIP3    H225961   2.479   2.644   0.641  4.1121 -2.8735  1.0774
 1468TIP3   OH225962   0.389   2.535   3.192 -0.3087  0.1769 -0.3384
 1468TIP3    H125963   0.452   2.607   3.185 -0.8896  0.7100 -0.1333
 1468TIP3    H225964   0.331   2.546   3.117  0.4367 -0.9167 -1.1139
 1469TIP3   OH225965   3.158   5.327   0.481 -0.5838  0.0865  0.2674
 1469TIP3    H125966   3.209   5.250   0.508 -0.6646  0.2449  0.8794
 1469TIP3    H225967   3.131   5.307   0.391 -1.1543 -0.8967  0.6376
 1470TIP3   OH225968   4.336   5.613   0.015 -0.5109  0.8927 -0.3654
 1470TIP3    H125969   4.252   5.652  -0.007 -0.9892  1.0369  1.5144
 1470TIP3    H225970   4.386   5.684   0.056  0.0365  0.4957 -0.3224
 1471TIP3   OH225971   1.045   3.840   7.114  0.1177  0.0547  0.0550
 1471TIP3    H125972   1.135   3.813   7.130  0.4334  0.5830 -0.7839
 1471TIP3    H225973   1.030   3.913   7.175  0.5658  0.5778 -0.4575
 1472TIP3   OH225974   3.433   6.753   2.042 -0.4192  0.0680 -0.1860
 1472TIP3    H125975   3.386   6.813   1.983  0.3047  0.3257 -0.5164
 1472TIP3    H225976   3.524   6.760   2.015 -0.3219 -1.2340 -0.2649
 1473TIP3   OH225977   2.813   3.614   2.132 -0.0554 -0.6468 -0.5429
 1473TIP3    H125978   2.764   3.669   2.193  0.0347 -2.0180  0.8450
 1473TIP3    H225979   2.748   3.586   2.067 -0.1695  0.7780 -1.0661
 1474TIP3   OH225980   5.714   2.851   1.888  0.2894 -0.3594  0.0479
 1474TIP3    H125981   5.690   2.815   1.974  1.2200 -0.9872  0.0523
 1474TIP3    H225982   5.707   2.777   1.828  0.0752 -0.0241 -0.3421
 1475TIP3   OH225983   6.238   2.229   0.950  0.8329 -0.1770 -0.3163
 1475TIP3    H125984   6.289   2.172   1.007  1.8253 -0.0302 -1.0331
 1475TIP3    H225985   6.207   2.299   1.007 -0.0446 -1.1846  0.4875
 1476TIP3   OH225986   6.292   4.718   2.608  0.0097 -0.0754 -0.3934
 1476TIP3    H125987   6.304   4.675   2.523 -1.3591  1.7403 -1.6005
 1476TIP3    H225988   6.203   4.695   2.634  0.1027  0.1206  0.1091
 1477TIP3   OH225989   1.785   3.851   0.306 -0.4439 -0.4313 -0.0657
 1477TIP3    H125990   1.705   3.802   0.282  0.5291 -3.6641  2.5182
 1477TIP3    H225991   1.848   3.827   0.238 -0.6895 -0.8084 -0.1688
 1478TIP3   OH225992   5.226   4.130   8.141  0.0839  0.3409  0.4797
 1478TIP3    H125993   5.313   4.106   8.111 -0.0360  1.4377 -0.8455
 1478TIP3    H225994   5.204   4.065   8.208  0.1832 -2.5554 -2.1131
 1479TIP3   OH225995   5.953   3.629   7.882 -0.2733 -0.5535  0.0450
 1479TIP3    H125996   5.987   3.679   7.956 -2.4319  1.3586 -0.1581
 1479TIP3    H225997   5.962   3.538   7.909  1.3880 -0.0233  1.5213
 1480TIP3   OH225998   1.088   6.670   7.252  0.7014  0.0933 -0.1174
 1480TIP3    H125999   1.022   6.650   7.186  1.9053  0.0155 -1.3458
 1480TIP3    H226000   1.161   6.708   7.203  1.0978  1.3528  1.3456
 1481TIP3   OH226001   0.970   0.106   7.302  0.5687 -0.3382  0.3177
 1481TIP3    H126002   1.045   0.130   7.247 -0.2689  1.5191 -0.1323
 1481TIP3    H226003   0.902   0.082   7.239  0.5991 -1.5024  0.7031
 1482TIP3   OH226004   2.364   5.358   1.718 -0.1131  0.1766  0.2596
 1482TIP3    H126005   2.279   5.379   1.757 -1.1840 -1.1716 -1.1779
 1482TIP3    H226006   2.345   5.286   1.658  2.1277 -0.3620  0.1178
 1483TIP3   OH226007   1.907   5.534   0.024  0.4049  0.1090 -0.3981
 1483TIP3    H126008   1.979   5.510  -0.035 -0.4683 -2.8661 -0.3909
 1483TIP3    H226009   1.939   5.511   0.111 -0.4209 -1.0180 -0.3732
 1484TIP3   OH226010   6.608   5.967   2.929  0.0699  0.0035 -0.0679
 1484TIP3    H126011   6.610   5.908   2.854 -2.2449 -0.9260  0.5025
 1484TIP3    H226012   6.589   6.053   2.892  1.4389  0.0477 -0.7265
 1485TIP3   OH226013   1.053   5.437   2.881  0.4936  0.3507  0.2610
 1485TIP3    H126014   1.016   5.359   2.839  0.5339  0.4861 -0.0275
 1485TIP3    H226015   1.123   5.403   2.937 -0.0035  0.1021  0.7425
 1486TIP3   OH226016   5.806   0.727   8.642  0.2624  0.0353 -0.2688
 1486TIP3    H126017   5.834   0.818   8.650  0.7339 -0.0425 -0.9378
 1486TIP3    H226018   5.887   0.677   8.643 -0.0493 -0.5379  1.7086
 1487TIP3   OH226019   4.062   3.443   1.370  0.4829 -0.2970 -0.0734
 1487TIP3    H126020   4.003   3.443   1.445 -2.5126 -0.1072 -2.2690
 1487TIP3    H226021   4.053   3.356   1.332  0.4247  0.2255 -1.2917
 1488TIP3   OH226022   3.786   6.334   1.055  0.0110  0.3733 -0.0108
 1488TIP3    H126023   3.805   6.240   1.055 -0.7891  0.1965 -0.3799
 1488TIP3    H226024   3.870   6.376   1.070  0.5755 -0.3763 -0.9152
 1489TIP3   OH226025   5.464   1.204   0.583  0.4127  0.1382 -0.2784
 1489TIP3    H126026   5.379   1.162   0.569 -0.3453  1.2578  0.7146
 1489TIP3    H226027   5.443   1.297   0.591  1.8934  0.5675 -1.2074
 1490TIP3   OH226028   1.193   5.855   6.836  0.4746  0.5843  0.4773
 1490TIP3    H126029   1.156   5.811   6.760  2.0727 -0.1022  0.0569
 1490TIP3    H226030   1.170   5.799   6.910  1.3012 -0.2518  0.1233
 1491TIP3   OH226031   5.628   1.899   0.647 -0.1496  0.3200 -0.3023
 1491TIP3    H126032   5.669   1.854   0.573 -0.4062 -0.7468  0.1900
 1491TIP3    H226033   5.666   1.858   0.724 -1.4275 -0.0389  0.1660
 1492TIP3   OH226034   3.806   6.037   0.299 -0.1099  0.9958 -0.1316
 1492TIP3    H126035   3.746   6.040   0.374 -1.2578 -0.2215 -0.9666
 1492TIP3    H226036   3.756   6.071   0.226 -0.3543 -1.3836 -1.1676
 1493TIP3   OH226037   2.034   6.792   1.853  0.1679  0.7318 -0.1560
 1493TIP3    H126038   2.057   6.744   1.774 -1.8783 -1.3965  0.4154
 1493TIP3    H226039   1.999   6.725   1.912 -1.2756  2.6934  1.3552
 1494TIP3   OH226040   3.544   5.923   0.035  0.5283  0.1337 -0.1222
 1494TIP3    H126041   3.469   5.908   0.093  0.7883  1.7827  0.7019
 1494TIP3    H226042   3.505   5.949  -0.049  0.1685 -1.0414 -0.3311
 1495TIP3   OH226043   6.661   5.818   7.198 -0.4366 -0.1905  0.3058
 1495TIP3    H126044   6.630   5.887   7.257  0.1121 -0.9204  1.4867
 1495TIP3    H226045   6.734   5.778   7.245 -1.5220 -2.4024  0.2332
 1496TIP3   OH226046   3.984   6.438   2.214  0.5097  0.1737 -0.2611
 1496TIP3    H126047   3.976   6.356   2.261  1.4810 -0.3093 -0.8916
 1496TIP3    H226048   4.078   6.459   2.217  0.4682  0.5749 -1.2116
 1497TIP3   OH226049   2.303   1.222   1.443  0.8269  0.3963 -0.1034
 1497TIP3    H126050   2.278   1.271   1.521  1.8760  0.8647 -0.0419
 1497TIP3    H226051   2.388   1.183   1.465 -0.4977 -2.5196  0.3121
 1498TIP3   OH226052   6.321   2.522   2.231  0.4288  0.1493 -0.0798
 1498TIP3    H126053   6.319   2.568   2.315  0.8440 -0.6538  0.3851
 1498TIP3    H226054   6.243   2.552   2.185  0.5722  1.1426  0.2955
 1499TIP3   OH226055   4.502   5.134   0.502  0.5160 -0.2558 -0.1950
 1499TIP3    H126056   4.424   5.092   0.464  0.3055  0.3392 -0.4215
 1499TIP3    H226057   4.476   5.156   0.591  0.8475 -1.2001  0.1530
 1500TIP3   OH226058   3.834   2.273   2.396 -0.4117 -0.5282 -0.3613
 1500TIP3    H126059   3.752   2.254   2.350 -1.4193  0.4093  0.9652
 1500TIP3    H226060   3.899   2.283   2.327 -1.6583 -0.1892 -1.5168
 1501TIP3   OH226061   5.137   1.358   0.336  0.2930  0.0423  0.3597
 1501TIP3    H126062   5.111   1.437   0.384 -0.3600  1.0303 -1.5170
 1501TIP3    H226063   5.083   1.360   0.257  0.6335 -2.0356  0.0386
 1502TIP3   OH226064   4.061   0.178   0.859 -0.4237 -0.5573 -0.2868
 1502TIP3    H126065   3.984   0.122   0.853 -0.7237 -0.2277  0.3713
 1502TIP3    H226066   4.031   0.255   0.906  0.2450 -0.3103 -0.2536
 1503TIP3   OH226067   5.547   1.543   0.738 -0.1631  0.0489 -0.6897
 1503TIP3    H126068   5.596   1.481   0.792 -0.1660  0.7238  0.1112
 1503TIP3    H226069   5.613   1.604   0.704 -0.4701  1.3220  0.8815
 1504TIP3   OH226070   1.556   2.808   0.029 -0.1815 -0.3358 -0.5478
 1504TIP3    H126071   1.587   2.752  -0.042 -1.3117 -1.9025  0.1479
 1504TIP3    H226072   1.584   2.764   0.109 -1.2930 -0.0503  0.0236
 1505TIP3   OH226073   0.390   5.882   1.159  0.0041 -0.1241 -0.3399
 1505TIP3    H126074   0.298   5.855   1.170 -0.0468  0.4557  0.8908
 1505TIP3    H226075   0.418   5.841   1.078 -1.2713 -0.5400 -0.5915
 1506TIP3   OH226076   3.163   3.169   2.137  0.0952  0.6192 -0.0909
 1506TIP3    H126077   3.090   3.224   2.110 -0.6715 -0.3711 -0.1063
 1506TIP3    H226078   3.156   3.165   2.233 -0.3792 -0.1222 -0.1431
 1507TIP3   OH226079   6.044   5.495   8.097 -0.4475 -0.2635 -0.0516
 1507TIP3    H126080   6.029   5.533   8.010  3.5963 -0.5870 -1.0852
 1507TIP3    H226081   5.999   5.410   8.094 -1.4011  0.2522 -1.3493
 1508TIP3   OH226082   3.582   3.960   7.989 -0.2073 -0.2139 -0.0406
 1508TIP3    H126083   3.496   3.934   7.955 -0.1818 -1.0181  0.4967
 1508TIP3    H226084   3.585   4.055   7.975 -0.5309 -0.3916 -1.5259
 1509TIP3   OH226085   4.918   2.795   8.373  0.7143 -0.2484  0.3420
 1509TIP3    H126086   4.988   2.860   8.364  2.9572 -2.3284  1.3259
 1509TIP3    H226087   4.926   2.765   8.464 -1.0250 -1.0791  0.2591
 1510TIP3   OH226088   5.426   5.552   7.160 -0.1040  0.2950  0.0012
 1510TIP3    H126089   5.377   5.591   7.232 -1.1700  0.3286 -0.7090
 1510TIP3    H226090   5.516   5.545   7.192 -0.5359  0.3959  1.2826
 1511TIP3   OH226091   6.746   1.084   7.864 -0.0552  0.7062 -0.2115
 1511TIP3    H126092   6.805   1.141   7.914 -1.7608  0.8362  1.7837
 1511TIP3    H226093   6.772   0.995   7.889 -0.0786  0.7318 -0.0961
 1512TIP3   OH226094   0.878   2.725   0.170 -0.1512  0.3246 -0.4893
 1512TIP3    H126095   0.813   2.676   0.220 -0.8448  2.4005  0.7865
 1512TIP3    H226096   0.828   2.793   0.125  0.9599  1.0499 -0.6821
 1513TIP3   OH226097   0.870   5.334   2.552 -0.0678  0.0113 -0.1581
 1513TIP3    H126098   0.857   5.401   2.619  1.3242  1.4511 -1.2633
 1513TIP3    H226099   0.965   5.321   2.548 -0.2758 -1.7683 -0.2468
 1514TIP3   OH226100   5.397   4.543   2.370 -0.8240  0.6489  0.2207
 1514TIP3    H126101   5.358   4.470   2.322 -0.9643  0.5932  0.4183
 1514TIP3    H226102   5.326   4.607   2.379 -0.6739  0.8549 -0.0414
 1515TIP3   OH226103   1.874   0.671   1.138  0.1784 -0.4139 -0.0562
 1515TIP3    H126104   1.960   0.645   1.170 -0.2821 -0.5501  1.1472
 1515TIP3    H226105   1.831   0.588   1.117 -0.6922 -0.6034  2.1895
 1516TIP3   OH226106   2.725   6.791   0.401  0.0888  0.1267 -0.0860
 1516TIP3    H126107   2.674   6.798   0.481  0.1880 -0.0536 -0.0065
 1516TIP3    H226108   2.660   6.797   0.331 -0.1172 -0.7101  0.0236
 1517TIP3   OH226109   6.212   1.998   1.154 -0.3535  0.2034 -0.2879
 1517TIP3    H126110   6.165   1.963   1.230 -0.5282  1.8548  0.3954
 1517TIP3    H226111   6.209   1.927   1.090 -0.7679 -0.9950  1.0003
 1518TIP3   OH226112   0.433   3.032   7.837 -0.1678  0.0837 -0.0391
 1518TIP3    H126113   0.382   3.059   7.913 -1.2563 -0.3092 -0.6039
 1518TIP3    H226114   0.402   3.088   7.766  1.0279  0.6347 -0.1513
 1519TIP3   OH226115   5.129   3.916   0.473  0.0263  0.0565 -0.1063
 1519TIP3    H126116   5.157   3.945   0.386 -0.7444  1.1605 -0.0009
 1519TIP3    H226117   5.112   3.823   0.463 -0.5274  0.2735 -1.2623
 1520TIP3   OH226118   2.634   3.726   8.483 -0.4878 -0.1169  0.1705
 1520TIP3    H126119   2.561   3.706   8.424  0.6266 -0.9896 -0.9772
 1520TIP3    H226120   2.706   3.748   8.424  0.2980  0.2993  1.2659
 1521TIP3   OH226121   2.590   4.460   7.915  0.5072 -0.3070  0.3004
 1521TIP3    H126122   2.585   4.366   7.931 -0.1933 -0.3962 -0.3684
 1521TIP3    H226123   2.519   4.478   7.853  2.9587  0.0150 -2.6516
 1522TIP3   OH226124   3.329   6.213   8.621  0.4940  0.8930  0.6758
 1522TIP3    H126125   3.296   6.260   8.698 -0.2915 -0.4603  1.2054
 1522TIP3    H226126   3.331   6.121   8.648  0.6172  0.4427 -0.7777
 1523TIP3   OH226127   6.711   5.034   7.001  0.5827  0.0153 -0.0174
 1523TIP3    H126128   6.640   5.034   7.065  0.9732  1.4151  0.4374
 1523TIP3    H226129   6.777   4.976   7.040  0.5881  0.4212  0.5917
 1524TIP3   OH226130   4.473   3.411   2.127  0.6457 -0.2343  0.6345
 1524TIP3    H126131   4.525   3.330   2.130  0.9984 -0.1914 -1.9395
 1524TIP3    H226132   4.539   3.481   2.127  0.3815  0.0281  1.7136
 1525TIP3   OH226133   2.154   0.114   1.253 -0.2590 -0.3745  0.1739
 1525TIP3    H126134   2.183   0.024   1.271 -0.8891 -0.8426 -1.0752
 1525TIP3    H226135   2.172   0.126   1.160 -0.5908  0.6486  0.2396
 1526TIP3   OH226136   3.345   0.299   1.404 -0.1374  0.2792  0.1611
 1526TIP3    H126137   3.342   0.204   1.394  0.3801  0.4189 -1.6169
 1526TIP3    H226138   3.436   0.322   1.385 -0.9310  1.4140 -2.6325
 1527TIP3   OH226139   0.018   5.533   7.663  0.3050 -0.2332 -0.0905
 1527TIP3    H126140  -0.003   5.622   7.634 -2.4410 -0.6441  0.4160
 1527TIP3    H226141   0.089   5.506   7.605  0.5969  1.9406 -0.8604
 1528TIP3   OH226142   6.490   6.757   0.072 -0.0748  0.1780 -0.5928
 1528TIP3    H126143   6.524   6.752  -0.017  0.0796  2.2975 -0.6963
 1528TIP3    H226144   6.396   6.740   0.063 -0.1759  1.0342 -1.2711
 1529TIP3   OH226145   3.065   3.901   1.811 -0.0507  0.4537  0.4303
 1529TIP3    H126146   3.056   3.860   1.897  1.2992 -0.2707  0.2560
 1529TIP3    H226147   2.983   3.948   1.798 -0.4147  0.2906  1.9627
 1530TIP3   OH226148   3.588   5.874   1.162 -0.7431 -0.1480  0.3607
 1530TIP3    H126149   3.554   5.842   1.079 -2.4415 -0.0951  0.9840
 1530TIP3    H226150   3.556   5.964   1.168  3.4281  1.6888 -1.0814
 1531TIP3   OH226151   4.664   1.644   8.230 -0.0597  0.1611 -0.1182
 1531TIP3    H126152   4.579   1.613   8.197 -0.0821 -2.5921  2.1737
 1531TIP3    H226153   4.729   1.596   8.179  0.1861  1.8822 -1.5123
 1532TIP3   OH226154   3.363   4.104   1.933  0.0578  0.0053 -0.5874
 1532TIP3    H126155   3.297   4.050   1.891  0.2907 -0.1052 -0.8112
 1532TIP3    H226156   3.363   4.186   1.883 -0.6865  0.4357  0.0901
 1533TIP3   OH226157   3.715   6.791   8.197  0.2295  0.3852 -0.2829
 1533TIP3    H126158   3.624   6.787   8.229  0.4005 -1.4609  0.0573
 1533TIP3    H226159   3.728   6.708   8.153  1.7790  0.6337 -0.3288
 1534TIP3   OH226160   0.378   5.214   0.475  0.0314 -0.2088  0.3459
 1534TIP3    H126161   0.356   5.127   0.440 -1.5241 -0.0339  0.8151
 1534TIP3    H226162   0.295   5.262   0.472  0.6372  0.9123  1.1055
 1535TIP3   OH226163   3.034   4.191   7.919  0.0569  0.0683 -0.5112
 1535TIP3    H126164   3.086   4.111   7.909 -0.7923 -0.7219  1.0221
 1535TIP3    H226165   2.967   4.184   7.851  0.3875 -0.1840 -0.8184
 1536TIP3   OH226166   5.319   4.404   8.496 -0.5895 -0.8219 -0.0426
 1536TIP3    H126167   5.360   4.467   8.557 -0.3096 -0.6102 -0.4429
 1536TIP3    H226168   5.231   4.391   8.531 -0.5970 -0.3255  0.1339
 1537TIP3   OH226169   2.674   2.709   2.496 -0.5124  0.4576  0.8663
 1537TIP3    H126170   2.701   2.638   2.553 -1.1801  0.1390  0.8007
 1537TIP3    H226171   2.580   2.718   2.512 -0.8703 -0.1441 -0.7085
 1538TIP3   OH226172   3.752   0.247   8.264 -0.5692  0.3533  0.1730
 1538TIP3    H126173   3.672   0.286   8.229 -2.2771 -1.8020  1.4296
 1538TIP3    H226174   3.761   0.164   8.218  0.5914  0.2662  0.5271
 1539TIP3   OH226175   2.023   2.366   7.904 -0.0647 -0.2745  0.0007
 1539TIP3    H126176   1.956   2.305   7.873 -0.1747  0.0807 -0.4706
 1539TIP3    H226177   1.995   2.390   7.993 -0.4262 -0.3254 -0.0975
 1540TIP3   OH226178   1.949   2.303   8.256 -0.1027  0.0091 -0.0885
 1540TIP3    H126179   1.874   2.287   8.199 -0.8831 -0.8539  1.1280
 1540TIP3    H226180   1.945   2.233   8.321 -0.1615  1.7806  1.9391
 1541TIP3   OH226181   5.492   5.042   7.742 -0.0309 -0.3958  0.0786
 1541TIP3    H126182   5.403   5.048   7.777 -0.3060  0.0886 -0.6963
 1541TIP3    H226183   5.518   5.132   7.726 -0.0445 -0.6110 -1.2875
 1542TIP3   OH226184   6.804   1.693   8.504  0.4510 -0.0771  0.4140
 1542TIP3    H126185   6.809   1.603   8.536  0.8965  0.1484  0.9955
 1542TIP3    H226186   6.865   1.696   8.431 -1.7125 -1.0141 -1.5673
 1543TIP3   OH226187   2.702   4.867   2.393  0.3330  0.0094 -0.4383
 1543TIP3    H126188   2.700   4.891   2.486  0.4070 -0.2397 -0.3724
 1543TIP3    H226189   2.792   4.884   2.366  0.2032  0.5054 -0.5791
 1544TIP3   OH226190   1.770   0.208   7.716 -0.3158  0.1802 -0.0585
 1544TIP3    H126191   1.735   0.122   7.694 -1.5380  0.4400  0.7393
 1544TIP3    H226192   1.709   0.269   7.675  2.2963  0.7998 -3.4470
 1545TIP3   OH226193   0.624   3.332   0.409 -1.1172  0.1928 -0.1030
 1545TIP3    H126194   0.623   3.254   0.464 -1.3983 -0.2963 -0.8041
 1545TIP3    H226195   0.590   3.401   0.466  1.1223  0.2982  1.2231
 1546TIP3   OH226196   0.539   5.286   8.283  0.0833 -0.1769  0.5444
 1546TIP3    H126197   0.478   5.340   8.334 -0.0679  0.6608 -0.4804
 1546TIP3    H226198   0.519   5.196   8.309 -1.8893  0.0367 -0.0505
 1547TIP3   OH226199   3.696   3.215   1.561  0.3503  0.8134  0.4699
 1547TIP3    H126200   3.616   3.181   1.521  0.8746  0.5081 -0.3430
 1547TIP3    H226201   3.737   3.137   1.599  1.7246  0.4060 -1.6868
 1548TIP3   OH226202   6.141   1.308   2.142 -0.1280  0.1836  0.0970
 1548TIP3    H126203   6.056   1.351   2.139 -0.1400  0.3618  1.7222
 1548TIP3    H226204   6.144   1.268   2.229  2.4757  2.4208  1.1881
 1549TIP3   OH226205   0.192   2.572   1.199  0.2947  0.0410  0.2143
 1549TIP3    H126206   0.255   2.638   1.229  0.8802 -1.3540  2.3103
 1549TIP3    H226207   0.106   2.610   1.219  0.5558  0.7988 -0.0572
 1550TIP3   OH226208   4.103   6.594   0.457  0.3304 -0.0564  0.1340
 1550TIP3    H126209   4.021   6.643   0.456  1.1185  1.2996 -0.3598
 1550TIP3    H226210   4.102   6.545   0.375 -0.9407 -1.7608  1.1026
 1551TIP3   OH226211   1.226   2.718   1.618  0.6186 -0.1017  0.2570
 1551TIP3    H126212   1.248   2.700   1.526  2.0420 -0.0702  0.5701
 1551TIP3    H226213   1.133   2.695   1.625  0.0458  1.3681 -1.5696
 1552TIP3   OH226214   6.673   3.395   1.026 -0.6057 -0.3578 -0.0579
 1552TIP3    H126215   6.696   3.331   0.959 -0.7518 -1.6865  1.1065
 1552TIP3    H226216   6.577   3.397   1.025 -0.6681 -1.5440  1.1168
 1553TIP3   OH226217   3.653   0.263   7.352  0.1419 -0.2742 -0.0028
 1553TIP3    H126218   3.586   0.212   7.306  1.8218 -0.2402 -2.7261
 1553TIP3    H226219   3.631   0.355   7.333  0.4820 -0.2319 -0.2035
 1554TIP3   OH226220   3.028   3.264   1.792 -0.2780  0.2968 -0.6248
 1554TIP3    H126221   2.957   3.200   1.790 -0.8611  0.8228  1.4112
 1554TIP3    H226222   2.985   3.346   1.816  0.9266  0.7515  0.0437
 1555TIP3   OH226223   6.559   1.112   1.526  0.0011 -0.2552  0.5653
 1555TIP3    H126224   6.471   1.074   1.520  0.1931 -0.6944  0.5396
 1555TIP3    H226225   6.599   1.092   1.442 -0.0179  0.3162  0.4131
 1556TIP3   OH226226   6.030   0.146   7.968 -0.0851  0.5693  0.0274
 1556TIP3    H126227   6.064   0.228   7.932 -1.4488  1.9703  1.7435
 1556TIP3    H226228   6.090   0.126   8.040  0.7487 -0.4770 -0.9078
 1557TIP3   OH226229   5.987   2.001   0.146 -0.4664 -0.2449  0.0986
 1557TIP3    H126230   5.983   1.908   0.167 -0.1438 -0.9032 -2.3707
 1557TIP3    H226231   6.081   2.021   0.144 -0.5403  0.1622  0.7522
 1558TIP3   OH226232   5.711   3.128   1.906 -0.4446 -0.3621 -0.5699
 1558TIP3    H126233   5.679   3.045   1.870  1.3863 -0.3705 -2.4400
 1558TIP3    H226234   5.787   3.104   1.959  0.2447  0.1010 -1.3181
 1559TIP3   OH226235   5.159   5.699   0.429  0.2905 -0.0764 -0.1627
 1559TIP3    H126236   5.222   5.707   0.357 -0.4337 -1.3442 -0.9900
 1559TIP3    H226237   5.093   5.638   0.395 -0.4641 -0.1126  1.3152
 1560TIP3   OH226238   2.355   3.685   1.128  0.1349  0.2664  0.3626
 1560TIP3    H126239   2.341   3.744   1.202 -0.5402  0.3762  0.1529
 1560TIP3    H226240   2.374   3.600   1.168 -0.3664  0.2920  0.6600
 1561TIP3   OH226241   3.575   2.723   3.307  0.1359 -0.4287  0.3420
 1561TIP3    H126242   3.584   2.812   3.273  1.9763 -0.4502  0.6505
 1561TIP3    H226243   3.549   2.671   3.231 -0.8652  0.3299  0.1369
 1562TIP3   OH226244   4.006   4.521   1.530  0.0546 -0.2616 -0.0307
 1562TIP3    H126245   3.953   4.457   1.482  1.2818  0.4144 -2.4691
 1562TIP3    H226246   3.979   4.606   1.496  0.5475  0.3105  0.9548
 1563TIP3   OH226247   0.493   4.196   8.076 -0.2702  0.8853  0.3606
 1563TIP3    H126248   0.470   4.288   8.069 -1.1171  0.6394 -0.1137
 1563TIP3    H226249   0.565   4.195   8.140  0.4313  1.9733 -0.3656
 1564TIP3   OH226250   3.569   4.688   7.411 -0.1528  0.4697 -0.0703
 1564TIP3    H126251   3.487   4.652   7.379 -0.1814  0.4885 -0.0192
 1564TIP3    H226252   3.543   4.757   7.473 -0.1372 -1.1708  1.8569
 1565TIP3   OH226253   3.461   1.037   1.456  0.3203  0.3532  0.3835
 1565TIP3    H126254   3.395   0.969   1.444 -0.9334  1.3420  1.4502
 1565TIP3    H226255   3.533   1.011   1.398 -0.1268 -1.8374  0.7354
 1566TIP3   OH226256   1.920   2.566   1.874 -0.0926 -0.1247  0.0013
 1566TIP3    H126257   1.887   2.601   1.956  2.6821  0.9347  0.7449
 1566TIP3    H226258   1.927   2.471   1.889 -0.1630 -0.0134  0.7601
 1567TIP3   OH226259   1.149   2.215   2.014  0.9859 -0.6177 -0.9401
 1567TIP3    H126260   1.193   2.168   1.943  1.3280 -0.3782 -0.8918
 1567TIP3    H226261   1.185   2.304   2.010 -0.0247 -0.2074 -1.3602
 1568TIP3   OH226262   5.494   4.363   0.922 -0.5194  0.0794  0.9632
 1568TIP3    H126263   5.560   4.326   0.863 -0.6980  0.6513  0.3945
 1568TIP3    H226264   5.536   4.440   0.960  0.0967 -1.0422  2.6612
 1569TIP3   OH226265   5.997   5.722   0.435  0.3276  0.2060 -0.6303
 1569TIP3    H126266   6.033   5.802   0.399  1.3165  0.5226  0.9864
 1569TIP3    H226267   5.938   5.751   0.505  1.3821 -0.4538  0.5823
 1570TIP3   OH226268   2.585   1.360   1.703  0.2553  0.0014 -0.2653
 1570TIP3    H126269   2.550   1.364   1.792 -0.0708 -0.0351 -0.3893
 1570TIP3    H226270   2.654   1.294   1.707 -1.2917 -1.7247 -0.5463
 1571TIP3   OH226271   3.142   4.338   7.631 -0.3016  0.0517  0.0750
 1571TIP3    H126272   3.132   4.341   7.536  1.9267 -1.1182 -0.2632
 1571TIP3    H226273   3.152   4.245   7.651 -2.3974  0.1143  1.7002
 1572TIP3   OH226274   4.753   1.082   2.520  0.3148  0.1853  0.4891
 1572TIP3    H126275   4.664   1.054   2.500  0.5246 -0.0380 -0.1499
 1572TIP3    H226276   4.781   1.026   2.592  0.0493  0.0364  0.4760
 1573TIP3   OH226277   2.684   2.481   3.064 -0.3662 -0.0723  0.0027
 1573TIP3    H126278   2.768   2.504   3.103 -0.5425  1.3693 -0.3983
 1573TIP3    H226279   2.703   2.407   3.007  0.8883  0.9395 -0.9611
 1574TIP3   OH226280   6.541   0.032   6.814 -0.4567  0.1316 -0.0853
 1574TIP3    H126281   6.578   0.066   6.732  1.0532  0.8626  0.8520
 1574TIP3    H226282   6.561  -0.062   6.813 -1.1516 -0.0177 -0.8975
 1575TIP3   OH226283   5.538   1.665   8.590  0.3506 -0.1252 -0.1268
 1575TIP3    H126284   5.466   1.609   8.620  0.1073  0.8206  1.1284
 1575TIP3    H226285   5.505   1.754   8.603  0.9401  0.3243 -1.5628
 1576TIP3   OH226286   5.616   3.705   1.239 -0.1426  0.2705 -0.7633
 1576TIP3    H126287   5.630   3.652   1.318  1.0846 -0.4964 -1.4663
 1576TIP3    H226288   5.555   3.773   1.267 -0.4746 -0.5384  0.5998
 1577TIP3   OH226289   4.823   0.893   0.968 -0.6635  0.3120 -0.1586
 1577TIP3    H126290   4.848   0.983   0.989  2.8547 -0.2021 -1.4212
 1577TIP3    H226291   4.761   0.869   1.037 -1.1335  3.4120  0.6614
 1578TIP3   OH226292   1.714   0.499   7.574  0.2036  0.5582  0.1487
 1578TIP3    H126293   1.660   0.498   7.495  0.3442  0.0391  0.0594
 1578TIP3    H226294   1.799   0.465   7.546  0.9421  2.3685  0.0334
 1579TIP3   OH226295   3.416   2.869   8.224  0.1900 -0.2923  0.4547
 1579TIP3    H126296   3.355   2.803   8.257  1.3332 -0.9669  1.2567
 1579TIP3    H226297   3.478   2.882   8.295  1.4639 -0.2122 -0.6494
 1580TIP3   OH226298   1.533   6.303   8.142 -0.3007  0.0850  0.2606
 1580TIP3    H126299   1.468   6.244   8.102  0.9414 -1.1507 -0.0088
 1580TIP3    H226300   1.533   6.380   8.085  0.4185 -1.0611 -1.3862
 1581TIP3   OH226301   1.368   4.691   1.397  0.3007  0.1622  0.1374
 1581TIP3    H126302   1.348   4.775   1.436 -1.1125  0.4862 -1.2177
 1581TIP3    H226303   1.319   4.689   1.315 -1.7631 -2.9512  1.2239
 1582TIP3   OH226304   4.547   2.803   2.032  1.5494  0.3830 -0.0518
 1582TIP3    H126305   4.616   2.747   2.068  1.0127 -0.3974 -0.2111
 1582TIP3    H226306   4.522   2.760   1.950  0.4598  0.3314  0.2976
 1583TIP3   OH226307   4.339   0.046   0.048 -0.1863 -0.1104 -0.5286
 1583TIP3    H126308   4.377   0.066   0.134  0.0432 -2.2127 -0.0923
 1583TIP3    H226309   4.260  -0.003   0.067  0.0160 -0.8577 -1.5122
 1584TIP3   OH226310   6.330   2.345   1.765 -0.4265  0.0238  0.5348
 1584TIP3    H126311   6.353   2.360   1.857  0.3961  0.8838  0.2014
 1584TIP3    H226312   6.356   2.425   1.721  1.0570 -1.1356 -0.8016
 1585TIP3   OH226313   2.683   5.131   0.411  0.3413 -0.0173 -0.5787
 1585TIP3    H126314   2.596   5.107   0.443  1.4900 -0.8521  2.2460
 1585TIP3    H226315   2.672   5.219   0.374 -1.6285  0.0268  0.0089
 1586TIP3   OH226316   5.578   3.127   7.749  0.3931  0.4120 -0.0091
 1586TIP3    H126317   5.662   3.160   7.717  0.8033 -0.7892 -0.2430
 1586TIP3    H226318   5.581   3.142   7.844  1.2900 -0.4599  0.1173
 1587TIP3   OH226319   3.880   3.346   8.235  0.1757 -0.0102 -0.3579
 1587TIP3    H126320   3.832   3.263   8.241  0.2378 -0.1782 -1.8646
 1587TIP3    H226321   3.961   3.323   8.188 -0.3573  1.1081 -1.9135
 1588TIP3   OH226322   3.900   0.163   1.279  0.1756 -0.0970 -0.2545
 1588TIP3    H126323   3.903   0.227   1.351  0.6780  0.0823 -0.4310
 1588TIP3    H226324   3.821   0.111   1.297  1.3825 -1.4085  1.6042
 1589TIP3   OH226325   2.085   2.496   2.150 -0.0251 -0.3247  0.8247
 1589TIP3    H126326   2.125   2.508   2.064  0.9368  1.6451  1.4989
 1589TIP3    H226327   2.132   2.422   2.188  0.5164 -0.3084  0.2136
 1590TIP3   OH226328   0.797   3.691   7.851  0.5041  1.0146 -0.0824
 1590TIP3    H126329   0.878   3.673   7.804  0.6850  0.1295  0.5281
 1590TIP3    H226330   0.763   3.604   7.874  0.1271  1.4056  0.8999
 1591TIP3   OH226331   2.949   4.913   2.282  0.2654 -0.3066  0.0007
 1591TIP3    H126332   3.016   4.847   2.302 -0.0492 -0.3640  0.9039
 1591TIP3    H226333   2.941   4.910   2.187  0.5659 -1.2698 -0.0090
 1592TIP3   OH226334   0.752   2.617   6.510  0.5536  0.2250 -0.2531
 1592TIP3    H126335   0.842   2.633   6.484  1.4712 -1.0186  1.9157
 1592TIP3    H226336   0.718   2.704   6.533  2.0235  0.4632  1.2264
 1593TIP3   OH226337   1.152   4.645   7.889  0.0057  0.1139 -0.5225
 1593TIP3    H126338   1.208   4.587   7.941 -0.0081  1.1691  0.7399
 1593TIP3    H226339   1.084   4.588   7.853 -0.2026 -0.6176  0.9526
 1594TIP3   OH226340   3.618   5.350   0.978  0.1521  0.0326 -0.0692
 1594TIP3    H126341   3.638   5.257   0.961  2.6725  0.4835  0.0052
 1594TIP3    H226342   3.570   5.378   0.900 -0.6130 -1.3099 -0.1209
 1595TIP3   OH226343   3.905   2.589   1.430 -0.7196 -0.1771  0.4180
 1595TIP3    H126344   3.902   2.580   1.334  0.5822 -1.9313  0.4955
 1595TIP3    H226345   3.991   2.627   1.448 -1.6127  1.7881  0.8539
 1596TIP3   OH226346   4.998   3.546   7.823  0.3127  0.0388 -0.0142
 1596TIP3    H126347   5.020   3.560   7.731  3.1648  1.5113  0.7636
 1596TIP3    H226348   4.922   3.602   7.839 -0.4775 -0.5516 -1.5232
 1597TIP3   OH226349   3.936   2.750   7.526  0.5141 -0.3857  0.0077
 1597TIP3    H126350   3.906   2.699   7.451  1.6513 -0.1785 -0.6117
 1597TIP3    H226351   3.868   2.738   7.592 -0.0772 -1.2870 -0.7405
 1598TIP3   OH226352   4.707   5.538   7.923  0.3559 -0.4112  0.3517
 1598TIP3    H126353   4.712   5.633   7.931  0.2277 -0.4093  0.4155
 1598TIP3    H226354   4.629   5.514   7.974  0.8027 -0.6260  0.9387
 1599TIP3   OH226355   2.530   4.905   7.897 -0.5091 -0.0857  0.7310
 1599TIP3    H126356   2.500   4.880   7.984  0.5999 -1.3817  0.7812
 1599TIP3    H226357   2.468   4.864   7.837  0.2814 -1.5619  0.8707
 1600TIP3   OH226358   5.557   3.358   7.534  0.0313 -0.1529 -0.0169
 1600TIP3    H126359   5.618   3.406   7.590 -0.0185  1.2743 -1.1431
 1600TIP3    H226360   5.485   3.333   7.592 -0.0757  1.3853  0.5566
 1601TIP3   OH226361   4.693   0.491   0.538  0.1194  0.4107  0.3023
 1601TIP3    H126362   4.735   0.575   0.557 -0.7550  0.3521  2.8615
 1601TIP3    H226363   4.759   0.425   0.560  0.1961  0.3799 -0.0088
 1602TIP3   OH226364   3.572   2.315   1.180 -0.5109  0.2042 -0.3245
 1602TIP3    H126365   3.650   2.279   1.223 -1.2586 -0.3927  0.5471
 1602TIP3    H226366   3.541   2.383   1.240 -0.1621  1.0684 -1.0975
 1603TIP3   OH226367   4.313   4.354   1.821 -0.2233  0.1133 -0.0717
 1603TIP3    H126368   4.227   4.370   1.859  0.0408  0.4067  0.4199
 1603TIP3    H226369   4.369   4.423   1.858  0.3079 -0.3038 -0.0737
 1604TIP3   OH226370   1.472   2.162   8.017 -0.2032  0.2078 -0.2217
 1604TIP3    H126371   1.527   2.084   8.012  1.3957  1.2024  0.7943
 1604TIP3    H226372   1.382   2.128   8.019  0.4595 -1.8410  3.1191
 1605TIP3   OH226373   2.443   3.482   8.684  0.8835  0.0477  0.0234
 1605TIP3    H126374   2.444   3.515   8.594  0.8587  0.1050  0.0446
 1605TIP3    H226375   2.474   3.391   8.676 -1.1674 -0.6694 -0.3178
 1606TIP3   OH226376   6.250   2.770   0.270 -0.2885  0.3501 -0.6250
 1606TIP3    H126377   6.226   2.828   0.197  1.1122  1.4676 -0.2358
 1606TIP3    H226378   6.331   2.808   0.304  0.5874 -1.7686 -0.2488
 1607TIP3   OH226379   5.929   3.931   7.320 -0.2723 -0.5928  0.5521
 1607TIP3    H126380   5.876   3.989   7.374 -0.1701  0.8921 -0.8675
 1607TIP3    H226381   5.878   3.850   7.315 -0.1926 -0.8715  2.9710
 1608TIP3   OH226382   1.412   6.363   7.815  0.0560  0.4115 -0.6523
 1608TIP3    H126383   1.436   6.273   7.835 -1.1353  0.3683  0.8040
 1608TIP3    H226384   1.319   6.358   7.792 -0.1630  1.3177 -0.0208
 1609TIP3   OH226385   1.905   0.144   0.608  0.0261 -0.3921 -0.6151
 1609TIP3    H126386   1.864   0.223   0.643  0.2365 -0.3606 -0.4408
 1609TIP3    H226387   1.988   0.174   0.572 -0.4975 -0.2921 -1.8047
 1610TIP3   OH226388   5.414   2.064   7.868 -0.8973 -0.1181  0.1624
 1610TIP3    H126389   5.463   2.069   7.950 -0.4207  1.2650 -0.1770
 1610TIP3    H226390   5.422   2.152   7.830 -1.4037 -0.6364 -1.1971
 1611TIP3   OH226391   3.775   2.160   2.134  0.2996  0.3980 -0.3393
 1611TIP3    H126392   3.842   2.121   2.189  0.5760  1.7295  0.2996
 1611TIP3    H226393   3.732   2.085   2.092  0.7156 -0.5838  0.9285
 1612TIP3   OH226394   4.986   1.812   8.437 -0.8284 -0.5742  0.1702
 1612TIP3    H126395   4.893   1.819   8.458 -0.7443  1.4911  0.0975
 1612TIP3    H226396   5.024   1.893   8.472  1.2417 -2.0858  1.6060
 1613TIP3   OH226397   1.453   2.192   2.164 -0.2913 -0.0503  0.3438
 1613TIP3    H126398   1.364   2.163   2.183  0.2334 -2.1952 -0.2055
 1613TIP3    H226399   1.498   2.188   2.249 -0.4414 -0.0173  0.4253
 1614TIP3   OH226400   4.885   2.998   0.033 -0.5366 -0.1552  0.2212
 1614TIP3    H126401   4.975   2.998   0.064  0.0286 -1.4628 -1.2702
 1614TIP3    H226402   4.872   3.084  -0.006 -1.0200  1.2382  3.2368
 1615TIP3   OH226403   1.280   2.460   1.753  0.2049 -0.0972 -0.0448
 1615TIP3    H126404   1.362   2.431   1.712 -0.2589  0.0813 -1.1222
 1615TIP3    H226405   1.292   2.441   1.847  0.0693 -3.4904 -0.5937
 1616TIP3   OH226406   4.681   1.933   1.196  0.4159  0.3367  0.9318
 1616TIP3    H126407   4.744   1.894   1.135 -0.3101 -0.5346  0.7214
 1616TIP3    H226408   4.732   1.998   1.244  1.4379 -0.2352  0.6498
 1617TIP3   OH226409   2.878   0.427   0.892  0.0389  0.5965  0.1403
 1617TIP3    H126410   2.874   0.521   0.910 -0.6793  0.5602  0.1814
 1617TIP3    H226411   2.866   0.421   0.797  0.1763  0.5534  0.1260
 1618TIP3   OH226412   3.308   4.581   7.375  0.1860  0.2650 -0.0138
 1618TIP3    H126413   3.261   4.557   7.295  0.6039  0.0054 -0.1822
 1618TIP3    H226414   3.258   4.655   7.410 -0.9421 -0.6228  0.3513
 1619TIP3   OH226415   0.646   4.403   1.076 -0.1252 -0.3597  0.1854
 1619TIP3    H126416   0.673   4.473   1.017 -0.9061 -0.9137 -0.8721
 1619TIP3    H226417   0.727   4.372   1.116  0.8112 -1.4986 -2.3577
 1620TIP3   OH226418   0.860   0.955   8.573 -0.0471  0.2603  0.2598
 1620TIP3    H126419   0.907   0.880   8.537  1.1480  1.3024 -0.4169
 1620TIP3    H226420   0.816   0.921   8.651  0.6781 -1.0797  0.1051
 1621TIP3   OH226421   5.248   4.192   1.001 -0.5572  0.1284 -0.5149
 1621TIP3    H126422   5.331   4.151   0.976  0.6506  1.1205  1.5629
 1621TIP3    H226423   5.223   4.245   0.926  1.9428  1.6241 -0.3809
 1622TIP3   OH226424   4.759   2.974   8.139 -0.0300 -0.4591  0.3002
 1622TIP3    H126425   4.762   2.883   8.170 -0.6601  0.0114  1.8790
 1622TIP3    H226426   4.812   3.022   8.202 -0.5874  0.4207  0.1151
 1623TIP3   OH226427   2.331   0.267   1.833  0.7154 -0.0133  0.0453
 1623TIP3    H126428   2.300   0.323   1.904  1.7803  1.9491 -0.9523
 1623TIP3    H226429   2.290   0.302   1.755  0.9833 -0.9892 -0.5532
 1624TIP3   OH226430   2.496   6.602   6.972 -0.0134 -0.6468 -0.0794
 1624TIP3    H126431   2.508   6.508   6.958 -0.8731 -1.0768  1.7169
 1624TIP3    H226432   2.426   6.608   7.038  1.2966  1.1724  1.2627
 1625TIP3   OH226433   5.039   3.025   7.436  0.1160  0.2324  0.0695
 1625TIP3    H126434   5.004   3.009   7.348  0.2386  0.5647 -0.0404
 1625TIP3    H226435   4.997   2.958   7.491  1.0319 -0.8347 -0.4865
 1626TIP3   OH226436   0.177   5.916   7.186 -0.0244 -0.1497 -0.4951
 1626TIP3    H126437   0.171   5.821   7.182 -1.9060 -0.0653 -0.6118
 1626TIP3    H226438   0.259   5.937   7.142 -0.0174 -1.6569 -1.2663
 1627TIP3   OH226439   6.439   1.863   7.281 -0.3979  0.6802 -0.0720
 1627TIP3    H126440   6.439   1.936   7.344 -0.7821  0.5939  0.0312
 1627TIP3    H226441   6.389   1.794   7.325  0.2227  0.2409 -0.0423
 1628TIP3   OH226442   3.885   1.772   1.560 -0.2537  0.2934 -0.1458
 1628TIP3    H126443   3.944   1.729   1.498 -0.6861  0.0498 -0.3956
 1628TIP3    H226444   3.807   1.716   1.561 -0.4984  0.6372  0.1417
 1629TIP3   OH226445   1.609   2.768   6.993  0.5254 -0.0861 -0.2302
 1629TIP3    H126446   1.530   2.743   7.041  0.8538  3.2833  2.4841
 1629TIP3    H226447   1.577   2.830   6.926  0.7771  1.6832  1.2033
 1630TIP3   OH226448   4.245   0.489   7.557  0.2180 -0.7165  0.6357
 1630TIP3    H126449   4.157   0.463   7.583  0.1758 -1.4760 -0.2444
 1630TIP3    H226450   4.259   0.572   7.603 -1.1221 -0.3501  0.4409
 1631TIP3   OH226451   0.107   4.483   0.042 -0.3587  0.2983 -0.1048
 1631TIP3    H126452   0.031   4.449   0.089 -0.0505  0.0651  0.2236
 1631TIP3    H226453   0.090   4.577   0.036 -1.2471  0.0936 -1.0836
 1632TIP3   OH226454   4.380   1.395   2.219  0.2166 -0.8144 -0.5412
 1632TIP3    H126455   4.360   1.303   2.235 -0.8367 -1.0462 -2.8540
 1632TIP3    H226456   4.327   1.442   2.283  0.1908 -1.7851  0.1797
 1633TIP3   OH226457   4.268   1.964   8.676 -0.2927  0.3364  0.2734
 1633TIP3    H126458   4.226   1.880   8.692  0.2179 -0.2590 -1.3213
 1633TIP3    H226459   4.213   2.007   8.611  1.1359 -0.1822 -1.3535
 1634TIP3   OH226460   0.247   2.546   7.759 -0.6948 -0.3913  0.2283
 1634TIP3    H126461   0.165   2.531   7.712 -0.7078 -2.2613  0.7510
 1634TIP3    H226462   0.231   2.623   7.813 -1.5089  0.3001 -0.9724
 1635TIP3   OH226463   5.729   3.192   8.225 -0.5270  0.0412  0.1473
 1635TIP3    H126464   5.743   3.100   8.206 -0.2417  0.1901 -0.3806
 1635TIP3    H226465   5.813   3.223   8.259 -1.3336 -0.5025  2.9251
 1636TIP3   OH226466   1.331   6.391   0.889 -0.1080 -0.4318 -0.1792
 1636TIP3    H126467   1.309   6.478   0.922  2.9133 -0.0955  1.2842
 1636TIP3    H226468   1.335   6.337   0.968 -0.6129 -1.6075 -0.9356
 1637TIP3   OH226469   6.190   3.080   6.631 -0.4385  0.3003  0.6422
 1637TIP3    H126470   6.280   3.106   6.612 -0.3405  0.1840  0.9352
 1637TIP3    H226471   6.200   3.003   6.688 -0.7193 -0.2278 -0.0213
 1638TIP3   OH226472   0.524   5.971   7.276  0.0470  0.8650 -0.2396
 1638TIP3    H126473   0.545   6.006   7.362  0.1229  0.9388 -0.2874
 1638TIP3    H226474   0.546   6.042   7.215 -0.1038  0.8509 -0.3112
 1639TIP3   OH226475   0.209   0.211   1.161 -0.0765  0.2474 -0.3791
 1639TIP3    H126476   0.187   0.205   1.254  1.6413 -0.4335  0.0211
 1639TIP3    H226477   0.184   0.125   1.126 -1.4941  0.7864 -0.7599
 1640TIP3   OH226478   3.014   6.733   2.282 -0.8372 -0.4475 -0.4475
 1640TIP3    H126479   3.005   6.824   2.312  0.1947 -0.7125  0.7891
 1640TIP3    H226480   3.071   6.738   2.206 -0.8693 -0.0413 -0.4449
 1641TIP3   OH226481   0.782   3.611   7.497  0.0190  1.1565  0.0533
 1641TIP3    H126482   0.769   3.550   7.425 -2.2326  0.6084  0.8479
 1641TIP3    H226483   0.871   3.593   7.529  0.5885  0.5693 -1.7570
 1642TIP3   OH226484   1.057   5.231   0.011 -0.8630 -0.1667 -0.6666
 1642TIP3    H126485   1.035   5.154   0.063  2.2066 -0.6060  0.1385
 1642TIP3    H226486   1.014   5.303   0.057  1.4593 -0.5666  2.5207
 1643TIP3   OH226487   3.050   5.699   7.789 -0.4472  0.1005 -0.2063
 1643TIP3    H126488   3.109   5.630   7.821  1.1638  1.2811 -0.5077
 1643TIP3    H226489   3.032   5.753   7.866 -0.9473 -0.1093 -0.1715
 1644TIP3   OH226490   6.138   1.327   0.256 -0.2138  0.4410 -0.2345
 1644TIP3    H126491   6.153   1.391   0.186 -0.8853  0.0761 -0.7196
 1644TIP3    H226492   6.083   1.373   0.319 -0.3751  0.4683 -0.3950
 1645TIP3   OH226493   2.134   5.890   0.925 -0.1919 -0.4258  0.2301
 1645TIP3    H126494   2.207   5.834   0.898  1.8217  2.6248 -1.1480
 1645TIP3    H226495   2.065   5.871   0.862  1.9529  1.4765 -2.9903
 1646TIP3   OH226496   5.977   4.789   7.151 -0.1169 -0.2989 -0.4484
 1646TIP3    H126497   5.892   4.799   7.109  0.2877 -0.7684 -1.4093
 1646TIP3    H226498   6.017   4.714   7.106  1.2009  0.5292 -0.7029
 1647TIP3   OH226499   5.868   1.524   0.845  0.0256 -0.3917 -0.0007
 1647TIP3    H126500   5.961   1.513   0.824 -0.0396  0.5313 -0.8520
 1647TIP3    H226501   5.826   1.447   0.806  0.7234 -2.4740  2.9761
 1648TIP3   OH226502   4.525   0.415   8.355 -0.1324  0.1428  0.7710
 1648TIP3    H126503   4.497   0.339   8.407 -0.9694  0.7325  1.1991
 1648TIP3    H226504   4.501   0.491   8.408 -2.5778  0.8452 -1.1450
 1649TIP3   OH226505   5.533   3.002   1.054 -0.3531  0.3398 -0.0577
 1649TIP3    H126506   5.445   3.039   1.064 -0.4217  0.3955 -0.7967
 1649TIP3    H226507   5.588   3.076   1.030 -0.1692  0.2416  0.0524
 1650TIP3   OH226508   1.087   5.776   7.980 -0.1877  0.2712 -0.6176
 1650TIP3    H126509   1.091   5.683   7.957  3.0221  0.4127 -0.9980
 1650TIP3    H226510   1.141   5.820   7.915  0.5671  2.0619  1.1103
 1651TIP3   OH226511   5.684   3.821   2.156  0.0218 -0.3605  0.2795
 1651TIP3    H126512   5.771   3.796   2.126  0.2143  0.2298  0.3229
 1651TIP3    H226513   5.662   3.897   2.103 -0.7877 -0.9542 -0.2473
 1652TIP3   OH226514   2.918   4.222   8.189  0.5204  0.1514 -0.0254
 1652TIP3    H126515   2.948   4.288   8.251 -1.0485  0.3261  0.5911
 1652TIP3    H226516   2.953   4.250   8.104  0.6962  1.2214  0.3867
 1653TIP3   OH226517   5.592   3.855   1.519  0.0535 -0.4852 -0.0505
 1653TIP3    H126518   5.552   3.769   1.522 -2.5864  0.5743 -1.7178
 1653TIP3    H226519   5.551   3.903   1.591 -0.5218  0.1230 -0.7621
 1654TIP3   OH226520   1.406   6.131   7.975  0.3189 -0.2473  0.5153
 1654TIP3    H126521   1.472   6.063   7.968 -1.1234 -1.8598  1.7698
 1654TIP3    H226522   1.328   6.086   8.007 -1.0723  1.7806  0.1926
 1655TIP3   OH226523   6.759   0.947   1.856 -0.0951 -0.4477  0.2773
 1655TIP3    H126524   6.754   0.909   1.769 -2.9947 -1.7502  0.9052
 1655TIP3    H226525   6.809   0.882   1.907 -1.1107 -1.2635  0.2756
 1656TIP3   OH226526   0.897   5.012   1.173 -0.2670  0.2630 -0.0971
 1656TIP3    H126527   0.916   4.921   1.151  1.7634  0.3146  1.1462
 1656TIP3    H226528   0.888   5.057   1.089  3.2945 -0.2378 -0.8735
 1657TIP3   OH226529   5.459   0.570   8.302 -0.1712 -0.5205  0.4577
 1657TIP3    H126530   5.436   0.561   8.209 -0.8790 -2.3874  0.7632
 1657TIP3    H226531   5.522   0.642   8.304 -0.8737  0.2243 -1.3281
 1658TIP3   OH226532   1.200   4.034   7.727  0.5042 -0.0658  0.0493
 1658TIP3    H126533   1.189   3.955   7.780 -0.8964  0.4613  0.6047
 1658TIP3    H226534   1.185   4.106   7.788  0.0789  0.5853 -0.8015
 1659TIP3   OH226535   0.222   2.244   2.441  0.3858 -0.4251  0.0814
 1659TIP3    H126536   0.222   2.291   2.358 -0.5585 -0.5491  0.0063
 1659TIP3    H226537   0.263   2.160   2.420 -0.3149 -0.6595 -0.3875
 1660TIP3   OH226538   4.347   0.365   0.402 -0.2061  0.3072 -0.4210
 1660TIP3    H126539   4.339   0.363   0.307  1.0904 -0.4038 -0.5398
 1660TIP3    H226540   4.298   0.288   0.432  1.1294 -0.6929 -0.7003
 1661TIP3   OH226541   4.929   4.442   2.194 -0.2788  0.4952 -0.2369
 1661TIP3    H126542   4.843   4.467   2.160 -1.3680 -1.3296  1.0620
 1661TIP3    H226543   4.916   4.427   2.287  1.6563  0.9841  0.1657
 1662TIP3   OH226544   3.506   1.358   1.656 -0.0190  0.2229 -0.1263
 1662TIP3    H126545   3.591   1.327   1.689  0.4914  0.8947 -0.7734
 1662TIP3    H226546   3.449   1.358   1.733  0.4196 -0.7259  0.2137
 1663TIP3   OH226547   2.297   1.857   8.659  0.0627 -0.0120  0.4100
 1663TIP3    H126548   2.217   1.812   8.634 -0.8272  0.7771  1.7216
 1663TIP3    H226549   2.303   1.931   8.598  0.6934 -0.9718 -0.7320
 1664TIP3   OH226550   6.666   2.692   8.204  0.0121 -0.1918 -0.0643
 1664TIP3    H126551   6.577   2.676   8.237 -0.1615  0.3008 -0.2891
 1664TIP3    H226552   6.720   2.630   8.253 -0.3307  0.1016  0.7016
 1665TIP3   OH226553   1.278   1.262   0.782  0.0903  0.5304 -0.0732
 1665TIP3    H126554   1.239   1.175   0.791  1.0994  0.1658  1.0337
 1665TIP3    H226555   1.229   1.316   0.844  0.8087  0.2391  0.7822
 1666TIP3   OH226556   6.803   5.133   6.772 -0.1763  0.5914 -0.2855
 1666TIP3    H126557   6.760   5.096   6.849  2.4855  0.7680  1.4381
 1666TIP3    H226558   6.804   5.062   6.708  0.5033 -0.7408  1.1376
 1667TIP3   OH226559   3.558   3.267   7.780  0.4199  0.4098  0.6900
 1667TIP3    H126560   3.643   3.281   7.822  1.3013 -1.1108 -0.4861
 1667TIP3    H226561   3.578   3.216   7.702 -1.7718 -1.7438  1.4126
 1668TIP3   OH226562   0.954   2.144   8.333 -0.3302  0.0616  0.1692
 1668TIP3    H126563   0.878   2.108   8.378 -0.9640  1.2433  0.0770
 1668TIP3    H226564   0.926   2.230   8.302  1.3087  0.9160  0.9151
 1669TIP3   OH226565   1.312   1.768   1.623 -0.0795  0.2655  0.0870
 1669TIP3    H126566   1.232   1.791   1.671  0.1569  1.2886 -0.0098
 1669TIP3    H226567   1.350   1.696   1.674 -1.2599 -0.5224 -0.0868
 1670TIP3   OH226568   1.007   2.641   1.374 -0.4783  0.4174 -0.4754
 1670TIP3    H126569   1.035   2.551   1.357  0.7999  0.4736  1.1004
 1670TIP3    H226570   1.082   2.695   1.351 -1.0992  1.0593 -1.0483
 1671TIP3   OH226571   4.513   3.323   0.545 -0.5514 -0.4520  0.2614
 1671TIP3    H126572   4.510   3.267   0.468 -2.0116 -0.3960  0.2644
 1671TIP3    H226573   4.579   3.282   0.602  0.9439 -0.1955 -1.2076
 1672TIP3   OH226574   4.194   5.926   1.492  0.7613 -0.0246  0.2429
 1672TIP3    H126575   4.143   5.997   1.453  1.2869  0.1712 -0.0882
 1672TIP3    H226576   4.281   5.935   1.455  0.6510 -1.2908 -0.3833
 1673TIP3   OH226577   3.002   3.598   2.703 -0.2382  0.2064 -0.3486
 1673TIP3    H126578   2.932   3.663   2.713 -0.4858 -0.1754  0.4890
 1673TIP3    H226579   2.969   3.537   2.637 -0.3810  0.4254 -0.4816
 1674TIP3   OH226580   4.638   6.180   0.543 -0.2062  0.1751 -0.0846
 1674TIP3    H126581   4.715   6.131   0.513  0.7501  0.9878  0.9357
 1674TIP3    H226582   4.577   6.112   0.574  0.7366 -0.4222  0.5116
 1675TIP3   OH226583   6.817   3.773   0.760  0.2829  0.1079  0.6285
 1675TIP3    H126584   6.825   3.710   0.832 -0.2654  0.5348  1.0699
 1675TIP3    H226585   6.884   3.838   0.778 -1.5085  1.6500  2.2532
 1676TIP3   OH226586   3.967   3.758   7.998  0.1686  0.1794 -0.1304
 1676TIP3    H126587   4.005   3.758   8.086  1.8433 -0.9263 -0.8214
 1676TIP3    H226588   4.009   3.831   7.954 -2.1242  2.0303  0.4938
 1677TIP3   OH226589   1.013   2.534   2.110 -0.2210  0.0264  0.0342
 1677TIP3    H126590   1.071   2.565   2.041  1.3089  0.1330  1.3045
 1677TIP3    H226591   1.062   2.464   2.154 -0.8275  0.4378  1.4406
 1678TIP3   OH226592   1.512   3.579   1.722  0.0307  0.1881 -0.1948
 1678TIP3    H126593   1.498   3.492   1.760 -1.5333 -0.5645 -2.2541
 1678TIP3    H226594   1.489   3.640   1.792 -1.8153 -1.1020  0.4077
 1679TIP3   OH226595   5.816   0.935   2.191  0.0323  0.2935 -0.4941
 1679TIP3    H126596   5.828   1.030   2.194  2.2314  0.0664 -0.6872
 1679TIP3    H226597   5.851   0.904   2.275  0.2449 -0.4224 -0.8454
 1680TIP3   OH226598   1.396   1.914   1.394  0.3127  0.0802  0.1401
 1680TIP3    H126599   1.322   1.904   1.334  0.7762  0.4914 -0.5127
 1680TIP3    H226600   1.372   1.862   1.471 -0.4884 -0.0872 -0.2161
 1681TIP3   OH226601   4.374   5.697   8.323  0.2664  0.1929  0.3605
 1681TIP3    H126602   4.461   5.659   8.324  0.3310  0.3126 -0.2937
 1681TIP3    H226603   4.315   5.623   8.342  0.5208  0.1718  1.1022
 1682TIP3   OH226604   3.677   1.901   0.240 -0.5811 -0.0508  0.4740
 1682TIP3    H126605   3.716   1.869   0.321 -2.6068 -0.0713  1.4917
 1682TIP3    H226606   3.585   1.919   0.262 -1.4660 -1.0424 -2.0602
 1683TIP3   OH226607   5.345   1.354   2.579 -0.5232 -0.4486 -0.1905
 1683TIP3    H126608   5.352   1.349   2.674 -1.1166  0.3951 -0.0949
 1683TIP3    H226609   5.343   1.447   2.559 -0.7268 -0.6154 -1.0122
 1684TIP3   OH226610   1.203   2.309   8.595  0.5188  0.0904  0.2768
 1684TIP3    H126611   1.134   2.376   8.594  0.6703  0.2464 -0.8933
 1684TIP3    H226612   1.272   2.347   8.649  0.0950  0.3374  0.6623
 1685TIP3   OH226613   2.985   2.917   7.461  0.0862 -0.3595 -0.1893
 1685TIP3    H126614   3.025   2.865   7.390 -0.1133  0.2659 -0.7722
 1685TIP3    H226615   3.049   2.987   7.477 -0.8018  0.7199 -1.2108
 1686TIP3   OH226616   0.086   3.343   1.186 -0.0063 -0.5498 -0.2053
 1686TIP3    H126617   0.022   3.412   1.201 -1.2362 -1.6732 -0.1800
 1686TIP3    H226618   0.166   3.377   1.227  0.0895  1.8369 -2.1162
 1687TIP3   OH226619   2.973   5.289   2.688 -0.0229  0.0564  0.0048
 1687TIP3    H126620   3.035   5.258   2.622 -0.9781  0.2382 -1.0050
 1687TIP3    H226621   2.916   5.349   2.641 -1.0282 -0.1773  0.8822
 1688TIP3   OH226622   1.001   5.496   8.391  0.3133  0.1793 -0.4595
 1688TIP3    H126623   0.982   5.404   8.372 -1.5946  0.1132  1.3582
 1688TIP3    H226624   0.920   5.543   8.371  0.3616  1.0229  1.0956
 1689TIP3   OH226625   2.466   3.823   1.721 -0.1715 -0.5815  0.3612
 1689TIP3    H126626   2.376   3.808   1.750 -0.6023  0.3020 -0.4777
 1689TIP3    H226627   2.519   3.786   1.791 -1.1712  1.7144  2.4887
 1690TIP3   OH226628   1.897   3.846   1.596  0.5120 -0.3469  0.3502
 1690TIP3    H126629   1.822   3.794   1.566  0.5311 -0.2017  0.0415
 1690TIP3    H226630   1.930   3.888   1.516 -0.4650  1.4047  0.8278
 1691TIP3   OH226631   5.029   4.580   2.469 -0.0157  0.3247  0.7543
 1691TIP3    H126632   4.938   4.553   2.475  0.0117 -0.0297 -0.2888
 1691TIP3    H226633   5.071   4.539   2.544 -0.8191  0.9682  1.5784
 1692TIP3   OH226634   4.006   1.037   8.190 -0.2262  0.4050 -0.1811
 1692TIP3    H126635   3.922   1.058   8.150 -1.5348 -0.4254  1.9585
 1692TIP3    H226636   4.068   1.035   8.117 -1.9815  1.3709 -1.7676
 1693TIP3   OH226637   3.938   0.529   1.253 -1.0063 -0.5424  0.2787
 1693TIP3    H126638   4.022   0.551   1.292 -1.1998  0.7287  0.0205
 1693TIP3    H226639   3.873   0.559   1.317 -1.2700 -1.9038  0.6734
 1694TIP3   OH226640   2.031   5.948   2.662 -0.1304  0.9424 -0.0165
 1694TIP3    H126641   2.107   5.934   2.717 -1.0316 -0.1154  1.0034
 1694TIP3    H226642   2.038   6.040   2.635  2.3206  0.4638 -1.2756
 1695TIP3   OH226643   5.964   2.324   0.826  0.2798 -1.1159 -0.0811
 1695TIP3    H126644   6.059   2.311   0.822  0.4447 -0.0128 -0.1369
 1695TIP3    H226645   5.953   2.419   0.822 -0.8592 -1.2572 -0.5385
 1696TIP3   OH226646   3.392   3.795   0.858  0.3585 -0.2564  0.1955
 1696TIP3    H126647   3.307   3.801   0.902  0.6112  0.1981  0.6232
 1696TIP3    H226648   3.435   3.878   0.877  0.9167 -0.5009  0.0135
 1697TIP3   OH226649   2.466   6.498   8.121  0.3663 -0.5921  0.2499
 1697TIP3    H126650   2.413   6.548   8.184 -1.3205 -1.5953 -0.3102
 1697TIP3    H226651   2.411   6.423   8.098  1.0683 -0.4540 -2.1429
 1698TIP3   OH226652   4.655   4.261   2.166 -0.2253 -0.4007 -0.3043
 1698TIP3    H126653   4.667   4.352   2.137  1.1648 -0.3862  0.2398
 1698TIP3    H226654   4.627   4.214   2.088 -0.2550  0.3646 -0.7641
 1699TIP3   OH226655   4.304   2.116   8.088  0.8139  0.5223 -0.9301
 1699TIP3    H126656   4.399   2.106   8.082  1.1407  1.9434  0.8727
 1699TIP3    H226657   4.288   2.206   8.058  0.6168  1.7631  2.4420
 1700TIP3   OH226658   4.028   0.816   8.351  0.2362 -0.5630  0.0733
 1700TIP3    H126659   4.098   0.758   8.321 -0.6568 -1.3877 -0.5164
 1700TIP3    H226660   4.034   0.893   8.295  0.4400 -0.8018 -0.2370
 1701TIP3   OH226661   4.881   3.893   0.667  0.2754  0.3243  0.6759
 1701TIP3    H126662   4.929   3.895   0.583 -2.3980 -2.6016 -1.1310
 1701TIP3    H226663   4.918   3.818   0.714 -0.4657 -0.1226  0.5679
 1702TIP3   OH226664   1.553   4.027   0.816 -0.0749  0.2712  0.5692
 1702TIP3    H126665   1.587   4.087   0.749  1.4609  0.7102  1.6838
 1702TIP3    H226666   1.513   4.085   0.882  0.9832  0.0647  1.4152
 1703TIP3   OH226667   1.536   0.999   0.253  0.2868  0.3782  0.0748
 1703TIP3    H126668   1.610   1.009   0.194  1.0065  1.7457  1.1591
 1703TIP3    H226669   1.505   1.088   0.269 -0.4602 -0.0281  1.0368
 1704TIP3   OH226670   2.778   2.734   1.662 -0.4992  0.6314 -0.3319
 1704TIP3    H126671   2.835   2.777   1.598  0.3604  0.3880  0.2668
 1704TIP3    H226672   2.692   2.735   1.620  0.3327 -1.0326 -2.2363
 1705TIP3   OH226673   2.924   2.927   1.510  0.6856  0.5997  0.7182
 1705TIP3    H126674   3.017   2.907   1.495  0.9032  0.3689  2.1929
 1705TIP3    H226675   2.897   2.974   1.431  1.4960 -1.1043 -0.6567
 1706TIP3   OH226676   2.332   6.809   1.662  0.0319 -0.1641  0.3169
 1706TIP3    H126677   2.277   6.732   1.650  0.5873 -0.6064  0.5705
 1706TIP3    H226678   2.281   6.881   1.625 -0.0476 -0.8175 -0.8918
 1707TIP3   OH226679   5.995   6.309   2.211  0.6836  0.5588 -0.0937
 1707TIP3    H126680   5.977   6.219   2.185 -1.7138  0.9643 -0.0908
 1707TIP3    H226681   6.016   6.354   2.129 -2.0800  0.7872 -0.7906
 1708TIP3   OH226682   4.097   5.456   1.096  0.4268  0.5026  0.1026
 1708TIP3    H126683   4.138   5.540   1.079  1.3037 -0.3518 -2.6413
 1708TIP3    H226684   4.003   5.473   1.091  0.5905  1.4142  0.1169
 1709TIP3   OH226685   4.048   1.003   1.662  0.6109 -0.4573 -0.0735
 1709TIP3    H126686   4.138   0.975   1.672  0.7290 -0.0773 -0.0280
 1709TIP3    H226687   4.044   1.088   1.707  0.2949 -0.3564 -0.2812
 1710TIP3   OH226688   4.245   6.562   1.197 -0.1887  0.6012 -1.1848
 1710TIP3    H126689   4.269   6.471   1.214 -1.9193  0.4604  0.9272
 1710TIP3    H226690   4.329   6.607   1.181  0.9563 -0.8624  0.3713
 1711TIP3   OH226691   0.022   0.656   1.480 -0.0786  0.0985 -0.4995
 1711TIP3    H126692   0.000   0.563   1.488  1.4680 -0.2430  0.1127
 1711TIP3    H226693   0.111   0.656   1.443 -0.8562  1.3865 -2.5713
 1712TIP3   OH226694   5.431   6.624   1.088 -0.0643  0.0092  0.1496
 1712TIP3    H126695   5.523   6.649   1.093 -0.4985  1.4364  2.2096
 1712TIP3    H226696   5.432   6.538   1.045  2.2805 -0.3634  0.7952
 1713TIP3   OH226697   2.879   1.514   0.901  0.7100 -0.3869 -0.9657
 1713TIP3    H126698   2.968   1.500   0.933  0.7800  1.7867 -0.0279
 1713TIP3    H226699   2.828   1.443   0.940  1.7169 -0.6966 -0.1616
 1714TIP3   OH226700   2.942   6.198   1.587  0.3838 -0.3127 -0.3047
 1714TIP3    H126701   2.939   6.254   1.510  0.1375  0.8466  0.5164
 1714TIP3    H226702   3.034   6.199   1.615  0.1515  0.8257  0.4928
 1715TIP3   OH226703   6.131   3.697   7.528  0.1333 -0.4426 -0.1154
 1715TIP3    H126704   6.160   3.606   7.539 -0.4859 -0.5029  1.3406
 1715TIP3    H226705   6.143   3.715   7.435  1.7565 -1.4946 -0.1582
 1716TIP3   OH226706   1.668   0.090   7.138 -0.3150 -0.3378 -0.1583
 1716TIP3    H126707   1.754   0.056   7.113  0.2951 -0.2010  1.5657
 1716TIP3    H226708   1.621   0.014   7.174 -0.5731 -0.2343 -0.2720
 1717TIP3   OH226709   1.901   5.125   0.655 -0.1058  0.0591  0.0664
 1717TIP3    H126710   1.844   5.109   0.580  0.4747  0.2095 -0.4171
 1717TIP3    H226711   1.850   5.181   0.713 -1.0446 -1.0862  0.3872
 1718TIP3   OH226712   3.971   0.438   1.890  0.4423 -0.1629 -0.1631
 1718TIP3    H126713   4.038   0.401   1.834  0.0576 -2.6034  0.8614
 1718TIP3    H226714   3.901   0.465   1.831  1.2794  0.1387 -1.0345
 1719TIP3   OH226715   0.425   0.888   1.561 -0.1898  0.4471  0.5424
 1719TIP3    H126716   0.346   0.937   1.586 -0.1649  2.0552 -2.1958
 1719TIP3    H226717   0.491   0.955   1.547  1.0462 -0.7221  0.6161
 1720TIP3   OH226718   4.193   5.227   0.908 -0.1375  0.1284 -0.4615
 1720TIP3    H126719   4.132   5.238   0.835  0.3824  0.6053 -0.8381
 1720TIP3    H226720   4.171   5.298   0.968 -0.0089  0.2522 -0.5597
 1721TIP3   OH226721   6.628   0.690   2.036  0.1434  0.8815 -0.5793
 1721TIP3    H126722   6.609   0.779   2.068  1.5254  0.5800  1.2206
 1721TIP3    H226723   6.720   0.692   2.010  0.6014 -0.3382  0.7943
 1722TIP3   OH226724   0.007   5.831   7.630  0.1045  0.5748  0.4479
 1722TIP3    H126725  -0.067   5.851   7.687 -1.4663 -0.5405 -1.0860
 1722TIP3    H226726   0.082   5.875   7.670 -1.0077  0.2164  3.0633
 1723TIP3   OH226727   5.805   0.886   8.094  0.3946  0.5445  0.2419
 1723TIP3    H126728   5.894   0.915   8.072  1.8914 -2.6833  1.5209
 1723TIP3    H226729   5.776   0.837   8.017  0.2106  0.5237  0.3236
 1724TIP3   OH226730   3.227   6.753   8.211  0.1898  0.4165 -0.6256
 1724TIP3    H126731   3.177   6.831   8.184 -2.0542 -1.3924 -2.0761
 1724TIP3    H226732   3.224   6.755   8.307 -0.7725  1.5615 -0.6526
 1725TIP3   OH226733   1.988   6.152   7.076 -0.2273 -0.3666 -0.1927
 1725TIP3    H126734   1.971   6.116   7.163 -0.8217  1.1418  0.3672
 1725TIP3    H226735   2.077   6.187   7.082 -1.5316  3.2103  1.2029
 1726TIP3   OH226736   5.562   6.142   0.639 -1.0534 -0.2228 -0.0622
 1726TIP3    H126737   5.554   6.055   0.599 -1.8848 -0.2194  0.0816
 1726TIP3    H226738   5.487   6.149   0.699  0.5711 -0.5286  2.1208
 1727TIP3   OH226739   3.881   0.254   2.195 -0.4421  0.0462  0.3022
 1727TIP3    H126740   3.960   0.210   2.164 -0.0975 -0.6024  1.9848
 1727TIP3    H226741   3.868   0.326   2.133 -0.7175 -2.0237 -2.2357
 1728TIP3   OH226742   5.294   6.003   1.060 -0.0047  0.2188 -0.1236
 1728TIP3    H126743   5.379   6.046   1.053 -0.1888  0.7030  0.4789
 1728TIP3    H226744   5.307   5.933   1.124  0.5249 -1.2371 -1.7788
 1729TIP3   OH226745   5.562   5.783   0.917  0.4639  0.4954  0.0948
 1729TIP3    H126746   5.657   5.791   0.915  0.4179  1.4563  1.0334
 1729TIP3    H226747   5.531   5.869   0.946 -0.7314  0.4333 -0.8969
 1730TIP3   OH226748   0.718   5.387   1.312 -0.1045  0.3243  0.2276
 1730TIP3    H126749   0.785   5.319   1.301  1.5177  1.6949  1.1095
 1730TIP3    H226750   0.736   5.450   1.242 -0.7791  0.4711  0.1835
 1731TIP3   OH226751   5.512   3.848   8.481  0.1000 -0.2647 -0.0205
 1731TIP3    H126752   5.457   3.889   8.548 -0.3433 -0.4271 -0.2795
 1731TIP3    H226753   5.450   3.807   8.420  0.2504  2.6357 -2.3962
 1732TIP3   OH226754   4.665   0.452   0.161 -0.0587 -0.0725 -0.0374
 1732TIP3    H126755   4.609   0.485   0.090  0.3714  0.1287 -0.2841
 1732TIP3    H226756   4.675   0.526   0.220  0.1588 -0.0320 -0.1251
 1733TIP3   OH226757   4.219   6.479   7.857 -0.4775  0.3110 -0.5055
 1733TIP3    H126758   4.231   6.539   7.931 -0.1122  2.2063 -1.9977
 1733TIP3    H226759   4.166   6.408   7.892 -0.4057  1.1780  1.5409
 1734TIP3   OH226760   3.068   2.496   0.101  0.8198  0.9782 -0.1018
 1734TIP3    H126761   3.027   2.423   0.148  1.3984  0.9866  0.4240
 1734TIP3    H226762   3.013   2.572   0.121  0.8703  0.9137  0.2784
 1735TIP3   OH226763   2.686   3.139   8.480  0.0110  0.4487  0.0592
 1735TIP3    H126764   2.718   3.227   8.458 -1.4560  0.8804 -0.4328
 1735TIP3    H226765   2.701   3.087   8.401 -0.6144  0.6812 -0.2121
 1736TIP3   OH226766   4.905   2.699   8.685  0.6339  0.1970  0.8867
 1736TIP3    H126767   4.849   2.624   8.670 -1.2520  1.7833 -0.5986
 1736TIP3    H226768   4.896   2.718   8.778  2.2427 -2.1606  1.5953
 1737TIP3   OH226769   1.470   4.188   2.217 -0.3932  0.3057  0.6170
 1737TIP3    H126770   1.399   4.132   2.248  0.1202 -0.8423 -0.2122
 1737TIP3    H226771   1.441   4.218   2.130 -0.7721  1.5491  1.1539
 1738TIP3   OH226772   5.385   4.138   1.464  0.6513  0.4126 -0.0205
 1738TIP3    H126773   5.434   4.215   1.434  1.1130  0.4416  0.7663
 1738TIP3    H226774   5.331   4.113   1.389  1.3382  0.8190 -0.6682
 1739TIP3   OH226775   3.769   5.881   8.151  0.0031  0.0052  0.2160
 1739TIP3    H126776   3.689   5.929   8.172  0.2322 -0.3770  2.1544
 1739TIP3    H226777   3.774   5.813   8.218  1.6651 -0.3032 -0.1881
 1740TIP3   OH226778   3.219   3.097   2.676  0.4381 -0.0439 -0.0303
 1740TIP3    H126779   3.163   3.048   2.737 -0.7162  1.2019 -0.0262
 1740TIP3    H226780   3.302   3.050   2.677  0.0922 -0.7093  1.6433
 1741TIP3   OH226781   3.905   0.485   0.693 -0.2427  0.4253 -0.8062
 1741TIP3    H126782   3.918   0.550   0.625  0.0092  1.3305  0.0854
 1741TIP3    H226783   3.827   0.513   0.739 -1.6223 -1.2988 -1.9443
 1742TIP3   OH226784   3.990   5.670   1.951 -0.5212 -0.0222  1.0577
 1742TIP3    H126785   4.053   5.626   2.009 -2.2763 -1.3357  2.0516
 1742TIP3    H226786   3.938   5.725   2.010  0.9511  2.7194 -0.0257
 1743TIP3   OH226787   2.955   0.228   6.973 -0.1492  0.0436 -0.2609
 1743TIP3    H126788   2.916   0.179   6.900 -0.9315  1.9781 -1.2076
 1743TIP3    H226789   3.014   0.290   6.931 -0.9032  1.4634  0.6943
 1744TIP3   OH226790   0.703   2.671   7.711  0.7527 -0.8847  0.2791
 1744TIP3    H126791   0.716   2.763   7.735 -0.8457 -0.3433 -0.8188
 1744TIP3    H226792   0.610   2.655   7.723  0.3606 -1.3766 -2.7245
 1745TIP3   OH226793   4.545   3.657   0.077  0.1024  0.0506  0.3977
 1745TIP3    H126794   4.521   3.676  -0.014  3.6987  1.1354 -0.5008
 1745TIP3    H226795   4.616   3.594   0.070  0.6812  0.4143  2.4233
 1746TIP3   OH226796   5.675   4.706   8.551 -0.0777 -0.1007 -0.0738
 1746TIP3    H126797   5.758   4.663   8.528 -0.2768 -0.5364  0.0048
 1746TIP3    H226798   5.677   4.712   8.646 -0.1749 -0.1922 -0.0660
 1747TIP3   OH226799   6.242   2.408   7.546 -0.8275  0.5694  0.6440
 1747TIP3    H126800   6.191   2.464   7.487 -0.2516  0.5888  0.1607
 1747TIP3    H226801   6.323   2.456   7.561  0.2902 -0.7166 -0.9083
 1748TIP3   OH226802   6.600   3.729   7.350 -0.2930  0.5822  0.0867
 1748TIP3    H126803   6.535   3.660   7.358  0.1384  0.0815 -0.5941
 1748TIP3    H226804   6.574   3.777   7.271  1.1143 -0.6934 -1.2224
 1749TIP3   OH226805   2.444   1.362   7.651  0.1658  0.0048  0.1141
 1749TIP3    H126806   2.503   1.410   7.709 -0.2240 -0.0788  0.5821
 1749TIP3    H226807   2.383   1.317   7.710 -0.0120 -0.3649 -0.3478
 1750TIP3   OH226808   2.045   4.072   1.632 -0.1240  0.0960 -0.4181
 1750TIP3    H126809   2.006   3.988   1.655 -1.9818  1.2182  0.7324
 1750TIP3    H226810   1.973   4.123   1.595  1.1237  0.9871 -1.7491
 1751TIP3   OH226811   2.453   2.153   2.546  0.1697  0.9725  0.2668
 1751TIP3    H126812   2.548   2.147   2.535  0.3038 -0.6342  1.9240
 1751TIP3    H226813   2.418   2.082   2.494 -0.2707  2.3139 -1.3518
 1752TIP3   OH226814   2.271   5.159   2.390 -0.2953 -0.0663  0.5182
 1752TIP3    H126815   2.300   5.070   2.373  0.1764  0.1840 -0.0199
 1752TIP3    H226816   2.341   5.215   2.357 -1.8155  0.5866 -1.9091
 1753TIP3   OH226817   5.492   5.332   7.907 -0.1750 -0.4574 -0.6602
 1753TIP3    H126818   5.431   5.353   7.836  1.2860  2.7617 -1.1684
 1753TIP3    H226819   5.577   5.326   7.865  0.8084  2.0164  0.7262
 1754TIP3   OH226820   0.916   5.134   0.951 -0.0327 -0.2023  0.0342
 1754TIP3    H126821   0.990   5.169   0.902  0.5728  0.9844  1.6984
 1754TIP3    H226822   0.839   5.162   0.902  0.5448  1.1964 -0.1131
 1755TIP3   OH226823   6.255   5.633   7.873  0.5730 -0.1938  0.6283
 1755TIP3    H126824   6.161   5.650   7.870  0.5064 -0.4907  1.0527
 1755TIP3    H226825   6.295   5.719   7.889  0.3323 -0.1803  1.1573
 1756TIP3   OH226826   1.302   4.042   0.137 -0.6321 -0.6721 -0.4219
 1756TIP3    H126827   1.255   3.962   0.160  0.3069 -0.9046  0.7681
 1756TIP3    H226828   1.315   4.035   0.042  0.8319 -2.7370 -0.1339
 1757TIP3   OH226829   4.666   2.988   7.687  0.1886 -0.1402  0.1387
 1757TIP3    H126830   4.717   2.921   7.641  1.3012  0.8356 -0.0982
 1757TIP3    H226831   4.677   3.067   7.634 -2.4136 -0.1078 -0.4678
 1758TIP3   OH226832   6.078   5.007   1.746  0.0335  0.0585 -0.0815
 1758TIP3    H126833   5.984   4.996   1.759  0.2171 -0.0822  1.3522
 1758TIP3    H226834   6.114   5.011   1.835  1.2832  1.0082 -0.5962
 1759TIP3   OH226835   2.198   3.444   1.955 -0.0003 -0.0410  0.2443
 1759TIP3    H126836   2.205   3.438   2.050  0.4273 -0.6625  0.1798
 1759TIP3    H226837   2.111   3.482   1.940  0.0938  0.4397  0.8863
 1760TIP3   OH226838   2.004   3.590   7.359 -0.0975 -0.7790 -0.4770
 1760TIP3    H126839   1.952   3.648   7.415  0.7588 -0.1022 -0.3644
 1760TIP3    H226840   2.095   3.603   7.387  0.1368 -2.0825 -0.5443
 1761TIP3   OH226841   5.637   4.670   0.124  0.6026  0.0059  0.5936
 1761TIP3    H126842   5.704   4.618   0.167  0.2159  0.6862  2.0835
 1761TIP3    H226843   5.603   4.728   0.193  0.3125  1.5045 -0.7427
 1762TIP3   OH226844   1.756   1.304   1.505  0.0568  0.3553 -0.6875
 1762TIP3    H126845   1.709   1.221   1.492 -1.0337  0.8600 -0.1166
 1762TIP3    H226846   1.832   1.280   1.559 -0.4673 -0.2149 -0.1838
 1763TIP3   OH226847   6.148   3.583   0.232 -0.4275 -0.1570 -0.6650
 1763TIP3    H126848   6.165   3.604   0.324 -0.1123  0.0561 -0.7676
 1763TIP3    H226849   6.054   3.593   0.222 -0.3601  0.6450 -0.5675
 1764TIP3   OH226850   2.276   6.026   1.639  0.0615 -0.0429 -0.3488
 1764TIP3    H126851   2.254   6.098   1.697  0.9031  1.0686 -1.3746
 1764TIP3    H226852   2.372   6.026   1.636  0.2496 -2.7428  1.4965
 1765TIP3   OH226853   0.112   2.301   2.956  0.0299 -0.5751  0.3830
 1765TIP3    H126854   0.138   2.283   2.865  0.3544 -0.9947  0.5581
 1765TIP3    H226855   0.169   2.374   2.983 -0.3415 -0.1836  0.1223
 1766TIP3   OH226856   3.128   6.240   2.696 -0.3344 -0.2363  0.2605
 1766TIP3    H126857   3.066   6.261   2.626  1.4742 -0.6169 -1.5526
 1766TIP3    H226858   3.214   6.240   2.653  0.9002 -0.2300  2.5505
 1767TIP3   OH226859   2.453   6.501   8.521  0.6464 -0.2002  0.6482
 1767TIP3    H126860   2.487   6.422   8.565 -0.8558 -0.7840  0.8381
 1767TIP3    H226861   2.466   6.571   8.585  0.7273 -0.5733  1.0497
 1768TIP3   OH226862   4.622   3.716   7.060 -0.2419 -0.5192 -0.4596
 1768TIP3    H126863   4.697   3.663   7.033 -0.5825 -0.3158 -1.9076
 1768TIP3    H226864   4.546   3.664   7.034 -0.6597 -0.9690  1.4734
 1769TIP3   OH226865   4.404   6.661   2.211 -0.0882 -0.3650 -0.4811
 1769TIP3    H126866   4.396   6.566   2.201 -2.5747 -0.0788 -2.1662
 1769TIP3    H226867   4.402   6.675   2.306 -0.3744 -1.9615 -0.2111
 1770TIP3   OH226868   6.000   0.581   2.452 -0.3072  0.1445  0.8878
 1770TIP3    H126869   6.003   0.513   2.520 -0.5950 -0.9627 -0.1690
 1770TIP3    H226870   6.062   0.551   2.386  0.5916  1.6286  1.0108
 1771TIP3   OH226871   4.387   5.968   0.458  0.1378  0.0884 -0.1495
 1771TIP3    H126872   4.352   5.880   0.442 -2.1336  0.8258  0.4445
 1771TIP3    H226873   4.373   6.015   0.375 -0.0069  0.3172  0.0045
 1772TIP3   OH226874   3.355   2.029   1.527 -0.5088 -0.9333 -0.0771
 1772TIP3    H126875   3.286   2.075   1.575 -1.2113  0.6185 -2.4238
 1772TIP3    H226876   3.328   1.937   1.529 -2.8727 -0.3325 -1.2115
 1773TIP3   OH226877   2.919   0.033   1.385 -0.0853 -0.2352 -0.0752
 1773TIP3    H126878   2.939   0.041   1.478  2.9165 -0.5077 -0.5907
 1773TIP3    H226879   2.863  -0.044   1.379 -0.8209  0.1362  1.5345
 1774TIP3   OH226880   2.239   2.608   1.489  0.2720 -0.2907  0.2891
 1774TIP3    H126881   2.170   2.624   1.554 -0.0266  3.0500 -0.6815
 1774TIP3    H226882   2.192   2.580   1.411  0.3770 -1.4056  0.6065
 1775TIP3   OH226883   1.623   3.094   2.035  0.0622  0.0504  0.1828
 1775TIP3    H126884   1.669   3.039   1.971 -1.7303 -1.0040 -0.2554
 1775TIP3    H226885   1.602   3.035   2.107 -0.0635  0.6761  0.6700
 1776TIP3   OH226886   5.220   5.552   0.094 -0.1257 -0.0250 -0.2262
 1776TIP3    H126887   5.219   5.505   0.010 -0.0419  1.0265 -0.8284
 1776TIP3    H226888   5.278   5.627   0.079 -0.3431  0.3345  0.6849
 1777TIP3   OH226889   0.110   4.886   6.668  0.6588  0.1425 -0.4732
 1777TIP3    H126890   0.042   4.890   6.601 -1.0731 -0.5907  1.1421
 1777TIP3    H226891   0.090   4.807   6.718  1.2558  1.1842  1.5299
 1778TIP3   OH226892   0.437   1.000   8.462 -0.0925  0.1083  0.4698
 1778TIP3    H126893   0.478   0.994   8.376 -0.6868  0.5571  0.1441
 1778TIP3    H226894   0.351   0.959   8.450  0.2310 -0.7864  1.1294
 1779TIP3   OH226895   6.348   4.959   0.592 -0.2425 -0.7800  0.1690
 1779TIP3    H126896   6.342   4.865   0.576  0.6375 -0.6452 -1.1508
 1779TIP3    H226897   6.258   4.989   0.596 -0.5482 -1.4061 -1.3113
 1780TIP3   OH226898   5.913   0.838   2.429 -0.0630 -0.3314  0.1701
 1780TIP3    H126899   5.926   0.744   2.436 -0.2763 -0.2728  1.7748
 1780TIP3    H226900   5.884   0.865   2.517  0.1298  1.2418 -0.2146
 1781TIP3   OH226901   4.707   4.396   0.265 -0.0718  0.1062  0.3465
 1781TIP3    H126902   4.633   4.346   0.229  0.7210 -1.6088  1.0151
 1781TIP3    H226903   4.673   4.434   0.346 -0.8313  1.1329 -0.4178
 1782TIP3   OH226904   0.240   5.367   7.953  0.1252 -0.3306  0.2671
 1782TIP3    H126905   0.154   5.399   7.981  0.3311 -0.4176  1.0312
 1782TIP3    H226906   0.225   5.277   7.926 -0.2803  0.0835 -0.9747
 1783TIP3   OH226907   0.041   6.045   8.159  0.1669 -0.3072  0.0866
 1783TIP3    H126908  -0.005   6.059   8.242  1.2237 -0.9068  0.8089
 1783TIP3    H226909   0.134   6.051   8.182  0.5564 -2.7535 -0.5695
 1784TIP3   OH226910   5.581   2.315   1.744 -0.2471  0.0751 -0.0926
 1784TIP3    H126911   5.659   2.363   1.772 -1.2835  1.1398  1.0700
 1784TIP3    H226912   5.510   2.378   1.750 -1.0973 -0.6476 -1.9144
 1785TIP3   OH226913   4.137   1.536   0.811 -0.0783 -0.1304  0.1073
 1785TIP3    H126914   4.203   1.603   0.828  1.0853 -1.5022  1.3039
 1785TIP3    H226915   4.129   1.533   0.716 -0.0794  1.5922  0.0287
 1786TIP3   OH226916   0.187   6.794   0.174  0.3217 -0.2548  0.8366
 1786TIP3    H126917   0.231   6.878   0.168  0.5005 -0.3454  0.8859
 1786TIP3    H226918   0.096   6.813   0.151  0.6264 -0.2859 -0.4767
 1787TIP3   OH226919   4.871   3.000   0.821 -0.1162  0.3327  0.2803
 1787TIP3    H126920   4.785   2.959   0.818 -0.6982  1.4257  1.1449
 1787TIP3    H226921   4.883   3.037   0.733 -1.2870  1.5922  0.6088
 1788TIP3   OH226922   5.930   4.506   1.638 -0.2385 -0.3961  0.0319
 1788TIP3    H126923   5.965   4.580   1.588 -3.6248  1.0900 -0.4768
 1788TIP3    H226924   5.964   4.428   1.594 -0.5968  0.8765 -2.7517
 1789TIP3   OH226925   5.373   6.211   7.659 -0.3441 -0.2803 -0.0102
 1789TIP3    H126926   5.354   6.197   7.752 -0.5537 -2.7932 -0.3567
 1789TIP3    H226927   5.287   6.215   7.617 -0.2575  1.1047 -0.0996
 1790TIP3   OH226928   1.839   4.873   1.392  0.1456  0.1340 -0.3832
 1790TIP3    H126929   1.933   4.863   1.406  0.1265  1.5511  1.0696
 1790TIP3    H226930   1.807   4.914   1.472 -1.8566 -1.0047 -0.5323
 1791TIP3   OH226931   5.396   4.289   7.986  0.4275  0.2596 -0.7056
 1791TIP3    H126932   5.348   4.237   7.921  0.1511 -1.2808  0.6762
 1791TIP3    H226933   5.371   4.379   7.967 -2.5971 -0.4107 -0.4508
 1792TIP3   OH226934   6.409   1.274   1.292  0.1012  0.1119 -0.2227
 1792TIP3    H126935   6.501   1.292   1.272  0.3240 -1.1134 -0.3614
 1792TIP3    H226936   6.392   1.190   1.250 -1.0216  0.2070  0.0203
 1793TIP3   OH226937   0.928   1.367   1.313  0.4542 -0.4560 -0.2088
 1793TIP3    H126938   1.001   1.369   1.375  0.9092 -1.5038 -0.6839
 1793TIP3    H226939   0.851   1.388   1.366  1.1487  1.2119  0.1929
 1794TIP3   OH226940   4.292   5.673   7.863 -0.0105  0.1303 -0.5201
 1794TIP3    H126941   4.231   5.713   7.926 -0.2076 -0.5828 -0.2541
 1794TIP3    H226942   4.354   5.624   7.917  0.6803  0.6670 -0.8031
 1795TIP3   OH226943   2.259   6.170   6.933  0.1453 -0.2466 -0.2066
 1795TIP3    H126944   2.210   6.088   6.930  0.2126 -0.2724 -1.4504
 1795TIP3    H226945   2.268   6.190   7.026 -0.6054 -1.2058  0.0899
 1796TIP3   OH226946   3.804   2.161   0.231  0.2564 -0.3802  0.3225
 1796TIP3    H126947   3.892   2.124   0.240  0.5388 -0.1162 -1.1651
 1796TIP3    H226948   3.746   2.085   0.237  0.7008 -0.7915 -0.4726
 1797TIP3   OH226949   6.039   4.392   2.835  0.0418  0.5758 -0.1398
 1797TIP3    H126950   6.114   4.332   2.835  1.1908  1.9278 -0.6053
 1797TIP3    H226951   5.967   4.340   2.800  0.6305 -0.9062  0.7432
 1798TIP3   OH226952   3.268   3.092   8.579 -0.1924  0.2638  0.1566
 1798TIP3    H126953   3.325   3.127   8.510 -0.9920  3.1968  0.8601
 1798TIP3    H226954   3.325   3.083   8.655 -0.2212  1.2740  0.3061
 1799TIP3   OH226955   5.341   6.515   1.678 -0.2451 -0.0262  0.0335
 1799TIP3    H126956   5.385   6.444   1.631 -0.1264  0.0516  0.0261
 1799TIP3    H226957   5.249   6.492   1.676 -0.2689  0.0928 -0.4408
 1800TIP3   OH226958   6.290   5.264   0.641 -0.0637  0.1519  0.1272
 1800TIP3    H126959   6.256   5.180   0.671  1.7125 -0.6892 -0.1158
 1800TIP3    H226960   6.212   5.317   0.626 -1.6151 -2.7740 -3.9281
 1801TIP3   OH226961   1.371   4.938   2.621 -0.2489 -0.4164  0.4609
 1801TIP3    H126962   1.290   4.958   2.667  0.6351 -2.1762  2.9801
 1801TIP3    H226963   1.437   4.994   2.661  0.2020 -0.5530 -0.0661
 1802TIP3   OH226964   3.478   1.392   1.925 -0.0047 -0.2764  0.1750
 1802TIP3    H126965   3.443   1.344   2.001  0.1276  0.2790  0.5938
 1802TIP3    H226966   3.464   1.484   1.947 -0.6251 -0.1269 -0.8075
 1803TIP3   OH226967   4.883   3.154   7.624 -0.4503  0.6055  0.2579
 1803TIP3    H126968   4.960   3.137   7.570  0.0612 -0.1573  1.1945
 1803TIP3    H226969   4.863   3.247   7.609 -0.1581  0.4867 -0.9998
 1804TIP3   OH226970   0.780   2.061   7.549  0.4116  0.3593 -0.0548
 1804TIP3    H126971   0.697   2.087   7.589 -0.0828 -0.4461 -0.5508
 1804TIP3    H226972   0.804   1.980   7.594  0.3798  0.0096 -0.6564
 1805TIP3   OH226973   1.037   5.380   7.831 -0.0872 -0.3336 -0.7966
 1805TIP3    H126974   1.006   5.332   7.754  0.8610  0.3699 -1.6375
 1805TIP3    H226975   1.131   5.390   7.818  0.1159 -0.3152  0.5261
 1806TIP3   OH226976   1.832   2.881   8.614  0.0469  0.0599 -0.6039
 1806TIP3    H126977   1.840   2.788   8.637 -0.1583 -0.0090 -0.8181
 1806TIP3    H226978   1.845   2.927   8.697 -1.2143 -0.2079 -0.2492
 1807TIP3   OH226979   2.108   0.394   2.367 -0.6737  0.0803  0.1988
 1807TIP3    H126980   2.202   0.404   2.353 -0.2768 -2.3146  0.6382
 1807TIP3    H226981   2.085   0.465   2.427  0.6541  1.2323 -0.6011
 1808TIP3   OH226982   5.096   4.857   8.103  0.3890 -0.9126 -0.0301
 1808TIP3    H126983   5.132   4.819   8.022  1.1460 -2.9064  1.1734
 1808TIP3    H226984   5.008   4.886   8.078  1.1234 -0.1247 -1.9067
 1809TIP3   OH226985   2.528   6.373   2.997  0.7459  0.2279  0.2805
 1809TIP3    H126986   2.499   6.450   2.949  1.0458 -0.0353 -0.3285
 1809TIP3    H226987   2.466   6.365   3.070  0.2679  0.6081 -0.0819
 1810TIP3   OH226988   6.397   0.180   0.712  0.1746  0.2071 -0.2818
 1810TIP3    H126989   6.423   0.109   0.771 -0.6947 -0.5400 -0.7682
 1810TIP3    H226990   6.311   0.153   0.679  0.0841  1.2218 -0.9065
 1811TIP3   OH226991   6.564   0.289   1.864  0.0705 -0.1824 -0.2987
 1811TIP3    H126992   6.539   0.313   1.775 -2.0414  2.5164  0.8777
 1811TIP3    H226993   6.488   0.241   1.897  0.7846 -1.0388  0.1169
 1812TIP3   OH226994   4.569   2.359   2.517  0.2168  0.2841 -0.4119
 1812TIP3    H126995   4.610   2.273   2.526  2.1722  1.1305 -0.8449
 1812TIP3    H226996   4.529   2.376   2.602  0.1892 -0.8476 -0.1848
 1813TIP3   OH226997   5.255   6.207   7.049  0.0126  0.7635  0.2309
 1813TIP3    H126998   5.247   6.300   7.027 -1.3939  0.5017 -0.4221
 1813TIP3    H226999   5.202   6.162   6.984 -1.3140 -0.3153  1.9895
 1814TIP3   OH227000   3.664   4.161   2.160 -0.5533  0.0442 -0.3281
 1814TIP3    H127001   3.723   4.091   2.131 -0.0109  0.3648 -0.0192
 1814TIP3    H227002   3.633   4.200   2.078 -0.0445  0.1079 -0.4991
 1815TIP3   OH227003   6.287   1.305   8.681  0.3947 -0.1626 -0.1386
 1815TIP3    H127004   6.240   1.223   8.670  0.9019 -0.5810  0.7415
 1815TIP3    H227005   6.375   1.287   8.648  0.7124 -0.1951  0.7012
 1816TIP3   OH227006   4.383   0.109   1.929 -0.0911  0.0799  0.4163
 1816TIP3    H127007   4.450   0.117   1.998  0.7571  2.2823 -0.5701
 1816TIP3    H227008   4.398   0.022   1.892  2.9296  0.8247 -0.3901
 1817TIP3   OH227009   1.181   6.181   8.395  0.0116  0.1011  0.8664
 1817TIP3    H127010   1.260   6.174   8.449  0.2238 -1.5525  0.3951
 1817TIP3    H227011   1.127   6.106   8.422 -0.3277 -0.1526 -0.4635
 1818TIP3   OH227012   1.010   0.281   1.255 -0.4007  0.0021  0.7129
 1818TIP3    H127013   0.934   0.225   1.267  0.8543 -2.1731 -0.8075
 1818TIP3    H227014   1.084   0.221   1.244  0.8798  1.8309 -2.1805
 1819TIP3   OH227015   3.836   1.210   7.498  0.0023  0.0611 -0.1154
 1819TIP3    H127016   3.812   1.139   7.439 -1.3447  0.1691  0.2612
 1819TIP3    H227017   3.886   1.271   7.444 -3.2811  1.4106 -1.9174
 1820TIP3   OH227018   4.942   0.888   2.624 -0.6251 -0.5929 -0.1105
 1820TIP3    H127019   4.968   0.948   2.694  0.3092 -0.7024 -0.3622
 1820TIP3    H227020   4.959   0.801   2.658 -0.8680 -0.6761 -0.1967
 1821TIP3   OH227021   1.380   4.309   0.737 -0.5986  0.4028 -0.2380
 1821TIP3    H127022   1.349   4.236   0.684  1.6834 -0.4511 -0.4893
 1821TIP3    H227023   1.376   4.277   0.827  0.8247 -0.2315 -0.3834
 1822TIP3   OH227024   2.246   4.243   1.517  0.1555 -0.0570  0.4343
 1822TIP3    H127025   2.172   4.184   1.528  0.5280 -0.5036  0.5898
 1822TIP3    H227026   2.276   4.261   1.606  0.1545  0.2225  0.3793
 1823TIP3   OH227027   0.694   1.920   1.502 -0.2162  0.4053 -0.3134
 1823TIP3    H127028   0.741   1.869   1.567  1.2699  1.7006 -0.3062
 1823TIP3    H227029   0.628   1.860   1.466  0.1028 -0.8475  1.1136
 1824TIP3   OH227030   5.533   1.220   2.178  0.4531 -0.1769 -0.7938
 1824TIP3    H127031   5.467   1.265   2.231 -0.2425 -1.1402 -0.8146
 1824TIP3    H227032   5.514   1.246   2.088  1.2559  0.9805 -0.6487
 1825TIP3   OH227033   4.125   6.398   1.745  0.6703 -0.0774 -0.4000
 1825TIP3    H127034   4.160   6.479   1.709 -2.6970  2.2653  1.0845
 1825TIP3    H227035   4.048   6.379   1.692  1.1601 -2.1805 -0.4604
 1826TIP3   OH227036   5.170   3.433   7.090 -0.3730  0.2363  0.1239
 1826TIP3    H127037   5.262   3.444   7.117 -0.6554 -0.6939  1.6080
 1826TIP3    H227038   5.164   3.480   7.007  1.0469  1.7580  0.7979
 1827TIP3   OH227039   0.273   2.006   7.581  0.6443 -0.5624  0.0831
 1827TIP3    H127040   0.216   2.081   7.566 -1.1280 -1.6478  1.0387
 1827TIP3    H227041   0.233   1.935   7.529  2.2186 -0.8971 -0.7305
 1828TIP3   OH227042   4.264   1.162   7.627  0.3721  0.1700  0.0520
 1828TIP3    H127043   4.254   1.184   7.719 -3.2337 -3.5781  0.8622
 1828TIP3    H227044   4.335   1.098   7.625  0.5744  0.3919  0.2510
 1829TIP3   OH227045   6.391   0.803   7.862  0.4778  0.1810 -0.0313
 1829TIP3    H127046   6.384   0.898   7.852 -0.8253  0.0398 -0.7425
 1829TIP3    H227047   6.333   0.768   7.795  1.1756 -1.1360  0.0174
 1830TIP3   OH227048   2.424   2.962   1.037  0.3921 -0.3351 -0.4347
 1830TIP3    H127049   2.330   2.979   1.027  0.5471 -0.0258 -1.6074
 1830TIP3    H227050   2.435   2.937   1.128 -0.6408  0.8942  0.0614
 1831TIP3   OH227051   2.607   2.502   8.264 -0.2047  0.1129  0.0711
 1831TIP3    H127052   2.693   2.491   8.305 -0.1889  0.4018  0.1226
 1831TIP3    H227053   2.586   2.416   8.228 -0.7731 -0.5116  1.7708
 1832TIP3   OH227054   1.646   1.146   7.451  0.2655  0.2618  0.6409
 1832TIP3    H127055   1.602   1.218   7.407  1.4806  0.4096 -0.3737
 1832TIP3    H227056   1.732   1.140   7.410  1.6308  0.6414  3.1936
 1833TIP3   OH227057   6.658   5.727   8.662 -0.5858 -0.2071  0.5250
 1833TIP3    H127058   6.725   5.795   8.654 -1.0919  0.3377  0.8231
 1833TIP3    H227059   6.690   5.671   8.732 -0.3750 -0.0225  0.5784
 1834TIP3   OH227060   3.000   1.890   2.305  0.3738 -0.4333 -0.3653
 1834TIP3    H127061   3.083   1.932   2.282  0.2631 -1.1862 -2.3323
 1834TIP3    H227062   2.996   1.896   2.401  2.6261 -0.2641 -0.2241
 1835TIP3   OH227063   2.484   1.201   8.128 -1.3895  0.3599 -0.3642
 1835TIP3    H127064   2.401   1.156   8.112 -0.6409 -1.4703  0.6471
 1835TIP3    H227065   2.521   1.156   8.204  0.9921  0.4659 -1.3904
 1836TIP3   OH227066   1.508   0.222   3.068  0.2170 -0.1154  0.0891
 1836TIP3    H127067   1.563   0.231   2.990 -0.8243  0.7197 -0.5687
 1836TIP3    H227068   1.523   0.133   3.098  1.1603 -0.2233 -0.6564
 1837TIP3   OH227069   0.303   5.546   1.834 -0.9734 -0.0249 -0.1010
 1837TIP3    H127070   0.347   5.464   1.853  0.6101  0.7552 -0.2571
 1837TIP3    H227071   0.311   5.598   1.914  1.0389  1.2249 -1.0232
 1838TIP3   OH227072   2.664   0.064   8.176 -0.0772 -0.5292  0.2668
 1838TIP3    H127073   2.733   0.124   8.206 -0.0043 -0.6038  0.2478
 1838TIP3    H227074   2.587   0.090   8.227 -0.1945 -0.0483 -0.1449
 1839TIP3   OH227075   1.124   4.029   2.064 -0.3500  0.0250 -0.2342
 1839TIP3    H127076   1.150   4.121   2.069  0.3928 -0.1609 -0.6440
 1839TIP3    H227077   1.168   3.995   1.986 -0.6079 -0.6828 -0.0791
 1840TIP3   OH227078   0.435   5.382   2.749 -0.1631  0.1249  0.0179
 1840TIP3    H127079   0.528   5.378   2.726 -0.3765  1.3120 -1.1950
 1840TIP3    H227080   0.435   5.390   2.845  0.9646 -0.1413  0.0618
 1841TIP3   OH227081   0.711   2.543   8.255  0.2618  0.6150 -0.2444
 1841TIP3    H127082   0.690   2.451   8.237  0.2882  0.3405  1.0605
 1841TIP3    H227083   0.745   2.576   8.172 -1.7477  0.0367 -1.3545
 1842TIP3   OH227084   0.618   3.228   8.055 -0.1876 -0.6353 -0.4305
 1842TIP3    H127085   0.535   3.216   8.101  1.3517  0.1872  2.8101
 1842TIP3    H227086   0.653   3.139   8.046  0.3212 -0.7324  1.8513
 1843TIP3   OH227087   6.261   5.965   7.827 -0.2624 -0.1889 -0.2532
 1843TIP3    H127088   6.287   5.898   7.763  0.8500 -0.0657  0.0642
 1843TIP3    H227089   6.332   5.967   7.891 -1.1068  0.0826  0.7001
 1844TIP3   OH227090   4.251   5.052   0.483  0.3800 -0.0582 -0.0171
 1844TIP3    H127091   4.193   5.085   0.415  0.6912 -0.8521 -0.6840
 1844TIP3    H227092   4.193   5.010   0.547  0.0387  1.1784  0.5108
 1845TIP3   OH227093   1.829   2.951   1.195 -0.5709  0.0470 -0.5911
 1845TIP3    H127094   1.798   2.861   1.180 -1.1773  0.2219 -0.3710
 1845TIP3    H227095   1.763   2.990   1.251 -0.8560  0.9700 -1.5354
 1846TIP3   OH227096   4.768   2.654   1.479  0.3438  0.4985 -0.2621
 1846TIP3    H127097   4.816   2.590   1.427  0.4236 -0.8645  1.4084
 1846TIP3    H227098   4.687   2.668   1.431  0.3811 -0.7700 -0.7294
 1847TIP3   OH227099   0.837   0.068   1.297  0.3476 -0.2374  0.0910
 1847TIP3    H127100   0.751   0.029   1.314  0.6607 -0.8276  0.3662
 1847TIP3    H227101   0.897  -0.007   1.294  0.9627  0.2194  0.6070
 1848TIP3   OH227102   3.369   5.360   2.725 -0.0706  0.2736 -0.4949
 1848TIP3    H127103   3.455   5.391   2.697  0.1344 -0.4337 -0.6664
 1848TIP3    H227104   3.354   5.402   2.809  0.4809  0.3366 -0.4258
 1849TIP3   OH227105   2.096   1.101   7.764  0.4365  0.2628  0.6439
 1849TIP3    H127106   2.075   1.030   7.825 -0.6339 -0.2708 -0.3059
 1849TIP3    H227107   2.087   1.062   7.677  0.1889  1.4606  0.1064
 1850TIP3   OH227108   1.683   3.655   1.525  0.1791 -0.3430 -0.0996
 1850TIP3    H127109   1.613   3.647   1.460  1.1008 -0.7330 -1.0508
 1850TIP3    H227110   1.640   3.631   1.608 -1.0822  0.4679 -0.4787
 1851TIP3   OH227111   1.777   1.268   0.197  0.1711 -0.4051  0.4384
 1851TIP3    H127112   1.850   1.250   0.257  0.3899  0.5316  0.4674
 1851TIP3    H227113   1.705   1.294   0.254  0.6058  1.2303  0.2677
 1852TIP3   OH227114   2.715   3.126   0.375 -0.0649  0.9424  0.1519
 1852TIP3    H127115   2.789   3.184   0.392  0.1933  0.4957  0.6031
 1852TIP3    H227116   2.721   3.059   0.444 -0.5854  0.6091 -0.1180
 1853TIP3   OH227117   6.334   1.661   2.216  0.5767  0.3735  0.4073
 1853TIP3    H127118   6.348   1.569   2.194 -0.9733 -0.1238  1.3041
 1853TIP3    H227119   6.312   1.660   2.309  1.1993  1.7366  0.5923
 1854TIP3   OH227120   4.975   2.749   0.254  0.2465  0.5657  0.1521
 1854TIP3    H127121   4.976   2.657   0.280  1.6405  0.3699 -0.5027
 1854TIP3    H227122   4.960   2.797   0.335  1.7118 -0.1464  0.8941
 1855TIP3   OH227123   6.336   5.627   2.541 -0.5954 -0.0335 -0.0062
 1855TIP3    H127124   6.349   5.709   2.588  0.3956 -0.2728  0.1659
 1855TIP3    H227125   6.409   5.572   2.569 -0.1532 -0.2986 -1.5646
 1856TIP3   OH227126   1.337   2.968   0.973 -0.4666  0.0364 -0.1006
 1856TIP3    H127127   1.401   2.935   0.910 -0.6711  1.3815 -1.0439
 1856TIP3    H227128   1.256   2.921   0.952 -0.5452  0.5099 -0.8870
 1857TIP3   OH227129   4.103   5.460   0.443 -0.6001 -0.0340 -0.2449
 1857TIP3    H127130   4.142   5.434   0.527 -0.3628 -0.6092 -0.5296
 1857TIP3    H227131   4.010   5.438   0.452 -0.4919 -0.5227 -0.2984
 1858TIP3   OH227132   6.834   4.047   8.505 -0.0642  0.2930 -0.2525
 1858TIP3    H127133   6.771   3.982   8.474  0.8888 -0.5272 -0.4765
 1858TIP3    H227134   6.904   4.047   8.440 -0.5736  2.3830 -0.8921
 1859TIP3   OH227135   0.011   5.500   8.094  0.4363  0.6882  0.2066
 1859TIP3    H127136  -0.078   5.491   8.126  0.9431  0.5781  1.6811
 1859TIP3    H227137   0.034   5.591   8.111  0.7987  0.5618  0.4162
 1860TIP3   OH227138   2.166   0.637   0.659  0.4483  0.1683  0.2685
 1860TIP3    H127139   2.144   0.614   0.750  0.5555  1.6327  0.6907
 1860TIP3    H227140   2.088   0.683   0.628 -0.0223 -1.2495 -0.7737
 1861TIP3   OH227141   4.173   3.928   7.891  0.5348  0.3115  0.0128
 1861TIP3    H127142   4.248   3.962   7.940  0.3801  0.2872  0.2670
 1861TIP3    H227143   4.100   3.983   7.919  0.3493 -0.0157  0.1771
 1862TIP3   OH227144   0.445   0.343   2.742 -0.5878  0.2679  0.1156
 1862TIP3    H127145   0.482   0.383   2.821  0.8849 -0.6211 -0.0890
 1862TIP3    H227146   0.410   0.418   2.693 -0.6881  0.9387  1.1608
 1863TIP3   OH227147   1.780   6.361   1.465  0.2418 -0.3310  0.9014
 1863TIP3    H127148   1.787   6.267   1.485  0.1783 -0.6546 -0.4492
 1863TIP3    H227149   1.686   6.378   1.464  0.1700 -0.6876 -0.5789
 1864TIP3   OH227150   3.144   2.875   1.817  0.0609 -0.5345  0.1577
 1864TIP3    H127151   3.090   2.942   1.859 -1.7583 -1.3050 -0.8503
 1864TIP3    H227152   3.180   2.824   1.890 -0.1010  0.3383  0.8668
 1865TIP3   OH227153   2.455   4.119   1.924 -0.3836 -0.0020 -0.2210
 1865TIP3    H127154   2.424   4.130   2.014  0.8686 -0.6072  0.3066
 1865TIP3    H227155   2.380   4.143   1.870 -1.8173 -1.4649  0.9996
 1866TIP3   OH227156   0.413   5.165   8.535  0.0987  0.1171 -0.7730
 1866TIP3    H127157   0.506   5.149   8.522 -0.3646 -2.1932 -1.8550
 1866TIP3    H227158   0.397   5.146   8.627  0.3380 -1.9345 -1.1075
 1867TIP3   OH227159   2.480   3.286   3.288 -0.3656 -0.0155  0.3383
 1867TIP3    H127160   2.418   3.214   3.273  0.1105 -0.4730  0.5242
 1867TIP3    H227161   2.425   3.363   3.301 -0.8828 -0.3430  0.0991
 1868TIP3   OH227162   6.428   5.221   1.331  0.1919 -0.4400  0.1060
 1868TIP3    H127163   6.455   5.130   1.321 -0.5653 -0.6104 -0.4018
 1868TIP3    H227164   6.386   5.224   1.417 -0.5180 -0.7592 -0.2225
 1869TIP3   OH227165   3.641   3.765   7.675  0.3598  0.2976 -0.0002
 1869TIP3    H127166   3.680   3.808   7.599 -0.7100  1.2477 -0.0361
 1869TIP3    H227167   3.700   3.788   7.747  0.9763  0.0026 -0.3990
 1870TIP3   OH227168   6.718   3.115   7.856  0.4658 -0.2708  0.6830
 1870TIP3    H127169   6.763   3.086   7.935  0.4373  0.7498  1.0914
 1870TIP3    H227170   6.627   3.091   7.871  0.9424 -3.0840 -0.5012
 1871TIP3   OH227171   2.187   5.212   0.672  0.6325  0.3683  0.0487
 1871TIP3    H127172   2.177   5.305   0.690  2.2548  0.8996 -1.5001
 1871TIP3    H227173   2.097   5.178   0.672  0.0549  1.8138  1.1277
 1872TIP3   OH227174   0.680   5.805   2.869 -0.0290 -0.6859  0.0373
 1872TIP3    H127175   0.683   5.738   2.937 -0.3210  0.1920  0.9429
 1872TIP3    H227176   0.681   5.888   2.917 -1.5155 -0.0418 -0.9470
 1873TIP3   OH227177   3.888   4.758   0.705  0.2226 -0.1096  0.4910
 1873TIP3    H127178   3.830   4.777   0.779 -2.2757 -0.8008 -1.1479
 1873TIP3    H227179   3.865   4.669   0.680  1.1825  0.0350 -0.9778
 1874TIP3   OH227180   3.790   6.200   8.163 -0.2082  0.3273 -0.0967
 1874TIP3    H127181   3.711   6.222   8.115  0.4871  1.3441 -0.8156
 1874TIP3    H227182   3.835   6.284   8.175  0.8443 -0.2483  0.1332
 1875TIP3   OH227183   5.894   1.384   2.031 -0.4085  0.5247  0.3682
 1875TIP3    H127184   5.811   1.431   2.032 -0.4272  0.4905  1.0932
 1875TIP3    H227185   5.941   1.419   1.956 -0.6438  1.3087  0.5844
 1876TIP3   OH227186   3.026   0.018   7.668  0.5791  0.5746  0.1961
 1876TIP3    H127187   3.002   0.028   7.760  0.6741  1.2313  0.1536
 1876TIP3    H227188   2.949   0.050   7.620  1.1201  1.6829  0.0545
 1877TIP3   OH227189   0.111   2.672   7.382 -0.1693  0.1703  0.1270
 1877TIP3    H127190   0.029   2.689   7.428 -0.5071  1.0264 -0.7885
 1877TIP3    H227191   0.175   2.729   7.425 -0.4605  0.8904 -0.3974
 1878TIP3   OH227192   1.366   6.072   8.616  0.1088 -0.2787  0.1158
 1878TIP3    H127193   1.443   6.099   8.667  0.9085  1.0442 -1.6728
 1878TIP3    H227194   1.362   5.977   8.626  2.1014 -0.4015  0.1223
 1879TIP3   OH227195   5.138   5.195   2.035 -0.7163  0.0377  0.2700
 1879TIP3    H127196   5.049   5.171   2.061 -1.0237 -0.2857 -1.0294
 1879TIP3    H227197   5.184   5.111   2.028 -0.5843  0.1353 -0.0313
 1880TIP3   OH227198   1.506   3.513   8.447  0.2668 -0.2690  0.3427
 1880TIP3    H127199   1.543   3.545   8.365  1.5982 -1.6546  0.3664
 1880TIP3    H227200   1.436   3.575   8.467  0.9239  0.9819 -1.0255
 1881TIP3   OH227201   0.282   5.133   8.297  0.1199  0.3901 -0.4636
 1881TIP3    H127202   0.275   5.127   8.392  0.0115 -0.3446 -0.5166
 1881TIP3    H227203   0.230   5.210   8.274 -0.4018  0.1852  0.0096
 1882TIP3   OH227204   0.459   6.474   2.873 -0.3035  0.4790  0.2649
 1882TIP3    H127205   0.389   6.454   2.811 -0.0837 -0.8906  0.4469
 1882TIP3    H227206   0.535   6.492   2.818  0.6122 -3.2626  0.0356
 1883TIP3   OH227207   2.475   5.002   1.672  0.3022 -0.1304  0.5674
 1883TIP3    H127208   2.382   5.024   1.663  0.2459 -0.4085  0.4516
 1883TIP3    H227209   2.482   4.914   1.635  0.4223 -0.5236  1.5095
 1884TIP3   OH227210   1.609   4.395   7.945  0.2896 -0.2320 -0.7481
 1884TIP3    H127211   1.607   4.383   8.040  1.7625 -1.0370 -0.7731
 1884TIP3    H227212   1.602   4.490   7.932  1.4489  0.0225  0.2618
 1885TIP3   OH227213   6.162   5.666   8.284  0.6975  0.1875 -0.0149
 1885TIP3    H127214   6.087   5.623   8.244  0.5114 -1.2766  1.7753
 1885TIP3    H227215   6.209   5.596   8.329  2.7737  1.1887 -0.4852
 1886TIP3   OH227216   2.473   6.028   7.272  0.0812 -0.0105 -0.6723
 1886TIP3    H127217   2.541   6.052   7.209 -1.3433 -0.6942 -2.5722
 1886TIP3    H227218   2.465   5.933   7.264  0.0683 -0.1537  0.7949
 1887TIP3   OH227219   1.141   6.241   7.635 -0.0461 -0.2013  0.5648
 1887TIP3    H127220   1.115   6.321   7.590  2.4738 -0.1680 -1.0136
 1887TIP3    H227221   1.163   6.180   7.564  0.0079 -1.6167  1.7520
 1888TIP3   OH227222   4.195   5.562   1.377 -0.3478  0.3087  0.1774
 1888TIP3    H127223   4.128   5.621   1.411 -0.7635 -0.1732  0.2170
 1888TIP3    H227224   4.190   5.572   1.282  0.0718  0.8622  0.2156
 1889TIP3   OH227225   2.239   1.749   2.084  0.1382 -0.1559  0.2954
 1889TIP3    H127226   2.196   1.714   2.006  1.6112  0.8173 -1.0243
 1889TIP3    H227227   2.237   1.844   2.073 -1.6287  0.1824  2.6148
 1890TIP3   OH227228   4.899   4.253   2.767 -0.0918 -0.0663 -0.2112
 1890TIP3    H127229   4.858   4.338   2.782  2.6246  1.5980 -1.4191
 1890TIP3    H227230   4.843   4.210   2.701 -0.3787  1.7156 -1.1886
 1891TIP3   OH227231   0.513   5.460   0.352  0.3179  0.6053  0.1950
 1891TIP3    H127232   0.531   5.531   0.413 -0.1044 -0.4378  1.5816
 1891TIP3    H227233   0.489   5.385   0.408 -0.2603 -0.3368 -1.2502
 1892TIP3   OH227234   1.231   4.988   1.272  0.2771 -0.2220  0.1242
 1892TIP3    H127235   1.314   5.035   1.273 -0.4561  1.1358 -0.2060
 1892TIP3    H227236   1.177   5.034   1.336 -0.2419 -1.0624  0.3027
 1893TIP3   OH227237   5.720   0.911   1.869 -0.8135 -0.1902  0.1608
 1893TIP3    H127238   5.786   0.978   1.888 -1.2125  0.2948 -0.1447
 1893TIP3    H227239   5.652   0.926   1.934 -1.3221  0.2861 -0.4678
 1894TIP3   OH227240   1.967   1.416   2.534 -0.4756 -0.0510 -0.1764
 1894TIP3    H127241   1.990   1.434   2.443 -3.2843 -0.2850 -1.0236
 1894TIP3    H227242   1.940   1.501   2.570  0.9834  0.1143  0.6004
 1895TIP3   OH227243   6.465   4.255   7.962 -0.5968 -0.3775 -0.6304
 1895TIP3    H127244   6.554   4.225   7.945  0.3219  0.9727  1.4185
 1895TIP3    H227245   6.452   4.329   7.902 -1.1403 -1.7439 -2.3134
 1896TIP3   OH227246   3.412   3.784   2.280 -0.2353 -0.5447  0.2979
 1896TIP3    H127247   3.430   3.877   2.287 -1.4664 -0.1656 -1.0727
 1896TIP3    H227248   3.432   3.762   2.189 -0.3060 -1.5393  0.5098
 1897TIP3   OH227249   1.298   4.983   7.500 -0.3092 -0.9029  0.1748
 1897TIP3    H127250   1.296   5.038   7.579 -1.4750  1.8752 -1.6460
 1897TIP3    H227251   1.209   4.946   7.495 -0.7023  0.1217 -0.5911
 1898TIP3   OH227252   0.065   0.113   7.809  0.3102  0.1187  0.5314
 1898TIP3    H127253   0.060   0.065   7.727  3.7028 -2.2904  1.5305
 1898TIP3    H227254   0.138   0.174   7.797 -1.7954  2.8451  0.4791
 1899TIP3   OH227255   5.157   3.957   2.230  0.1384  0.0638 -0.4985
 1899TIP3    H127256   5.144   3.961   2.325  1.7632 -1.7099 -0.1446
 1899TIP3    H227257   5.212   4.032   2.210  0.2818  0.1125  0.0681
 1900TIP3   OH227258   6.336   1.910   0.357 -0.3428  0.3031 -0.6143
 1900TIP3    H127259   6.311   1.989   0.309 -1.7733  0.0775 -0.3035
 1900TIP3    H227260   6.319   1.931   0.448 -0.7056 -0.3425 -0.5289
 1901TIP3   OH227261   1.075   5.068   7.995  0.3979 -0.3544 -0.4342
 1901TIP3    H127262   1.031   5.143   8.035 -0.1853 -0.2725 -1.1877
 1901TIP3    H227263   1.026   5.053   7.914 -0.9839 -3.0092  0.7787
 1902TIP3   OH227264   3.578   0.396   0.623  0.3414  0.3076 -0.0384
 1902TIP3    H127265   3.525   0.317   0.617 -0.0658  0.6104 -0.4292
 1902TIP3    H227266   3.548   0.439   0.704  0.1843  0.3377 -0.1127
 1903TIP3   OH227267   2.293   0.091   2.338 -1.0133  0.1768 -0.2066
 1903TIP3    H127268   2.353   0.017   2.346 -0.5589  0.5284 -0.3524
 1903TIP3    H227269   2.279   0.101   2.244  1.9050  2.6228 -0.5111
 1904TIP3   OH227270   0.589   1.128   1.273  0.1917 -0.2369  0.4549
 1904TIP3    H127271   0.618   1.210   1.233  1.8176 -0.2662  1.4623
 1904TIP3    H227272   0.518   1.154   1.332  2.3024  0.9516  2.6697
 1905TIP3   OH227273   2.621   0.721   1.583 -0.3819 -0.4350 -0.4454
 1905TIP3    H127274   2.628   0.732   1.488  0.6164  2.0136 -0.1776
 1905TIP3    H227275   2.531   0.747   1.603 -0.4103 -0.3541 -0.6711
 1906TIP3   OH227276   6.466   4.761   8.477 -0.0948  0.1670  0.7841
 1906TIP3    H127277   6.491   4.669   8.469 -1.1652 -0.1427  0.9264
 1906TIP3    H227278   6.549   4.806   8.494  0.5886 -0.6353 -0.2684
 1907TIP3   OH227279   1.761   2.906   2.959  0.5500  1.2657  0.1420
 1907TIP3    H127280   1.687   2.846   2.955  0.5808  1.3106 -1.4389
 1907TIP3    H227281   1.825   2.860   3.014  0.1848  0.2915 -0.2176
 1908TIP3   OH227282   4.451   0.632   2.182  0.0582  0.4268  0.4404
 1908TIP3    H127283   4.398   0.704   2.147  1.1976  0.1987 -1.9524
 1908TIP3    H227284   4.541   0.665   2.178  0.4600 -0.6158  0.6509
 1909TIP3   OH227285   2.021   6.267   1.000 -0.3716 -0.1443 -0.4195
 1909TIP3    H127286   2.009   6.194   1.061 -0.1178  2.7625  3.5152
 1909TIP3    H227287   2.098   6.243   0.948 -0.6588 -2.8531  0.2635
 1910TIP3   OH227288   5.243   0.672   8.455 -0.0399 -0.0888 -1.1261
 1910TIP3    H127289   5.314   0.615   8.424  1.3461  0.9859 -0.0392
 1910TIP3    H227290   5.203   0.623   8.527  0.2727 -0.2516 -1.0617
 1911TIP3   OH227291   3.507   1.083   7.999  0.2078 -0.4022 -0.3220
 1911TIP3    H127292   3.419   1.092   8.036 -0.8090 -1.5430 -2.2966
 1911TIP3    H227293   3.493   1.079   7.904  2.2019 -2.3378 -0.6091
 1912TIP3   OH227294   3.103   1.251   0.094  0.7436 -0.0925  0.3139
 1912TIP3    H127295   3.141   1.333   0.125 -1.3294  1.3460 -0.7270
 1912TIP3    H227296   3.169   1.215   0.035  1.7841  0.6547  0.9730
 1913TIP3   OH227297   6.470   3.084   8.076 -0.0545  0.1639 -0.7237
 1913TIP3    H127298   6.381   3.076   8.042 -0.6093 -1.4016  0.9438
 1913TIP3    H227299   6.460   3.088   8.171  1.5693  2.0650 -0.5588
 1914TIP3   OH227300   4.486   2.079   8.345 -0.5703 -0.4952  0.2396
 1914TIP3    H127301   4.541   2.116   8.276 -0.3147  0.0985  0.7499
 1914TIP3    H227302   4.503   1.985   8.342  0.0712 -0.3780  0.0401
 1915TIP3   OH227303   6.209   0.654   0.473  0.2982 -0.2024 -0.0615
 1915TIP3    H127304   6.201   0.738   0.519 -2.1082 -0.6606  0.5028
 1915TIP3    H227305   6.295   0.622   0.497  1.2203  2.0103 -0.1560
 1916TIP3   OH227306   5.005   4.170   7.418  0.2453  0.3050 -0.8791
 1916TIP3    H127307   5.066   4.241   7.396  0.1505  0.6080 -0.1896
 1916TIP3    H227308   4.918   4.210   7.410  0.2122  0.4557  0.1275
 1917TIP3   OH227309   5.762   0.346   1.338  0.1537 -0.2915 -0.0964
 1917TIP3    H127310   5.727   0.362   1.426  2.1376  1.2233  0.4756
 1917TIP3    H227311   5.718   0.411   1.283 -1.5943 -1.6764 -0.4226
 1918TIP3   OH227312   3.943   2.622   7.227 -0.3711  0.2637 -0.5142
 1918TIP3    H127313   3.859   2.648   7.188  0.0978 -0.6446 -2.2009
 1918TIP3    H227314   3.967   2.542   7.181  0.0984 -1.0630  1.8579
 1919TIP3   OH227315   5.106   5.886   2.203  0.4537  1.1181  0.1310
 1919TIP3    H127316   5.144   5.925   2.125 -1.9473  1.4345 -0.9947
 1919TIP3    H227317   5.137   5.795   2.202 -1.8150  0.1832 -3.0189
 1920TIP3   OH227318   5.461   6.668   2.694  0.0813  0.5444  0.1998
 1920TIP3    H127319   5.367   6.681   2.687  0.1937  0.7302 -1.5139
 1920TIP3    H227320   5.473   6.574   2.678  0.2968  0.8565 -1.8235
 1921TIP3   OH227321   0.282   4.107   1.406 -0.0032  0.3383  0.1153
 1921TIP3    H127322   0.267   4.201   1.391  0.8993  0.6116  0.7906
 1921TIP3    H227323   0.361   4.105   1.461  0.3087 -0.8464 -0.3614
 1922TIP3   OH227324   2.735   5.975   0.213 -0.1717  0.2535 -0.3200
 1922TIP3    H127325   2.684   5.911   0.263 -0.1016 -0.8426 -1.6089
 1922TIP3    H227326   2.671   6.039   0.184 -0.3224  0.5189  0.5768
 1923TIP3   OH227327   1.287   0.270   0.114 -0.0796 -0.2385  0.7056
 1923TIP3    H127328   1.262   0.358   0.144  1.8934  0.7563 -0.3750
 1923TIP3    H227329   1.271   0.271   0.020  0.6122 -0.7903  0.5742
 1924TIP3   OH227330   6.310   5.592   0.323  0.2434 -0.2441  0.1510
 1924TIP3    H127331   6.358   5.608   0.405 -1.6174  0.8107  1.0960
 1924TIP3    H227332   6.249   5.522   0.345  0.2209 -0.4423 -0.5511
 1925TIP3   OH227333   1.697   3.888   7.901  0.2624 -0.3840 -0.1625
 1925TIP3    H127334   1.629   3.956   7.901  1.7682  1.2318 -1.4586
 1925TIP3    H227335   1.697   3.855   7.811 -0.4676 -2.2014  0.4617
 1926TIP3   OH227336   6.822   6.365   1.518  0.0263  0.3315 -0.0566
 1926TIP3    H127337   6.879   6.378   1.443 -1.5632 -0.2550 -1.4236
 1926TIP3    H227338   6.733   6.367   1.482 -0.7442 -1.1402  1.5912
 1927TIP3   OH227339   0.330   5.640   2.081  0.0834  0.6099  0.0615
 1927TIP3    H127340   0.405   5.698   2.084 -0.4359  1.2772  2.6805
 1927TIP3    H227341   0.327   5.599   2.168  0.3705 -3.3762 -1.5804
 1928TIP3   OH227342   1.363   2.415   0.137  0.4156 -0.3095  0.2734
 1928TIP3    H127343   1.372   2.319   0.134  2.5351 -0.2054  1.5522
 1928TIP3    H227344   1.317   2.432   0.218 -3.4690 -0.3088 -1.6815
 1929TIP3   OH227345   5.112   6.166   7.542  0.3853 -0.3714 -0.0283
 1929TIP3    H127346   5.129   6.201   7.454 -0.6918  3.2492  1.0270
 1929TIP3    H227347   5.026   6.125   7.534  0.3641 -0.2130 -0.7067
 1930TIP3   OH227348   3.424   0.274   8.431 -0.4261 -0.4710  0.1131
 1930TIP3    H127349   3.434   0.332   8.355  1.0990 -0.8705 -0.0327
 1930TIP3    H227350   3.377   0.326   8.495  0.2055  0.6626 -0.3102
 1931TIP3   OH227351   6.182   5.512   1.591  0.0835  0.4030 -0.2342
 1931TIP3    H127352   6.166   5.589   1.537 -1.0548  0.3406 -0.0089
 1931TIP3    H227353   6.229   5.546   1.668 -1.8218  1.1718  0.6461
 1932TIP3   OH227354   5.423   5.744   8.631 -0.1771 -0.8492  0.2826
 1932TIP3    H127355   5.382   5.727   8.547 -0.2876 -1.0558  0.3775
 1932TIP3    H227356   5.370   5.815   8.669  0.6655  0.1498 -0.3807
 1933TIP3   OH227357   6.148   0.271   1.062  0.2045  1.0399 -0.3043
 1933TIP3    H127358   6.058   0.274   1.094  0.4959  3.8222  0.4611
 1933TIP3    H227359   6.139   0.273   0.967 -0.5211 -0.6216 -0.3120
 1934TIP3   OH227360   4.430   2.818   7.189  0.6567  0.0523 -0.5061
 1934TIP3    H127361   4.454   2.740   7.239  1.8555  1.2348  0.8608
 1934TIP3    H227362   4.337   2.831   7.207  0.7256 -0.4056  0.2126
 1935TIP3   OH227363   0.200   6.127   1.035 -0.0756  0.1452 -0.2901
 1935TIP3    H127364   0.167   6.206   0.991 -0.0848 -0.5960 -1.6847
 1935TIP3    H227365   0.294   6.129   1.020  0.5978  1.9524  3.1855
 1936TIP3   OH227366   2.683   5.401   1.671 -0.0588 -0.1897  0.0649
 1936TIP3    H127367   2.600   5.407   1.719  0.2069  1.6066  0.3711
 1936TIP3    H227368   2.747   5.443   1.727  0.4856  0.9755 -1.3525
 1937TIP3   OH227369   3.985   4.506   1.202  0.4546 -0.7076  0.0445
 1937TIP3    H127370   4.078   4.527   1.190  0.6913 -0.9798  1.2791
 1937TIP3    H227371   3.950   4.580   1.252  0.4851 -1.5086  1.3150
 1938TIP3   OH227372   2.286   4.987   1.930  0.2466 -0.2274  0.1956
 1938TIP3    H127373   2.269   4.964   1.839  1.0760  1.1330 -0.3243
 1938TIP3    H227374   2.241   4.919   1.980  0.8641 -1.7789 -1.2369
 1939TIP3   OH227375   4.682   1.524   8.499 -0.1208 -1.0898  0.2134
 1939TIP3    H127376   4.674   1.619   8.489 -1.0972 -0.9353  2.0597
 1939TIP3    H227377   4.763   1.502   8.454 -0.5032  0.4372 -1.2983
 1940TIP3   OH227378   0.998   1.506   8.601  0.0103 -0.1051 -0.0263
 1940TIP3    H127379   0.966   1.587   8.561  1.2544  0.8541  0.8343
 1940TIP3    H227380   1.034   1.533   8.686  0.3116 -1.5875  0.3565
 1941TIP3   OH227381   4.362   0.845   2.047 -0.2492 -0.3233  0.0817
 1941TIP3    H127382   4.382   0.936   2.022  1.7657  0.0934  2.6817
 1941TIP3    H227383   4.383   0.794   1.970  1.4519  1.2039 -0.5449
 1942TIP3   OH227384   2.423   2.753   1.901  0.3106 -0.4639 -0.3587
 1942TIP3    H127385   2.386   2.841   1.909  0.1309 -0.5325 -0.4348
 1942TIP3    H227386   2.499   2.754   1.959 -0.1144 -0.4872  0.2018
 1943TIP3   OH227387   2.096   6.660   1.572  0.5724 -0.1767 -0.1890
 1943TIP3    H127388   2.036   6.733   1.561  0.7178 -0.2868 -2.1283
 1943TIP3    H227389   2.060   6.591   1.515 -1.3174 -2.8520  3.7878
 1944TIP3   OH227390   6.128   6.286   1.043  0.6465  0.3295  0.9582
 1944TIP3    H127391   6.092   6.372   1.060  0.1708  0.7819 -1.8073
 1944TIP3    H227392   6.209   6.303   0.995  0.1203 -0.6951 -0.3790
 1945TIP3   OH227393   1.052   1.958   8.176  0.2430  0.1909  0.8157
 1945TIP3    H127394   0.990   1.997   8.237  1.6885  0.3379  2.2625
 1945TIP3    H227395   0.997   1.912   8.112 -1.3400  0.2761  2.0512
 1946TIP3   OH227396   3.586   3.985   0.257 -0.6031 -0.3111 -0.8758
 1946TIP3    H127397   3.553   4.024   0.175 -0.9289 -1.8442 -1.5015
 1946TIP3    H227398   3.509   3.983   0.314 -0.4264  0.5614 -0.5927
 1947TIP3   OH227399   4.583   6.081   1.306 -0.2292  0.3855  0.3138
 1947TIP3    H127400   4.604   6.024   1.380  0.0572  0.9466  0.6703
 1947TIP3    H227401   4.621   6.166   1.329 -2.8480  1.4690  1.0211
 1948TIP3   OH227402   0.136   1.233   0.498 -0.5983 -0.2934  0.3159
 1948TIP3    H127403   0.212   1.257   0.552  0.2873 -0.5489 -0.7734
 1948TIP3    H227404   0.105   1.317   0.463 -0.5491 -0.2290  0.4258
 1949TIP3   OH227405   2.156   6.063   7.922  0.0314  0.3078  0.4561
 1949TIP3    H127406   2.240   6.034   7.887  0.1206 -0.3084  1.1728
 1949TIP3    H227407   2.178   6.119   7.996 -0.1814 -0.7837  1.3772
 1950TIP3   OH227408   0.365   5.612   6.710  0.0229  0.4914  0.5057
 1950TIP3    H127409   0.316   5.689   6.739 -2.6215 -1.5160  1.7300
 1950TIP3    H227410   0.449   5.619   6.756 -1.1816  1.3008  2.7617
 1951TIP3   OH227411   5.208   4.305   0.505 -0.2412 -0.1487  0.2338
 1951TIP3    H127412   5.173   4.393   0.493  0.7467  0.2636  0.2918
 1951TIP3    H227413   5.140   4.258   0.554 -0.5753  0.7116  0.6091
 1952TIP3   OH227414   5.243   0.447   7.551 -0.3430  0.5825 -0.2445
 1952TIP3    H127415   5.166   0.502   7.537 -0.6323  0.2498  0.0236
 1952TIP3    H227416   5.248   0.393   7.472 -0.1309  0.9032 -0.4525
 1953TIP3   OH227417   1.035   3.718   2.010  0.2961  0.0160 -0.0057
 1953TIP3    H127418   1.015   3.625   2.000 -0.8699  0.3788 -1.5196
 1953TIP3    H227419   0.956   3.763   1.977  1.7831  1.5498 -1.6810
 1954TIP3   OH227420   2.590   1.437   8.027  0.3218  0.4280 -0.7181
 1954TIP3    H127421   2.541   1.363   8.064 -2.3065  1.8497 -1.1189
 1954TIP3    H227422   2.678   1.402   8.011  0.1134 -1.6994  2.0085
 1955TIP3   OH227423   0.278   2.247   2.020 -0.1942 -0.2069  0.1878
 1955TIP3    H127424   0.236   2.322   1.978  1.1943 -0.4854 -1.8377
 1955TIP3    H227425   0.220   2.173   2.001 -0.7921  0.0680  0.8851
 1956TIP3   OH227426   4.232   1.097   1.149 -0.2957 -0.5454 -0.0685
 1956TIP3    H127427   4.177   1.088   1.226  0.7627 -0.1368  0.7583
 1956TIP3    H227428   4.212   1.185   1.115  2.1080  1.0296  2.1396
 1957TIP3   OH227429   3.994   2.452   8.101  0.4144  0.0733 -0.0975
 1957TIP3    H127430   3.950   2.380   8.055  1.0811 -0.6352  0.3305
 1957TIP3    H227431   3.924   2.502   8.141  0.0033 -2.0253  2.0390
 1958TIP3   OH227432   5.487   1.905   0.367 -0.6605  0.4852 -0.0139
 1958TIP3    H127433   5.452   1.979   0.319 -1.2595  0.7762  0.8594
 1958TIP3    H227434   5.544   1.944   0.434 -2.2707  0.2970  1.5378
 1959TIP3   OH227435   1.363   5.063   2.020  0.8163 -0.4057  0.2780
 1959TIP3    H127436   1.300   5.111   1.966 -1.0849 -0.6704  2.1397
 1959TIP3    H227437   1.390   4.988   1.966 -0.7269 -0.4547 -0.4497
 1960TIP3   OH227438   2.077   4.242   8.671  0.3234 -0.0904  0.3467
 1960TIP3    H127439   2.165   4.265   8.641  0.2904  0.5831  0.7286
 1960TIP3    H227440   2.023   4.246   8.593  0.5230  0.0942  0.2160
 1961TIP3   OH227441   1.331   0.928   1.024  0.5662 -0.7887  0.0811
 1961TIP3    H127442   1.405   0.893   1.073  0.0871 -0.6885  0.8939
 1961TIP3    H227443   1.254   0.889   1.066  0.1582 -1.0512 -0.8788
 1962TIP3   OH227444   2.708   3.259   1.016 -0.1552 -0.1313  0.1368
 1962TIP3    H127445   2.678   3.274   0.927  2.3647 -0.0598 -0.7807
 1962TIP3    H227446   2.705   3.346   1.057 -0.7644 -0.0629 -0.0389
 1963TIP3   OH227447   2.835   2.220   1.294 -0.7193  0.2726 -0.1773
 1963TIP3    H127448   2.890   2.292   1.265  1.1794 -1.3816 -0.9075
 1963TIP3    H227449   2.750   2.237   1.253  0.0057  1.4835 -1.2613
 1964TIP3   OH227450   6.388   6.605   0.986 -0.2306  0.2417 -0.2741
 1964TIP3    H127451   6.299   6.631   1.009 -0.5075 -1.3103  0.5960
 1964TIP3    H227452   6.377   6.525   0.935  0.6578  0.1813 -0.3848
 1965TIP3   OH227453   1.956   2.908   3.176  0.1537  0.1288  0.2610
 1965TIP3    H127454   1.980   2.998   3.156  0.0364 -0.1261 -1.0613
 1965TIP3    H227455   2.032   2.857   3.151 -0.5198 -0.3413 -0.9036
 1966TIP3   OH227456   2.915   5.655   2.086 -0.0573  0.3036  0.4178
 1966TIP3    H127457   2.927   5.745   2.056 -1.1486 -0.1387 -1.5235
 1966TIP3    H227458   3.002   5.626   2.112  1.3290  0.4541 -3.4495
 1967TIP3   OH227459   0.653   5.576   0.131 -1.0625  0.0745  0.1606
 1967TIP3    H127460   0.657   5.668   0.158  0.0892 -0.2568  1.2274
 1967TIP3    H227461   0.619   5.530   0.207  1.6111 -0.7993  0.9309
 1968TIP3   OH227462   6.565   2.436   6.980  0.1225 -0.4653  0.1538
 1968TIP3    H127463   6.557   2.506   7.046  0.5347  0.1251 -0.4094
 1968TIP3    H227464   6.659   2.429   6.963  0.0210 -0.5881 -0.3846
 1969TIP3   OH227465   3.321   3.029   1.665  0.7166  0.1686  0.1329
 1969TIP3    H127466   3.276   2.965   1.720  0.5179  0.9824  0.9381
 1969TIP3    H227467   3.350   3.097   1.726  0.2754  1.2262 -0.8022
 1970TIP3   OH227468   6.373   3.126   1.120 -0.3277 -0.0237  0.1771
 1970TIP3    H127469   6.449   3.151   1.173 -0.2193  1.5335 -0.6458
 1970TIP3    H227470   6.411   3.095   1.037 -0.5744  0.8863 -0.2864
 1971TIP3   OH227471   3.486   4.436   7.995  0.1813 -0.3389  0.4344
 1971TIP3    H127472   3.402   4.405   8.030  0.3467  0.1101  1.2429
 1971TIP3    H227473   3.483   4.531   8.006 -1.7540  0.5542 -5.0583
 1972TIP3   OH227474   3.604   2.864   0.003 -0.3903  0.4030 -0.5212
 1972TIP3    H127475   3.662   2.829   0.071  1.9725  1.0292 -2.0707
 1972TIP3    H227476   3.529   2.806   0.003 -0.2109  0.0296  2.1877
 1973TIP3   OH227477   6.132   6.563   1.416  0.1025 -0.3471  0.0286
 1973TIP3    H127478   6.053   6.537   1.369 -1.1147  0.4531  1.5059
 1973TIP3    H227479   6.119   6.527   1.504  1.0654  0.3659  0.4735
 1974TIP3   OH227480   1.881   1.647   1.720  0.2193  0.2718 -0.3646
 1974TIP3    H127481   1.872   1.734   1.758 -0.3038 -0.4723  1.2894
 1974TIP3    H227482   1.801   1.634   1.669  0.5240  0.9286 -1.0372
 1975TIP3   OH227483   1.182   1.212   0.425 -0.4452  0.1847 -0.0163
 1975TIP3    H127484   1.172   1.125   0.387 -0.5333  0.7495 -1.3386
 1975TIP3    H227485   1.122   1.214   0.499  1.2045 -1.6577  1.5009
 1976TIP3   OH227486   3.806   3.719   1.863  0.4435  0.5131 -0.0282
 1976TIP3    H127487   3.781   3.726   1.771  0.8780  1.9524 -0.0593
 1976TIP3    H227488   3.780   3.631   1.888 -2.3714  1.0348 -0.7440
 1977TIP3   OH227489   5.385   1.176   6.987  0.0320  0.4642  0.1429
 1977TIP3    H127490   5.473   1.141   7.000 -0.8347 -1.5258  1.0590
 1977TIP3    H227491   5.398   1.256   6.935  2.1933 -0.7196 -1.2693
 1978TIP3   OH227492   4.082   6.546   0.186 -0.2270  0.1285 -0.2547
 1978TIP3    H127493   4.090   6.591   0.102 -1.1379  0.0415 -0.3916
 1978TIP3    H227494   3.996   6.504   0.183  0.2224 -0.8564  0.2434
 1979TIP3   OH227495   0.977   0.320   3.052 -0.4466 -0.6690 -0.6300
 1979TIP3    H127496   0.908   0.266   3.090 -0.7974  0.1901 -0.0009
 1979TIP3    H227497   1.030   0.259   3.001 -0.2999 -1.7713  0.7634
 1980TIP3   OH227498   3.314   0.501   8.251 -1.0822  0.3705 -0.2105
 1980TIP3    H127499   3.269   0.566   8.197  0.6239  1.0612 -0.8880
 1980TIP3    H227500   3.402   0.536   8.263 -0.3838 -1.3751  0.1937
 1981TIP3   OH227501   2.517   2.539   1.433  0.4873  0.0317  0.0721
 1981TIP3    H127502   2.575   2.615   1.430  0.4391  0.0387 -0.8560
 1981TIP3    H227503   2.429   2.577   1.432  0.4440  0.0158  1.3481
 1982TIP3   OH227504   2.004   4.798   8.475 -0.1202 -0.3977 -0.6162
 1982TIP3    H127505   1.937   4.735   8.447 -1.0461  0.2893 -0.0282
 1982TIP3    H227506   2.025   4.771   8.565  0.3605 -0.5804 -0.7835
 1983TIP3   OH227507   2.314   2.031   8.444  0.2136 -0.1770  0.6557
 1983TIP3    H127508   2.391   2.063   8.396 -0.3266 -0.9859 -0.8320
 1983TIP3    H227509   2.278   2.109   8.485  1.5560  0.2992  0.9962
 1984TIP3   OH227510   5.045   0.330   1.608 -0.0939 -0.4546  0.1510
 1984TIP3    H127511   5.032   0.339   1.703 -1.0711 -1.2114  0.1043
 1984TIP3    H227512   4.960   0.352   1.570  0.2896 -0.1638 -0.5626
 1985TIP3   OH227513   3.222   6.036   8.368  0.1764 -0.3338 -0.6011
 1985TIP3    H127514   3.153   6.025   8.303 -0.5460 -2.8728  0.4998
 1985TIP3    H227515   3.179   6.080   8.441 -0.0631 -1.1208 -0.2637
 1986TIP3   OH227516   3.573   0.228   1.151  0.4396 -0.3473  0.2534
 1986TIP3    H127517   3.478   0.215   1.143  0.1184  1.2125  1.0364
 1986TIP3    H227518   3.586   0.321   1.133  2.0221 -0.7952 -1.1735
 1987TIP3   OH227519   6.250   4.028   1.497  0.0669  0.6772 -0.1054
 1987TIP3    H127520   6.333   3.982   1.511  0.2075  1.2597  0.9866
 1987TIP3    H227521   6.275   4.118   1.480 -0.3219  0.7431 -0.3450
 1988TIP3   OH227522   4.764   1.471   0.763 -0.4622 -0.2916  0.1694
 1988TIP3    H127523   4.725   1.396   0.808 -1.1432 -0.3529 -0.4970
 1988TIP3    H227524   4.712   1.546   0.792 -2.0470 -0.5543 -1.7774
 1989TIP3   OH227525   6.415   5.142   8.038  0.0568 -0.4617  0.2523
 1989TIP3    H127526   6.346   5.183   8.089  2.4975  0.6927  2.8984
 1989TIP3    H227527   6.459   5.083   8.099  2.8687  0.6775 -0.4985
 1990TIP3   OH227528   1.026   2.911   2.512 -0.0709 -0.4479 -0.4102
 1990TIP3    H127529   1.092   2.878   2.572  0.7339  2.0694  0.2159
 1990TIP3    H227530   1.074   2.967   2.451 -1.1147 -1.6153 -2.4091
 1991TIP3   OH227531   4.715   3.437   0.057 -0.4824  0.3395 -0.2730
 1991TIP3    H127532   4.701   3.410   0.148  1.2279  1.9399  0.5478
 1991TIP3    H227533   4.696   3.359   0.005 -0.1916 -1.0159  1.5555
 1992TIP3   OH227534   5.414   3.546   2.953 -0.2893 -0.0594 -0.0602
 1992TIP3    H127535   5.446   3.562   3.041 -0.1175 -1.5946  0.1849
 1992TIP3    H227536   5.480   3.586   2.896  0.3306 -0.2971  0.4843
 1993TIP3   OH227537   4.642   2.390   7.622  0.0845  0.5027 -0.7687
 1993TIP3    H127538   4.676   2.380   7.533  1.0797 -0.4325 -0.3114
 1993TIP3    H227539   4.583   2.465   7.617  0.7073  0.9378 -2.0539
 1994TIP3   OH227540   0.836   4.635   1.912 -0.1244  0.1212 -0.2627
 1994TIP3    H127541   0.809   4.614   1.823 -1.9843  2.3286 -0.2915
 1994TIP3    H227542   0.757   4.625   1.965  0.3503  1.2268  0.6992
 1995TIP3   OH227543   1.157   1.758   7.405  0.6477  0.1387 -0.0878
 1995TIP3    H127544   1.064   1.737   7.406  1.1174 -2.4655  2.8347
 1995TIP3    H227545   1.168   1.821   7.476  0.8421  2.5717 -2.1381
 1996TIP3   OH227546   4.823   0.825   8.692 -0.3425  0.1175 -0.1565
 1996TIP3    H127547   4.911   0.857   8.672 -0.1830  1.0188  1.7813
 1996TIP3    H227548   4.824   0.733   8.666  1.4395 -0.1006  0.5548
 1997TIP3   OH227549   2.916   4.176   1.248  0.3345 -0.2411 -0.3308
 1997TIP3    H127550   2.922   4.140   1.337  2.5902  2.2833  0.7006
 1997TIP3    H227551   2.991   4.140   1.202  3.6296  3.7618  1.2056
 1998TIP3   OH227552   5.921   2.472   7.833 -0.1837 -0.0968  0.2030
 1998TIP3    H127553   5.968   2.437   7.757  0.0607  1.2378 -0.2715
 1998TIP3    H227554   5.891   2.558   7.806 -1.1579 -0.0969  1.2131
 1999TIP3   OH227555   2.953   2.826   8.369  0.0013  0.3489  0.2181
 1999TIP3    H127556   2.953   2.863   8.457  0.2454  2.2910 -0.5650
 1999TIP3    H227557   2.937   2.732   8.383  1.6099  0.3170  2.4463
 2000TIP3   OH227558   2.469   2.748   1.635 -0.6531  0.4644 -0.5794
 2000TIP3    H127559   2.384   2.730   1.596 -0.7227 -0.9678  0.1836
 2000TIP3    H227560   2.457   2.729   1.728  0.9078 -1.3423 -0.6910
 2001TIP3   OH227561   3.920   5.278   7.966  0.3223 -0.1440  0.5104
 2001TIP3    H127562   3.991   5.222   7.999  0.0835 -1.2555 -0.7851
 2001TIP3    H227563   3.897   5.240   7.881 -3.1269 -1.0060  1.6568
 2002TIP3   OH227564   1.781   3.171   2.705  0.6433 -0.5936  0.3970
 2002TIP3    H127565   1.857   3.115   2.692 -0.6284 -2.3930  0.4610
 2002TIP3    H227566   1.707   3.119   2.676 -0.4693  1.7007 -1.1786
 2003TIP3   OH227567   6.572   4.395   1.461 -0.2130 -0.0817 -0.2515
 2003TIP3    H127568   6.622   4.437   1.391  1.2109 -1.9747 -0.4606
 2003TIP3    H227569   6.608   4.306   1.467 -0.8956 -0.2891  2.2866
 2004TIP3   OH227570   6.572   1.708   7.987  0.1348 -0.5567 -0.4345
 2004TIP3    H127571   6.651   1.661   7.958  0.0758 -1.3348  0.6179
 2004TIP3    H227572   6.598   1.800   7.989  1.2310 -0.8618  0.5127
 2005TIP3   OH227573   0.641   6.482   1.459  0.6851  0.0195  0.4643
 2005TIP3    H127574   0.675   6.500   1.371  0.1517 -0.4336  0.1565
 2005TIP3    H227575   0.677   6.552   1.513 -0.8696  1.7211 -0.5723
 2006TIP3   OH227576   3.562   3.452   1.303 -0.0708  0.8518 -0.3950
 2006TIP3    H127577   3.600   3.495   1.227 -0.1212  1.2128 -0.2157
 2006TIP3    H227578   3.631   3.391   1.332  1.0576  2.6412  0.9005
 2007TIP3   OH227579   3.670   0.795   8.574 -0.2739 -0.1093  0.1540
 2007TIP3    H127580   3.666   0.752   8.488 -0.8069  0.4920 -0.1278
 2007TIP3    H227581   3.579   0.802   8.602 -0.2694  1.4481 -0.1218
 2008TIP3   OH227582   6.675   1.434   1.994  0.0877 -0.2080 -0.2034
 2008TIP3    H127583   6.754   1.403   2.037  0.3641 -0.1712 -0.6749
 2008TIP3    H227584   6.679   1.529   2.003  0.2260 -0.1902 -0.4445
 2009TIP3   OH227585   2.624   0.375   1.974  0.0342  0.7241 -0.4306
 2009TIP3    H127586   2.626   0.283   1.997 -0.5953  0.5969 -0.8560
 2009TIP3    H227587   2.624   0.376   1.878  2.9123  1.2453 -0.5206
 2010TIP3   OH227588   3.256   2.697   0.815  0.0710  0.2108 -0.2286
 2010TIP3    H127589   3.241   2.790   0.800 -1.9291 -0.2262 -1.2472
 2010TIP3    H227590   3.316   2.671   0.745  0.6347  0.7181  0.0604
 2011TIP3   OH227591   5.052   2.860   2.621  0.6530 -0.3973 -0.0871
 2011TIP3    H127592   5.132   2.849   2.672  0.1555  0.0660  0.8013
 2011TIP3    H227593   4.987   2.806   2.665  0.1770  0.1355 -0.1335
 2012TIP3   OH227594   4.055   2.276   2.632  0.2488 -0.2943 -0.5552
 2012TIP3    H127595   4.103   2.326   2.566  2.5844 -3.8506 -1.8509
 2012TIP3    H227596   4.119   2.258   2.701 -0.6647 -0.9878  0.1390
 2013TIP3   OH227597   0.673   6.372   2.596 -0.1745  0.4303 -0.3861
 2013TIP3    H127598   0.632   6.305   2.651  1.8523 -0.8099 -0.2616
 2013TIP3    H227599   0.691   6.445   2.655 -0.8571  0.4014 -0.1368
 2014TIP3   OH227600   4.031   4.402   8.674 -0.5127 -0.2618 -0.0378
 2014TIP3    H127601   3.972   4.467   8.636 -0.4387  1.3423  2.3728
 2014TIP3    H227602   4.059   4.349   8.600 -1.2701  1.9091 -2.0015
 2015TIP3   OH227603   4.881   0.700   7.851  0.0840  0.2398 -0.0653
 2015TIP3    H127604   4.971   0.732   7.846  0.9009 -1.5843  1.5702
 2015TIP3    H227605   4.869   0.650   7.770  1.2418 -1.0380  0.5087
 2016TIP3   OH227606   2.656   0.865   7.073 -0.1984 -0.5029 -0.2964
 2016TIP3    H127607   2.746   0.895   7.085  0.4687 -2.4724  0.0423
 2016TIP3    H227608   2.637   0.880   6.980 -0.0152  1.1180 -0.0959
 2017TIP3   OH227609   2.134   5.529   7.972  0.3328 -0.2953  0.5752
 2017TIP3    H127610   2.170   5.444   7.995  1.5919  0.4497  1.4211
 2017TIP3    H227611   2.143   5.582   8.051 -0.5206  0.6129  0.0933
 2018TIP3   OH227612   0.751   2.870   6.620  0.4899  0.2596 -0.4515
 2018TIP3    H127613   0.749   2.891   6.713  0.1909 -0.3828 -0.3041
 2018TIP3    H227614   0.841   2.887   6.593  0.2277  1.8442 -0.3906
 2019TIP3   OH227615   2.365   1.520   6.865  0.3133  0.3572 -0.1174
 2019TIP3    H127616   2.449   1.497   6.906  0.9084  0.3359 -1.3125
 2019TIP3    H227617   2.389   1.572   6.788 -0.6588 -1.1137 -1.4730
 2020TIP3   OH227618   3.579   6.015   0.463 -0.1174  0.1689  0.3600
 2020TIP3    H127619   3.616   5.943   0.514 -0.7319 -0.0649  0.4797
 2020TIP3    H227620   3.492   5.984   0.437 -0.7439  1.2000  1.1377
 2021TIP3   OH227621   1.233   4.455   8.063 -0.8840 -0.2069 -0.0250
 2021TIP3    H127622   1.242   4.361   8.078 -2.1861 -0.1326  1.4797
 2021TIP3    H227623   1.284   4.496   8.133  0.3074  0.2311 -1.1209
 2022TIP3   OH227624   6.024   3.757   0.492 -0.1260 -0.1806  0.3144
 2022TIP3    H127625   5.968   3.817   0.442 -0.2308 -0.6291 -0.1235
 2022TIP3    H227626   6.054   3.808   0.566  1.1398  0.9457 -0.9282
 2023TIP3   OH227627   2.733   2.650   0.376 -0.2304 -0.0012  0.6877
 2023TIP3    H127628   2.711   2.577   0.318  0.3402  1.0005 -0.8532
 2023TIP3    H227629   2.649   2.675   0.414 -0.3724 -1.7249  1.6260
 2024TIP3   OH227630   6.200   5.997   1.683  0.0995 -0.6792 -0.8457
 2024TIP3    H127631   6.153   6.071   1.721 -0.4471 -0.3414 -2.1220
 2024TIP3    H227632   6.142   5.965   1.614  1.0831 -1.2206 -1.4402
 2025TIP3   OH227633   5.674   3.700   7.974  0.0770 -0.4756 -0.1302
 2025TIP3    H127634   5.676   3.793   7.995  0.7947 -0.6991  0.8621
 2025TIP3    H227635   5.581   3.681   7.960  0.0916  0.7717 -2.2818
 2026TIP3   OH227636   5.335   2.228   1.083 -0.0742 -0.1641 -0.1879
 2026TIP3    H127637   5.322   2.323   1.080  0.3729 -0.0476  0.9024
 2026TIP3    H227638   5.385   2.207   1.004  0.3405  0.5980 -0.1361
 2027TIP3   OH227639   4.771   0.100   1.894  0.2795  0.0981 -0.7402
 2027TIP3    H127640   4.798   0.048   1.818 -0.3100  0.1688 -1.0055
 2027TIP3    H227641   4.842   0.090   1.957  0.3903 -0.6447 -0.9763
 2028TIP3   OH227642   4.481   0.947   8.336 -0.2933  0.0032 -0.3318
 2028TIP3    H127643   4.399   0.975   8.377 -1.3675 -2.3706 -0.6992
 2028TIP3    H227644   4.461   0.945   8.243  0.6446  0.7416 -0.5590
 2029TIP3   OH227645   4.620   6.141   1.037 -0.0765  0.1040 -0.4863
 2029TIP3    H127646   4.618   6.113   1.128 -2.4042  1.0038 -0.1813
 2029TIP3    H227647   4.697   6.198   1.030  1.7164 -2.0870  0.1504
 2030TIP3   OH227648   3.408   3.503   1.994  0.6189 -0.6744 -0.0637
 2030TIP3    H127649   3.450   3.447   1.929  0.4543 -0.7773 -0.0816
 2030TIP3    H227650   3.326   3.458   2.015 -0.3334  0.4157 -1.3211
 2031TIP3   OH227651   1.112   2.198   7.694 -0.0591 -0.5708  0.2742
 2031TIP3    H127652   1.064   2.273   7.728  0.6149 -0.0456  0.0779
 2031TIP3    H227653   1.148   2.155   7.772  1.7621  0.8170  0.2830
 2032TIP3   OH227654   0.085   2.380   1.864 -0.1392 -0.6791  0.7055
 2032TIP3    H127655   0.136   2.361   1.785 -0.2279 -2.0302  0.9537
 2032TIP3    H227656   0.032   2.456   1.841  2.3244  1.1041  0.6011
 2033TIP3   OH227657   5.652   5.283   7.712  0.2930 -0.0348  0.4928
 2033TIP3    H127658   5.727   5.224   7.707  1.2280  1.1331  0.3249
 2033TIP3    H227659   5.648   5.325   7.626 -0.8632 -0.4315  0.3325
 2034TIP3   OH227660   3.153   4.228   2.218  0.5441 -0.4256 -0.5886
 2034TIP3    H127661   3.218   4.158   2.211  1.2172 -0.3708  3.1071
 2034TIP3    H227662   3.203   4.304   2.248 -0.6932  0.7522 -1.3592
 2035TIP3   OH227663   4.980   4.836   1.380 -0.3392 -0.0593 -0.0578
 2035TIP3    H127664   5.073   4.822   1.364 -0.3088  0.1538 -0.0717
 2035TIP3    H227665   4.950   4.754   1.420 -0.1680 -0.1645 -0.1433
 2036TIP3   OH227666   4.411   2.721   0.680 -0.2497  0.0940 -0.1452
 2036TIP3    H127667   4.363   2.789   0.632  0.1679  1.0196  0.7191
 2036TIP3    H227668   4.477   2.691   0.618 -0.0180  0.9510 -0.3385
 2037TIP3   OH227669   6.822   2.521   8.326  0.1351  0.1058 -0.3166
 2037TIP3    H127670   6.857   2.537   8.413  0.6976  3.1340 -0.9584
 2037TIP3    H227671   6.758   2.451   8.337 -0.5203  1.0517  2.7362
 2038TIP3   OH227672   3.913   6.772   0.559  0.2371 -0.1940 -0.0740
 2038TIP3    H127673   3.850   6.734   0.620  0.7946 -0.7429  0.1803
 2038TIP3    H227674   3.894   6.866   0.559  0.3980 -0.1433  1.1601
 2039TIP3   OH227675   1.311   1.014   2.706 -0.0795 -0.4826 -0.1377
 2039TIP3    H127676   1.387   1.027   2.649 -0.5142  0.2334 -0.5614
 2039TIP3    H227677   1.349   1.012   2.795  0.6784 -2.3272 -0.4505
 2040TIP3   OH227678   4.092   6.727   8.696 -0.1789 -0.6343  0.3207
 2040TIP3    H127679   4.045   6.748   8.776  2.2116  0.9658  1.4187
 2040TIP3    H227680   4.044   6.772   8.627 -0.7508  0.2240  1.2525
 2041TIP3   OH227681   3.287   5.572   0.453 -0.1508  0.3247 -0.0633
 2041TIP3    H127682   3.321   5.553   0.365 -0.8144  0.7635 -0.4159
 2041TIP3    H227683   3.218   5.507   0.466 -0.6289  0.7897 -0.2163
 2042TIP3   OH227684   2.233   5.858   0.013 -0.0681  0.0849  0.0622
 2042TIP3    H127685   2.287   5.889   0.086  0.2543  0.1074 -0.1865
 2042TIP3    H227686   2.287   5.791  -0.030  0.3332  1.0667 -1.0118
 2043TIP3   OH227687   0.522   3.494   8.208 -0.0641 -0.1462 -0.2194
 2043TIP3    H127688   0.537   3.475   8.115  1.0105  1.3517 -0.3786
 2043TIP3    H227689   0.433   3.530   8.210 -0.3272 -0.7454 -0.5609
 2044TIP3   OH227690   0.352   3.221   8.150  0.2105  0.5225  0.0506
 2044TIP3    H127691   0.384   3.239   8.238 -0.5055  0.7823  0.2577
 2044TIP3    H227692   0.287   3.152   8.161  1.9192 -1.2918 -0.5738
 2045TIP3   OH227693   0.119   4.320   7.282  0.0019  0.0169 -0.3675
 2045TIP3    H127694   0.110   4.238   7.234  0.4268 -0.0623 -0.3102
 2045TIP3    H227695   0.191   4.305   7.343  0.7895  0.7714 -1.0814
 2046TIP3   OH227696   0.779   2.780   1.498 -0.4377  0.0160 -0.2382
 2046TIP3    H127697   0.700   2.759   1.447  0.3057 -0.0681 -1.3917
 2046TIP3    H227698   0.851   2.750   1.443  0.3727 -1.1481  1.4088
 2047TIP3   OH227699   1.533   2.048   1.951 -0.0743 -0.2130  0.0697
 2047TIP3    H127700   1.604   1.991   1.978 -0.5593 -1.0681 -0.4084
 2047TIP3    H227701   1.513   2.100   2.029  2.5241  1.6471 -0.4152
 2048TIP3   OH227702   4.913   2.047   1.934  0.2800 -0.0507  0.7023
 2048TIP3    H127703   4.943   2.135   1.914  2.5978 -1.1667 -1.1918
 2048TIP3    H227704   4.826   2.042   1.895  1.3622  0.4926 -1.9639
 2049TIP3   OH227705   0.054   3.815   7.563 -0.2155  0.0497  0.4896
 2049TIP3    H127706  -0.038   3.818   7.540 -0.2091  1.0249  0.5282
 2049TIP3    H227707   0.064   3.883   7.630  0.5666  0.0928  0.3428
 2050TIP3   OH227708   2.100   2.786   0.122 -0.2774  0.4935 -0.0644
 2050TIP3    H127709   2.158   2.857   0.094 -1.6329  0.7325 -2.5221
 2050TIP3    H227710   2.131   2.709   0.074 -1.5722  0.4876 -0.9354
 2051TIP3   OH227711   1.842   2.850   0.228 -0.3759 -0.2561  0.2027
 2051TIP3    H127712   1.854   2.770   0.279  0.3488 -0.9290 -1.0032
 2051TIP3    H227713   1.931   2.879   0.207 -0.6568  0.2440 -0.3232
 2052TIP3   OH227714   4.488   2.596   6.953  0.3702 -0.2636  0.0162
 2052TIP3    H127715   4.556   2.561   7.010  1.0973 -0.1553 -0.7575
 2052TIP3    H227716   4.410   2.545   6.973  0.9956 -1.2144  0.0619
 2053TIP3   OH227717   3.499   2.742   1.016  0.0609 -1.0114 -0.1574
 2053TIP3    H127718   3.449   2.725   0.937  1.0141 -2.6805 -0.4494
 2053TIP3    H227719   3.587   2.709   0.997  0.9007  0.5468  0.8341
 2054TIP3   OH227720   6.820   6.115   1.229 -0.3879 -0.2089  0.1678
 2054TIP3    H127721   6.895   6.151   1.180 -0.4681 -0.1954  0.0543
 2054TIP3    H227722   6.860   6.069   1.303 -0.3110  0.7856  0.7653
 2055TIP3   OH227723   6.760   6.629   7.569  0.0784 -0.6875  0.0500
 2055TIP3    H127724   6.844   6.673   7.584 -0.9180  1.9489 -1.4119
 2055TIP3    H227725   6.762   6.604   7.477  0.0078 -2.5232  0.4997
 2056TIP3   OH227726   0.178   0.460   7.262  0.1868  0.1273 -0.2861
 2056TIP3    H127727   0.186   0.469   7.357 -0.4555 -0.0673 -0.2082
 2056TIP3    H227728   0.180   0.550   7.229  2.2127  0.1282 -0.2574
 2057TIP3   OH227729   3.770   2.172   8.335 -0.4146  0.3366  0.4639
 2057TIP3    H127730   3.811   2.157   8.250 -1.8068  0.9417 -0.3563
 2057TIP3    H227731   3.721   2.254   8.324 -1.3680 -0.0541  1.5692
 2058TIP3   OH227732   6.200   4.871   8.503  0.1147 -0.1964  0.2618
 2058TIP3    H127733   6.234   4.950   8.544  0.7838 -0.3105 -0.0582
 2058TIP3    H227734   6.278   4.826   8.469 -0.3094 -0.7195 -0.0355
 2059TIP3   OH227735   2.074   4.112   1.290 -0.3420  0.4197  0.3107
 2059TIP3    H127736   2.057   4.140   1.200 -0.2023 -1.8520 -0.5013
 2059TIP3    H227737   2.013   4.162   1.343 -1.8347  0.3931 -1.2961
 2060TIP3   OH227738   1.586   1.722   1.303  0.1139  0.7661  0.8484
 2060TIP3    H127739   1.549   1.797   1.349 -0.4070  1.4722 -0.6538
 2060TIP3    H227740   1.681   1.739   1.302 -0.0600  1.8027 -0.0982
 2061TIP3   OH227741   5.318   1.569   1.942  0.0630  0.1975 -0.5026
 2061TIP3    H127742   5.272   1.637   1.892 -0.3416 -0.4589 -1.0384
 2061TIP3    H227743   5.249   1.521   1.986  0.2582 -0.5802 -1.0324
 2062TIP3   OH227744   0.531   3.064   1.523  0.2460 -0.3065  0.2672
 2062TIP3    H127745   0.578   3.095   1.600 -0.4216 -0.8915  0.9251
 2062TIP3    H227746   0.587   2.995   1.487  0.5921  0.0152  0.1892
 2063TIP3   OH227747   3.560   3.958   1.252  0.0463  0.5476 -0.4916
 2063TIP3    H127748   3.492   3.942   1.318  0.3256 -2.6694 -0.8147
 2063TIP3    H227749   3.539   4.043   1.215 -1.6516  1.2736  1.9266
 2064TIP3   OH227750   4.321   2.848   6.884  0.4862 -0.7574 -0.4738
 2064TIP3    H127751   4.286   2.910   6.819  0.4588 -1.3958 -1.0898
 2064TIP3    H227752   4.252   2.782   6.892  1.5803 -2.1267 -1.8323
 2065TIP3   OH227753   4.769   3.601   8.007  0.3238  0.4121 -0.2252
 2065TIP3    H127754   4.730   3.587   8.093 -0.5968  3.0845 -0.0979
 2065TIP3    H227755   4.739   3.527   7.954 -1.8740  0.4212  0.8814
 2066TIP3   OH227756   5.461   5.203   8.147 -0.3144 -0.2791 -0.6148
 2066TIP3    H127757   5.473   5.268   8.077 -0.8911 -0.7543 -1.1709
 2066TIP3    H227758   5.461   5.119   8.102 -1.3614 -0.5533 -0.1413
 2067TIP3   OH227759   5.127   6.776   7.647  0.6778  0.0466  0.0144
 2067TIP3    H127760   5.044   6.754   7.604  0.6280 -1.1793  0.6974
 2067TIP3    H227761   5.101   6.807   7.734  0.8879  0.6635 -0.1378
 2068TIP3   OH227762   6.226   0.688   7.654 -0.3067 -0.2394  0.0352
 2068TIP3    H127763   6.216   0.598   7.623  0.3110 -1.2230  2.4433
 2068TIP3    H227764   6.138   0.717   7.675 -0.3563 -0.9456  0.8624
 2069TIP3   OH227765   4.880   1.913   2.312 -0.4722 -0.0769 -0.1619
 2069TIP3    H127766   4.958   1.955   2.277 -0.7319  0.9144  0.4155
 2069TIP3    H227767   4.834   1.983   2.359 -1.4601 -0.7572 -0.0879
 2070TIP3   OH227768   4.735   3.308   2.458 -0.2663 -0.0639 -0.0629
 2070TIP3    H127769   4.791   3.270   2.526 -1.6086 -0.7770  0.6972
 2070TIP3    H227770   4.738   3.402   2.473 -0.3597 -0.2007  0.8320
 2071TIP3   OH227771   6.826   2.843   7.796 -0.1141 -0.5319 -0.2741
 2071TIP3    H127772   6.907   2.822   7.844  0.0120  1.1213  0.3074
 2071TIP3    H227773   6.765   2.874   7.864 -0.3256  0.7448 -1.0017
 2072TIP3   OH227774   1.288   5.017   0.999 -0.1592  0.4717 -0.7749
 2072TIP3    H127775   1.211   4.986   0.951 -0.9887  1.9738 -0.4532
 2072TIP3    H227776   1.267   5.003   1.091  0.3653 -0.0082 -0.7212
 2073TIP3   OH227777   2.236   4.002   7.101  0.6499 -0.1071 -0.0129
 2073TIP3    H127778   2.174   3.941   7.060  0.5509  0.3269 -0.5301
 2073TIP3    H227779   2.291   3.947   7.157  0.2300 -0.5946 -0.0717
 2074TIP3   OH227780   0.021   2.428   0.524 -0.1911  0.3575  0.0055
 2074TIP3    H127781   0.058   2.374   0.593  1.8421  1.8456  0.1508
 2074TIP3    H227782  -0.009   2.507   0.569 -2.4716 -0.2531 -0.3078
 2075TIP3   OH227783   2.557   2.973   6.732 -0.9708 -0.1827 -0.0149
 2075TIP3    H127784   2.516   2.943   6.813  0.1704 -1.1818  0.2288
 2075TIP3    H227785   2.620   3.039   6.760 -1.3017  0.2228 -0.2141
 2076TIP3   OH227786   5.662   5.768   0.180 -0.5293  0.7729 -0.1846
 2076TIP3    H127787   5.696   5.686   0.216 -2.2098 -0.4470 -1.1806
 2076TIP3    H227788   5.662   5.754   0.085  2.9276  3.5390 -0.7928
 2077TIP3   OH227789   0.897   3.238   6.939  0.1728  0.0584 -0.0158
 2077TIP3    H127790   0.865   3.148   6.928  1.5309 -0.2581 -1.8018
 2077TIP3    H227791   0.842   3.290   6.881  0.2740  0.1520 -0.0286
 2078TIP3   OH227792   1.404   4.801   7.797  0.4821  0.0068  0.7724
 2078TIP3    H127793   1.397   4.869   7.865  0.5564  0.5652  0.2316
 2078TIP3    H227794   1.313   4.782   7.774  0.3648 -1.4726  2.2607
 2079TIP3   OH227795   5.741   3.263   7.340  0.4550  0.7620 -0.6718
 2079TIP3    H127796   5.687   3.317   7.397  1.2272  1.1312 -0.2815
 2079TIP3    H227797   5.711   3.284   7.251  1.2933  2.4566 -0.5880
 2080TIP3   OH227798   4.385   3.931   2.361  0.1122 -0.0643  0.3374
 2080TIP3    H127799   4.449   3.977   2.415  0.4619  2.3997 -1.9788
 2080TIP3    H227800   4.308   3.987   2.362 -0.6334 -1.0538 -0.0208
 2081TIP3   OH227801   0.372   6.163   7.997 -0.3690  0.1818 -0.2237
 2081TIP3    H127802   0.422   6.086   8.024  1.8236  0.9057 -1.8852
 2081TIP3    H227803   0.321   6.187   8.074  0.0159 -2.0362  0.8012
 2082TIP3   OH227804   3.460   4.811   1.282 -0.1090 -0.0030 -0.4735
 2082TIP3    H127805   3.417   4.783   1.201 -0.1378 -1.5366  0.0310
 2082TIP3    H227806   3.441   4.904   1.288 -0.5505  0.0315 -1.9573
 2083TIP3   OH227807   6.417   2.692   8.321  0.1731 -0.1402 -0.2427
 2083TIP3    H127808   6.334   2.725   8.287  0.5243 -1.1646 -2.2168
 2083TIP3    H227809   6.402   2.682   8.415 -1.7297  0.2761 -0.4672
 2084TIP3   OH227810   5.549   0.094   1.274  0.1164 -0.1106 -0.3863
 2084TIP3    H127811   5.555   0.164   1.209  0.4897 -0.4564 -0.7373
 2084TIP3    H227812   5.457   0.067   1.272 -0.3138  1.1655  0.6247
 2085TIP3   OH227813   5.182   2.737   8.688 -0.2038 -0.5811  0.0646
 2085TIP3    H127814   5.172   2.812   8.630 -1.0989 -0.4940  0.3134
 2085TIP3    H227815   5.092   2.708   8.705  0.1034 -1.3148  0.4788
 2086TIP3   OH227816   6.361   2.287   2.465  0.0591  0.5849 -0.1895
 2086TIP3    H127817   6.287   2.344   2.444  0.1616  0.0951 -2.1058
 2086TIP3    H227818   6.333   2.239   2.543 -0.8483  1.7925  0.2559
 2087TIP3   OH227819   0.607   1.430   0.550  0.2786  0.0759  0.0267
 2087TIP3    H127820   0.673   1.425   0.481  0.0657 -1.3251 -0.1071
 2087TIP3    H227821   0.642   1.494   0.613  2.5474 -1.7274  0.7483
 2088TIP3   OH227822   1.085   4.071   8.168  0.4343 -0.2661 -0.0451
 2088TIP3    H127823   1.086   3.976   8.165  0.0321 -0.2542 -0.5000
 2088TIP3    H227824   1.025   4.092   8.239  0.2953 -0.3442 -0.1405
 2089TIP3   OH227825   4.309   5.035   8.418  0.3835  0.7353  0.3335
 2089TIP3    H127826   4.265   5.030   8.503  1.4409 -0.9157  0.8164
 2089TIP3    H227827   4.395   5.071   8.438  0.0169  2.0697 -0.3357
 2090TIP3   OH227828   1.435   3.019   7.579  0.0132  0.0917 -0.5557
 2090TIP3    H127829   1.380   2.985   7.509 -0.1252 -0.0796 -0.3635
 2090TIP3    H227830   1.374   3.062   7.639  0.0833 -0.1096 -0.3364
 2091TIP3   OH227831   6.600   1.812   1.708  0.0643  0.4070  0.4999
 2091TIP3    H127832   6.635   1.845   1.791 -0.5218 -1.8350  1.7288
 2091TIP3    H227833   6.553   1.732   1.732 -0.9471  0.2017 -1.8905
 2092TIP3   OH227834   2.887   6.234   0.231 -0.3386 -0.2167 -0.1766
 2092TIP3    H127835   2.872   6.213   0.323 -0.2879 -0.5098 -0.2337
 2092TIP3    H227836   2.817   6.296   0.209 -1.3834 -1.4218 -0.3886
 2093TIP3   OH227837   1.593   0.332   0.923  0.4469  0.6040  0.0752
 2093TIP3    H127838   1.612   0.422   0.897  0.9137  0.3729 -0.4081
 2093TIP3    H227839   1.500   0.320   0.900  0.4723  0.8558 -0.1697
 2094TIP3   OH227840   6.830   0.570   6.820  0.3421  0.5734  0.6881
 2094TIP3    H127841   6.897   0.505   6.800  0.3918  0.3886  1.4009
 2094TIP3    H227842   6.756   0.547   6.763  0.4850  0.0989  0.6935
 2095TIP3   OH227843   1.453   2.149   0.031  0.1957 -0.2952  0.2939
 2095TIP3    H127844   1.522   2.087   0.056 -0.7738 -1.1702  0.8478
 2095TIP3    H227845   1.427   2.121  -0.057  0.6061  0.1105  0.0341
 2096TIP3   OH227846   5.476   5.438   8.460 -0.3171  0.2261  0.2239
 2096TIP3    H127847   5.413   5.368   8.444  1.8227 -1.6320 -0.5739
 2096TIP3    H227848   5.537   5.403   8.524  1.2110  1.0508 -0.6964
 2097TIP3   OH227849   2.014   2.075   7.591  0.0375  0.3948 -0.3911
 2097TIP3    H127850   1.993   2.117   7.508  1.0353 -1.3092 -1.5669
 2097TIP3    H227851   1.933   2.081   7.642 -0.5341  1.6420 -1.3919
 2098TIP3   OH227852   0.822   0.030   2.031 -0.2121  0.0734  0.3291
 2098TIP3    H127853   0.823   0.094   2.103  0.7377 -0.6264  0.9614
 2098TIP3    H227854   0.907   0.041   1.988 -0.6032  0.1832 -0.4333
 2099TIP3   OH227855   6.197   4.748   1.345 -0.4694 -0.1905  0.7733
 2099TIP3    H127856   6.200   4.829   1.293 -0.4023 -0.3191  0.5760
 2099TIP3    H227857   6.270   4.757   1.406  0.2059 -0.5750  0.0416
 2100TIP3   OH227858   3.748   6.554   7.064 -0.0644  0.2277 -0.5421
 2100TIP3    H127859   3.701   6.591   7.138 -0.2196  1.0896 -1.0571
 2100TIP3    H227860   3.758   6.627   7.002  1.2396 -0.1302 -0.7995
 2101TIP3   OH227861   4.811   5.604   1.128  0.5609  0.3920 -0.5843
 2101TIP3    H127862   4.871   5.567   1.193 -0.1315 -1.0777 -0.7401
 2101TIP3    H227863   4.830   5.556   1.047 -0.4193  0.3093 -0.7760
 2102TIP3   OH227864   4.116   3.287   8.091  0.2570  0.1499  0.6020
 2102TIP3    H127865   4.209   3.293   8.070  0.3070  1.4711  1.1563
 2102TIP3    H227866   4.082   3.223   8.028  1.3842  0.2333 -0.1244
 2103TIP3   OH227867   6.836   4.547   0.956 -0.1472  0.9446 -0.4840
 2103TIP3    H127868   6.879   4.489   1.019 -2.0634 -0.5257 -0.4388
 2103TIP3    H227869   6.845   4.502   0.872 -0.1725  1.4323 -0.7502
 2104TIP3   OH227870   4.642   2.399   1.307 -0.5259 -0.4811  0.5592
 2104TIP3    H127871   4.650   2.346   1.228 -0.2187  0.3299  0.0270
 2104TIP3    H227872   4.731   2.404   1.342 -0.5403 -0.2741  0.5687
 2105TIP3   OH227873   3.536   5.922   7.043 -0.0156  0.1431  0.2121
 2105TIP3    H127874   3.532   5.827   7.036  0.7469  0.1936 -1.7887
 2105TIP3    H227875   3.450   5.952   7.013 -0.7241  0.0785  2.1006
 2106TIP3   OH227876   2.017   4.190   2.086  0.2279  0.4966  0.4680
 2106TIP3    H127877   1.975   4.256   2.031  2.0590 -0.1458 -1.8473
 2106TIP3    H227878   1.977   4.107   2.060  1.4534  0.1282 -0.3281
 2107TIP3   OH227879   5.866   6.200   0.708 -0.6379 -0.1936 -0.5198
 2107TIP3    H127880   5.781   6.157   0.717 -0.0390 -1.2780  0.1606
 2107TIP3    H227881   5.930   6.134   0.736  0.4541  0.5020 -1.2866
 2108TIP3   OH227882   4.695   6.543   1.740 -0.1244  0.3068 -0.1016
 2108TIP3    H127883   4.760   6.604   1.705  1.1195 -1.2061 -0.5245
 2108TIP3    H227884   4.710   6.543   1.834 -0.6652  1.2106  0.0027
 2109TIP3   OH227885   0.790   0.745   1.262  0.0876  0.2142 -0.3197
 2109TIP3    H127886   0.759   0.771   1.349 -0.1554  1.8392 -0.8720
 2109TIP3    H227887   0.863   0.686   1.280  0.0337  0.5074  0.9874
 2110TIP3   OH227888   0.802   1.953   0.793 -0.1514 -0.4051  0.1725
 2110TIP3    H127889   0.875   1.897   0.767  1.1779  0.8446  1.0433
 2110TIP3    H227890   0.725   1.914   0.752  1.0512 -1.5934 -1.0283
 2111TIP3   OH227891   5.660   6.498   0.863  0.1010 -0.7177  0.1471
 2111TIP3    H127892   5.613   6.536   0.789 -1.1184 -0.2567  1.1370
 2111TIP3    H227893   5.602   6.430   0.897  0.2196 -0.2783  1.2602
 2112TIP3   OH227894   3.566   3.908   2.645 -0.1003  0.0470 -0.3265
 2112TIP3    H127895   3.588   3.825   2.687 -1.2280  0.1320  0.4720
 2112TIP3    H227896   3.610   3.904   2.559 -0.8151 -1.7158 -0.6444
 2113TIP3   OH227897   1.759   0.945   0.454 -0.0465 -0.8079  0.0831
 2113TIP3    H127898   1.767   0.850   0.464 -0.6311 -0.9005 -0.2968
 2113TIP3    H227899   1.667   0.959   0.429  0.0108 -0.1352  0.2327
 2114TIP3   OH227900   5.632   5.992   2.081 -0.5304 -0.3123 -0.6335
 2114TIP3    H127901   5.702   6.032   2.031 -0.6244 -0.9522 -1.2908
 2114TIP3    H227902   5.674   5.966   2.164 -0.6751  1.8907  0.1754
 2115TIP3   OH227903   0.659   3.827   7.656 -0.0443 -0.4555  0.1117
 2115TIP3    H127904   0.695   3.767   7.591 -1.6831 -0.9891 -0.3742
 2115TIP3    H227905   0.684   3.790   7.740  0.9403 -0.5162 -0.1983
 2116TIP3   OH227906   2.780   6.510   0.085 -0.2508 -0.4158 -0.2133
 2116TIP3    H127907   2.697   6.487   0.127  0.6390 -0.0961  1.8380
 2116TIP3    H227908   2.762   6.591   0.038 -1.0366 -0.2001  0.4398
 2117TIP3   OH227909   6.619   5.892   0.550 -0.1480  0.6057 -0.0916
 2117TIP3    H127910   6.662   5.849   0.624 -1.0139  0.1598  0.1605
 2117TIP3    H227911   6.689   5.904   0.486  0.1557 -1.0764 -0.1252
 2118TIP3   OH227912   0.935   5.626   3.023  0.2119 -0.3186 -0.1349
 2118TIP3    H127913   0.845   5.601   3.046  0.1979  0.5451  0.8027
 2118TIP3    H227914   0.969   5.550   2.975 -0.5292 -1.2741  0.7896
 2119TIP3   OH227915   4.202   5.120   8.686  0.5446  0.5534  0.3919
 2119TIP3    H127916   4.114   5.157   8.696  0.7027  1.1548 -0.3585
 2119TIP3    H227917   4.255   5.193   8.653  0.9299 -0.2552 -0.8500
 2120TIP3   OH227918   1.220   3.203   1.398 -0.5021  0.6401  0.0134
 2120TIP3    H127919   1.200   3.293   1.371 -0.6178  0.3719 -0.8218
 2120TIP3    H227920   1.224   3.207   1.494 -1.0359  1.4246  0.0129
 2121TIP3   OH227921   1.967   6.027   7.334 -0.1028 -0.3705 -0.3587
 2121TIP3    H127922   2.033   5.967   7.370  0.3603  0.6145  0.4577
 2121TIP3    H227923   1.895   6.024   7.396 -0.1424 -0.1881 -0.3957
 2122TIP3   OH227924   0.989   6.264   0.564  0.1409  0.2211 -0.2815
 2122TIP3    H127925   1.011   6.221   0.482  0.5118 -1.1973  0.5310
 2122TIP3    H227926   1.027   6.352   0.557 -0.0757  0.2139 -1.7124
 2123TIP3   OH227927   5.352   0.581   2.104 -0.0374  0.0242 -0.5965
 2123TIP3    H127928   5.426   0.575   2.164 -0.2758  1.0625 -0.1928
 2123TIP3    H227929   5.390   0.567   2.017  0.0430 -3.5472 -0.1583
 2124TIP3   OH227930   6.216   4.839   7.559 -0.5956 -0.2459 -0.2132
 2124TIP3    H127931   6.231   4.788   7.479  0.4240  0.0410 -0.2169
 2124TIP3    H227932   6.267   4.793   7.626  1.4491  1.4589 -0.4936
 2125TIP3   OH227933   2.084   3.871   7.580 -0.4329 -0.1707  0.0573
 2125TIP3    H127934   1.994   3.837   7.580 -0.4479 -0.1389  0.4819
 2125TIP3    H227935   2.137   3.796   7.553 -0.7080  0.1885 -1.6031
 2126TIP3   OH227936   6.153   3.381   8.524 -0.1326 -0.2817  0.0318
 2126TIP3    H127937   6.070   3.422   8.550  0.9117  0.4191  2.5940
 2126TIP3    H227938   6.198   3.364   8.606  2.2302 -0.7557 -1.2699
 2127TIP3   OH227939   1.808   4.635   1.721  0.1496  0.5983  0.9216
 2127TIP3    H127940   1.728   4.599   1.759 -0.9520  0.0521 -1.7164
 2127TIP3    H227941   1.787   4.727   1.704 -0.1378  0.3288 -0.2479
 2128TIP3   OH227942   4.601   0.055   1.669  0.3216 -0.5847 -0.5305
 2128TIP3    H127943   4.609  -0.029   1.625  0.9169 -0.5476 -0.4993
 2128TIP3    H227944   4.603   0.033   1.762 -1.0199 -0.6714 -0.5054
 2129TIP3   OH227945   0.159   0.260   0.377 -0.0081  0.2546 -0.8846
 2129TIP3    H127946   0.173   0.354   0.390 -0.2331  0.1986 -0.1891
 2129TIP3    H227947   0.230   0.232   0.320  0.9167  0.5694  0.0777
 2130TIP3   OH227948   1.372   0.515   2.595  0.4058 -0.6283 -0.0061
 2130TIP3    H127949   1.339   0.603   2.578  0.6752 -0.4128  0.5893
 2130TIP3    H227950   1.293   0.463   2.611  0.0875 -0.9392 -2.2355
 2131TIP3   OH227951   0.293   0.260   0.135  0.3206 -0.5251  0.1737
 2131TIP3    H127952   0.353   0.249   0.061  0.4135 -0.9697  0.3108
 2131TIP3    H227953   0.245   0.340   0.115 -0.0867 -0.9639 -0.6705
 2132TIP3   OH227954   6.364   4.869   1.555  0.3671  0.6636  0.2555
 2132TIP3    H127955   6.391   4.932   1.622 -2.0013  0.1619  1.7870
 2132TIP3    H227956   6.325   4.797   1.604 -1.0169  0.0421 -1.6530
 2133TIP3   OH227957   4.605   3.048   0.553  0.2869 -0.1909 -0.1091
 2133TIP3    H127958   4.512   3.025   0.551  0.2797 -0.1507 -2.2704
 2133TIP3    H227959   4.613   3.105   0.630 -1.9532  1.6099 -1.0531
 2134TIP3   OH227960   2.196   1.573   1.387  0.4022  0.7207 -0.0976
 2134TIP3    H127961   2.176   1.666   1.392  2.2338  1.2418 -1.3366
 2134TIP3    H227962   2.243   1.563   1.304 -0.3156 -1.4298 -0.2997
 2135TIP3   OH227963   5.099   0.927   1.173  0.1773  0.1068 -0.1719
 2135TIP3    H127964   5.095   1.011   1.127  0.7644 -0.2881 -0.9681
 2135TIP3    H227965   5.029   0.932   1.238  0.9287  1.6649  0.5717
 2136TIP3   OH227966   1.546   0.733   0.539 -0.5418  0.2896 -0.1834
 2136TIP3    H127967   1.486   0.660   0.553 -2.8850  1.9265 -1.0689
 2136TIP3    H227968   1.581   0.719   0.451  1.1693 -1.1354  0.6596
 2137TIP3   OH227969   5.022   2.471   0.324 -0.4791  0.5926  0.2741
 2137TIP3    H127970   5.031   2.410   0.397 -0.7852 -0.4117 -0.5148
 2137TIP3    H227971   4.997   2.417   0.249 -1.8047  1.8002 -0.2161
 2138TIP3   OH227972   0.215   1.335   1.019  0.0354  0.4181  0.2810
 2138TIP3    H127973   0.163   1.385   0.956  0.2081  0.4682  0.1757
 2138TIP3    H227974   0.173   1.249   1.022 -0.7748  0.8317  1.1087
 2139TIP3   OH227975   0.696   0.349   2.623 -0.3389 -0.0474 -0.2124
 2139TIP3    H127976   0.614   0.341   2.673  0.5043  1.4207  1.5355
 2139TIP3    H227977   0.748   0.412   2.673  1.5270 -0.2808 -1.7521
 2140TIP3   OH227978   0.094   1.282   1.531 -0.3049 -0.3462 -0.4779
 2140TIP3    H127979   0.095   1.232   1.450 -0.4518 -1.8502  0.3967
 2140TIP3    H227980   0.135   1.365   1.509 -0.8863 -0.4720 -2.2222
 2141TIP3   OH227981   0.278   4.924   2.164  0.3647  0.1945  0.3745
 2141TIP3    H127982   0.206   4.904   2.224  1.2528 -0.4466  1.2755
 2141TIP3    H227983   0.262   4.868   2.088  0.4533 -0.7143  1.0075
 2142TIP3   OH227984   3.224   2.922   0.707  0.7326 -0.0374  0.2156
 2142TIP3    H127985   3.186   2.998   0.752  2.0475  0.8953 -0.2059
 2142TIP3    H227986   3.253   2.956   0.623  0.3262 -1.2753 -0.4477
 2143TIP3   OH227987   4.222   4.587   2.065 -0.1065 -0.0428 -0.1526
 2143TIP3    H127988   4.146   4.636   2.098 -0.4925  1.3619 -2.8020
 2143TIP3    H227989   4.184   4.506   2.029 -0.7977  1.4141 -3.0713
 2144TIP3   OH227990   6.442   4.559   1.991  0.8160  0.4979  0.2135
 2144TIP3    H127991   6.363   4.572   2.043  0.4233 -0.4945 -0.0975
 2144TIP3    H227992   6.514   4.567   2.054  0.4467  1.0448  0.5713
 2145TIP3   OH227993   3.263   0.895   0.245  0.5840 -0.2090  0.5955
 2145TIP3    H127994   3.211   0.818   0.266 -0.2750 -1.5211 -4.7702
 2145TIP3    H227995   3.352   0.861   0.232  0.4445 -0.1614 -0.6387
 2146TIP3   OH227996   0.816   3.632   0.719 -0.0862  0.5900 -0.0140
 2146TIP3    H127997   0.742   3.670   0.765 -0.2516  1.3840 -0.9181
 2146TIP3    H227998   0.880   3.614   0.788 -1.0624 -0.0339  0.7665
 2147TIP3   OH227999   1.668   1.834   2.035 -0.1630  0.4950 -0.0374
 2147TIP3    H128000   1.619   1.826   2.116 -0.8392 -0.6138 -0.5271
 2147TIP3    H228001   1.662   1.747   1.995  1.4951  0.5688 -0.5225
 2148TIP3   OH228002   4.072   3.085   0.153 -0.6731  0.3642  0.4313
 2148TIP3    H128003   4.026   3.042   0.081 -2.0328 -0.7298  1.8838
 2148TIP3    H228004   4.156   3.112   0.115 -0.8138 -1.2864 -1.2187
 2149TIP3   OH228005   1.636   5.717   2.842  0.1307  0.6829 -0.0124
 2149TIP3    H128006   1.696   5.760   2.781  0.2265  0.4985 -0.0504
 2149TIP3    H228007   1.691   5.656   2.891  0.1989  1.4214  0.8386
 2150TIP3   OH228008   0.577   2.012   1.902 -0.0680  0.0264  0.1182
 2150TIP3    H128009   0.526   2.087   1.871 -0.8823 -0.6930 -0.3209
 2150TIP3    H228010   0.559   2.009   1.996 -0.0016  0.4088  0.1450
 2151TIP3   OH228011   0.836   1.762   1.683  0.1387  0.3405 -0.0182
 2151TIP3    H128012   0.815   1.770   1.776 -0.1317  3.1819 -0.2464
 2151TIP3    H228013   0.894   1.686   1.678 -1.5018 -1.1476  2.1343
 2152TIP3   OH228014   6.334   4.127   6.659  0.0612 -0.0027  0.1573
 2152TIP3    H128015   6.350   4.033   6.647 -0.8677 -0.2217  0.5839
 2152TIP3    H228016   6.391   4.152   6.732  0.8282 -0.0787 -0.4080
 2153TIP3   OH228017   5.856   0.602   0.952  0.1869 -0.6069 -0.0118
 2153TIP3    H128018   5.786   0.667   0.967  0.2819 -0.5875  0.3432
 2153TIP3    H228019   5.813   0.518   0.963 -0.0175 -0.6215 -0.8116
 2154TIP3   OH228020   0.945   3.179   0.605  0.5797  0.2760  0.3644
 2154TIP3    H128021   0.922   3.129   0.527  0.4592  0.4926  0.2588
 2154TIP3    H228022   0.917   3.124   0.679  1.3754 -0.2626  0.2730
 2155TIP3   OH228023   0.630   2.310   6.930 -0.4984  0.0951 -0.1790
 2155TIP3    H128024   0.541   2.321   6.963 -0.2303 -0.4438  0.7521
 2155TIP3    H228025   0.647   2.390   6.881 -1.0909  0.7177  0.6048
 2156TIP3   OH228026   5.549   1.541   1.759  0.5096  0.0704 -0.3943
 2156TIP3    H128027   5.560   1.635   1.743 -2.8856  0.3090 -2.1884
 2156TIP3    H228028   5.470   1.535   1.812  0.8565 -1.7905 -0.0439
 2157TIP3   OH228029   5.262   0.880   2.837 -0.2049 -0.1953 -0.1275
 2157TIP3    H128030   5.170   0.859   2.819 -1.1543  1.4591  2.2786
 2157TIP3    H228031   5.285   0.823   2.911 -0.9091  2.5807  2.4219
 2158TIP3   OH228032   3.729   5.898   0.822  0.3185 -0.4871  0.6023
 2158TIP3    H128033   3.650   5.947   0.797 -0.1202 -1.5427 -0.2021
 2158TIP3    H228034   3.716   5.811   0.782  1.4192 -1.0036  1.3299
 2159TIP3   OH228035   1.837   4.273   2.709  0.2543  0.1727 -0.2009
 2159TIP3    H128036   1.861   4.366   2.715  1.4390 -0.0163 -1.5384
 2159TIP3    H228037   1.808   4.250   2.797 -0.9280  2.0376 -0.0633
 2160TIP3   OH228038   6.148   3.355   7.586 -0.5079  0.2883 -0.7185
 2160TIP3    H128039   6.242   3.339   7.588 -0.5837 -0.6421 -2.5889
 2160TIP3    H228040   6.125   3.353   7.493 -2.8067 -2.2368 -0.2104
 2161TIP3   OH228041   5.907   6.037   8.621 -0.0737  0.5398 -0.4835
 2161TIP3    H128042   5.829   5.983   8.633 -0.4094  0.9660 -0.7184
 2161TIP3    H228043   5.960   5.990   8.557 -0.0564  0.1618 -0.1897
 2162TIP3   OH228044   2.247   6.648   7.584  0.0124  1.2694 -0.0926
 2162TIP3    H128045   2.161   6.688   7.570 -0.5813  0.4990  1.1909
 2162TIP3    H228046   2.301   6.719   7.617 -1.2728  0.9748  3.0342
 2163TIP3   OH228047   2.821   3.978   2.473 -0.1858  0.4167  0.4701
 2163TIP3    H128048   2.878   4.055   2.470 -0.8781  0.9231 -0.0265
 2163TIP3    H228049   2.880   3.904   2.457  0.0771  1.0770 -2.0139
 2164TIP3   OH228050   0.219   3.353   7.937 -0.1573  0.0285 -0.1074
 2164TIP3    H128051   0.285   3.319   7.998  0.3136  0.2799 -0.4673
 2164TIP3    H228052   0.147   3.289   7.942  0.5308 -0.7943 -0.4616
 2165TIP3   OH228053   4.028   3.139   2.234  0.5881  0.2982 -0.3508
 2165TIP3    H128054   4.120   3.154   2.255  0.2239  1.8868  0.2352
 2165TIP3    H228055   3.995   3.224   2.206 -0.7811 -0.1634 -0.2256
 2166TIP3   OH228056   3.934   5.475   0.735 -0.0060 -0.3411 -0.3196
 2166TIP3    H128057   3.904   5.519   0.656 -0.1830  0.5208  0.2056
 2166TIP3    H228058   3.884   5.516   0.806 -0.1548 -1.3838  0.2015
 2167TIP3   OH228059   5.035   0.030   7.897  0.1573  0.3579 -0.5016
 2167TIP3    H128060   5.091   0.003   7.970  1.3064  0.5117 -1.3064
 2167TIP3    H228061   4.948  -0.004   7.920  0.2199  1.4036  1.4861
 2168TIP3   OH228062   0.952   6.590   2.535  0.5397  0.1389  0.5870
 2168TIP3    H128063   0.954   6.495   2.552  0.6908 -0.0461 -0.4103
 2168TIP3    H228064   0.946   6.629   2.622 -2.9811 -0.8730  0.9600
 2169TIP3   OH228065   2.937   6.017   0.699  0.2120 -0.1858 -0.2333
 2169TIP3    H128066   2.961   5.951   0.635  1.1827  1.3208 -1.5033
 2169TIP3    H228067   2.888   5.969   0.766  0.4297 -2.0654 -1.3474
 2170TIP3   OH228068   6.509   5.422   0.237 -0.0310  0.1316 -0.1893
 2170TIP3    H128069   6.601   5.444   0.220 -0.3610 -0.3046 -3.0973
 2170TIP3    H228070   6.464   5.506   0.241  0.2269  0.3101 -0.8373
 2171TIP3   OH228071   1.025   1.298   0.894 -0.2246  0.0938  0.0142
 2171TIP3    H128072   0.970   1.223   0.914  0.5503 -0.8076 -1.1125
 2171TIP3    H228073   1.045   1.290   0.801  0.7250  1.1278  0.1021
 2172TIP3   OH228074   3.441   3.406   0.405  0.6281  0.2394  0.2604
 2172TIP3    H128075   3.446   3.501   0.393  0.4150  0.5398  2.2380
 2172TIP3    H228076   3.520   3.385   0.456 -0.8563 -0.1216  2.5413
 2173TIP3   OH228077   5.166   4.981   8.352 -0.1271  0.2837 -0.1359
 2173TIP3    H128078   5.148   4.972   8.258 -1.7614 -0.9122  0.2523
 2173TIP3    H228079   5.126   5.065   8.376  1.3756  1.2072 -0.7067
 2174TIP3   OH228080   0.902   2.300   2.480 -0.0192  0.4838 -0.1986
 2174TIP3    H128081   0.908   2.271   2.389  2.2369  1.2909 -0.3777
 2174TIP3    H228082   0.831   2.364   2.480  0.8363  1.4835 -1.7187
 2175TIP3   OH228083   6.594   2.300   0.592  0.3175 -0.4628  0.2012
 2175TIP3    H128084   6.575   2.257   0.508 -0.5523  0.6512 -0.1898
 2175TIP3    H228085   6.588   2.393   0.573  1.4442 -0.1639  1.2139
 2176TIP3   OH228086   1.776   2.392   2.191 -0.0287 -0.2308 -0.1441
 2176TIP3    H128087   1.870   2.410   2.192  0.0398 -0.5448 -0.6604
 2176TIP3    H228088   1.767   2.306   2.231  0.2078 -1.4875 -2.6176
 2177TIP3   OH228089   5.463   5.097   1.033  0.2599  0.5798 -0.2306
 2177TIP3    H128090   5.454   5.057   1.119 -0.1691 -0.9185 -0.9402
 2177TIP3    H228091   5.519   5.173   1.047 -0.7053  1.0022  1.5537
 2178TIP3   OH228092   3.065   5.974   7.403 -0.9599 -0.0567 -0.0810
 2178TIP3    H128093   3.152   5.970   7.362 -1.1143  0.0149 -0.4251
 2178TIP3    H228094   3.006   5.994   7.330 -1.9243 -4.6490 -0.8513
 2179TIP3   OH228095   4.249   0.843   2.452  0.0148 -0.1879  0.1635
 2179TIP3    H128096   4.227   0.815   2.363  0.7034  2.3554 -0.8902
 2179TIP3    H228097   4.202   0.781   2.509 -0.6217 -1.7437 -1.9320
 2180TIP3   OH228098   5.227   3.386   1.901  0.0146 -0.3056 -0.2001
 2180TIP3    H128099   5.170   3.395   1.977 -0.7654 -1.7988 -0.5590
 2180TIP3    H228100   5.315   3.388   1.937 -0.2985  0.4960  0.5575
 2181TIP3   OH228101   4.692   0.369   1.920  0.0476  0.1363 -0.0498
 2181TIP3    H128102   4.747   0.420   1.979  0.6608  0.3130 -0.7536
 2181TIP3    H228103   4.716   0.278   1.937  0.1596  0.1823  0.0369
 2182TIP3   OH228104   5.578   5.436   6.853  0.6030  0.4276 -0.0798
 2182TIP3    H128105   5.506   5.499   6.846 -0.5851 -0.9533 -0.7103
 2182TIP3    H228106   5.583   5.394   6.767  2.6774  0.9788 -0.3002
 2183TIP3   OH228107   5.251   2.226   8.169  0.4720  0.0715  0.2718
 2183TIP3    H128108   5.227   2.214   8.261  2.0050 -0.9220  0.5931
 2183TIP3    H228109   5.249   2.320   8.156 -2.2283  0.1113  0.5813
 2184TIP3   OH228110   5.893   5.124   1.970  0.1251 -0.3214 -0.0885
 2184TIP3    H128111   5.843   5.199   1.940 -0.7974 -0.7705  0.2880
 2184TIP3    H228112   5.828   5.055   1.984  0.5825 -0.3653  2.1998
 2185TIP3   OH228113   6.783   0.287   2.047  0.1271  0.0416  0.2673
 2185TIP3    H128114   6.767   0.277   2.140 -0.1909 -0.5664  0.1539
 2185TIP3    H228115   6.697   0.275   2.006  0.2816  0.1984 -0.1116
 2186TIP3   OH228116   0.598   5.447   1.874 -0.6620 -0.3291  0.4383
 2186TIP3    H128117   0.578   5.541   1.878 -0.0284 -0.2050  0.9665
 2186TIP3    H228118   0.604   5.428   1.781 -1.1005  0.0859  0.3194
 2187TIP3   OH228119   3.560   2.918   8.445 -0.3354  0.6715  0.3105
 2187TIP3    H128120   3.588   2.897   8.534 -0.7517 -0.3932  0.2173
 2187TIP3    H228121   3.500   2.992   8.455  0.0763  0.9329  0.8486
 2188TIP3   OH228122   0.222   1.066   1.676 -0.3603 -0.1743 -0.4986
 2188TIP3    H128123   0.232   1.129   1.747 -2.9703 -0.2857  0.0587
 2188TIP3    H228124   0.164   1.108   1.614  0.1977 -0.9163 -1.5552
 2189TIP3   OH228125   1.998   5.301   8.233 -0.7520  0.5358  0.5016
 2189TIP3    H128126   2.057   5.248   8.179 -0.8787 -0.3176  1.1810
 2189TIP3    H228127   1.993   5.254   8.316 -3.1920  0.0119  0.1208
 2190TIP3   OH228128   2.198   4.923   1.674  1.1232  0.0535  0.0805
 2190TIP3    H128129   2.135   4.983   1.635  0.9732 -0.3205 -0.2636
 2190TIP3    H228130   2.147   4.843   1.690  1.6923 -0.5250 -0.9229
 2191TIP3   OH228131   6.386   1.606   1.502 -0.1312 -0.1884 -0.9691
 2191TIP3    H128132   6.325   1.658   1.555  0.4683 -0.0963 -0.3545
 2191TIP3    H228133   6.459   1.665   1.485  2.0166 -1.5806  2.2591
 2192TIP3   OH228134   4.803   3.674   8.342 -0.6730 -0.6458 -0.4067
 2192TIP3    H128135   4.724   3.702   8.389  0.0848  1.8510 -0.4352
 2192TIP3    H228136   4.777   3.595   8.295 -2.2147 -1.7670  2.0897
 2193TIP3   OH228137   2.247   6.211   7.212  0.0771 -0.9315  0.3126
 2193TIP3    H128138   2.319   6.167   7.256  0.5550 -0.6181 -0.1359
 2193TIP3    H228139   2.222   6.283   7.271  0.4955 -0.7123  0.2248
 2194TIP3   OH228140   2.682   6.300   2.271 -0.2352 -0.6211  0.0987
 2194TIP3    H128141   2.615   6.258   2.325 -2.2618 -0.0142 -1.8250
 2194TIP3    H228142   2.664   6.394   2.279  1.3133 -0.3338  0.6381
 2195TIP3   OH228143   4.189   0.785   1.816 -0.2756  0.3778 -0.4086
 2195TIP3    H128144   4.270   0.739   1.795  0.9458  1.6365  1.2760
 2195TIP3    H228145   4.217   0.870   1.850 -2.3073  0.8603  0.2316
 2196TIP3   OH228146   6.391   1.715   1.045  0.1119  0.1700 -0.0057
 2196TIP3    H128147   6.430   1.644   1.097  1.1477  0.9077  0.2783
 2196TIP3    H228148   6.430   1.795   1.082 -0.0931  0.7984 -1.1003
 2197TIP3   OH228149   0.033   3.581   2.251 -0.1691 -0.2930  0.1332
 2197TIP3    H128150   0.100   3.532   2.203  0.0038  0.0122  0.0575
 2197TIP3    H228151  -0.039   3.589   2.189 -0.5156 -1.1356  0.4175
 2198TIP3   OH228152   1.536   1.330   8.588 -0.3338 -0.7279 -0.4883
 2198TIP3    H128153   1.587   1.270   8.642 -1.8783 -2.5479 -0.9061
 2198TIP3    H228154   1.457   1.348   8.640 -1.1309 -1.2775 -1.4625
 2199TIP3   OH228155   4.254   3.875   1.337  0.0863  0.5173 -0.0749
 2199TIP3    H128156   4.312   3.800   1.327 -0.9951 -0.2281 -1.0110
 2199TIP3    H228157   4.312   3.948   1.358  1.5496  0.1039 -2.3353
 2200TIP3   OH228158   3.410   2.861   2.826  0.0216 -0.4132  0.0343
 2200TIP3    H128159   3.321   2.830   2.844  0.7901 -2.6324  0.3724
 2200TIP3    H228160   3.454   2.858   2.911  1.0366 -1.6344 -0.5057
 2201TIP3   OH228161   2.233   5.311   0.142  0.7170 -0.3207 -0.0596
 2201TIP3    H128162   2.188   5.236   0.103  1.7908 -1.3479  0.5941
 2201TIP3    H228163   2.210   5.385   0.086  0.4652 -1.3464 -1.3555
 2202TIP3   OH228164   6.646   0.977   7.342  0.4634  0.1366 -0.5918
 2202TIP3    H128165   6.672   1.064   7.310  2.7522 -0.1551  0.3182
 2202TIP3    H228166   6.656   0.982   7.437  1.1545 -1.2630 -0.5643
 2203TIP3   OH228167   0.871   5.883   1.823  0.5826 -0.4692  0.3077
 2203TIP3    H128168   0.913   5.855   1.904  1.8388  0.6964  0.0840
 2203TIP3    H228169   0.843   5.973   1.839 -1.8318 -1.1407  0.4044
 2204TIP3   OH228170   0.812   1.706   0.941 -0.3214  0.2251  0.5978
 2204TIP3    H128171   0.896   1.698   0.986  0.4049  1.0603 -0.5236
 2204TIP3    H228172   0.804   1.800   0.922 -1.2352  0.0784  0.2069
 2205TIP3   OH228173   3.330   5.322   1.578 -0.6714  0.1877 -0.3438
 2205TIP3    H128174   3.349   5.416   1.583  0.0022  0.1247 -1.3839
 2205TIP3    H228175   3.249   5.316   1.527 -0.8986  0.2098  0.0078
 2206TIP3   OH228176   4.007   1.918   0.973  0.1860 -0.3209  0.5258
 2206TIP3    H128177   3.981   1.826   0.982 -0.9905 -0.2760 -1.7445
 2206TIP3    H228178   3.925   1.964   0.955  0.8875  1.0388  0.7350
 2207TIP3   OH228179   1.391   4.828   8.198 -0.0467  0.1172  0.1523
 2207TIP3    H128180   1.312   4.846   8.250 -0.3148  1.2140 -0.6149
 2207TIP3    H228181   1.392   4.896   8.131  0.4566 -1.0848 -1.1126
 2208TIP3   OH228182   6.589   5.470   8.191 -0.2518 -0.5151  0.2490
 2208TIP3    H128183   6.567   5.555   8.228  2.7892  0.8114 -0.6706
 2208TIP3    H228184   6.512   5.444   8.140 -1.0398  1.9536  0.0829
 2209TIP3   OH228185   6.273   3.759   8.012  0.1868 -0.3517 -0.0132
 2209TIP3    H128186   6.329   3.691   8.049  2.8775  1.2293 -0.8740
 2209TIP3    H228187   6.288   3.754   7.918  1.0710  1.8200 -0.0547
 2210TIP3   OH228188   0.745   2.386   0.430 -0.5515  0.0729  0.1954
 2210TIP3    H128189   0.719   2.294   0.437 -0.6538 -0.0762 -1.6815
 2210TIP3    H228190   0.834   2.389   0.466 -0.5956 -0.7150  0.3818
 2211TIP3   OH228191   0.360   3.053   2.436  0.2317  0.3228 -0.3758
 2211TIP3    H128192   0.430   3.041   2.500  0.2078  2.5561  0.1394
 2211TIP3    H228193   0.287   3.089   2.487 -0.5628  0.0107 -1.2763
 2212TIP3   OH228194   2.283   1.370   2.561  0.1860  0.0132  0.6717
 2212TIP3    H128195   2.353   1.346   2.621 -0.1824 -1.3212  0.5984
 2212TIP3    H228196   2.204   1.331   2.599  0.1230 -1.8764 -1.2115
 2213TIP3   OH228197   1.412   1.507   8.400  0.0526  0.2718  0.0544
 2213TIP3    H128198   1.443   1.437   8.458 -1.2171 -0.1366  0.2698
 2213TIP3    H228199   1.366   1.460   8.330  1.2653  0.7744 -1.1390
 2214TIP3   OH228200   2.082   1.120   2.480 -0.5789 -0.2314  0.4024
 2214TIP3    H128201   2.082   1.033   2.442  0.0570 -0.0771  0.0257
 2214TIP3    H228202   2.008   1.120   2.542  1.5032 -2.2498  3.1697
 2215TIP3   OH228203   1.174   0.875   7.364  0.6203 -0.3789  0.6870
 2215TIP3    H128204   1.110   0.915   7.423 -0.4575  0.6341 -1.0802
 2215TIP3    H228205   1.223   0.949   7.328 -0.8737 -0.6149 -2.0454
 2216TIP3   OH228206   4.525   1.139   2.153  0.3446 -0.6014  0.1612
 2216TIP3    H128207   4.593   1.200   2.183 -0.7812  0.2473  1.0792
 2216TIP3    H228208   4.573   1.071   2.107  1.6352  1.1334 -1.1965
 2217TIP3   OH228209   1.681   5.649   8.563 -0.2882  0.1334 -0.0803
 2217TIP3    H128210   1.769   5.658   8.600 -0.0533 -0.2028 -0.5501
 2217TIP3    H228211   1.678   5.715   8.494 -0.8338  0.9743  0.7224
 2218TIP3   OH228212   4.204   4.255   2.808 -0.5506 -0.0776 -0.3653
 2218TIP3    H128213   4.189   4.201   2.887 -0.3594 -0.1826 -0.4015
 2218TIP3    H228214   4.152   4.212   2.740  1.7083 -1.8343 -1.0972
 2219TIP3   OH228215   6.806   1.328   0.174 -0.0176  0.1490  0.5257
 2219TIP3    H128216   6.862   1.380   0.232 -1.3085  1.8557  0.3307
 2219TIP3    H228217   6.812   1.372   0.089  0.0625 -0.9638 -0.0544
 2220TIP3   OH228218   1.645   2.771   8.157  0.1027 -0.2701 -0.0992
 2220TIP3    H128219   1.594   2.847   8.182 -0.0684 -0.1233 -0.8720
 2220TIP3    H228220   1.733   2.805   8.139 -0.0478 -0.1941 -0.7346
 2221TIP3   OH228221   5.430   2.089   1.743  0.0675 -0.2764 -0.4548
 2221TIP3    H128222   5.363   2.146   1.780  0.2491 -0.3728  0.0197
 2221TIP3    H228223   5.499   2.150   1.713  0.1793 -0.2369 -0.1150
 2222TIP3   OH228224   2.794   2.124   0.341  0.0346  0.2111  0.7214
 2222TIP3    H128225   2.810   2.064   0.269  2.7410 -1.3918  2.4920
 2222TIP3    H228226   2.699   2.119   0.355 -0.3087 -0.8006 -1.5214
 2223TIP3   OH228227   4.155   4.088   8.285 -0.1102  0.0093  1.0187
 2223TIP3    H128228   4.241   4.082   8.242  0.3482 -0.2963  1.9525
 2223TIP3    H228229   4.137   4.182   8.289 -0.9206  0.0278 -1.2512
 2224TIP3   OH228230   2.942   6.197   8.140  0.4190 -0.5543  0.3014
 2224TIP3    H128231   3.018   6.167   8.089  1.6134 -1.1386  2.2931
 2224TIP3    H228232   2.981   6.246   8.213 -1.3329  3.1466 -1.0087
 2225TIP3   OH228233   5.486   3.245   8.348 -0.4445  0.4513  0.3987
 2225TIP3    H128234   5.557   3.221   8.289 -1.2832 -2.4410  0.4376
 2225TIP3    H228235   5.406   3.237   8.294 -1.1336 -1.3051  1.5986
 2226TIP3   OH228236   1.361   5.825   1.304  0.1692  0.1666 -0.3429
 2226TIP3    H128237   1.401   5.830   1.217 -0.2086  2.1065 -0.4675
 2226TIP3    H228238   1.269   5.805   1.286  0.3360 -0.6895 -0.2880
 2227TIP3   OH228239   4.130   2.343   1.402  0.4231  0.0519 -0.4829
 2227TIP3    H128240   4.126   2.414   1.338  1.2518 -0.3512 -0.9999
 2227TIP3    H228241   4.223   2.335   1.423  0.4420 -1.3149 -0.9521
 2228TIP3   OH228242   1.675   1.092   0.008  0.1973  0.0106  0.0759
 2228TIP3    H128243   1.723   1.084  -0.074  0.5835  1.7784  0.0906
 2228TIP3    H228244   1.726   1.154   0.060 -1.3981  0.9176  0.6291
 2229TIP3   OH228245   5.594   6.783   7.186 -0.0862 -0.4313  0.4646
 2229TIP3    H128246   5.688   6.794   7.200 -0.0638 -0.2239  0.1753
 2229TIP3    H228247   5.554   6.854   7.236 -0.1032 -0.6580  0.7739
 2230TIP3   OH228248   0.008   2.696   0.651 -0.2839 -0.0777 -0.0497
 2230TIP3    H128249   0.007   2.733   0.739  0.9303 -2.8004  1.1949
 2230TIP3    H228250   0.086   2.733   0.610 -1.2117  1.7256 -0.3057
 2231TIP3   OH228251   6.164   1.828   8.542  0.0316 -0.1178  0.1538
 2231TIP3    H128252   6.096   1.761   8.553 -0.2007 -0.2998 -2.0462
 2231TIP3    H228253   6.213   1.826   8.625 -0.3166 -2.6082  0.3667
 2232TIP3   OH228254   4.634   5.715   2.264  0.1527  0.3855  0.1351
 2232TIP3    H128255   4.551   5.671   2.282  0.1652  0.9844  1.8310
 2232TIP3    H228256   4.624   5.749   2.175 -0.7988 -0.8924 -0.2807
 2233TIP3   OH228257   1.963   6.339   0.679  0.1335  0.1999 -0.0389
 2233TIP3    H128258   2.037   6.384   0.720  0.4870 -0.4540  0.0572
 2233TIP3    H228259   1.970   6.248   0.710  0.2009 -0.2276 -1.2481
 2234TIP3   OH228260   5.730   1.743   1.926  0.2360  0.8844 -0.2160
 2234TIP3    H128261   5.657   1.709   1.978  0.8977  1.3939  1.0604
 2234TIP3    H228262   5.688   1.779   1.848 -0.6803 -0.8899 -0.6173
 2235TIP3   OH228263   5.363   5.617   6.913 -0.9468  0.1652 -0.6494
 2235TIP3    H128264   5.383   5.578   6.998 -1.5966 -0.8189 -0.9267
 2235TIP3    H228265   5.419   5.695   6.909 -2.4220  1.4619  1.5683
 2236TIP3   OH228266   3.116   2.092   0.386 -0.2133  0.3944  0.2855
 2236TIP3    H128267   3.087   2.065   0.299  0.5105  2.8002 -0.7990
 2236TIP3    H228268   3.111   2.013   0.439 -3.2064 -0.5914 -1.2491
 2237TIP3   OH228269   2.390   6.840   7.680 -0.0833 -0.0371  0.1322
 2237TIP3    H128270   2.385   6.930   7.646 -1.6065 -0.9171 -2.2098
 2237TIP3    H228271   2.401   6.851   7.775  0.2416  2.6012 -0.1359
 2238TIP3   OH228272   3.284   1.905   7.966 -0.1052  0.2605 -0.0407
 2238TIP3    H128273   3.364   1.879   8.013  0.7417  0.4257 -1.3211
 2238TIP3    H228274   3.251   1.980   8.015  0.7159  0.3853  0.3506
 2239TIP3   OH228275   3.279   0.218   1.105 -0.0247 -0.0775 -0.2581
 2239TIP3    H128276   3.207   0.160   1.128 -0.5684  0.2079 -1.1819
 2239TIP3    H228277   3.252   0.259   1.023  2.0245 -1.3965 -1.6995
 2240TIP3   OH228278   4.480   6.390   7.851  0.6953  0.2788 -0.3017
 2240TIP3    H128279   4.394   6.374   7.891  1.1323 -0.7608  0.2562
 2240TIP3    H228280   4.468   6.471   7.800 -0.6640  0.0416 -0.3966
 2241TIP3   OH228281   1.466   0.598   2.224 -0.2317 -0.3600 -0.1264
 2241TIP3    H128282   1.395   0.581   2.285 -0.2302  0.1508  0.0209
 2241TIP3    H228283   1.475   0.517   2.175  0.3627 -1.1089  1.1557
 2242TIP3   OH228284   3.135   5.431   1.879  0.0740  0.4014  0.5064
 2242TIP3    H128285   3.143   5.490   1.954 -0.5833  0.5712  0.4449
 2242TIP3    H228286   3.144   5.489   1.803  0.8245  0.2175  0.4466
 2243TIP3   OH228287   4.961   5.147   7.791 -0.0258 -0.3856  0.2700
 2243TIP3    H128288   4.914   5.205   7.731  0.1046 -0.3934  0.1604
 2243TIP3    H228289   4.944   5.185   7.878 -1.0855 -0.9808  0.3417
 2244TIP3   OH228290   4.775   2.815   0.488 -0.5887 -0.9186  0.1588
 2244TIP3    H128291   4.716   2.751   0.446 -2.6593  1.3336 -0.6409
 2244TIP3    H228292   4.718   2.890   0.506  1.1192 -0.2773  3.5436
 2245TIP3   OH228293   1.605   4.663   7.947  0.4248 -0.0495  0.6038
 2245TIP3    H128294   1.639   4.738   7.995  0.4827  1.6247 -1.8642
 2245TIP3    H228295   1.529   4.697   7.900  1.8035 -0.8218 -2.4178
 2246TIP3   OH228296   4.211   2.336   1.797  0.0187 -0.2106  0.4878
 2246TIP3    H128297   4.117   2.329   1.808 -0.1057 -1.4060 -0.9376
 2246TIP3    H228298   4.222   2.398   1.725  0.1485 -1.8370 -0.9793
 2247TIP3   OH228299   0.088   5.847   7.959 -0.0121  0.2019  0.4203
 2247TIP3    H128300   0.049   5.837   8.046 -0.7852  0.4195  0.1033
 2247TIP3    H228301   0.170   5.797   7.964 -0.9230 -1.3167  0.7198
 2248TIP3   OH228302   0.561   5.517   7.019 -0.4338  0.5621 -0.7569
 2248TIP3    H128303   0.624   5.549   6.954  0.1982  2.0583  0.5156
 2248TIP3    H228304   0.504   5.592   7.035  0.6644  0.9420  1.8316
 2249TIP3   OH228305   2.238   3.568   0.912 -0.0942  0.8563  0.3456
 2249TIP3    H128306   2.153   3.529   0.934 -0.6208  2.1180  0.6059
 2249TIP3    H228307   2.279   3.585   0.997  1.0375 -0.9922  0.2224
 2250TIP3   OH228308   0.588   2.656   8.030  0.3875 -0.7869 -0.2395
 2250TIP3    H128309   0.525   2.589   8.002  0.0371  0.2582 -2.1250
 2250TIP3    H228310   0.543   2.705   8.098  0.0384 -1.4647  0.0274
 2251TIP3   OH228311   6.451   5.913   8.634  0.0506 -0.2103  0.1116
 2251TIP3    H128312   6.525   5.862   8.667 -0.6952 -0.8441  0.8400
 2251TIP3    H228313   6.381   5.897   8.697 -0.9868 -0.3324 -1.0548
 2252TIP3   OH228314   6.005   0.059   0.768 -0.0378 -0.2129 -0.1221
 2252TIP3    H128315   5.946   0.032   0.697  0.4137  1.4156 -1.1848
 2252TIP3    H228316   6.093   0.043   0.733  0.1912 -1.2618  0.8813
 2253TIP3   OH228317   5.952   0.226   7.388  0.3390 -0.1025 -0.1153
 2253TIP3    H128318   6.043   0.198   7.375 -0.3576 -2.4705 -0.2601
 2253TIP3    H228319   5.899   0.154   7.354 -1.6173  1.1430  0.1320
 2254TIP3   OH228320   4.014   1.341   7.343  0.4239 -0.9362 -0.8337
 2254TIP3    H128321   4.100   1.307   7.370  0.7016 -0.4452 -1.0790
 2254TIP3    H228322   4.032   1.384   7.260  0.1801  0.2606 -0.2793
 2255TIP3   OH228323   2.478   5.177   2.051 -0.5823  0.4004  0.1379
 2255TIP3    H128324   2.423   5.099   2.050  1.7050 -1.4037 -2.8427
 2255TIP3    H228325   2.514   5.180   2.139 -2.8108 -0.2334  1.1477
 2256TIP3   OH228326   2.910   1.615   1.310 -0.1698 -0.0734  0.3943
 2256TIP3    H128327   2.906   1.521   1.289  1.7280 -0.2221  0.5164
 2256TIP3    H228328   3.004   1.636   1.308 -0.6528  2.4589 -2.2704
 2257TIP3   OH228329   6.053   6.462   1.987  0.1877 -0.0009  0.3427
 2257TIP3    H128330   5.970   6.451   1.941 -0.0134  0.8523  0.5031
 2257TIP3    H228331   6.106   6.517   1.929 -0.4342  1.9538  1.5632
 2258TIP3   OH228332   6.817   6.838   2.184 -0.3050 -0.5137  0.1434
 2258TIP3    H128333   6.848   6.773   2.247  0.0143 -0.9446 -0.4406
 2258TIP3    H228334   6.787   6.911   2.237 -1.8525 -1.6253  0.8895
 2259TIP3   OH228335   4.462   2.736   2.441 -0.1664 -0.6767  0.2600
 2259TIP3    H128336   4.393   2.745   2.375 -0.5988 -1.6186  0.5591
 2259TIP3    H228337   4.418   2.752   2.524 -0.1891 -1.8786  0.5039
 2260TIP3   OH228338   0.901   6.671   8.485  0.1687 -0.4350  0.3625
 2260TIP3    H128339   0.879   6.660   8.393  1.2033 -0.8993  0.1573
 2260TIP3    H228340   0.902   6.582   8.521  0.4418 -0.3126  0.6634
 2261TIP3   OH228341   1.057   6.395   2.297  0.2973 -0.0822 -0.0663
 2261TIP3    H128342   1.115   6.470   2.286 -0.4532  0.5589  0.2103
 2261TIP3    H228343   1.039   6.392   2.391  0.3939 -0.6780 -0.0585
 2262TIP3   OH228344   2.067   1.902   7.256 -0.0992  0.0166  1.0520
 2262TIP3    H128345   1.980   1.923   7.222  0.7935  1.7884 -0.3859
 2262TIP3    H228346   2.081   1.810   7.232 -0.2262  0.6778 -2.0965
 2263TIP3   OH228347   2.557   1.679   0.591 -0.7599 -0.3551 -0.3243
 2263TIP3    H128348   2.494   1.642   0.529 -2.1768 -0.7973  1.3020
 2263TIP3    H228349   2.603   1.603   0.627 -0.0244 -0.1122 -0.7418
 2264TIP3   OH228350   3.584   4.370   0.944  0.1266 -0.0517  0.9033
 2264TIP3    H128351   3.621   4.282   0.954  0.7898  0.1906  0.6494
 2264TIP3    H228352   3.559   4.395   1.033 -0.1278 -0.5208  0.9674
 2265TIP3   OH228353   1.927   3.847   2.250  0.0958  0.3098 -0.0488
 2265TIP3    H128354   1.962   3.899   2.322  0.0293 -0.4662  0.5585
 2265TIP3    H228355   1.952   3.757   2.271 -2.6762 -0.3866  0.7179
 2266TIP3   OH228356   4.380   6.598   7.402 -0.1860 -0.2653 -0.8727
 2266TIP3    H128357   4.457   6.551   7.370 -0.0822  0.4721 -1.7372
 2266TIP3    H228358   4.354   6.654   7.330 -0.3197  1.0148  0.1370
 2267TIP3   OH228359   4.130   4.313   0.360  0.5684  0.7318 -0.0221
 2267TIP3    H128360   4.148   4.254   0.434  0.7391  0.0448 -0.5971
 2267TIP3    H228361   4.044   4.284   0.327  0.8351  0.5343 -0.5552
 2268TIP3   OH228362   3.923   3.125   7.889 -0.2062  0.1418  0.2962
 2268TIP3    H128363   3.889   3.214   7.898 -0.0623  0.2273 -0.0024
 2268TIP3    H228364   3.927   3.110   7.794 -1.0428 -0.4932  0.3443
 2269TIP3   OH228365   5.020   5.664   7.346 -0.2558  0.4248 -0.4564
 2269TIP3    H128366   4.992   5.636   7.259  0.8607  0.9425 -1.0041
 2269TIP3    H228367   5.058   5.751   7.332  0.4042  0.3040  0.4545
 2270TIP3   OH228368   3.966   6.057   8.310  0.0529 -0.2243 -0.1525
 2270TIP3    H128369   3.895   6.109   8.272 -0.8643  0.1545  1.9335
 2270TIP3    H228370   3.953   5.969   8.274 -0.9787  0.0337 -0.4479
 2271TIP3   OH228371   0.638   6.507   7.368 -0.4661 -0.0288  0.5735
 2271TIP3    H128372   0.618   6.477   7.280  0.2115 -0.1528  0.4530
 2271TIP3    H228373   0.714   6.455   7.395 -0.6228  0.0535  1.2042
 2272TIP3   OH228374   0.127   1.235   7.987  0.2406 -0.5937  0.4685
 2272TIP3    H128375   0.217   1.266   8.000  0.6262 -0.6463 -1.7263
 2272TIP3    H228376   0.074   1.314   7.991  0.7044 -0.1995 -0.7011
 2273TIP3   OH228377   0.946   0.491   0.663 -0.1077  0.2402  0.4739
 2273TIP3    H128378   0.874   0.430   0.647 -2.1122  2.2284  1.2828
 2273TIP3    H228379   0.973   0.474   0.753 -1.9212  1.6356  1.3538
 2274TIP3   OH228380   6.446   6.181   0.124  0.5148  0.4871  0.1183
 2274TIP3    H128381   6.463   6.120   0.195 -2.1378  1.3469  1.6227
 2274TIP3    H228382   6.429   6.125   0.048 -1.1156 -0.6928  1.2886
 2275TIP3   OH228383   0.033   3.041   2.003  0.1537 -0.0666 -0.3102
 2275TIP3    H128384   0.090   3.042   2.079  1.0809 -0.9581 -0.9580
 2275TIP3    H228385  -0.037   2.979   2.026 -0.4147  0.8128  0.3747
 2276TIP3   OH228386   6.762   0.539   1.820 -0.1012  0.4343 -0.3967
 2276TIP3    H128387   6.673   0.562   1.793 -0.4746 -0.1894  0.2781
 2276TIP3    H228388   6.763   0.443   1.821 -0.4047  0.3667  2.6242
 2277TIP3   OH228389   4.943   6.509   6.935 -0.1497 -0.3356  0.2584
 2277TIP3    H128390   4.954   6.597   6.899  0.4255 -0.2115  0.7242
 2277TIP3    H228391   4.857   6.482   6.905  0.3975 -0.3227 -1.3851
 2278TIP3   OH228392   6.683   0.865   1.597 -0.0506  0.0378 -0.1509
 2278TIP3    H128393   6.734   0.790   1.567 -1.4922 -1.2087  0.3782
 2278TIP3    H228394   6.669   0.918   1.519  1.6107  0.1698 -0.3876
 2279TIP3   OH228395   6.563   2.139   0.812 -0.6141  0.5239 -0.0144
 2279TIP3    H128396   6.571   2.055   0.767 -0.4052  0.7874 -0.4749
 2279TIP3    H228397   6.556   2.203   0.741 -0.9972  0.8727  0.3350
 2280TIP3   OH228398   1.661   0.888   3.176  0.0418 -0.7181  0.7010
 2280TIP3    H128399   1.712   0.858   3.252  0.3632 -0.6040  0.5340
 2280TIP3    H228400   1.704   0.847   3.101  0.0303 -0.4332  0.5365
 2281TIP3   OH228401   2.812   6.521   0.415  0.6635  0.2029 -0.0002
 2281TIP3    H128402   2.735   6.469   0.394  0.8823 -0.2553  0.3029
 2281TIP3    H228403   2.782   6.612   0.412 -0.2163 -0.0000  1.3725
 2282TIP3   OH228404   2.108   4.256   8.071 -0.5221 -0.1322 -0.1981
 2282TIP3    H128405   2.032   4.200   8.087 -0.4193  0.2918  2.1974
 2282TIP3    H228406   2.114   4.311   8.149  2.7987 -0.7779  0.1666
 2283TIP3   OH228407   6.372   2.609   8.560 -0.3452 -0.3005 -0.0531
 2283TIP3    H128408   6.300   2.563   8.602 -0.5612 -1.3481 -1.4840
 2283TIP3    H228409   6.449   2.588   8.614 -0.8626 -0.2951  0.6974
 2284TIP3   OH228410   5.210   0.926   1.533 -0.3506 -0.0135  0.0381
 2284TIP3    H128411   5.164   0.976   1.466 -0.3226  1.5301  1.1112
 2284TIP3    H228412   5.220   0.988   1.606  1.6909 -0.8917  0.5719
 2285TIP3   OH228413   5.613   6.434   8.672  0.1465 -0.2921 -0.2181
 2285TIP3    H128414   5.534   6.380   8.676 -0.8079  0.9310 -1.6300
 2285TIP3    H228415   5.610   6.485   8.753 -1.1292  0.5082 -0.7247
 2286TIP3   OH228416   3.062   2.111   1.013  0.2227 -0.3808 -0.2700
 2286TIP3    H128417   3.054   2.016   0.999 -0.7385 -0.1067 -1.7255
 2286TIP3    H228418   3.036   2.124   1.104 -0.2589 -1.4431 -0.2406
 2287TIP3   OH228419   1.767   1.286   7.169 -0.1000  0.0319 -0.1353
 2287TIP3    H128420   1.704   1.231   7.123 -0.3236 -1.0785  1.4130
 2287TIP3    H228421   1.846   1.232   7.176  0.2239  0.5179  0.0162
 2288TIP3   OH228422   3.068   4.806   1.351  0.4429 -0.2156 -0.4119
 2288TIP3    H128423   2.985   4.845   1.321  1.2635  1.0180 -1.1470
 2288TIP3    H228424   3.041   4.739   1.415 -1.0870  0.6250 -0.1224
 2289TIP3   OH228425   5.787   2.416   1.288 -0.7163  0.2153 -0.0802
 2289TIP3    H128426   5.865   2.398   1.340 -0.9311  2.0453  0.9632
 2289TIP3    H228427   5.720   2.358   1.325 -0.0571 -0.8291 -0.4910
 2290TIP3   OH228428   4.033   2.678   0.936 -0.5976  0.2825  0.0906
 2290TIP3    H128429   4.101   2.620   0.901  0.3215  1.3045  0.1276
 2290TIP3    H228430   3.971   2.689   0.864  0.5888  1.3110 -0.8300
 2291TIP3   OH228431   5.457   4.846   1.605  0.0498 -0.8917  0.0009
 2291TIP3    H128432   5.521   4.893   1.658 -0.4716 -1.9036  1.5765
 2291TIP3    H228433   5.372   4.872   1.641 -0.2910 -2.0403  0.0585
 2292TIP3   OH228434   0.929   3.464   2.020 -0.0844 -0.0317 -0.1167
 2292TIP3    H128435   0.917   3.384   2.071 -0.0322 -0.4518 -0.7553
 2292TIP3    H228436   0.841   3.491   1.996 -0.1435  0.4632  0.6421
 2293TIP3   OH228437   3.837   1.480   0.805 -0.2695  0.2973  0.7234
 2293TIP3    H128438   3.921   1.442   0.830 -0.3793  0.8405  1.9581
 2293TIP3    H228439   3.860   1.563   0.763 -0.1102 -0.4265 -0.6962
 2294TIP3   OH228440   0.745   0.679   0.232  0.1373  0.1874  0.2881
 2294TIP3    H128441   0.748   0.682   0.136 -0.2732  0.8534  0.2859
 2294TIP3    H228442   0.774   0.591   0.254 -0.2941 -0.1608 -0.4713
 2295TIP3   OH228443   3.432   2.245   8.263 -0.8107  0.2113  0.5029
 2295TIP3    H128444   3.455   2.239   8.355 -2.7930  1.8500  1.1793
 2295TIP3    H228445   3.475   2.326   8.233  1.0644 -1.0735 -0.4759
 2296TIP3   OH228446   1.843   2.310   6.986 -0.2048  0.0078 -0.1579
 2296TIP3    H128447   1.931   2.340   6.962 -0.2790 -0.5190 -1.1784
 2296TIP3    H228448   1.786   2.351   6.922 -0.5363 -0.7032 -0.3311
 2297TIP3   OH228449   1.021   6.577   7.637  0.0855  0.8448  0.1777
 2297TIP3    H128450   0.942   6.607   7.592 -2.4021 -0.9774  2.9726
 2297TIP3    H228451   1.048   6.650   7.692  0.4964  1.5236 -0.8935
 2298TIP3   OH228452   3.113   4.378   0.207  0.0028 -0.4483 -0.0049
 2298TIP3    H128453   3.080   4.362   0.296  2.3233  0.2731  1.0727
 2298TIP3    H228454   3.205   4.351   0.211 -0.4168 -2.8475 -2.9744
 2299TIP3   OH228455   4.237   2.711   2.295  0.7373 -0.2901 -0.1828
 2299TIP3    H128456   4.214   2.709   2.202 -1.0374  1.2212  0.1629
 2299TIP3    H228457   4.168   2.764   2.335  0.3942 -2.4553  2.3078
 2300TIP3   OH228458   2.789   4.353   0.682 -0.1609 -0.5088  0.1926
 2300TIP3    H128459   2.739   4.390   0.755  1.1824  0.6526  0.5748
 2300TIP3    H228460   2.739   4.379   0.604 -0.1807  0.6302  0.5565
 2301TIP3   OH228461   6.697   1.664   7.527 -0.1924 -0.1394  0.2931
 2301TIP3    H128462   6.709   1.758   7.522 -0.5711  0.0406  2.2994
 2301TIP3    H228463   6.647   1.642   7.448  0.1207  1.2674 -0.3301
 2302TIP3   OH228464   5.566   0.138   7.422 -1.0962 -0.2020 -0.1187
 2302TIP3    H128465   5.568   0.192   7.343  1.3960  0.2930  0.2105
 2302TIP3    H228466   5.503   0.182   7.479 -0.4661  1.3443 -0.5714
 2303TIP3   OH228467   1.997   1.927   0.097  0.3733 -0.1702  0.0459
 2303TIP3    H128468   1.965   1.854   0.045  0.5413  0.6561 -1.2511
 2303TIP3    H228469   1.985   1.899   0.188  1.3367 -2.2044 -0.3996
 2304TIP3   OH228470   0.673   1.088   0.405 -0.1263 -0.0054  0.8411
 2304TIP3    H128471   0.581   1.110   0.397 -0.3480 -0.4762  1.9998
 2304TIP3    H228472   0.701   1.131   0.486  0.2059 -1.3715  1.4682
 2305TIP3   OH228473   1.128   0.001   8.238  0.2795 -0.5751  0.6100
 2305TIP3    H128474   1.131  -0.040   8.325 -1.5597  0.8754  1.4304
 2305TIP3    H228475   1.048  -0.032   8.198 -0.4039  0.9405  0.6583
 2306TIP3   OH228476   4.167   1.445   0.292 -0.2489 -0.6549 -0.3394
 2306TIP3    H128477   4.204   1.387   0.226  0.8968 -0.9627  0.5295
 2306TIP3    H228478   4.205   1.531   0.273 -0.1464 -0.6838 -0.2710
 2307TIP3   OH228479   2.954   0.674   1.851 -0.9003  0.1516  0.1789
 2307TIP3    H128480   2.876   0.619   1.853 -1.4752  0.9508  0.1789
 2307TIP3    H228481   2.921   0.763   1.865 -0.1425  0.6543 -1.0333
 2308TIP3   OH228482   5.667   3.076   2.675 -0.1366  0.0261  0.7641
 2308TIP3    H128483   5.657   3.119   2.760 -0.8020  1.1454  0.1400
 2308TIP3    H228484   5.586   3.027   2.664 -0.3488  0.4486  0.4591
 2309TIP3   OH228485   4.223   1.738   0.203  0.2578 -0.0682  0.5345
 2309TIP3    H128486   4.315   1.765   0.201 -0.0112  0.8485 -0.1610
 2309TIP3    H228487   4.212   1.684   0.125 -0.1979  1.2859 -0.3785
 2310TIP3   OH228488   4.284   1.053   1.861  0.2403  0.0181  0.4528
 2310TIP3    H128489   4.317   1.125   1.806 -0.9331  0.4896  0.3353
 2310TIP3    H228490   4.235   1.097   1.931 -0.6802 -0.6557  0.2533
 2311TIP3   OH228491   5.066   1.576   8.141  0.2877  0.9402  0.3929
 2311TIP3    H128492   5.083   1.492   8.097  1.2583  1.1008  0.4500
 2311TIP3    H228493   5.125   1.576   8.216  0.3011  1.6853  0.3833
 2312TIP3   OH228494   0.009   5.839   0.323 -0.0056  0.1975 -0.2537
 2312TIP3    H128495  -0.038   5.763   0.291  0.8313 -0.1015 -0.8167
 2312TIP3    H228496   0.082   5.803   0.374  0.0232  0.6327  0.0212
 2313TIP3   OH228497   3.306   4.648   2.533 -0.6972  0.3084  0.0916
 2313TIP3    H128498   3.285   4.613   2.619  0.0387  0.4275  0.3170
 2313TIP3    H228499   3.383   4.702   2.546 -1.3104  1.3442 -0.4168
 2314TIP3   OH228500   2.849   6.482   0.696  0.0149  0.4134  0.0323
 2314TIP3    H128501   2.833   6.564   0.744  1.8237  0.5953  0.3968
 2314TIP3    H228502   2.882   6.510   0.611 -0.9264  0.0537 -0.4704
 2315TIP3   OH228503   4.380   3.456   1.830  0.2242 -0.1105 -0.4238
 2315TIP3    H128504   4.287   3.451   1.849  0.4797  2.0763  1.9635
 2315TIP3    H228505   4.423   3.424   1.909  1.5326 -0.0233 -1.0568
 2316TIP3   OH228506   6.632   3.193   1.224 -0.2226  0.0199 -0.3448
 2316TIP3    H128507   6.674   3.252   1.162  0.1386 -0.3284 -0.4315
 2316TIP3    H228508   6.591   3.251   1.289  0.3125  0.3597 -0.3065
 2317TIP3   OH228509   4.791   4.383   7.733 -0.0260  0.9896 -0.6415
 2317TIP3    H128510   4.797   4.461   7.677 -1.8385  1.5895 -0.0388
 2317TIP3    H228511   4.721   4.402   7.795  1.5393  0.1163  1.5403
 2318TIP3   OH228512   2.552   1.454   1.269  0.0863 -0.1623 -0.1856
 2318TIP3    H128513   2.497   1.389   1.311 -0.7831  0.0887 -0.9091
 2318TIP3    H228514   2.618   1.476   1.334  1.3484 -2.8682 -0.4280
 2319TIP3   OH228515   6.146   1.572   0.834  0.4320  0.2200  0.2425
 2319TIP3    H128516   6.126   1.637   0.902  0.6854 -0.0108  0.5394
 2319TIP3    H228517   6.222   1.608   0.788  0.8001 -0.0408  0.6437
 2320TIP3   OH228518   4.001   6.001   8.563 -0.5719 -0.2372 -0.0450
 2320TIP3    H128519   3.989   6.031   8.473 -0.1654  0.4433  0.1207
 2320TIP3    H228520   3.919   6.025   8.607  0.8860  3.8246  0.9240
 2321TIP3   OH228521   6.576   5.845   1.727  0.1634  0.4733 -0.6611
 2321TIP3    H128522   6.607   5.802   1.807  0.2029 -0.3013 -1.0907
 2321TIP3    H228523   6.503   5.900   1.757 -0.7041 -0.8340 -0.2817
 2322TIP3   OH228524   0.523   3.404   7.689  0.6616 -0.3781  0.1585
 2322TIP3    H128525   0.488   3.320   7.657  1.0872  0.1655 -1.8597
 2322TIP3    H228526   0.614   3.405   7.659  0.7052  0.7309  0.2980
 2323TIP3   OH228527   2.403   4.561   8.679 -0.1657  0.4384  0.0982
 2323TIP3    H128528   2.310   4.542   8.668  0.0198 -0.1620 -0.5376
 2323TIP3    H228529   2.437   4.563   8.590  0.6497 -0.5303  0.3679
 2324TIP3   OH228530   4.315   1.848   2.626  0.4286 -0.3368  0.3556
 2324TIP3    H128531   4.270   1.839   2.710 -0.4489  1.0634  0.0762
 2324TIP3    H228532   4.274   1.783   2.569  1.1702 -1.4394  1.0274
 2325TIP3   OH228533   6.077   1.808   2.156 -0.1808 -0.0653 -0.3417
 2325TIP3    H128534   6.133   1.879   2.126 -2.4247  1.8897 -0.2008
 2325TIP3    H228535   6.113   1.784   2.241  1.4757 -0.1249 -1.0284
 2326TIP3   OH228536   3.646   0.029   1.329 -0.1372 -0.3340  0.5307
 2326TIP3    H128537   3.609   0.080   1.257 -1.2131 -1.3955  0.3054
 2326TIP3    H228538   3.657  -0.059   1.293 -0.4205 -0.8090  1.5748
 2327TIP3   OH228539   2.052   5.885   2.336 -0.0928 -0.2851 -0.3978
 2327TIP3    H128540   1.979   5.906   2.279  0.4114  3.4785  0.0577
 2327TIP3    H228541   2.024   5.914   2.423  2.0573  1.9908 -0.3339
 2328TIP3   OH228542   3.488   1.723   7.629 -0.6020 -0.3462 -0.0198
 2328TIP3    H128543   3.528   1.650   7.676  2.6337  0.5878 -1.0537
 2328TIP3    H228544   3.435   1.680   7.561 -0.1721 -1.7122  0.4649
 2329TIP3   OH228545   2.448   0.933   6.876 -0.1890 -0.0407  0.2167
 2329TIP3    H128546   2.474   1.003   6.936  1.1905 -0.4400  0.1180
 2329TIP3    H228547   2.421   0.979   6.796 -0.3925  0.4179  0.5447
 2330TIP3   OH228548   1.974   5.131   1.651  0.0637 -0.7538  0.0532
 2330TIP3    H128549   2.027   5.210   1.661 -1.8472  0.5252  0.5500
 2330TIP3    H228550   1.956   5.126   1.557  0.7315 -0.9871 -0.0675
 2331TIP3   OH228551   4.908   4.477   8.039 -0.3278  0.2898 -0.1306
 2331TIP3    H128552   4.982   4.524   8.077  0.1036 -0.3807 -0.1281
 2331TIP3    H228553   4.947   4.417   7.975 -0.9934  0.9639 -1.1991
 2332TIP3   OH228554   6.637   0.295   0.848  0.1194 -0.4657 -0.0801
 2332TIP3    H128555   6.719   0.279   0.800  0.0499 -0.9262 -0.0564
 2332TIP3    H228556   6.588   0.213   0.839 -0.3345 -0.1965 -0.0815
 2333TIP3   OH228557   2.143   3.856   7.962 -0.5113 -0.3906 -0.1756
 2333TIP3    H128558   2.218   3.911   7.938 -0.8186 -0.4980 -1.4331
 2333TIP3    H228559   2.078   3.918   7.997 -0.1517 -0.1992  0.1596
 2334TIP3   OH228560   6.267   1.593   2.781  0.2433  0.3786  0.3677
 2334TIP3    H128561   6.186   1.645   2.780 -0.1112 -0.1102 -2.1850
 2334TIP3    H228562   6.240   1.507   2.812 -0.6318 -0.2912 -2.0828
 2335TIP3   OH228563   1.391   4.874   0.584 -0.1355 -1.1722 -0.0474
 2335TIP3    H128564   1.478   4.865   0.622  0.3533  3.4653  0.4905
 2335TIP3    H228565   1.393   4.820   0.505  3.4914 -0.7730 -0.3725
 2336TIP3   OH228566   6.494   4.442   7.530 -0.9171  0.1532 -0.1248
 2336TIP3    H128567   6.588   4.456   7.536 -1.2067  2.0308  0.7981
 2336TIP3    H228568   6.484   4.347   7.524  1.0310 -0.0619 -0.5352
 2337TIP3   OH228569   0.894   4.838   0.501  0.5810  0.6027 -0.1559
 2337TIP3    H128570   0.945   4.846   0.582  0.5445  2.8470 -0.2906
 2337TIP3    H228571   0.951   4.790   0.441  1.7428  1.2734  0.3592
 2338TIP3   OH228572   4.565   6.727   0.476  0.0721  0.3549  0.0948
 2338TIP3    H128573   4.575   6.634   0.455 -0.4468  0.6790 -1.8297
 2338TIP3    H228574   4.601   6.736   0.564  0.2660 -1.6345  0.2667
 2339TIP3   OH228575   0.296   4.874   2.983  0.3269 -0.0836  0.8369
 2339TIP3    H128576   0.351   4.945   3.014  2.3795 -1.7322  1.1756
 2339TIP3    H228577   0.295   4.811   3.055  0.5544 -1.4696 -0.3281
 2340TIP3   OH228578   5.136   1.738   0.405  0.0308 -0.4526  0.0960
 2340TIP3    H128579   5.131   1.660   0.460  0.0504 -0.6464 -0.1718
 2340TIP3    H228580   5.203   1.718   0.340 -0.7909 -0.6957 -0.7036
 2341TIP3   OH228581   5.975   0.768   2.028 -0.2100 -0.0513 -0.0019
 2341TIP3    H128582   5.916   0.695   2.011  0.8868 -0.6698 -1.3457
 2341TIP3    H228583   5.933   0.817   2.098 -1.0356 -1.9063  0.8682
 2342TIP3   OH228584   4.548   6.648   2.566 -0.4410  0.2938  0.1335
 2342TIP3    H128585   4.486   6.582   2.597  0.2303  0.4441  1.9582
 2342TIP3    H228586   4.496   6.726   2.550 -0.8520  0.1497  0.7520
 2343TIP3   OH228587   1.973   1.195   1.666 -0.1097  0.4119 -0.0182
 2343TIP3    H128588   1.962   1.257   1.737  0.1843  0.0521  0.3498
 2343TIP3    H228589   2.057   1.153   1.683 -0.7571 -0.8060  0.3148
 2344TIP3   OH228590   5.619   3.844   7.410 -0.3736 -0.6543 -0.0183
 2344TIP3    H128591   5.664   3.855   7.493 -0.9467  1.1708  0.0800
 2344TIP3    H228592   5.625   3.750   7.392  0.1665 -1.0125  1.8362
 2345TIP3   OH228593   2.902   3.416   0.682  0.3908 -0.0465  0.3157
 2345TIP3    H128594   2.870   3.505   0.696 -0.9830 -0.6701  1.3572
 2345TIP3    H228595   2.995   3.420   0.705 -0.1163  0.6807  2.4590
 2346TIP3   OH228596   1.568   4.392   0.443  0.4610 -0.5078 -0.3748
 2346TIP3    H128597   1.550   4.452   0.516 -2.3659  0.0304 -1.3956
 2346TIP3    H228598   1.607   4.315   0.484  1.1202  0.6895  1.3696
 2347TIP3   OH228599   5.136   3.639   0.136 -0.8357  0.1379  0.1616
 2347TIP3    H128600   5.062   3.596   0.095 -0.5113 -0.2261 -0.0444
 2347TIP3    H228601   5.150   3.591   0.217  0.0207 -0.6607 -0.4394
 2348TIP3   OH228602   3.223   0.416   2.549  0.2238 -0.4156  0.4715
 2348TIP3    H128603   3.139   0.408   2.594 -0.6359 -0.0113 -0.9815
 2348TIP3    H228604   3.261   0.498   2.583 -0.4949 -0.0165  0.3202
 2349TIP3   OH228605   3.074   5.368   2.410 -0.0310  0.0772  0.4285
 2349TIP3    H128606   3.126   5.289   2.401  1.1574  0.9305 -0.4193
 2349TIP3    H228607   2.985   5.341   2.389  0.3993 -0.9778 -0.0807
 2350TIP3   OH228608   4.595   1.288   0.904  0.0351 -0.1707  0.1080
 2350TIP3    H128609   4.605   1.274   0.998 -0.0751  0.2473  0.1837
 2350TIP3    H228610   4.573   1.201   0.869  1.8395 -0.7009  0.2028
 2351TIP3   OH228611   1.074   1.419   1.839 -0.0697 -0.4824  0.2537
 2351TIP3    H128612   1.161   1.454   1.861 -0.0505 -0.6368  0.4240
 2351TIP3    H228613   1.063   1.441   1.746  0.0866 -0.3256  0.2710
 2352TIP3   OH228614   3.351   1.537   7.066  0.4724 -0.6502  0.1476
 2352TIP3    H128615   3.271   1.560   7.114  0.5215 -0.2689  0.0490
 2352TIP3    H228616   3.402   1.617   7.064 -0.4942  0.0109 -2.4397
 2353TIP3   OH228617   1.145   2.477   0.742  1.0194 -0.1684 -0.1107
 2353TIP3    H128618   1.195   2.424   0.803  1.0097  0.0137  0.0557
 2353TIP3    H228619   1.201   2.554   0.726  0.3463  0.5492  0.8855
 2354TIP3   OH228620   2.484   6.272   2.055 -0.1659  0.0773 -0.1990
 2354TIP3    H128621   2.505   6.251   1.964  0.8513  1.9214 -0.4457
 2354TIP3    H228622   2.566   6.256   2.102 -0.9081 -1.6767  0.5956
 2355TIP3   OH228623   0.090   2.304   0.763 -0.0542  0.2600 -0.1505
 2355TIP3    H128624   0.103   2.325   0.856 -0.8682  0.6816 -0.1220
 2355TIP3    H228625   0.097   2.209   0.759 -0.8065  0.1608  0.4947
 2356TIP3   OH228626   0.609   0.033   1.624  0.4420 -0.3751 -0.0936
 2356TIP3    H128627   0.695  -0.009   1.612  1.3577  1.3033  0.3606
 2356TIP3    H228628   0.600   0.043   1.719  0.6567  1.2592 -0.2296
 2357TIP3   OH228629   5.003   0.088   2.037 -0.3201  0.1606  0.2051
 2357TIP3    H128630   5.087   0.134   2.034 -0.5135  0.7860  2.5216
 2357TIP3    H228631   5.025  -0.003   2.016  0.7442  0.5276 -0.3461
 2358TIP3   OH228632   6.341   6.689   7.759  0.2628 -0.0296  0.3415
 2358TIP3    H128633   6.348   6.777   7.796 -1.1761  0.5201 -0.5998
 2358TIP3    H228634   6.380   6.696   7.672 -1.3476  0.1367 -0.3953
 2359TIP3   OH228635   2.014   1.371   1.252  0.5467 -0.1461  0.6568
 2359TIP3    H128636   2.071   1.427   1.304  0.9210  1.1511 -1.0762
 2359TIP3    H228637   1.928   1.414   1.254  0.0775 -1.0805  1.6839
 2360TIP3   OH228638   3.822   3.717   0.942  0.2650 -0.2996  0.2767
 2360TIP3    H128639   3.770   3.794   0.918  1.6719  1.0380  1.3190
 2360TIP3    H228640   3.818   3.714   1.037  1.2976 -0.7283  0.3205
 2361TIP3   OH228641   5.780   6.628   2.112 -0.0637 -0.2608 -0.1198
 2361TIP3    H128642   5.803   6.606   2.022 -0.1930  3.1501 -1.1194
 2361TIP3    H228643   5.820   6.714   2.127  0.9305 -1.1660  3.5326
 2362TIP3   OH228644   6.476   2.595   1.683  0.0440  0.2421 -0.0354
 2362TIP3    H128645   6.477   2.691   1.681 -0.1610  0.2544 -1.6277
 2362TIP3    H228646   6.458   2.570   1.592 -0.3773 -1.3050  0.4392
 2363TIP3   OH228647   0.528   5.982   8.444  0.2377 -0.4616 -0.1608
 2363TIP3    H128648   0.504   5.897   8.479  0.2612 -0.0463  0.9107
 2363TIP3    H228649   0.623   5.980   8.437  0.1707 -0.8772 -1.1242
 2364TIP3   OH228650   6.285   0.448   1.919 -0.1389  0.7123 -0.1285
 2364TIP3    H128651   6.201   0.456   1.873 -0.3148 -0.6548 -0.0689
 2364TIP3    H228652   6.300   0.354   1.927 -0.2786  0.8426  2.8995
 2365TIP3   OH228653   5.188   4.996   2.327 -0.0898 -0.0075  0.3906
 2365TIP3    H128654   5.132   4.938   2.379 -0.0218 -0.4532 -0.0325
 2365TIP3    H228655   5.166   5.084   2.358 -1.7516 -0.0881 -0.4497
 2366TIP3   OH228656   5.103   0.869   8.679  0.0257  0.5951  0.0461
 2366TIP3    H128657   5.164   0.941   8.697  0.4161  1.0845 -2.7414
 2366TIP3    H228658   5.143   0.792   8.719  1.2893  1.3321  0.2489
 2367TIP3   OH228659   5.684   0.032   1.486 -0.6514 -0.0595 -0.4769
 2367TIP3    H128660   5.647   0.075   1.409 -2.6344  0.9735  0.9733
 2367TIP3    H228661   5.609   0.015   1.543  0.6002 -1.8266  0.7677
 2368TIP3   OH228662   2.432   6.185   0.087  0.0889 -0.4372 -0.2267
 2368TIP3    H128663   2.339   6.208   0.074 -0.1316 -0.6423  0.9305
 2368TIP3    H228664   2.468   6.260   0.134  0.4064 -0.5630 -0.2710
 2369TIP3   OH228665   2.874   5.386   0.982 -0.0169  0.0470 -0.2039
 2369TIP3    H128666   2.952   5.390   1.038  0.1127  0.6913 -0.4270
 2369TIP3    H228667   2.802   5.409   1.040 -0.1573 -1.3062  0.1976
 2370TIP3   OH228668   4.744   0.709   1.797  0.0417  0.2277  0.4201
 2370TIP3    H128669   4.769   0.619   1.821 -2.5518 -0.8520 -0.5320
 2370TIP3    H228670   4.807   0.764   1.843  1.2214 -2.0392  1.7396
 2371TIP3   OH228671   3.716   2.786   2.246 -0.4744 -0.5618 -0.3842
 2371TIP3    H128672   3.694   2.878   2.260  3.4907  0.6495 -0.9195
 2371TIP3    H228673   3.755   2.758   2.328 -0.4854 -1.3729 -0.6519
 2372TIP3   OH228674   3.134   0.649   8.074  1.0266 -0.8006  0.0789
 2372TIP3    H128675   3.073   0.722   8.064  0.8383 -0.9739 -0.0524
 2372TIP3    H228676   3.171   0.636   7.986  2.0225 -0.0351  0.3634
 2373TIP3   OH228677   1.398   3.295   0.160  0.2364 -0.1193  0.0444
 2373TIP3    H128678   1.439   3.301   0.246  1.4252  2.5263 -0.6020
 2373TIP3    H228679   1.468   3.320   0.099 -1.4226  1.1912 -1.4055
 2374TIP3   OH228680   4.710   1.537   1.226  0.2773  0.5521 -0.2752
 2374TIP3    H128681   4.724   1.536   1.321  0.4586 -0.3263 -0.2973
 2374TIP3    H228682   4.782   1.589   1.192  1.5414 -1.0134 -0.0969
 2375TIP3   OH228683   4.498   1.022   2.471 -0.1552 -0.1300  0.2480
 2375TIP3    H128684   4.460   1.104   2.502 -2.3402 -0.4218 -1.3632
 2375TIP3    H228685   4.422   0.965   2.458  1.1817 -1.9105 -0.0698
 2376TIP3   OH228686   3.711   1.749   0.984 -0.1471 -0.1160 -0.3599
 2376TIP3    H128687   3.786   1.691   1.001  1.9425  2.5606  0.2061
 2376TIP3    H228688   3.707   1.806   1.061 -2.1727  0.4635 -0.8447
 2377TIP3   OH228689   1.710   6.176   7.024 -0.1191  0.3445  0.0661
 2377TIP3    H128690   1.804   6.157   7.030 -0.0349  0.7020 -0.1128
 2377TIP3    H228691   1.687   6.208   7.111  0.4070  2.3863 -0.4956
 2378TIP3   OH228692   1.860   4.526   8.586 -0.2301  0.1643  0.2350
 2378TIP3    H128693   1.833   4.530   8.494 -0.3994  0.7400  0.3049
 2378TIP3    H228694   1.850   4.616   8.618 -0.8900 -0.1759  1.0215
 2379TIP3   OH228695   1.243   0.212   3.210 -0.9596 -0.1859  0.5127
 2379TIP3    H128696   1.197   0.268   3.147 -1.5757  1.9150  2.6950
 2379TIP3    H228697   1.333   0.207   3.177 -1.3842  0.4157 -0.7876
 2380TIP3   OH228698   3.374   1.093   0.983 -0.0171  0.5986  0.0130
 2380TIP3    H128699   3.391   1.074   0.891 -2.3331  2.2120 -0.8498
 2380TIP3    H228700   3.364   1.188   0.987 -0.4206  0.5201  1.8499
 2381TIP3   OH228701   2.787   6.449   8.053 -0.1411  0.2540 -0.4577
 2381TIP3    H128702   2.825   6.369   8.088 -0.3393  0.7075  0.8475
 2381TIP3    H228703   2.852   6.516   8.070 -0.7692  0.7118  0.2163
 2382TIP3   OH228704   2.112   6.664   2.485  0.3282  0.3834  0.0526
 2382TIP3    H128705   2.135   6.584   2.533 -0.3493  1.2096  1.8112
 2382TIP3    H228706   2.085   6.633   2.398 -0.5682 -1.3685  0.9093
 2383TIP3   OH228707   0.436   6.199   8.595  0.2721 -0.3826  0.5482
 2383TIP3    H128708   0.443   6.120   8.542  1.1979  1.2479 -1.9199
 2383TIP3    H228709   0.359   6.244   8.560  1.4291  1.1565 -0.1252
 2384TIP3   OH228710   2.208   0.973   0.524  0.7984 -0.3177  0.0760
 2384TIP3    H128711   2.131   0.922   0.548 -0.8051  0.9009 -2.1038
 2384TIP3    H228712   2.196   1.056   0.569 -1.5282  1.4700 -3.3799
 2385TIP3   OH228713   2.071   3.416   3.184 -0.1010 -0.0041 -0.0393
 2385TIP3    H128714   2.023   3.499   3.176  0.0614 -0.0692 -2.2953
 2385TIP3    H228715   2.140   3.422   3.119 -0.4165 -2.1444 -0.6418
 2386TIP3   OH228716   1.045   0.833   0.533 -0.0730  0.2690  0.5041
 2386TIP3    H128717   1.030   0.856   0.624 -0.0100  0.7428  0.3983
 2386TIP3    H228718   0.969   0.780   0.509  0.1309 -0.2351  0.9550
 2387TIP3   OH228719   2.103   6.571   8.436 -0.1106 -0.1273  0.1996
 2387TIP3    H128720   2.031   6.508   8.420 -0.1455  0.4888 -2.7048
 2387TIP3    H228721   2.085   6.606   8.523 -2.5254 -1.0505  0.1649
 2388TIP3   OH228722   4.740   2.488   1.942  0.1410  0.1537 -0.5744
 2388TIP3    H128723   4.765   2.567   1.989  0.7572  0.1949 -0.9604
 2388TIP3    H228724   4.695   2.434   2.007  3.1397 -0.9155  0.8084
 2389TIP3   OH228725   0.217   5.182   7.516 -0.2150  0.5927 -0.0138
 2389TIP3    H128726   0.205   5.152   7.606  0.4217  0.9962  0.2097
 2389TIP3    H228727   0.266   5.112   7.473 -1.8951 -0.3549 -0.5129
 2390TIP3   OH228728   5.498   1.404   7.231  0.9256  0.0041 -0.0144
 2390TIP3    H128729   5.426   1.343   7.212  0.8802  0.4617 -1.4842
 2390TIP3    H228730   5.459   1.491   7.220  1.4079  0.2716  0.3585
 2391TIP3   OH228731   0.617   2.473   6.321 -0.1840 -0.4076  0.4089
 2391TIP3    H128732   0.662   2.531   6.383  0.1757 -0.0189 -0.2028
 2391TIP3    H228733   0.597   2.395   6.372  1.1950 -0.5945  0.7045
 2392TIP3   OH228734   6.803   1.898   0.408 -0.0619 -0.6719  0.2744
 2392TIP3    H128735   6.888   1.914   0.367 -0.7592 -0.0879 -0.9963
 2392TIP3    H228736   6.824   1.878   0.499  1.3838  0.1642  0.1518
 2393TIP3   OH228737   2.154   2.781   0.497 -0.3371  0.3482  0.2804
 2393TIP3    H128738   2.084   2.805   0.436  1.7157  2.3295 -1.5094
 2393TIP3    H228739   2.214   2.729   0.444  0.2449 -0.0925  1.3618
 2394TIP3   OH228740   2.778   3.651   7.445 -0.0223  0.2994 -0.3461
 2394TIP3    H128741   2.745   3.594   7.514  1.1910 -1.4460 -1.1262
 2394TIP3    H228742   2.785   3.737   7.486  0.6602 -0.6757  1.7100
 2395TIP3   OH228743   5.272   5.922   0.079  0.1922  0.0956  0.0788
 2395TIP3    H128744   5.236   5.988   0.019 -0.9940  1.3049  2.0375
 2395TIP3    H228745   5.303   5.972   0.154  3.3628 -1.2034 -0.1957
 2396TIP3   OH228746   2.390   0.706   0.458  0.4426 -0.0980  0.2950
 2396TIP3    H128747   2.324   0.705   0.527 -0.3392  2.8217 -0.2804
 2396TIP3    H228748   2.447   0.632   0.479 -0.5612 -0.1913  3.2310
 2397TIP3   OH228749   2.682   6.599   2.332 -0.0632 -0.1388  0.3312
 2397TIP3    H128750   2.721   6.643   2.257  1.0358  0.4456  1.2103
 2397TIP3    H228751   2.589   6.623   2.328  0.4198  1.9595  0.5446
 2398TIP3   OH228752   5.458   2.490   8.041 -0.0503  0.4493 -0.0098
 2398TIP3    H128753   5.553   2.497   8.036 -0.1790  1.3449 -1.8701
 2398TIP3    H228754   5.440   2.396   8.030  0.5318  0.5927 -3.2043
 2399TIP3   OH228755   3.436   4.849   7.578 -0.1211 -0.3953 -0.2167
 2399TIP3    H128756   3.346   4.850   7.546  0.3768 -1.5671 -1.7311
 2399TIP3    H228757   3.464   4.941   7.574 -0.4994 -0.3369 -1.9406
 2400TIP3   OH228758   3.304   0.045   2.913 -0.1075 -0.4281  0.1664
 2400TIP3    H128759   3.385  -0.005   2.901  0.8832  0.4996  2.3312
 2400TIP3    H228760   3.310   0.116   2.850  0.7555 -0.4200  0.2360
 2401TIP3   OH228761   6.679   0.727   7.260 -0.4960 -0.7744  0.4006
 2401TIP3    H128762   6.705   0.671   7.333  0.5357 -0.3822  0.3496
 2401TIP3    H228763   6.654   0.810   7.302 -0.4946 -0.7523  0.3574
 2402TIP3   OH228764   1.018   1.273   7.495 -0.3024 -0.4332  0.1007
 2402TIP3    H128765   1.042   1.283   7.403  1.4918 -0.3189  0.5436
 2402TIP3    H228766   0.980   1.185   7.500 -0.9829 -0.2041 -0.8470
 2403TIP3   OH228767   0.854   5.023   8.319  0.2506 -0.6969 -0.1099
 2403TIP3    H128768   0.927   5.056   8.371  0.2620  0.0429 -0.5831
 2403TIP3    H228769   0.854   5.077   8.240  0.8310 -2.3944 -1.3549
 2404TIP3   OH228770   0.937   0.113   0.300  0.3379 -0.0551 -0.0250
 2404TIP3    H128771   1.027   0.143   0.287  1.1754 -3.0860 -2.0181
 2404TIP3    H228772   0.932   0.095   0.394  1.6479  0.5238  0.1839
 2405TIP3   OH228773   0.242   6.588   1.679 -0.6131 -0.4586 -0.2952
 2405TIP3    H128774   0.190   6.583   1.759 -1.4101 -1.5800 -0.8582
 2405TIP3    H228775   0.302   6.514   1.686  2.0389  1.6220  1.0404
 2406TIP3   OH228776   2.040   0.229   7.596 -0.2159  0.0560 -0.3355
 2406TIP3    H128777   1.960   0.200   7.640  0.0511  0.7431  0.6232
 2406TIP3    H228778   2.012   0.301   7.540 -0.2313  0.4203  0.1432
 2407TIP3   OH228779   0.995   3.539   8.536  0.4246 -0.0428  0.2722
 2407TIP3    H128780   1.077   3.564   8.493  1.1311 -1.8814  0.4428
 2407TIP3    H228781   0.935   3.521   8.463  0.4928  0.3274  0.1248
 2408TIP3   OH228782   1.294   3.718   0.941  0.0594  0.3528  0.0363
 2408TIP3    H128783   1.343   3.797   0.916 -1.2697  0.9298 -0.8636
 2408TIP3    H228784   1.238   3.746   1.013  0.9226 -0.2684  0.9710
 2409TIP3   OH228785   6.590   6.431   7.662 -0.3732  0.1649  0.0871
 2409TIP3    H128786   6.587   6.478   7.745  2.3624  1.4359 -0.4279
 2409TIP3    H228787   6.644   6.486   7.605  2.1250 -3.0511 -0.9271
 2410TIP3   OH228788   6.231   0.235   2.401 -0.3289  0.4348  0.4981
 2410TIP3    H128789   6.210   0.314   2.351  0.7113  2.7665  3.4211
 2410TIP3    H228790   6.322   0.215   2.378  0.5115  2.1511  2.1062
 2411TIP3   OH228791   4.393   6.639   8.458  0.6222  0.4134 -0.2881
 2411TIP3    H128792   4.472   6.681   8.425  0.1881  1.5747  0.0901
 2411TIP3    H228793   4.324   6.705   8.448 -0.1884 -0.3761 -0.1016
 2412TIP3   OH228794   6.840   1.882   1.537  0.0582  0.4152 -0.3036
 2412TIP3    H128795   6.760   1.862   1.586 -0.3712  0.1542 -1.0971
 2412TIP3    H228796   6.827   1.972   1.508  0.5913  0.7924  0.5694
 2413TIP3   OH228797   0.842   5.807   8.655 -0.2868 -0.8832  0.4693
 2413TIP3    H128798   0.781   5.794   8.727  0.0153  0.9892  1.1268
 2413TIP3    H228799   0.923   5.835   8.698  0.3353 -1.1359 -0.5207
 2414TIP3   OH228800   2.171   2.970   0.912  0.0336  0.0704 -0.3422
 2414TIP3    H128801   2.182   2.996   0.821 -1.6405 -1.6532 -1.1197
 2414TIP3    H228802   2.088   3.009   0.939 -0.7503 -1.4371 -0.4225
 2415TIP3   OH228803   5.749   1.213   7.906  0.0788 -0.5147  0.1485
 2415TIP3    H128804   5.839   1.245   7.895  0.0566 -0.7602 -0.8157
 2415TIP3    H228805   5.735   1.156   7.830 -0.3303 -1.7814  1.1490
 2416TIP3   OH228806   4.440   1.539   1.513 -1.0176 -0.1407  0.2011
 2416TIP3    H128807   4.488   1.520   1.594 -1.3085  2.8613  1.2020
 2416TIP3    H228808   4.359   1.580   1.542 -2.1774 -1.0017 -1.6087
 2417TIP3   OH228809   2.845   3.048   1.279 -0.2460 -0.5606 -0.0172
 2417TIP3    H128810   2.865   3.028   1.188 -0.5570 -2.0579  0.2217
 2417TIP3    H228811   2.839   3.144   1.282 -2.0777 -0.5437 -1.9781
 2418TIP3   OH228812   2.787   6.428   6.914  0.0897 -0.5344 -0.5043
 2418TIP3    H128813   2.824   6.356   6.963 -0.5887 -0.6533 -0.1495
 2418TIP3    H228814   2.692   6.417   6.923 -0.0273  0.1349 -0.8269
 2419TIP3   OH228815   1.428   6.474   2.898  0.3333  0.2257 -0.8192
 2419TIP3    H128816   1.495   6.406   2.888  1.0372  0.7344  0.2309
 2419TIP3    H228817   1.356   6.429   2.941  0.0784 -0.2702 -1.7362
 2420TIP3   OH228818   3.876   5.792   2.160 -0.0318  0.0999  0.0291
 2420TIP3    H128819   3.893   5.760   2.249  0.4239  1.6308  0.5199
 2420TIP3    H228820   3.922   5.876   2.155  0.3562 -0.1826 -1.8280
 2421TIP3   OH228821   1.925   6.769   8.252  0.1592 -0.3158  0.1898
 2421TIP3    H128822   1.981   6.725   8.189 -0.0148 -0.8488  0.4013
 2421TIP3    H228823   1.925   6.860   8.224  0.5505 -0.4410 -0.2345
 2422TIP3   OH228824   2.797   0.628   1.327 -0.3327 -0.0039  0.6884
 2422TIP3    H128825   2.809   0.716   1.363  0.1550  0.2540 -0.0768
 2422TIP3    H228826   2.744   0.643   1.248  0.4621 -0.2982  0.0956
 2423TIP3   OH228827   6.635   3.664   2.805 -0.3237 -0.7226  0.0113
 2423TIP3    H128828   6.676   3.743   2.841  0.1952 -0.4341 -1.1640
 2423TIP3    H228829   6.563   3.697   2.752 -0.7061 -1.1086  0.2838
 2424TIP3   OH228830   1.395   1.494   0.685  0.9101 -0.1229 -0.8904
 2424TIP3    H128831   1.381   1.399   0.694 -0.8487  0.1075 -0.7198
 2424TIP3    H228832   1.466   1.514   0.745  0.4039 -1.1483  0.0994
 2425TIP3   OH228833   0.961   5.205   2.772 -0.4805  0.1251 -0.0888
 2425TIP3    H128834   1.010   5.143   2.825  0.3743  0.4927 -0.4370
 2425TIP3    H228835   0.978   5.178   2.681 -0.6016  0.4901 -0.2226
 2426TIP3   OH228836   1.088   3.729   8.149  0.1999  0.1454 -0.0207
 2426TIP3    H128837   1.141   3.737   8.228 -1.5068 -0.0638  1.2143
 2426TIP3    H228838   1.035   3.650   8.162 -0.9275  0.7165 -0.8429
 2427TIP3   OH228839   2.594   4.554   2.952 -0.0835 -0.1289  0.2331
 2427TIP3    H128840   2.518   4.515   2.995  0.4454 -0.7644  0.6072
 2427TIP3    H228841   2.665   4.544   3.014  0.7919 -1.4376 -0.9216
 2428TIP3   OH228842   0.034   4.818   7.039  0.5360  0.0290  1.1400
 2428TIP3    H128843   0.027   4.724   7.056 -0.7215  0.1392  1.3035
 2428TIP3    H228844   0.120   4.828   6.998 -0.2161 -1.5149 -0.9931
 2429TIP3   OH228845   5.916   5.273   7.992 -0.0015 -0.6115 -0.0009
 2429TIP3    H128846   5.953   5.275   7.904  2.2961 -0.1815  0.8822
 2429TIP3    H228847   5.912   5.179   8.014  2.2068 -0.6682  0.4309
 2430TIP3   OH228848   5.224   0.286   0.488 -0.4536  0.0553  0.1357
 2430TIP3    H128849   5.229   0.378   0.511 -1.7854 -0.3970  2.6096
 2430TIP3    H228850   5.242   0.240   0.570 -1.5097 -1.8579 -0.6310
 2431TIP3   OH228851   5.906   6.749   7.842 -0.1665  0.5297 -0.6342
 2431TIP3    H128852   5.978   6.686   7.835 -0.7058 -0.0972 -0.5584
 2431TIP3    H228853   5.943   6.819   7.896  0.5597  0.4641 -1.0234
 2432TIP3   OH228854   5.121   3.510   7.340  0.0759  0.3154 -0.2593
 2432TIP3    H128855   5.124   3.480   7.249  0.0980  1.4866 -0.6698
 2432TIP3    H228856   5.151   3.435   7.392  0.8159 -0.1150 -1.2826
 2433TIP3   OH228857   4.438   2.089   2.683  0.1348  0.1033  0.2615
 2433TIP3    H128858   4.397   2.017   2.635 -1.2159 -0.0706  1.5955
 2433TIP3    H228859   4.524   2.055   2.709 -1.2320 -1.8633  2.5803
 2434TIP3   OH228860   5.337   2.148   7.560 -0.8686  0.1089 -0.1514
 2434TIP3    H128861   5.381   2.093   7.495 -1.1768 -0.2445 -0.0609
 2434TIP3    H228862   5.402   2.215   7.581  0.1085 -1.0843  0.8484
 2435TIP3   OH228863   6.052   2.626   7.471  0.3164 -0.4479 -0.1276
 2435TIP3    H128864   6.056   2.648   7.377  1.0722  1.1376  0.2332
 2435TIP3    H228865   5.965   2.590   7.484 -0.0006 -0.1694 -1.3550
 2436TIP3   OH228866   1.376   6.718   3.275  0.5458  0.5623  0.1822
 2436TIP3    H128867   1.450   6.778   3.271  2.5662 -1.7884  0.2244
 2436TIP3    H228868   1.363   6.690   3.185 -1.5256  2.2612 -0.1198
 2437TIP3   OH228869   0.390   4.475   2.079  0.4532 -0.6980 -0.1414
 2437TIP3    H128870   0.349   4.432   2.004 -0.7012 -0.7586  0.5020
 2437TIP3    H228871   0.321   4.481   2.144  0.8180  1.3625  0.1193
 2438TIP3   OH228872   6.796   3.192   0.845 -0.6447 -0.4764 -0.8127
 2438TIP3    H128873   6.852   3.118   0.870  0.6504 -0.0790 -2.3194
 2438TIP3    H228874   6.856   3.255   0.804 -1.9171  0.8370 -0.7581
 2439TIP3   OH228875   1.983   5.226   0.383 -0.5910 -0.1478  0.1009
 2439TIP3    H128876   1.904   5.209   0.332 -0.5265  0.4745 -0.2151
 2439TIP3    H228877   1.950   5.267   0.464 -0.5612  0.5791 -0.2487
 2440TIP3   OH228878   5.401   2.979   0.368 -0.1319 -0.7992  0.6454
 2440TIP3    H128879   5.427   2.887   0.373  1.3294 -0.4491  0.0083
 2440TIP3    H228880   5.481   3.028   0.387 -0.5261  0.3550 -0.5071
 2441TIP3   OH228881   3.617   0.169   2.181  0.3426 -0.2806  0.3933
 2441TIP3    H128882   3.705   0.194   2.210  0.4446 -0.3031  0.0998
 2441TIP3    H228883   3.629   0.136   2.092  0.0282 -0.2161  0.3254
 2442TIP3   OH228884   5.491   0.818   0.170  0.3322  0.4129 -0.2171
 2442TIP3    H128885   5.513   0.758   0.100 -0.1138 -0.5922  0.4842
 2442TIP3    H228886   5.566   0.878   0.175  1.5167 -1.0273  0.0823
 2443TIP3   OH228887   5.757   1.999   8.063  0.0687 -0.5218  0.1621
 2443TIP3    H128888   5.683   2.036   8.110 -1.8454 -0.2186 -2.8340
 2443TIP3    H228889   5.718   1.932   8.006  2.6787 -3.3030  1.3696
 2444TIP3   OH228890   3.913   2.708   2.415 -0.2115  0.3397 -0.0429
 2444TIP3    H128891   3.981   2.773   2.432  1.2646 -1.4370  1.2260
 2444TIP3    H228892   3.872   2.693   2.500  0.0856 -1.0132 -0.1232
 2445TIP3   OH228893   5.643   4.569   1.283  0.0708  0.3455  0.7038
 2445TIP3    H128894   5.613   4.574   1.192 -0.9812  0.0907  1.0231
 2445TIP3    H228895   5.601   4.644   1.326 -0.4112 -0.2249  1.2428
 2446TIP3   OH228896   1.914   6.570   1.986 -0.4902  0.4233  0.0940
 2446TIP3    H128897   1.896   6.506   1.917 -0.4614  2.3065 -1.7568
 2446TIP3    H228898   1.827   6.599   2.015 -0.5651  1.8023 -1.3495
 2447TIP3   OH228899   1.940   0.855   0.694 -0.0671  0.4984  0.1150
 2447TIP3    H128900   1.878   0.910   0.647  0.7467  0.4211 -1.0726
 2447TIP3    H228901   1.912   0.861   0.786 -1.0397  1.4746 -0.2245
 2448TIP3   OH228902   0.801   3.316   0.186  1.0033 -0.4383 -0.0107
 2448TIP3    H128903   0.879   3.360   0.219  0.2943  0.4639  0.5238
 2448TIP3    H228904   0.736   3.328   0.255  0.0675 -0.2298 -0.8984
 2449TIP3   OH228905   0.755   1.096   7.879  0.6597 -0.3939 -0.0666
 2449TIP3    H128906   0.666   1.124   7.858  0.0171 -1.7803  0.7360
 2449TIP3    H228907   0.775   1.027   7.816  1.7652  0.9029 -1.2133
 2450TIP3   OH228908   6.748   4.262   0.625  0.7241  0.6651  0.3485
 2450TIP3    H128909   6.665   4.255   0.578  0.7192  2.6045 -0.0460
 2450TIP3    H228910   6.731   4.220   0.709  0.0568 -0.9180 -0.5231
 2451TIP3   OH228911   3.326   6.149   1.655 -0.0089 -0.2045 -0.4175
 2451TIP3    H128912   3.274   6.129   1.733  0.6761  1.5822  0.5356
 2451TIP3    H228913   3.388   6.216   1.684  0.8240 -0.1206 -2.2937
 2452TIP3   OH228914   1.758   2.728   3.228  0.0199  0.5651  0.4241
 2452TIP3    H128915   1.694   2.793   3.200  0.7904  0.4360 -1.8945
 2452TIP3    H228916   1.842   2.772   3.220  0.4970 -0.4742 -0.5152
 2453TIP3   OH228917   6.384   0.877   7.286 -0.1670 -0.0256 -0.2860
 2453TIP3    H128918   6.476   0.906   7.291 -0.3765  1.1258 -2.0476
 2453TIP3    H228919   6.388   0.793   7.241  0.1692 -1.2350  1.8503
 2454TIP3   OH228920   6.708   0.073   8.017 -0.2211  0.0499  0.0508
 2454TIP3    H128921   6.751   0.105   7.938 -0.4192 -1.7749 -0.8447
 2454TIP3    H228922   6.746   0.125   8.088  0.4212  1.2866 -1.1539
 2455TIP3   OH228923   6.238   1.766   1.911 -0.2750 -0.2369  0.5583
 2455TIP3    H128924   6.246   1.850   1.958 -1.5653  0.8664 -1.0540
 2455TIP3    H228925   6.159   1.726   1.947  0.3874 -0.8307  1.3869
 2456TIP3   OH228926   1.161   5.240   2.209 -0.1585  0.0186  0.3351
 2456TIP3    H128927   1.243   5.221   2.256 -1.0260 -0.0362  1.9224
 2456TIP3    H228928   1.106   5.164   2.227 -1.1690  0.8353  0.7850
 2457TIP3   OH228929   4.163   5.625   0.836 -0.0113 -0.1031  0.0710
 2457TIP3    H128930   4.125   5.707   0.864 -1.6286 -0.5801 -0.5980
 2457TIP3    H228931   4.089   5.566   0.823  1.0991 -1.7325  0.6740
 2458TIP3   OH228932   6.444   0.703   1.476 -0.3182 -0.1039  0.4203
 2458TIP3    H128933   6.372   0.649   1.445 -0.3428  0.7186 -1.0649
 2458TIP3    H228934   6.511   0.696   1.408 -0.4413  1.9039  0.0174
 2459TIP3   OH228935   4.923   3.889   7.454  0.0829 -0.4345 -0.0463
 2459TIP3    H128936   4.953   3.976   7.428  0.0466 -0.3056  0.3326
 2459TIP3    H228937   4.884   3.903   7.541 -1.0951 -0.5896 -0.5307
 2460TIP3   OH228938   5.735   5.495   0.256 -0.0254 -0.2072 -0.1187
 2460TIP3    H128939   5.718   5.489   0.162  2.0916 -0.1998 -0.5533
 2460TIP3    H228940   5.756   5.405   0.282  0.9832  0.0423 -0.0235
 2461TIP3   OH228941   4.692   0.740   2.360  0.3858 -0.3364  0.0012
 2461TIP3    H128942   4.699   0.831   2.386  0.8020  0.0613 -1.4078
 2461TIP3    H228943   4.780   0.704   2.372  0.6041 -0.1245 -0.9083
 2462TIP3   OH228944   0.119   5.373   0.455 -0.2161  0.0871 -0.3479
 2462TIP3    H128945   0.151   5.433   0.522 -3.4537  0.2263  1.2626
 2462TIP3    H228946   0.063   5.426   0.399  0.7555 -0.4855 -1.9489
 2463TIP3   OH228947   4.298   6.524   0.851  0.5840  0.1565 -0.2235
 2463TIP3    H128948   4.217   6.573   0.838 -0.2722 -0.2100  2.9518
 2463TIP3    H228949   4.276   6.434   0.827 -0.3242 -0.1372  1.5790
 2464TIP3   OH228950   5.054   3.235   0.187  0.1728  0.2250 -0.1795
 2464TIP3    H128951   5.095   3.149   0.194  0.0144  0.2013  0.5027
 2464TIP3    H228952   4.965   3.222   0.219 -0.2825  0.3540 -1.3297
 2465TIP3   OH228953   0.045   2.912   0.282 -0.0610 -0.6750  0.2056
 2465TIP3    H128954  -0.036   2.964   0.281  0.6419  0.4379  0.1396
 2465TIP3    H228955   0.039   2.858   0.203 -0.4368 -0.1069 -0.1639
 2466TIP3   OH228956   4.879   0.591   8.525 -0.3315  0.8248 -0.6008
 2466TIP3    H128957   4.886   0.520   8.461  1.9136  1.6447 -1.3753
 2466TIP3    H228958   4.953   0.578   8.584  1.4011  3.5933 -1.9922
 2467TIP3   OH228959   2.155   1.827   7.741  0.2676 -0.7812 -0.2779
 2467TIP3    H128960   2.109   1.861   7.664  0.9976  0.5451 -0.1594
 2467TIP3    H228961   2.206   1.902   7.773 -0.1420 -1.2530  1.5978
 2468TIP3   OH228962   1.182   3.808   2.241  0.3776 -0.4078 -0.3456
 2468TIP3    H128963   1.177   3.902   2.255 -0.1911 -0.4146 -0.4823
 2468TIP3    H228964   1.132   3.793   2.161 -0.7666 -0.9971  0.4558
 2469TIP3   OH228965   1.111   2.873   0.823  0.8119  0.4790  0.2993
 2469TIP3    H128966   1.149   2.852   0.737  2.2282  0.9385  0.7975
 2469TIP3    H228967   1.084   2.788   0.858  1.8215  0.0771  0.1327
 2470TIP3   OH228968   5.936   6.441   0.135  0.3757  0.1657 -0.5412
 2470TIP3    H128969   6.017   6.420   0.088  0.6716  0.9396 -0.4018
 2470TIP3    H228970   5.899   6.514   0.086  1.3037  1.7877  1.0609
 2471TIP3   OH228971   0.817   4.759   8.242 -0.4984 -0.3756 -0.0817
 2471TIP3    H128972   0.881   4.712   8.295  0.6807  0.7438 -0.4693
 2471TIP3    H228973   0.838   4.851   8.254 -1.7468  0.0034 -0.6086
 2472TIP3   OH228974   4.723   2.005   2.728  0.0624  0.2611  0.8168
 2472TIP3    H128975   4.715   2.006   2.823 -0.1037 -0.0066  0.8069
 2472TIP3    H228976   4.718   1.912   2.704 -2.7607  0.4668  0.3143
 2473TIP3   OH228977   0.463   1.277   8.561 -0.2279  0.2717 -0.1445
 2473TIP3    H128978   0.482   1.194   8.519  0.3591  0.0381  0.5596
 2473TIP3    H228979   0.548   1.321   8.569 -0.3731  0.4660  0.4475
 2474TIP3   OH228980   4.416   2.950   0.123 -0.2015 -0.0795 -0.3015
 2474TIP3    H128981   4.387   2.872   0.076  2.3210  0.6415 -3.3917
 2474TIP3    H228982   4.371   3.023   0.081  0.3212  0.4194 -0.0212
 2475TIP3   OH228983   0.340   0.052   1.615 -0.0351  0.6704  0.5310
 2475TIP3    H128984   0.308  -0.022   1.667 -0.3249  0.5797  0.2270
 2475TIP3    H228985   0.429   0.067   1.646 -0.5221  1.2471  1.7627
 2476TIP3   OH228986   2.551   1.530   0.899  0.0023 -0.3713  0.0124
 2476TIP3    H128987   2.502   1.572   0.970  2.2318  3.0066 -0.2156
 2476TIP3    H228988   2.598   1.459   0.942 -0.2690  0.3048  1.5004
 2477TIP3   OH228989   3.014   5.671   0.751 -0.3819 -0.6263  0.3159
 2477TIP3    H128990   3.070   5.727   0.697  1.9711 -1.4198  1.7863
 2477TIP3    H228991   2.955   5.732   0.796  0.4207  0.4280 -0.0158
 2478TIP3   OH228992   5.988   3.877   1.962 -0.0122  0.0968 -0.1324
 2478TIP3    H128993   6.026   3.836   1.884 -1.3254  1.2723 -1.4623
 2478TIP3    H228994   6.032   3.962   1.969 -0.4757  0.3371 -0.0858
 2479TIP3   OH228995   5.995   6.771   1.724 -0.0906  0.3685  0.2543
 2479TIP3    H128996   5.923   6.733   1.774  1.0550  0.0784  1.7809
 2479TIP3    H228997   6.072   6.719   1.749  0.8503  1.3806 -0.4299
 2480TIP3   OH228998   5.145   3.870   7.696 -0.2101 -0.4808  0.3839
 2480TIP3    H128999   5.097   3.792   7.725  2.4204 -2.4563 -0.1603
 2480TIP3    H229000   5.232   3.837   7.672  0.8013  2.5458 -0.5903
 2481TIP3   OH229001   3.084   1.110   2.852  0.3167 -0.5760 -0.3131
 2481TIP3    H129002   3.038   1.062   2.921  0.2303 -0.3840 -0.2359
 2481TIP3    H229003   3.154   1.051   2.825  0.8435 -0.3383  0.4844
 2482TIP3   OH229004   1.826   1.451   7.381  0.1441 -0.2803  0.0757
 2482TIP3    H129005   1.790   1.428   7.295 -0.4971 -0.6964  0.4486
 2482TIP3    H229006   1.863   1.369   7.414  1.5684  0.1669 -0.3498
 2483TIP3   OH229007   5.888   5.707   1.605 -0.0258  0.0869 -0.0662
 2483TIP3    H129008   5.935   5.754   1.536 -0.8411 -0.0858 -0.7528
 2483TIP3    H229009   5.803   5.751   1.611 -0.1568 -0.2248  0.4794
 2484TIP3   OH229010   3.619   5.852   1.747  0.5415 -0.4624 -0.1535
 2484TIP3    H129011   3.666   5.860   1.664  0.4547 -0.1876 -0.1753
 2484TIP3    H229012   3.661   5.778   1.791  2.6064  1.1974  0.8671
 2485TIP3   OH229013   6.224   5.414   2.192  0.4680  0.2193 -0.4145
 2485TIP3    H129014   6.215   5.342   2.129  0.1622  1.7638 -2.2283
 2485TIP3    H229015   6.158   5.478   2.165  0.4588  1.0323  1.3953
 2486TIP3   OH229016   5.400   0.290   1.817  0.3646  0.4520  0.3476
 2486TIP3    H129017   5.397   0.197   1.839  0.5768 -0.5633 -3.2483
 2486TIP3    H229018   5.309   0.312   1.794  1.0583 -0.6065 -4.3104
 2487TIP3   OH229019   5.038   2.296   1.236 -0.2488 -0.2967  0.1050
 2487TIP3    H129020   5.101   2.294   1.164  1.4303  1.7399  1.4114
 2487TIP3    H229021   5.077   2.243   1.305  0.0794  0.9654  0.9197
 2488TIP3   OH229022   2.857   4.255   0.035 -0.2911 -0.0987  0.0404
 2488TIP3    H129023   2.786   4.318   0.019 -1.6938 -1.7418 -0.6486
 2488TIP3    H229024   2.935   4.308   0.049 -1.2125  1.7717 -1.4664
 2489TIP3   OH229025   2.211   4.430   1.333  0.5393 -0.1245 -0.1441
 2489TIP3    H129026   2.230   4.499   1.397 -1.2509 -0.4509  0.8284
 2489TIP3    H229027   2.222   4.349   1.383 -0.9474 -0.3803 -0.1889
 2490TIP3   OH229028   6.651   5.992   1.517  0.4433  0.0029  0.0263
 2490TIP3    H129029   6.631   5.945   1.598  1.3112 -0.2019  0.1230
 2490TIP3    H229030   6.726   6.047   1.538 -1.6929  2.9826  0.4936
 2491TIP3   OH229031   4.883   5.151   2.995 -0.1997 -0.6771  0.4688
 2491TIP3    H129032   4.829   5.083   2.956 -3.5145  0.5766  2.3899
 2491TIP3    H229033   4.893   5.124   3.087 -2.5712  1.7353  1.5884
 2492TIP3   OH229034   4.735   4.745   8.672 -0.1844 -0.2356 -0.2550
 2492TIP3    H129035   4.674   4.673   8.660 -1.3247  0.4033  1.3209
 2492TIP3    H229036   4.798   4.736   8.600 -0.8636 -2.1866 -0.6606
 2493TIP3   OH229037   2.379   2.067   1.019 -0.5678  0.0419 -0.5852
 2493TIP3    H129038   2.441   2.130   0.984  0.4065 -0.2581  0.5270
 2493TIP3    H229039   2.365   2.004   0.948 -1.4601  1.3899 -1.6593
 2494TIP3   OH229040   1.164   3.707   7.482 -0.0228 -0.4170 -0.1307
 2494TIP3    H129041   1.162   3.612   7.473 -0.6836 -0.5036  0.8459
 2494TIP3    H229042   1.193   3.738   7.396  2.6327 -1.5943  0.2432
 2495TIP3   OH229043   0.564   4.910   2.136  0.0396  0.1194 -0.3698
 2495TIP3    H129044   0.554   4.987   2.080 -0.7216  2.1255  2.3222
 2495TIP3    H229045   0.476   4.891   2.166  0.5124 -0.4576  0.6916
 2496TIP3   OH229046   1.310   6.736   0.221 -0.0178 -0.5568  0.4513
 2496TIP3    H129047   1.324   6.779   0.306  1.4204 -0.4370  0.1865
 2496TIP3    H229048   1.315   6.643   0.240  3.6253 -0.5871  0.1221
 2497TIP3   OH229049   5.209   4.593   7.594 -0.2573  0.3933  0.5196
 2497TIP3    H129050   5.270   4.666   7.609  1.0846 -0.7502  0.8929
 2497TIP3    H229051   5.125   4.635   7.575  0.7742  2.0467 -0.6364
 2498TIP3   OH229052   1.410   4.297   0.225 -0.1554 -0.2340 -0.3965
 2498TIP3    H129053   1.468   4.345   0.284  0.3742 -0.1401 -0.9873
 2498TIP3    H229054   1.449   4.209   0.220  1.1174  0.3828 -2.3651
 2499TIP3   OH229055   2.986   1.661   8.108  0.4990 -0.3879 -0.5795
 2499TIP3    H129056   2.933   1.740   8.120  2.0118  0.3029  2.4386
 2499TIP3    H229057   2.930   1.590   8.138 -0.1575 -0.2210 -1.3807
 2500TIP3   OH229058   3.804   2.807   1.136 -0.9314 -0.3304 -0.1919
 2500TIP3    H129059   3.783   2.769   1.051 -1.1004  1.1671 -0.8402
 2500TIP3    H229060   3.771   2.897   1.132 -1.1664 -0.3031  1.5459
 2501TIP3   OH229061   3.617   5.880   2.115 -0.0411  0.2792  0.2975
 2501TIP3    H129062   3.617   5.842   2.027 -1.5522  2.3279 -0.6836
 2501TIP3    H229063   3.696   5.845   2.157  0.5230 -1.0429 -1.7243
 2502TIP3   OH229064   1.727   0.395   1.895  0.4585 -0.3149  0.5005
 2502TIP3    H129065   1.747   0.303   1.875  1.4857 -0.0404  0.1831
 2502TIP3    H229066   1.752   0.442   1.815 -2.5529 -0.0117 -0.3789
 2503TIP3   OH229067   4.746   4.606   7.573  0.0758  0.1861  0.5737
 2503TIP3    H129068   4.825   4.654   7.550  0.5219 -0.4425  0.7566
 2503TIP3    H229069   4.679   4.673   7.585  0.8138  0.8022  1.3632
 2504TIP3   OH229070   1.440   1.604   2.462 -0.2927 -0.0225  0.1799
 2504TIP3    H129071   1.358   1.630   2.419  0.1887  0.9131 -0.2048
 2504TIP3    H229072   1.434   1.643   2.549 -0.7501 -0.9307  0.5717
 2505TIP3   OH229073   4.342   5.248   7.943  0.2464 -0.1772  0.2128
 2505TIP3    H129074   4.302   5.243   7.856 -0.1104 -0.7853  0.4045
 2505TIP3    H229075   4.345   5.157   7.973  0.1334  0.0543  0.9427
 2506TIP3   OH229076   1.094   2.354   1.589 -0.5034 -0.3008  0.7138
 2506TIP3    H129077   1.017   2.372   1.643 -0.7488  1.8809 -0.2539
 2506TIP3    H229078   1.167   2.386   1.641 -0.5145 -0.1121  0.6128
 2507TIP3   OH229079   5.955   2.039   8.318 -0.2711  0.2751 -0.4396
 2507TIP3    H129080   5.887   2.038   8.250  0.0262  1.5969 -0.7733
 2507TIP3    H229081   5.906   2.040   8.401 -0.6357 -1.4652 -0.5982
 2508TIP3   OH229082   1.831   2.357   0.314 -0.0329 -0.3588  0.9219
 2508TIP3    H129083   1.925   2.352   0.302  0.0127  1.6750  0.0214
 2508TIP3    H229084   1.797   2.382   0.228 -1.6073 -2.7364  0.7594
 2509TIP3   OH229085   6.289   1.124   0.407 -0.2877  0.6700 -0.3855
 2509TIP3    H129086   6.215   1.169   0.367  0.2691  0.9166 -1.1758
 2509TIP3    H229087   6.364   1.182   0.391  0.1433  0.2519  0.0615
 2510TIP3   OH229088   4.040   0.532   3.017  0.1632 -0.2812  0.0351
 2510TIP3    H129089   3.973   0.489   3.071 -0.6330  1.8542  0.8433
 2510TIP3    H229090   3.990   0.575   2.948  0.9166 -0.3862 -0.5858
 2511TIP3   OH229091   4.672   4.680   0.217 -0.0075 -0.2140  0.0642
 2511TIP3    H129092   4.657   4.589   0.191  0.7270 -0.0476 -0.9953
 2511TIP3    H229093   4.676   4.728   0.134 -0.0198  0.7286  0.6002
 2512TIP3   OH229094   2.470   3.272   7.778  0.1071 -0.0518  0.3686
 2512TIP3    H129095   2.461   3.208   7.849  0.9566 -0.2600  0.3039
 2512TIP3    H229096   2.553   3.248   7.735  1.4508  2.2260  1.5247
 2513TIP3   OH229097   1.369   2.609   8.596 -0.3081 -0.0885 -0.1987
 2513TIP3    H129098   1.376   2.581   8.688  0.0857  1.8163  0.4067
 2513TIP3    H229099   1.457   2.640   8.574 -0.6210  0.3278 -0.9147
 2514TIP3   OH229100   4.503   3.034   8.407 -0.4792  0.0366 -0.2667
 2514TIP3    H129101   4.499   2.950   8.454 -2.0629  0.5395  0.5551
 2514TIP3    H229102   4.433   3.029   8.343  0.8884 -0.1413 -1.8036
 2515TIP3   OH229103   3.915   1.610   8.686  0.1787  0.2436 -0.0163
 2515TIP3    H129104   3.947   1.521   8.675  1.2085  0.6428 -0.4174
 2515TIP3    H229105   3.899   1.620   8.780  3.5915  0.7613  0.6232
 2516TIP3   OH229106   0.338   2.801   7.492  0.7793  0.0303 -0.1500
 2516TIP3    H129107   0.361   2.784   7.584 -2.8247 -1.2348  0.6931
 2516TIP3    H229108   0.369   2.890   7.476  1.1157  0.4733  2.4934
 2517TIP3   OH229109   5.053   3.366   2.110 -0.0138  0.8255  0.3058
 2517TIP3    H129110   5.002   3.444   2.131  0.5614  1.8050 -1.6715
 2517TIP3    H229111   4.988   3.301   2.085 -0.4013  1.5632 -0.6694
 2518TIP3   OH229112   2.397   6.115   8.111  0.1565 -0.1811 -0.5682
 2518TIP3    H129113   2.345   6.194   8.106  0.2079  0.1146  2.0597
 2518TIP3    H229114   2.457   6.130   8.184  0.6814 -2.3556 -0.4696
 2519TIP3   OH229115   3.998   4.212   1.718 -0.1133  0.3214  0.2295
 2519TIP3    H129116   3.956   4.131   1.748  0.9362 -0.2846  0.1102
 2519TIP3    H229117   4.003   4.267   1.795  1.8406 -0.9065  1.0557
 2520TIP3   OH229118   4.074   1.530   1.753 -0.1155 -0.6259  0.7029
 2520TIP3    H129119   4.138   1.591   1.717 -0.3493  0.1865  1.6245
 2520TIP3    H229120   4.104   1.444   1.725 -0.1704 -0.0643 -1.2255
 2521TIP3   OH229121   6.264   5.140   8.602 -0.3181  0.2013  0.2057
 2521TIP3    H129122   6.190   5.190   8.567 -0.2422  1.2559  1.4847
 2521TIP3    H229123   6.341   5.176   8.556 -0.3507  0.7387  0.5621
 2522TIP3   OH229124   2.409   2.676   2.579 -0.3661 -0.0417 -0.7907
 2522TIP3    H129125   2.358   2.640   2.506 -1.0685 -0.4864 -0.0948
 2522TIP3    H229126   2.419   2.604   2.640  0.7657  0.1561 -0.7198
 2523TIP3   OH229127   6.232   6.650   8.679 -0.0185 -0.2640  0.0904
 2523TIP3    H129128   6.194   6.700   8.751 -2.0635 -1.0312 -0.3777
 2523TIP3    H229129   6.157   6.624   8.625  1.1773 -1.8854 -0.9077
 2524TIP3   OH229130   2.633   1.878   2.083  0.4295 -0.3357 -0.3103
 2524TIP3    H129131   2.672   1.940   2.145 -0.5459 -1.6835  1.7611
 2524TIP3    H229132   2.578   1.932   2.026 -0.2669  0.7403  1.3287
 2525TIP3   OH229133   0.144   3.832   2.265 -0.5188  0.2233  0.1232
 2525TIP3    H129134   0.131   3.738   2.249 -0.1205  0.1084  0.4520
 2525TIP3    H229135   0.230   3.837   2.306  0.1621  0.9034 -1.3492
 2526TIP3   OH229136   2.778   2.940   0.619  0.3607 -0.1874  0.2320
 2526TIP3    H129137   2.792   2.850   0.650 -0.7512 -0.1122  1.0364
 2526TIP3    H229138   2.709   2.974   0.676 -0.0525  0.7899 -0.8121
 2527TIP3   OH229139   3.401   1.049   7.616  0.0251  0.3164  0.5021
 2527TIP3    H129140   3.466   1.108   7.579 -0.2013 -0.1813 -0.7528
 2527TIP3    H229141   3.438   0.962   7.603 -1.4275 -0.0853 -1.5226
 2528TIP3   OH229142   4.144   5.555   2.162  0.3671 -0.4896 -0.5631
 2528TIP3    H129143   4.169   5.467   2.189  0.8561 -0.8117 -1.9679
 2528TIP3    H229144   4.137   5.605   2.244  1.7984 -1.3811  0.1384
 2529TIP3   OH229145   2.220   3.798   0.265  0.5337 -0.4297  0.0427
 2529TIP3    H129146   2.140   3.843   0.292 -0.7422 -2.0199 -0.9146
 2529TIP3    H229147   2.231   3.728   0.330  0.6380 -0.7433 -0.3057
 2530TIP3   OH229148   1.165   0.032   0.048 -0.3161 -0.3266  0.0765
 2530TIP3    H129149   1.199   0.120   0.068 -1.2102 -0.3913  2.1685
 2530TIP3    H229150   1.220  -0.027   0.100  1.9532 -1.3734 -3.2275
 2531TIP3   OH229151   3.976   2.318   1.652 -0.2176  0.7985 -0.5865
 2531TIP3    H129152   4.056   2.320   1.599  0.3407 -0.1211  0.1935
 2531TIP3    H229153   3.947   2.226   1.647 -1.3531  1.1569 -1.0237
 2532TIP3   OH229154   6.013   4.276   1.508  0.0618 -0.3735 -0.0065
 2532TIP3    H129155   5.994   4.272   1.414  0.2843 -1.3877 -0.0201
 2532TIP3    H229156   6.108   4.288   1.513  0.1057 -0.7444  0.0850
 2533TIP3   OH229157   0.288   3.860   0.110  0.0682 -0.3754  0.6697
 2533TIP3    H129158   0.245   3.793   0.163 -2.0294  0.0756 -0.3367
 2533TIP3    H229159   0.248   3.851   0.024  1.6119  0.5144 -0.1823
 2534TIP3   OH229160   3.517   3.007   2.607  0.5813 -0.1446 -0.7252
 2534TIP3    H129161   3.484   2.951   2.678  1.1318 -0.2770 -0.5711
 2534TIP3    H229162   3.598   3.043   2.641  1.4168 -1.0597 -1.6942
 2535TIP3   OH229163   1.935   6.543   1.023 -0.4481  0.1013  0.8335
 2535TIP3    H129164   2.013   6.493   1.047 -0.5032 -1.6394 -2.1148
 2535TIP3    H229165   1.885   6.484   0.966 -1.9935  2.5209 -0.4884
 2536TIP3   OH229166   6.121   6.375   1.634 -0.4181  0.2808 -0.4495
 2536TIP3    H129167   6.140   6.313   1.564  2.0366 -1.0255  1.2131
 2536TIP3    H229168   6.085   6.322   1.705  2.8896  0.3432  1.4747
 2537TIP3   OH229169   2.051   1.266   8.649  0.7372  0.2143 -0.8552
 2537TIP3    H129170   2.100   1.266   8.731 -0.8570 -0.3934  0.1538
 2537TIP3    H229171   2.029   1.174   8.634 -0.8287  0.5409 -0.7706
 2538TIP3   OH229172   4.710   1.841   8.552 -0.3739  0.4425 -0.3747
 2538TIP3    H129173   4.733   1.933   8.556 -0.6997  0.4839  1.6731
 2538TIP3    H229174   4.626   1.839   8.505  0.7480  0.8853 -2.5308
 2539TIP3   OH229175   2.673   3.376   2.565 -0.0013  0.0512  0.1302
 2539TIP3    H129176   2.640   3.465   2.555  0.7406  0.5573  1.8066
 2539TIP3    H229177   2.686   3.365   2.659  1.0439 -1.4185 -0.1400
 2540TIP3   OH229178   5.618   0.330   8.208  0.1729 -0.0960  0.2745
 2540TIP3    H129179   5.579   0.415   8.229  1.4947  0.2335  1.6033
 2540TIP3    H229180   5.713   0.345   8.216  0.4206 -1.7509  0.7328
 2541TIP3   OH229181   0.965   1.233   0.198  0.0253  0.0635  0.0436
 2541TIP3    H129182   1.004   1.320   0.204 -1.0410  0.6010 -0.5259
 2541TIP3    H229183   1.038   1.175   0.178  0.3262  1.3196 -3.0458
 2542TIP3   OH229184   3.552   5.276   0.494  0.0481  0.3755 -0.4949
 2542TIP3    H129185   3.556   5.312   0.405 -1.2454 -0.4126 -0.8985
 2542TIP3    H229186   3.484   5.209   0.490 -0.6547  0.9194  1.3149
 2543TIP3   OH229187   4.938   2.992   7.171 -0.1786  0.2818  0.9381
 2543TIP3    H129188   4.987   3.040   7.104  1.4991 -0.6851  1.4131
 2543TIP3    H229189   4.883   2.931   7.121 -1.8781  2.1658  0.3595
 2544TIP3   OH229190   2.785   5.834   0.848 -0.2373  0.1734 -0.3786
 2544TIP3    H129191   2.816   5.825   0.938 -1.3188  1.0808  0.1120
 2544TIP3    H229192   2.711   5.774   0.842  0.4191 -0.5972 -0.9725
 2545TIP3   OH229193   4.085   0.074   3.168 -0.3789 -0.4133  0.6861
 2545TIP3    H129194   4.022   0.143   3.190  0.0482  0.1625  0.1043
 2545TIP3    H229195   4.084   0.070   3.072  2.1147  1.1544  0.5292
 2546TIP3   OH229196   0.094   5.252   1.138 -0.0162  0.4025 -0.1921
 2546TIP3    H129197   0.183   5.274   1.111 -0.2699  0.8555 -0.6775
 2546TIP3    H229198   0.048   5.231   1.057 -1.0749  2.8316 -0.3222
 2547TIP3   OH229199   5.713   3.843   6.667 -0.4469  0.1661  0.3478
 2547TIP3    H129200   5.708   3.923   6.614 -2.1660 -0.4291 -0.4643
 2547TIP3    H229201   5.637   3.847   6.724 -2.0716 -2.0152 -1.4638
 2548TIP3   OH229202   3.349   3.920   2.959  0.2797 -0.1244 -0.0111
 2548TIP3    H129203   3.302   3.882   2.886 -0.3271  0.9137 -0.1798
 2548TIP3    H229204   3.441   3.918   2.932 -0.0904  1.9312 -1.6277
 2549TIP3   OH229205   1.881   2.075   2.071 -0.7111 -0.1720 -0.0874
 2549TIP3    H129206   1.897   1.989   2.031 -0.5333  0.1799 -0.7800
 2549TIP3    H229207   1.811   2.059   2.135 -0.9873 -0.7444 -0.5228
 2550TIP3   OH229208   1.097   5.555   1.981  0.7093 -0.0261 -0.1264
 2550TIP3    H129209   1.115   5.557   1.887 -0.8421  0.7643 -0.4412
 2550TIP3    H229210   1.003   5.535   1.987  1.0146 -1.2713  1.3095
 2551TIP3   OH229211   3.529   6.711   2.835  0.1146  0.5047 -0.3090
 2551TIP3    H129212   3.591   6.780   2.858  0.2918 -0.3823  2.1868
 2551TIP3    H229213   3.565   6.632   2.874 -2.6937  0.0202  1.6153
 2552TIP3   OH229214   6.484   5.265   7.803  0.1088  0.2817  0.0068
 2552TIP3    H129215   6.457   5.207   7.874  0.6572 -1.7941 -1.3787
 2552TIP3    H229216   6.565   5.305   7.834  1.9992 -2.8524 -0.4276
 2553TIP3   OH229217   3.281   3.360   1.566 -0.5530  0.2477 -0.6587
 2553TIP3    H129218   3.292   3.367   1.471  1.7019 -2.1209 -0.6812
 2553TIP3    H229219   3.355   3.409   1.602 -1.1335  0.7348 -0.1114
 2554TIP3   OH229220   1.585   3.631   6.919  0.6222 -0.2065  0.4168
 2554TIP3    H129221   1.614   3.542   6.897 -0.0146 -0.4749  0.6306
 2554TIP3    H229222   1.666   3.680   6.934  0.9624 -0.9674  1.1517
 2555TIP3   OH229223   4.598   6.217   0.239 -0.1998  0.4297  0.4339
 2555TIP3    H129224   4.581   6.185   0.328  0.0841 -0.3423  0.2120
 2555TIP3    H229225   4.656   6.292   0.252  2.3990 -1.4926  0.7815
 2556TIP3   OH229226   2.399   3.607   1.924 -0.4641 -0.5165 -0.3807
 2556TIP3    H129227   2.333   3.538   1.938  0.9721 -1.6346  1.2248
 2556TIP3    H229228   2.457   3.600   2.000  0.3764  1.7517 -0.7609
 2557TIP3   OH229229   1.423   6.836   2.004 -0.2698 -0.1699 -0.1963
 2557TIP3    H129230   1.506   6.833   2.053 -0.0484 -1.0677 -0.6027
 2557TIP3    H229231   1.449   6.858   1.915 -0.4710 -0.4314 -0.3192
 2558TIP3   OH229232   3.757   6.415   1.760 -0.1749 -1.0135 -0.0288
 2558TIP3    H129233   3.684   6.435   1.819 -0.6175 -0.5244 -0.7191
 2558TIP3    H229234   3.764   6.320   1.761 -2.7827 -1.3526 -2.1754
 2559TIP3   OH229235   3.554   1.373   6.970  0.0712  0.0646 -0.2387
 2559TIP3    H129236   3.529   1.282   6.985  1.0975 -0.6330 -2.3375
 2559TIP3    H229237   3.476   1.423   6.992 -0.3366 -1.2328  1.5414
 2560TIP3   OH229238   4.427   4.718   0.656 -0.0691 -0.0346 -0.3598
 2560TIP3    H129239   4.411   4.635   0.701 -0.2974  0.8190  1.2071
 2560TIP3    H229240   4.518   4.713   0.627  0.5511 -0.0645  1.4785
 2561TIP3   OH229241   5.028   2.922   6.655  0.4417  0.0571 -0.0370
 2561TIP3    H129242   4.937   2.898   6.637  0.3783  0.8600 -0.8860
 2561TIP3    H229243   5.080   2.851   6.617  0.1803 -0.2823  0.2337
 2562TIP3   OH229244   2.556   0.864   1.335  0.3989 -0.0228  0.0623
 2562TIP3    H129245   2.522   0.950   1.359 -0.5037 -1.1531  3.4633
 2562TIP3    H229246   2.651   0.874   1.336  0.2992  1.3343 -1.5383
 2563TIP3   OH229247   6.281   3.837   0.784  0.3677  0.8312  0.3930
 2563TIP3    H129248   6.326   3.878   0.710  1.3091  0.9560  1.0152
 2563TIP3    H229249   6.247   3.910   0.835 -1.0306  0.7255 -0.3498
 2564TIP3   OH229250   3.905   1.242   1.344 -0.7111  0.1440 -0.0170
 2564TIP3    H129251   3.870   1.246   1.433  0.4720  2.2448  0.4160
 2564TIP3    H229252   3.950   1.158   1.339  2.0122  1.2876  2.5371
 2565TIP3   OH229253   6.723   2.407   1.567 -0.5779 -0.3113  0.6428
 2565TIP3    H129254   6.775   2.460   1.628 -1.9261  0.8449  0.8419
 2565TIP3    H229255   6.784   2.385   1.497  0.2945  0.6356  1.0789
 2566TIP3   OH229256   5.535   2.957   0.773 -0.7626  0.4272  0.0966
 2566TIP3    H129257   5.553   2.940   0.865 -1.3379 -2.1168 -0.1807
 2566TIP3    H229258   5.473   2.889   0.748  1.0050 -0.3314 -2.6845
 2567TIP3   OH229259   3.245   0.859   6.914 -0.6428  0.2843 -0.1697
 2567TIP3    H129260   3.223   0.911   6.837 -0.2994  1.8353  0.7282
 2567TIP3    H229261   3.216   0.912   6.988 -1.2312 -1.3006  0.7756
 2568TIP3   OH229262   2.988   1.109   7.829  0.4511 -0.2521 -0.1832
 2568TIP3    H129263   2.974   1.014   7.837  1.4998 -0.5852 -2.0185
 2568TIP3    H229264   3.081   1.119   7.813  0.0181  0.9001 -2.3340
 2569TIP3   OH229265   5.662   2.647   1.602  0.2678 -0.4026  0.5488
 2569TIP3    H129266   5.648   2.621   1.693  0.8527 -0.3548  0.6559
 2569TIP3    H229267   5.754   2.671   1.598 -0.2018  1.5515  0.4324
 2570TIP3   OH229268   3.864   4.764   1.123  0.0650 -0.0513 -0.1509
 2570TIP3    H129269   3.937   4.808   1.080  2.5630 -2.0498  1.6871
 2570TIP3    H229270   3.854   4.681   1.077 -0.6326 -0.0848  0.0384
 2571TIP3   OH229271   5.024   5.099   0.520 -0.1114 -0.3449  0.1375
 2571TIP3    H129272   5.117   5.119   0.519 -0.2048  0.1417 -0.8797
 2571TIP3    H229273   4.983   5.177   0.559 -0.1202 -0.4279  0.2952
 2572TIP3   OH229274   5.415   6.606   1.923 -0.7110  0.2099 -0.1200
 2572TIP3    H129275   5.403   6.554   1.843 -0.3734  0.5735 -0.4095
 2572TIP3    H229276   5.332   6.596   1.970 -0.4659 -1.0035  0.0771
 2573TIP3   OH229277   5.975   2.946   1.755 -0.4339 -0.2670 -0.0292
 2573TIP3    H129278   5.888   2.951   1.795 -0.8597  2.2874 -1.0405
 2573TIP3    H229279   5.966   2.879   1.687 -1.0017 -1.4570  1.1790
 2574TIP3   OH229280   2.363   3.373   2.499 -0.2552 -0.3158 -0.2872
 2574TIP3    H129281   2.350   3.430   2.423  0.4026 -0.6840 -0.6973
 2574TIP3    H229282   2.419   3.423   2.557 -0.4160 -0.1941 -0.2379
 2575TIP3   OH229283   6.752   6.502   0.787 -0.2128 -0.5445 -0.4038
 2575TIP3    H129284   6.684   6.508   0.720 -0.2644 -1.1039 -0.4056
 2575TIP3    H229285   6.834   6.502   0.738 -0.2026  0.1938 -0.3981
 2576TIP3   OH229286   2.229   4.373   0.235  0.3474  0.7280  0.2833
 2576TIP3    H129287   2.315   4.405   0.206  0.6181 -0.2666 -0.0526
 2576TIP3    H229288   2.186   4.346   0.154  0.0577  0.3963  0.5482
 2577TIP3   OH229289   3.613   4.893   0.243  0.7791 -0.2107 -0.6838
 2577TIP3    H129290   3.595   4.929   0.330  0.4478 -0.4852 -0.6387
 2577TIP3    H229291   3.544   4.930   0.188  0.7117 -0.4098 -0.7329
 2578TIP3   OH229292   6.577   3.716   1.150  1.0645  0.4918 -0.1264
 2578TIP3    H129293   6.562   3.683   1.061  1.2174  0.6189 -0.1993
 2578TIP3    H229294   6.489   3.720   1.189  1.0296  0.1277 -0.1616
 2579TIP3   OH229295   2.204   0.440   2.032 -0.1786  0.0407  0.1558
 2579TIP3    H129296   2.247   0.426   2.116  0.7088  0.4522 -0.2129
 2579TIP3    H229297   2.111   0.451   2.053  0.1959  1.4555  1.2435
 2580TIP3   OH229298   0.598   6.617   8.319  0.1343  0.3923  0.5236
 2580TIP3    H129299   0.531   6.675   8.281 -1.0671 -1.3372 -0.1213
 2580TIP3    H229300   0.554   6.575   8.392  0.3138 -1.1528 -0.2200
 2581TIP3   OH229301   3.288   0.179   6.977  0.5226 -0.1921 -0.7237
 2581TIP3    H129302   3.340   0.237   7.032 -2.3566 -0.0433  2.1386
 2581TIP3    H229303   3.226   0.237   6.933 -0.5438 -0.7572 -0.0176
 2582TIP3   OH229304   4.503   4.814   1.768  0.0924 -0.1881 -0.0335
 2582TIP3    H129305   4.475   4.776   1.685  0.9099 -1.0713  0.0788
 2582TIP3    H229306   4.459   4.899   1.772 -0.4806 -0.4259 -1.0518
 2583TIP3   OH229307   1.953   3.191   8.422 -0.1359 -0.4980 -0.2044
 2583TIP3    H129308   2.030   3.186   8.480 -0.5082 -1.0881  0.2489
 2583TIP3    H229309   1.902   3.263   8.457 -0.3409 -0.8291  0.1874
 2584TIP3   OH229310   6.379   3.051   7.759 -0.1207 -0.0820 -0.6521
 2584TIP3    H129311   6.294   3.044   7.716 -0.6690  0.9738  0.1940
 2584TIP3    H229312   6.420   3.127   7.717 -1.1376  1.6875  1.3677
 2585TIP3   OH229313   6.209   4.015   2.473  0.3025  0.1397 -0.3934
 2585TIP3    H129314   6.120   4.036   2.443 -0.4979  0.5602  2.0164
 2585TIP3    H229315   6.213   3.919   2.468  0.1689  0.1829 -1.6338
 2586TIP3   OH229316   1.273   0.758   2.543  0.0136 -0.5665  0.2685
 2586TIP3    H129317   1.187   0.716   2.543 -0.2669 -0.0078  0.1858
 2586TIP3    H229318   1.267   0.824   2.613  0.3073 -0.3971  0.1338
 2587TIP3   OH229319   3.845   2.253   7.988  0.5718 -0.2556  0.0324
 2587TIP3    H129320   3.831   2.274   7.896 -1.9032 -0.8371  0.2050
 2587TIP3    H229321   3.917   2.191   7.988  2.5554  1.9114 -1.1955
 2588TIP3   OH229322   2.693   5.086   1.501 -0.6132  0.1352  0.2842
 2588TIP3    H129323   2.625   5.083   1.433  0.7397  0.3829 -1.1496
 2588TIP3    H229324   2.645   5.078   1.583 -2.3353 -0.0977 -0.6843
 2589TIP3   OH229325   3.551   6.400   0.965 -0.2326  0.3242 -0.7307
 2589TIP3    H129326   3.634   6.374   1.005  0.1150  1.3317 -0.7755
 2589TIP3    H229327   3.490   6.330   0.990  0.5205 -0.2200 -0.3537
 2590TIP3   OH229328   0.917   6.420   8.601 -0.1184  0.4127  0.0681
 2590TIP3    H129329   0.896   6.399   8.691 -0.1449 -1.1825 -0.2852
 2590TIP3    H229330   0.876   6.350   8.549  1.0843  0.5019 -1.0638
 2591TIP3   OH229331   1.604   1.835   0.960  0.1140 -0.2102 -0.1666
 2591TIP3    H129332   1.555   1.883   1.027  0.2420  2.8845 -2.0912
 2591TIP3    H229333   1.695   1.859   0.975  0.1731  0.2806 -1.1755
 2592TIP3   OH229334   5.405   3.231   1.134 -0.1400 -0.4594 -0.7137
 2592TIP3    H129335   5.445   3.317   1.148 -1.4577 -0.0965  1.3983
 2592TIP3    H229336   5.314   3.250   1.109 -0.2694 -1.2375 -0.8659
 2593TIP3   OH229337   5.479   2.712   0.402  0.0017  0.0549  0.6241
 2593TIP3    H129338   5.442   2.649   0.339 -0.6753  0.4359  0.6366
 2593TIP3    H229339   5.443   2.686   0.486  0.7859 -0.3578  0.8409
 2594TIP3   OH229340   5.712   3.571   1.923  0.0764 -0.1837  0.9714
 2594TIP3    H129341   5.778   3.615   1.975  1.9418 -1.5530 -0.0916
 2594TIP3    H229342   5.739   3.586   1.832 -0.5911 -1.4708  0.5344
 2595TIP3   OH229343   4.151   2.417   2.246  0.2616  0.2661  0.2317
 2595TIP3    H129344   4.210   2.366   2.301  0.1410 -1.0710 -0.8249
 2595TIP3    H229345   4.189   2.412   2.159 -1.2832 -0.4505 -0.4307
 2596TIP3   OH229346   6.511   6.483   2.082  0.5674  0.1738  0.6257
 2596TIP3    H129347   6.502   6.470   2.177  0.9012 -0.3241  0.5909
 2596TIP3    H229348   6.554   6.568   2.074 -0.8910  0.9811  0.8710
 2597TIP3   OH229349   4.422   3.715   7.280 -0.7505  0.0639  0.2417
 2597TIP3    H129350   4.471   3.711   7.198 -2.9388 -0.8419 -1.1165
 2597TIP3    H229351   4.488   3.731   7.347  1.3666 -1.0769 -1.4564
 2598TIP3   OH229352   2.224   1.571   8.433 -0.3652 -0.0179 -0.3119
 2598TIP3    H129353   2.251   1.621   8.510  0.5611  0.1112 -0.7004
 2598TIP3    H229354   2.159   1.626   8.390 -1.3108 -0.3435  0.6691
 2599TIP3   OH229355   2.342   3.191   8.383 -0.0662  0.2412 -0.4141
 2599TIP3    H129356   2.400   3.224   8.315  0.5328 -1.5526 -0.8466
 2599TIP3    H229357   2.330   3.098   8.361 -1.7582  0.1702  0.6188
 2600TIP3   OH229358   4.205   3.366   7.599  0.7916 -0.2546 -0.0899
 2600TIP3    H129359   4.215   3.456   7.568 -1.1244  1.4689  3.6004
 2600TIP3    H229360   4.123   3.336   7.559  0.9384 -0.0075 -0.5813
 2601TIP3   OH229361   4.750   5.460   1.493  0.3539  0.6561 -0.4477
 2601TIP3    H129362   4.710   5.381   1.530 -3.3245  2.8619  0.7182
 2601TIP3    H229363   4.719   5.463   1.403 -1.4886  1.8850  0.1846
 2602TIP3   OH229364   2.567   3.613   2.525  0.1359 -0.0349  0.3658
 2602TIP3    H129365   2.504   3.674   2.563  1.1739 -0.2200  2.4954
 2602TIP3    H229366   2.601   3.659   2.448  0.6553  1.9866  1.7171
 2603TIP3   OH229367   6.250   6.064   2.776 -0.0577 -0.1197 -0.0429
 2603TIP3    H129368   6.298   6.143   2.801  0.8587 -0.1807 -1.5037
 2603TIP3    H229369   6.169   6.095   2.736 -0.0066  0.0624 -0.0023
 2604TIP3   OH229370   3.304   3.513   1.351  0.0464 -0.0963  0.3311
 2604TIP3    H129371   3.315   3.607   1.367  1.2358 -0.5643  2.8442
 2604TIP3    H229372   3.393   3.480   1.339 -0.3159 -0.9927  0.0103
 2605TIP3   OH229373   6.388   5.168   0.303 -0.2123  0.2527  0.6072
 2605TIP3    H129374   6.300   5.162   0.265 -0.0465  0.9660  0.0955
 2605TIP3    H229375   6.439   5.215   0.237  0.2810  0.7950  1.3671
 2606TIP3   OH229376   4.932   4.579   1.507 -0.1444 -1.0510  0.0120
 2606TIP3    H129377   4.906   4.553   1.595  0.8717  0.0056  0.6548
 2606TIP3    H229378   4.856   4.559   1.452 -0.3862 -2.7561  0.9216
 2607TIP3   OH229379   6.429   0.563   8.026 -0.4169 -0.3987  0.4990
 2607TIP3    H129380   6.429   0.584   7.933  0.6430 -1.8027  0.1508
 2607TIP3    H229381   6.458   0.643   8.069  1.0567 -0.3276 -0.5644
 2608TIP3   OH229382   3.362   2.715   8.674 -0.2921 -0.7211  0.4282
 2608TIP3    H129383   3.314   2.716   8.591 -1.8692  3.0705  1.1654
 2608TIP3    H229384   3.295   2.737   8.739  1.5262 -0.4202  2.2609
 2609TIP3   OH229385   2.702   5.590   8.465 -0.2417 -0.7696  0.1141
 2609TIP3    H129386   2.757   5.513   8.480 -0.8346 -1.6015 -1.7578
 2609TIP3    H229387   2.689   5.593   8.370 -1.8157  0.5303  0.3234
 2610TIP3   OH229388   3.214   3.126   8.036  0.3084  0.2014  0.2987
 2610TIP3    H129389   3.146   3.071   8.076  1.1601 -1.0310  0.0952
 2610TIP3    H229390   3.231   3.085   7.951 -1.0077  2.4052 -1.1355
 2611TIP3   OH229391   0.850   5.394   0.124  0.1937 -0.2306 -0.1059
 2611TIP3    H129392   0.826   5.336   0.051  2.1381  1.0522 -1.8743
 2611TIP3    H229393   0.780   5.458   0.128 -1.3921 -1.9549  1.1088
 2612TIP3   OH229394   5.423   6.494   2.269  0.0162 -1.1848  0.2915
 2612TIP3    H129395   5.404   6.432   2.198  0.3949 -1.0776  0.0888
 2612TIP3    H229396   5.340   6.505   2.315 -0.4087 -0.7380 -0.5516
 2613TIP3   OH229397   4.678   0.051   8.645 -0.1705 -0.1290 -0.1428
 2613TIP3    H129398   4.585   0.053   8.671 -0.1335 -0.5291  0.0192
 2613TIP3    H229399   4.719  -0.006   8.709  0.3032  0.5236  0.1466
 2614TIP3   OH229400   1.348   0.779   0.230 -0.6629 -0.1216 -0.0217
 2614TIP3    H129401   1.287   0.841   0.272  0.0789  0.5060  0.1507
 2614TIP3    H229402   1.426   0.831   0.212 -0.5215 -0.6875 -1.0975
 2615TIP3   OH229403   6.021   4.605   0.597 -0.0633 -0.4750  0.3040
 2615TIP3    H129404   6.025   4.509   0.596 -1.3018 -0.5542  0.6777
 2615TIP3    H229405   6.013   4.630   0.505  2.4306 -0.5656 -0.0133
 2616TIP3   OH229406   4.747   1.259   8.699  0.1226  0.6375  0.2102
 2616TIP3    H129407   4.746   1.343   8.652 -1.0624  0.2131 -0.5768
 2616TIP3    H229408   4.660   1.222   8.683  1.7816 -2.5319 -2.7933
 2617TIP3   OH229409   4.488   4.278   1.257 -0.2093  0.0795 -0.6400
 2617TIP3    H129410   4.567   4.329   1.241 -0.9801  1.8478  0.8856
 2617TIP3    H229411   4.421   4.342   1.281 -1.0191 -1.6282  2.2655
 2618TIP3   OH229412   0.503   4.377   8.484 -0.3140 -0.1098  0.1030
 2618TIP3    H129413   0.469   4.453   8.437 -0.5506 -1.0686 -1.3370
 2618TIP3    H229414   0.436   4.310   8.471  0.7809 -1.1431 -0.2646
 2619TIP3   OH229415   3.378   3.464   6.900  0.6180  0.0327 -0.1725
 2619TIP3    H129416   3.422   3.536   6.856  0.4354  0.7238  0.7385
 2619TIP3    H229417   3.446   3.423   6.954  0.6074 -0.1721 -0.3128
 2620TIP3   OH229418   6.200   4.300   2.245  0.3452  0.0806 -0.0207
 2620TIP3    H129419   6.189   4.326   2.336 -1.0782  0.7341 -0.3521
 2620TIP3    H229420   6.227   4.380   2.200  1.3171 -0.3034 -0.1394
 2621TIP3   OH229421   5.578   6.050   8.481  0.2036  0.3840 -0.1143
 2621TIP3    H129422   5.490   6.014   8.478  0.7693 -1.0526 -0.2028
 2621TIP3    H229423   5.569   6.138   8.445 -1.2230  0.3463  0.0901
 2622TIP3   OH229424   5.624   5.996   7.864  0.3316 -0.2795 -0.1048
 2622TIP3    H129425   5.642   5.904   7.883 -0.9946 -0.2422  1.5378
 2622TIP3    H229426   5.583   6.030   7.943 -0.9814  1.2464 -1.3660
 2623TIP3   OH229427   5.201   0.007   1.658  0.2117  0.0675 -0.0109
 2623TIP3    H129428   5.204  -0.052   1.583  0.2803  1.8117 -1.4478
 2623TIP3    H229429   5.107   0.021   1.674  0.1841 -0.9114  0.7569
 2624TIP3   OH229430   1.819   1.750   8.667 -0.0647  0.2681  0.6767
 2624TIP3    H129431   1.739   1.755   8.615 -0.3816  0.1174  1.1472
 2624TIP3    H229432   1.810   1.669   8.717  0.3561  0.2786  0.7692
 2625TIP3   OH229433   2.353   0.711   2.065 -0.0868 -0.6666  0.0549
 2625TIP3    H129434   2.440   0.714   2.103  0.1472 -0.3462 -0.4950
 2625TIP3    H229435   2.336   0.617   2.052  0.2676 -0.7165 -0.0469
 2626TIP3   OH229436   0.559   0.928   8.681 -0.2292  0.1329 -0.3388
 2626TIP3    H129437   0.574   1.020   8.706 -2.2402  0.0569  1.4654
 2626TIP3    H229438   0.528   0.933   8.591 -0.5761  1.2707 -0.1825
 2627TIP3   OH229439   6.285   1.467   2.469  0.1018 -0.5949  0.0194
 2627TIP3    H129440   6.327   1.477   2.554 -0.7748 -2.3486  0.7119
 2627TIP3    H229441   6.220   1.536   2.466 -0.1602 -0.7850  0.9778
 2628TIP3   OH229442   0.901   1.817   8.019 -0.7762 -0.6734 -0.0701
 2628TIP3    H129443   0.835   1.817   8.088 -1.6493 -1.2595 -0.8864
 2628TIP3    H229444   0.894   1.731   7.978 -2.9816  0.8658 -3.3657
 2629TIP3   OH229445   2.742   2.522   6.732 -0.3523 -0.2022 -0.3239
 2629TIP3    H129446   2.784   2.495   6.650  0.6942 -0.3473  0.2376
 2629TIP3    H229447   2.685   2.594   6.708  1.2935  0.9614 -0.9310
 2630TIP3   OH229448   5.888   4.874   7.418 -0.3911 -0.0552 -0.2193
 2630TIP3    H129449   5.797   4.895   7.400  0.1127  1.6223 -1.0854
 2630TIP3    H229450   5.924   4.849   7.333 -0.2517 -1.7205  0.2931
 2631TIP3   OH229451   0.861   4.690   1.167 -0.0203  0.9114  0.2291
 2631TIP3    H129452   0.855   4.595   1.167  0.9948  0.8257 -0.9729
 2631TIP3    H229453   0.779   4.720   1.128 -0.7409  0.5920  1.4436
 2632TIP3   OH229454   4.489   3.219   0.300 -0.4502 -0.4017 -0.3073
 2632TIP3    H129455   4.444   3.138   0.276 -2.8978 -0.0864  2.6262
 2632TIP3    H229456   4.450   3.286   0.243 -1.4724 -0.6492  0.0812
 2633TIP3   OH229457   5.519   2.459   7.505 -0.0108  0.4083 -0.1288
 2633TIP3    H129458   5.551   2.508   7.580  1.4184  0.7184 -0.9009
 2633TIP3    H229459   5.484   2.526   7.446 -1.7176  0.1178  0.4791
 2634TIP3   OH229460   4.059   6.118   1.367 -0.6044  0.7023  0.1649
 2634TIP3    H129461   3.978   6.068   1.363 -0.2001  0.1112 -1.2883
 2634TIP3    H229462   4.080   6.138   1.276  0.2154  1.9578  0.6027
 2635TIP3   OH229463   5.555   0.929   2.091 -0.1630  0.2622  0.1354
 2635TIP3    H129464   5.537   1.011   2.137 -0.1442  1.3568 -1.7247
 2635TIP3    H229465   5.639   0.900   2.125 -0.0740  1.1225  0.6799
 2636TIP3   OH229466   3.863   2.289   7.700 -0.0437  0.2465 -0.3662
 2636TIP3    H129467   3.823   2.320   7.619 -1.6826  1.1476  0.7423
 2636TIP3    H229468   3.905   2.206   7.675 -3.1013 -1.1326 -1.5294
 2637TIP3   OH229469   0.792   6.167   1.819  0.4841  0.3362 -0.6949
 2637TIP3    H129470   0.813   6.253   1.857  0.0757 -0.0518  0.4452
 2637TIP3    H229471   0.799   6.181   1.725  3.0388  0.9564 -0.4871
 2638TIP3   OH229472   0.254   3.677   8.538  0.6681 -0.3339  0.4138
 2638TIP3    H129473   0.324   3.621   8.570 -0.2766 -1.0955  1.2140
 2638TIP3    H229474   0.179   3.619   8.528  0.5694  0.0914 -2.1398
 2639TIP3   OH229475   0.131   2.440   7.263 -1.1478 -0.0575 -0.6877
 2639TIP3    H129476   0.158   2.457   7.173  0.1676  0.0441 -0.2901
 2639TIP3    H229477   0.125   2.527   7.303 -1.0233 -0.1457 -0.4787
 2640TIP3   OH229478   6.698   1.916   8.566  0.0504 -0.1406 -0.3254
 2640TIP3    H129479   6.760   1.977   8.524 -0.4527  0.1223 -0.6984
 2640TIP3    H229480   6.727   1.829   8.537 -1.5234  0.1092 -3.0102
 2641TIP3   OH229481   0.060   0.701   1.968 -0.1464  0.7996  0.2835
 2641TIP3    H129482   0.147   0.735   1.945 -0.2519  2.3277  1.9209
 2641TIP3    H229483   0.031   0.654   1.889  1.6421  1.2702 -0.7183
 2642TIP3   OH229484   2.656   5.687   2.458 -0.2347  0.0975  0.1236
 2642TIP3    H129485   2.583   5.664   2.516 -0.5832  0.1970 -0.2715
 2642TIP3    H229486   2.614   5.717   2.377  0.2546 -0.1871 -0.2379
 2643TIP3   OH229487   1.565   0.754   1.118  0.2561  0.2505 -0.2364
 2643TIP3    H129488   1.587   0.840   1.155 -0.9093  0.5558 -0.2308
 2643TIP3    H229489   1.642   0.730   1.067  1.1837  0.6267  0.9360
 2644TIP3   OH229490   6.690   6.631   7.856 -0.7647  0.1166 -0.3961
 2644TIP3    H129491   6.683   6.712   7.907 -0.4352 -0.5978  0.8368
 2644TIP3    H229492   6.739   6.656   7.778 -1.2826  1.2487 -0.3788
 2645TIP3   OH229493   0.287   0.468   8.419  0.1688  0.1231  0.6001
 2645TIP3    H129494   0.324   0.500   8.336  0.2192  0.5816  0.7948
 2645TIP3    H229495   0.198   0.504   8.421 -0.9360 -2.3336 -0.6506
 2646TIP3   OH229496   5.861   5.177   0.263  0.1823  0.8052  0.0661
 2646TIP3    H129497   5.902   5.215   0.341 -0.3114 -0.4768  0.9817
 2646TIP3    H229498   5.841   5.087   0.287  0.5985  0.1721 -1.7770
 2647TIP3   OH229499   1.306   1.136   2.984  0.9018  0.0474 -0.2123
 2647TIP3    H129500   1.284   1.050   3.021 -0.9232  0.5733  0.0199
 2647TIP3    H229501   1.402   1.136   2.980  1.0184 -1.3404  1.3549
 2648TIP3   OH229502   5.218   3.970   8.366 -0.6321  0.0599 -0.1130
 2648TIP3    H129503   5.176   4.043   8.412 -2.3081 -0.7540 -0.2764
 2648TIP3    H229504   5.172   3.892   8.398  0.9742 -0.9257 -0.0970
 2649TIP3   OH229505   1.540   1.768   8.550 -0.3443  0.7944 -0.1116
 2649TIP3    H129506   1.446   1.763   8.530 -0.4912  1.3564  0.4034
 2649TIP3    H229507   1.561   1.861   8.540  0.0057  0.7748  0.4357
 2650TIP3   OH229508   6.746   5.772   1.381  0.0239  0.6900 -0.4349
 2650TIP3    H129509   6.662   5.813   1.396 -0.1324  0.4771 -0.7200
 2650TIP3    H229510   6.808   5.823   1.434 -0.6030 -0.4315  1.4724
 2651TIP3   OH229511   2.174   0.128   2.067 -0.2443  1.4703  0.3969
 2651TIP3    H129512   2.215   0.207   2.031  1.0215  0.0421 -1.4496
 2651TIP3    H229513   2.130   0.088   1.992 -2.3320  1.2354  1.6556
 2652TIP3   OH229514   6.611   4.380   1.080  0.3287  0.1629  0.4604
 2652TIP3    H129515   6.541   4.324   1.114  0.5868  0.2004  1.0703
 2652TIP3    H229516   6.595   4.384   0.986  0.3902 -1.0576  0.3800
 2653TIP3   OH229517   0.643   6.270   8.369 -0.2143 -0.2424 -0.4142
 2653TIP3    H129518   0.674   6.224   8.447  0.0390 -0.4920 -0.6613
 2653TIP3    H229519   0.607   6.352   8.402 -0.4230 -0.4987  0.0030
 2654TIP3   OH229520   2.283   6.123   1.052 -0.0196  0.4569 -0.5691
 2654TIP3    H129521   2.191   6.108   1.072 -0.0738  2.2283  0.6820
 2654TIP3    H229522   2.324   6.037   1.066 -1.3408 -0.1740 -0.3967
 2655TIP3   OH229523   0.450   5.737   0.934  0.3962  0.1236  0.3768
 2655TIP3    H129524   0.397   5.676   0.882  1.1834 -0.4989  0.2816
 2655TIP3    H229525   0.524   5.759   0.877 -0.1178  1.5700  0.2212
 2656TIP3   OH229526   1.505   6.500   1.552  0.0242  0.4163 -0.1124
 2656TIP3    H129527   1.531   6.580   1.506  3.2343  0.2278  1.0845
 2656TIP3    H229528   1.512   6.523   1.645 -0.7533 -0.7788  0.2671
 2657TIP3   OH229529   5.039   4.574   1.170  0.0068  0.1844  0.1624
 2657TIP3    H129530   5.093   4.651   1.185 -0.6296  0.9729 -1.3303
 2657TIP3    H229531   4.964   4.608   1.120 -0.5765 -1.2970  0.0003
 2658TIP3   OH229532   0.870   3.239   2.193  0.0001  0.4106 -0.4992
 2658TIP3    H129533   0.949   3.185   2.201 -0.5320 -0.2018  0.9711
 2658TIP3    H229534   0.801   3.177   2.169 -0.6997  0.2978  1.5873
 2659TIP3   OH229535   6.458   4.731   8.073 -0.1920 -0.0014 -0.3272
 2659TIP3    H129536   6.429   4.764   8.158 -0.3943 -0.1906 -0.3230
 2659TIP3    H229537   6.526   4.792   8.046 -0.1545  0.0804 -0.0472
 2660TIP3   OH229538   1.926   3.155   0.348  0.0181  0.1932  0.3680
 2660TIP3    H129539   2.015   3.130   0.322  0.4463  1.1298  0.8760
 2660TIP3    H229540   1.873   3.140   0.270 -0.0435 -3.4394  0.9429
 2661TIP3   OH229541   5.373   2.767   1.864  0.4899 -0.6316  0.1312
 2661TIP3    H129542   5.392   2.853   1.826  0.7954 -1.2385 -1.1200
 2661TIP3    H229543   5.279   2.755   1.849  0.1350  0.0932  1.6134
 2662TIP3   OH229544   6.789   5.001   7.579  0.2212  0.1810 -0.3186
 2662TIP3    H129545   6.815   4.956   7.498 -1.0210 -3.9128  1.3138
 2662TIP3    H229546   6.868   5.000   7.633 -0.2159 -1.9502  0.3885
 2663TIP3   OH229547   5.296   5.972   8.455 -0.3125  0.2060 -0.1620
 2663TIP3    H129548   5.267   6.061   8.434 -1.3337 -0.4170 -1.5668
 2663TIP3    H229549   5.215   5.923   8.471  0.1865 -0.6735 -0.2605
 2664TIP3   OH229550   5.571   2.269   0.697  0.9243 -0.3647  0.1685
 2664TIP3    H129551   5.593   2.352   0.654  0.1045  0.6333  1.5711
 2664TIP3    H229552   5.609   2.202   0.641  0.1766  0.8628 -1.9156
 2665TIP3   OH229553   4.688   6.028   1.733  0.4807 -0.1844  0.5649
 2665TIP3    H129554   4.740   5.979   1.798  1.4454  1.8362  1.4056
 2665TIP3    H229555   4.701   6.119   1.757 -1.7513  0.4925 -0.5781
 2666TIP3   OH229556   0.759   4.754   7.916 -0.2399 -0.4899  0.2179
 2666TIP3    H129557   0.734   4.679   7.863  1.0189 -0.9955  0.3084
 2666TIP3    H229558   0.802   4.717   7.994 -0.6265  0.2834  0.8202
 2667TIP3   OH229559   4.780   5.461   0.415  0.1525 -0.5120 -0.1324
 2667TIP3    H129560   4.829   5.490   0.338 -0.1245  0.8708  0.1935
 2667TIP3    H229561   4.691   5.447   0.382 -0.4059  1.8137  0.2514
 2668TIP3   OH229562   5.860   0.085   8.527 -0.3155  0.2516  0.4986
 2668TIP3    H129563   5.830   0.175   8.542  0.3289  0.6859 -0.6953
 2668TIP3    H229564   5.878   0.081   8.433  1.1859 -0.6475  0.7958
 2669TIP3   OH229565   6.548   4.044   0.186 -0.0801 -0.3651 -0.4519
 2669TIP3    H129566   6.556   4.038   0.091  0.1297  1.6625 -0.5916
 2669TIP3    H229567   6.457   4.021   0.205  0.0085 -1.2737 -1.0670
 2670TIP3   OH229568   6.727   5.805   0.837  0.3684 -0.1271  0.0883
 2670TIP3    H129569   6.674   5.778   0.912 -1.6953  1.3778 -0.7154
 2670TIP3    H229570   6.809   5.836   0.874 -0.4670  0.2391  1.6932
 2671TIP3   OH229571   1.253   2.725   7.525  0.0647 -0.2008  0.0666
 2671TIP3    H129572   1.324   2.780   7.492  1.5795 -1.0941  1.6597
 2671TIP3    H229573   1.284   2.693   7.610 -1.9590 -1.2075  0.5000
 2672TIP3   OH229574   3.513   6.607   8.458  0.6825 -0.1719  0.3011
 2672TIP3    H129575   3.509   6.687   8.406 -0.0121 -0.1668  0.3634
 2672TIP3    H229576   3.428   6.565   8.445  0.3033  0.0771  1.8044
 2673TIP3   OH229577   3.141   1.471   1.967 -0.1595 -0.3782  0.0979
 2673TIP3    H129578   3.233   1.484   1.986  0.1080 -1.4390 -0.3625
 2673TIP3    H229579   3.097   1.474   2.052 -0.0566  2.4188  0.1378
 2674TIP3   OH229580   4.023   5.573   8.414  0.0451  0.3588  0.3213
 2674TIP3    H129581   4.094   5.520   8.377  1.1920  1.8052  0.3392
 2674TIP3    H229582   4.064   5.621   8.486 -0.9194  1.3118  0.2631
 2675TIP3   OH229583   0.382   2.354   1.434 -0.1336 -0.3580 -0.2664
 2675TIP3    H129584   0.455   2.401   1.474 -1.3897  2.0264 -0.6255
 2675TIP3    H229585   0.409   2.339   1.344 -0.2471  0.9207 -0.5217
 2676TIP3   OH229586   4.220   4.043   0.738  0.0680 -0.5722  0.0696
 2676TIP3    H129587   4.201   4.021   0.829  3.1795 -0.4058  0.8855
 2676TIP3    H229588   4.315   4.052   0.735 -0.0484  0.9804 -2.8723
 2677TIP3   OH229589   2.496   6.460   7.301 -0.3156 -0.1299  0.2669
 2677TIP3    H129590   2.438   6.390   7.331  0.4967 -1.7114 -1.5830
 2677TIP3    H229591   2.437   6.529   7.270 -1.1383 -0.3162  1.3678
 2678TIP3   OH229592   4.553   2.650   1.312 -0.0262  0.5333  0.0356
 2678TIP3    H129593   4.583   2.564   1.283 -1.1018 -0.2916  1.2762
 2678TIP3    H229594   4.469   2.662   1.269 -1.1667 -0.2705  1.9302
 2679TIP3   OH229595   1.606   2.062   7.748  0.1240 -0.1822 -0.5149
 2679TIP3    H129596   1.520   2.024   7.726 -0.6897  0.1144  1.8935
 2679TIP3    H229597   1.666   2.024   7.683 -1.6527 -1.0839 -1.7167
 2680TIP3   OH229598   1.661   4.521   7.198  0.1422 -0.4238 -0.9846
 2680TIP3    H129599   1.739   4.574   7.185  0.2976 -0.4299 -0.1256
 2680TIP3    H229600   1.692   4.431   7.191  0.4704 -0.4617  0.5833
 2681TIP3   OH229601   2.594   1.404   1.997 -0.8711  0.2988  0.6600
 2681TIP3    H129602   2.592   1.320   2.042  0.2256 -0.2162 -0.1968
 2681TIP3    H229603   2.562   1.468   2.061  0.4617 -0.4253  2.0857
 2682TIP3   OH229604   0.240   5.151   1.858  0.0025 -0.1989  0.0475
 2682TIP3    H129605   0.292   5.094   1.915  0.7646 -0.3251 -0.7469
 2682TIP3    H229606   0.305   5.191   1.799 -0.6975  0.3755 -0.3420
 2683TIP3   OH229607   5.714   2.680   8.279  0.3892 -0.0677 -0.4083
 2683TIP3    H129608   5.622   2.657   8.263  0.6780 -1.3414 -0.3288
 2683TIP3    H229609   5.719   2.693   8.374  0.0579  1.1398 -0.5438
 2684TIP3   OH229610   2.027   5.495   0.270  0.8707  0.1958  0.6714
 2684TIP3    H129611   2.061   5.407   0.255  1.6292 -0.0589  3.3091
 2684TIP3    H229612   1.982   5.489   0.355 -0.4438  1.9933  0.1622
 2685TIP3   OH229613   2.406   0.547   1.464  0.3000  0.1292  0.0141
 2685TIP3    H129614   2.477   0.567   1.525 -0.4576  2.8087  0.1525
 2685TIP3    H229615   2.390   0.454   1.475  1.7474  0.0681  2.1928
 2686TIP3   OH229616   6.236   1.994   7.795  0.0108  0.2956  0.4240
 2686TIP3    H129617   6.166   1.967   7.855 -0.1862  0.5010  0.2903
 2686TIP3    H229618   6.226   2.089   7.789 -0.8851  0.1363 -1.0406
 2687TIP3   OH229619   5.926   2.321   8.437  0.3428 -0.6196  0.2543
 2687TIP3    H129620   5.976   2.244   8.408  0.6429 -0.9639  1.6231
 2687TIP3    H229621   5.917   2.309   8.532 -0.9723  0.2511  0.2535
 2688TIP3   OH229622   5.854   4.960   0.718 -0.7468  0.0602 -0.0683
 2688TIP3    H129623   5.775   5.009   0.739 -0.6928 -0.9965  3.2530
 2688TIP3    H229624   5.823   4.875   0.688 -0.8674  0.2753 -0.5483
 2689TIP3   OH229625   2.512   5.922   0.593  0.6456 -0.0175 -0.1898
 2689TIP3    H129626   2.494   5.960   0.679  0.5829 -1.6189  0.5547
 2689TIP3    H229627   2.510   5.996   0.532  2.4748  1.4328  1.4092
 2690TIP3   OH229628   1.998   0.803   2.818  0.0964  0.3629  0.0207
 2690TIP3    H129629   2.021   0.887   2.858  2.2702 -0.5028  0.7537
 2690TIP3    H229630   2.082   0.763   2.797 -0.9196 -1.0260 -1.6555
 2691TIP3   OH229631   2.935   2.205   2.143  0.4039  0.0566  0.3694
 2691TIP3    H129632   2.895   2.161   2.218 -0.3938 -2.5316 -1.4635
 2691TIP3    H229633   2.861   2.224   2.084  0.8740  2.9506  0.5276
 2692TIP3   OH229634   3.063   0.111   8.149 -0.8033 -0.0976  0.9719
 2692TIP3    H129635   3.002   0.165   8.200 -2.1842 -1.6082  1.0015
 2692TIP3    H229636   3.029   0.113   8.060  0.2801  0.6584  0.5563
 2693TIP3   OH229637   0.038   3.443   0.378  0.2570  0.2576  0.2764
 2693TIP3    H129638  -0.035   3.483   0.425  1.2033  1.5799  0.6854
 2693TIP3    H229639   0.055   3.362   0.427 -2.0368 -1.0431 -0.8963
 2694TIP3   OH229640   3.031   0.291   7.411  0.0369 -0.0423  0.0426
 2694TIP3    H129641   3.010   0.208   7.368 -1.0769 -0.3829  1.1857
 2694TIP3    H229642   2.956   0.347   7.394 -0.2932 -0.0842  1.2440
 2695TIP3   OH229643   3.710   1.763   0.698  0.1722 -0.1857  0.0378
 2695TIP3    H129644   3.681   1.851   0.675  0.5587 -0.1340 -0.2652
 2695TIP3    H229645   3.693   1.755   0.792 -0.9363 -0.2104 -0.1520
 2696TIP3   OH229646   6.662   2.278   6.687 -0.6402 -0.1850  0.8206
 2696TIP3    H129647   6.728   2.308   6.625 -0.7485  0.3724  0.9634
 2696TIP3    H229648   6.656   2.184   6.673 -2.6759  0.2295 -1.9951
 2697TIP3   OH229649   2.426   1.919   1.735 -0.6768  0.9266 -0.5117
 2697TIP3    H129650   2.377   1.958   1.662 -0.3415  3.1739  0.3764
 2697TIP3    H229651   2.490   1.986   1.758  0.6677 -0.6424  0.4527
 2698TIP3   OH229652   2.232   1.104   0.994  0.7121  0.2547 -0.6020
 2698TIP3    H129653   2.183   1.084   1.074 -1.0938  0.4933 -1.5999
 2698TIP3    H229654   2.223   1.026   0.940  1.1420  0.4516 -0.9689
 2699TIP3   OH229655   0.958   1.545   7.785 -0.5329 -0.5915  0.1266
 2699TIP3    H129656   1.030   1.557   7.848  0.3942 -1.2414 -0.7823
 2699TIP3    H229657   0.975   1.461   7.744 -2.3855 -1.2313  0.5720
 2700TIP3   OH229658   1.118   0.278   0.422  0.1621  0.2630  0.6196
 2700TIP3    H129659   1.074   0.319   0.497  2.7206 -0.2109  2.4994
 2700TIP3    H229660   1.147   0.352   0.368  1.5812  0.8636  2.1136
 2701TIP3   OH229661   4.317   5.602   1.892  0.2629  0.0935  0.0918
 2701TIP3    H129662   4.397   5.561   1.857 -0.4637  0.4700 -2.1619
 2701TIP3    H229663   4.308   5.683   1.842 -0.7944  0.7669  1.3244
 2702TIP3   OH229664   4.510   2.146   7.647 -0.1031 -0.0535  0.1238
 2702TIP3    H129665   4.552   2.060   7.642 -0.0637  0.0651 -2.8892
 2702TIP3    H229666   4.577   2.207   7.617 -1.0385  0.6539 -0.5691
 2703TIP3   OH229667   2.466   0.760   7.261 -0.2315 -0.1852 -0.5008
 2703TIP3    H129668   2.546   0.784   7.215  0.5053 -1.1955  0.2150
 2703TIP3    H229669   2.403   0.741   7.192 -0.5727  2.7315 -1.1121
 2704TIP3   OH229670   1.874   3.969   8.592 -0.1915 -0.2144 -0.1788
 2704TIP3    H129671   1.812   3.899   8.571 -0.9928 -0.0265  1.3780
 2704TIP3    H229672   1.941   3.926   8.647  0.7341 -0.2808 -1.3276
 2705TIP3   OH229673   5.286   0.194   7.883 -0.0693 -0.0625  0.1709
 2705TIP3    H129674   5.211   0.135   7.882  0.6235 -1.0479 -2.5574
 2705TIP3    H229675   5.347   0.155   7.945 -0.8910 -0.4572  0.7512
 2706TIP3   OH229676   1.355   6.514   2.614 -0.7181  0.3468 -0.2618
 2706TIP3    H129677   1.275   6.471   2.645 -0.5606  1.4188  1.8499
 2706TIP3    H229678   1.407   6.529   2.694  3.2879 -3.3931 -1.7726
 2707TIP3   OH229679   3.187   6.516   7.792 -0.7961  0.6654 -0.2379
 2707TIP3    H129680   3.185   6.422   7.772 -3.8762  0.1652  1.7954
 2707TIP3    H229681   3.123   6.555   7.732  0.3491  1.5299 -0.9613
 2708TIP3   OH229682   6.776   3.668   8.030 -0.7740 -0.9013 -0.1025
 2708TIP3    H129683   6.728   3.720   7.965 -0.1260 -1.0554 -0.7159
 2708TIP3    H229684   6.866   3.700   8.024 -0.6730 -1.0383  0.6069
 2709TIP3   OH229685   5.198   3.903   0.206  0.0573  0.6524  0.5331
 2709TIP3    H129686   5.150   3.963   0.149  0.0851 -0.2917 -0.5197
 2709TIP3    H229687   5.172   3.816   0.176  1.7219  0.1170  0.5606
 2710TIP3   OH229688   3.110   5.612   3.002  0.0682  0.1772  0.6830
 2710TIP3    H129689   3.121   5.685   3.062 -0.6009  1.6220 -0.8761
 2710TIP3    H229690   3.017   5.613   2.980  0.5642  0.8390 -1.6922
 2711TIP3   OH229691   6.462   5.290   6.807 -0.1158  0.5053 -0.4197
 2711TIP3    H129692   6.521   5.362   6.831  1.0128 -0.3765 -0.4579
 2711TIP3    H229693   6.398   5.286   6.878 -0.0345  1.3717 -0.2904
 2712TIP3   OH229694   5.118   4.185   2.386  0.0151  0.2015 -0.1537
 2712TIP3    H129695   5.091   4.274   2.408  0.4088  0.4966 -0.8484
 2712TIP3    H229696   5.192   4.196   2.327 -0.6978 -0.5787 -1.2315
 2713TIP3   OH229697   0.449   0.187   1.261 -0.2327  0.3940  0.8725
 2713TIP3    H129698   0.484   0.260   1.312  1.2104 -1.1195  2.1947
 2713TIP3    H229699   0.370   0.221   1.220  0.6152  2.7927  1.1021
 2714TIP3   OH229700   5.241   2.848   2.352  0.2647 -0.1885 -0.2225
 2714TIP3    H129701   5.302   2.814   2.286  0.1495 -0.1145 -0.3667
 2714TIP3    H229702   5.271   2.809   2.434 -0.8034 -1.8715 -0.6094
 2715TIP3   OH229703   4.470   1.391   2.682 -0.4777 -0.3472 -0.4136
 2715TIP3    H129704   4.538   1.456   2.699 -0.7428  0.2253 -1.4511
 2715TIP3    H229705   4.487   1.322   2.746  0.6004  0.1392 -0.1411
 2716TIP3   OH229706   5.706   2.832   7.404  0.5564 -1.0866 -0.3154
 2716TIP3    H129707   5.645   2.892   7.447  2.7992  0.7488  0.4877
 2716TIP3    H229708   5.661   2.748   7.405 -0.8422 -0.4428  2.7676
 2717TIP3   OH229709   4.934   1.477   2.025  0.0185  0.1278 -0.1141
 2717TIP3    H129710   4.925   1.437   1.939 -0.6463  1.8568 -0.8893
 2717TIP3    H229711   5.013   1.438   2.062  0.0015 -1.0448 -1.2599
 2718TIP3   OH229712   1.177   4.339   0.106  0.2941 -0.1902 -0.0226
 2718TIP3    H129713   1.106   4.294   0.152  1.4624 -0.0256  2.0562
 2718TIP3    H229714   1.257   4.311   0.151  1.2687  2.1492 -0.1370
 2719TIP3   OH229715   6.111   4.632   0.069 -0.1245  0.3044 -0.5813
 2719TIP3    H129716   6.157   4.556   0.035 -0.6934  0.1135 -0.9524
 2719TIP3    H229717   6.034   4.641   0.012 -1.2021 -0.1225  0.7344
 2720TIP3   OH229718   4.997   4.321   7.084  0.6008  0.0814  0.1359
 2720TIP3    H129719   4.946   4.248   7.050 -0.6676 -0.1804  2.4036
 2720TIP3    H229720   5.088   4.298   7.065  0.1813 -1.7212  0.1410
 2721TIP3   OH229721   2.191   1.863   0.846  0.4959 -0.2151  0.4173
 2721TIP3    H129722   2.239   1.914   0.781  0.6489 -1.0353 -0.1294
 2721TIP3    H229723   2.099   1.882   0.828  0.5617  2.2171  2.1590
 2722TIP3   OH229724   5.431   4.994   8.605  0.1890  0.7177 -0.4687
 2722TIP3    H129725   5.429   5.085   8.635 -0.3583  0.3559  0.6464
 2722TIP3    H229726   5.492   4.995   8.531  0.7850  1.8428  0.0049
 2723TIP3   OH229727   3.013   4.387   8.404  0.1630 -0.2576  0.4170
 2723TIP3    H129728   3.084   4.445   8.376  1.6512 -1.3385  1.7900
 2723TIP3    H229729   2.975   4.429   8.480 -0.3716  0.0713 -0.0201
 2724TIP3   OH229730   0.621   1.380   2.307 -0.7794 -0.3797 -0.1750
 2724TIP3    H129731   0.685   1.447   2.333 -2.2703  0.5091  1.4307
 2724TIP3    H229732   0.668   1.325   2.244  1.5168  0.2876  0.8461
 2725TIP3   OH229733   2.446   1.665   1.126 -0.2773 -0.2696  0.5422
 2725TIP3    H129734   2.454   1.742   1.182 -1.2884 -0.2940  0.7239
 2725TIP3    H229735   2.496   1.597   1.172 -0.0307  0.0591  0.7628
 2726TIP3   OH229736   4.492   6.145   8.399 -0.2787  0.2729  0.4455
 2726TIP3    H129737   4.416   6.167   8.453 -0.4243 -1.3963  0.9548
 2726TIP3    H229738   4.568   6.165   8.454 -0.4127 -0.7061  1.0029
 2727TIP3   OH229739   3.477   0.795   7.713  0.0777 -0.5567 -0.6322
 2727TIP3    H129740   3.511   0.733   7.648 -0.4302  0.5545 -2.0118
 2727TIP3    H229741   3.422   0.741   7.771 -2.0019 -1.1408 -2.9871
 2728TIP3   OH229742   4.993   1.271   0.105  0.2397 -0.2744 -0.3806
 2728TIP3    H129743   5.002   1.182   0.137  0.9222 -0.6235 -1.5057
 2728TIP3    H229744   4.898   1.287   0.105  0.1115 -1.0158 -0.2191
 2729TIP3   OH229745   3.233   4.549   2.001  0.3701  0.1802  0.3188
 2729TIP3    H129746   3.143   4.526   2.022  0.7684  0.0179  2.0190
 2729TIP3    H229747   3.228   4.639   1.970 -0.5602 -0.3761 -1.2418
 2730TIP3   OH229748   2.643   2.040   7.924  0.7664 -0.5421 -0.1443
 2730TIP3    H129749   2.696   1.963   7.906 -0.1923 -0.8571 -1.8038
 2730TIP3    H229750   2.600   2.060   7.841 -1.9353 -0.4725  1.1599
 2731TIP3   OH229751   4.269   1.280   0.100  0.3696 -0.0804  0.0593
 2731TIP3    H129752   4.307   1.341   0.036  1.3141  1.0956  1.6743
 2731TIP3    H229753   4.315   1.198   0.084 -0.5539 -0.2779 -1.8159
 2732TIP3   OH229754   3.094   5.780   1.851 -0.0346  0.2357 -0.3804
 2732TIP3    H129755   3.184   5.750   1.851  0.0732  0.5415  0.5267
 2732TIP3    H229756   3.071   5.787   1.758  1.3038  1.4448 -0.6547
 2733TIP3   OH229757   6.357   3.290   0.680 -0.4220  0.3063  0.1821
 2733TIP3    H129758   6.308   3.208   0.678 -0.6549  0.4526 -1.5495
 2733TIP3    H229759   6.435   3.270   0.732 -0.6588 -0.9126  0.0967
 2734TIP3   OH229760   0.894   2.211   6.963 -0.7770 -0.3053 -0.0977
 2734TIP3    H129761   0.930   2.295   6.991  0.4648 -1.0304  0.5997
 2734TIP3    H229762   0.819   2.234   6.909 -0.5226  1.2457  0.1493
 2735TIP3   OH229763   3.426   1.953   0.317  0.1286 -0.9105 -0.1917
 2735TIP3    H129764   3.376   1.973   0.237 -0.8526 -1.5178  0.2517
 2735TIP3    H229765   3.416   2.031   0.371  0.8143 -0.4877 -0.6597
 2736TIP3   OH229766   2.650   4.742   8.443  0.6866 -0.8951 -0.1189
 2736TIP3    H129767   2.715   4.698   8.388  0.9951 -0.6813  0.0727
 2736TIP3    H229768   2.680   4.728   8.533  0.6763 -0.4759 -0.0448
 2737TIP3   OH229769   5.082   6.254   1.862 -0.4777  1.1980  0.2405
 2737TIP3    H129770   5.052   6.340   1.833 -3.3133  0.3743  0.4103
 2737TIP3    H229771   5.056   6.249   1.954 -0.3667  0.1615  0.2283
 2738TIP3   OH229772   6.810   2.245   8.691 -0.7255  0.0970  0.1525
 2738TIP3    H129773   6.798   2.267   8.783 -0.4952  0.0642  0.1901
 2738TIP3    H229774   6.896   2.202   8.687 -0.9768 -0.3948  0.0095
 2739TIP3   OH229775   5.516   0.685   0.445 -0.0982  0.2604 -0.4001
 2739TIP3    H129776   5.488   0.736   0.369 -0.8713  0.1770 -0.1805
 2739TIP3    H229777   5.560   0.748   0.501 -1.2246  0.7468 -0.0373
 2740TIP3   OH229778   3.001   2.429   1.170 -0.0847 -0.2188  0.5415
 2740TIP3    H129779   3.040   2.423   1.083  1.0885 -1.2101  1.1053
 2740TIP3    H229780   3.075   2.444   1.229 -0.8391  0.2722  1.4011
 2741TIP3   OH229781   0.345   3.836   2.466 -0.1412 -0.3496  0.3530
 2741TIP3    H129782   0.342   3.932   2.470  4.0478 -0.0593  0.7179
 2741TIP3    H229783   0.353   3.808   2.557  0.0803 -0.9364  0.1590
 2742TIP3   OH229784   3.623   5.475   2.732 -1.0123  0.3281  0.3857
 2742TIP3    H129785   3.628   5.569   2.751 -0.5233  0.3633  0.1144
 2742TIP3    H229786   3.693   5.436   2.784 -0.9616  0.1667  0.1982
 2743TIP3   OH229787   6.475   4.199   7.209  0.1396  0.5055 -0.4975
 2743TIP3    H129788   6.450   4.142   7.136  0.1044  0.0411 -0.1237
 2743TIP3    H229789   6.552   4.159   7.247 -1.5131 -0.9404  1.5732
 2744TIP3   OH229790   3.492   1.268   0.319 -0.0316 -0.0742  0.2373
 2744TIP3    H129791   3.586   1.263   0.334 -0.0740  0.2609  0.6502
 2744TIP3    H229792   3.458   1.314   0.396 -0.4903  0.0983 -0.0611
 2745TIP3   OH229793   6.665   1.373   8.023 -0.1880  0.3973 -0.1178
 2745TIP3    H129794   6.652   1.426   7.944 -1.2580 -0.9993 -0.9381
 2745TIP3    H229795   6.750   1.400   8.057  0.9218  0.1348 -2.4992
 2746TIP3   OH229796   6.099   2.350   2.455 -0.3719 -0.1745 -0.0056
 2746TIP3    H129797   6.121   2.423   2.512  1.8819 -1.9414  1.6178
 2746TIP3    H229798   6.047   2.291   2.509  1.2191 -1.5607  0.1322
 2747TIP3   OH229799   2.613   5.902   7.698 -0.3019 -0.1773  0.3726
 2747TIP3    H129800   2.662   5.919   7.617  0.0003  0.6863  0.7261
 2747TIP3    H229801   2.556   5.828   7.676  0.7335 -0.8256 -0.2317
 2748TIP3   OH229802   4.905   4.862   2.135  0.1117  0.5032  0.2998
 2748TIP3    H129803   4.983   4.814   2.163  0.9512  2.1016  0.8083
 2748TIP3    H229804   4.867   4.807   2.066  1.4345 -0.5165  0.3407
 2749TIP3   OH229805   5.729   6.053   1.754  0.0607  0.0181 -0.0659
 2749TIP3    H129806   5.804   6.028   1.808  0.7145  2.1404  0.0912
 2749TIP3    H229807   5.765   6.115   1.690 -1.2006 -0.4411 -1.2705
 2750TIP3   OH229808   5.307   1.649   0.198 -0.3326 -0.4324  0.2625
 2750TIP3    H129809   5.351   1.602   0.127  0.0819  2.1917 -1.3698
 2750TIP3    H229810   5.368   1.644   0.271  1.2135  0.3105 -0.9155
 2751TIP3   OH229811   1.015   4.856   0.872  0.6396 -0.0215  0.2495
 2751TIP3    H129812   1.058   4.877   0.789 -2.7882 -0.0899 -1.7257
 2751TIP3    H229813   0.951   4.925   0.884  0.3720 -0.5830  2.3438
 2752TIP3   OH229814   3.141   3.362   7.264 -0.3588 -0.0379 -0.0314
 2752TIP3    H129815   3.180   3.301   7.202 -1.2281 -0.2925 -0.3410
 2752TIP3    H229816   3.074   3.310   7.310 -1.1050  0.6679 -0.2934
 2753TIP3   OH229817   1.636   0.539   7.841 -0.0504  0.2045 -0.3394
 2753TIP3    H129818   1.650   0.513   7.750 -0.2265  0.4715 -0.4412
 2753TIP3    H229819   1.672   0.628   7.846 -0.2610  0.2811 -0.2068
 2754TIP3   OH229820   5.732   1.740   8.409 -0.4995  0.7570 -0.0520
 2754TIP3    H129821   5.731   1.713   8.317 -1.2809  0.3524  0.0714
 2754TIP3    H229822   5.651   1.704   8.446  0.3521 -0.0983  1.0812
 2755TIP3   OH229823   6.787   4.171   0.252  0.3474  0.0797 -0.6058
 2755TIP3    H129824   6.715   4.120   0.216  0.1741  0.1203 -0.3180
 2755TIP3    H229825   6.866   4.132   0.212  0.3685 -1.5654  0.9230
 2756TIP3   OH229826   6.017   3.938   7.721 -0.3208 -0.0343  0.4276
 2756TIP3    H129827   6.036   3.870   7.657 -1.1679 -1.5853  1.7364
 2756TIP3    H229828   5.932   3.973   7.696 -0.6048 -0.5685  0.6359
 2757TIP3   OH229829   4.849   1.823   0.964  0.3500  0.0992 -0.2666
 2757TIP3    H129830   4.903   1.795   1.037  0.8558  1.4434 -0.0935
 2757TIP3    H229831   4.891   1.785   0.887  1.1443  0.5358 -0.0602
 2758TIP3   OH229832   1.338   6.077   0.535  0.2533  0.2379  0.1563
 2758TIP3    H129833   1.264   6.090   0.477 -1.0477  1.5013  1.9885
 2758TIP3    H229834   1.300   6.077   0.623  2.5074  2.4228  1.2729
 2759TIP3   OH229835   5.044   5.899   6.989  0.0208  0.1387  0.2479
 2759TIP3    H129836   5.063   5.882   7.081  0.8204  0.0738  0.0781
 2759TIP3    H229837   4.950   5.916   6.986 -0.1281 -0.5343  0.9740
 2760TIP3   OH229838   2.382   2.754   7.647 -0.2086 -0.4446  0.5418
 2760TIP3    H129839   2.454   2.727   7.590 -0.3174  2.0762 -0.9408
 2760TIP3    H229840   2.424   2.780   7.728  0.7164  1.5427 -0.5076
 2761TIP3   OH229841   1.521   5.664   2.611  0.2595  1.0136  0.2069
 2761TIP3    H129842   1.563   5.716   2.544  1.3084  0.4801  0.4220
 2761TIP3    H229843   1.578   5.672   2.688 -0.2946  0.6738  0.6697
 2762TIP3   OH229844   5.657   4.832   7.667  0.2784  0.0307  1.3894
 2762TIP3    H129845   5.753   4.837   7.667  0.3044  0.2185 -0.3110
 2762TIP3    H229846   5.628   4.918   7.695  0.6547  1.0314 -1.0748
 2763TIP3   OH229847   0.792   0.297   1.597  0.0691  0.0355  0.3676
 2763TIP3    H129848   0.860   0.273   1.534 -0.2317  0.5220 -0.1535
 2763TIP3    H229849   0.818   0.253   1.678  0.3866 -0.7248 -0.1303
 2764TIP3   OH229850   6.330   2.422   0.783  0.7450  0.0165  0.1505
 2764TIP3    H129851   6.314   2.350   0.845 -1.1766 -0.0062 -0.3284
 2764TIP3    H229852   6.286   2.395   0.703  0.3879  1.5360 -0.1828
 2765TIP3   OH229853   2.807   3.059   0.130  0.5865 -0.1760  0.1065
 2765TIP3    H129854   2.774   3.099   0.211 -0.6740 -0.1734 -0.3909
 2765TIP3    H229855   2.900   3.080   0.130  0.3292  1.0615  0.8401
 2766TIP3   OH229856   6.347   0.063   7.005  0.1264 -0.0690  0.5768
 2766TIP3    H129857   6.420   0.072   6.944 -1.0053 -0.2044 -0.8502
 2766TIP3    H229858   6.344  -0.031   7.025 -1.8337 -0.7614 -2.2860
 2767TIP3   OH229859   4.177   2.756   8.423 -0.2673 -0.2447  0.2445
 2767TIP3    H129860   4.224   2.738   8.342  2.9921 -1.7050  2.2510
 2767TIP3    H229861   4.181   2.852   8.433 -3.8241  0.4442 -2.8287
 2768TIP3   OH229862   3.323   3.030   7.778  0.1850 -0.4784 -0.0792
 2768TIP3    H129863   3.301   3.018   7.685  0.3468 -1.6268  0.0158
 2768TIP3    H229864   3.346   3.122   7.785  2.0369 -0.7424 -1.5972
 2769TIP3   OH229865   4.823   3.531   2.593 -0.0298  0.1703  0.0529
 2769TIP3    H129866   4.908   3.570   2.613  0.5199 -1.5347  1.2884
 2769TIP3    H229867   4.806   3.472   2.666 -2.2822  0.4336 -0.1859
 2770TIP3   OH229868   2.217   6.384   7.424  0.2841 -0.1719 -0.2401
 2770TIP3    H129869   2.222   6.460   7.483 -1.3820 -0.3689  0.2249
 2770TIP3    H229870   2.204   6.309   7.483  2.4373 -0.9502 -0.6511
 2771TIP3   OH229871   6.657   3.853   2.467  0.2723 -0.4388 -0.3817
 2771TIP3    H129872   6.592   3.825   2.531 -1.2627  0.4685 -1.4656
 2771TIP3    H229873   6.619   3.828   2.382 -0.5234  3.2915 -1.3293
 2772TIP3   OH229874   4.601   3.184   2.264  0.4729  0.0272 -0.2996
 2772TIP3    H129875   4.634   3.240   2.334 -1.1213  0.0884  0.4456
 2772TIP3    H229876   4.670   3.120   2.250  1.2231  0.5970  0.6687
 2773TIP3   OH229877   6.526   4.549   0.412  0.0453  0.3412  0.0939
 2773TIP3    H129878   6.504   4.456   0.409 -0.8996  0.4798  1.4617
 2773TIP3    H229879   6.458   4.591   0.359  0.3889  0.2751 -0.4056
 2774TIP3   OH229880   3.941   4.330   7.879 -0.0452  0.2582  0.5322
 2774TIP3    H129881   3.973   4.324   7.789  2.4890  0.7361  1.3118
 2774TIP3    H229882   3.948   4.241   7.913 -1.3324  0.0093  0.1868
 2775TIP3   OH229883   4.016   0.339   7.616  0.3064 -0.1011  0.1181
 2775TIP3    H129884   3.999   0.291   7.697 -1.6135  0.6009  0.1918
 2775TIP3    H229885   3.974   0.287   7.548  0.1068  0.3599 -0.1161
 2776TIP3   OH229886   1.640   5.969   7.962  0.5775  0.5916  0.5459
 2776TIP3    H129887   1.682   6.037   8.014  4.1705 -0.4313 -0.7018
 2776TIP3    H229888   1.647   6.000   7.872 -0.6802 -0.0179  0.2124
 2777TIP3   OH229889   0.079   3.494   8.251 -0.2605 -0.6557 -0.1208
 2777TIP3    H129890   0.027   3.480   8.171  1.1721  0.9638 -1.4035
 2777TIP3    H229891   0.083   3.407   8.292 -1.1142 -1.5158 -1.7400
 2778TIP3   OH229892   6.538   2.581   0.618  0.1184 -0.8095 -0.2906
 2778TIP3    H129893   6.576   2.626   0.694  0.8707 -0.9004 -0.6068
 2778TIP3    H229894   6.460   2.537   0.653 -1.1660  1.4366 -0.1541
 2779TIP3   OH229895   2.360   2.506   1.076  0.5041  0.0235 -0.4830
 2779TIP3    H129896   2.306   2.429   1.061  0.8500 -0.0169 -1.6999
 2779TIP3    H229897   2.298   2.577   1.094  0.2272 -0.7403  1.8109
 2780TIP3   OH229898   1.037   2.010   8.608  0.1587  1.1357 -0.6096
 2780TIP3    H129899   1.086   2.083   8.571 -0.7663  1.3027 -1.5292
 2780TIP3    H229900   0.963   1.997   8.549 -0.0413 -0.1408 -0.1209
 2781TIP3   OH229901   5.551   1.352   0.948  0.2795 -0.0921  1.0732
 2781TIP3    H129902   5.490   1.397   1.006 -0.0585  0.8315  0.0439
 2781TIP3    H229903   5.620   1.318   1.005  0.0520  0.9408  1.9780
 2782TIP3   OH229904   2.217   4.567   0.546 -0.1555 -0.4080  0.0665
 2782TIP3    H129905   2.295   4.621   0.557  1.0425 -2.4683  2.6676
 2782TIP3    H229906   2.155   4.625   0.501  2.3453  1.7501 -0.8860
 2783TIP3   OH229907   0.124   6.359   0.103 -0.8472  0.1162 -0.0107
 2783TIP3    H129908   0.122   6.334   0.011 -0.4156 -1.3942  0.3570
 2783TIP3    H229909   0.124   6.276   0.151 -0.6486  0.8572  1.3427
 2784TIP3   OH229910   0.228   2.808   8.498 -1.0892 -0.6258 -0.3603
 2784TIP3    H129911   0.315   2.768   8.507 -0.8100  0.1767  0.7485
 2784TIP3    H229912   0.191   2.804   8.586 -1.0327  1.5586 -0.1837
 2785TIP3   OH229913   4.981   0.807   7.557  0.1700  0.0885  0.4235
 2785TIP3    H129914   5.012   0.836   7.471 -0.2751 -0.1862  0.1666
 2785TIP3    H229915   4.989   0.712   7.554  0.2258  0.0829  0.7173
 2786TIP3   OH229916   3.579   6.634   7.273 -0.1768  0.0720  0.5632
 2786TIP3    H129917   3.550   6.716   7.234  3.3285  2.5587  2.6206
 2786TIP3    H229918   3.515   6.615   7.341 -1.2159  0.8641 -0.1668
 2787TIP3   OH229919   2.035   6.761   7.487  0.1506  0.0516 -0.0381
 2787TIP3    H129920   2.057   6.837   7.434  2.4057  1.5455  2.7143
 2787TIP3    H229921   2.005   6.695   7.425 -2.7812  3.3450 -2.5212
 2788TIP3   OH229922   0.743   0.551   1.741  0.4967  0.8013 -0.2083
 2788TIP3    H129923   0.793   0.475   1.710 -0.1873  0.1992  0.1273
 2788TIP3    H229924   0.787   0.626   1.702  0.1626  0.1210 -1.9968
 2789TIP3   OH229925   0.185   2.673   8.268 -0.0379 -0.5674  0.2113
 2789TIP3    H129926   0.181   2.704   8.359 -0.6430 -0.3088  0.1008
 2789TIP3    H229927   0.123   2.600   8.266  0.7248 -1.2227  0.2501
 2790TIP3   OH229928   2.440   4.523   7.103 -0.4611  0.7692  0.4802
 2790TIP3    H129929   2.428   4.596   7.042  0.5693  0.4752 -0.1055
 2790TIP3    H229930   2.471   4.564   7.184  2.2697  0.8685 -0.5181
 2791TIP3   OH229931   4.073   5.490   7.928 -0.1668 -0.2989  0.6613
 2791TIP3    H129932   4.022   5.416   7.961 -1.0808  1.1146  2.6301
 2791TIP3    H229933   4.164   5.464   7.941 -0.4323 -1.5543  0.1557
 2792TIP3   OH229934   1.207   3.248   1.116 -0.3602 -0.4012 -0.2394
 2792TIP3    H129935   1.182   3.339   1.133 -1.7197 -0.9918  1.1608
 2792TIP3    H229936   1.242   3.217   1.200 -0.0663 -1.2136 -0.6554
 2793TIP3   OH229937   0.682   5.557   2.683 -0.2652  0.0800 -0.0998
 2793TIP3    H129938   0.648   5.550   2.594 -2.0488 -0.9192  0.6165
 2793TIP3    H229939   0.646   5.639   2.717 -2.0794 -0.9845  0.6632
 2794TIP3   OH229940   6.595   3.809   0.029  0.3019  0.0034 -0.3233
 2794TIP3    H129941   6.645   3.729   0.045  1.1618  0.3515 -1.1517
 2794TIP3    H229942   6.630   3.843  -0.053 -2.8319 -0.9008 -2.1990
 2795TIP3   OH229943   5.790   4.610   2.796 -0.1513 -0.4318 -0.3895
 2795TIP3    H129944   5.743   4.529   2.818  1.9751 -1.6437 -0.0338
 2795TIP3    H229945   5.772   4.669   2.869 -2.0900 -0.3787 -0.8630
 2796TIP3   OH229946   5.841   2.480   2.086 -0.0404  0.4305 -0.6809
 2796TIP3    H129947   5.900   2.490   2.161 -0.7035  0.3317 -0.1328
 2796TIP3    H229948   5.822   2.386   2.083 -2.0348  0.7477  0.6286
 2797TIP3   OH229949   2.924   4.526   1.093  0.0296 -0.3163 -0.0595
 2797TIP3    H129950   2.866   4.467   1.140 -0.4328 -0.1720 -0.4454
 2797TIP3    H229951   2.867   4.595   1.060  0.5907  0.4512  0.5344
 2798TIP3   OH229952   4.976   6.421   8.237 -0.4248  0.2051 -0.4339
 2798TIP3    H129953   4.901   6.450   8.186  0.4130  0.8258 -1.3279
 2798TIP3    H229954   5.016   6.352   8.184  0.6900  1.1390 -0.8335
 2799TIP3   OH229955   0.112   4.800   7.443 -0.3668 -0.5195 -0.1533
 2799TIP3    H129956   0.109   4.783   7.537 -2.6827  1.0882  0.1424
 2799TIP3    H229957   0.204   4.820   7.425  0.3290 -1.9856  1.5076
 2800TIP3   OH229958   6.276   0.941   1.554  0.7630  0.0128 -0.2922
 2800TIP3    H129959   6.333   0.865   1.540 -0.7636 -1.1753 -0.3946
 2800TIP3    H229960   6.220   0.917   1.628  0.0058  0.8766 -0.5496
 2801TIP3   OH229961   1.510   4.092   7.916 -0.3391  0.4995 -0.0331
 2801TIP3    H129962   1.539   4.184   7.922  1.0255  0.1382 -0.6413
 2801TIP3    H229963   1.443   4.084   7.984  0.7498  1.5196  1.2411
 2802TIP3   OH229964   2.680   4.353   7.196  0.3239 -0.2346 -0.7035
 2802TIP3    H129965   2.726   4.434   7.217 -0.9968  0.1020  1.1646
 2802TIP3    H229966   2.588   4.379   7.187  0.1470 -1.2333 -2.0885
 2803TIP3   OH229967   1.922   6.453   7.591  0.0034 -0.2465 -0.2293
 2803TIP3    H129968   1.939   6.418   7.503  0.2322 -2.0529  0.4915
 2803TIP3    H229969   1.834   6.423   7.612  0.1130 -0.1715  0.3375
 2804TIP3   OH229970   1.159   6.332   1.789  0.0443 -0.3276 -0.0609
 2804TIP3    H129971   1.164   6.300   1.698  0.6968 -2.2196  0.5940
 2804TIP3    H229972   1.237   6.297   1.831 -0.6104 -0.0861  1.4232
 2805TIP3   OH229973   4.662   2.207   1.086  0.1241  0.1157 -0.3120
 2805TIP3    H129974   4.637   2.117   1.067  0.9828 -0.2121  0.0566
 2805TIP3    H229975   4.672   2.248   1.000  0.0001 -0.2206 -0.4881
 2806TIP3   OH229976   0.559   4.757   1.665  0.0910 -0.5441 -0.0596
 2806TIP3    H129977   0.554   4.840   1.619  0.6941  0.1302  1.0516
 2806TIP3    H229978   0.634   4.712   1.625 -0.6144 -0.8452 -1.0860
 2807TIP3   OH229979   3.028   1.196   2.151 -0.1012  0.2593 -0.3975
 2807TIP3    H129980   2.955   1.196   2.090  0.2306  1.1212 -0.8096
 2807TIP3    H229981   2.988   1.217   2.236 -0.1093  2.7649 -0.9556
 2808TIP3   OH229982   4.262   4.411   8.044 -0.3666  0.0934 -0.3862
 2808TIP3    H129983   4.254   4.366   8.128 -1.6447 -3.6389 -2.2738
 2808TIP3    H229984   4.183   4.465   8.039  0.2811  1.2611  1.2005
 2809TIP3   OH229985   1.277   1.308   0.028  0.6554 -0.2809  0.1520
 2809TIP3    H129986   1.216   1.239   0.001  0.7804 -0.2017 -0.3354
 2809TIP3    H229987   1.235   1.390   0.000  0.5786 -0.1666  0.5937
 2810TIP3   OH229988   3.181   3.466   8.441 -0.5214 -0.1484  0.4749
 2810TIP3    H129989   3.239   3.459   8.517  0.7924 -0.1660 -0.4979
 2810TIP3    H229990   3.134   3.383   8.439  2.5079 -1.9890 -1.1090
 2811TIP3   OH229991   4.736   4.155   1.157 -0.5791 -0.0715 -0.0927
 2811TIP3    H129992   4.810   4.097   1.139  0.0941  0.7840 -0.1345
 2811TIP3    H229993   4.774   4.243   1.159 -1.5166  0.3379  0.3604
 2812TIP3   OH229994   1.639   6.784   1.741  0.0199 -0.0925 -0.0170
 2812TIP3    H129995   1.627   6.691   1.758 -1.0188 -0.0075 -0.2502
 2812TIP3    H229996   1.553   6.815   1.711  0.6101  0.7348 -0.9130
 2813TIP3   OH229997   5.250   5.272   7.782 -0.5527  0.4450  0.1539
 2813TIP3    H129998   5.201   5.351   7.804 -1.9389 -0.4907  0.5396
 2813TIP3    H229999   5.211   5.203   7.836  2.7024  0.0370  2.2714
 2814TIP3   OH230000   5.531   3.582   7.380 -0.3331 -0.7132 -0.5183
 2814TIP3    H130001   5.487   3.558   7.298 -0.9024 -1.7616  0.0758
 2814TIP3    H230002   5.548   3.499   7.424 -0.0192 -0.1674  0.4292
 2815TIP3   OH230003   0.117   2.149   7.289 -0.3647 -0.0769 -0.2112
 2815TIP3    H130004   0.157   2.099   7.218 -0.6836 -0.8027  0.1044
 2815TIP3    H230005   0.162   2.234   7.287 -0.8588  0.1792 -1.7115
 2816TIP3   OH230006   0.820   2.696   8.515 -0.4602  0.0424 -0.0678
 2816TIP3    H130007   0.811   2.709   8.420 -1.5631  0.8945  0.1362
 2816TIP3    H230008   0.860   2.778   8.547 -0.6769  0.0083  0.2900
 2817TIP3   OH230009   0.584   1.955   0.468  0.0003  0.4158  0.0439
 2817TIP3    H130010   0.557   1.920   0.553 -0.3091  1.8286  0.5418
 2817TIP3    H230011   0.658   2.012   0.488  0.8015 -0.2970 -0.8204
 2818TIP3   OH230012   0.571   3.853   0.017  0.3917  0.0338 -0.7418
 2818TIP3    H130013   0.547   3.894   0.100  0.3662 -1.8802  0.2516
 2818TIP3    H230014   0.560   3.922  -0.048  0.4568  1.5999  0.8422
 2819TIP3   OH230015   0.675   3.695   2.815 -0.0003  0.0452 -0.1884
 2819TIP3    H130016   0.589   3.719   2.780  0.1407  1.3237  0.2786
 2819TIP3    H230017   0.737   3.727   2.749  0.1888  0.8853  0.3836
 2820TIP3   OH230018   2.574   1.864   8.479 -0.4086 -0.4369 -0.1196
 2820TIP3    H130019   2.615   1.781   8.503 -1.9336 -0.6753  1.9161
 2820TIP3    H230020   2.510   1.840   8.412 -2.5213 -1.4067  2.1104
 2821TIP3   OH230021   5.858   3.748   1.093 -0.1423  0.5917 -0.1222
 2821TIP3    H130022   5.779   3.746   1.147 -1.1699 -0.1089 -1.5688
 2821TIP3    H230023   5.925   3.707   1.147 -1.2829 -0.6236  0.4322
 2822TIP3   OH230024   4.927   3.838   8.064 -0.6069 -0.4464 -0.3211
 2822TIP3    H130025   4.862   3.775   8.034 -0.9707 -0.3507  0.2650
 2822TIP3    H230026   4.944   3.814   8.155 -0.3308 -0.0432 -0.2647
 2823TIP3   OH230027   1.555   1.682   7.234 -0.3278 -0.4746  0.6432
 2823TIP3    H130028   1.497   1.627   7.288 -0.9372 -1.4717 -0.9469
 2823TIP3    H230029   1.505   1.698   7.154 -0.3035  2.7456  1.1424
 2824TIP3   OH230030   4.174   3.659   2.336  0.3735 -0.1782  0.1509
 2824TIP3    H130031   4.206   3.634   2.250 -0.3135  0.3585 -0.2702
 2824TIP3    H230032   4.248   3.644   2.395  0.5227 -1.5572 -0.3565
 2825TIP3   OH230033   6.441   2.517   1.014  0.6399 -0.5864  0.1354
 2825TIP3    H130034   6.434   2.513   0.918  1.5313 -1.2063  0.0849
 2825TIP3    H230035   6.484   2.435   1.038  1.6012  0.1327  0.9476
 2826TIP3   OH230036   6.630   6.185   7.798 -0.1835  0.0650  0.0257
 2826TIP3    H130037   6.720   6.197   7.829  0.0667  1.1493 -1.0449
 2826TIP3    H230038   6.606   6.270   7.761 -1.6785 -0.1951  0.3523
 2827TIP3   OH230039   1.976   0.403   8.366 -0.0683 -0.2594 -0.3856
 2827TIP3    H130040   1.882   0.385   8.373 -0.1694  0.0833 -0.8302
 2827TIP3    H230041   1.983   0.498   8.369  0.3844 -0.3263  0.9924
 2828TIP3   OH230042   6.772   6.581   8.307 -0.4519  0.5100  0.2005
 2828TIP3    H130043   6.769   6.492   8.273 -1.2855  0.7626 -0.4334
 2828TIP3    H230044   6.830   6.628   8.248 -0.1595  0.4350  0.4252
 2829TIP3   OH230045   2.636   2.636   7.022 -0.1306 -0.3624 -0.3533
 2829TIP3    H130046   2.567   2.702   7.014  0.5245  0.4462  0.3524
 2829TIP3    H230047   2.701   2.677   7.080  1.1266 -0.9258 -1.3078
 2830TIP3   OH230048   1.163   2.601   8.437  0.1566 -0.0700  0.5182
 2830TIP3    H130049   1.113   2.541   8.492  1.1606 -1.2817  0.1409
 2830TIP3    H230050   1.246   2.614   8.484 -0.1367  1.2542  0.7255
 2831TIP3   OH230051   1.909   6.816   7.098  0.3007  0.3771 -0.2900
 2831TIP3    H130052   1.964   6.775   7.032 -0.3276 -0.8073 -0.0988
 2831TIP3    H230053   1.936   6.777   7.181  1.2300  1.9973  0.2236
 2832TIP3   OH230054   1.801   1.519   0.125 -0.0848 -0.5838  0.1160
 2832TIP3    H130055   1.812   1.427   0.149 -0.9607 -0.5123  0.8693
 2832TIP3    H230056   1.804   1.566   0.209 -1.7940 -0.1655 -0.0186
 2833TIP3   OH230057   4.304   6.402   8.358 -1.0267  0.2538 -0.3367
 2833TIP3    H130058   4.222   6.414   8.406 -1.9222 -0.4561 -1.6275
 2833TIP3    H230059   4.351   6.485   8.371 -0.6047 -0.3411  2.7889
 2834TIP3   OH230060   6.423   2.356   2.023 -0.2176 -0.6067  0.2376
 2834TIP3    H130061   6.366   2.416   2.071  0.5961  0.8646 -0.5592
 2834TIP3    H230062   6.495   2.339   2.083  0.1426  0.1837  0.0440
 2835TIP3   OH230063   0.764   2.338   7.495 -0.0670 -0.3600 -0.2111
 2835TIP3    H130064   0.821   2.377   7.562 -1.4164  1.1949  0.1119
 2835TIP3    H230065   0.757   2.246   7.520 -0.8649  0.2496  2.0945
 2836TIP3   OH230066   2.853   6.534   1.548 -0.5813  0.2740  0.4163
 2836TIP3    H130067   2.773   6.554   1.595 -0.4392  0.3850  0.6114
 2836TIP3    H230068   2.833   6.556   1.457 -2.0829 -3.2669 -0.2964
 2837TIP3   OH230069   5.785   1.448   7.700  0.0311  0.1163 -0.0835
 2837TIP3    H130070   5.844   1.444   7.776 -0.3494 -0.7524  0.1792
 2837TIP3    H230071   5.698   1.431   7.736 -0.3675  1.2425 -0.4944
 2838TIP3   OH230072   6.086   3.118   1.108  0.2246 -0.1732 -0.1455
 2838TIP3    H130073   6.181   3.112   1.118  0.1426  1.0554  2.2735
 2838TIP3    H230074   6.072   3.192   1.049  0.7913  0.0968  0.0546
 2839TIP3   OH230075   3.968   5.897   1.777 -0.1749 -0.6739  0.7081
 2839TIP3    H130076   4.046   5.952   1.771  0.3113 -1.4181  0.0745
 2839TIP3    H230077   3.980   5.846   1.857  1.4876 -2.9819 -0.8954
 2840TIP3   OH230078   2.162   4.845   7.967 -0.4289 -0.1151  0.2253
 2840TIP3    H130079   2.225   4.792   8.015 -0.3756 -0.6673 -0.4501
 2840TIP3    H230080   2.128   4.788   7.898 -0.5613  0.6394 -0.3520
 2841TIP3   OH230081   3.776   2.057   0.921 -0.2512 -0.2947  0.3581
 2841TIP3    H130082   3.798   2.146   0.946  1.2971 -0.5516 -0.0250
 2841TIP3    H230083   3.681   2.059   0.909 -0.2628  1.2661  0.4783
 2842TIP3   OH230084   0.943   6.786   6.990  0.1215 -0.6443 -0.0316
 2842TIP3    H130085   0.861   6.772   6.942 -0.8713 -3.7123  2.2666
 2842TIP3    H230086   1.002   6.718   6.959 -0.0901 -1.8361  2.0008
 2843TIP3   OH230087   2.140   4.225   0.484  0.1164  0.8018  0.3553
 2843TIP3    H130088   2.076   4.159   0.461 -0.7068  1.7476 -0.1154
 2843TIP3    H230089   2.161   4.269   0.402  2.2080 -0.1850  0.2896
 2844TIP3   OH230090   2.173   2.698   0.791 -1.0437  1.0469 -0.3906
 2844TIP3    H130091   2.178   2.700   0.696  0.0061  1.9126 -0.3380
 2844TIP3    H230092   2.172   2.791   0.817  0.1711  0.8411  0.4889
 2845TIP3   OH230093   5.373   5.289   0.034  0.0749 -0.1545  0.1613
 2845TIP3    H130094   5.338   5.264   0.120  0.5870  1.0540  0.7503
 2845TIP3    H230095   5.296   5.312  -0.018 -0.1381  0.9745  0.9411
 2846TIP3   OH230096   0.266   5.272   0.777 -0.0216 -0.0918  0.0565
 2846TIP3    H130097   0.181   5.242   0.806  0.4321 -2.6461 -1.0547
 2846TIP3    H230098   0.323   5.262   0.854 -0.3703  0.0777  0.3360
 2847TIP3   OH230099   6.402   0.470   0.605  0.0602 -0.0063  0.3525
 2847TIP3    H130100   6.363   0.392   0.644 -1.7513  1.3999  1.5423
 2847TIP3    H230101   6.400   0.535   0.675 -0.6615  1.7896 -1.2555
 2848TIP3   OH230102   5.959   4.240   1.209  0.4040 -0.4054 -0.3298
 2848TIP3    H130103   6.037   4.219   1.157  0.6785 -0.5029  0.1143
 2848TIP3    H230104   5.891   4.254   1.144  1.2696  1.7990 -0.8362
 2849TIP3   OH230105   5.128   2.390   2.591 -0.2636  0.4043  0.0897
 2849TIP3    H130106   5.212   2.389   2.638  0.1805  0.3992 -0.6889
 2849TIP3    H230107   5.068   2.434   2.651  0.1310 -0.1784  0.9303
 2850TIP3   OH230108   0.487   0.498   7.662 -0.3309 -0.2530  0.2970
 2850TIP3    H130109   0.558   0.434   7.668 -0.2253 -0.3218 -1.1673
 2850TIP3    H230110   0.526   0.573   7.616 -1.3283 -0.5291 -1.0747
 2851TIP3   OH230111   4.236   1.556   8.397 -0.1513 -0.1006 -0.4675
 2851TIP3    H130112   4.280   1.579   8.315 -0.1035 -2.1198 -1.0701
 2851TIP3    H230113   4.292   1.489   8.436 -0.7956 -0.0323  0.6096
 2852TIP3   OH230114   2.834   1.894   8.197  0.2775  0.1930  0.3512
 2852TIP3    H130115   2.878   1.978   8.208  0.9361 -0.1062  0.0644
 2852TIP3    H230116   2.768   1.892   8.267 -1.5888  2.0777 -1.2521
 2853TIP3   OH230117   2.653   3.077   2.593  0.2768  0.2454  0.2240
 2853TIP3    H130118   2.672   3.170   2.581  1.4212 -0.1188 -1.0815
 2853TIP3    H230119   2.559   3.073   2.609  0.4882  1.7703  2.2107
 2854TIP3   OH230120   5.214   4.093   1.272  0.1592 -0.2688 -0.4494
 2854TIP3    H130121   5.247   4.119   1.187 -0.7446 -1.3081 -1.1427
 2854TIP3    H230122   5.142   4.155   1.289 -1.3626 -1.6232 -1.6607
 2855TIP3   OH230123   6.140   1.985   2.479 -0.4974 -0.4154  0.3267
 2855TIP3    H130124   6.117   2.033   2.400  0.2569  0.6454  0.7254
 2855TIP3    H230125   6.236   1.988   2.482 -0.4815 -1.2462  0.7936
 2856TIP3   OH230126   3.495   2.000   0.617  0.1541  0.2380  0.2750
 2856TIP3    H130127   3.493   2.047   0.701  1.6484  0.8068  0.0083
 2856TIP3    H230128   3.484   2.068   0.551 -1.1952 -0.2335 -0.0116
 2857TIP3   OH230129   1.525   5.766   0.642  0.0519  0.7768 -0.1571
 2857TIP3    H130130   1.501   5.847   0.597 -1.5934  0.1826 -0.4237
 2857TIP3    H230131   1.568   5.794   0.722  1.0274  1.8815 -1.0456
 2858TIP3   OH230132   1.247   6.572   1.368 -0.6733 -0.3223 -0.4978
 2858TIP3    H130133   1.326   6.620   1.394 -0.4142  0.4075 -2.4804
 2858TIP3    H230134   1.279   6.487   1.340 -0.9552 -1.1147  1.4282
 2859TIP3   OH230135   4.023   2.060   8.062 -0.0282 -0.1019  0.1914
 2859TIP3    H130136   4.117   2.069   8.052 -0.0285  0.7228  0.7617
 2859TIP3    H230137   4.010   2.044   8.156 -0.4393 -0.3249  0.0972
 2860TIP3   OH230138   0.687   2.499   8.629  0.4158  0.2856 -0.5744
 2860TIP3    H130139   0.721   2.584   8.600 -0.5028  1.1808  0.8975
 2860TIP3    H230140   0.677   2.507   8.723 -1.2458 -0.9036 -0.6043
 2861TIP3   OH230141   3.775   2.769   0.208  0.8063  0.1239  0.2979
 2861TIP3    H130142   3.797   2.779   0.301 -1.0536  1.0441  0.6886
 2861TIP3    H230143   3.854   2.797   0.161  1.2869  1.0118  1.5897
 2862TIP3   OH230144   3.396   4.330   8.365  0.3917  0.0364 -0.1079
 2862TIP3    H130145   3.356   4.321   8.451 -0.4581  2.6037 -0.1501
 2862TIP3    H230146   3.330   4.295   8.305  0.5966 -0.9043  0.2006
 2863TIP3   OH230147   2.864   3.835   7.263 -0.3810 -1.0155 -0.5114
 2863TIP3    H130148   2.817   3.754   7.279 -1.1171 -0.8411 -1.6341
 2863TIP3    H230149   2.809   3.903   7.302  0.1613 -1.0300  0.2994
 2864TIP3   OH230150   3.454   6.519   0.598 -0.4331  1.1011 -0.0081
 2864TIP3    H130151   3.434   6.583   0.666 -2.7882 -0.0551  0.4908
 2864TIP3    H230152   3.379   6.524   0.539  0.5543  0.5461 -1.3340
 2865TIP3   OH230153   3.822   2.709   3.017 -0.2260  0.0024  0.2226
 2865TIP3    H130154   3.840   2.628   3.066 -0.3285 -0.5740 -0.6744
 2865TIP3    H230155   3.734   2.734   3.045 -0.1829 -0.1763  0.5311
 2866TIP3   OH230156   3.890   2.484   2.176 -0.3188  0.0354  0.0771
 2866TIP3    H130157   3.855   2.528   2.254 -0.5274 -0.2262  0.1292
 2866TIP3    H230158   3.984   2.482   2.191 -0.4327 -0.8003  0.7276
 2867TIP3   OH230159   0.459   4.586   8.324 -0.1626 -0.2514 -0.0887
 2867TIP3    H130160   0.422   4.531   8.255  0.6728  0.2049 -0.9138
 2867TIP3    H230161   0.440   4.676   8.296 -0.2553 -0.0706  0.5315
 2868TIP3   OH230162   3.981   3.273   0.568 -0.9455  0.1963 -0.0992
 2868TIP3    H130163   4.006   3.362   0.591 -1.9034  0.4920 -0.1609
 2868TIP3    H230164   3.938   3.281   0.483  3.2226 -0.9602 -2.6240
 2869TIP3   OH230165   0.964   4.518   8.675  0.0717  0.4452  0.1600
 2869TIP3    H130166   1.037   4.468   8.713  0.3899  2.7931  2.9958
 2869TIP3    H230167   0.889   4.494   8.729 -0.9596 -0.6234 -1.6439
 2870TIP3   OH230168   2.800   4.996   2.623 -0.5685  0.5147  0.4321
 2870TIP3    H130169   2.856   5.060   2.579  1.3603 -0.6301  1.0734
 2870TIP3    H230170   2.845   4.978   2.705 -2.6962  0.6178  1.6840
 2871TIP3   OH230171   1.778   5.432   8.206  0.3670 -0.7331  0.2523
 2871TIP3    H130172   1.856   5.378   8.220  0.1960 -1.7946 -2.3744
 2871TIP3    H230173   1.749   5.410   8.118 -0.7446  2.4047 -0.3101
 2872TIP3   OH230174   5.812   5.899   2.295  0.4270  0.4472 -0.3507
 2872TIP3    H130175   5.885   5.839   2.313  1.8159  2.0543 -0.4264
 2872TIP3    H230176   5.778   5.922   2.381  1.3093  1.2280 -0.2017
 2873TIP3   OH230177   4.751   5.030   0.460 -0.3562  0.1773 -0.0001
 2873TIP3    H130178   4.659   5.057   0.461 -0.1050  1.1077 -0.5754
 2873TIP3    H230179   4.788   5.076   0.385  0.0367 -2.0718 -1.2818
 2874TIP3   OH230180   6.458   2.472   7.687  0.2951 -0.1027 -0.0714
 2874TIP3    H130181   6.399   2.463   7.762  2.4924 -1.7353  1.5981
 2874TIP3    H230182   6.477   2.566   7.683 -0.9034  0.1824  0.5485
 2875TIP3   OH230183   5.229   0.680   0.155 -0.2889  0.1886 -0.3915
 2875TIP3    H130184   5.324   0.683   0.170 -0.3393 -0.5251  0.0913
 2875TIP3    H230185   5.191   0.701   0.241 -0.5693 -0.6327 -0.3129
 2876TIP3   OH230186   6.552   3.906   8.131  0.1069 -0.8288  0.0674
 2876TIP3    H130187   6.467   3.866   8.153 -0.6185  0.5107 -0.1845
 2876TIP3    H230188   6.549   3.918   8.037 -0.3776  1.2339  0.2962
 2877TIP3   OH230189   4.480   2.269   0.292  0.1525  1.0648  0.1981
 2877TIP3    H130190   4.445   2.333   0.231 -0.9473  1.0673  0.7924
 2877TIP3    H230191   4.409   2.204   0.302  0.8258  0.3430  0.4276
 2878TIP3   OH230192   2.770   2.399   7.181 -0.1222  0.0626 -0.5429
 2878TIP3    H130193   2.690   2.402   7.233 -0.5468 -0.9349 -1.1071
 2878TIP3    H230194   2.825   2.468   7.217 -0.8028  0.0419  0.5712
 2879TIP3   OH230195   4.280   0.224   7.410  0.1639  0.4820  0.0198
 2879TIP3    H130196   4.283   0.301   7.467  0.6428  0.4259  0.0744
 2879TIP3    H230197   4.360   0.230   7.358  0.7106 -0.5106  0.7180
 2880TIP3   OH230198   0.841   4.288   0.702 -0.0353 -0.3372  0.3176
 2880TIP3    H130199   0.847   4.381   0.681  3.0341 -0.1894  1.3434
 2880TIP3    H230200   0.851   4.244   0.618  2.3593  0.3144  0.1730
 2881TIP3   OH230201   4.320   2.151   2.116 -0.4865 -0.3221 -0.0184
 2881TIP3    H130202   4.352   2.195   2.195 -2.6546 -1.3162  1.5005
 2881TIP3    H230203   4.225   2.158   2.121 -0.7053 -0.4905 -2.5543
 2882TIP3   OH230204   1.303   5.160   2.794  0.1514 -0.1348 -0.3583
 2882TIP3    H130205   1.258   5.242   2.774  1.6123  0.8608  0.2536
 2882TIP3    H230206   1.329   5.169   2.885 -0.3333 -1.6405 -0.0404
 2883TIP3   OH230207   4.707   0.201   0.969  0.3961  0.3830  0.1187
 2883TIP3    H130208   4.711   0.258   1.046 -0.1993  1.7293 -0.7996
 2883TIP3    H230209   4.793   0.211   0.928 -0.1719  1.7701 -0.7968
 2884TIP3   OH230210   0.430   4.860   1.874  0.1545  0.3380  0.6807
 2884TIP3    H130211   0.489   4.816   1.813  0.0747  0.7752  0.2800
 2884TIP3    H230212   0.352   4.804   1.876  0.1555  0.3240  0.3778
 2885TIP3   OH230213   4.089   2.903   2.444  0.5259 -1.1123 -0.3649
 2885TIP3    H130214   4.119   2.937   2.529 -0.6516 -2.3164  0.5824
 2885TIP3    H230215   4.068   2.981   2.393 -1.5096 -0.3423  1.4992
 2886TIP3   OH230216   1.606   2.749   1.414 -0.0021 -0.1756  0.0642
 2886TIP3    H130217   1.665   2.760   1.489 -0.3051  2.4963  0.0234
 2886TIP3    H230218   1.531   2.806   1.434 -1.2026 -1.2331 -1.2184
 2887TIP3   OH230219   0.775   2.362   1.231 -0.9853  0.3583 -0.2195
 2887TIP3    H130220   0.717   2.290   1.257  0.1323 -0.5760 -0.2319
 2887TIP3    H230221   0.791   2.347   1.137  1.4288 -1.0398  0.3284
 2888TIP3   OH230222   6.661   2.833   2.458  0.6353  0.2502 -0.0341
 2888TIP3    H130223   6.708   2.905   2.501 -0.8197  0.4674  1.2853
 2888TIP3    H230224   6.612   2.791   2.529 -1.9706  0.7034 -1.4384
 2889TIP3   OH230225   5.531   4.078   7.285  0.3241  0.3942 -0.5099
 2889TIP3    H130226   5.509   4.086   7.378 -1.0450 -0.2428 -0.7485
 2889TIP3    H230227   5.571   3.991   7.277 -2.0254 -0.7361 -0.8969
 2890TIP3   OH230228   6.719   6.641   1.329  0.3658 -0.2101 -0.3585
 2890TIP3    H130229   6.747   6.670   1.242 -1.2741  2.8536 -0.0082
 2890TIP3    H230230   6.629   6.671   1.336 -0.3260 -2.4821  1.5712
 2891TIP3   OH230231   3.861   4.895   0.148 -0.1625  0.0712 -0.4058
 2891TIP3    H130232   3.769   4.886   0.174 -0.7319  1.7300 -1.6551
 2891TIP3    H230233   3.904   4.818   0.185 -2.7853 -2.9379 -3.0209
 2892TIP3   OH230234   1.515   5.962   8.260 -0.2817 -0.0080 -0.2725
 2892TIP3    H130235   1.561   5.969   8.344 -0.9841 -1.1979  0.2471
 2892TIP3    H230236   1.584   5.950   8.196  0.3147  1.6917  0.0085
 2893TIP3   OH230237   4.870   0.234   0.575  0.0511  0.6355 -0.2472
 2893TIP3    H130238   4.901   0.145   0.586  0.6141  0.9086  0.4475
 2893TIP3    H230239   4.779   0.224   0.547  0.1623 -0.1537 -0.3462
 2894TIP3   OH230240   1.476   6.047   2.131  0.5816 -0.5340  0.3308
 2894TIP3    H130241   1.386   6.064   2.104  0.0380 -2.3008  0.8965
 2894TIP3    H230242   1.490   6.104   2.206  0.4180  0.7401 -0.5800
 2895TIP3   OH230243   0.825   3.406   1.489  0.2660  0.0157 -0.3924
 2895TIP3    H130244   0.764   3.387   1.560  0.5951  1.1250  0.2154
 2895TIP3    H230245   0.772   3.451   1.423  0.4247  1.1356  0.2096
 2896TIP3   OH230246   2.391   4.685   3.136  0.1018  0.0932  0.6812
 2896TIP3    H130247   2.328   4.633   3.186  2.8054 -0.7127  3.6416
 2896TIP3    H230248   2.405   4.763   3.189  1.3253  0.4207 -0.0858
 2897TIP3   OH230249   6.523   0.884   2.192 -0.1755 -0.2072 -0.0447
 2897TIP3    H130250   6.530   0.979   2.184  0.4982 -0.2223  0.2985
 2897TIP3    H230251   6.429   0.868   2.204 -0.3281  0.3849 -0.4015
 2898TIP3   OH230252   3.862   0.533   7.498  0.2266  0.8611  0.4829
 2898TIP3    H130253   3.910   0.474   7.555  1.4261  1.2495 -0.0831
 2898TIP3    H230254   3.913   0.534   7.417 -1.7809 -0.2072 -0.8817
 2899TIP3   OH230255   1.494   6.779   1.084 -0.0291  0.1002 -0.2573
 2899TIP3    H130256   1.496   6.703   1.142  2.5037 -0.9155 -1.4837
 2899TIP3    H230257   1.409   6.776   1.041 -0.7745 -0.8181  1.2394
 2900TIP3   OH230258   4.042   5.815   0.190  1.0798  0.1485 -0.0473
 2900TIP3    H130259   3.995   5.894   0.217  1.1062 -0.4879  2.0681
 2900TIP3    H230260   4.108   5.803   0.258  2.7555 -0.3173 -1.6969
 2901TIP3   OH230261   1.947   1.417   6.933  0.8206 -0.3936  0.8497
 2901TIP3    H130262   1.901   1.430   7.016 -0.4089 -0.3146  0.1685
 2901TIP3    H230263   1.887   1.366   6.879  1.2325  0.2934 -0.3078
 2902TIP3   OH230264   1.886   5.591   2.064  0.3372 -0.7529 -0.1521
 2902TIP3    H130265   1.949   5.519   2.070  1.0896 -0.3110 -1.9582
 2902TIP3    H230266   1.865   5.612   2.155  2.6181 -1.0825  0.5141
 2903TIP3   OH230267   0.050   0.306   1.801 -0.2746  0.1504  0.3452
 2903TIP3    H130268   0.028   0.283   1.891  1.5417  2.2616  1.4350
 2903TIP3    H230269   0.145   0.290   1.795 -0.5817 -1.2521 -1.6602
 2904TIP3   OH230270   5.907   0.623   7.115 -0.0312  0.6869 -0.1241
 2904TIP3    H130271   5.825   0.581   7.139  0.1596  0.0915 -0.4924
 2904TIP3    H230272   5.883   0.714   7.097 -0.5037  0.6622  0.3539
 2905TIP3   OH230273   5.691   1.150   7.543 -0.0565 -0.1623 -0.2482
 2905TIP3    H130274   5.678   1.112   7.456 -1.3311  0.2090 -0.2377
 2905TIP3    H230275   5.753   1.221   7.529  0.9148 -1.0529 -0.5848
 2906TIP3   OH230276   2.584   6.257   0.794  0.4749  0.0933  0.0072
 2906TIP3    H130277   2.572   6.230   0.703  2.0642 -1.8192  0.2762
 2906TIP3    H230278   2.624   6.181   0.835  1.2062  1.4654  1.9517
 2907TIP3   OH230279   6.100   3.105   1.565 -0.2381 -0.4394 -0.6648
 2907TIP3    H130280   6.059   3.092   1.650  2.2593  2.3303  1.1468
 2907TIP3    H230281   6.137   3.194   1.569  1.2819 -0.7530 -4.0805
 2908TIP3   OH230282   5.748   2.701   7.017  0.2627 -0.9069 -0.6929
 2908TIP3    H130283   5.658   2.690   7.045  0.6902 -3.0051  0.0152
 2908TIP3    H230284   5.768   2.622   6.966  1.6497 -0.4379 -0.9389
 2909TIP3   OH230285   4.680   2.606   1.033  0.4280  0.2819 -0.3490
 2909TIP3    H130286   4.706   2.517   1.010 -1.2811 -0.9230  1.8974
 2909TIP3    H230287   4.756   2.642   1.078  1.3592  0.2335 -1.8249
 2910TIP3   OH230288   3.160   1.692   1.269  0.3051  0.0858  0.5339
 2910TIP3    H130289   3.249   1.687   1.234 -0.2437 -1.3530 -0.7712
 2910TIP3    H230290   3.127   1.776   1.238  0.8516  0.1611  0.1309
 2911TIP3   OH230291   2.895   3.227   7.340  0.3311  0.7095 -0.7479
 2911TIP3    H130292   2.925   3.148   7.295  1.5568  0.5279  0.3071
 2911TIP3    H230293   2.801   3.215   7.350  0.5087 -0.7172 -0.4682
 2912TIP3   OH230294   3.124   3.477   2.968  0.1558 -0.3438 -0.0078
 2912TIP3    H130295   3.201   3.475   3.025  1.7453 -2.2338 -2.0331
 2912TIP3    H230296   3.146   3.541   2.901  0.9381 -2.2140 -1.6671
 2913TIP3   OH230297   1.680   3.793   0.920 -0.4047  0.2067  0.2712
 2913TIP3    H130298   1.646   3.856   0.856  0.2716  1.0134  0.6868
 2913TIP3    H230299   1.713   3.847   0.992 -1.3762 -0.6865  1.4334
 2914TIP3   OH230300   4.399   3.276   1.603  0.2870 -1.1583 -0.3130
 2914TIP3    H130301   4.374   3.335   1.532  0.6769 -0.4261  0.1459
 2914TIP3    H230302   4.398   3.331   1.682 -0.0677 -1.9384  0.2461
 2915TIP3   OH230303   0.498   1.160   1.570  0.4823  0.3046 -0.4109
 2915TIP3    H130304   0.540   1.221   1.630 -0.3438  0.7951 -0.3172
 2915TIP3    H230305   0.409   1.149   1.605  0.2325  0.0050 -1.1177
 2916TIP3   OH230306   1.848   1.371   8.076  0.2372 -0.6295 -0.1255
 2916TIP3    H130307   1.816   1.460   8.088  0.4437 -0.2599 -2.0511
 2916TIP3    H230308   1.943   1.379   8.080  0.3502 -0.3820 -2.3011
 2917TIP3   OH230309   3.174   1.700   8.319  0.2296 -0.2067 -0.6810
 2917TIP3    H130310   3.120   1.679   8.243  0.8886 -1.5823 -0.7977
 2917TIP3    H230311   3.264   1.704   8.285  0.3513  0.8540 -0.2755
 2918TIP3   OH230312   4.784   0.984   0.441  0.0853 -0.4183  0.0952
 2918TIP3    H130313   4.781   1.069   0.396 -0.0484 -0.5588 -0.1611
 2918TIP3    H230314   4.697   0.974   0.480 -0.3236 -1.0189 -0.9496
 2919TIP3   OH230315   5.101   1.350   1.297 -0.1461 -0.6096 -0.3424
 2919TIP3    H130316   5.189   1.354   1.334 -0.9455  0.7495  1.6188
 2919TIP3    H230317   5.054   1.288   1.352 -1.2075  1.0133  0.6815
 2920TIP3   OH230318   5.472   5.006   1.297  0.7827  0.0955  0.4285
 2920TIP3    H130319   5.415   4.980   1.369  0.6501  0.8865  0.6069
 2920TIP3    H230320   5.523   5.079   1.331  1.0189  0.2032 -0.1447
 2921TIP3   OH230321   2.510   3.783   0.897  0.2688  0.2181 -0.0896
 2921TIP3    H130322   2.444   3.757   0.961  0.2433 -0.8184 -0.5239
 2921TIP3    H230323   2.520   3.878   0.909  0.2186  0.0461  1.3900
 2922TIP3   OH230324   5.926   5.064   8.239  0.3356  0.0992 -0.2709
 2922TIP3    H130325   5.887   4.977   8.228  0.4103  0.1131 -0.6498
 2922TIP3    H230326   5.935   5.074   8.334 -0.7741  0.1899 -0.1664
 2923TIP3   OH230327   2.413   6.381   1.005  0.3377  0.3301  0.1412
 2923TIP3    H130328   2.362   6.301   0.991 -0.2034  0.5504  0.7627
 2923TIP3    H230329   2.487   6.374   0.946  0.3574 -0.6910  0.2812
 2924TIP3   OH230330   6.499   4.163   8.380 -0.4038  0.2240 -0.1535
 2924TIP3    H130331   6.409   4.177   8.351 -0.3038 -1.6724 -1.6207
 2924TIP3    H230332   6.527   4.083   8.334  2.0424  0.7735  0.2184
 2925TIP3   OH230333   5.513   4.742   0.397  0.2768 -0.4355  0.1190
 2925TIP3    H130334   5.456   4.805   0.443 -0.0530 -0.7733  0.1738
 2925TIP3    H230335   5.453   4.684   0.351  0.5318 -1.4632  1.0384
 2926TIP3   OH230336   3.930   2.049   1.340  0.2191  0.2745 -0.0160
 2926TIP3    H130337   3.903   2.137   1.313  0.3585  0.2414 -0.2671
 2926TIP3    H230338   3.885   2.034   1.423 -0.7909  0.0973 -0.5770
 2927TIP3   OH230339   2.545   6.009   8.628 -0.3700  0.8247  1.1858
 2927TIP3    H130340   2.502   6.082   8.674 -1.1882  1.3084 -0.2916
 2927TIP3    H230341   2.633   6.042   8.608 -1.0273  1.7884 -0.2626
 2928TIP3   OH230342   2.066   5.563   2.726  0.1510  0.4318  0.4712
 2928TIP3    H130343   2.075   5.468   2.738  1.0292  0.5115  0.4939
 2928TIP3    H230344   2.129   5.601   2.786 -1.2008  1.0957  1.5251
 2929TIP3   OH230345   0.474   6.346   1.214 -0.2622 -0.2486 -0.3088
 2929TIP3    H130346   0.500   6.374   1.302  0.5468 -0.7182 -0.3895
 2929TIP3    H230347   0.467   6.428   1.164  0.0844 -0.0335 -0.0139
 2930TIP3   OH230348   2.047   2.306   2.441  0.3995 -0.1875 -0.2978
 2930TIP3    H130349   1.986   2.380   2.441 -1.3341 -1.5317  0.2600
 2930TIP3    H230350   2.081   2.302   2.530 -0.4309 -0.7539  0.0036
 2931TIP3   OH230351   6.416   4.206   0.778 -0.3194 -0.7662  0.2554
 2931TIP3    H130352   6.402   4.164   0.862  2.4803 -0.0711  1.1968
 2931TIP3    H230353   6.469   4.144   0.728  0.2509 -0.1244  0.0370
 2932TIP3   OH230354   2.806   1.500   0.279  0.1611 -0.2376  0.3314
 2932TIP3    H130355   2.844   1.537   0.359  0.6931 -1.0134  0.4555
 2932TIP3    H230356   2.835   1.409   0.280 -2.1804 -1.0496  0.7381
 2933TIP3   OH230357   5.490   4.310   1.283  0.2043  0.0647  0.4301
 2933TIP3    H130358   5.536   4.394   1.284  1.6479 -0.6631  2.8062
 2933TIP3    H230359   5.426   4.319   1.212  1.2814  2.6092 -0.3499
 2934TIP3   OH230360   0.254   2.985   1.764  0.1438  0.0746  0.0418
 2934TIP3    H130361   0.313   3.011   1.835 -0.3874 -1.1350  0.9554
 2934TIP3    H230362   0.175   3.037   1.779 -0.3178 -0.8515  0.9126
 2935TIP3   OH230363   3.837   5.425   0.423  0.7922 -0.2155 -0.0389
 2935TIP3    H130364   3.819   5.337   0.391  1.7341 -0.3107 -0.3414
 2935TIP3    H230365   3.757   5.474   0.404  0.1832 -1.0414  0.3145
 2936TIP3   OH230366   0.713   0.194   7.494  0.2691 -0.0371  0.0299
 2936TIP3    H130367   0.730   0.114   7.444 -1.3329  0.3526 -1.2367
 2936TIP3    H230368   0.792   0.248   7.482  1.0464 -1.0902  0.2698
 2937TIP3   OH230369   4.795   1.022   8.161 -0.2638 -0.2788  0.5593
 2937TIP3    H130370   4.890   1.032   8.155 -0.4263  4.4357  2.0316
 2937TIP3    H230371   4.762   1.050   8.076 -0.4604 -1.9170  0.0467
 2938TIP3   OH230372   1.287   6.293   1.239 -0.8682 -0.2151  0.3045
 2938TIP3    H130373   1.321   6.260   1.322 -0.6200 -0.7398  0.0004
 2938TIP3    H230374   1.230   6.223   1.206  0.2550 -0.7043 -0.7072
 2939TIP3   OH230375   6.595   3.374   0.136 -0.6540 -0.1630  0.2591
 2939TIP3    H130376   6.596   3.419   0.221  0.1659  1.2431 -0.4706
 2939TIP3    H230377   6.631   3.437   0.074 -0.6512 -1.3860 -1.0448
 2940TIP3   OH230378   1.340   5.260   8.467  0.3013 -0.5268  0.3660
 2940TIP3    H130379   1.352   5.169   8.494 -0.1694  0.0388  2.6338
 2940TIP3    H230380   1.427   5.298   8.473  0.2161 -0.4296  1.0045
 2941TIP3   OH230381   4.625   5.369   1.966 -0.1726 -0.0451 -0.3479
 2941TIP3    H130382   4.711   5.327   1.962  0.0196  0.4266 -1.7126
 2941TIP3    H230383   4.614   5.409   1.880 -0.2867  2.7579  0.8580
 2942TIP3   OH230384   3.756   5.924   7.888 -0.2600  1.1557  0.2446
 2942TIP3    H130385   3.807   5.856   7.844 -0.8866  0.0487  1.1780
 2942TIP3    H230386   3.769   5.908   7.981 -3.5991 -0.3344  0.6205
 2943TIP3   OH230387   3.060   2.908   8.604 -0.7536  0.1592 -0.5823
 2943TIP3    H130388   3.127   2.977   8.599 -0.6890  0.1345 -0.1018
 2943TIP3    H230389   3.090   2.850   8.673 -0.2082 -1.0195 -1.7541
 2944TIP3   OH230390   1.706   4.785   8.533  0.1404 -0.6070 -0.6268
 2944TIP3    H130391   1.629   4.800   8.588 -0.8485 -0.6516 -1.9555
 2944TIP3    H230392   1.753   4.869   8.534 -0.3610 -0.3277 -0.4532
 2945TIP3   OH230393   4.580   2.401   2.141 -0.0595  1.0926 -0.2682
 2945TIP3    H130394   4.489   2.419   2.116 -1.0685 -0.5654  1.9031
 2945TIP3    H230395   4.590   2.307   2.129  0.7392  0.9522  1.2916
 2946TIP3   OH230396   6.506   2.065   0.059  0.3378 -0.1140 -0.1511
 2946TIP3    H130397   6.527   2.142   0.006 -0.2599  0.4969  0.4912
 2946TIP3    H230398   6.537   1.991   0.006 -0.5448  0.4501 -1.5252
 2947TIP3   OH230399   3.613   5.617   2.494 -0.0653 -0.6829 -0.2569
 2947TIP3    H130400   3.599   5.687   2.558 -2.0432 -1.1968 -0.0478
 2947TIP3    H230401   3.708   5.611   2.485  0.1881  1.0048  0.8366
 2948TIP3   OH230402   2.133   1.656   8.095 -0.4280  0.9461  0.2609
 2948TIP3    H130403   2.186   1.581   8.123 -1.4068 -0.1657 -0.7200
 2948TIP3    H230404   2.177   1.689   8.017 -1.1705  0.0023 -0.5734
 2949TIP3   OH230405   1.404   6.361   1.964 -0.6532 -0.3809 -0.0192
 2949TIP3    H130406   1.366   6.292   2.019  0.4140 -0.4859  0.6202
 2949TIP3    H230407   1.399   6.440   2.017  1.0818 -0.6318  0.5895
 2950TIP3   OH230408   1.349   0.054   7.751 -0.1230  0.3625  0.7425
 2950TIP3    H130409   1.374  -0.036   7.733  0.0282  0.0174  2.5675
 2950TIP3    H230410   1.398   0.106   7.686  0.5231 -0.7713  0.2989
 2951TIP3   OH230411   3.344   6.182   7.694 -0.2519 -0.6230  0.1483
 2951TIP3    H130412   3.423   6.129   7.681 -0.5650 -0.9090 -0.7368
 2951TIP3    H230413   3.272   6.118   7.690 -0.5665 -0.2788  0.2345
 2952TIP3   OH230414   4.373   6.676   1.896  0.4214 -0.1555  0.7249
 2952TIP3    H130415   4.366   6.661   1.990 -1.1564 -1.2454  0.4829
 2952TIP3    H230416   4.425   6.603   1.864  1.8248  0.7634  0.8567
 2953TIP3   OH230417   6.317   1.648   8.047  0.0825  0.4713  0.1500
 2953TIP3    H130418   6.393   1.668   7.992  0.5441  0.5852  0.8091
 2953TIP3    H230419   6.326   1.555   8.068 -1.1756 -0.0896 -1.5712
 2954TIP3   OH230420   5.026   6.518   8.496 -0.1902 -0.5891  0.1884
 2954TIP3    H130421   5.115   6.551   8.489 -0.5604  0.5850  0.6756
 2954TIP3    H230422   5.005   6.485   8.409  0.4348 -0.0938 -0.1573
 2955TIP3   OH230423   5.571   1.016   7.351 -0.1321 -0.3874 -0.1866
 2955TIP3    H130424   5.480   1.000   7.376 -0.3363 -0.2717 -0.8385
 2955TIP3    H230425   5.568   1.027   7.256  0.6109 -0.7071 -0.2486
 2956TIP3   OH230426   4.943   6.275   0.137  0.2330 -0.5787  0.4198
 2956TIP3    H130427   4.859   6.287   0.092  1.4036 -1.7964 -2.2880
 2956TIP3    H230428   4.990   6.357   0.122 -0.0646 -0.2774  1.0824
 2957TIP3   OH230429   5.990   3.153   7.354 -0.5656  0.0510 -0.6699
 2957TIP3    H130430   5.968   3.074   7.404 -0.1035 -0.2624 -0.9582
 2957TIP3    H230431   5.906   3.197   7.342 -0.9063 -0.6630 -0.9690
 2958TIP3   OH230432   0.386   6.578   8.093 -0.0109 -0.0251  0.0332
 2958TIP3    H130433   0.427   6.528   8.022 -3.0635 -1.3477 -1.0069
 2958TIP3    H230434   0.355   6.658   8.051  2.0429  1.3619  0.9909
 2959TIP3   OH230435   1.808   5.546   2.978 -0.0495 -0.1113  0.7093
 2959TIP3    H130436   1.864   5.526   2.903 -1.1896 -2.0729  0.3166
 2959TIP3    H230437   1.731   5.491   2.966 -2.3499  2.7887  0.9745
 2960TIP3   OH230438   6.069   0.661   0.021 -0.2323  0.0943 -0.1652
 2960TIP3    H130439   6.124   0.737   0.038  0.8462 -0.3214 -1.5952
 2960TIP3    H230440   6.016   0.651   0.100  0.7687  1.3366  0.6943
 2961TIP3   OH230441   6.824   1.566   6.705  0.1430  0.1138 -0.2179
 2961TIP3    H130442   6.909   1.531   6.680  0.2722 -0.0389  0.4167
 2961TIP3    H230443   6.841   1.655   6.734  0.3876 -0.4763  1.6020
 2962TIP3   OH230444   0.110   6.343   1.770  0.0151  0.7680 -0.0123
 2962TIP3    H130445   0.148   6.267   1.725 -2.2334 -1.3985  1.4751
 2962TIP3    H230446   0.075   6.397   1.700 -0.1089 -0.6133 -1.0626
 2963TIP3   OH230447   2.874   5.255   7.877 -0.5301 -0.3146 -0.0162
 2963TIP3    H130448   2.804   5.233   7.815  1.4341 -2.4770 -1.6290
 2963TIP3    H230449   2.952   5.265   7.822  0.6166  1.2915  1.7937
 2964TIP3   OH230450   2.325   3.758   1.420 -0.0238  0.1155  0.3827
 2964TIP3    H130451   2.331   3.728   1.510  0.3788  1.2951  0.7613
 2964TIP3    H230452   2.239   3.729   1.390 -0.9806  1.4234  1.7794
 2965TIP3   OH230453   5.550   1.074   1.704  0.0746  0.2454  0.2801
 2965TIP3    H130454   5.620   1.102   1.762 -0.0740  0.1779  0.4920
 2965TIP3    H230455   5.523   0.988   1.738  0.0463  0.1677  0.0622
 2966TIP3   OH230456   2.786   1.895   0.929 -0.3001 -0.3325 -0.2205
 2966TIP3    H130457   2.698   1.906   0.894 -0.3246  0.8448  0.1519
 2966TIP3    H230458   2.774   1.862   1.018 -0.3474 -0.4826 -0.2822
 2967TIP3   OH230459   0.462   5.068   8.085 -0.3817  0.0300  0.6198
 2967TIP3    H130460   0.456   5.118   8.004  0.8425 -0.1774  0.3872
 2967TIP3    H230461   0.402   5.112   8.145 -1.3177  0.1807 -0.3852
 2968TIP3   OH230462   4.362   3.444   8.044  0.6902  0.5102  0.0005
 2968TIP3    H130463   4.347   3.518   7.984 -0.0567  0.6437  0.3421
 2968TIP3    H230464   4.389   3.372   7.987 -1.1522  0.2910 -0.6536
 2969TIP3   OH230465   1.055   2.530   8.176 -0.3826  0.8559 -0.1342
 2969TIP3    H130466   1.092   2.564   8.257 -1.6665  2.5814 -0.2189
 2969TIP3    H230467   1.032   2.608   8.126  1.5119 -0.1195 -2.7474
 2970TIP3   OH230468   2.867   5.664   2.869 -0.1976  0.1445  0.0096
 2970TIP3    H130469   2.774   5.657   2.891 -0.3635  2.5143  0.3666
 2970TIP3    H230470   2.884   5.758   2.867  1.9882 -0.2045 -1.0072
 2971TIP3   OH230471   2.903   6.183   2.152 -0.0670  0.3884  0.1650
 2971TIP3    H130472   2.875   6.238   2.079 -0.2143  0.1290  0.0245
 2971TIP3    H230473   2.831   6.189   2.215 -0.4965 -0.3586 -0.2395
 2972TIP3   OH230474   6.094   5.960   0.859 -0.1884  0.5268  0.1391
 2972TIP3    H130475   6.144   5.880   0.872  1.5397  1.3698 -0.8714
 2972TIP3    H230476   6.056   5.980   0.944 -0.7106 -1.3759  0.3863
 2973TIP3   OH230477   6.523   3.363   1.919  0.0465  0.1414 -0.4888
 2973TIP3    H130478   6.597   3.419   1.940  0.3987 -0.6737  0.5476
 2973TIP3    H230479   6.547   3.321   1.836  0.7536 -0.1015 -0.1726
 2974TIP3   OH230480   4.819   0.546   8.096  0.0925  0.5978  0.2467
 2974TIP3    H130481   4.840   0.612   8.030  0.3185  0.5428  0.2644
 2974TIP3    H230482   4.755   0.590   8.154 -0.4252  0.5037 -0.2442
 2975TIP3   OH230483   4.045   1.536   7.592  0.2412  0.2074 -0.7691
 2975TIP3    H130484   4.027   1.462   7.534 -1.3698 -0.0040 -0.0518
 2975TIP3    H230485   4.119   1.507   7.646 -0.5828 -1.0302 -0.2689
 2976TIP3   OH230486   5.089   5.621   6.945 -0.1966  0.2399 -0.0718
 2976TIP3    H130487   5.084   5.715   6.925  0.5362  0.4733  0.7833
 2976TIP3    H230488   5.178   5.596   6.918  0.1723  0.1589  1.1670
 2977TIP3   OH230489   3.824   5.553   0.973 -0.0935 -0.1065 -0.5535
 2977TIP3    H130490   3.852   5.592   1.055  2.5569 -0.2132 -1.3088
 2977TIP3    H230491   3.776   5.474   0.999  1.4698 -0.6428  0.9449
 2978TIP3   OH230492   3.288   4.384   1.798  0.3970  0.2897 -0.2732
 2978TIP3    H130493   3.292   4.457   1.737 -0.4373  0.5158 -0.0603
 2978TIP3    H230494   3.274   4.424   1.884 -0.3744 -0.1343 -0.1963
 2979TIP3   OH230495   1.983   0.683   8.296  0.0671  0.2899  0.4065
 2979TIP3    H130496   2.074   0.681   8.266 -0.4999 -1.0502 -1.4635
 2979TIP3    H230497   1.932   0.671   8.216 -1.6735 -1.4201  1.6816
 2980TIP3   OH230498   5.749   3.511   7.681  0.0046 -0.5153  0.6020
 2980TIP3    H130499   5.805   3.549   7.614 -1.3219  0.5586  0.0533
 2980TIP3    H230500   5.774   3.556   7.762  0.1597 -0.2816  0.4249
 2981TIP3   OH230501   3.151   4.554   0.938 -0.2985 -0.2351 -0.6074
 2981TIP3    H130502   3.076   4.552   0.999 -0.6182  4.1329 -0.5270
 2981TIP3    H230503   3.114   4.526   0.855 -0.7996 -2.6011  0.3316
 2982TIP3   OH230504   1.104   4.761   1.605  0.1119  0.0617  0.5802
 2982TIP3    H130505   1.054   4.765   1.524  0.0918  0.9789  0.6290
 2982TIP3    H230506   1.148   4.846   1.611  0.9755 -0.3938  0.9813
 2983TIP3   OH230507   4.587   3.060   1.505  0.2885  0.6187 -0.7311
 2983TIP3    H130508   4.539   3.140   1.526  0.9359  0.9212 -0.3800
 2983TIP3    H230509   4.672   3.070   1.549 -0.1263 -0.8730  0.5085
 2984TIP3   OH230510   2.581   3.877   8.042  0.2075  0.3426 -0.2775
 2984TIP3    H130511   2.606   3.940   8.111  1.6079 -0.9275  0.4194
 2984TIP3    H230512   2.629   3.906   7.965  1.0088  0.0388  0.0955
 2985TIP3   OH230513   3.387   1.621   2.072 -0.3653  0.2944 -0.0520
 2985TIP3    H130514   3.340   1.623   2.155 -0.0350  0.9408  0.1253
 2985TIP3    H230515   3.368   1.705   2.031 -1.7392 -0.5993 -1.3243
 2986TIP3   OH230516   1.947   5.410   3.177  0.2000  0.4882  0.2430
 2986TIP3    H130517   1.909   5.489   3.139  1.4413  2.9984  3.6587
 2986TIP3    H230518   1.907   5.404   3.264  1.5500 -1.5867  0.7996
 2987TIP3   OH230519   5.807   2.433   0.594  0.5154 -0.6593 -0.0737
 2987TIP3    H130520   5.800   2.511   0.650 -0.2110 -1.4164  0.9304
 2987TIP3    H230521   5.885   2.388   0.625  0.7651 -0.4927 -0.4538
 2988TIP3   OH230522   4.211   2.689   7.556 -0.3575 -0.0241  0.1298
 2988TIP3    H130523   4.121   2.712   7.532 -1.1173 -1.2300  1.5822
 2988TIP3    H230524   4.209   2.685   7.652  1.5346  0.9519  0.2451
 2989TIP3   OH230525   0.794   0.180   0.781  0.1188  0.0661  0.2926
 2989TIP3    H130526   0.781   0.184   0.876 -1.2306 -3.4293  0.4326
 2989TIP3    H230527   0.706   0.161   0.747  0.8487 -0.2570 -1.4808
 2990TIP3   OH230528   1.579   2.545   8.310  1.0634  0.4676  0.7376
 2990TIP3    H130529   1.510   2.489   8.274 -0.5211  1.9780  1.2579
 2990TIP3    H230530   1.600   2.606   8.239 -1.2394  2.7050  1.8233
 2991TIP3   OH230531   6.131   6.028   8.150 -0.0698  0.0926  0.5417
 2991TIP3    H130532   6.144   6.122   8.142  0.5728 -0.0229  0.1690
 2991TIP3    H230533   6.040   6.014   8.122  0.4959  0.3442 -1.6114
 2992TIP3   OH230534   1.638   5.179   2.939 -0.2933 -0.0938 -0.4664
 2992TIP3    H130535   1.623   5.269   2.968  0.7829  0.4463 -1.5163
 2992TIP3    H230536   1.557   5.133   2.962 -1.1165  1.2825 -0.4797
 2993TIP3   OH230537   4.573   1.352   8.101 -0.4669 -0.0947  0.3824
 2993TIP3    H130538   4.614   1.333   8.185 -0.4440 -0.9218  0.1883
 2993TIP3    H230539   4.561   1.267   8.059 -0.1380  0.3201 -0.6110
 2994TIP3   OH230540   1.213   1.483   2.783  0.3247  0.1514 -1.6233
 2994TIP3    H130541   1.296   1.443   2.806  0.3972  1.1318 -0.0674
 2994TIP3    H230542   1.237   1.561   2.733  0.1974 -1.3088 -4.1356
 2995TIP3   OH230543   5.742   3.353   8.604  0.4530  0.5231 -0.1447
 2995TIP3    H130544   5.792   3.434   8.590  0.8603  0.2908 -0.0678
 2995TIP3    H230545   5.747   3.338   8.699 -0.0055  0.6503 -0.1003
 2996TIP3   OH230546   1.687   0.663   0.313 -0.1852  0.0819 -0.0724
 2996TIP3    H130547   1.609   0.613   0.288  0.1662 -0.2371 -0.5451
 2996TIP3    H230548   1.702   0.722   0.239 -1.0293  1.4448  0.7834
 2997TIP3   OH230549   4.421   3.794   0.991  0.3776  0.1014  0.2164
 2997TIP3    H130550   4.424   3.881   1.031 -0.2220  1.0328 -1.6334
 2997TIP3    H230551   4.330   3.786   0.960  0.6688 -0.7860 -0.4431
 2998TIP3   OH230552   5.663   6.014   0.284  0.1404 -0.2403 -0.5275
 2998TIP3    H130553   5.679   5.930   0.241  0.7611  0.1913 -1.1715
 2998TIP3    H230554   5.700   6.004   0.372 -3.4579 -2.0467  0.9974
 2999TIP3   OH230555   1.264   5.971   3.351 -1.0912 -0.0166 -0.1021
 2999TIP3    H130556   1.304   5.934   3.429 -3.5632 -1.4586  0.6004
 2999TIP3    H230557   1.170   5.964   3.367 -1.6827  1.5788 -2.3495
 3000TIP3   OH230558   1.950   0.858   2.536 -0.0948  0.8740  1.0069
 3000TIP3    H130559   1.857   0.837   2.530 -0.0836  0.5097  1.9866
 3000TIP3    H230560   1.967   0.866   2.630  1.0850 -0.0538  0.8908
 3001TIP3   OH230561   4.313   6.067   0.215  0.4373  0.3957 -0.2819
 3001TIP3    H130562   4.220   6.089   0.220  0.0187 -0.4087 -2.9304
 3001TIP3    H230563   4.350   6.132   0.156  0.6982 -1.4240 -2.2546
 3002TIP3   OH230564   2.219   3.243   2.192 -0.6039 -0.4781 -0.0071
 3002TIP3    H130565   2.255   3.319   2.239 -1.8991  1.0706 -1.3751
 3002TIP3    H230566   2.293   3.183   2.184  0.0007 -0.2617  2.7716
 3003TIP3   OH230567   4.204   6.290   0.463 -0.3167  0.3242 -0.0353
 3003TIP3    H130568   4.203   6.206   0.417  0.6568 -1.2695  2.6189
 3003TIP3    H230569   4.259   6.346   0.409  0.5299 -1.3422 -0.9750
 3004TIP3   OH230570   0.168   4.075   8.255 -0.2919 -0.0811 -0.4983
 3004TIP3    H130571   0.224   4.068   8.178  0.6189 -0.2012  0.1701
 3004TIP3    H230572   0.079   4.081   8.219  0.1153 -0.2018 -1.5523
 3005TIP3   OH230573   2.104   1.634   2.344  0.0216 -0.4485  0.2380
 3005TIP3    H130574   2.108   1.545   2.309 -0.0246 -0.5853  0.5783
 3005TIP3    H230575   2.157   1.686   2.284  1.0826 -0.9401  0.7387
 3006TIP3   OH230576   1.022   2.020   6.789  0.4124  0.0360  0.1823
 3006TIP3    H130577   0.985   2.074   6.859  1.1948 -0.6657  1.1638
 3006TIP3    H230578   1.088   2.076   6.749 -0.2194  0.5359 -0.1894
 3007TIP3   OH230579   1.456   0.553   0.272  0.2722 -0.0291 -0.3698
 3007TIP3    H130580   1.399   0.630   0.268  0.4868  0.3701  2.3138
 3007TIP3    H230581   1.400   0.482   0.303  0.7754 -0.1178  0.3766
 3008TIP3   OH230582   3.595   1.092   2.396 -0.1979 -0.0585  0.3263
 3008TIP3    H130583   3.525   1.156   2.380  1.2029  1.2491 -0.8107
 3008TIP3    H230584   3.620   1.062   2.309  1.7081  0.6770  0.5809
 3009TIP3   OH230585   3.458   4.218   1.168  0.1622  0.3111 -0.6160
 3009TIP3    H130586   3.405   4.201   1.090 -0.6486  1.2359 -0.2885
 3009TIP3    H230587   3.438   4.309   1.191  2.3889  0.8968 -0.8359
 3010TIP3   OH230588   5.262   3.127   1.698  0.0247  0.3449 -0.3138
 3010TIP3    H130589   5.313   3.104   1.775  0.7235  1.5739 -0.3730
 3010TIP3    H230590   5.315   3.097   1.624 -0.6506 -0.8462 -0.3298
 3011TIP3   OH230591   5.721   6.624   0.536 -0.5625  0.3315  0.0564
 3011TIP3    H130592   5.637   6.670   0.545 -0.3049  0.7007  0.6931
 3011TIP3    H230593   5.771   6.652   0.613 -0.0114 -0.2127 -0.0999
 3012TIP3   OH230594   5.693   1.691   7.616 -0.3383 -0.9359 -0.2657
 3012TIP3    H130595   5.717   1.610   7.660  0.8379 -0.8823 -0.7794
 3012TIP3    H230596   5.772   1.744   7.618 -0.7823 -0.2265 -0.8865
 3013TIP3   OH230597   4.868   3.579   0.986  0.4039 -0.3311  0.1369
 3013TIP3    H130598   4.787   3.565   0.937  0.1773 -0.4632  0.5430
 3013TIP3    H230599   4.935   3.533   0.936  0.0450 -1.0809  0.3290
 3014TIP3   OH230600   3.064   2.031   1.920  0.4358  0.3349 -0.4142
 3014TIP3    H130601   3.009   1.953   1.914 -1.1330  1.5192 -2.1790
 3014TIP3    H230602   3.036   2.075   2.000  0.1244 -0.0223 -0.3269
 3015TIP3   OH230603   3.432   4.658   7.087  0.8569 -0.0010 -0.3752
 3015TIP3    H130604   3.450   4.740   7.134 -0.4893 -1.2933  2.6529
 3015TIP3    H230605   3.513   4.607   7.096  0.5245 -0.3436  0.8776
 3016TIP3   OH230606   4.117   1.321   1.026  0.3434 -0.2022  0.1541
 3016TIP3    H130607   4.108   1.406   0.982  0.0244  0.0834  0.7624
 3016TIP3    H230608   4.058   1.263   0.978  1.1925 -0.3079 -0.8041
 3017TIP3   OH230609   0.885   2.311   0.142  0.3011  0.5101 -0.1713
 3017TIP3    H130610   0.794   2.321   0.116  0.4983  0.1724 -1.0266
 3017TIP3    H230611   0.881   2.287   0.235 -0.5909 -1.2622 -0.6128
 3018TIP3   OH230612   3.598   1.969   7.718  0.4161  0.0361 -0.0303
 3018TIP3    H130613   3.591   1.875   7.703 -0.9859  0.4730 -2.5413
 3018TIP3    H230614   3.623   2.005   7.633 -1.5998  2.1611  0.1816
 3019TIP3   OH230615   3.407   5.559   8.535  0.0963 -1.1873 -0.0780
 3019TIP3    H130616   3.496   5.593   8.525  0.2527 -2.0578 -2.2112
 3019TIP3    H230617   3.350   5.633   8.512  0.3532 -1.4234 -1.5258
 3020TIP3   OH230618   0.985   0.525   7.257 -0.3804 -0.6738 -0.2408
 3020TIP3    H130619   0.917   0.576   7.213  1.9677  1.5927 -1.5301
 3020TIP3    H230620   1.058   0.523   7.194  1.9102 -0.1995  2.2195
 3021TIP3   OH230621   2.208   6.785   0.415 -0.0592  0.3802 -0.5644
 3021TIP3    H130622   2.189   6.828   0.498  0.0079 -0.3254 -0.1795
 3021TIP3    H230623   2.276   6.722   0.435 -2.0288 -1.8649 -0.4875
 3022TIP3   OH230624   2.380   6.055   7.763  0.4916 -0.3519 -0.4281
 3022TIP3    H130625   2.340   6.092   7.684 -0.1110 -2.1017 -0.9824
 3022TIP3    H230626   2.470   6.036   7.737  0.3097 -0.8731 -0.7032
 3023TIP3   OH230627   4.138   4.739   2.431 -0.2133 -0.3984  0.3189
 3023TIP3    H130628   4.189   4.717   2.508  0.3816 -0.9328 -0.2180
 3023TIP3    H230629   4.063   4.679   2.433 -1.1382  0.7446  1.3944
 3024TIP3   OH230630   3.093   5.322   8.490 -0.3764 -0.5277 -0.2164
 3024TIP3    H130631   3.108   5.413   8.464  0.5831 -0.1626  1.4886
 3024TIP3    H230632   2.998   5.314   8.495 -0.4521  0.7524  0.7815
 3025TIP3   OH230633   2.643   2.090   1.757  0.2090  0.1192  0.2122
 3025TIP3    H130634   2.654   2.180   1.728 -1.8096 -0.3083 -2.2006
 3025TIP3    H230635   2.708   2.040   1.708 -0.6998 -0.1054 -0.7948
 3026TIP3   OH230636   0.211   0.070   0.861  0.2069  0.3543  0.5132
 3026TIP3    H130637   0.222   0.165   0.866  0.9265  0.2089  2.3141
 3026TIP3    H230638   0.129   0.053   0.908  0.3239  0.0466  0.6069
 3027TIP3   OH230639   2.003   2.460   7.190  0.0805  0.2908 -0.2874
 3027TIP3    H130640   2.069   2.526   7.168  0.1882  0.5460  0.7501
 3027TIP3    H230641   1.924   2.489   7.144  0.6247  0.0894 -1.3778
 3028TIP3   OH230642   2.614   1.023   7.880  0.1472  0.2559  0.1763
 3028TIP3    H130643   2.603   1.004   7.973  2.1604 -0.0744  0.3994
 3028TIP3    H230644   2.528   1.007   7.842 -0.8316  0.8287  2.0386
 3029TIP3   OH230645   4.173   0.140   0.443 -0.1673 -0.2128 -0.3229
 3029TIP3    H130646   4.094   0.160   0.492  0.7087 -0.5563  1.3236
 3029TIP3    H230647   4.218   0.074   0.497  2.1287  1.3055 -0.2120
 3030TIP3   OH230648   3.720   0.176   6.999  0.2193 -0.4033  0.0499
 3030TIP3    H130649   3.641   0.220   7.032 -0.3273  2.1929 -4.0179
 3030TIP3    H230650   3.793   0.226   7.037 -0.1152 -1.0375  1.5994
 3031TIP3   OH230651   5.878   1.535   8.018  0.1911 -0.0917 -0.0776
 3031TIP3    H130652   5.819   1.608   8.032  1.0058  0.6549 -0.3853
 3031TIP3    H230653   5.860   1.474   8.088 -0.4971  0.4179  0.1909
 3032TIP3   OH230654   3.443   6.149   1.094  0.7917 -0.0063 -0.2001
 3032TIP3    H130655   3.356   6.161   1.054  0.8841  1.8050  0.0873
 3032TIP3    H230656   3.434   6.183   1.182  1.4206 -1.2084  0.3523
 3033TIP3   OH230657   4.511   0.714   7.402  0.4056  0.1373  0.2816
 3033TIP3    H130658   4.579   0.712   7.469  0.9180  0.3412 -0.2207
 3033TIP3    H230659   4.442   0.769   7.439  1.0185  0.8818  0.3384
 3034TIP3   OH230660   1.704   2.696   1.164 -0.7783  0.1128  0.3732
 3034TIP3    H130661   1.759   2.618   1.172 -0.4366  0.0222 -2.0892
 3034TIP3    H230662   1.653   2.697   1.245  1.6812 -0.6766  2.0445
 3035TIP3   OH230663   5.951   1.949   1.659 -0.1578 -0.4254 -0.0540
 3035TIP3    H130664   5.885   1.972   1.724  0.5123 -1.6706  1.1218
 3035TIP3    H230665   6.017   2.018   1.664 -0.0253 -0.6067  0.7272
 3036TIP3   OH230666   5.557   0.996   2.945 -0.0309 -0.1651 -0.0212
 3036TIP3    H130667   5.532   0.968   2.857  1.4530  0.5940 -0.7317
 3036TIP3    H230668   5.531   1.088   2.949 -1.6273 -0.6233  0.9849
 3037TIP3   OH230669   5.436   5.466   0.639 -0.5058 -0.1702  0.2786
 3037TIP3    H130670   5.472   5.514   0.565 -0.1130 -1.3455 -0.3270
 3037TIP3    H230671   5.501   5.398   0.657  0.4221  1.2816  3.0247
 3038TIP3   OH230672   4.371   3.613   8.274 -0.0669  0.3531 -0.2367
 3038TIP3    H130673   4.373   3.556   8.196 -1.0125  1.6150 -1.2256
 3038TIP3    H230674   4.278   3.627   8.291  0.1489  0.9512  0.4873
 3039TIP3   OH230675   6.313   1.818   0.075 -0.2360 -0.4921 -0.6331
 3039TIP3    H130676   6.316   1.843   0.167  0.1925 -0.0150 -0.7748
 3039TIP3    H230677   6.388   1.760   0.063 -1.0396 -1.6109 -0.3816
 3040TIP3   OH230678   3.268   6.311   2.405  0.0669 -0.0016  0.5259
 3040TIP3    H130679   3.349   6.361   2.398  2.2383 -3.3411 -0.6140
 3040TIP3    H230680   3.203   6.363   2.357  2.2541  1.4176 -1.0698
 3041TIP3   OH230681   4.422   2.354   1.453  0.2025 -0.3287  0.4269
 3041TIP3    H130682   4.477   2.369   1.530  0.4623 -1.1261  0.4072
 3041TIP3    H230683   4.474   2.388   1.380 -0.1369  0.6299  0.6138
 3042TIP3   OH230684   4.920   1.338   8.377 -0.2304 -0.1706 -0.0291
 3042TIP3    H130685   4.935   1.254   8.421  1.0785  0.1365  0.1592
 3042TIP3    H230686   4.941   1.322   8.285  0.7697  0.1249  0.1383
 3043TIP3   OH230687   5.627   0.162   1.953  0.0906 -0.0024  0.6238
 3043TIP3    H130688   5.571   0.233   1.919 -2.3066 -2.3646 -0.7169
 3043TIP3    H230689   5.601   0.152   2.044 -0.1954  0.2537  0.5720
 3044TIP3   OH230690   6.754   0.083   8.468 -0.2105 -0.6082  0.4385
 3044TIP3    H130691   6.772   0.171   8.501 -0.6937 -0.5091  0.4431
 3044TIP3    H230692   6.838   0.053   8.433  0.2751 -0.6723  1.6409
 3045TIP3   OH230693   3.661   0.614   2.589 -0.2868  0.2864 -0.0023
 3045TIP3    H130694   3.755   0.627   2.602 -0.8009  1.6251  3.4148
 3045TIP3    H230695   3.637   0.677   2.522  1.1011  0.5468 -0.2824
 3046TIP3   OH230696   0.755   1.013   1.471 -0.7549  0.6180 -0.5696
 3046TIP3    H130697   0.685   1.072   1.442 -0.8137  0.2185 -1.2580
 3046TIP3    H230698   0.786   1.052   1.553  0.0657  2.3239 -1.6304
 3047TIP3   OH230699   2.185   1.022   1.732 -0.4741 -0.3855  0.2954
 3047TIP3    H130700   2.256   1.086   1.730 -0.4790 -0.3873 -0.2970
 3047TIP3    H230701   2.229   0.938   1.750 -0.1131 -0.6178 -1.4352
 3048TIP3   OH230702   0.757   4.895   3.127  0.1117 -0.0401 -0.2024
 3048TIP3    H130703   0.690   4.920   3.191  2.0740  1.0613  1.5498
 3048TIP3    H230704   0.763   4.799   3.134 -2.0696 -0.3267 -1.3233
 3049TIP3   OH230705   6.043   3.634   1.296  0.5189 -0.2807  0.0932
 3049TIP3    H130706   5.995   3.552   1.283 -1.2425  0.9481 -1.7172
 3049TIP3    H230707   5.988   3.684   1.356  1.4398 -0.2594  0.9542
 3050TIP3   OH230708   1.186   4.736   1.193  0.0821  0.1956 -0.2039
 3050TIP3    H130709   1.189   4.828   1.220 -0.6713  0.3122 -0.5030
 3050TIP3    H230710   1.148   4.737   1.106  0.9055 -0.3346 -0.5921
 3051TIP3   OH230711   4.770   6.665   1.081  0.7173 -0.0987  0.0292
 3051TIP3    H130712   4.812   6.715   1.152  3.7081 -0.9844 -0.9539
 3051TIP3    H230713   4.826   6.682   1.005 -1.1407 -0.9276 -1.5854
 3052TIP3   OH230714   1.154   6.741   8.505  0.6586 -0.0921  0.0686
 3052TIP3    H130715   1.170   6.769   8.596  0.4593  1.2240 -0.2774
 3052TIP3    H230716   1.061   6.718   8.503  1.1154 -2.2442  0.6950
 3053TIP3   OH230717   6.625   3.433   7.625  0.1505  0.0020  0.3810
 3053TIP3    H130718   6.585   3.408   7.708 -1.2360 -1.0258 -0.5402
 3053TIP3    H230719   6.708   3.473   7.649  0.1809 -1.0436  2.2156
 3054TIP3   OH230720   5.682   4.421   6.928 -0.4609 -1.4361  0.3130
 3054TIP3    H130721   5.748   4.455   6.989  0.1356 -0.7085 -0.6858
 3054TIP3    H230722   5.663   4.333   6.959  1.4175 -1.8899  0.3421
 3055TIP3   OH230723   3.469   2.413   0.922 -0.1353 -0.2613  0.3624
 3055TIP3    H130724   3.514   2.378   0.999  1.1905 -1.1153 -0.7448
 3055TIP3    H230725   3.515   2.494   0.901  0.6552 -0.9156 -0.5215
 3056TIP3   OH230726   4.988   2.275   2.382  0.7321 -0.5986  0.2525
 3056TIP3    H130727   5.006   2.317   2.297 -2.5453 -0.0319 -0.3098
 3056TIP3    H230728   5.039   2.325   2.445  1.8552  0.1272 -1.1817
 3057TIP3   OH230729   3.347   6.680   2.329 -0.4735 -0.2149  0.4821
 3057TIP3    H130730   3.328   6.644   2.242  0.5143 -1.5852  0.7963
 3057TIP3    H230731   3.362   6.773   2.314 -1.3333 -0.2408 -0.6479
 3058TIP3   OH230732   3.982   1.767   7.752 -0.4037  0.0029 -0.3969
 3058TIP3    H130733   3.920   1.704   7.788  1.2023 -0.7338  1.2174
 3058TIP3    H230734   4.055   1.714   7.720 -0.7924  0.8116 -2.8112
 3059TIP3   OH230735   1.369   0.050   1.717  0.2139 -0.1190  0.4627
 3059TIP3    H130736   1.375   0.074   1.625  1.2596 -0.9484  0.3009
 3059TIP3    H230737   1.313  -0.028   1.718 -1.3143  0.9346  0.7488
 3060TIP3   OH230738   2.320   1.195   7.856  0.0144  0.1943  0.4831
 3060TIP3    H130739   2.237   1.159   7.825 -0.1674 -0.1188  1.3034
 3060TIP3    H230740   2.379   1.119   7.861  0.1359  0.2950  0.5877
 3061TIP3   OH230741   1.215   6.465   8.305 -0.1202  0.1574 -0.4781
 3061TIP3    H130742   1.200   6.431   8.217 -1.4223  0.3195 -0.3399
 3061TIP3    H230743   1.215   6.387   8.361  1.8425 -0.0729 -0.7112
 3062TIP3   OH230744   3.722   6.128   7.168  0.2083  0.8385 -0.6768
 3062TIP3    H130745   3.675   6.193   7.115 -0.9250  1.2703  0.7927
 3062TIP3    H230746   3.688   6.044   7.138 -0.4519  1.0770 -0.6140
 3063TIP3   OH230747   4.557   2.615   0.471  0.0257  0.3782  0.4261
 3063TIP3    H130748   4.616   2.541   0.487  0.0609  0.5446  1.1172
 3063TIP3    H230749   4.542   2.615   0.376  3.3777  2.0078 -0.2658
 3064TIP3   OH230750   6.448   5.938   2.590  0.1687  0.3127 -0.1413
 3064TIP3    H130751   6.398   5.979   2.660 -0.7821  0.3090 -0.7996
 3064TIP3    H230752   6.460   6.008   2.525 -0.6963 -0.1910 -0.8678
 3065TIP3   OH230753   0.959   4.417   1.525 -0.1619 -0.3130 -0.5847
 3065TIP3    H130754   1.015   4.439   1.599  0.2610  2.4241 -1.6025
 3065TIP3    H230755   1.017   4.423   1.448 -0.7933 -2.1807 -1.2702
 3066TIP3   OH230756   4.109   0.320   8.578  0.4831 -0.0931 -0.5684
 3066TIP3    H130757   4.087   0.282   8.493  2.0524  1.5515 -1.7761
 3066TIP3    H230758   4.058   0.401   8.581 -0.8220 -0.9005  0.8373
 3067TIP3   OH230759   1.619   1.579   0.832  0.0100  0.3168  0.1277
 3067TIP3    H130760   1.598   1.665   0.868 -2.4589 -0.6995  1.3675
 3067TIP3    H230761   1.706   1.559   0.867  0.8120  2.4280 -0.5137
 3068TIP3   OH230762   4.662   6.080   2.168  0.6523  0.1122 -0.4473
 3068TIP3    H130763   4.638   5.992   2.138  1.3705  0.3689 -1.8331
 3068TIP3    H230764   4.611   6.139   2.114 -0.5695  0.5889  1.1295
 3069TIP3   OH230765   2.252   6.582   7.149 -0.0417 -0.0486  0.3058
 3069TIP3    H130766   2.192   6.579   7.223  0.5684 -3.0763  0.7953
 3069TIP3    H230767   2.197   6.596   7.073 -1.4854 -2.7837  0.7305
 3070TIP3   OH230768   5.838   6.286   0.351 -0.0788 -0.0736  0.9983
 3070TIP3    H130769   5.852   6.324   0.264 -0.5843  1.3106  1.4967
 3070TIP3    H230770   5.752   6.318   0.378 -0.0660 -0.7491  1.8864
 3071TIP3   OH230771   1.476   5.055   0.324 -0.2658 -0.4138  0.1692
 3071TIP3    H130772   1.381   5.060   0.321 -0.2634 -0.8258 -1.7745
 3071TIP3    H230773   1.502   5.037   0.234  1.5112 -3.1310  1.1095
 3072TIP3   OH230774   3.633   4.642   0.167  0.3350  0.3633 -0.3186
 3072TIP3    H130775   3.676   4.615   0.248 -0.2693 -0.2226 -0.1861
 3072TIP3    H230776   3.593   4.726   0.188 -2.4095 -1.1502  0.9681
 3073TIP3   OH230777   2.170   5.626   7.526 -0.6875 -0.5206  0.1217
 3073TIP3    H130778   2.079   5.654   7.535 -0.6752 -1.0701  2.7046
 3073TIP3    H230779   2.165   5.537   7.493 -1.1128 -0.5757  0.3322
 3074TIP3   OH230780   1.123   0.484   0.235  0.2699 -0.0349  0.2331
 3074TIP3    H130781   1.138   0.535   0.314  0.3345 -1.7079  1.3503
 3074TIP3    H230782   1.059   0.535   0.185  1.6721  2.0056  0.4046
 3075TIP3   OH230783   5.644   3.651   2.814 -0.0018 -0.2433  0.2171
 3075TIP3    H130784   5.644   3.746   2.803 -0.1765 -0.3051 -0.3277
 3075TIP3    H230785   5.696   3.617   2.741 -0.7880 -0.6281 -0.1780
 3076TIP3   OH230786   3.820   3.293   2.500  0.0596  0.4312  0.4314
 3076TIP3    H130787   3.788   3.351   2.570 -0.3041 -1.4829  1.9359
 3076TIP3    H230788   3.915   3.299   2.505  0.0282  1.7793 -0.2329
 3077TIP3   OH230789   6.454   0.094   7.278 -0.5636 -0.3970  0.3701
 3077TIP3    H130790   6.532   0.046   7.307 -0.4956  0.1557  1.1157
 3077TIP3    H230791   6.436   0.058   7.191  0.4147 -0.6592  0.2569
 3078TIP3   OH230792   2.928   6.261   1.305 -0.0503 -0.2762 -0.1958
 3078TIP3    H130793   2.883   6.338   1.271  2.2023  1.0206 -0.4145
 3078TIP3    H230794   2.939   6.204   1.228  0.8632  0.5314 -0.6838
 3079TIP3   OH230795   2.411   2.828   7.310 -0.7404  0.1838 -0.1865
 3079TIP3    H130796   2.470   2.757   7.335 -0.0044  0.0476 -2.0960
 3079TIP3    H230797   2.469   2.901   7.289 -1.4810  1.3531  1.6124
 3080TIP3   OH230798   1.913   2.097   0.710 -1.0781 -0.2250 -0.3335
 3080TIP3    H130799   1.889   2.004   0.714 -1.1695 -0.1934 -0.0671
 3080TIP3    H230800   1.829   2.143   0.708 -1.0382 -0.1846 -1.7181
 3081TIP3   OH230801   1.225   0.108   1.183  0.2677  0.2572  0.2098
 3081TIP3    H130802   1.223   0.022   1.139 -2.4532 -0.1448  0.9590
 3081TIP3    H230803   1.279   0.162   1.126  2.7162 -2.0767  0.0672
 3082TIP3   OH230804   3.246   2.744   1.160 -0.8983 -0.1532 -1.1290
 3082TIP3    H130805   3.248   2.655   1.196 -0.4789 -0.5214 -2.0095
 3082TIP3    H230806   3.329   2.751   1.112  0.8046  1.9848  1.8109
 3083TIP3   OH230807   1.167   3.064   7.396  0.1407 -0.7392 -0.4414
 3083TIP3    H130808   1.232   3.057   7.326  1.3643  1.0032  0.4654
 3083TIP3    H230809   1.094   3.111   7.355  0.7484  0.0557 -0.6237
 3084TIP3   OH230810   1.032   1.619   2.170 -0.1038  0.1469  0.5390
 3084TIP3    H130811   1.033   1.560   2.246 -0.1285  0.1546  0.5455
 3084TIP3    H230812   0.981   1.572   2.104 -3.8437  1.8668  1.9438
 3085TIP3   OH230813   5.742   1.242   1.104 -0.1481 -0.2014  0.1340
 3085TIP3    H130814   5.835   1.230   1.091  0.3950  0.8259  2.4801
 3085TIP3    H230815   5.718   1.178   1.171 -0.5840  1.0478  1.2248
 3086TIP3   OH230816   1.706   0.013   0.188  0.8482 -0.6624  0.3988
 3086TIP3    H130817   1.719   0.028   0.282 -0.6989  0.4072  0.4907
 3086TIP3    H230818   1.655   0.089   0.159 -3.1057 -3.3013 -0.2326
 3087TIP3   OH230819   2.092   3.859   0.918  0.4822 -0.6343 -0.5836
 3087TIP3    H130820   2.175   3.812   0.914  0.3596 -0.8212 -1.0282
 3087TIP3    H230821   2.061   3.846   1.008  0.7008 -0.9709 -0.5547
 3088TIP3   OH230822   3.160   6.261   2.050 -0.4067 -0.1448 -0.2139
 3088TIP3    H130823   3.164   6.329   1.982  1.1344  0.8081  0.7476
 3088TIP3    H230824   3.071   6.266   2.084 -1.0034 -0.1847 -1.6827
 3089TIP3   OH230825   1.764   1.681   8.157 -0.1051  0.2967 -0.3818
 3089TIP3    H130826   1.726   1.722   8.079 -1.6261  2.4872  1.3767
 3089TIP3    H230827   1.841   1.734   8.176 -0.6871  0.8504  0.5104
 3090TIP3   OH230828   1.565   5.611   7.645 -0.2086  0.7041 -0.2812
 3090TIP3    H130829   1.573   5.616   7.740 -2.9253 -1.0055  0.1289
 3090TIP3    H230830   1.541   5.520   7.627  1.9443  0.5031 -2.8167
 3091TIP3   OH230831   0.874   5.716   8.199 -0.4212  0.7343 -0.0804
 3091TIP3    H130832   0.831   5.681   8.277  2.3548 -0.5585  0.9821
 3091TIP3    H230833   0.851   5.655   8.129 -0.1641 -0.0571  0.5146
 3092TIP3   OH230834   3.078   0.049   1.142  0.2377 -0.1242 -0.3608
 3092TIP3    H130835   3.047  -0.012   1.208 -2.0714  0.7295 -0.5795
 3092TIP3    H230836   3.006   0.057   1.080  1.3643  1.0646 -1.6020
 3093TIP3   OH230837   1.422   2.733   1.796 -0.1763 -0.1510 -0.1229
 3093TIP3    H130838   1.348   2.709   1.740 -0.6309  1.6173 -0.3469
 3093TIP3    H230839   1.462   2.808   1.752  0.8303 -0.1316  0.7815
 3094TIP3   OH230840   5.070   4.191   8.453 -0.5480 -0.6032  0.3809
 3094TIP3    H130841   5.010   4.185   8.379  0.6212  0.6603 -0.7153
 3094TIP3    H230842   5.070   4.283   8.477  1.6145 -0.3788 -0.2659
 3095TIP3   OH230843   1.069   0.586   7.720 -0.2598 -0.5562 -0.0719
 3095TIP3    H130844   1.043   0.632   7.640  2.1008  0.9000 -0.0795
 3095TIP3    H230845   1.164   0.582   7.717 -0.1265 -1.1712  2.2983
 3096TIP3   OH230846   0.362   2.293   7.014 -0.3471  1.0254  0.2555
 3096TIP3    H130847   0.318   2.377   7.018 -0.1954  1.2169 -1.5246
 3096TIP3    H230848   0.300   2.235   6.970 -0.5180  0.1319  1.6135
 3097TIP3   OH230849   1.657   4.556   2.086 -0.1310  0.5767 -0.3354
 3097TIP3    H130850   1.589   4.542   2.021 -0.4313  2.2884 -0.4216
 3097TIP3    H230851   1.635   4.639   2.127  2.3739  1.6758 -1.0089
 3098TIP3   OH230852   3.169   3.510   2.109  0.0704 -0.0797 -0.1439
 3098TIP3    H130853   3.098   3.492   2.047 -0.3533 -1.2789  0.6508
 3098TIP3    H230854   3.128   3.504   2.195  1.2792 -1.6434  0.3701
 3099TIP3   OH230855   2.286   0.762   1.811  0.3812  0.2066 -0.0830
 3099TIP3    H130856   2.211   0.703   1.806  0.4968  0.1228 -1.0209
 3099TIP3    H230857   2.318   0.753   1.901 -1.8283  1.6402  0.9349
 3100TIP3   OH230858   3.558   2.523   0.039  0.6886 -0.1588  0.0862
 3100TIP3    H130859   3.541   2.602  -0.012  2.3547 -0.0643 -0.3702
 3100TIP3    H230860   3.497   2.529   0.113 -1.8477 -0.3401 -1.8598
 3101TIP3   OH230861   5.284   0.283   7.344 -0.4495  0.5130 -0.1575
 3101TIP3    H130862   5.215   0.255   7.283 -1.4330  1.8809  0.2771
 3101TIP3    H230863   5.365   0.275   7.294 -1.1628  0.9968 -1.4422
 3102TIP3   OH230864   5.997   4.568   1.911 -0.2147 -0.2315  0.4795
 3102TIP3    H130865   5.912   4.604   1.936 -0.0349 -0.7269  1.9045
 3102TIP3    H230866   5.986   4.540   1.820 -0.9604  1.5350 -0.0174
 3103TIP3   OH230867   0.729   6.677   2.366 -0.3399  0.1372  0.5261
 3103TIP3    H130868   0.728   6.763   2.409 -0.3166  0.2625  0.2820
 3103TIP3    H230869   0.802   6.630   2.406 -0.1370  0.3584  0.4160
 3104TIP3   OH230870   6.234   6.191   1.456  0.4705  0.0843 -0.2629
 3104TIP3    H130871   6.289   6.199   1.377  2.6951  2.7511  1.3678
 3104TIP3    H230872   6.281   6.128   1.511 -0.7112 -1.2337 -0.7016
 3105TIP3   OH230873   5.501   1.831   1.678  0.1919 -0.4256 -0.4688
 3105TIP3    H130874   5.484   1.921   1.705 -1.6135 -1.0275  0.5034
 3105TIP3    H230875   5.576   1.839   1.618  0.4672  1.6333  0.0541
 3106TIP3   OH230876   1.261   3.121   8.034 -0.1668  0.3048 -0.1385
 3106TIP3    H130877   1.337   3.088   8.082 -0.7185 -2.3160 -0.9119
 3106TIP3    H230878   1.247   3.209   8.069  1.6700 -0.1033  1.8302
 3107TIP3   OH230879   0.057   5.446   1.327 -0.2084  0.0223 -0.4891
 3107TIP3    H130880   0.083   5.376   1.268  0.3518 -0.0691 -0.1398
 3107TIP3    H230881   0.138   5.496   1.342 -0.3404  0.0255  0.2199
 3108TIP3   OH230882   5.867   4.249   0.940 -0.0589 -0.2312 -0.6649
 3108TIP3    H130883   5.814   4.172   0.962  0.1630 -0.4368 -0.8486
 3108TIP3    H230884   5.827   4.283   0.860  0.6175 -0.8992 -1.2996
 3109TIP3   OH230885   2.211   2.268   1.079 -0.5081 -0.4467 -0.2392
 3109TIP3    H130886   2.136   2.236   1.129 -1.0125  0.6106 -0.2880
 3109TIP3    H230887   2.272   2.194   1.077 -0.3766 -0.4583  2.0792
 3110TIP3   OH230888   2.964   2.516   6.978 -0.6628  0.2960  0.0373
 3110TIP3    H130889   2.996   2.606   6.985  0.7525 -0.1074 -0.7944
 3110TIP3    H230890   3.026   2.464   7.029 -2.0802 -0.1183  1.4225
 3111TIP3   OH230891   5.579   2.365   0.982  0.0652 -0.0096 -0.2545
 3111TIP3    H130892   5.616   2.276   0.986 -1.1611 -0.5776 -0.9272
 3111TIP3    H230893   5.597   2.394   0.893  1.9127  1.0960  0.4470
 3112TIP3   OH230894   3.723   5.042   8.087 -0.4569  0.7234  0.6812
 3112TIP3    H130895   3.787   4.992   8.036 -0.9607  1.3321 -0.5811
 3112TIP3    H230896   3.723   4.999   8.173  1.5073  0.5969  0.6765
 3113TIP3   OH230897   2.757   1.470   0.671  0.0365 -0.1627 -0.2808
 3113TIP3    H130898   2.828   1.458   0.608  1.2051  0.7695  0.8132
 3113TIP3    H230899   2.799   1.510   0.748 -1.7238  0.7170  0.2751
 3114TIP3   OH230900   0.866   1.560   8.325 -0.5754 -0.2918  0.4681
 3114TIP3    H130901   0.828   1.635   8.278 -0.4257 -0.6275 -0.2010
 3114TIP3    H230902   0.961   1.573   8.318 -0.5346 -0.8511 -0.1859
 3115TIP3   OH230903   3.891   3.733   8.394  0.2824  0.2202 -0.2440
 3115TIP3    H130904   3.851   3.784   8.465  1.3077  0.1533  0.4033
 3115TIP3    H230905   3.819   3.685   8.356 -0.2514  0.0071  0.9720
 3116TIP3   OH230906   1.849   5.292   7.943 -0.5479  0.3585  0.0915
 3116TIP3    H130907   1.888   5.290   7.856  2.8462  2.8577  1.3558
 3116TIP3    H230908   1.900   5.229   7.995  0.0938  1.7144  1.1614
 3117TIP3   OH230909   5.221   1.656   8.370  0.2338  0.0934  0.1329
 3117TIP3    H130910   5.138   1.675   8.415  0.5271 -0.6450  1.0155
 3117TIP3    H230911   5.244   1.568   8.398  0.9399 -0.0100 -0.7154
 3118TIP3   OH230912   0.859   4.336   2.816 -0.5234 -0.4452  0.0104
 3118TIP3    H130913   0.903   4.314   2.898 -0.9347  0.7991  0.5896
 3118TIP3    H230914   0.780   4.282   2.816  0.0500 -1.3005 -0.1318
 3119TIP3   OH230915   1.532   2.413   0.680 -0.1117  0.7300 -0.1731
 3119TIP3    H130916   1.603   2.475   0.701  1.5135 -0.8477 -0.7524
 3119TIP3    H230917   1.530   2.409   0.585 -1.6370  1.4198 -0.1988
 3120TIP3   OH230918   5.743   3.016   6.831  0.3403 -0.3980  0.6717
 3120TIP3    H130919   5.778   3.082   6.771 -0.8096 -0.8152 -0.5159
 3120TIP3    H230920   5.717   2.943   6.774 -0.2068 -1.0685  1.7455
 3121TIP3   OH230921   2.315   4.355   1.049  0.2046 -0.1576 -0.3357
 3121TIP3    H130922   2.325   4.347   1.144  0.7028  2.5620 -0.0997
 3121TIP3    H230923   2.323   4.265   1.017  3.4132 -0.8177  1.8876
 3122TIP3   OH230924   4.399   6.163   1.625  0.2816 -0.5929  0.0038
 3122TIP3    H130925   4.337   6.172   1.698  1.3591 -2.1626  1.1664
 3122TIP3    H230926   4.454   6.241   1.631  1.5356 -1.5537  2.0743
 3123TIP3   OH230927   3.451   2.087   8.534  0.5247  0.2843 -0.2447
 3123TIP3    H130928   3.507   2.127   8.601 -0.4405  0.2867  0.5825
 3123TIP3    H230929   3.509   2.026   8.488  1.8550  2.1488 -1.1356
 3124TIP3   OH230930   1.342   4.135   8.122 -0.4338  0.4970  0.0712
 3124TIP3    H130931   1.374   4.136   8.213  1.1398 -1.0178 -0.4192
 3124TIP3    H230932   1.251   4.107   8.129  0.1823 -1.4435  1.1048
 3125TIP3   OH230933   3.510   2.512   8.188 -0.4793  0.0364 -0.3145
 3125TIP3    H130934   3.560   2.532   8.267 -0.8261 -0.2365 -0.0217
 3125TIP3    H230935   3.571   2.529   8.116 -0.6205  1.6981 -0.0738
 3126TIP3   OH230936   6.305   4.151   7.784 -0.3758  0.5190  0.0161
 3126TIP3    H130937   6.366   4.187   7.849 -0.2674 -0.1848  0.3194
 3126TIP3    H230938   6.245   4.097   7.835  0.2746 -0.7840 -0.5565
 3127TIP3   OH230939   4.701   6.475   2.255  0.3550  0.4694 -0.7637
 3127TIP3    H130940   4.609   6.449   2.260  0.1719  1.2245  0.0499
 3127TIP3    H230941   4.750   6.401   2.290 -0.1051  0.9072  0.8626
 3128TIP3   OH230942   2.492   1.912   1.225  0.0525 -0.3339  0.5316
 3128TIP3    H130943   2.453   1.976   1.166 -3.7847 -0.0756  2.9635
 3128TIP3    H230944   2.556   1.962   1.276  1.1942  0.1167 -1.2480
 3129TIP3   OH230945   5.002   2.211   0.470  0.0321 -0.1827 -0.3566
 3129TIP3    H130946   4.947   2.134   0.485  0.2298 -0.4460 -0.9419
 3129TIP3    H230947   5.071   2.180   0.410  0.5320  0.2669 -0.0258
 3130TIP3   OH230948   5.227   2.238   1.825  0.2530 -0.1753 -0.4424
 3130TIP3    H130949   5.270   2.323   1.831  1.0093 -0.5241 -0.7673
 3130TIP3    H230950   5.134   2.259   1.812  0.2262  0.5820  0.8363
 3131TIP3   OH230951   6.130   5.002   7.943 -0.4563 -1.0939  0.1436
 3131TIP3    H130952   6.137   5.066   8.014 -0.4531 -3.6541  2.6187
 3131TIP3    H230953   6.197   5.029   7.880  0.2376  0.7273  1.5562
 3132TIP3   OH230954   1.416   4.176   1.940  0.3333 -0.5188  0.5620
 3132TIP3    H130955   1.474   4.116   1.893 -1.7776 -1.6538 -0.7427
 3132TIP3    H230956   1.351   4.202   1.875 -1.3590 -0.2831  2.2657
 3133TIP3   OH230957   0.480   1.724   0.210 -0.2547  0.5985 -0.2673
 3133TIP3    H130958   0.498   1.807   0.256 -2.8661  0.9106  0.3417
 3133TIP3    H230959   0.457   1.751   0.121 -2.6385  0.7799  0.3266
 3134TIP3   OH230960   6.304   5.553   7.273  0.4869 -0.0448  0.3939
 3134TIP3    H130961   6.340   5.588   7.191 -2.2449 -0.1289 -0.9684
 3134TIP3    H230962   6.252   5.624   7.309 -2.1085 -1.3835 -0.4666
 3135TIP3   OH230963   4.828   3.061   1.648 -0.2599  0.4635 -0.2499
 3135TIP3    H130964   4.878   3.142   1.661 -2.4134  1.7990  0.1915
 3135TIP3    H230965   4.832   3.017   1.733 -1.7783  1.7497  0.5218
 3136TIP3   OH230966   0.533   2.115   7.631  0.1610 -0.2906 -0.3986
 3136TIP3    H130967   0.472   2.188   7.628 -0.3874 -0.5063  2.5541
 3136TIP3    H230968   0.477   2.037   7.630  0.5019 -0.5496  0.3727
 3137TIP3   OH230969   5.460   3.468   1.300 -0.3485  0.0655  0.3743
 3137TIP3    H130970   5.515   3.502   1.371  0.5635 -1.9503  0.6799
 3137TIP3    H230971   5.372   3.497   1.323  0.1791  0.9562  1.3848
 3138TIP3   OH230972   4.434   1.234   1.677 -0.2911 -0.1701 -0.0982
 3138TIP3    H130973   4.459   1.300   1.741  0.0173 -0.5753  0.2038
 3138TIP3    H230974   4.502   1.167   1.683 -0.0509 -0.0397 -1.1102
 3139TIP3   OH230975   4.898   4.344   0.072 -0.4451  0.0224 -0.3393
 3139TIP3    H130976   4.955   4.313   0.142 -2.2985 -1.4099  0.6401
 3139TIP3    H230977   4.821   4.379   0.117 -1.6126 -0.7825 -1.6262
 3140TIP3   OH230978   2.668   6.027   3.406 -0.1380 -0.0409 -0.0543
 3140TIP3    H130979   2.745   5.989   3.364 -0.9014 -0.8268 -0.7815
 3140TIP3    H230980   2.602   5.957   3.404 -1.9169  1.5399 -2.3032
 3141TIP3   OH230981   1.728   6.838   0.480  0.0046 -0.0429 -0.1380
 3141TIP3    H130982   1.686   6.782   0.545 -2.6668  2.3447  0.3463
 3141TIP3    H230983   1.814   6.857   0.517 -0.3856 -1.0087  1.3255
 3142TIP3   OH230984   0.740   6.527   1.723  0.5128  0.1818 -0.3228
 3142TIP3    H130985   0.785   6.488   1.798  1.5236  1.4031 -0.2675
 3142TIP3    H230986   0.809   6.572   1.674 -0.0694 -0.8124 -2.1634
 3143TIP3   OH230987   5.234   1.730   1.170 -0.3557  0.6089 -0.1616
 3143TIP3    H130988   5.277   1.765   1.248  0.4543 -0.1698 -0.2435
 3143TIP3    H230989   5.284   1.766   1.097  1.4439 -1.7681 -0.2338
 3144TIP3   OH230990   3.302   4.053   8.211 -0.0823 -0.6613  0.2043
 3144TIP3    H130991   3.365   3.988   8.244 -1.5612 -0.8834  2.9474
 3144TIP3    H230992   3.267   4.014   8.131 -0.7509 -3.2786  1.6213
 3145TIP3   OH230993   1.356   0.665   0.867  0.0004  0.0905  0.2746
 3145TIP3    H130994   1.422   0.733   0.852 -0.0534 -0.1612 -1.1906
 3145TIP3    H230995   1.365   0.605   0.793 -1.0747 -0.6002  0.6746
 3146TIP3   OH230996   5.269   2.571   0.219  0.5829 -0.3370 -0.5630
 3146TIP3    H130997   5.183   2.554   0.259  1.0332 -0.5200  0.3574
 3146TIP3    H230998   5.251   2.634   0.149 -0.7449 -2.5100 -2.3154
 3147TIP3   OH230999   2.063   4.599   0.272  0.2604 -0.4772 -0.7557
 3147TIP3    H131000   2.078   4.659   0.344  1.1641 -0.1198 -1.2316
 3147TIP3    H231001   2.113   4.521   0.294 -1.5796 -1.4498  0.2788
 3148TIP3   OH231002   2.668   0.477   7.861  0.6297  0.2181 -0.4351
 3148TIP3    H131003   2.687   0.504   7.951 -0.1785  1.0644 -0.5023
 3148TIP3    H231004   2.641   0.558   7.818 -0.9638 -0.5212 -0.9046
 3149TIP3   OH231005   3.272   5.171   0.862  0.2155  0.0023 -0.2412
 3149TIP3    H131006   3.301   5.214   0.782  0.2416 -0.5864 -0.5557
 3149TIP3    H231007   3.227   5.240   0.911 -2.7136 -0.3083 -2.2306
 3150TIP3   OH231008   3.373   5.565   0.181  0.3817  0.1853  0.1255
 3150TIP3    H131009   3.339   5.649   0.148  1.5839  1.2051  1.3837
 3150TIP3    H231010   3.365   5.506   0.106 -1.9426  0.9708 -0.3391
 3151TIP3   OH231011   1.126   0.146   2.926  0.0341  0.2888  0.2511
 3151TIP3    H131012   1.102   0.128   2.835 -0.7963 -0.9175  0.6849
 3151TIP3    H231013   1.150   0.060   2.961 -2.6622  0.1653  2.0331
 3152TIP3   OH231014   4.049   2.340   2.914 -0.6488  0.2639  0.3993
 3152TIP3    H131015   4.117   2.276   2.890 -1.0646  0.0575 -0.2728
 3152TIP3    H231016   4.082   2.423   2.881  0.6282  0.7278  2.6443
 3153TIP3   OH231017   2.534   3.760   0.382 -0.1732 -0.0830  0.5405
 3153TIP3    H131018   2.462   3.822   0.368 -0.3750 -0.0671  1.5909
 3153TIP3    H231019   2.519   3.726   0.470  1.8082  0.8521  1.2925
 3154TIP3   OH231020   5.163   0.722   7.795 -0.1144  0.2244 -0.0011
 3154TIP3    H131021   5.216   0.695   7.871 -2.7575  1.1033  2.3387
 3154TIP3    H231022   5.141   0.640   7.751  2.3157 -0.2238 -0.5044
 3155TIP3   OH231023   1.588   1.032   2.493 -0.5053 -0.0060  0.0403
 3155TIP3    H131024   1.511   1.005   2.442  1.4084 -3.1890 -1.4441
 3155TIP3    H231025   1.589   1.128   2.485 -2.8355 -0.0424 -2.1005
 3156TIP3   OH231026   2.320   4.326   0.667 -0.5306 -0.4856  0.3207
 3156TIP3    H131027   2.334   4.416   0.637  1.3740 -1.0072 -0.4984
 3156TIP3    H231028   2.261   4.288   0.602  0.1574 -0.3488 -0.4096
 3157TIP3   OH231029   0.882   5.501   0.455 -0.4241  0.4636 -0.1762
 3157TIP3    H131030   0.902   5.574   0.396  0.0301  0.6895  0.2425
 3157TIP3    H231031   0.887   5.423   0.401 -0.9582  0.7444 -0.6414
 3158TIP3   OH231032   5.046   0.852   8.125 -0.2781 -0.2499  0.1381
 3158TIP3    H131033   5.070   0.883   8.212 -0.8707  1.9948 -0.4158
 3158TIP3    H231034   5.003   0.768   8.140 -0.2838  0.0374  2.0084
 3159TIP3   OH231035   2.841   4.235   1.993  0.1711 -0.3877 -0.1406
 3159TIP3    H131036   2.813   4.223   2.084  0.1223 -1.2273 -0.2559
 3159TIP3    H231037   2.899   4.311   1.996 -1.2353  0.7322  0.2901
 3160TIP3   OH231038   6.536   5.965   7.394  0.0792 -0.1924 -0.9413
 3160TIP3    H131039   6.527   5.952   7.489 -0.3143 -1.7105 -1.1618
 3160TIP3    H231040   6.446   5.964   7.361  0.0770  2.0789 -1.1682
 3161TIP3   OH231041   5.476   1.202   6.652 -0.1760 -0.4130  0.1050
 3161TIP3    H131042   5.563   1.163   6.649 -0.3243 -0.7108 -0.4476
 3161TIP3    H231043   5.488   1.284   6.700  0.8158  0.5845 -1.7568
 3162TIP3   OH231044   6.840   3.297   2.731 -0.3153 -0.3179  0.3743
 3162TIP3    H131045   6.865   3.228   2.669  0.1352  0.4837 -0.3443
 3162TIP3    H231046   6.913   3.302   2.792  0.0385  0.1201 -0.0859
 3163TIP3   OH231047   1.413   3.557   8.128  0.0994  0.2141 -0.1846
 3163TIP3    H131048   1.391   3.576   8.037 -0.2873 -0.1055 -0.1585
 3163TIP3    H231049   1.484   3.493   8.123  0.5871  0.7551 -0.2623
 3164TIP3   OH231050   0.417   6.763   7.681  0.0399  0.1934 -0.1272
 3164TIP3    H131051   0.386   6.677   7.707 -0.3581  0.3163 -0.1872
 3164TIP3    H231052   0.513   6.756   7.681  0.1791  0.6910  3.1717
 3165TIP3   OH231053   0.950   0.321   8.169  0.2848  0.1142  0.2479
 3165TIP3    H131054   0.876   0.297   8.225  1.0664 -2.0108  0.4614
 3165TIP3    H231055   0.919   0.397   8.120 -0.9599  1.1202  2.4354
 3166TIP3   OH231056   3.794   4.169   8.316  0.3846 -0.3999  0.0722
 3166TIP3    H131057   3.815   4.085   8.275  0.1543 -0.5418  0.2399
 3166TIP3    H231058   3.726   4.147   8.380 -0.1281  0.0092 -0.3157
 3167TIP3   OH231059   4.629   2.198   8.123  0.6411 -0.2931 -0.3935
 3167TIP3    H131060   4.719   2.177   8.147  0.5974  0.5638  0.5832
 3167TIP3    H231061   4.638   2.262   8.052  0.8646  1.3898  1.0831
 3168TIP3   OH231062   1.368   1.245   1.542 -0.3975  0.3784 -0.3434
 3168TIP3    H131063   1.413   1.249   1.627 -0.0541 -3.1007 -0.2158
 3168TIP3    H231064   1.435   1.215   1.481 -0.9396  1.7250 -1.6462
 3169TIP3   OH231065   1.933   4.589   8.035  0.3410 -0.0711  0.0964
 3169TIP3    H131066   2.009   4.567   7.981 -0.7486 -1.3765 -0.9633
 3169TIP3    H231067   1.900   4.670   7.997 -0.0108 -0.6170 -0.8065
 3170TIP3   OH231068   1.584   6.010   0.426  0.0253  0.2520 -0.2394
 3170TIP3    H131069   1.496   6.032   0.457 -0.0578  0.1325 -0.3924
 3170TIP3    H231070   1.572   5.986   0.334 -0.1494 -2.0937  0.3416
 3171TIP3   OH231071   4.892   1.068   8.535  0.3506  0.2164 -0.6266
 3171TIP3    H131072   4.816   1.009   8.532  1.3549 -1.2245  0.7432
 3171TIP3    H231073   4.882   1.114   8.619  0.9323  0.0845 -0.4821
 3172TIP3   OH231074   3.375   4.287   0.283  0.3545  0.2960 -0.4159
 3172TIP3    H131075   3.429   4.285   0.361  2.4910 -1.1215 -1.8243
 3172TIP3    H231076   3.332   4.201   0.280 -0.8494  0.8576 -0.1067
 3173TIP3   OH231077   6.413   0.700   8.549  0.9508  0.3282  0.4687
 3173TIP3    H131078   6.374   0.613   8.545  0.0107  0.6958  1.3572
 3173TIP3    H231079   6.367   0.744   8.620  0.2062  2.1471 -1.0621
 3174TIP3   OH231080   6.792   4.438   7.465  0.3308  0.1809 -0.7835
 3174TIP3    H131081   6.773   4.526   7.431 -0.3967  0.5077  0.4110
 3174TIP3    H231082   6.868   4.409   7.414  0.3254  1.3299 -1.4853
 3175TIP3   OH231083   1.451   1.923   7.326  0.0732 -0.0142 -0.8577
 3175TIP3    H131084   1.509   1.992   7.357  1.2741 -1.9636  1.5580
 3175TIP3    H231085   1.507   1.865   7.274 -0.2265 -0.6467 -0.4961
 3176TIP3   OH231086   4.176   2.528   2.514  0.3341  0.1515 -0.1076
 3176TIP3    H131087   4.133   2.499   2.434 -0.3097 -0.2366  0.3585
 3176TIP3    H231088   4.231   2.601   2.488  0.6978 -0.4401 -1.0222
 3177TIP3   OH231089   4.137   5.765   8.609  0.0146  0.3476  0.1762
 3177TIP3    H131090   4.199   5.829   8.574  1.9342  0.6144  3.5706
 3177TIP3    H231091   4.059   5.816   8.631  0.8429  1.2277  1.1764
 3178TIP3   OH231092   0.371   5.211   2.202 -0.2868  0.7412  0.2084
 3178TIP3    H131093   0.425   5.208   2.123  0.6608 -0.9550  0.8671
 3178TIP3    H231094   0.289   5.252   2.175  0.2234  0.6573 -1.5253
 3179TIP3   OH231095   3.714   1.052   0.271 -0.5290  0.1007 -0.3929
 3179TIP3    H131096   3.797   1.004   0.281 -0.3286  0.7792  1.7219
 3179TIP3    H231097   3.739   1.133   0.227 -0.7713 -1.3436 -3.4116
 3180TIP3   OH231098   2.891   5.327   2.001  0.0357  0.1320  0.3231
 3180TIP3    H131099   2.974   5.364   1.970  1.4411 -0.1321  3.3459
 3180TIP3    H231100   2.858   5.277   1.927  3.0182 -0.4172 -0.8034
 3181TIP3   OH231101   1.907   1.992   7.959  0.0451 -0.7659  0.1240
 3181TIP3    H131102   2.002   2.000   7.971  0.3279  1.1521 -2.5812
 3181TIP3    H231103   1.883   2.069   7.908 -3.3921  0.0094  2.5801
 3182TIP3   OH231104   4.026   6.148   0.825  0.4446  0.3274 -0.9016
 3182TIP3    H131105   4.108   6.195   0.818  0.7922 -0.1857 -0.3948
 3182TIP3    H231106   3.997   6.135   0.735 -0.5348  2.9640 -1.0695
 3183TIP3   OH231107   4.256   4.414   0.157  0.5804 -0.9015  0.2445
 3183TIP3    H131108   4.182   4.445   0.106  0.7491  1.7699  1.4143
 3183TIP3    H231109   4.217   4.370   0.233  0.1946 -0.4084  0.3365
 3184TIP3   OH231110   4.189   3.105   1.616 -0.3023  0.2124 -0.1002
 3184TIP3    H131111   4.259   3.165   1.590 -0.1571 -1.1245 -3.2749
 3184TIP3    H231112   4.234   3.036   1.665  0.4789 -0.1130 -1.2318
 3185TIP3   OH231113   1.116   5.335   0.262 -0.3401 -0.1497 -0.3191
 3185TIP3    H131114   1.172   5.373   0.194  1.9196 -0.8178  1.0886
 3185TIP3    H231115   1.033   5.382   0.251 -0.4543 -0.8704 -4.1025
 3186TIP3   OH231116   4.668   2.250   0.094 -0.2926 -0.7712  0.1797
 3186TIP3    H131117   4.606   2.255   0.167 -0.1813 -0.7882  0.2757
 3186TIP3    H231118   4.617   2.215   0.021 -1.0853  1.5548 -0.4833
 3187TIP3   OH231119   6.280   0.849   0.049 -0.2833 -0.1250 -0.0325
 3187TIP3    H131120   6.230   0.929   0.034 -0.0625 -0.1218 -0.7896
 3187TIP3    H231121   6.338   0.870   0.123  0.1536  0.5934 -0.5746
 3188TIP3   OH231122   2.825   1.520   7.184  0.0876 -0.0024 -0.5320
 3188TIP3    H131123   2.834   1.615   7.187  0.1972  0.0047 -1.1211
 3188TIP3    H231124   2.820   1.494   7.276  2.8855  0.2912 -0.2230
 3189TIP3   OH231125   5.898   0.543   1.541  0.2171  0.4915 -0.7042
 3189TIP3    H131126   5.816   0.496   1.555  0.4997  0.7667  2.8244
 3189TIP3    H231127   5.882   0.629   1.581  2.1898  0.5207  0.1157
 3190TIP3   OH231128   6.271   0.785   2.100  1.2036  0.5583 -0.1462
 3190TIP3    H131129   6.178   0.773   2.116  0.9387  0.7454 -1.4519
 3190TIP3    H231130   6.277   0.862   2.044  2.1405  0.5570 -0.0684
 3191TIP3   OH231131   1.901   3.598   0.911  0.0841  0.1316 -0.0691
 3191TIP3    H131132   1.918   3.692   0.919  0.8113 -0.0381  0.4295
 3191TIP3    H231133   1.814   3.586   0.950  0.6666  0.3585  1.3667
 3192TIP3   OH231134   6.686   0.275   0.243 -0.2440 -0.0885  0.3840
 3192TIP3    H131135   6.643   0.314   0.167 -1.1964  0.4036  1.1572
 3192TIP3    H231136   6.730   0.197   0.208  0.6215  0.9555 -0.9471
 3193TIP3   OH231137   0.073   0.382   1.407 -0.1448 -0.4262 -0.1213
 3193TIP3    H131138  -0.009   0.347   1.442  0.3529 -1.1609  0.3369
 3193TIP3    H231139   0.142   0.332   1.452  0.5324 -0.7536 -1.4600
 3194TIP3   OH231140   0.312   2.933   0.259  0.1715  0.3767 -0.0869
 3194TIP3    H131141   0.343   3.014   0.298 -0.9235  0.4342  0.7165
 3194TIP3    H231142   0.221   2.925   0.288 -0.3743 -0.1272 -1.7786
 3195TIP3   OH231143   5.877   1.142   1.904  0.7352 -1.0408 -0.8411
 3195TIP3    H131144   5.905   1.195   1.980  0.5288 -0.3733 -1.2191
 3195TIP3    H231145   5.868   1.206   1.833 -4.0777 -0.6513 -0.2360
 3196TIP3   OH231146   2.424   4.428   7.703  0.4441  0.0183 -0.0111
 3196TIP3    H131147   2.506   4.432   7.654  1.0908  2.7274  1.0808
 3196TIP3    H231148   2.385   4.515   7.691  0.0871  0.4288  3.2254
 3197TIP3   OH231149   3.422   0.121   2.376  0.2714  0.0909  0.3219
 3197TIP3    H131150   3.440   0.204   2.419 -1.2926  0.0063  1.2154
 3197TIP3    H231151   3.473   0.124   2.294 -0.0186  2.0426  0.1829
 3198TIP3   OH231152   5.264   5.075   1.481  0.0860 -0.3582  0.6313
 3198TIP3    H131153   5.306   5.160   1.494  2.1628 -1.3568  0.7947
 3198TIP3    H231154   5.186   5.095   1.429  0.0307  1.7405  1.4229
 3199TIP3   OH231155   6.014   0.356   8.653  0.6116 -0.7479 -0.9982
 3199TIP3    H131156   6.015   0.436   8.705 -2.2658 -0.8273 -0.6215
 3199TIP3    H231157   6.044   0.383   8.566 -0.7457  0.8898 -1.0081
 3200TIP3   OH231158   2.036   2.926   7.856  0.4893 -0.2498  0.5891
 3200TIP3    H131159   2.042   2.903   7.763 -0.2098  0.1662  0.4313
 3200TIP3    H231160   2.110   2.881   7.897  1.8279  0.9042 -0.4444
 3201TIP3   OH231161   2.022   6.655   8.024  0.0636  0.3092 -0.3220
 3201TIP3    H131162   2.013   6.679   7.932  0.5660  0.2979 -0.3780
 3201TIP3    H231163   2.110   6.683   8.048 -0.0159  0.2001  0.1234
 3202TIP3   OH231164   1.580   3.124   1.735 -0.0052  0.3877  0.1194
 3202TIP3    H131165   1.661   3.090   1.773  1.5813  1.0281 -2.3715
 3202TIP3    H231166   1.512   3.102   1.798  1.6647 -2.7166  1.0466
 3203TIP3   OH231167   4.975   1.935   1.632  0.3102  0.2369 -0.4274
 3203TIP3    H131168   4.980   1.871   1.560 -0.5434  0.4191 -0.6555
 3203TIP3    H231169   4.949   2.017   1.590  0.9566  0.6328 -0.0692
 3204TIP3   OH231170   0.471   2.425   7.898 -0.5745  0.5066 -0.5085
 3204TIP3    H131171   0.415   2.439   7.821 -1.0871 -0.2124 -0.2823
 3204TIP3    H231172   0.414   2.382   7.962  0.1385  0.0847 -0.1369
 3205TIP3   OH231173   6.576   5.662   7.760  0.3661  0.5132  0.0829
 3205TIP3    H131174   6.611   5.742   7.801  0.0384  0.5429  0.3104
 3205TIP3    H231175   6.589   5.595   7.827  0.1837  0.4810  0.0863
 3206TIP3   OH231176   0.626   4.814   1.031 -0.2343 -0.0986  0.0049
 3206TIP3    H131177   0.555   4.762   1.069  0.2665 -1.2298 -0.5553
 3206TIP3    H231178   0.620   4.797   0.937 -0.6842  1.6836 -0.3322
 3207TIP3   OH231179   1.159   1.541   6.799 -0.1217 -0.4060  0.8338
 3207TIP3    H131180   1.083   1.595   6.777 -0.3730 -1.3813 -0.9016
 3207TIP3    H231181   1.123   1.457   6.827  0.1876 -1.7889 -2.4291
 3208TIP3   OH231182   5.848   6.818   7.278  0.1939  0.0549  0.1518
 3208TIP3    H131183   5.874   6.774   7.359  0.1773 -0.3136 -0.0447
 3208TIP3    H231184   5.929   6.824   7.227  0.6372  1.9930  0.9779
 3209TIP3   OH231185   2.670   1.047   8.636 -0.1537  0.3970  0.4029
 3209TIP3    H131186   2.695   0.981   8.700  0.7697 -1.0879 -1.4263
 3209TIP3    H231187   2.751   1.092   8.614 -0.6801  1.8255  1.2129
 3210TIP3   OH231188   3.935   0.200   0.579  0.2162  0.4516  0.3723
 3210TIP3    H131189   3.932   0.244   0.664  0.8534  0.9248  0.1564
 3210TIP3    H231190   3.882   0.255   0.521 -0.3774  0.0272  0.5022
 3211TIP3   OH231191   6.673   3.585   2.007 -0.6243 -0.2263 -0.0356
 3211TIP3    H131192   6.743   3.641   1.975 -0.8347  1.1718  1.7629
 3211TIP3    H231193   6.594   3.640   2.002 -0.8279 -0.2808  1.8002
 3212TIP3   OH231194   6.333   2.838   7.441 -0.0313 -0.1284  0.0728
 3212TIP3    H131195   6.309   2.751   7.409  1.9441 -0.7511  0.1387
 3212TIP3    H231196   6.283   2.849   7.522 -1.2692 -0.6455 -0.5974
 3213TIP3   OH231197   3.741   3.749   1.206 -0.1480 -0.2993  0.6491
 3213TIP3    H131198   3.751   3.708   1.292 -0.7288  1.7569  1.7646
 3213TIP3    H231199   3.661   3.802   1.214  0.0336  0.2844 -1.0106
 3214TIP3   OH231200   1.304   6.021   2.380 -0.5367 -0.3418 -0.0262
 3214TIP3    H131201   1.313   6.098   2.323 -0.5975  0.0175  0.4410
 3214TIP3    H231202   1.247   6.051   2.451  1.2842 -0.0843  1.4193
 3215TIP3   OH231203   5.889   0.176   1.159 -0.1542  0.4570 -0.0204
 3215TIP3    H131204   5.845   0.237   1.219 -0.6500  0.1919 -0.1063
 3215TIP3    H231205   5.942   0.120   1.215  0.8250  1.3837  0.0039
 3216TIP3   OH231206   6.712   2.424   7.341  0.4457  0.3494 -0.3701
 3216TIP3    H131207   6.717   2.510   7.384  0.9632  1.1907 -2.0218
 3216TIP3    H231208   6.794   2.417   7.292  0.5812 -1.2832  0.0489
 3217TIP3   OH231209   6.432   1.815   7.706 -0.0672 -0.1305  1.2629
 3217TIP3    H131210   6.479   1.781   7.783  0.5490  0.2883  1.0768
 3217TIP3    H231211   6.362   1.868   7.743  0.9949  1.1148  1.5537
 3218TIP3   OH231212   5.473   5.928   1.390 -0.1083 -0.5608  0.0390
 3218TIP3    H131213   5.500   5.998   1.329 -1.2270  0.3895  0.5934
 3218TIP3    H231214   5.413   5.874   1.339  1.2788 -1.5467 -0.6010
 3219TIP3   OH231215   6.500   5.961   8.342  0.3541 -0.0241  0.4042
 3219TIP3    H131216   6.454   6.012   8.408  1.0709 -0.5133  1.2965
 3219TIP3    H231217   6.475   6.002   8.259 -1.5850 -0.1996  0.8517
 3220TIP3   OH231218   1.718   0.866   8.248 -0.4372 -0.4502  0.7029
 3220TIP3    H131219   1.741   0.950   8.207 -1.2933 -0.4156  0.2737
 3220TIP3    H231220   1.792   0.847   8.306  0.4428 -0.1029 -0.2673
 3221TIP3   OH231221   3.735   4.942   0.530  0.5509 -0.4884 -0.0541
 3221TIP3    H131222   3.715   5.025   0.573  1.8081 -0.0472 -0.2726
 3221TIP3    H231223   3.790   4.895   0.593 -0.2711 -1.2360  0.1296
 3222TIP3   OH231224   1.574   3.265   0.367 -0.3989 -0.2332 -0.4767
 3222TIP3    H131225   1.642   3.280   0.302  1.3521  1.1687  1.5478
 3222TIP3    H231226   1.595   3.179   0.405  0.7349  0.5011  0.6283
 3223TIP3   OH231227   3.889   0.172   7.455 -0.2262 -0.2729  0.2374
 3223TIP3    H131228   3.908   0.097   7.398  0.4750 -0.4730  0.7168
 3223TIP3    H231229   3.808   0.209   7.420 -0.5806 -1.2482 -0.0189
 3224TIP3   OH231230   2.425   0.979   0.089  0.1628 -0.6873 -0.0595
 3224TIP3    H131231   2.455   1.008   0.003  2.3641 -0.6352  0.6599
 3224TIP3    H231232   2.468   1.038   0.151 -2.4711  0.1752  1.0704
 3225TIP3   OH231233   6.824   0.104   1.623 -0.6279  0.4838 -0.1909
 3225TIP3    H131234   6.858   0.176   1.676  2.3739  0.9356 -2.4765
 3225TIP3    H231235   6.834   0.027   1.679  0.1863  1.2550  0.7590
 3226TIP3   OH231236   6.237   5.936   1.233  0.1131 -0.2221  0.1143
 3226TIP3    H131237   6.309   5.997   1.249  0.3829 -0.5564  0.1893
 3226TIP3    H231238   6.278   5.861   1.190 -0.2314 -0.3122 -0.0643
 3227TIP3   OH231239   1.018   2.795   7.719 -0.6671 -0.2259  0.0083
 3227TIP3    H131240   1.054   2.796   7.807 -0.4108  2.0896 -0.0728
 3227TIP3    H231241   1.088   2.758   7.665 -0.5554 -0.9640  0.6364
 3228TIP3   OH231242   1.959   4.358   7.871 -0.0980 -0.2193  0.0510
 3228TIP3    H131243   1.896   4.400   7.929 -0.4920 -0.8652  0.1078
 3228TIP3    H231244   2.018   4.310   7.930  0.3413  0.2436 -0.0111
 3229TIP3   OH231245   0.446   1.324   0.179  0.3188 -0.2726  0.4156
 3229TIP3    H131246   0.478   1.375   0.105  1.7293 -0.6990  0.7095
 3229TIP3    H231247   0.478   1.235   0.163 -1.2141 -0.8644  0.4492
 3230TIP3   OH231248   5.181   1.186   0.548  0.0576 -0.4331 -0.0038
 3230TIP3    H131249   5.166   1.256   0.485 -1.7324  1.0939  1.9708
 3230TIP3    H231250   5.137   1.110   0.511  0.8832 -0.2066 -1.5448
 3231TIP3   OH231251   1.991   0.909   2.055  0.3956 -0.1421 -0.1366
 3231TIP3    H131252   1.939   0.973   2.104  0.3441  0.2874 -0.7507
 3231TIP3    H231253   2.080   0.921   2.087  0.4834  0.6280 -0.6494
 3232TIP3   OH231254   2.638   0.417   8.663  0.0209  0.0019 -0.1048
 3232TIP3    H131255   2.606   0.368   8.587 -1.0206  0.1965  0.1913
 3232TIP3    H231256   2.649   0.506   8.632 -0.0163 -0.0029 -0.1316
 3233TIP3   OH231257   0.650   4.721   8.513  0.7447 -0.4722 -0.3845
 3233TIP3    H131258   0.656   4.627   8.496 -1.0943 -0.8414  0.8119
 3233TIP3    H231259   0.561   4.735   8.544  1.0493  1.6455 -0.2923
 3234TIP3   OH231260   4.891   4.293   0.480 -0.3788  0.0502  0.1769
 3234TIP3    H131261   4.870   4.367   0.422 -0.5814 -0.4492 -0.3906
 3234TIP3    H231262   4.808   4.248   0.493 -0.4971  0.5695  1.4738
 3235TIP3   OH231263   5.318   6.120   7.906  0.3581  0.1109  0.1674
 3235TIP3    H131264   5.362   6.144   7.988  1.5677  1.7922 -0.9080
 3235TIP3    H231265   5.323   6.024   7.904  3.3450  0.1641  0.4903
 3236TIP3   OH231266   2.460   2.416   2.400  0.3116  0.7642 -0.0954
 3236TIP3    H131267   2.386   2.369   2.438  0.5306 -0.4248 -1.0629
 3236TIP3    H231268   2.532   2.401   2.460  0.7033 -1.2438 -0.9871
 3237TIP3   OH231269   5.169   4.129   7.635  0.3627  0.5168 -0.2569
 3237TIP3    H131270   5.101   4.146   7.570 -0.5902 -1.1885  0.2189
 3237TIP3    H231271   5.145   4.045   7.673  2.4732  0.1086  0.3150
 3238TIP3   OH231272   5.864   5.676   2.469 -0.3146 -0.2061 -0.1363
 3238TIP3    H131273   5.780   5.692   2.427  0.3637  2.1277 -0.7306
 3238TIP3    H231274   5.844   5.678   2.563 -0.7107  2.1824 -0.2035
 3239TIP3   OH231275   6.187   1.732   1.651  0.0872 -0.0237  0.0181
 3239TIP3    H131276   6.112   1.791   1.636  0.3186  0.4801  0.7773
 3239TIP3    H231277   6.217   1.754   1.740  1.3749  0.0524 -0.4136
 3240TIP3   OH231278   5.174   6.506   2.025 -0.7243  0.0389  0.0289
 3240TIP3    H131279   5.227   6.430   2.001  0.2493  0.6669  0.1043
 3240TIP3    H231280   5.107   6.472   2.084  0.0409 -0.6767  0.5032
 3241TIP3   OH231281   1.386   2.637   8.017 -0.7584  0.4376 -0.3456
 3241TIP3    H131282   1.390   2.543   8.038 -0.9592  0.3773 -0.5643
 3241TIP3    H231283   1.367   2.679   8.101 -1.5258  0.2014 -0.3878
 3242TIP3   OH231284   0.371   2.286   8.657 -0.1084  0.0966 -0.1037
 3242TIP3    H131285   0.394   2.260   8.568 -1.6600 -1.2678 -0.1511
 3242TIP3    H231286   0.442   2.251   8.711  2.1848  3.0402 -0.9213
 3243TIP3   OH231287   3.025   1.948   1.238 -0.3333  0.3153  0.2011
 3243TIP3    H131288   2.932   1.928   1.247 -0.2953  0.7993  2.1112
 3243TIP3    H231289   3.043   2.011   1.307  1.6914 -0.8138  0.8029
 3244TIP3   OH231290   5.824   3.953   0.385 -0.4084 -0.6467  0.7918
 3244TIP3    H131291   5.905   3.998   0.360 -0.9580  0.2945  0.6835
 3244TIP3    H231292   5.775   3.944   0.304 -0.0853 -1.9229  0.7196
 3245TIP3   OH231293   6.605   4.926   2.414 -0.2837 -0.4961  0.2822
 3245TIP3    H131294   6.593   4.945   2.507 -0.6869 -0.5149  0.2365
 3245TIP3    H231295   6.700   4.919   2.403 -0.2357 -0.5505  0.7034
 3246TIP3   OH231296   0.841   3.982   1.433  0.1677  0.0649  0.5159
 3246TIP3    H131297   0.933   3.963   1.413  0.5059  1.1141  1.0401
 3246TIP3    H231298   0.792   3.920   1.379  1.1854 -0.7556  0.5034
 3247TIP3   OH231299   0.509   0.075   8.376  0.3833  0.0563  0.1833
 3247TIP3    H131300   0.436   0.115   8.424  0.1892  0.0794 -0.1302
 3247TIP3    H231301   0.553   0.020   8.441  1.0201  1.2414  0.7828
 3248TIP3   OH231302   4.917   5.990   7.906 -0.4080  0.6678  0.1167
 3248TIP3    H131303   4.910   5.896   7.886 -1.4401  0.2913  1.9704
 3248TIP3    H231304   4.982   5.994   7.977 -1.0689  1.2124  0.7102
 3249TIP3   OH231305   3.725   0.754   0.868  0.6829 -0.4921 -0.8388
 3249TIP3    H131306   3.643   0.713   0.896  1.6884 -1.6427  0.5785
 3249TIP3    H231307   3.700   0.807   0.793 -1.6770  0.5326  0.5413
 3250TIP3   OH231308   6.362   3.604   8.434  0.2406  0.6528 -0.1680
 3250TIP3    H131309   6.433   3.548   8.466 -0.5802 -0.3549 -0.0639
 3250TIP3    H231310   6.311   3.547   8.376 -0.6322  1.2851 -0.0414
 3251TIP3   OH231311   5.572   3.570   0.465 -0.3394  0.3284  0.4024
 3251TIP3    H131312   5.571   3.634   0.395  0.0528  2.0467  1.9034
 3251TIP3    H231313   5.620   3.612   0.536 -2.0805 -0.7124  2.2990
 3252TIP3   OH231314   1.576   5.412   8.418  0.5513 -0.2628 -0.4037
 3252TIP3    H131315   1.611   5.489   8.463  1.0657 -0.0452 -1.1625
 3252TIP3    H231316   1.628   5.405   8.339  0.7068 -1.5867 -0.1935
 3253TIP3   OH231317   5.071   5.453   7.532 -0.3687  0.0877  0.0037
 3253TIP3    H131318   4.994   5.398   7.516 -0.6969  0.4574  0.2543
 3253TIP3    H231319   5.076   5.510   7.456 -0.0810 -0.2309 -0.2156
 3254TIP3   OH231320   5.034   5.505   1.497  0.2325 -0.2158  0.5023
 3254TIP3    H131321   5.048   5.468   1.410  0.2396  1.4502 -0.2336
 3254TIP3    H231322   4.942   5.486   1.516 -0.0152  0.1864 -0.2566
 3255TIP3   OH231323   3.719   2.754   1.674  0.3372  0.2943 -0.2097
 3255TIP3    H131324   3.690   2.703   1.598  0.4256  1.2437 -0.8963
 3255TIP3    H231325   3.791   2.704   1.710 -0.9686 -1.1942  0.4613
 3256TIP3   OH231326   1.727   5.769   3.208 -0.1937 -0.3535  0.0079
 3256TIP3    H131327   1.711   5.688   3.158 -2.0071  0.5439 -0.9816
 3256TIP3    H231328   1.820   5.786   3.196 -0.1542 -1.3083 -1.3475
 3257TIP3   OH231329   3.268   4.280   8.631  0.3718 -0.5454 -0.6089
 3257TIP3    H131330   3.194   4.310   8.683  0.2488 -1.2527 -0.3688
 3257TIP3    H231331   3.237   4.199   8.590  0.5941 -0.1964 -1.4835
 3258TIP3   OH231332   3.169   3.661   7.741  0.0536  0.5013 -0.0532
 3258TIP3    H131333   3.225   3.701   7.676  0.8144  2.4932  1.7085
 3258TIP3    H231334   3.225   3.596   7.785 -0.6349 -1.2795 -1.6844
 3259TIP3   OH231335   3.253   5.500   1.145  0.3850 -0.1751 -0.3990
 3259TIP3    H131336   3.346   5.502   1.169  0.5130  0.9811 -0.9125
 3259TIP3    H231337   3.215   5.433   1.202  0.8865  1.6367  2.2386
 3260TIP3   OH231338   6.782   4.750   0.786  0.3495  0.6501 -0.6091
 3260TIP3    H131339   6.694   4.729   0.754  0.5812  0.4333 -1.1222
 3260TIP3    H231340   6.810   4.672   0.834  0.9381  0.0206 -1.9280
 3261TIP3   OH231341   1.314   3.634   2.443 -0.0021 -0.0339  0.5302
 3261TIP3    H131342   1.397   3.586   2.442 -0.2788 -0.5224  0.8513
 3261TIP3    H231343   1.325   3.701   2.375 -0.5366 -2.1100 -1.7125
 3262TIP3   OH231344   1.525   0.141   0.724  0.8206  0.1076  0.1262
 3262TIP3    H131345   1.616   0.147   0.753  1.0598 -1.3612 -0.2366
 3262TIP3    H231346   1.516   0.051   0.692 -0.5692  0.4422 -0.4966
 3263TIP3   OH231347   1.609   4.775   2.245  0.0083 -0.2730  0.4798
 3263TIP3    H131348   1.646   4.855   2.282 -0.5430 -0.1898  0.8539
 3263TIP3    H231349   1.529   4.759   2.296 -1.2083  0.2879 -1.1512
 3264TIP3   OH231350   5.034   2.840   2.041  0.1046  0.4820 -0.0768
 3264TIP3    H131351   5.100   2.877   2.099 -0.1700  0.6038  0.1582
 3264TIP3    H231352   5.004   2.761   2.087 -0.4023  0.7971  0.1395
 3265TIP3   OH231353   6.050   4.590   2.381  0.5218  0.0872  0.6559
 3265TIP3    H131354   6.117   4.535   2.422  1.3666 -0.7717 -1.6854
 3265TIP3    H231355   6.001   4.627   2.454  1.6007 -1.7019  2.3846
 3266TIP3   OH231356   5.940   0.417   2.148  0.3722 -0.1237  0.6680
 3266TIP3    H131357   5.874   0.456   2.092  2.0849 -0.6785 -1.9137
 3266TIP3    H231358   5.895   0.401   2.231 -1.6992  2.7464  0.2469
 3267TIP3   OH231359   0.451   2.697   0.338  0.1852  0.5551 -0.2085
 3267TIP3    H131360   0.436   2.789   0.316 -0.9542  0.7358  1.2288
 3267TIP3    H231361   0.365   2.655   0.330  0.5600 -0.2486 -0.1965
 3268TIP3   OH231362   2.144   3.650   8.322 -0.0765  0.0413 -0.0610
 3268TIP3    H131363   2.176   3.729   8.365  0.1563 -0.6656  1.1100
 3268TIP3    H231364   2.173   3.578   8.378  0.4257 -0.9535 -1.5176
 3269TIP3   OH231365   0.823   6.103   2.090  0.2176  0.4652 -0.0884
 3269TIP3    H131366   0.777   6.182   2.117  1.0345  0.8428  0.2356
 3269TIP3    H231367   0.833   6.112   1.996  0.1765  0.6819 -0.0733
 3270TIP3   OH231368   2.422   3.468   0.369  0.2152  0.4230 -0.3393
 3270TIP3    H131369   2.433   3.542   0.429 -1.4287  1.3637 -1.1211
 3270TIP3    H231370   2.508   3.455   0.331  1.0335  0.5464  1.3515
 3271TIP3   OH231371   2.956   4.234   0.435 -0.1433 -0.2633  0.4165
 3271TIP3    H131372   2.863   4.220   0.414 -0.4049  1.9630 -0.1275
 3271TIP3    H231373   2.958   4.245   0.530 -0.2332 -1.4375  0.5785
 3272TIP3   OH231374   5.716   3.269   1.497  0.5227 -0.2380  0.0243
 3272TIP3    H131375   5.624   3.272   1.525  0.0818  0.4488 -1.3845
 3272TIP3    H231376   5.766   3.287   1.576 -0.6009  0.1095  0.6727
 3273TIP3   OH231377   3.266   3.826   1.622 -0.1402 -0.2044  0.2062
 3273TIP3    H131378   3.199   3.870   1.674 -0.2287 -1.3381  1.0999
 3273TIP3    H231379   3.345   3.831   1.675  0.4196  0.8151 -0.6859
 3274TIP3   OH231380   2.469   4.792   2.843  0.2891 -0.3363 -0.3455
 3274TIP3    H131381   2.460   4.856   2.913  0.6870 -0.9706  0.2999
 3274TIP3    H231382   2.513   4.718   2.884 -1.8902 -1.8501 -0.5196
 3275TIP3   OH231383   5.519   2.359   2.084 -0.1497  0.3802  0.1803
 3275TIP3    H131384   5.542   2.374   2.176 -1.5706  0.2654  0.5807
 3275TIP3    H231385   5.505   2.264   2.078  0.1378  0.3581 -0.2135
 3276TIP3   OH231386   5.957   4.226   8.025  0.0605  0.2392 -0.5831
 3276TIP3    H131387   5.984   4.139   8.053  1.2753  0.4922 -0.9178
 3276TIP3    H231388   5.974   4.228   7.931 -1.9153  0.1535 -0.9871
 3277TIP3   OH231389   3.681   6.756   6.897  0.2586 -0.1932  0.9536
 3277TIP3    H131390   3.685   6.849   6.922  1.8554 -0.4790  1.9144
 3277TIP3    H231391   3.589   6.740   6.879 -0.2813  1.2087  2.2755
 3278TIP3   OH231392   1.130   3.750   0.665  0.0231 -0.7137 -0.2768
 3278TIP3    H131393   1.105   3.760   0.756  0.2209  0.9693 -0.3742
 3278TIP3    H231394   1.216   3.791   0.658  0.4286 -1.6404 -1.0428
 3279TIP3   OH231395   0.536   1.791   7.456  0.0225  0.1895  0.1450
 3279TIP3    H131396   0.454   1.813   7.412  0.1421 -0.4922 -0.4494
 3279TIP3    H231397   0.596   1.861   7.431 -0.2972  0.5351  0.3410
 3280TIP3   OH231398   2.157   3.364   1.462  0.5509 -0.2208 -0.0249
 3280TIP3    H131399   2.062   3.356   1.470  0.5312  0.4312  0.5051
 3280TIP3    H231400   2.191   3.321   1.541  0.5815  1.5375  0.9934
 3281TIP3   OH231401   2.931   6.048   2.480  0.1402  0.2245 -0.3434
 3281TIP3    H131402   2.957   6.140   2.476 -2.6542  1.2051  1.2502
 3281TIP3    H231403   2.898   6.029   2.392 -1.7942  1.6831 -0.0145
 3282TIP3   OH231404   4.530   2.467   8.457  0.0549 -0.0169  0.4278
 3282TIP3    H131405   4.534   2.474   8.362 -0.9282  0.0697  0.3918
 3282TIP3    H231406   4.441   2.440   8.476  0.1184  0.3934  1.3541
 3283TIP3   OH231407   0.570   0.333   8.686 -0.1885  0.2073  0.1356
 3283TIP3    H131408   0.614   0.261   8.732 -2.1323 -1.4516 -0.4496
 3283TIP3    H231409   0.511   0.289   8.624 -0.5128  2.3458 -1.1734
 3284TIP3   OH231410   2.285   3.499   8.042 -0.4996 -0.3219 -0.3565
 3284TIP3    H131411   2.247   3.419   8.079 -0.3937  0.3638  1.3188
 3284TIP3    H231412   2.309   3.551   8.118 -0.3417  1.2139 -1.4222
 3285TIP3   OH231413   2.974   0.707   2.295  0.2976  0.0726 -0.4387
 3285TIP3    H131414   3.015   0.628   2.260  3.0792 -0.1975  2.9375
 3285TIP3    H231415   3.005   0.778   2.238  1.7565 -0.7284 -0.6839
 3286TIP3   OH231416   4.761   3.393   7.792  0.2139  0.1758  0.2099
 3286TIP3    H131417   4.753   3.377   7.698  1.4619 -0.1628  0.1538
 3286TIP3    H231418   4.732   3.311   7.832  2.4933 -0.7871  0.0211
 3287TIP3   OH231419   0.991   5.906   2.986  0.1600  0.3339 -0.1151
 3287TIP3    H131420   0.909   5.955   2.993  0.5902  0.9327  0.9533
 3287TIP3    H231421   0.965   5.815   2.996 -0.3977  0.5036  0.0403
 3288TIP3   OH231422   4.296   1.107   8.461 -0.1953 -0.3046 -0.1130
 3288TIP3    H131423   4.306   1.180   8.400  0.0907  0.2482  0.5711
 3288TIP3    H231424   4.202   1.095   8.471 -0.2402 -0.3480 -0.5999
 3289TIP3   OH231425   0.437   1.208   0.426 -0.2823  0.0319 -0.1488
 3289TIP3    H131426   0.466   1.283   0.478 -0.0076  0.0260 -0.2892
 3289TIP3    H231427   0.400   1.246   0.347 -0.9872  0.0527  0.1859
 3290TIP3   OH231428   5.893   4.411   7.143  0.0824 -0.0262  0.2271
 3290TIP3    H131429   5.937   4.396   7.227  0.0075  1.6391  0.5834
 3290TIP3    H231430   5.955   4.463   7.092 -0.4617  0.2092 -0.2094
 3291TIP3   OH231431   2.088   1.630   7.265  0.1809 -0.1266  0.2084
 3291TIP3    H131432   1.996   1.652   7.252  0.1255  0.1747  1.0674
 3291TIP3    H231433   2.092   1.593   7.353  1.0438  0.8750  0.6209
 3292TIP3   OH231434   3.172   2.185   1.647 -0.3050  0.3021 -0.4715
 3292TIP3    H131435   3.101   2.143   1.599  0.7703 -0.4147 -1.5155
 3292TIP3    H231436   3.150   2.172   1.739 -0.6474 -1.4719 -0.7640
 3293TIP3   OH231437   0.328   1.258   1.302  0.0272 -0.0928 -0.4237
 3293TIP3    H131438   0.303   1.165   1.299  1.0848 -0.3948 -3.4707
 3293TIP3    H231439   0.252   1.304   1.268  0.6022 -0.2132 -1.9502
 3294TIP3   OH231440   3.113   3.097   3.026  0.5251  0.5307  0.0777
 3294TIP3    H131441   3.056   3.021   3.015  0.6906  0.4416 -0.1688
 3294TIP3    H231442   3.162   3.079   3.105  1.4487 -0.1928 -0.6371
 3295TIP3   OH231443   0.162   5.173   2.541 -0.1875 -0.0607 -0.5137
 3295TIP3    H131444   0.129   5.206   2.457  2.1438  0.1633 -1.4245
 3295TIP3    H231445   0.232   5.112   2.517 -0.3500 -0.9930  1.2661
 3296TIP3   OH231446   0.921   3.295   2.572 -0.5018  0.1704 -0.4006
 3296TIP3    H131447   0.971   3.246   2.506 -0.2646  0.3289 -0.3416
 3296TIP3    H231448   0.854   3.234   2.602  1.0710 -0.8718  1.1833
 3297TIP3   OH231449   4.192   0.267   1.769 -0.4050  0.2407 -0.2231
 3297TIP3    H131450   4.229   0.191   1.814 -2.2530 -1.0168 -0.7172
 3297TIP3    H231451   4.180   0.238   1.678 -1.5148  0.9688 -0.3298
 3298TIP3   OH231452   0.142   5.872   1.910  0.2351 -0.3934  0.3059
 3298TIP3    H131453   0.178   5.877   1.821 -2.5376 -1.1451 -0.9636
 3298TIP3    H231454   0.097   5.787   1.913 -1.5336  0.5229  1.6510
 3299TIP3   OH231455   5.715   6.735   1.822 -0.1784  0.5083 -0.1816
 3299TIP3    H131456   5.740   6.817   1.864 -1.0174  0.1850  0.9922
 3299TIP3    H231457   5.638   6.758   1.770 -0.0705  0.5839 -0.3083
 3300TIP3   OH231458   0.517   3.713   0.623  0.4928 -0.2436 -0.1302
 3300TIP3    H131459   0.488   3.746   0.708 -0.3870  0.8234 -0.8155
 3300TIP3    H231460   0.470   3.767   0.559  0.4711 -1.5812 -1.2991
 3301TIP3   OH231461   3.305   3.976   0.344  0.1790 -0.5478 -0.0852
 3301TIP3    H131462   3.316   3.958   0.251 -2.5340  3.7358 -1.5721
 3301TIP3    H231463   3.227   3.927   0.369 -1.1874  0.9171 -1.2114
 3302TIP3   OH231464   4.482   2.137   8.620 -0.1677 -0.4932 -0.0702
 3302TIP3    H131465   4.483   2.164   8.528  0.5260  0.6633  0.2586
 3302TIP3    H231466   4.441   2.050   8.619  0.0376 -0.5979 -1.4941
 3303TIP3   OH231467   1.463   6.042   3.187  0.1484 -0.2114 -0.1955
 3303TIP3    H131468   1.525   6.003   3.249 -0.3259 -0.3797  0.1801
 3303TIP3    H231469   1.379   6.041   3.233 -0.2226 -0.3796 -0.8559
 3304TIP3   OH231470   3.264   6.390   0.164 -0.7162 -0.0256  0.5068
 3304TIP3    H131471   3.237   6.305   0.198 -0.8748  0.1040  0.7038
 3304TIP3    H231472   3.194   6.450   0.190 -0.8978  0.0526 -0.1551
 3305TIP3   OH231473   2.205   5.088   8.595  0.2615 -0.4877  0.2779
 3305TIP3    H131474   2.300   5.082   8.592  0.1869 -1.6880 -0.2038
 3305TIP3    H231475   2.180   5.030   8.668 -0.1462 -0.9605 -0.2286
 3306TIP3   OH231476   2.246   1.246   0.603  0.1573  0.2069 -0.0433
 3306TIP3    H131477   2.326   1.280   0.644 -0.6596  2.0373  0.1283
 3306TIP3    H231478   2.184   1.318   0.609 -1.2081 -0.8369 -1.0745
 3307TIP3   OH231479   0.858   4.359   8.162  0.1239  0.2679  0.3352
 3307TIP3    H131480   0.825   4.285   8.214 -0.7686 -1.2299 -2.1941
 3307TIP3    H231481   0.786   4.421   8.161 -0.7114 -0.6846 -0.8773
 3308TIP3   OH231482   4.007   0.565   1.615  0.1791 -0.6819  0.2776
 3308TIP3    H131483   4.064   0.618   1.560  1.2307 -2.2313 -0.1716
 3308TIP3    H231484   3.929   0.619   1.627  0.6553  0.4155 -1.2686
 3309TIP3   OH231485   2.816   5.994   1.402 -0.4961  0.1619 -0.3013
 3309TIP3    H131486   2.866   6.074   1.388  1.0902 -0.9213 -1.1370
 3309TIP3    H231487   2.743   6.021   1.457 -0.7670  2.4342 -1.6445
 3310TIP3   OH231488   4.665   2.922   2.549 -0.1383 -0.4870 -0.1177
 3310TIP3    H131489   4.580   2.908   2.507 -0.0427 -1.0690 -0.1269
 3310TIP3    H231490   4.725   2.941   2.477 -0.3966  0.6784 -0.0523
 3311TIP3   OH231491   5.523   4.045   6.482 -0.1934  0.0830 -0.0152
 3311TIP3    H131492   5.571   4.116   6.525  0.6028 -1.0812  1.1086
 3311TIP3    H231493   5.449   4.028   6.541 -0.0609 -0.3991  0.0119
 3312TIP3   OH231494   0.182   6.486   0.662  0.0388  0.0966  0.7983
 3312TIP3    H131495   0.232   6.531   0.594  0.6642 -1.3307  0.2762
 3312TIP3    H231496   0.241   6.481   0.737  0.1932 -0.3795  0.6479
 3313TIP3   OH231497   1.949   5.560   0.948  0.2180 -0.1140  0.1253
 3313TIP3    H131498   1.936   5.475   0.990 -0.7559  0.7237  1.6260
 3313TIP3    H231499   1.941   5.623   1.019  0.8628  1.2444 -0.9661
 3314TIP3   OH231500   0.502   4.252   0.595 -0.5783 -0.5683  0.0738
 3314TIP3    H131501   0.563   4.193   0.552 -1.3768 -0.6358 -1.0159
 3314TIP3    H231502   0.527   4.339   0.565 -0.9618 -0.5910 -0.3296
 3315TIP3   OH231503   4.452   5.471   2.165  0.5077  0.2264 -0.1496
 3315TIP3    H131504   4.368   5.510   2.140  0.2122  0.8241  1.6790
 3315TIP3    H231505   4.500   5.465   2.082 -1.6741 -1.0599 -1.4029
 3316TIP3   OH231506   6.480   6.302   8.365 -0.8744  0.7954  0.0180
 3316TIP3    H131507   6.483   6.363   8.439 -1.1362  0.8720 -0.0327
 3316TIP3    H231508   6.393   6.261   8.372 -0.6933  0.4149  0.0637
 3317TIP3   OH231509   0.386   1.377   7.778 -0.6750  0.6070 -0.1893
 3317TIP3    H131510   0.294   1.399   7.763 -0.4895  0.1184 -2.4496
 3317TIP3    H231511   0.434   1.449   7.737 -0.0598  0.5233  0.3907
 3318TIP3   OH231512   3.198   1.484   0.143 -0.0104  0.5843  0.3895
 3318TIP3    H131513   3.288   1.503   0.171  0.4967 -1.2055  0.1449
 3318TIP3    H231514   3.173   1.560   0.091  2.5083 -0.0423 -2.0369
 3319TIP3   OH231515   4.533   1.102   8.647 -0.0744  0.1524  0.5285
 3319TIP3    H131516   4.442   1.130   8.655 -0.7971 -1.7625 -0.4457
 3319TIP3    H231517   4.546   1.092   8.552  1.5080  1.4064  0.5668
 3320TIP3   OH231518   1.363   0.124   1.447 -0.6064  0.4331 -0.0101
 3320TIP3    H131519   1.310   0.114   1.369  0.9054  1.3020 -1.1995
 3320TIP3    H231520   1.332   0.205   1.488  0.0855  1.1955 -0.9577
 3321TIP3   OH231521   1.310   3.683   8.556 -0.6766  0.3415  0.4039
 3321TIP3    H131522   1.349   3.651   8.638  0.6088  2.4509  0.6910
 3321TIP3    H231523   1.292   3.775   8.573 -4.5540 -0.1269 -0.2594
 3322TIP3   OH231524   5.636   3.415   1.070 -0.1386 -0.1503 -0.9729
 3322TIP3    H131525   5.587   3.470   1.131 -0.0156 -0.2054 -0.8244
 3322TIP3    H231526   5.650   3.333   1.117 -1.9692 -1.0344 -1.8784
 3323TIP3   OH231527   6.367   0.130   7.771 -0.0533 -0.6063  0.2032
 3323TIP3    H131528   6.395   0.152   7.682 -3.0406  2.2315 -0.1890
 3323TIP3    H231529   6.289   0.076   7.759  0.6133 -1.8481  1.1819
 3324TIP3   OH231530   1.220   2.273   8.336 -0.0506 -0.1576 -0.3435
 3324TIP3    H131531   1.233   2.295   8.428  0.2280 -0.3500 -0.3385
 3324TIP3    H231532   1.125   2.264   8.327 -0.0130 -1.1250  0.1527
 3325TIP3   OH231533   5.300   5.633   8.414 -0.6005 -0.1473  0.0163
 3325TIP3    H131534   5.348   5.556   8.447 -0.4986  0.9508  2.6828
 3325TIP3    H231535   5.336   5.648   8.327  2.4891 -0.6185  1.0750
 3326TIP3   OH231536   6.141   2.482   6.295 -0.0939  0.0247 -0.1617
 3326TIP3    H131537   6.106   2.488   6.206 -1.0532 -0.9660  0.1279
 3326TIP3    H231538   6.136   2.389   6.317 -1.3523  0.4400  1.5076
 3327TIP3   OH231539   5.208   6.465   7.003 -0.0689  0.4068  0.6005
 3327TIP3    H131540   5.113   6.473   6.995  0.0122  0.2340 -0.8889
 3327TIP3    H231541   5.242   6.550   6.976  0.2719 -0.4181 -1.8240
 3328TIP3   OH231542   4.113   0.270   2.948 -0.6828 -0.3393  0.6654
 3328TIP3    H131543   4.063   0.351   2.948 -1.9533 -1.0817  1.0391
 3328TIP3    H231544   4.071   0.217   2.879  1.0581 -0.1519 -0.5985
 3329TIP3   OH231545   1.751   5.256   0.833  0.1809  0.0407 -0.3733
 3329TIP3    H131546   1.706   5.307   0.765 -0.4202 -0.0688 -0.0585
 3329TIP3    H231547   1.681   5.210   0.879  0.3519  1.6136  1.5923
 3330TIP3   OH231548   3.545   2.598   3.052  0.0770  0.2667  0.2066
 3330TIP3    H131549   3.579   2.509   3.061 -1.0628 -0.1532  0.5252
 3330TIP3    H231550   3.524   2.607   2.959  0.6033  0.3685  0.0928
 3331TIP3   OH231551   2.915   5.928   2.963 -0.5451 -0.0706  0.5283
 3331TIP3    H131552   2.959   6.013   2.963 -1.4088  0.3882  0.1317
 3331TIP3    H231553   2.924   5.897   3.054  0.1099  0.2567  0.5859
 3332TIP3   OH231554   6.095   4.601   7.707 -0.1710  0.6683  0.0855
 3332TIP3    H131555   6.133   4.569   7.625  0.5607 -3.4254  1.7494
 3332TIP3    H231556   6.170   4.637   7.755  0.1317 -0.1441  0.2518
 3333TIP3   OH231557   5.707   4.570   7.894 -0.2057  0.5403  0.3981
 3333TIP3    H131558   5.698   4.629   7.819  0.6835  0.4934  0.2541
 3333TIP3    H231559   5.706   4.482   7.856  2.2650  0.5377  0.1871
 3334TIP3   OH231560   6.550   6.440   0.142  0.0258 -0.1395 -0.5680
 3334TIP3    H131561   6.535   6.488   0.060  0.2157 -0.7185 -0.9490
 3334TIP3    H231562   6.517   6.352   0.124  0.0327 -0.2586 -0.0044
 3335TIP3   OH231563   5.569   2.008   6.938 -0.1262 -0.3127  0.0474
 3335TIP3    H131564   5.571   1.960   6.855  0.2919 -2.8888  1.4372
 3335TIP3    H231565   5.661   2.009   6.967 -0.3164  0.2166  0.6552
 3336TIP3   OH231566   4.211   1.059   2.616  0.0679  0.5224 -0.7655
 3336TIP3    H131567   4.204   0.983   2.557 -1.0967  0.7019 -0.8926
 3336TIP3    H231568   4.244   1.129   2.560  1.8189 -0.0340 -0.4892
 3337TIP3   OH231569   3.283   6.563   7.030 -0.3355 -0.0072  0.3556
 3337TIP3    H131570   3.333   6.612   6.965 -0.3036  0.1271  0.4780
 3337TIP3    H231571   3.250   6.487   6.984  0.2443 -0.2629  0.3494
 3338TIP3   OH231572   0.107   4.687   8.124 -0.5152  0.6010 -0.1314
 3338TIP3    H131573   0.092   4.632   8.200  0.5271  0.6002  0.0921
 3338TIP3    H231574   0.185   4.737   8.146 -0.7200  1.2472 -0.8436
 3339TIP3   OH231575   3.024   5.828   1.602  0.3403 -0.0143 -0.1457
 3339TIP3    H131576   3.115   5.848   1.578  0.7376 -1.9845 -0.4169
 3339TIP3    H231577   2.974   5.900   1.563  1.5579 -0.1036 -2.0494
 3340TIP3   OH231578   0.105   1.457   7.755 -0.4417 -0.5381 -0.0378
 3340TIP3    H131579   0.105   1.497   7.668 -0.7120 -0.3180  0.0614
 3340TIP3    H231580   0.136   1.527   7.814  0.8137 -1.0116 -0.0954
 3341TIP3   OH231581   5.188   2.974   0.194 -0.0965  0.2723 -0.0518
 3341TIP3    H131582   5.260   2.976   0.257  1.4039 -1.4443 -1.5712
 3341TIP3    H231583   5.185   2.883   0.165  0.3177  1.2115 -3.5108
 3342TIP3   OH231584   0.461   0.895   7.270  0.5367 -0.2098 -0.1296
 3342TIP3    H131585   0.373   0.856   7.266  0.3843  0.0863  0.2673
 3342TIP3    H231586   0.455   0.960   7.340  1.1936 -0.4923  0.1941
 3343TIP3   OH231587   3.499   4.982   7.852 -0.4683 -0.2812 -0.5378
 3343TIP3    H131588   3.512   5.007   7.761  0.0995 -0.8725 -0.6221
 3343TIP3    H231589   3.575   4.929   7.874  0.6677  1.8704  1.0279
 3344TIP3   OH231590   0.693   4.148   8.262 -0.5615  0.4351 -0.7717
 3344TIP3    H131591   0.737   4.175   8.343  1.4191 -0.0707 -1.6201
 3344TIP3    H231592   0.694   4.053   8.265  0.5916  0.3908 -1.8978
 3345TIP3   OH231593   1.796   0.813   0.112 -0.4225 -0.4583 -0.3246
 3345TIP3    H131594   1.870   0.871   0.095 -0.1686 -0.0041  2.0197
 3345TIP3    H231595   1.726   0.847   0.057  0.2609  0.9586 -0.3659
 3346TIP3   OH231596   5.530   2.098   2.093  0.1645  0.4311  0.3142
 3346TIP3    H131597   5.538   2.053   2.177 -0.3206  0.0039  0.1324
 3346TIP3    H231598   5.508   2.030   2.030  0.3891  0.7702 -0.1405
 3347TIP3   OH231599   0.135   5.364   8.289  0.2775 -0.5453 -0.0070
 3347TIP3    H131600   0.076   5.394   8.220 -0.6284 -1.6033  0.2981
 3347TIP3    H231601   0.210   5.424   8.283  0.4395 -0.8829 -2.1993
 3348TIP3   OH231602   6.715   2.994   0.589  0.5870  0.6541  0.3577
 3348TIP3    H131603   6.654   2.920   0.590 -0.0714  1.1879  0.7152
 3348TIP3    H231604   6.795   2.959   0.628  0.1361  0.2472  0.9475
 3349TIP3   OH231605   4.084   1.918   0.403 -0.9720  0.6458 -0.1082
 3349TIP3    H131606   4.105   1.842   0.350  1.1567  0.1740  1.2848
 3349TIP3    H231607   4.020   1.885   0.467 -0.0754 -0.0155  0.4769
 3350TIP3   OH231608   4.591   0.593   8.632 -0.2940  0.3854 -0.0002
 3350TIP3    H131609   4.519   0.605   8.571 -0.3716 -2.5888 -0.6262
 3350TIP3    H231610   4.669   0.619   8.583 -0.5542 -0.1142 -0.6882
 3351TIP3   OH231611   5.728   6.837   0.216  0.1617  0.0474 -0.3930
 3351TIP3    H131612   5.800   6.894   0.189  0.5990 -0.9817 -1.5135
 3351TIP3    H231613   5.649   6.882   0.187  0.3477  1.0419  0.5762
 3352TIP3   OH231614   1.429   4.679   7.171 -0.6189 -0.1966  0.0379
 3352TIP3    H131615   1.503   4.619   7.185  0.2981  0.6727 -0.8592
 3352TIP3    H231616   1.375   4.635   7.106 -0.9740 -0.8983  0.7930
 3353TIP3   OH231617   3.597   1.788   1.756 -0.1024 -0.1059  0.0490
 3353TIP3    H131618   3.543   1.810   1.831 -0.6174  1.0789 -0.6441
 3353TIP3    H231619   3.684   1.770   1.793  0.0100  1.8007  0.8116
 3354TIP3   OH231620   2.560   6.044   1.627  0.3500  0.5436  0.3473
 3354TIP3    H131621   2.562   6.139   1.612  2.3706  0.5944  0.7585
 3354TIP3    H231622   2.621   6.029   1.699  0.6805 -1.1705 -0.2361
 3355TIP3   OH231623   1.546   5.152   0.981 -0.5059  0.0898  0.4628
 3355TIP3    H131624   1.468   5.097   0.969 -0.0838 -0.5209  0.4662
 3355TIP3    H231625   1.580   5.127   1.067  0.2194 -0.3245  0.0655
 3356TIP3   OH231626   2.543   0.435   3.088 -0.0520 -0.2302  0.4794
 3356TIP3    H131627   2.557   0.341   3.079  0.2394 -0.1222 -0.2658
 3356TIP3    H231628   2.478   0.456   3.020 -0.3576  0.0571  0.8545
 3357TIP3   OH231629   2.137   3.239   8.601  0.2147 -0.9328  0.0053
 3357TIP3    H131630   2.183   3.295   8.665  0.2405  0.0736 -0.8694
 3357TIP3    H231631   2.207   3.192   8.556  0.3424 -0.0803 -0.7020
 3358TIP3   OH231632   2.648   4.837   0.593  0.4582 -0.2892 -1.2249
 3358TIP3    H131633   2.677   4.892   0.666 -0.3333  0.0263 -1.1383
 3358TIP3    H231634   2.586   4.892   0.545 -0.0591 -0.9698 -1.3535
 3359TIP3   OH231635   2.897   2.596   2.087 -0.3848 -0.2520  0.5924
 3359TIP3    H131636   2.969   2.658   2.086 -0.0037 -0.6883  0.2367
 3359TIP3    H231637   2.881   2.577   1.995 -0.5512 -0.6138  0.6934
 3360TIP3   OH231638   4.005   1.337   8.684 -0.5921  0.0957  0.0991
 3360TIP3    H131639   4.082   1.308   8.732 -1.0497  1.3998  1.7247
 3360TIP3    H231640   4.013   1.296   8.598  2.2902  0.7330 -0.0411
 3361TIP3   OH231641   6.142   5.963   2.222 -0.3025 -0.1973 -0.0577
 3361TIP3    H131642   6.228   5.977   2.182 -0.7982  0.8145 -0.7924
 3361TIP3    H231643   6.135   6.032   2.288 -0.2233 -0.7924  0.5943
 3362TIP3   OH231644   4.354   1.060   0.232 -0.3217 -0.6147 -0.5603
 3362TIP3    H131645   4.442   1.020   0.237 -0.2262 -0.2438  1.6182
 3362TIP3    H231646   4.295   0.985   0.225  0.1064 -0.9034 -1.2653
 3363TIP3   OH231647   3.447   0.512   2.894  0.1094  0.9578 -0.2377
 3363TIP3    H131648   3.361   0.520   2.935 -0.4115 -1.8982 -0.5589
 3363TIP3    H231649   3.503   0.475   2.962 -0.3527 -2.2487 -1.4477
 3364TIP3   OH231650   2.240   4.775   2.674  0.2432  0.6862 -0.0449
 3364TIP3    H131651   2.309   4.768   2.740 -1.2829  0.9790  1.6386
 3364TIP3    H231652   2.159   4.781   2.724 -1.0297  0.3530 -1.9730
 3365TIP3   OH231653   2.802   3.759   8.278  0.2135 -0.0048 -0.0992
 3365TIP3    H131654   2.871   3.756   8.212  0.1087 -0.4874 -0.1913
 3365TIP3    H231655   2.771   3.850   8.278 -0.1618 -0.1234 -1.1007
 3366TIP3   OH231656   4.071   3.850   0.583 -0.0740 -0.1184 -0.1769
 3366TIP3    H131657   4.110   3.912   0.646  1.7221  0.4795 -1.7617
 3366TIP3    H231658   4.118   3.768   0.598  1.1263  0.3085 -1.3627
 3367TIP3   OH231659   6.338   5.787   2.026  0.0838 -0.2686 -0.4476
 3367TIP3    H131660   6.348   5.870   1.981 -1.7904  1.1911  1.6352
 3367TIP3    H231661   6.403   5.790   2.097 -0.6706 -0.0999  0.2491
 3368TIP3   OH231662   5.902   3.564   6.946  0.2372  0.2403  0.1260
 3368TIP3    H131663   5.815   3.587   6.980  0.3246  1.1322 -0.2307
 3368TIP3    H231664   5.893   3.569   6.851  0.7686  0.6589  0.0971
 3369TIP3   OH231665   2.049   6.296   2.179  0.7362 -1.1113  0.3279
 3369TIP3    H131666   2.112   6.224   2.170  2.3289  0.2332  0.2425
 3369TIP3    H231667   1.985   6.264   2.242  2.6956 -1.7778  2.1140
 3370TIP3   OH231668   3.189   4.785   1.677  0.1104  0.5369  0.3787
 3370TIP3    H131669   3.139   4.865   1.657  1.7198  1.6146  0.4682
 3370TIP3    H231670   3.196   4.785   1.773  0.3842  0.4673  0.3592
 3371TIP3   OH231671   4.768   3.638   0.563 -1.0370 -0.1009 -0.5740
 3371TIP3    H131672   4.757   3.643   0.468 -0.1112 -0.5173 -0.7104
 3371TIP3    H231673   4.743   3.725   0.595  1.2755  0.9748 -1.4700
 3372TIP3   OH231674   4.126   1.414   8.111  0.7469  0.2270  0.1240
 3372TIP3    H131675   4.116   1.509   8.107  1.1701  0.3047  0.7006
 3372TIP3    H231676   4.039   1.381   8.134  0.7571  0.5322  0.6180
 3373TIP3   OH231677   4.921   4.814   6.686 -0.0242  0.1398 -0.5675
 3373TIP3    H131678   4.958   4.731   6.715  0.9150  0.6726 -0.2101
 3373TIP3    H231679   4.827   4.797   6.680  0.0929 -0.7888  0.0307
 3374TIP3   OH231680   2.994   2.964   0.423  0.4970  0.7302 -0.0380
 3374TIP3    H131681   3.045   2.888   0.453 -0.2902  0.0809 -0.3046
 3374TIP3    H231682   2.915   2.963   0.477 -0.3790  0.2433 -1.2807
 3375TIP3   OH231683   1.328   2.429   2.076  0.2070 -0.3566  0.3965
 3375TIP3    H131684   1.379   2.354   2.105 -0.0317 -0.3334  0.9024
 3375TIP3    H231685   1.385   2.504   2.090  0.4817 -0.4534 -0.2042
 3376TIP3   OH231686   1.190   6.259   1.525 -0.4253  0.3315 -0.0784
 3376TIP3    H131687   1.138   6.186   1.490  1.2186  0.0966 -2.1812
 3376TIP3    H231688   1.277   6.223   1.538 -0.1918  1.3034  1.2907
 3377TIP3   OH231689   2.978   4.506   2.036 -0.2778 -0.5349  0.4209
 3377TIP3    H131690   2.928   4.512   1.955  0.1972 -2.5521 -0.0747
 3377TIP3    H231691   2.930   4.561   2.098 -1.1473  0.3184 -0.9694
 3378TIP3   OH231692   2.134   4.430   7.584 -0.3295  0.0768  0.0512
 3378TIP3    H131693   2.172   4.357   7.534 -0.8774 -0.4558  0.3925
 3378TIP3    H231694   2.203   4.496   7.587  1.0018 -1.2829  1.5743
 3379TIP3   OH231695   0.365   0.203   7.791  0.2102  0.5808 -0.0197
 3379TIP3    H131696   0.457   0.190   7.815  0.7041  2.4951 -0.6555
 3379TIP3    H231697   0.364   0.200   7.696 -0.5950 -0.4525  0.0027
 3380TIP3   OH231698   2.732   3.318   2.825 -0.1548 -0.1902  0.1710
 3380TIP3    H131699   2.700   3.389   2.881 -1.7743  0.0221 -0.9682
 3380TIP3    H231700   2.824   3.309   2.850 -0.4213  0.9412  1.7511
 3381TIP3   OH231701   2.561   2.874   7.806  0.3701  0.1751  0.0106
 3381TIP3    H131702   2.616   2.890   7.730  0.4144 -2.3811 -0.5714
 3381TIP3    H231703   2.615   2.821   7.865 -0.1259  0.9820  1.2289
 3382TIP3   OH231704   2.500   5.591   1.202 -0.1775  0.3349 -0.5846
 3382TIP3    H131705   2.570   5.647   1.237  2.1081 -2.5507 -0.1094
 3382TIP3    H231706   2.429   5.599   1.264  0.9405  1.0457  0.6503
 3383TIP3   OH231707   1.930   2.587   8.098  0.0333  0.1576  0.1465
 3383TIP3    H131708   1.893   2.613   8.013 -0.3543 -1.4651 -0.2153
 3383TIP3    H231709   1.861   2.533   8.137  0.6236  0.0561  1.0523
 3384TIP3   OH231710   4.771   0.707   0.697 -0.8430  0.3494  0.6348
 3384TIP3    H131711   4.842   0.651   0.729 -0.2198  1.0027  0.4382
 3384TIP3    H231712   4.785   0.791   0.742 -3.0303 -0.2466  2.5947
 3385TIP3   OH231713   5.365   2.408   2.742  0.4936  0.0562 -0.9057
 3385TIP3    H131714   5.437   2.368   2.692  1.1531  1.2351 -0.9361
 3385TIP3    H231715   5.378   2.502   2.732  0.6556  0.3597  1.4798
 3386TIP3   OH231716   2.318   0.440   8.352 -0.3891  0.0183 -0.1339
 3386TIP3    H131717   2.229   0.415   8.376 -1.5474  1.4368 -2.5507
 3386TIP3    H231718   2.348   0.494   8.426 -0.9806 -1.5587  1.3154
 3387TIP3   OH231719   5.670   3.463   0.805  0.4784  1.3636  0.3292
 3387TIP3    H131720   5.646   3.447   0.897  1.5996  1.1276  0.6003
 3387TIP3    H231721   5.598   3.517   0.770 -0.2106  1.0379  1.1978
 3388TIP3   OH231722   5.445   2.719   1.461 -0.1227  0.1307  0.0514
 3388TIP3    H131723   5.487   2.780   1.401  0.5895  0.3910  0.8021
 3388TIP3    H231724   5.517   2.667   1.497 -0.7151 -1.1927 -0.5953
 3389TIP3   OH231725   1.656   3.146   7.791 -0.3564 -0.0459 -0.6730
 3389TIP3    H131726   1.581   3.129   7.733  1.0105 -1.4549 -2.1321
 3389TIP3    H231727   1.716   3.199   7.739 -0.8700  2.2888  0.9690
 3390TIP3   OH231728   1.698   5.576   0.213 -0.1515  0.2161 -0.2755
 3390TIP3    H131729   1.758   5.554   0.142  0.1545 -2.1730  0.6454
 3390TIP3    H231730   1.634   5.505   0.213 -2.2539  1.9829 -0.3569
 3391TIP3   OH231731   0.222   5.461   7.488 -0.0861  0.0906  0.3397
 3391TIP3    H131732   0.273   5.475   7.408 -0.0463  0.2504  0.3931
 3391TIP3    H231733   0.217   5.365   7.497  2.7593 -0.0327  1.9172
 3392TIP3   OH231734   3.857   2.871   1.423 -0.7375 -0.5220 -0.0516
 3392TIP3    H131735   3.796   2.868   1.349 -2.1266  1.3517  0.9224
 3392TIP3    H231736   3.863   2.781   1.453 -0.3837 -1.2850 -2.2168
 3393TIP3   OH231737   6.726   2.240   2.024 -0.1113 -0.1497 -0.3721
 3393TIP3    H131738   6.794   2.257   1.958  1.0375 -0.8489  0.5807
 3393TIP3    H231739   6.757   2.286   2.102 -1.2499  0.3304 -0.1896
 3394TIP3   OH231740   5.249   3.615   1.414 -0.2707  0.1814 -0.1411
 3394TIP3    H131741   5.231   3.534   1.463  2.3019  0.5396  1.5906
 3394TIP3    H231742   5.181   3.676   1.442  1.1139  0.3887  3.2574
 3395TIP3   OH231743   1.237   2.713   0.635  0.0652 -0.4709 -0.1036
 3395TIP3    H131744   1.310   2.768   0.607  1.3010 -1.3593  1.2049
 3395TIP3    H231745   1.195   2.685   0.554  0.0900  1.4428 -0.8248
 3396TIP3   OH231746   0.060   6.378   1.040 -0.2750 -0.1270  1.1507
 3396TIP3    H131747   0.078   6.458   0.991 -0.4146 -0.2528  0.8866
 3396TIP3    H231748   0.088   6.397   1.129  0.7115 -0.1644  0.8535
 3397TIP3   OH231749   1.656   1.925   8.013  0.3250 -0.2680 -0.6381
 3397TIP3    H131750   1.751   1.934   8.006  0.4464 -0.8137  0.1789
 3397TIP3    H231751   1.629   1.888   7.929  1.0472 -1.6483 -0.2947
 3398TIP3   OH231752   5.164   4.595   7.961 -0.4873  0.3133 -0.1817
 3398TIP3    H131753   5.139   4.504   7.943 -1.6377  0.1848  1.8043
 3398TIP3    H231754   5.255   4.589   7.991 -0.2356 -0.0341 -0.9675
 3399TIP3   OH231755   5.943   3.636   2.104  0.4704 -0.4458  0.4318
 3399TIP3    H131756   6.003   3.705   2.074  0.5056 -0.1521  1.1671
 3399TIP3    H231757   5.930   3.655   2.197 -0.0532 -1.0409  0.4789
 3400TIP3   OH231758   2.471   5.676   0.078 -0.2523  0.3145 -0.0061
 3400TIP3    H131759   2.393   5.622   0.071 -0.4966  0.8196 -1.6859
 3400TIP3    H231760   2.474   5.704   0.169 -1.2732 -0.8063  0.3829
 3401TIP3   OH231761   4.916   4.852   2.415  0.0874 -0.6551 -0.4252
 3401TIP3    H131762   4.854   4.780   2.426 -0.2802 -0.4568 -1.1023
 3401TIP3    H231763   4.899   4.884   2.326  0.2678  0.2367 -0.1457
 3402TIP3   OH231764   4.346   3.950   0.471  0.3261  0.7128 -0.1725
 3402TIP3    H131765   4.283   3.915   0.408  0.7704 -0.7219  0.1493
 3402TIP3    H231766   4.302   4.025   0.509 -1.0492 -0.0315 -0.2288
 3403TIP3   OH231767   3.528   6.448   0.179 -0.2876  0.5794  0.0204
 3403TIP3    H131768   3.500   6.539   0.185 -0.4471  0.4880  0.6722
 3403TIP3    H231769   3.448   6.397   0.187  0.0228  0.3139  2.0886
 3404TIP3   OH231770   2.604   0.644   2.103 -0.6894  0.1312 -0.1262
 3404TIP3    H131771   2.633   0.691   2.025  2.8654  1.3074  1.7199
 3404TIP3    H231772   2.604   0.552   2.076  1.0722  0.4417 -1.3861
 3405TIP3   OH231773   5.375   6.590   0.125  0.0455  0.5369  0.0000
 3405TIP3    H131774   5.398   6.568   0.035 -0.9311 -1.6332  0.2290
 3405TIP3    H231775   5.452   6.564   0.176 -0.2587 -0.3190  0.0278
 3406TIP3   OH231776   5.865   0.038   2.042 -0.1317  0.1231  0.2567
 3406TIP3    H131777   5.795   0.094   2.007 -0.4890 -0.9602 -0.8407
 3406TIP3    H231778   5.945   0.085   2.019 -0.4653  1.5234  1.7813
 3407TIP3   OH231779   1.433   4.837   1.856  0.0334 -0.0414  0.0128
 3407TIP3    H131780   1.521   4.868   1.879 -0.7812  2.3495  0.1790
 3407TIP3    H231781   1.417   4.764   1.917  0.8154  1.3389  1.9580
 3408TIP3   OH231782   1.618   3.519   0.968 -0.8835 -0.0653 -0.2816
 3408TIP3    H131783   1.623   3.606   0.927  0.0667 -0.6007 -1.3551
 3408TIP3    H231784   1.579   3.535   1.054 -0.6399  1.4376 -0.4290
 3409TIP3   OH231785   2.044   3.538   0.658 -0.1574 -0.2129 -0.0724
 3409TIP3    H131786   2.007   3.564   0.743  1.3737  0.1773  0.5110
 3409TIP3    H231787   2.006   3.452   0.641 -1.9898  0.5222  0.0505
 3410TIP3   OH231788   1.471   3.117   0.758  0.0641  0.4595  0.4303
 3410TIP3    H131789   1.559   3.150   0.741  0.3232 -0.5911 -0.3594
 3410TIP3    H231790   1.471   3.028   0.723 -1.3189  0.4427  0.3965
 3411TIP3   OH231791   3.058   3.747   2.111 -0.7770 -0.8892 -0.1512
 3411TIP3    H131792   2.973   3.703   2.117  0.3798 -3.1419  1.6440
 3411TIP3    H231793   3.121   3.675   2.102  0.9817  0.6952 -1.3233
 3412TIP3   OH231794   0.065   3.271   7.727  0.1707  1.0539  0.1383
 3412TIP3    H131795  -0.012   3.232   7.767  0.8838 -0.4126  0.1444
 3412TIP3    H231796   0.047   3.365   7.725 -1.3702  0.7820  0.6294
 3413TIP3   OH231797   3.750   0.560   2.306  0.5244 -0.2500  0.0707
 3413TIP3    H131798   3.787   0.633   2.355  3.4353 -0.4968 -1.5430
 3413TIP3    H231799   3.740   0.490   2.370  0.6554  0.5884  1.0281
 3414TIP3   OH231800   0.703   1.423   1.490  0.2358 -0.0044 -0.3279
 3414TIP3    H131801   0.610   1.411   1.469  0.8336 -1.9702 -2.3036
 3414TIP3    H231802   0.709   1.403   1.583 -1.0938 -1.5849 -0.5285
 3415TIP3   OH231803   0.688   3.030   1.853 -0.2098  0.1365  0.4008
 3415TIP3    H131804   0.651   3.118   1.858  0.1255  0.3055 -0.0196
 3415TIP3    H231805   0.620   2.973   1.890 -0.3680  0.5836  0.8179
 3416TIP3   OH231806   1.397   1.313   0.297  0.8477 -0.4945 -0.0048
 3416TIP3    H131807   1.323   1.291   0.355  0.3935  0.8786 -0.0308
 3416TIP3    H231808   1.363   1.300   0.209 -0.0738  2.0184 -0.0994
 3417TIP3   OH231809   2.033   0.124   2.433 -0.5006 -1.1118 -0.3171
 3417TIP3    H131810   2.019   0.216   2.407  1.1979 -1.1373 -1.5436
 3417TIP3    H231811   2.124   0.107   2.408 -0.7308 -3.0870  0.0879
 3418TIP3   OH231812   1.863   1.267   7.814 -0.3273  0.5766 -0.3354
 3418TIP3    H131813   1.938   1.208   7.824 -0.5171  0.2721 -0.7048
 3418TIP3    H231814   1.835   1.286   7.903  1.6168  2.5241 -0.0401
 3419TIP3   OH231815   2.634   0.186   7.854  0.0484 -0.3150  0.5284
 3419TIP3    H131816   2.620   0.281   7.847  1.8792 -0.0162  0.2953
 3419TIP3    H231817   2.558   0.154   7.902 -1.0891  1.1230 -0.2101
 3420TIP3   OH231818   4.008   3.558   7.795 -0.0641  0.1198  0.5289
 3420TIP3    H131819   3.985   3.634   7.849 -0.7512 -0.3430  0.8897
 3420TIP3    H231820   4.104   3.561   7.791 -0.0415  0.5545  1.1988
 3421TIP3   OH231821   3.543   2.515   1.393  0.0661 -0.6239  0.0817
 3421TIP3    H131822   3.615   2.498   1.453 -0.6140 -0.4798  0.9617
 3421TIP3    H231823   3.464   2.505   1.446 -0.5578 -0.4968 -0.7891
 3422TIP3   OH231824   1.107   4.654   8.474 -0.1649 -0.8997 -0.0248
 3422TIP3    H131825   1.064   4.641   8.558  1.9507  2.7693  1.9007
 3422TIP3    H231826   1.187   4.602   8.479 -0.3024 -1.1151 -0.0357
 3423TIP3   OH231827   4.855   2.137   7.693  0.0815  0.0865 -0.4766
 3423TIP3    H131828   4.865   2.050   7.654 -0.2166 -0.7370  1.1820
 3423TIP3    H231829   4.842   2.195   7.618  1.9098 -1.0287 -1.7294
 3424TIP3   OH231830   0.169   3.043   8.384  0.2356 -0.3455  0.6019
 3424TIP3    H131831   0.166   2.957   8.424 -1.4951  0.0265  1.3460
 3424TIP3    H231832   0.098   3.092   8.425  1.1401  1.4311  0.1612
 3425TIP3   OH231833   0.005   3.200   2.347 -0.5744 -0.8283 -0.1415
 3425TIP3    H131834  -0.088   3.195   2.328 -0.7924  2.8883 -0.8928
 3425TIP3    H231835   0.015   3.156   2.431 -3.2754 -0.1862  0.6169
 3426TIP3   OH231836   3.264   4.853   7.925 -0.5098 -0.1407  0.5297
 3426TIP3    H131837   3.181   4.884   7.890 -0.2893 -0.0076  0.1197
 3426TIP3    H231838   3.331   4.900   7.875 -0.1705 -1.2103 -0.0553
 3427TIP3   OH231839   1.106   0.304   8.575  0.3508  0.0357  0.1441
 3427TIP3    H131840   1.049   0.362   8.626  2.1826  1.2016  0.9540
 3427TIP3    H231841   1.054   0.225   8.563 -1.0385  0.6269  1.7935
 3428TIP3   OH231842   5.873   1.098   1.578 -0.3804  0.4597 -0.3385
 3428TIP3    H131843   5.920   1.141   1.649 -1.1862  1.1495 -0.2015
 3428TIP3    H231844   5.927   1.114   1.501  0.0275  0.5180 -0.0441
 3429TIP3   OH231845   1.085   4.911   6.951 -0.4827  0.2256 -0.0088
 3429TIP3    H131846   1.000   4.916   6.996 -1.1707 -1.8425 -0.9533
 3429TIP3    H231847   1.147   4.889   7.020 -0.5378  2.3442  0.8048
 3430TIP3   OH231848   4.738   2.481   8.645 -0.9569  0.1797 -0.1859
 3430TIP3    H131849   4.663   2.469   8.586  1.5657 -1.3888 -3.3715
 3430TIP3    H231850   4.723   2.419   8.716 -2.4852 -0.3465 -0.9190
 3431TIP3   OH231851   0.271   4.226   7.483  0.5532 -0.4524 -0.4069
 3431TIP3    H131852   0.262   4.252   7.575  0.4273 -0.3723 -0.4423
 3431TIP3    H231853   0.264   4.131   7.485 -1.8860 -0.3349 -0.6130
 3432TIP3   OH231854   5.331   3.768   8.209 -0.3365  0.1832  0.0988
 3432TIP3    H131855   5.327   3.863   8.223 -0.3839  0.5328 -1.9453
 3432TIP3    H231856   5.240   3.739   8.217 -0.2006  0.0976  1.7451
 3433TIP3   OH231857   5.642   3.104   0.407  0.1862  0.6386  0.4745
 3433TIP3    H131858   5.633   3.125   0.500  0.2222  0.2624  0.5647
 3433TIP3    H231859   5.712   3.039   0.404 -0.0095  0.4402  0.2101
 3434TIP3   OH231860   4.149   1.104   2.906  0.1750  0.0370 -0.5342
 3434TIP3    H131861   4.067   1.078   2.948 -0.3590  0.9545 -0.9950
 3434TIP3    H231862   4.132   1.097   2.812  0.5737  0.4025 -0.6348
 3435TIP3   OH231863   4.021   3.109   0.794  0.1098  0.0320 -0.2613
 3435TIP3    H131864   4.113   3.082   0.796  0.5198  1.3517 -0.4663
 3435TIP3    H231865   4.017   3.176   0.726 -0.7818  0.7481  0.4627
 3436TIP3   OH231866   5.989   5.219   1.251 -0.0908 -0.8078  0.3117
 3436TIP3    H131867   5.927   5.163   1.298  0.6609 -0.9338  1.1853
 3436TIP3    H231868   5.965   5.210   1.159 -1.5215 -0.6558  0.6558
 3437TIP3   OH231869   2.948   2.027   7.521  0.7081 -0.0661 -0.2113
 3437TIP3    H131870   2.939   2.120   7.542  2.4370  0.3146 -0.9431
 3437TIP3    H231871   2.907   2.017   7.435  2.3714  0.5097 -1.1139
 3438TIP3   OH231872   4.301   6.091   7.896 -0.3827  0.3836  0.5004
 3438TIP3    H131873   4.219   6.142   7.894  0.4780  1.8186 -0.7096
 3438TIP3    H231874   4.289   6.029   7.968 -1.6229  2.1247  1.8916
 3439TIP3   OH231875   3.317   0.051   1.502 -0.0939  0.3527 -0.4379
 3439TIP3    H131876   3.232   0.037   1.544 -0.4957 -0.8358 -1.5432
 3439TIP3    H231877   3.327  -0.026   1.445  1.6044  0.6118 -0.5201
 3440TIP3   OH231878   6.620   2.586   7.961  0.1360  0.0339 -0.0084
 3440TIP3    H131879   6.544   2.643   7.972  0.1867  0.4500 -1.5121
 3440TIP3    H231880   6.694   2.637   7.995 -0.0810  0.1052  0.3621
 3441TIP3   OH231881   3.692   6.519   2.942 -0.0940 -0.1883 -0.1766
 3441TIP3    H131882   3.754   6.561   3.001 -1.8573 -0.1843  1.7804
 3441TIP3    H231883   3.724   6.429   2.933 -0.2066 -0.4170  1.4652
 3442TIP3   OH231884   4.989   6.338   1.490 -0.0452  0.4057 -0.1875
 3442TIP3    H131885   4.967   6.260   1.542 -1.1847  0.6118 -0.3307
 3442TIP3    H231886   4.959   6.317   1.402 -1.2088  1.3396 -0.0402
 3443TIP3   OH231887   1.037   2.366   1.284 -0.2605  0.3059 -0.6444
 3443TIP3    H131888   0.943   2.355   1.270 -0.0056 -0.2553 -2.1229
 3443TIP3    H231889   1.054   2.324   1.369 -1.1467 -0.7182 -0.9519
 3444TIP3   OH231890   2.341   4.496   1.912  0.0254  0.3404  0.6340
 3444TIP3    H131891   2.305   4.463   1.995  0.7481  1.2327  1.3190
 3444TIP3    H231892   2.373   4.418   1.867  0.7215 -0.0315  1.7398
 3445TIP3   OH231893   1.892   0.056   1.567 -0.9747  0.0583  0.2836
 3445TIP3    H131894   1.833   0.030   1.496 -0.7214  2.1771 -0.8081
 3445TIP3    H231895   1.834   0.097   1.632 -0.8695  1.0623 -0.2382
 3446TIP3   OH231896   6.068   0.209   1.997 -0.1511  0.0645 -0.6459
 3446TIP3    H131897   6.063   0.233   1.905  1.6830  0.8644 -0.5687
 3446TIP3    H231898   6.047   0.289   2.045  1.2879  0.3097 -0.3888
 3447TIP3   OH231899   0.645   1.075   2.090  0.4964  0.5645  0.3907
 3447TIP3    H131900   0.698   0.997   2.102  0.3101  0.2603 -0.6996
 3447TIP3    H231901   0.695   1.145   2.131  1.0956  0.0424  0.5596
 3448TIP3   OH231902   1.883   5.099   2.897  0.0261  0.4241 -0.5530
 3448TIP3    H131903   1.797   5.132   2.921  0.3276 -0.6838  2.4997
 3448TIP3    H231904   1.865   5.021   2.845 -0.8741 -0.0983  0.5062
 3449TIP3   OH231905   4.686   4.257   1.641 -0.1386  0.3856 -0.3987
 3449TIP3    H131906   4.741   4.236   1.565  0.3364 -0.0154  0.0528
 3449TIP3    H231907   4.609   4.201   1.630  1.2315 -1.9179  0.9367
 3450TIP3   OH231908   3.356   1.404   8.004 -0.4186 -0.0846 -0.0724
 3450TIP3    H131909   3.329   1.496   8.006 -0.6952 -0.1803  0.9550
 3450TIP3    H231910   3.307   1.366   7.931 -0.2412  0.5956 -0.5592
 3451TIP3   OH231911   5.112   0.574   0.855 -0.2045 -0.1550 -0.0009
 3451TIP3    H131912   5.132   0.667   0.845  1.1327 -0.5584 -1.3518
 3451TIP3    H231913   5.075   0.548   0.771 -2.6769 -0.4033  1.0648
 3452TIP3   OH231914   5.991   1.993   0.585  0.3088  0.0330 -0.3012
 3452TIP3    H131915   5.961   1.956   0.668  1.6753 -2.6974 -0.9319
 3452TIP3    H231916   6.086   1.989   0.589  0.4033 -0.4379 -2.0924
 3453TIP3   OH231917   3.188   6.109   8.034  0.1610  0.3571  0.6508
 3453TIP3    H131918   3.283   6.121   8.026 -0.1313  1.5596 -2.5033
 3453TIP3    H231919   3.174   6.016   8.019  0.7493  0.5232 -1.1763
 3454TIP3   OH231920   5.759   1.617   0.571 -0.0386 -0.8269  0.1613
 3454TIP3    H131921   5.769   1.691   0.512 -1.4130 -0.3743  0.4553
 3454TIP3    H231922   5.840   1.567   0.561  0.0786 -0.3605 -1.5166
 3455TIP3   OH231923   6.707   1.699   2.515  0.3604  0.0694 -0.1641
 3455TIP3    H131924   6.709   1.793   2.500  1.5861  0.2695  1.0464
 3455TIP3    H231925   6.624   1.684   2.561  0.3778  0.6367  0.0578
 3456TIP3   OH231926   4.292   5.405   8.344 -0.7185  0.0294  0.4932
 3456TIP3    H131927   4.338   5.355   8.410 -1.1110  0.0832  0.8129
 3456TIP3    H231928   4.222   5.347   8.314  0.5412 -0.7007 -1.1982
 3457TIP3   OH231929   5.824   6.321   8.494  0.1616 -0.6200 -0.2273
 3457TIP3    H131930   5.864   6.236   8.511  0.9632 -0.3434 -0.6868
 3457TIP3    H231931   5.776   6.342   8.574  0.2264 -1.3556  0.0027
 3458TIP3   OH231932   3.194   0.480   2.270  0.5652  0.2614 -0.4056
 3458TIP3    H131933   3.201   0.448   2.360  1.2862  1.1342 -0.1339
 3458TIP3    H231934   3.283   0.503   2.246  0.3217  0.3806 -1.2213
 3459TIP3   OH231935   6.656   1.967   2.456  0.2434  0.2524  0.0872
 3459TIP3    H131936   6.605   1.957   2.536  1.0564  0.3144  0.6320
 3459TIP3    H231937   6.632   2.054   2.424  0.0715  0.3167  0.3799
 3460TIP3   OH231938   3.494   4.863   8.292  0.7618  0.5277 -0.6800
 3460TIP3    H131939   3.509   4.954   8.320 -0.7178 -0.5200  4.7004
 3460TIP3    H231940   3.400   4.860   8.271  0.0320 -0.1226  2.1528
 3461TIP3   OH231941   4.724   1.083   1.460  0.1608  1.0214  0.0120
 3461TIP3    H131942   4.655   1.135   1.419  0.0467  0.7927 -0.0897
 3461TIP3    H231943   4.685   1.052   1.541  0.6624  2.1563  0.7168
 3462TIP3   OH231944   2.410   5.889   7.980 -0.1074  0.2189  1.2164
 3462TIP3    H131945   2.413   5.932   7.894 -1.0197 -1.4099  0.3279
 3462TIP3    H231946   2.402   5.961   8.043 -0.3630  1.4021 -0.1281
 3463TIP3   OH231947   5.666   3.819   0.885 -0.7224  0.0252  0.4397
 3463TIP3    H131948   5.707   3.762   0.950 -0.2518 -1.4130 -1.0638
 3463TIP3    H231949   5.572   3.800   0.893 -0.7004  0.0724  0.8765
 3464TIP3   OH231950   2.646   4.182   1.572  0.3881  0.3854 -0.2929
 3464TIP3    H131951   2.584   4.182   1.499 -1.5252  0.9035  1.2690
 3464TIP3    H231952   2.705   4.255   1.553  0.6979 -0.2108 -1.8797
 3465TIP3   OH231953   3.009   0.131   0.016  0.4735 -0.2862  0.1109
 3465TIP3    H131954   3.094   0.131  -0.027  0.1148 -0.7908 -0.6300
 3465TIP3    H231955   2.962   0.204  -0.024 -0.2578 -1.4324 -1.2138
 3466TIP3   OH231956   4.494   1.390   0.294  0.3995  1.1752  0.0697
 3466TIP3    H131957   4.585   1.363   0.294 -0.0985 -0.6414  0.5198
 3466TIP3    H231958   4.480   1.429   0.207  0.4760 -2.8132 -1.9660
 3467TIP3   OH231959   1.714   5.285   1.302 -0.2677 -0.5451 -0.0250
 3467TIP3    H131960   1.732   5.329   1.385 -2.4228  0.4756 -0.0174
 3467TIP3    H231961   1.788   5.306   1.246  0.0197  0.8925  0.8539
 3468TIP3   OH231962   1.688   5.124   0.498 -0.0965  0.3718 -0.2801
 3468TIP3    H131963   1.648   5.192   0.552  0.1685  1.0954 -0.9688
 3468TIP3    H231964   1.622   5.104   0.432 -0.0189  0.2511 -0.3208
 3469TIP3   OH231965   0.587   4.234   7.476 -0.7818  0.6289 -0.6517
 3469TIP3    H131966   0.492   4.239   7.464 -1.0999 -0.1169  1.2070
 3469TIP3    H231967   0.598   4.227   7.571  0.7785 -4.6646 -0.9159
 3470TIP3   OH231968   0.907   2.435   7.720 -0.2772  0.6683 -0.4652
 3470TIP3    H131969   0.967   2.446   7.794  0.5147 -1.3896 -0.7366
 3470TIP3    H231970   0.861   2.519   7.715 -0.6311  0.7915  2.5747
 3471TIP3   OH231971   0.447   1.854   8.642  0.0446 -0.3959  0.1835
 3471TIP3    H131972   0.375   1.859   8.579  0.1327  1.2619  0.1748
 3471TIP3    H231973   0.522   1.892   8.596  0.1875  0.5368  1.1544
 3472TIP3   OH231974   4.340   5.862   1.787 -0.4539  0.5784  0.2806
 3472TIP3    H131975   4.364   5.867   1.694  0.1396  0.5463  0.4274
 3472TIP3    H231976   4.292   5.943   1.804  1.5229  1.7621  0.5235
 3473TIP3   OH231977   1.744   3.350   8.477  0.1261 -0.0777 -0.0484
 3473TIP3    H131978   1.716   3.389   8.395 -0.1978  0.1808  0.1840
 3473TIP3    H231979   1.675   3.372   8.539  1.3518  1.5674  0.8176
 3474TIP3   OH231980   2.597   2.719   6.603 -0.3683 -0.1666  0.3195
 3474TIP3    H131981   2.603   2.758   6.516  0.5986  0.8083  0.7981
 3474TIP3    H231982   2.565   2.789   6.659 -0.2996 -0.5743  0.8832
 3475TIP3   OH231983   3.146   4.712   2.310  0.2145  0.3005 -0.1019
 3475TIP3    H131984   3.143   4.620   2.283 -0.0613  0.5988 -1.1314
 3475TIP3    H231985   3.172   4.709   2.402 -2.5837 -0.9745  0.7677
 3476TIP3   OH231986   2.314   0.161   8.587  0.1923  0.2048 -0.2088
 3476TIP3    H131987   2.279   0.185   8.673  0.9265  0.3451  0.0539
 3476TIP3    H231988   2.299   0.067   8.580 -0.3935  0.2885 -0.1778
 3477TIP3   OH231989   3.275   4.913   2.191 -0.2254  0.0900 -0.3970
 3477TIP3    H131990   3.365   4.918   2.225  0.1480 -0.8794 -1.1659
 3477TIP3    H231991   3.236   4.841   2.240 -1.2221  1.6653  1.2495
 3478TIP3   OH231992   3.599   5.474   0.294 -0.5392 -0.2909  0.5237
 3478TIP3    H131993   3.637   5.484   0.207  0.5563 -2.3193  0.6956
 3478TIP3    H231994   3.514   5.516   0.289 -1.3060 -1.9662 -2.1084
 3479TIP3   OH231995   4.073   0.999   7.917  0.0215 -0.1865  0.0738
 3479TIP3    H131996   4.121   0.917   7.905  0.2165 -0.1462  0.5806
 3479TIP3    H231997   4.079   1.042   7.832 -1.7106 -1.5572 -0.8149
 3480TIP3   OH231998   4.336   0.495   0.984  0.0587 -0.1768 -0.2447
 3480TIP3    H131999   4.311   0.418   1.035  0.0785 -0.3146 -0.4448
 3480TIP3    H232000   4.413   0.530   1.030 -0.4206  0.1827  0.3067
 3481TIP3   OH232001   2.904   6.268   3.221  0.3653  0.0488  0.3496
 3481TIP3    H132002   2.813   6.249   3.201  0.1124  0.6744  0.8521
 3481TIP3    H232003   2.952   6.247   3.140  0.0094 -1.8009  0.5963
 3482TIP3   OH232004   2.206   6.135   7.575 -0.2118 -0.1577 -0.5132
 3482TIP3    H132005   2.112   6.151   7.583 -0.0644  1.7512 -1.8435
 3482TIP3    H232006   2.214   6.062   7.514 -0.8361  0.6866 -1.6395
 3483TIP3   OH232007   5.668   5.510   8.056 -0.0268  0.6477 -0.3025
 3483TIP3    H132008   5.589   5.458   8.043 -0.3162  1.1582 -0.6239
 3483TIP3    H232009   5.740   5.448   8.043 -0.3675  0.1387  0.1625
 3484TIP3   OH232010   1.066   4.534   1.722 -1.0568  0.1489  0.4322
 3484TIP3    H132011   1.047   4.550   1.815 -0.6933  1.2082  0.3315
 3484TIP3    H232012   1.084   4.620   1.686 -0.9491 -0.2856 -0.5807
 3485TIP3   OH232013   4.104   2.999   6.779  0.8488 -0.1134 -0.0418
 3485TIP3    H132014   4.110   2.979   6.686 -0.7471  0.5405 -0.3195
 3485TIP3    H232015   4.051   3.079   6.783  0.5097 -0.3846  1.4501
 3486TIP3   OH232016   0.194   0.796   7.279 -0.0877  0.1365  0.3943
 3486TIP3    H132017   0.187   0.867   7.342  0.5107  0.9361 -0.4068
 3486TIP3    H232018   0.143   0.724   7.317 -1.4008  1.2580  0.8344
 3487TIP3   OH232019   4.973   4.059   1.049  0.2883  0.1058  0.4212
 3487TIP3    H132020   5.065   4.066   1.023  0.1428 -0.9067 -0.4449
 3487TIP3    H232021   4.964   3.969   1.080 -0.4438  0.1569  0.3781
 3488TIP3   OH232022   0.454   0.886   6.955 -0.5980  0.4254 -0.6343
 3488TIP3    H132023   0.403   0.962   6.926 -0.3017  1.1789  0.7221
 3488TIP3    H232024   0.410   0.856   7.034  1.3350  1.4880  0.9529
 3489TIP3   OH232025   0.722   0.147   0.123  0.1197 -0.0935  0.0243
 3489TIP3    H132026   0.784   0.156   0.196  0.5599 -0.7750 -0.2567
 3489TIP3    H232027   0.687   0.059   0.132 -0.0445 -0.0767 -0.4203
 3490TIP3   OH232028   0.087   5.609   8.479  0.4125 -0.1460  0.3923
 3490TIP3    H132029   0.151   5.538   8.469 -1.8009 -2.2585  0.1571
 3490TIP3    H232030   0.051   5.596   8.567 -1.0731 -0.2718 -0.2124
 3491TIP3   OH232031   1.438   2.012   1.105 -0.1440 -0.2088  0.3636
 3491TIP3    H132032   1.495   2.076   1.148 -0.8792  2.2891 -2.1309
 3491TIP3    H232033   1.357   2.014   1.156 -0.1735  0.8915  0.2889
 3492TIP3   OH232034   0.702   4.950   0.336  0.1711  0.1345  0.6792
 3492TIP3    H132035   0.650   4.876   0.305  0.8966  0.5341 -1.7179
 3492TIP3    H232036   0.770   4.910   0.391  1.0466 -1.1638 -1.2164
 3493TIP3   OH232037   1.763   3.159   8.208  0.9388 -0.7386 -0.1061
 3493TIP3    H132038   1.807   3.086   8.165  0.2191 -0.8142 -0.7412
 3493TIP3    H232039   1.817   3.179   8.284  1.2562 -1.7975 -0.0419
 3494TIP3   OH232040   1.259   6.224   2.189 -0.2725  0.5421 -0.1145
 3494TIP3    H132041   1.191   6.288   2.211  0.4170  1.4560 -0.5464
 3494TIP3    H232042   1.211   6.151   2.148 -1.1179  0.5750  0.7890
 3495TIP3   OH232043   0.035   5.605   2.416 -0.1780 -0.4096  0.1640
 3495TIP3    H132044  -0.013   5.616   2.498 -1.8024  0.1808 -0.8088
 3495TIP3    H232045   0.127   5.618   2.440 -0.5059 -1.1942  2.0358
 3496TIP3   OH232046   3.912   6.597   3.092  0.2402  0.2105  0.5676
 3496TIP3    H132047   3.949   6.624   3.176 -1.2819  0.5598  1.1501
 3496TIP3    H232048   3.945   6.661   3.029  0.6324  0.5062  1.0674
 3497TIP3   OH232049   1.118   1.666   8.264  0.1900  0.4963  0.6404
 3497TIP3    H132050   1.166   1.603   8.210  0.2523  1.2806 -0.2529
 3497TIP3    H232051   1.132   1.751   8.220  0.7861  1.2690  2.2627
 3498TIP3   OH232052   6.517   2.802   0.370 -0.1878  0.2336 -0.0510
 3498TIP3    H132053   6.551   2.828   0.284 -0.2568  0.3330 -0.0491
 3498TIP3    H232054   6.552   2.714   0.385  0.5398  0.5620  0.2116
 3499TIP3   OH232055   1.175   4.059   7.447 -0.2273  0.2990  0.0913
 3499TIP3    H132056   1.238   4.000   7.406 -1.4078 -0.8402 -0.1438
 3499TIP3    H232057   1.188   4.046   7.541 -0.7211 -0.6352  0.0445
 3500TIP3   OH232058   2.167   4.541   7.876 -0.1665 -0.1434  0.1285
 3500TIP3    H132059   2.125   4.463   7.841  0.6710  0.0026 -1.3006
 3500TIP3    H232060   2.177   4.599   7.800 -0.1301  1.0582  1.0192
 3501TIP3   OH232061   3.863   5.919   1.268  0.2466  0.0913 -0.9217
 3501TIP3    H132062   3.780   5.870   1.268 -0.2280  0.7685  1.4501
 3501TIP3    H232063   3.863   5.965   1.185 -1.4891 -0.3728 -1.2299
 3502TIP3   OH232064   0.534   0.345   0.757 -0.3986  0.1156 -0.6955
 3502TIP3    H132065   0.494   0.421   0.716 -1.2359 -0.5096 -1.0627
 3502TIP3    H232066   0.495   0.343   0.845  1.2517  1.3447  0.1231
 3503TIP3   OH232067   4.269   3.636   7.870 -0.7933  0.5072 -0.4570
 3503TIP3    H132068   4.337   3.656   7.806 -0.2036  0.8426  0.2530
 3503TIP3    H232069   4.235   3.721   7.896 -1.1787  0.3625 -0.4800
 3504TIP3   OH232070   3.233   5.202   2.203  0.1911  0.3590 -0.0568
 3504TIP3    H132071   3.238   5.110   2.177 -1.2177 -0.1453  1.3307
 3504TIP3    H232072   3.282   5.206   2.285  1.6702  1.2372 -0.9222
 3505TIP3   OH232073   6.233   3.360   1.352 -0.1214 -0.0027  0.0910
 3505TIP3    H132074   6.235   3.390   1.261  0.8584 -0.1058  0.0619
 3505TIP3    H232075   6.141   3.343   1.370 -0.5875  1.8716 -0.2710
 3506TIP3   OH232076   5.707   6.786   7.556  0.9967 -0.0750 -0.3242
 3506TIP3    H132077   5.763   6.834   7.618  0.7831 -0.2050 -0.0269
 3506TIP3    H232078   5.669   6.854   7.501 -0.4058  0.2524  0.9925
 3507TIP3   OH232079   2.536   0.748   8.433 -0.0200  0.0542  0.7617
 3507TIP3    H132080   2.605   0.703   8.385 -1.2598  0.2738 -1.3281
 3507TIP3    H232081   2.514   0.688   8.505  1.1982 -0.7414  0.5007
 3508TIP3   OH232082   0.396   3.046   6.754  0.1637  0.1345  0.1972
 3508TIP3    H132083   0.477   3.094   6.734  1.1966 -1.6612 -0.1481
 3508TIP3    H232084   0.393   2.977   6.689 -1.5381 -0.0059  0.3949
 3509TIP3   OH232085   3.107   1.387   2.814 -0.1966 -0.0150 -0.5241
 3509TIP3    H132086   3.102   1.294   2.838 -0.7238  0.0575 -0.3367
 3509TIP3    H232087   3.172   1.390   2.744 -0.9873 -0.7053 -1.3177
 3510TIP3   OH232088   2.534   3.179   1.256 -0.3278 -0.1357 -0.3212
 3510TIP3    H132089   2.602   3.194   1.190  1.8989 -0.7167  1.6898
 3510TIP3    H232090   2.513   3.086   1.248 -0.8789  0.0276 -0.8909
 3511TIP3   OH232091   2.694   3.301   3.119  0.3906 -0.7001  0.2968
 3511TIP3    H132092   2.752   3.253   3.177  1.9729  0.8522  0.1055
 3511TIP3    H232093   2.608   3.293   3.159  1.0781 -1.3797  1.7251
 3512TIP3   OH232094   0.366   5.025   2.416 -0.0067  0.2171 -0.3484
 3512TIP3    H132095   0.330   4.938   2.397 -1.2257  0.5002  0.4993
 3512TIP3    H232096   0.362   5.072   2.333 -0.6848 -0.0889 -0.4974
 3513TIP3   OH232097   1.495   6.013   7.193  0.4069 -0.3753 -0.5363
 3513TIP3    H132098   1.551   6.031   7.117 -0.5944  1.1049 -0.9638
 3513TIP3    H232099   1.535   6.064   7.264 -0.5116  0.9375 -0.9175
 3514TIP3   OH232100   3.764   4.151   7.218  0.2643 -0.1045  0.5658
 3514TIP3    H132101   3.673   4.170   7.243  0.8353 -0.4473  3.0750
 3514TIP3    H232102   3.816   4.219   7.262  1.2132  0.8313 -1.7904
 3515TIP3   OH232103   4.068   5.209   1.321  0.1935 -0.1712  0.0242
 3515TIP3    H132104   4.156   5.201   1.358  0.4889  2.4201  0.0548
 3515TIP3    H232105   4.031   5.288   1.362 -2.4810 -1.5943  0.6048
 3516TIP3   OH232106   4.181   5.372   1.764 -0.7899  0.3687 -0.3823
 3516TIP3    H132107   4.191   5.455   1.810  0.5421  0.4803 -0.8425
 3516TIP3    H232108   4.171   5.306   1.833 -2.1875  0.9167 -0.0163
 3517TIP3   OH232109   3.782   1.852   8.631 -0.2914  0.2298 -0.2438
 3517TIP3    H132110   3.817   1.764   8.645  0.1974  0.6510  1.3803
 3517TIP3    H232111   3.708   1.859   8.692 -0.9590  0.6220 -1.0646
 3518TIP3   OH232112   2.932   0.624   7.701 -0.2620  0.8636  0.3840
 3518TIP3    H132113   2.858   0.628   7.640 -0.4286 -0.7057  0.4674
 3518TIP3    H232114   2.916   0.547   7.754  1.5095  0.4203  0.3248
 3519TIP3   OH232115   6.621   2.215   2.351 -0.5103  0.2513  0.4476
 3519TIP3    H132116   6.535   2.242   2.384 -0.7611  0.7277 -0.5657
 3519TIP3    H232117   6.651   2.289   2.298 -0.0833 -0.4531 -0.3199
 3520TIP3   OH232118   0.039   1.642   1.823  0.2142  0.3785 -0.1991
 3520TIP3    H132119   0.105   1.657   1.891  0.8559  0.2179 -0.7768
 3520TIP3    H232120  -0.017   1.720   1.825 -1.1075 -0.5121  1.9695
 3521TIP3   OH232121   3.716   3.887   7.155 -0.1408 -0.6637 -0.2450
 3521TIP3    H132122   3.737   3.980   7.166  2.4488 -1.2188  0.0044
 3521TIP3    H232123   3.620   3.885   7.151 -0.2788  1.9811 -0.0752
 3522TIP3   OH232124   2.137   1.342   7.196  0.2291  0.0843  0.3072
 3522TIP3    H132125   2.191   1.361   7.272  1.5194  3.6077 -1.2425
 3522TIP3    H232126   2.102   1.428   7.170 -1.1370 -1.1591 -2.3382
 3523TIP3   OH232127   2.065   5.301   2.737 -0.0839  0.1458  0.6948
 3523TIP3    H132128   2.034   5.288   2.647  0.2014  0.5529  0.5376
 3523TIP3    H232129   2.006   5.248   2.790  0.0956 -0.5520  0.2120
 3524TIP3   OH232130   4.020   4.159   0.558  0.0638  0.0742 -0.1987
 3524TIP3    H132131   3.978   4.239   0.589 -1.2698 -0.9741  0.8565
 3524TIP3    H232132   4.062   4.122   0.636  1.3994  0.1534 -0.8554
 3525TIP3   OH232133   1.107   5.552   1.504  0.0036 -0.1879  0.5927
 3525TIP3    H132134   1.030   5.609   1.496 -0.6367 -0.8499  1.7495
 3525TIP3    H232135   1.179   5.611   1.526 -0.3080  0.3613  0.1685
 3526TIP3   OH232136   6.441   0.867   1.789  0.2619  0.3577 -0.0952
 3526TIP3    H132137   6.527   0.872   1.748  2.3098 -0.5145  3.6618
 3526TIP3    H232138   6.426   0.955   1.824 -0.3592  0.4680 -0.6093
 3527TIP3   OH232139   6.118   4.106   7.408 -0.2570 -0.1746 -0.1547
 3527TIP3    H132140   6.067   4.036   7.366 -0.8325 -0.2715  0.6714
 3527TIP3    H232141   6.150   4.066   7.489 -1.3687  0.7724  0.7900
 3528TIP3   OH232142   3.250   1.188   8.332 -0.4851  0.4750 -0.1914
 3528TIP3    H132143   3.260   1.281   8.310 -1.5205  0.6805  0.1421
 3528TIP3    H232144   3.243   1.144   8.247  2.1594  0.3940 -0.4366
 3529TIP3   OH232145   1.691   5.351   2.280 -0.0252 -0.1517 -0.1704
 3529TIP3    H132146   1.658   5.263   2.262 -1.6914  0.3593  0.2561
 3529TIP3    H232147   1.613   5.404   2.292  0.9630  1.2296  0.3767
 3530TIP3   OH232148   5.276   1.027   6.764 -1.0853  0.4333 -0.8238
 3530TIP3    H132149   5.337   1.081   6.714 -0.2550 -0.7089 -1.0862
 3530TIP3    H232150   5.279   1.064   6.852 -0.2067  0.5645 -0.8952
 3531TIP3   OH232151   3.090   0.895   2.132 -0.0464  0.2084  0.2723
 3531TIP3    H132152   3.120   0.901   2.041  0.6824 -1.7018  0.3427
 3531TIP3    H232153   3.018   0.957   2.137 -1.2681 -0.8535 -2.1179
 3532TIP3   OH232154   5.823   0.809   7.409 -0.3352  0.6416 -0.0259
 3532TIP3    H132155   5.818   0.742   7.341 -0.9089  0.2518  0.3906
 3532TIP3    H232156   5.733   0.840   7.419 -0.2593  0.6745  0.5761
 3533TIP3   OH232157   3.292   3.612   0.617 -0.2290  0.8228  0.0057
 3533TIP3    H132158   3.355   3.669   0.661  0.1302  1.0471 -0.7932
 3533TIP3    H232159   3.274   3.543   0.681  1.2974  0.4104  0.0218
 3534TIP3   OH232160   4.993   4.714   7.475  0.1942 -0.1016  0.2778
 3534TIP3    H132161   5.059   4.716   7.406 -0.0640 -1.3666 -0.0333
 3534TIP3    H232162   4.999   4.800   7.517 -0.1633  1.0123 -1.8002
 3535TIP3   OH232163   4.288   3.185   2.283  0.9520  0.1373  0.1230
 3535TIP3    H132164   4.327   3.125   2.219  2.3683 -0.2824  1.3444
 3535TIP3    H232165   4.331   3.269   2.266 -1.2929  1.0366 -1.8375
 3536TIP3   OH232166   6.331   3.863   8.609  0.4509 -0.4764 -0.0611
 3536TIP3    H132167   6.417   3.844   8.644  1.2731 -0.9719 -2.1870
 3536TIP3    H232168   6.279   3.785   8.631  0.0658  0.3772  2.4062
 3537TIP3   OH232169   0.290   5.502   1.563  0.0511  0.2796 -0.5380
 3537TIP3    H132170   0.325   5.582   1.525  0.8163  0.4753  0.4980
 3537TIP3    H232171   0.320   5.504   1.654 -2.3269  0.2227  0.3083
 3538TIP3   OH232172   3.414   6.546   2.627  0.5734 -0.6986 -0.2311
 3538TIP3    H132173   3.468   6.578   2.699 -2.8318 -2.1498  3.4079
 3538TIP3    H232174   3.406   6.452   2.644  0.6547 -1.3924 -3.4241
 3539TIP3   OH232175   2.692   5.555   0.504 -0.2951  0.2660  0.4335
 3539TIP3    H132176   2.786   5.540   0.518 -0.5058 -0.5808  0.9667
 3539TIP3    H232177   2.654   5.553   0.591 -0.7205  1.3349  0.2825
 3540TIP3   OH232178   0.280   4.936   0.937  0.4380  0.1523 -0.7740
 3540TIP3    H132179   0.286   4.844   0.910  1.3483 -0.1871  0.4917
 3540TIP3    H232180   0.187   4.950   0.951  0.4788 -1.4649  1.7858
 3541TIP3   OH232181   4.944   0.616   1.571  0.2106 -0.0064 -0.5509
 3541TIP3    H132182   4.990   0.533   1.587  0.4895  0.6503  2.7700
 3541TIP3    H232183   4.895   0.632   1.651 -0.8978  2.4262 -1.6187
 3542TIP3   OH232184   6.217   3.829   2.221 -0.7201 -0.2152 -0.1896
 3542TIP3    H132185   6.124   3.811   2.232 -1.0608  0.5305 -1.7007
 3542TIP3    H232186   6.260   3.749   2.251 -1.8918 -0.9487 -0.4034
 3543TIP3   OH232187   2.353   4.639   1.030  0.5474  0.4120  0.5043
 3543TIP3    H132188   2.293   4.660   0.958  1.3454 -0.3464 -0.4024
 3543TIP3    H232189   2.325   4.554   1.062  0.3905  0.6060  0.8964
 3544TIP3   OH232190   3.188   0.300   1.651  0.0504  0.0158  0.2387
 3544TIP3    H132191   3.232   0.316   1.567 -0.9553 -0.0371 -0.3223
 3544TIP3    H232192   3.171   0.387   1.687 -0.1495  0.0663  0.0302
 3545TIP3   OH232193   0.273   0.371   2.485 -0.8023  0.0664  0.4918
 3545TIP3    H132194   0.364   0.375   2.455 -0.8275 -0.3359  0.3504
 3545TIP3    H232195   0.265   0.441   2.549 -0.0261 -0.7190  1.4894
 3546TIP3   OH232196   2.254   1.376   0.182  0.0354  0.3209 -0.4614
 3546TIP3    H132197   2.334   1.343   0.143 -1.3485 -2.2560 -1.3591
 3546TIP3    H232198   2.237   1.319   0.257  0.3049  2.4335  1.3107
 3547TIP3   OH232199   2.626   4.707   2.634  0.3672  0.2229 -0.4835
 3547TIP3    H132200   2.720   4.710   2.650  0.2102  1.1814  0.4051
 3547TIP3    H232201   2.587   4.745   2.713 -0.8996 -2.2405  0.1737
 3548TIP3   OH232202   0.899   6.777   0.077  0.3660 -0.3240 -0.0569
 3548TIP3    H132203   0.913   6.830   0.155  0.0070  0.2164 -0.3544
 3548TIP3    H232204   0.981   6.786   0.028  0.5622 -0.5997  0.2165
 3549TIP3   OH232205   6.062   3.153   6.904 -0.4973  0.0738 -0.4584
 3549TIP3    H132206   6.074   3.204   6.824  0.3777 -1.0441 -1.0742
 3549TIP3    H232207   6.066   3.062   6.875  0.1285 -0.3560  0.9021
 3550TIP3   OH232208   1.261   1.746   8.494 -0.0469  0.2319 -0.2531
 3550TIP3    H132209   1.216   1.827   8.518 -1.1132 -0.7477  1.2193
 3550TIP3    H232210   1.202   1.703   8.433 -0.4274 -0.3426  0.5022
 3551TIP3   OH232211   4.697   1.489   7.332 -0.0797 -0.0453  0.2000
 3551TIP3    H132212   4.682   1.574   7.373 -0.3250 -0.4010  0.8787
 3551TIP3    H232213   4.696   1.506   7.238 -1.1354  0.5466  0.3029
 3552TIP3   OH232214   4.578   5.829   2.034  0.6018  0.4294 -0.4252
 3552TIP3    H132215   4.598   5.820   1.941 -0.7356 -2.5683 -0.5379
 3552TIP3    H232216   4.483   5.822   2.039  0.7876 -2.2374  1.3042
 3553TIP3   OH232217   2.130   2.514   2.701  0.2814  0.3975  1.0331
 3553TIP3    H132218   2.146   2.555   2.786  2.1213  0.4586  0.6956
 3553TIP3    H232219   2.192   2.441   2.697  1.3965  1.3550 -0.8696
 3554TIP3   OH232220   5.848   6.142   1.369  0.4028  0.0601 -0.3013
 3554TIP3    H132221   5.756   6.120   1.350  0.5280 -0.6142 -0.1712
 3554TIP3    H232222   5.892   6.130   1.285  0.2939  0.8484 -0.4757
 3555TIP3   OH232223   0.839   4.085   7.833 -0.2756 -0.2962  0.1326
 3555TIP3    H132224   0.926   4.074   7.796 -0.1244 -0.5706  0.5637
 3555TIP3    H232225   0.838   4.028   7.911 -0.6294  0.1709  0.4763
 3556TIP3   OH232226   0.886   0.415   7.524  0.2128 -0.7441 -0.4386
 3556TIP3    H132227   0.900   0.502   7.562 -2.9477  0.7254 -2.2318
 3556TIP3    H232228   0.928   0.419   7.438  0.2243 -1.0754 -0.4516
 3557TIP3   OH232229   2.100   0.580   0.901 -0.0715 -0.5050 -0.4520
 3557TIP3    H132230   2.108   0.614   0.990  1.1651 -0.7772 -0.4442
 3557TIP3    H232231   2.068   0.491   0.912 -0.3173 -0.4005 -0.3070
 3558TIP3   OH232232   3.066   3.290   3.226  0.2231 -0.1453  0.3590
 3558TIP3    H132233   3.033   3.249   3.145  0.7899 -1.3450  0.7132
 3558TIP3    H232234   3.133   3.351   3.196  1.0836 -1.2480 -0.0419
 3559TIP3   OH232235   1.630   4.150   8.607 -0.1075  0.1110 -0.1116
 3559TIP3    H132236   1.663   4.227   8.654 -0.3567  1.0226 -1.3609
 3559TIP3    H232237   1.709   4.103   8.578  0.0448 -0.3656  1.0431
 3560TIP3   OH232238   3.823   3.000   8.498  0.2819  0.4159 -0.1155
 3560TIP3    H132239   3.837   3.082   8.450 -1.7214  1.3548  0.8223
 3560TIP3    H232240   3.787   2.939   8.433  0.2276  0.7934 -0.4368
 3561TIP3   OH232241   0.521   6.440   1.914 -0.1173 -0.4599 -0.3886
 3561TIP3    H132242   0.513   6.505   1.984 -1.1394 -0.6222 -0.3313
 3561TIP3    H232243   0.614   6.440   1.892 -0.1640  1.4443 -0.7871
 3562TIP3   OH232244   6.731   4.312   7.092 -0.1575 -0.4971 -0.0832
 3562TIP3    H132245   6.797   4.243   7.100 -0.9183 -1.1632  0.6457
 3562TIP3    H232246   6.686   4.312   7.176 -1.4113 -0.4073 -0.7291
 3563TIP3   OH232247   0.996   4.331   0.914 -0.4858 -0.3163  0.1090
 3563TIP3    H132248   0.935   4.315   0.842 -2.2632 -0.3441  1.5552
 3563TIP3    H232249   1.017   4.424   0.908  1.9874 -0.8862 -2.3241
 3564TIP3   OH232250   1.010   2.085   2.863 -0.1631 -0.0500  0.3289
 3564TIP3    H132251   0.920   2.075   2.830  0.2432 -3.2894 -0.0954
 3564TIP3    H232252   0.999   2.123   2.950 -2.0559 -1.4621  0.7643
 3565TIP3   OH232253   1.587   0.814   2.109  0.0246  0.3566 -0.4900
 3565TIP3    H132254   1.667   0.762   2.117  0.9366  1.7568 -0.2099
 3565TIP3    H232255   1.517   0.755   2.138  1.0205 -0.6671 -0.0904
 3566TIP3   OH232256   6.007   0.321   7.145 -0.1410  0.1500 -0.4777
 3566TIP3    H132257   6.065   0.393   7.170 -1.1381  0.6088  0.6350
 3566TIP3    H232258   5.975   0.286   7.228 -2.3919  0.7166 -1.0502
 3567TIP3   OH232259   1.963   0.848   7.705 -0.1798  0.2773 -0.3020
 3567TIP3    H132260   1.976   0.754   7.719  0.0728  0.4829  0.9970
 3567TIP3    H232261   2.045   0.878   7.665  0.3732  0.2031  0.7287
 3568TIP3   OH232262   6.304   0.947   7.531 -0.6096 -0.4706  0.4672
 3568TIP3    H132263   6.288   0.862   7.571  0.5835 -1.0537 -0.2322
 3568TIP3    H232264   6.324   0.927   7.439  0.7876  0.4278  0.5352
 3569TIP3   OH232265   0.700   3.543   8.402  0.0396 -0.0772 -0.1928
 3569TIP3    H132266   0.622   3.534   8.347 -0.2617 -4.0337  0.5546
 3569TIP3    H232267   0.668   3.531   8.491  1.2622  0.2690  0.3171
 3570TIP3   OH232268   5.709   4.300   0.734  0.0166 -0.1963  0.2461
 3570TIP3    H132269   5.630   4.313   0.682 -0.1586  0.3594  0.6474
 3570TIP3    H232270   5.722   4.205   0.734 -0.7319 -0.3071  0.2990
 3571TIP3   OH232271   5.078   2.471   1.633 -0.2582 -0.0957  0.1746
 3571TIP3    H132272   5.062   2.545   1.691 -0.2250  0.3932 -0.4385
 3571TIP3    H232273   5.159   2.493   1.587  1.0763 -1.5585  1.6610
 3572TIP3   OH232274   5.810   2.515   7.463  0.4314 -0.3970 -0.7520
 3572TIP3    H132275   5.828   2.489   7.372 -0.1024 -1.9413 -0.4420
 3572TIP3    H232276   5.715   2.509   7.471  0.6744 -3.5907  0.8074
 3573TIP3   OH232277   5.571   0.240   0.608  0.4764 -0.3193  0.6947
 3573TIP3    H132278   5.578   0.169   0.672  2.4713  0.2455  1.1731
 3573TIP3    H232279   5.629   0.213   0.536  0.0637  0.1340  0.1844
 3574TIP3   OH232280   6.020   5.397   2.439  0.9753 -0.1163 -0.1426
 3574TIP3    H132281   5.965   5.324   2.466  0.7462 -0.1425 -0.6805
 3574TIP3    H232282   6.089   5.357   2.386  1.4044 -0.0585  0.3542
 3575TIP3   OH232283   2.664   1.590   8.366  0.4611  0.0853 -0.0418
 3575TIP3    H132284   2.650   1.507   8.411 -1.0336  0.3567  0.0341
 3575TIP3    H232285   2.648   1.571   8.273 -0.6246  0.4320  0.0631
 3576TIP3   OH232286   5.864   3.022   0.219  0.1742  0.0420  0.2687
 3576TIP3    H132287   5.841   2.931   0.234 -1.6890  0.7510  2.2771
 3576TIP3    H232288   5.910   3.049   0.299  0.3230  0.9661 -0.1110
 3577TIP3   OH232289   6.476   3.350   8.259 -0.8393  0.1319 -0.0599
 3577TIP3    H132290   6.394   3.314   8.226  0.2833 -2.4677 -0.2312
 3577TIP3    H232291   6.544   3.294   8.222  0.7574 -0.4533  3.3665
 3578TIP3   OH232292   3.077   0.885   1.124  0.2470  0.4479 -0.1552
 3578TIP3    H132293   3.172   0.875   1.113  0.0879 -1.1355 -0.2777
 3578TIP3    H232294   3.040   0.847   1.044 -0.5602 -1.1071  0.9198
 3579TIP3   OH232295   2.027   6.549   2.261 -0.1234  0.5144  0.0746
 3579TIP3    H132296   2.036   6.457   2.236  0.9290  0.6422 -0.0708
 3579TIP3    H232297   1.934   6.569   2.248 -0.3853 -0.5550  0.2228
 3580TIP3   OH232298   0.398   4.529   0.051  0.0345 -0.0904 -1.1162
 3580TIP3    H132299   0.414   4.594  -0.017 -0.2606  0.2105 -0.9033
 3580TIP3    H232300   0.303   4.513   0.048  0.2563 -1.4418 -2.0042
 3581TIP3   OH232301   1.551   5.830   0.103  0.2699 -0.2870 -0.3796
 3581TIP3    H132302   1.526   5.746   0.141  3.9869 -1.0084  0.9182
 3581TIP3    H232303   1.603   5.807   0.026  1.6117  0.7337  0.1779
 3582TIP3   OH232304   6.566   5.339   0.508 -0.7186  0.5610  0.1184
 3582TIP3    H132305   6.547   5.382   0.425 -2.2611  2.1609  1.2301
 3582TIP3    H232306   6.623   5.400   0.554 -0.2910 -0.0773  0.4547
 3583TIP3   OH232307   5.580   5.538   1.811 -0.0366  0.1750 -0.0885
 3583TIP3    H132308   5.525   5.613   1.836 -0.7309  0.0719 -1.2295
 3583TIP3    H232309   5.564   5.528   1.718  0.5330 -1.0229 -0.0648
 3584TIP3   OH232310   6.582   2.525   2.271 -0.2842 -0.4077  0.1716
 3584TIP3    H132311   6.597   2.616   2.297 -0.7045 -0.4532  0.5993
 3584TIP3    H232312   6.491   2.523   2.242 -0.0836 -0.5563 -0.4638
 3585TIP3   OH232313   0.263   2.871   3.097 -0.7280 -0.6607 -0.1326
 3585TIP3    H132314   0.191   2.822   3.136  0.5853 -2.3606  0.2796
 3585TIP3    H232315   0.339   2.814   3.107  0.6540  0.9823 -0.7264
 3586TIP3   OH232316   0.867   1.460   2.014  0.1032  0.0127  0.2906
 3586TIP3    H132317   0.807   1.526   1.980  0.3530  0.9368  1.5750
 3586TIP3    H232318   0.935   1.452   1.947 -1.6429 -1.4623 -1.4725
 3587TIP3   OH232319   2.182   5.888   7.439 -0.4158 -0.5449 -0.3551
 3587TIP3    H132320   2.190   5.824   7.510 -1.6742 -2.3224 -1.7333
 3587TIP3    H232321   2.226   5.848   7.365 -0.7457  0.4622 -1.1184
 3588TIP3   OH232322   5.197   2.163   8.451 -0.2603  0.1556 -0.0053
 3588TIP3    H132323   5.265   2.179   8.516 -0.5778  0.4496  0.2599
 3588TIP3    H232324   5.128   2.226   8.473 -1.1004 -0.8949  0.4145
 3589TIP3   OH232325   2.192   3.688   2.565  0.1055 -0.5955 -0.2187
 3589TIP3    H132326   2.268   3.704   2.622  0.3442 -2.2229 -0.0321
 3589TIP3    H232327   2.230   3.657   2.483 -0.3387 -0.8260 -0.3402
 3590TIP3   OH232328   6.506   1.578   6.817 -0.0347 -0.4493 -0.4181
 3590TIP3    H132329   6.509   1.662   6.772  1.9979 -0.1263  0.1754
 3590TIP3    H232330   6.544   1.596   6.904 -1.9279 -1.4673  0.6812
 3591TIP3   OH232331   5.265   2.785   8.035  0.4395  0.2006  0.0989
 3591TIP3    H132332   5.302   2.754   8.118  1.4662  0.0545 -0.3863
 3591TIP3    H232333   5.180   2.741   8.028  1.5884 -2.1518 -0.3051
 3592TIP3   OH232334   1.956   1.445   2.132  0.0584  0.1468 -0.4695
 3592TIP3    H132335   1.886   1.438   2.197  0.6844  1.4887  0.4069
 3592TIP3    H232336   1.972   1.539   2.125  2.4482 -0.1436  0.1263
 3593TIP3   OH232337   0.225   5.564   0.104 -0.2941 -0.2272  0.1376
 3593TIP3    H132338   0.278   5.610   0.169 -0.3914 -1.1375  0.8782
 3593TIP3    H232339   0.138   5.556   0.145  0.0143 -2.0686  0.5484
 3594TIP3   OH232340   3.702   3.054   1.150 -0.4540 -0.3713  0.3595
 3594TIP3    H132341   3.697   3.040   1.245 -1.9391  0.1268  0.3861
 3594TIP3    H232342   3.734   3.144   1.141 -1.0718 -0.1435  0.4112
 3595TIP3   OH232343   2.997   6.179   2.953  0.2460 -0.1125 -0.5924
 3595TIP3    H132344   2.929   6.246   2.944  0.1857  0.2265  1.5975
 3595TIP3    H232345   3.063   6.202   2.889 -0.3608  1.3212 -0.7374
 3596TIP3   OH232346   5.120   4.406   2.649  0.1083 -0.1776  0.0324
 3596TIP3    H132347   5.203   4.386   2.692  0.4205 -0.0592 -0.5147
 3596TIP3    H232348   5.057   4.347   2.691  0.5480 -0.5799  0.1378
 3597TIP3   OH232349   4.055   2.347   8.639 -0.6016  0.0634  0.5794
 3597TIP3    H132350   4.019   2.259   8.635 -0.1904 -0.2048  1.9495
 3597TIP3    H232351   3.979   2.405   8.634 -0.7653 -0.2933 -1.7318
 3598TIP3   OH232352   5.223   2.948   7.786  0.1148  0.2892  0.3780
 3598TIP3    H132353   5.249   2.933   7.877 -0.5833 -0.5544  0.4584
 3598TIP3    H232354   5.129   2.928   7.785 -0.1544  1.4632 -0.2770
 3599TIP3   OH232355   2.342   6.638   8.321 -0.6404 -0.5327  0.1620
 3599TIP3    H132356   2.396   6.592   8.386 -1.7479 -1.9249  0.1552
 3599TIP3    H232357   2.254   6.639   8.359 -0.8364  0.7653 -0.2855
 3600TIP3   OH232358   0.941   5.804   1.418  0.4711 -0.4448 -0.3501
 3600TIP3    H132359   0.952   5.895   1.443  0.1580 -0.2883 -0.7661
 3600TIP3    H232360   0.988   5.797   1.334  0.5710 -0.6857 -0.2748
 3601TIP3   OH232361   0.381   2.427   8.256 -0.3474 -0.4108 -0.2797
 3601TIP3    H132362   0.446   2.366   8.291 -1.6956 -1.3828  0.6249
 3601TIP3    H232363   0.397   2.509   8.302 -0.9439 -1.1677  1.3374
 3602TIP3   OH232364   5.215   5.385   1.722  0.3240 -0.4448 -0.6315
 3602TIP3    H132365   5.253   5.386   1.634 -0.3061  0.1198 -0.9104
 3602TIP3    H232366   5.168   5.301   1.726  1.0942 -0.8803 -0.4957
 3603TIP3   OH232367   3.589   5.397   1.833 -0.6967 -0.2935 -0.5047
 3603TIP3    H132368   3.618   5.371   1.745  1.1812 -0.2424  0.0549
 3603TIP3    H232369   3.514   5.340   1.851 -0.2237 -1.2981 -1.5763
 3604TIP3   OH232370   3.671   2.602   7.118 -0.0763 -0.2384 -0.6409
 3604TIP3    H132371   3.671   2.605   7.022 -2.7593 -0.4350 -0.7385
 3604TIP3    H232372   3.585   2.565   7.140 -1.3511  3.6860  1.8972
 3605TIP3   OH232373   4.660   2.292   0.511 -0.1507  0.1078  0.5295
 3605TIP3    H132374   4.734   2.233   0.494 -1.8062 -1.7026 -0.8770
 3605TIP3    H232375   4.622   2.307   0.425 -2.0737  0.0862  1.3405
 3606TIP3   OH232376   3.544   0.349   8.086  0.0203  0.0444  0.4675
 3606TIP3    H132377   3.458   0.316   8.059 -0.8191  0.8194  2.1008
 3606TIP3    H232378   3.545   0.440   8.057 -1.3063  1.2114  3.7086
 3607TIP3   OH232379   4.796   3.053   8.447 -0.1771  0.1054 -0.3107
 3607TIP3    H132380   4.720   2.995   8.444 -0.0539 -0.0351 -1.0303
 3607TIP3    H232381   4.860   3.004   8.499 -0.1769 -0.2931 -0.6715
 3608TIP3   OH232382   1.955   0.420   6.946 -0.6371  0.1756 -0.3168
 3608TIP3    H132383   1.948   0.413   7.042  0.1475 -0.2822 -0.2846
 3608TIP3    H232384   1.908   0.343   6.913 -2.0996  1.0390 -0.3703
 3609TIP3   OH232385   4.785   3.133   0.292  0.8150  0.4212  0.2800
 3609TIP3    H132386   4.694   3.162   0.288  0.6122  0.0750  1.8077
 3609TIP3    H232387   4.781   3.038   0.287  0.9428  0.3056  1.8154
 3610TIP3   OH232388   3.178   3.352   1.087  0.0083  0.1545  0.4168
 3610TIP3    H132389   3.177   3.403   1.006 -1.0236 -1.0631 -0.3695
 3610TIP3    H232390   3.122   3.401   1.147 -2.0501 -0.6612 -0.7594
 3611TIP3   OH232391   3.232   0.890   1.870  0.3141 -0.1161  0.1797
 3611TIP3    H132392   3.272   0.804   1.861 -0.8927 -0.8253  1.2504
 3611TIP3    H232393   3.306   0.949   1.888  1.4439 -0.4528 -2.7420
 3612TIP3   OH232394   0.098   4.070   0.063 -0.4816 -0.0279  0.1178
 3612TIP3    H132395   0.146   3.992   0.091 -0.5110 -0.6811 -1.5398
 3612TIP3    H232396   0.075   4.052  -0.029 -0.9417  1.7138 -0.1351
 3613TIP3   OH232397   2.277   4.853   8.386 -0.8308  0.3004 -0.2434
 3613TIP3    H132398   2.195   4.816   8.419  0.4195 -0.3216  2.4693
 3613TIP3    H232399   2.315   4.898   8.462  1.5535  0.1834 -1.2758
 3614TIP3   OH232400   3.287   2.126   1.278  0.5018 -0.9146  0.2244
 3614TIP3    H132401   3.310   2.054   1.219  2.7583  0.0067 -0.1460
 3614TIP3    H232402   3.316   2.097   1.364  0.2838 -0.9396  0.2889
 3615TIP3   OH232403   4.951   0.552   1.128 -0.3141 -0.7375  0.0181
 3615TIP3    H132404   4.992   0.526   1.045 -3.0942 -0.6624 -1.4881
 3615TIP3    H232405   5.024   0.586   1.180  1.5349 -0.6553 -2.4101
 3616TIP3   OH232406   6.521   0.605   1.745  0.3245  0.1158 -0.2029
 3616TIP3    H132407   6.493   0.694   1.725  2.2394  0.5920 -0.9808
 3616TIP3    H232408   6.510   0.557   1.663  1.0420  0.1434 -0.3295
 3617TIP3   OH232409   0.078   0.404   0.775  0.5955  0.0296 -0.1311
 3617TIP3    H132410   0.019   0.478   0.756  0.1364 -0.4976 -0.8035
 3617TIP3    H232411   0.166   0.439   0.761  0.4080  0.5752  0.0084
 3618TIP3   OH232412   3.143   2.454   8.537 -0.1280 -0.0292  0.1437
 3618TIP3    H132413   3.161   2.472   8.630  0.6283  2.0709 -0.3601
 3618TIP3    H232414   3.162   2.361   8.527  1.2925  0.0350  1.7803
 3619TIP3   OH232415   1.349   3.432   0.881 -0.2697  0.1494  0.4157
 3619TIP3    H132416   1.440   3.446   0.859  0.5416 -2.1219  1.9076
 3619TIP3    H232417   1.334   3.487   0.958 -0.0118  0.1903  0.4369
 3620TIP3   OH232418   4.157   5.598   7.619 -0.1522  0.2083  0.2433
 3620TIP3    H132419   4.205   5.581   7.538 -1.5081  0.7670 -0.7228
 3620TIP3    H232420   4.223   5.592   7.688  1.3104  0.9839 -1.0152
 3621TIP3   OH232421   3.118   5.298   7.755  0.0457 -0.2382 -0.4439
 3621TIP3    H132422   3.173   5.299   7.833  0.0112  3.2740 -0.2760
 3621TIP3    H232423   3.171   5.255   7.688  0.7465 -1.7937  1.0280
 3622TIP3   OH232424   0.688   4.122   2.899 -0.1151 -0.6606  0.4311
 3622TIP3    H132425   0.758   4.075   2.944  1.5787  0.5146 -0.8509
 3622TIP3    H232426   0.656   4.059   2.834 -0.4755 -1.3007  1.2104
 3623TIP3   OH232427   0.504   0.811   0.329 -0.3352 -0.3061  0.0506
 3623TIP3    H132428   0.567   0.879   0.305  0.5322 -1.2093 -0.3254
 3623TIP3    H232429   0.551   0.729   0.314 -1.5666 -1.0059 -0.1226
 3624TIP3   OH232430   1.433   6.137   2.727  0.1252 -0.1863  0.8138
 3624TIP3    H132431   1.475   6.066   2.679  1.5595  2.4124 -2.1185
 3624TIP3    H232432   1.349   6.150   2.683 -0.7125 -0.8320  2.1648
 3625TIP3   OH232433   1.158   5.991   1.634 -0.1363  0.1532  0.2089
 3625TIP3    H132434   1.166   5.922   1.569 -1.4496  1.2188 -1.1732
 3625TIP3    H232435   1.103   5.953   1.703  0.2912 -0.6107  0.1371
 3626TIP3   OH232436   2.001   0.174   0.283  0.0668 -0.1283 -0.2390
 3626TIP3    H132437   1.989   0.149   0.192 -2.7747 -1.2271  0.3262
 3626TIP3    H232438   1.975   0.096   0.333  1.2194  0.5408  1.5276
 3627TIP3   OH232439   4.351   5.029   1.751  0.1141 -0.4351  0.8016
 3627TIP3    H132440   4.266   4.992   1.729 -0.9832  1.3651  1.8128
 3627TIP3    H232441   4.381   5.070   1.670 -0.9079  0.6051  0.9331
 3628TIP3   OH232442   5.012   3.647   7.548 -0.0328 -0.1120  0.2264
 3628TIP3    H132443   5.013   3.610   7.459  1.1694  0.0330  0.1614
 3628TIP3    H232444   5.016   3.742   7.535 -0.8342 -0.0445  0.4288
 3629TIP3   OH232445   2.283   2.617   0.329 -0.4561 -0.5868 -0.0749
 3629TIP3    H132446   2.333   2.552   0.380  1.6329  0.4918 -0.6500
 3629TIP3    H232447   2.350   2.673   0.289 -2.1657  1.9998  0.4548
 3630TIP3   OH232448   1.044   1.260   8.219 -0.2520  0.5160 -0.1106
 3630TIP3    H132449   0.973   1.257   8.283 -0.1240  2.0729  0.1292
 3630TIP3    H232450   1.119   1.220   8.265 -0.6741 -0.1526  0.0072
 3631TIP3   OH232451   1.986   4.194   1.049 -0.3318  0.0484  0.5717
 3631TIP3    H132452   1.965   4.282   1.017 -1.9565 -0.1532  1.0000
 3631TIP3    H232453   2.015   4.147   0.971 -0.6205  0.6287  0.1051
 3632TIP3   OH232454   4.573   5.449   1.273  0.7658  0.2018  0.2641
 3632TIP3    H132455   4.591   5.475   1.183 -0.5642 -0.7570 -0.3214
 3632TIP3    H232456   4.536   5.527   1.314 -0.6744  0.0721 -0.6902
 3633TIP3   OH232457   3.425   0.336   7.519  0.3125 -0.6111 -0.1510
 3633TIP3    H132458   3.509   0.293   7.503  1.0619  0.4271  0.8145
 3633TIP3    H232459   3.364   0.265   7.539  1.3366 -1.2811  0.6749
 3634TIP3   OH232460   1.219   0.532   7.090 -0.1706  0.3312  0.1177
 3634TIP3    H132461   1.243   0.608   7.037 -2.9261  0.5512 -0.9674
 3634TIP3    H232462   1.227   0.458   7.030 -0.1469  0.1231  0.3755
 3635TIP3   OH232463   6.039   1.214   1.362  0.4017 -0.2018 -0.7885
 3635TIP3    H132464   6.055   1.276   1.292 -0.1649  1.0005  0.1087
 3635TIP3    H232465   6.101   1.239   1.431 -1.5431  1.0774  0.5940
 3636TIP3   OH232466   1.102   4.197   7.913 -0.1313  0.2217  0.0332
 3636TIP3    H132467   1.105   4.293   7.911  0.6552  0.2151 -1.8101
 3636TIP3    H232468   1.067   4.176   7.999 -1.1058  2.1797  0.1843
 3637TIP3   OH232469   0.068   4.867   2.377 -0.0621 -0.5322 -0.1346
 3637TIP3    H132470   0.043   4.778   2.353 -1.4167  0.0607 -0.9919
 3637TIP3    H232471   0.159   4.859   2.407 -0.0682 -2.1408 -0.4759
 3638TIP3   OH232472   6.692   4.867   1.811  0.4882  0.0479  0.1595
 3638TIP3    H132473   6.671   4.807   1.739  1.7112 -0.4367  0.1918
 3638TIP3    H232474   6.765   4.919   1.778  0.0356  0.9083  0.4803
 3639TIP3   OH232475   0.213   3.763   8.001 -0.3404 -0.2032 -1.0616
 3639TIP3    H132476   0.244   3.853   7.992 -0.6768  0.1428  0.7968
 3639TIP3    H232477   0.221   3.744   8.094 -2.9260 -1.1027 -0.9408
 3640TIP3   OH232478   2.452   2.253   2.161  0.3413  0.2526 -0.1398
 3640TIP3    H132479   2.438   2.299   2.243  2.2680  0.3741  0.1816
 3640TIP3    H232480   2.468   2.162   2.187  0.0376  0.1065 -0.4595
 3641TIP3   OH232481   5.161   6.558   1.327  0.1798 -0.2952  0.0686
 3641TIP3    H132482   5.184   6.487   1.386  1.8998  1.7890  2.1133
 3641TIP3    H232483   5.162   6.518   1.240 -0.7850 -3.1150  1.2470
 3642TIP3   OH232484   1.864   1.831   1.325  0.4616 -0.3453  0.1640
 3642TIP3    H132485   1.815   1.872   1.395  0.1800  0.1464 -0.3177
 3642TIP3    H232486   1.955   1.857   1.341  0.4148 -0.3346  0.4122
 3643TIP3   OH232487   6.148   2.497   6.989  0.1092  0.1657  0.3262
 3643TIP3    H132488   6.209   2.447   7.042 -0.1226  1.1480  1.5622
 3643TIP3    H232489   6.184   2.586   6.989  0.7507 -0.0207 -2.1717
 3644TIP3   OH232490   4.315   5.405   0.284  0.4978  0.1488 -0.7548
 3644TIP3    H132491   4.239   5.403   0.342 -0.0861 -0.4202 -1.5192
 3644TIP3    H232492   4.284   5.453   0.206  0.7467 -0.5502 -1.2931
 3645TIP3   OH232493   3.074   0.358   0.645  0.1577  0.0531 -0.3352
 3645TIP3    H132494   3.066   0.452   0.634 -2.2324  0.4482  3.2915
 3645TIP3    H232495   2.985   0.327   0.659  0.9778 -2.5902 -0.3651
 3646TIP3   OH232496   3.464   6.837   8.331 -0.0840  0.4514 -0.1245
 3646TIP3    H132497   3.458   6.917   8.384 -0.6308 -0.4304  1.1893
 3646TIP3    H232498   3.376   6.826   8.294 -0.1457  0.2048  0.0920
 3647TIP3   OH232499   1.378   0.512   0.617 -0.0535  0.1503 -0.2612
 3647TIP3    H132500   1.387   0.419   0.637 -1.6926  0.3580  1.6438
 3647TIP3    H232501   1.308   0.516   0.552  0.9648  0.0035 -1.4261
 3648TIP3   OH232502   3.073   5.259   0.231  0.7398  0.2760 -0.1471
 3648TIP3    H132503   3.058   5.165   0.223  1.3760  0.1749 -0.2167
 3648TIP3    H232504   2.989   5.299   0.208  0.8191 -0.2245 -1.4220
 3649TIP3   OH232505   5.874   0.437   8.232  0.4731 -0.3216 -0.2597
 3649TIP3    H132506   5.916   0.453   8.148  0.9915 -1.5643 -0.2619
 3649TIP3    H232507   5.930   0.483   8.295  0.7209 -0.3163 -0.4783
 3650TIP3   OH232508   1.662   5.844   0.850 -0.5846 -0.1551  0.5057
 3650TIP3    H132509   1.657   5.931   0.810 -2.2041 -0.5254 -0.1857
 3650TIP3    H232510   1.743   5.807   0.816 -1.1587  0.1259 -1.2661
 3651TIP3   OH232511   3.257   1.164   7.825 -0.2778 -0.2749  0.2606
 3651TIP3    H132512   3.249   1.252   7.789  1.7895 -0.2958 -0.3552
 3651TIP3    H232513   3.311   1.116   7.763 -1.0759 -1.9136  0.7524
 3652TIP3   OH232514   0.401   2.129   0.902  0.9756 -0.4709 -0.4475
 3652TIP3    H132515   0.390   2.220   0.872 -2.0034 -1.1751 -1.8577
 3652TIP3    H232516   0.314   2.103   0.932  1.9559 -2.6283  0.7511
 3653TIP3   OH232517   5.391   3.750   0.933 -0.7368  0.3881 -0.2056
 3653TIP3    H132518   5.354   3.838   0.939 -1.2253  0.1027  1.7147
 3653TIP3    H232519   5.330   3.695   0.983  0.5825 -0.6747  0.2925
 3654TIP3   OH232520   2.275   6.315   0.766 -0.2069  0.0455  0.5972
 3654TIP3    H132521   2.331   6.347   0.696  0.0896 -0.0147  0.8033
 3654TIP3    H232522   2.225   6.392   0.794 -0.6770 -0.0350  0.0029
 3655TIP3   OH232523   1.299   2.403   1.196  0.5898  0.0323 -0.0727
 3655TIP3    H132524   1.218   2.403   1.247  0.4136  0.5127 -0.3490
 3655TIP3    H232525   1.363   2.444   1.255  0.8502 -1.0987  0.4665
 3656TIP3   OH232526   5.293   5.211   7.501 -0.4857  0.3844 -0.3953
 3656TIP3    H132527   5.215   5.194   7.447  0.0667 -1.2455 -0.7119
 3656TIP3    H232528   5.261   5.208   7.591 -0.6769 -1.0044 -0.4969
 3657TIP3   OH232529   3.553   1.477   7.793  0.1320  0.3195  0.4752
 3657TIP3    H132530   3.474   1.462   7.844  0.0136  1.5920  0.7104
 3657TIP3    H232531   3.546   1.417   7.719 -0.1306 -0.9093  1.4569
 3658TIP3   OH232532   4.510   0.713   1.507  0.0496 -0.7218  0.5014
 3658TIP3    H132533   4.596   0.674   1.490 -0.3324 -0.5976 -2.2046
 3658TIP3    H232534   4.450   0.638   1.510 -0.1258 -0.6531 -0.6806
 3659TIP3   OH232535   6.069   4.150   1.940 -0.2444 -0.5152 -0.0480
 3659TIP3    H132536   6.069   4.222   2.004 -2.6135 -1.0138  0.6198
 3659TIP3    H232537   6.160   4.124   1.934  0.2263  0.2874  2.3124
 3660TIP3   OH232538   2.778   5.829   8.675 -0.5961 -0.2864 -0.0101
 3660TIP3    H132539   2.858   5.778   8.683  0.1206  0.4495 -1.9298
 3660TIP3    H232540   2.778   5.886   8.753  0.2435 -0.9501  0.4942
 3661TIP3   OH232541   4.331   2.707   8.692  0.2935 -0.0813 -0.3809
 3661TIP3    H132542   4.288   2.673   8.771  0.4424  0.1892 -0.1824
 3661TIP3    H232543   4.274   2.680   8.620 -2.6144  3.8276  0.1351
 3662TIP3   OH232544   0.541   0.906   8.176 -0.0438 -0.0811 -0.2778
 3662TIP3    H132545   0.630   0.878   8.153 -0.6550 -1.2537 -1.3611
 3662TIP3    H232546   0.492   0.899   8.094 -1.3863 -0.5293  0.5367
 3663TIP3   OH232547   0.723   6.719   0.443 -0.5572 -0.1301  0.5828
 3663TIP3    H132548   0.710   6.795   0.500  0.8013 -1.0291  2.2163
 3663TIP3    H232549   0.801   6.741   0.391  1.0769 -1.0966  2.4802
 3664TIP3   OH232550   2.054   0.895   1.510 -0.5867  0.1256 -0.1265
 3664TIP3    H132551   2.089   0.935   1.430  0.8525  0.8279  0.8100
 3664TIP3    H232552   2.100   0.940   1.581 -3.8610  1.5771  1.2910
 3665TIP3   OH232553   2.139   1.645   1.841 -0.2964  0.5653  0.5118
 3665TIP3    H132554   2.211   1.634   1.779  0.4973  0.8944  1.3494
 3665TIP3    H232555   2.060   1.638   1.788  0.3354 -0.5134 -0.3108
 3666TIP3   OH232556   0.897   1.601   7.379 -0.2695 -0.1143  0.8011
 3666TIP3    H132557   0.940   1.570   7.299 -0.6865 -0.4614  0.7062
 3666TIP3    H232558   0.882   1.521   7.430 -1.5900 -0.1181  0.4449
 3667TIP3   OH232559   5.389   3.758   7.608  0.0752 -0.2246  0.0947
 3667TIP3    H132560   5.447   3.832   7.629 -0.1443 -0.5719  2.1290
 3667TIP3    H232561   5.440   3.704   7.548  1.0534  0.5172  0.2345
 3668TIP3   OH232562   2.253   2.508   7.933 -0.2588  0.3192  0.0165
 3668TIP3    H132563   2.312   2.449   7.887 -0.4341  0.1649 -0.0134
 3668TIP3    H232564   2.166   2.471   7.917 -0.2453 -0.4046  1.3957
 3669TIP3   OH232565   4.324   5.489   0.643  0.5296  0.6922  0.1117
 3669TIP3    H132566   4.283   5.544   0.709  0.5231 -0.6206  1.2440
 3669TIP3    H232567   4.418   5.498   0.658  0.6416  2.2060 -1.2477
 3670TIP3   OH232568   2.240   0.930   2.198 -0.0322  0.0204  0.5702
 3670TIP3    H132569   2.293   0.869   2.148  0.5884  0.1227  1.0953
 3670TIP3    H232570   2.274   0.924   2.287 -0.6375  0.3808  0.8307
 3671TIP3   OH232571   1.396   5.830   7.368  0.5208  0.0912 -0.1820
 3671TIP3    H132572   1.416   5.899   7.304  1.1692  0.4361  0.3755
 3671TIP3    H232573   1.331   5.775   7.325  1.4060 -0.0546 -1.3988
 3672TIP3   OH232574   2.801   6.778   1.099 -0.1230  0.2274  0.3059
 3672TIP3    H132575   2.799   6.719   1.174  2.6323  0.9276  1.0336
 3672TIP3    H232576   2.754   6.856   1.128 -1.1305 -0.4029  0.4155
 3673TIP3   OH232577   2.280   1.925   7.422 -0.2070 -0.4625 -0.2719
 3673TIP3    H132578   2.310   2.013   7.401  0.0618 -0.2268  1.0238
 3673TIP3    H232579   2.187   1.925   7.399 -0.1988  0.1327 -0.3241
 3674TIP3   OH232580   5.001   0.258   8.538 -0.1225 -0.0382  0.7179
 3674TIP3    H132581   4.944   0.195   8.495  0.4499 -0.0467 -0.0293
 3674TIP3    H232582   4.962   0.269   8.625  0.7796 -2.7830  1.5607
 3675TIP3   OH232583   0.155   0.831   7.953  0.2560  0.7906  0.3594
 3675TIP3    H132584   0.177   0.815   8.044  1.7524  0.8299  0.0298
 3675TIP3    H232585   0.118   0.748   7.922 -1.3497  1.1219  1.2712
 3676TIP3   OH232586   2.500   1.061   1.546  0.4288  0.3943  0.4391
 3676TIP3    H132587   2.443   0.987   1.567 -2.3760  1.9219 -1.1286
 3676TIP3    H232588   2.554   1.073   1.624 -0.6500 -1.8641  1.6221
 3677TIP3   OH232589   3.920   5.180   1.100  0.5529  0.3959 -0.4630
 3677TIP3    H132590   3.998   5.191   1.154 -0.3463  0.9287  0.7526
 3677TIP3    H232591   3.850   5.161   1.162 -0.0513 -1.5383 -1.6340
 3678TIP3   OH232592   3.608   3.635   0.748  0.0081 -0.0900  0.0505
 3678TIP3    H132593   3.676   3.697   0.722 -0.7920  0.3387 -1.1464
 3678TIP3    H232594   3.552   3.683   0.808  0.5964 -0.3579  0.8252
 3679TIP3   OH232595   0.459   1.991   1.337  0.2147  0.8652 -0.3059
 3679TIP3    H132596   0.546   1.950   1.340  0.4869  1.4804  1.8532
 3679TIP3    H232597   0.475   2.083   1.355 -0.6636  1.4998 -2.5190
 3680TIP3   OH232598   0.945   2.934   0.439 -0.3128 -0.1951 -0.3543
 3680TIP3    H132599   0.876   2.894   0.387  1.4197 -1.3683 -1.8714
 3680TIP3    H232600   0.999   2.981   0.376  2.7091 -2.8763 -0.0646
 3681TIP3   OH232601   4.316   0.101   0.817  0.3531  0.2512  0.2257
 3681TIP3    H132602   4.234   0.150   0.827  1.1824  1.7473  0.0933
 3681TIP3    H232603   4.295   0.031   0.755 -1.2357 -0.4550  1.4946
 3682TIP3   OH232604   6.233   1.636   0.434  0.4717 -0.2480 -0.3139
 3682TIP3    H132605   6.312   1.678   0.468  0.2206  0.8955 -1.1095
 3682TIP3    H232606   6.266   1.568   0.375  0.8696 -0.5617  0.2607
 3683TIP3   OH232607   6.497   6.830   2.156 -0.1420  0.3119  0.5430
 3683TIP3    H132608   6.571   6.831   2.096 -0.5418  1.7176  0.0307
 3683TIP3    H232609   6.529   6.874   2.235 -0.0522 -0.2627  0.8376
 3684TIP3   OH232610   2.808   4.530   3.154  0.2612 -0.2487 -0.2872
 3684TIP3    H132611   2.786   4.600   3.216  1.0306  1.0767 -1.4465
 3684TIP3    H232612   2.880   4.566   3.102  1.2532 -2.2463 -0.3816
 3685TIP3   OH232613   2.831   0.429   7.308  0.3715 -0.1101 -0.0409
 3685TIP3    H132614   2.768   0.385   7.251  0.1260 -1.3250  1.1159
 3685TIP3    H232615   2.781   0.499   7.350 -0.9307 -2.3745  2.5074
 3686TIP3   OH232616   5.073   0.938   8.386 -0.1455  0.4583  0.1774
 3686TIP3    H132617   5.003   0.994   8.419 -0.7363 -0.2320  0.1355
 3686TIP3    H232618   5.075   0.864   8.446  0.6020  0.5049  0.2154
 3687TIP3   OH232619   1.589   0.723   8.533  0.1285  0.2531  0.4207
 3687TIP3    H132620   1.684   0.732   8.539  0.1926  0.9125 -1.0879
 3687TIP3    H232621   1.575   0.671   8.454 -0.7778  0.6021  0.3422
 3688TIP3   OH232622   0.381   2.793   1.223 -0.0458 -0.6248  0.0356
 3688TIP3    H132623   0.380   2.886   1.199  0.4569 -0.4614  0.6172
 3688TIP3    H232624   0.430   2.790   1.305 -0.8316 -1.2941  0.5026
 3689TIP3   OH232625   3.163   4.854   1.098 -0.2098  0.6781 -0.4409
 3689TIP3    H132626   3.145   4.807   1.180  1.2152  1.2531  0.2287
 3689TIP3    H232627   3.089   4.914   1.089  0.0678  1.2649  0.9364
 3690TIP3   OH232628   0.281   1.593   8.577 -0.7267  0.0090  0.7300
 3690TIP3    H132629   0.249   1.510   8.612 -1.1499 -0.5406 -0.8748
 3690TIP3    H232630   0.336   1.629   8.646 -2.4505 -0.4501  2.4043
 3691TIP3   OH232631   0.823   4.553   0.598  0.3780 -0.2231  0.8198
 3691TIP3    H132632   0.854   4.530   0.511  2.0534 -1.3490  1.6690
 3691TIP3    H232633   0.777   4.636   0.586  1.0151 -0.0999 -1.0356
 3692TIP3   OH232634   4.588   3.248   8.593  0.7283 -0.1664  0.1580
 3692TIP3    H132635   4.545   3.316   8.541  0.6873 -0.5728 -0.3525
 3692TIP3    H232636   4.594   3.173   8.534  0.6764 -0.6434  0.7455
 3693TIP3   OH232637   0.996   6.417   1.074 -0.0764  0.6790 -0.1671
 3693TIP3    H132638   1.078   6.465   1.077 -0.0609  0.6127  0.6128
 3693TIP3    H232639   0.929   6.481   1.097 -0.1200  0.4663  0.3024
 3694TIP3   OH232640   0.719   5.033   7.387  0.2679  0.0353  0.6489
 3694TIP3    H132641   0.689   5.113   7.431  0.0291  0.9241 -1.0437
 3694TIP3    H232642   0.659   5.021   7.314  1.9183 -0.1179 -0.7633
 3695TIP3   OH232643   4.640   1.159   8.383  0.0850 -0.1692  0.5383
 3695TIP3    H132644   4.732   1.158   8.354 -0.0672  0.9289 -0.0552
 3695TIP3    H232645   4.603   1.078   8.349  0.6644 -0.2937  0.1912
 3696TIP3   OH232646   4.348   4.698   2.622 -0.0537 -0.6526  0.0430
 3696TIP3    H132647   4.434   4.741   2.612 -1.0431  1.3867 -0.2647
 3696TIP3    H232648   4.365   4.624   2.680  1.0353  2.9445  4.9895
 3697TIP3   OH232649   2.924   0.139   7.909 -0.7624  0.2240 -0.0134
 3697TIP3    H132650   2.959   0.228   7.898 -1.2087  0.3383 -0.5191
 3697TIP3    H232651   2.830   0.152   7.924 -0.7515 -0.1396  0.3703
 3698TIP3   OH232652   5.820   0.344   0.485  0.6256  0.3745  0.4657
 3698TIP3    H132653   5.751   0.379   0.428 -1.4268 -0.9112  2.0147
 3698TIP3    H232654   5.812   0.396   0.566  1.1199 -0.1433  0.8490
 3699TIP3   OH232655   1.973   5.577   1.411 -0.3679  0.5504  0.1172
 3699TIP3    H132656   1.945   5.663   1.442  2.2399  0.4637  3.3080
 3699TIP3    H232657   1.905   5.517   1.439  0.5486  0.9008  3.4326
 3700TIP3   OH232658   1.851   1.541   7.730 -0.1507 -0.5372 -0.2281
 3700TIP3    H132659   1.841   1.553   7.636 -2.0160  1.1944  0.1146
 3700TIP3    H232660   1.812   1.456   7.748 -1.4631 -0.0862 -0.8280
 3701TIP3   OH232661   3.222   6.306   0.975  0.2055 -0.4097 -0.7488
 3701TIP3    H132662   3.133   6.332   0.998  0.5229 -0.4416  0.6267
 3701TIP3    H232663   3.219   6.288   0.881 -1.4369 -1.2266 -0.5630
 3702TIP3   OH232664   1.409   3.624   3.342  0.3837 -0.5003  0.0344
 3702TIP3    H132665   1.351   3.680   3.290  0.4867 -0.2675  0.1659
 3702TIP3    H232666   1.352   3.587   3.410  0.5792  0.5269  0.7884
 3703TIP3   OH232667   6.709   0.659   8.631 -0.5172 -0.0531  0.1190
 3703TIP3    H132668   6.628   0.692   8.590 -0.8373 -0.4368  0.4320
 3703TIP3    H232669   6.737   0.730   8.689 -0.1959  0.3951 -0.5696
 3704TIP3   OH232670   6.205   6.595   0.469  0.1945 -1.0438 -0.2219
 3704TIP3    H132671   6.110   6.601   0.480  0.1691 -0.7934 -0.5559
 3704TIP3    H232672   6.219   6.610   0.375  0.6957  0.6533  0.0942
 3705TIP3   OH232673   4.694   0.950   7.370  0.5628 -0.2413  0.1129
 3705TIP3    H132674   4.740   0.956   7.286  1.1186 -3.2987  0.0724
 3705TIP3    H232675   4.640   0.872   7.361 -2.6866  1.7287  1.1645
 3706TIP3   OH232676   6.213   4.477   7.489  0.1869 -0.2615  0.3753
 3706TIP3    H132677   6.203   4.549   7.427 -0.8892  1.4362  2.4060
 3706TIP3    H232678   6.304   4.449   7.480 -0.0590 -0.4795 -2.3002
 3707TIP3   OH232679   3.226   2.043   0.719 -0.5313 -0.3479  0.1694
 3707TIP3    H132680   3.238   2.081   0.632  0.1468 -0.7544  0.0837
 3707TIP3    H232681   3.193   2.116   0.772 -1.9930 -0.3605 -0.6679
 3708TIP3   OH232682   2.795   3.018   1.734  0.2380  0.2733  0.0020
 3708TIP3    H132683   2.850   2.981   1.803  0.9372  0.8715 -0.2247
 3708TIP3    H232684   2.832   2.984   1.653 -0.8960 -0.8438 -0.0779
 3709TIP3   OH232685   5.602   2.261   2.684  0.4336  0.2945  0.0215
 3709TIP3    H132686   5.622   2.167   2.674 -1.9227 -0.4607  1.5318
 3709TIP3    H232687   5.662   2.291   2.752  0.0106 -0.5858  0.8035
 3710TIP3   OH232688   1.417   6.660   8.073 -0.2747  0.0634  0.7536
 3710TIP3    H132689   1.395   6.643   8.164  0.0861  2.3047  1.3226
 3710TIP3    H232690   1.512   6.675   8.073 -0.0219 -1.2929 -0.2589
 3711TIP3   OH232691   0.780   2.912   2.682  0.4403  0.1336 -0.6072
 3711TIP3    H132692   0.723   2.982   2.652 -0.0401 -0.0726 -0.1873
 3711TIP3    H232693   0.835   2.891   2.606 -1.6820 -1.3591 -1.8506
 3712TIP3   OH232694   2.021   0.990   8.384 -0.6317  0.5496 -0.0006
 3712TIP3    H132695   2.103   0.944   8.401 -0.5797  1.1916  1.6885
 3712TIP3    H232696   2.044   1.058   8.321 -0.0324  0.2524 -0.1080
 3713TIP3   OH232697   6.332   0.016   8.453  0.3519 -0.0612  0.3600
 3713TIP3    H132698   6.417  -0.026   8.469  1.3153  1.4138 -0.6879
 3713TIP3    H232699   6.317   0.070   8.530  1.7105  1.7666 -0.5926
 3714TIP3   OH232700   3.376   5.067   1.698 -0.2762  0.1072 -0.1281
 3714TIP3    H132701   3.358   5.150   1.655 -0.6756  2.3177  3.8416
 3714TIP3    H232702   3.312   5.063   1.769  1.1970 -2.5317  1.1785
 3715TIP3   OH232703   5.644   4.847   7.304 -0.1954  0.3590  0.2163
 3715TIP3    H132704   5.646   4.908   7.230 -0.0767 -1.0490 -0.9851
 3715TIP3    H232705   5.552   4.842   7.329  0.0508  2.8591  1.9642
 3716TIP3   OH232706   6.192   4.733   1.757 -0.0034 -1.1986 -0.9011
 3716TIP3    H132707   6.157   4.696   1.838 -0.2450 -1.8244 -1.2838
 3716TIP3    H232708   6.148   4.817   1.747  0.0373 -1.1148 -0.3784
 3717TIP3   OH232709   0.671   1.154   0.115 -0.2062  0.1675 -0.1162
 3717TIP3    H132710   0.727   1.149   0.193  0.0114 -2.1595 -0.3326
 3717TIP3    H232711   0.717   1.215   0.057 -0.6484  2.3690  1.7037
 3718TIP3   OH232712   0.443   4.182   0.894 -0.0709  0.2516  0.2196
 3718TIP3    H132713   0.466   4.187   0.801 -0.1414 -1.0648  0.1096
 3718TIP3    H232714   0.499   4.112   0.928  1.1655  1.8101  1.5566
 3719TIP3   OH232715   0.171   3.980   0.806 -0.3590 -0.6908  0.5598
 3719TIP3    H132716   0.207   4.023   0.729 -0.7917 -0.7062  0.3466
 3719TIP3    H232717   0.248   3.957   0.859  0.1359 -2.7628 -0.9374
 3720TIP3   OH232718   4.665   3.212   8.258  0.3662 -0.4722 -0.6034
 3720TIP3    H132719   4.680   3.138   8.317 -1.6550  0.2301  0.9382
 3720TIP3    H232720   4.599   3.179   8.197  0.4480 -0.3613 -0.7488
 3721TIP3   OH232721   5.522   6.115   8.132  0.3954  0.3501 -0.2030
 3721TIP3    H132722   5.528   6.168   8.212 -2.0899  1.6799 -0.7844
 3721TIP3    H232723   5.516   6.025   8.162 -0.8252  0.8589  1.1530
 3722TIP3   OH232724   5.565   3.338   1.984  0.6078 -0.3775  0.2841
 3722TIP3    H132725   5.618   3.416   1.967 -0.0432  0.4234  1.7559
 3722TIP3    H232726   5.624   3.264   1.965  1.5593  0.4798 -0.1570
 3723TIP3   OH232727   1.838   5.552   2.344 -0.2944 -0.3563  0.2469
 3723TIP3    H132728   1.897   5.525   2.414  1.4939  0.9849 -0.6672
 3723TIP3    H232729   1.804   5.470   2.309  1.5626 -1.2409  0.3866
 3724TIP3   OH232730   2.830   3.628   0.319  0.3260 -0.2820 -0.1732
 3724TIP3    H132731   2.775   3.550   0.328  0.6417 -0.5610 -0.6136
 3724TIP3    H232732   2.909   3.608   0.368 -0.0379  0.1992  0.6267
 3725TIP3   OH232733   1.359   1.536   1.327 -0.2242  0.5895 -0.0576
 3725TIP3    H132734   1.419   1.611   1.327  0.7810 -0.1754 -1.3879
 3725TIP3    H232735   1.272   1.575   1.339  0.3983  1.8254  0.6490
 3726TIP3   OH232736   2.823   2.925   2.426 -0.4323  0.3148 -0.4451
 3726TIP3    H132737   2.775   2.843   2.418  0.7140 -0.6063  1.3705
 3726TIP3    H232738   2.787   2.967   2.505  1.2810 -0.1530  0.6591
 3727TIP3   OH232739   5.297   0.988   2.214  0.4860  0.6879  0.1469
 3727TIP3    H132740   5.311   1.080   2.238 -1.8492  1.2287 -0.2939
 3727TIP3    H232741   5.289   0.989   2.119  2.2441 -0.3088 -0.0588
 3728TIP3   OH232742   1.649   3.796   8.506  0.4917  0.3895 -0.0874
 3728TIP3    H132743   1.563   3.806   8.547  0.6105  0.5400  0.1230
 3728TIP3    H232744   1.629   3.781   8.413  0.2212 -0.0355  0.0332
 3729TIP3   OH232745   6.285   5.601   1.853 -0.8639 -0.2246  0.0558
 3729TIP3    H132746   6.308   5.668   1.917 -0.4596  0.0073 -0.3165
 3729TIP3    H232747   6.340   5.526   1.876 -1.4294 -0.4904  0.5670
 3730TIP3   OH232748   2.628   5.503   0.790  0.5518 -0.2272  0.2266
 3730TIP3    H132749   2.572   5.431   0.760 -0.2905 -0.6393  2.5306
 3730TIP3    H232750   2.709   5.460   0.818  1.1143  0.0784 -0.8995
 3731TIP3   OH232751   0.311   4.750   2.414 -0.0240 -0.3521  0.1588
 3731TIP3    H132752   0.299   4.718   2.504  0.0438  0.4699  0.4658
 3731TIP3    H232753   0.313   4.670   2.361  0.7437 -0.9024  0.9761
 3732TIP3   OH232754   1.642   4.953   1.205  0.0371 -0.6132 -0.3979
 3732TIP3    H132755   1.705   4.995   1.264  0.6830 -0.0495 -1.4646
 3732TIP3    H232756   1.621   4.870   1.248  2.4744 -1.4189 -0.5859
 3733TIP3   OH232757   6.494   2.477   1.405 -0.4506  0.5201 -0.5620
 3733TIP3    H132758   6.483   2.387   1.373 -0.6232  0.1328  0.5516
 3733TIP3    H232759   6.562   2.471   1.472 -0.4273  1.2341 -0.5139
 3734TIP3   OH232760   1.123   4.937   0.618  0.4277 -0.0193  0.0388
 3734TIP3    H132761   1.207   4.934   0.572  0.4201 -0.7586  0.0621
 3734TIP3    H232762   1.113   5.029   0.642  0.0266  0.5857 -2.1699
 3735TIP3   OH232763   1.211   0.666   8.401 -0.3140 -0.2130  0.2120
 3735TIP3    H132764   1.158   0.726   8.349  1.3445  0.4529 -0.7673
 3735TIP3    H232765   1.170   0.580   8.387  0.0541 -0.0602 -2.2071
 3736TIP3   OH232766   5.699   3.812   7.678  0.1892  0.0888 -0.5183
 3736TIP3    H132767   5.689   3.755   7.754 -2.0080 -0.7321 -1.3462
 3736TIP3    H232768   5.758   3.763   7.620  2.0194  0.8009  0.6683
 3737TIP3   OH232769   3.932   2.579   1.746  0.0209  0.3739  0.5446
 3737TIP3    H132770   3.940   2.499   1.694 -1.3631  0.3081  0.3709
 3737TIP3    H232771   3.897   2.550   1.830 -1.1720  0.8339  0.2370
 3738TIP3   OH232772   6.127   5.730   7.410 -0.1927 -0.4117 -0.9351
 3738TIP3    H132773   6.087   5.775   7.485 -0.4186  0.1577 -1.3855
 3738TIP3    H232774   6.062   5.666   7.382 -0.5068  0.0324 -1.2322
 3739TIP3   OH232775   6.571   0.974   6.734  0.2256  0.0335 -1.0088
 3739TIP3    H132776   6.645   0.921   6.705 -0.0249 -0.7721 -0.2316
 3739TIP3    H232777   6.528   0.920   6.801  0.1240  1.3382  0.0153
 3740TIP3   OH232778   1.761   5.444   1.529  0.4510  0.1987  0.3615
 3740TIP3    H132779   1.703   5.517   1.549 -0.5608 -0.9556  1.8294
 3740TIP3    H232780   1.785   5.408   1.614  1.5061 -0.7499 -0.3080
 3741TIP3   OH232781   4.630   4.580   0.472 -0.8686  0.7520 -0.1762
 3741TIP3    H132782   4.638   4.633   0.392 -1.4848  1.2860  0.1087
 3741TIP3    H232783   4.547   4.534   0.463 -0.8616  0.6881  0.0775
 3742TIP3   OH232784   4.135   5.022   7.172  0.3536 -0.8898  0.2620
 3742TIP3    H132785   4.082   5.001   7.248  0.8200 -1.6709  0.3880
 3742TIP3    H232786   4.220   4.982   7.190  1.4995  1.5693  0.7256
 3743TIP3   OH232787   0.797   6.554   1.245 -0.6887 -0.2113  0.0677
 3743TIP3    H132788   0.883   6.595   1.255  0.2755 -2.0730 -0.0086
 3743TIP3    H232789   0.766   6.583   1.160 -0.0523  0.3604  0.0246
 3744TIP3   OH232790   3.643   0.166   0.272  0.1462  0.3596  0.1229
 3744TIP3    H132791   3.644   0.072   0.288 -1.9510  0.7179  3.5827
 3744TIP3    H232792   3.555   0.183   0.237  1.1572  0.9150 -2.3432
 3745TIP3   OH232793   4.247   4.922   2.035  0.2133  0.4203  0.2722
 3745TIP3    H132794   4.178   4.878   1.985 -0.3981  0.4667  1.0457
 3745TIP3    H232795   4.282   4.987   1.974  2.1433 -1.9963 -1.4118
 3746TIP3   OH232796   1.053   5.810   2.027  0.8880 -0.6387  0.2816
 3746TIP3    H132797   1.003   5.829   2.106 -0.8599 -1.5082 -0.5769
 3746TIP3    H232798   1.070   5.716   2.031 -0.7697 -1.0541 -1.1837
 3747TIP3   OH232799   1.456   3.557   2.794  0.5514 -0.2025 -0.3138
 3747TIP3    H132800   1.442   3.508   2.876  1.6721  0.4292  0.2838
 3747TIP3    H232801   1.537   3.520   2.758 -0.4008 -1.0850 -1.6303
 3748TIP3   OH232802   0.666   4.539   8.110 -0.2107  0.0934 -0.2431
 3748TIP3    H132803   0.686   4.605   8.176 -1.9234  0.5505 -0.1363
 3748TIP3    H232804   0.585   4.570   8.069 -0.5125 -1.4367 -0.8739
 3749TIP3   OH232805   5.318   0.958   0.654 -0.3508 -0.5654 -0.0827
 3749TIP3    H132806   5.259   0.959   0.579 -0.1317  0.1189 -0.2480
 3749TIP3    H232807   5.266   0.920   0.725 -0.9295 -0.1283 -0.2704
 3750TIP3   OH232808   5.300   0.008   1.349 -0.0141  0.9242  0.1717
 3750TIP3    H132809   5.216   0.036   1.312 -0.3952 -1.0733 -0.6027
 3750TIP3    H232810   5.301  -0.087   1.336  1.9671  0.7887  1.0285
 3751TIP3   OH232811   0.409   2.063   8.223  0.1703  0.4134 -0.3428
 3751TIP3    H132812   0.504   2.079   8.221  0.2128  0.1705 -2.7393
 3751TIP3    H232813   0.400   1.980   8.270  1.0417  0.8494  0.6500
 3752TIP3   OH232814   2.494   4.492   1.671 -0.2722  0.1691  0.0960
 3752TIP3    H132815   2.551   4.464   1.599 -2.1374 -2.1133 -0.6177
 3752TIP3    H232816   2.526   4.443   1.747 -0.7575 -0.4943 -0.1202
 3753TIP3   OH232817   5.717   5.824   8.477 -0.6987 -0.0905 -0.1700
 3753TIP3    H132818   5.675   5.909   8.485 -2.6429 -0.9363 -0.7084
 3753TIP3    H232819   5.669   5.780   8.406  1.1075 -1.1525 -0.8064
 3754TIP3   OH232820   4.745   5.735   1.825 -0.0551 -0.0648 -0.0314
 3754TIP3    H132821   4.775   5.732   1.734 -1.0104  0.8869 -0.3991
 3754TIP3    H232822   4.825   5.736   1.877  0.4963 -1.3970 -0.8220
 3755TIP3   OH232823   3.806   6.425   0.746 -0.5414 -0.2342 -0.0975
 3755TIP3    H132824   3.768   6.356   0.800 -1.3179  0.1917 -0.0959
 3755TIP3    H232825   3.885   6.451   0.793  0.1039 -1.5350 -0.4048
 3756TIP3   OH232826   1.580   6.513   1.806 -0.2104 -0.5739 -0.5535
 3756TIP3    H132827   1.514   6.480   1.866 -0.9109 -0.4513 -1.2381
 3756TIP3    H232828   1.644   6.442   1.798  0.4908 -0.1870  1.1740
 3757TIP3   OH232829   6.328   5.454   8.113  0.3868 -0.1088 -0.1531
 3757TIP3    H132830   6.239   5.464   8.146  0.0283 -1.2527 -0.7147
 3757TIP3    H232831   6.320   5.468   8.018  0.6350 -1.0766 -0.3285
 3758TIP3   OH232832   1.115   0.394   2.667  0.2253 -0.2245 -0.3158
 3758TIP3    H132833   1.034   0.439   2.645 -2.1945 -3.0508  1.9497
 3758TIP3    H232834   1.122   0.404   2.762 -0.3041 -4.0624  0.2965
 3759TIP3   OH232835   0.865   0.765   1.604 -0.1670  0.0522 -0.3165
 3759TIP3    H132836   0.948   0.771   1.558 -0.3038  2.5131 -0.3412
 3759TIP3    H232837   0.818   0.845   1.581 -2.2551 -0.9234  0.2818
 3760TIP3   OH232838   1.514   1.849   2.273 -0.0740  0.6593  0.0574
 3760TIP3    H132839   1.503   1.936   2.310 -1.4059  0.7989 -0.6223
 3760TIP3    H232840   1.491   1.789   2.344  0.7529  0.8413  0.4949
 3761TIP3   OH232841   0.122   2.840   1.578  0.3840  0.5826 -0.0375
 3761TIP3    H132842   0.164   2.861   1.661 -0.7113  1.3319  0.3464
 3761TIP3    H232843   0.133   2.919   1.525 -0.7109  0.8693  0.1450
 3762TIP3   OH232844   3.502   0.449   1.842  0.0368 -0.0167  0.7395
 3762TIP3    H132845   3.482   0.382   1.776 -0.2835 -2.2882  2.9770
 3762TIP3    H232846   3.584   0.489   1.812  2.6147 -4.2784  1.1718
 3763TIP3   OH232847   5.920   4.565   8.494  0.3192  0.3845  0.2007
 3763TIP3    H132848   6.007   4.530   8.476  0.3883  1.6464 -2.2992
 3763TIP3    H232849   5.862   4.489   8.493  0.5969  0.0360 -4.0289
 3764TIP3   OH232850   3.655   3.458   0.963 -0.2837  0.4506  0.5066
 3764TIP3    H132851   3.667   3.516   0.888  0.0984  1.1429  1.0936
 3764TIP3    H232852   3.737   3.410   0.970 -0.6214 -0.2184 -0.0148
 3765TIP3   OH232853   3.348   4.558   0.538  0.2004  0.0128  0.4227
 3765TIP3    H132854   3.312   4.623   0.478  0.7100  0.5105  0.6542
 3765TIP3    H232855   3.281   4.490   0.543 -1.8867  2.0718  2.8027
 3766TIP3   OH232856   3.397   0.846   8.644  0.6490  0.3247 -0.0579
 3766TIP3    H132857   3.352   0.931   8.640 -1.2485 -0.6127  0.2750
 3766TIP3    H232858   3.346   0.789   8.587 -0.9846 -1.8084  3.2843
 3767TIP3   OH232859   1.687   3.664   2.521 -0.5504 -0.4306 -0.1358
 3767TIP3    H132860   1.632   3.597   2.481 -0.1184 -0.0484 -1.4110
 3767TIP3    H232861   1.769   3.620   2.541 -1.4632 -1.1714  2.3661
 3768TIP3   OH232862   0.357   5.739   7.919 -0.1287  0.3427 -0.3999
 3768TIP3    H132863   0.346   5.671   7.851  0.9397  0.9508 -1.2108
 3768TIP3    H232864   0.422   5.702   7.979 -1.4245 -0.3994  0.6084
 3769TIP3   OH232865   3.091   5.569   1.623 -0.3844  0.3898  0.4776
 3769TIP3    H132866   3.034   5.645   1.608 -0.6713  0.1522  0.3535
 3769TIP3    H232867   3.173   5.592   1.580 -1.1757 -0.2782 -1.5305
 3770TIP3   OH232868   1.543   1.659   6.739 -0.7707 -0.5555 -0.2871
 3770TIP3    H132869   1.542   1.716   6.662 -2.9007 -0.7192 -0.4444
 3770TIP3    H232870   1.525   1.718   6.812  0.2099 -0.5577 -0.0376
 3771TIP3   OH232871   0.143   0.091   1.405  0.1320  0.1440  0.3957
 3771TIP3    H132872   0.217   0.033   1.420  1.0904  0.7478 -1.6425
 3771TIP3    H232873   0.087   0.079   1.481 -0.4490 -4.5379 -0.4815
 3772TIP3   OH232874   1.773   3.470   7.268 -0.5783  0.0194 -0.5173
 3772TIP3    H132875   1.774   3.379   7.298  1.7535 -0.8190 -2.8172
 3772TIP3    H232876   1.858   3.505   7.296 -0.5769  0.8241 -1.4849
 3773TIP3   OH232877   2.792   2.831   7.148  0.4893 -0.5851  0.4162
 3773TIP3    H132878   2.867   2.891   7.152 -0.3533  0.7937 -2.1958
 3773TIP3    H232879   2.718   2.883   7.178 -0.2905 -0.1193 -2.0702
 3774TIP3   OH232880   5.390   0.465   0.627 -0.1904  0.1590 -0.0178
 3774TIP3    H132881   5.438   0.382   0.630 -3.2008 -1.9042 -2.2989
 3774TIP3    H232882   5.425   0.510   0.550 -1.7172 -1.3899 -1.7429
 3775TIP3   OH232883   4.466   5.009   8.665  0.1667  0.3462 -0.5143
 3775TIP3    H132884   4.399   5.001   8.733 -0.0900  0.0101 -0.8039
 3775TIP3    H232885   4.549   4.998   8.711  0.0098  0.4495 -0.2043
 3776TIP3   OH232886   6.225   0.268   1.373  0.0736  0.4622 -0.1465
 3776TIP3    H132887   6.249   0.191   1.425 -0.3689 -0.9314 -1.9061
 3776TIP3    H232888   6.130   0.263   1.365  0.2596 -0.4074 -2.5274
 3777TIP3   OH232889   6.158   0.921   2.473 -0.0635  0.5211 -0.7278
 3777TIP3    H132890   6.069   0.898   2.444  0.3056 -0.0965 -1.3925
 3777TIP3    H232891   6.145   0.998   2.529 -1.0146  0.4631 -0.8421
 3778TIP3   OH232892   1.362   2.127   0.369  0.0473  0.5861 -0.0276
 3778TIP3    H132893   1.292   2.184   0.399 -1.8639 -1.7473  0.2008
 3778TIP3    H232894   1.358   2.132   0.273  0.0495  1.0112 -0.0042
 3779TIP3   OH232895   0.824   6.143   8.546 -0.2223 -0.5598 -0.1322
 3779TIP3    H132896   0.891   6.090   8.503 -0.8987 -1.5071 -0.0521
 3779TIP3    H232897   0.849   6.143   8.639  0.2258 -0.0420 -0.2451
 3780TIP3   OH232898   3.072   1.938   8.472  0.0040  0.0145 -0.0854
 3780TIP3    H132899   3.098   1.863   8.418 -0.1216  0.7032 -1.1272
 3780TIP3    H232900   3.016   1.901   8.539  1.0180 -1.0230  0.2173
 3781TIP3   OH232901   5.299   6.162   0.739  0.2287  0.2527  0.0398
 3781TIP3    H132902   5.303   6.085   0.682  1.8091  0.0792  0.3561
 3781TIP3    H232903   5.234   6.139   0.806 -0.3991 -0.2011 -0.7006
 3782TIP3   OH232904   4.495   0.125   7.665  0.0060  0.4684  0.6182
 3782TIP3    H132905   4.485   0.064   7.738 -1.3976  1.3704  1.2310
 3782TIP3    H232906   4.479   0.211   7.704  1.1558  1.1755 -0.3849
 3783TIP3   OH232907   1.760   1.364   3.013  0.0139  0.6607 -0.0186
 3783TIP3    H132908   1.765   1.426   3.086 -0.2227 -0.4623  0.9786
 3783TIP3    H232909   1.843   1.376   2.967  0.7255  0.5293  1.1734
 3784TIP3   OH232910   5.099   4.664   0.148  0.2609 -0.5426  0.7860
 3784TIP3    H132911   5.124   4.709   0.067  1.1614 -1.6481  0.4411
 3784TIP3    H232912   5.058   4.733   0.201 -1.7741 -0.0960 -1.1816
 3785TIP3   OH232913   6.066   5.436   1.049 -0.2313 -0.0705 -0.6711
 3785TIP3    H132914   6.147   5.393   1.073 -0.3545 -0.0720 -0.2362
 3785TIP3    H232915   6.002   5.365   1.039 -0.7035  0.0399  1.1062
 3786TIP3   OH232916   1.148   3.271   0.043  0.6915 -0.1255 -0.0146
 3786TIP3    H132917   1.119   3.354   0.080 -0.4851 -1.0500  1.2610
 3786TIP3    H232918   1.231   3.254   0.087  0.3332 -0.1994  0.6491
 3787TIP3   OH232919   6.027   5.479   0.323 -0.1507  0.5917 -0.1936
 3787TIP3    H132920   6.027   5.506   0.231  1.6852  3.0915  0.4289
 3787TIP3    H232921   5.980   5.548   0.369  0.4456  0.2730  0.9425
 3788TIP3   OH232922   1.285   4.842   0.074 -0.4386 -0.2377 -0.8107
 3788TIP3    H132923   1.223   4.831   0.146 -0.3025  0.1260 -0.6363
 3788TIP3    H232924   1.275   4.762   0.022 -0.8884 -0.2833 -0.6596
 3789TIP3   OH232925   5.219   3.999   2.563  0.3347  0.1606 -0.3849
 3789TIP3    H132926   5.187   4.015   2.652  2.0336  3.4286 -0.2407
 3789TIP3    H232927   5.193   4.076   2.513 -0.3956 -1.4951 -2.7824
 3790TIP3   OH232928   3.789   3.425   7.835  0.4224 -0.2460 -0.7334
 3790TIP3    H132929   3.875   3.455   7.806  0.2789 -0.6743 -1.6365
 3790TIP3    H232930   3.762   3.490   7.899  1.3250  0.0123 -0.5962
 3791TIP3   OH232931   4.965   3.792   1.109 -0.3772 -0.0770 -0.1617
 3791TIP3    H132932   4.907   3.735   1.059  0.2746  0.0064 -1.0359
 3791TIP3    H232933   4.927   3.794   1.197 -1.7389  0.0465 -0.7248
 3792TIP3   OH232934   0.782   2.117   0.520 -0.2485  0.3225 -0.4162
 3792TIP3    H132935   0.873   2.096   0.499  0.2711  0.5531  1.4690
 3792TIP3    H232936   0.785   2.152   0.609 -2.0426  1.4592 -0.7555
 3793TIP3   OH232937   6.677   5.799   1.976  0.4354  0.3037 -0.1665
 3793TIP3    H132938   6.760   5.777   2.019  0.6585  0.5367 -0.4675
 3793TIP3    H232939   6.642   5.872   2.027 -0.2304 -0.6295  0.7397
 3794TIP3   OH232940   3.310   0.085   1.889 -0.0249  0.0450 -0.0558
 3794TIP3    H132941   3.342   0.137   1.815  2.8043 -1.5927 -0.1638
 3794TIP3    H232942   3.290   0.149   1.957 -0.9337  1.4740 -1.6032
 3795TIP3   OH232943   2.159   0.159   1.530 -0.0798 -0.2704 -0.4835
 3795TIP3    H132944   2.074   0.124   1.559 -0.0403 -1.0926 -1.3063
 3795TIP3    H232945   2.172   0.120   1.444  1.2508 -0.3374 -0.2675
 3796TIP3   OH232946   1.228   4.359   2.956 -0.3920 -0.4518 -0.8112
 3796TIP3    H132947   1.293   4.376   3.025  0.4933  1.0267 -1.9447
 3796TIP3    H232948   1.165   4.300   2.997  1.7035 -2.0443  0.3091
 3797TIP3   OH232949   4.115   3.466   2.937 -0.9480  0.0119  0.6558
 3797TIP3    H132950   4.025   3.460   2.969 -0.9076  1.0103  0.9935
 3797TIP3    H232951   4.167   3.420   3.002 -0.8282  2.2822  2.3011
 3798TIP3   OH232952   1.211   5.796   0.865  0.1690 -0.0479 -0.4467
 3798TIP3    H132953   1.219   5.720   0.923  0.7243  0.6194  0.3750
 3798TIP3    H232954   1.178   5.760   0.783 -0.3830 -1.0595  0.1938
 3799TIP3   OH232955   4.340   5.029   8.117  0.5970  0.1527  0.3858
 3799TIP3    H132956   4.336   5.062   8.207 -0.4216  1.7176 -0.1855
 3799TIP3    H232957   4.324   4.935   8.126 -0.4805  0.4206  1.7802
 3800TIP3   OH232958   3.864   4.798   8.552  0.1248 -0.0991 -0.1875
 3800TIP3    H132959   3.876   4.820   8.644  0.1891 -1.0198  0.0357
 3800TIP3    H232960   3.775   4.763   8.547 -0.3582  1.1384 -0.7270
 3801TIP3   OH232961   1.051   3.754   1.074 -0.5318  0.2610  0.4762
 3801TIP3    H132962   1.009   3.746   1.160 -1.9954  1.8993 -0.0194
 3801TIP3    H232963   0.989   3.805   1.022  0.8345  0.2909 -1.2145
 3802TIP3   OH232964   6.262   2.984   1.378  0.1498  0.0625  0.7636
 3802TIP3    H132965   6.307   3.029   1.306  0.7944  0.0892  1.1767
 3802TIP3    H232966   6.188   3.040   1.400  0.1816  0.2517  0.3889
 3803TIP3   OH232967   2.618   3.682   7.855  0.6843  0.3874  0.5120
 3803TIP3    H132968   2.598   3.620   7.926 -0.8421 -0.3567 -0.5114
 3803TIP3    H232969   2.679   3.744   7.894  3.7755 -2.7438  1.0942
 3804TIP3   OH232970   6.506   1.428   3.049 -0.0203  0.3097 -0.2457
 3804TIP3    H132971   6.581   1.368   3.059  0.8213  1.4138  0.3023
 3804TIP3    H232972   6.430   1.374   3.068  0.5321 -1.1193 -1.8908
 3805TIP3   OH232973   2.840   5.204   1.779 -0.2181 -0.3815 -0.2039
 3805TIP3    H132974   2.759   5.156   1.797 -0.5396  0.0427 -0.4969
 3805TIP3    H232975   2.832   5.232   1.688  0.6542 -1.0910 -0.5178
 3806TIP3   OH232976   4.827   2.122   1.395  0.0173  0.0427  0.0984
 3806TIP3    H132977   4.800   2.173   1.471  1.5595  1.1309 -0.0358
 3806TIP3    H232978   4.863   2.187   1.335 -1.5015 -0.7324 -1.7553
 3807TIP3   OH232979   3.512   2.709   6.810 -0.1742 -0.0127 -0.2054
 3807TIP3    H132980   3.567   2.631   6.803 -0.9627 -0.4409 -2.3930
 3807TIP3    H232981   3.459   2.708   6.730 -0.7834  2.3275  0.1044
 3808TIP3   OH232982   6.497   4.985   8.257 -0.2668  0.1021 -0.0572
 3808TIP3    H132983   6.588   4.990   8.285 -0.1479 -0.3539 -0.3414
 3808TIP3    H232984   6.456   4.925   8.319  0.6908 -3.3693 -2.4669
 3809TIP3   OH232985   1.699   6.552   2.224 -0.4402 -0.1815 -0.0137
 3809TIP3    H132986   1.638   6.501   2.276 -2.0282 -0.2975 -1.8679
 3809TIP3    H232987   1.671   6.642   2.234  0.6202  0.0664  1.0128
 3810TIP3   OH232988   5.352   5.715   7.410 -0.4012  0.1746 -0.4732
 3810TIP3    H132989   5.372   5.633   7.455  0.1039  0.6017  0.0943
 3810TIP3    H232990   5.268   5.742   7.445 -0.0418  0.4701  0.1706
 3811TIP3   OH232991   4.960   1.461   1.604  0.3001 -0.5138  0.0609
 3811TIP3    H132992   5.020   1.426   1.538 -0.3832 -0.4449 -0.6045
 3811TIP3    H232993   4.944   1.387   1.663  1.5646 -0.3465  0.6552
 3812TIP3   OH232994   4.063   4.388   1.936  0.6970  0.4975  0.0378
 3812TIP3    H132995   3.992   4.430   1.985 -0.5526 -2.6629  1.2681
 3812TIP3    H232996   4.092   4.317   1.994  1.1300 -1.6396 -2.6046
 3813TIP3   OH232997   2.945   5.484   0.535 -0.3248  0.3436 -0.5073
 3813TIP3    H132998   3.017   5.423   0.518  0.4802  0.4228  2.1593
 3813TIP3    H232999   2.981   5.546   0.598 -2.4695  0.8979  0.2414
 3814TIP3   OH233000   6.518   4.895   7.694  0.1661  0.0765  0.2088
 3814TIP3    H133001   6.540   4.812   7.736 -0.9345  0.6173  2.0043
 3814TIP3    H233002   6.601   4.929   7.661  0.4818 -2.2448 -1.6571
 3815TIP3   OH233003   6.618   3.983   0.939  0.2985  0.0825  0.2943
 3815TIP3    H133004   6.695   4.039   0.944  1.0758 -1.0618  1.8992
 3815TIP3    H233005   6.571   3.998   1.021 -1.5473  1.1506 -0.8594
 3816TIP3   OH233006   5.397   1.467   0.001  0.3734  0.1136  0.3585
 3816TIP3    H133007   5.454   1.405   0.047 -0.5097 -1.0796 -0.0800
 3816TIP3    H233008   5.330   1.411  -0.040 -0.3592  1.3606 -0.1971
 3817TIP3   OH233009   6.544   0.461   7.706  0.4761 -0.1252  0.0322
 3817TIP3    H133010   6.632   0.437   7.678  0.1481 -1.0390 -0.2478
 3817TIP3    H233011   6.504   0.379   7.732 -0.0897  0.3681  0.7564
 3818TIP3   OH233012   0.367   3.072   1.298  0.3933  0.5240  0.1274
 3818TIP3    H133013   0.401   3.059   1.387 -1.2303 -0.1994  0.6781
 3818TIP3    H233014   0.273   3.084   1.310 -0.1310 -1.3278 -1.6183
 3819TIP3   OH233015   0.073   6.681   2.447 -0.2208 -0.0026  0.1796
 3819TIP3    H133016  -0.022   6.689   2.439 -0.2237 -1.5181 -2.4205
 3819TIP3    H233017   0.086   6.615   2.515 -0.8970  1.4216  1.7772
 3820TIP3   OH233018   6.333   3.552   2.240 -0.0017  0.0014  0.3253
 3820TIP3    H133019   6.258   3.511   2.196 -0.5365 -0.6876  1.8052
 3820TIP3    H233020   6.408   3.500   2.211 -0.2829 -0.1820 -0.0890
 3821TIP3   OH233021   6.267   5.258   1.558  0.0849  0.0902 -0.0738
 3821TIP3    H133022   6.237   5.348   1.552 -0.4101 -0.1223 -0.9145
 3821TIP3    H233023   6.257   5.235   1.651 -0.1313  0.7714  0.0731
 3822TIP3   OH233024   4.927   1.220   0.867 -0.2227 -0.0268  0.4376
 3822TIP3    H133025   4.841   1.199   0.905 -0.4393  0.0279 -0.0112
 3822TIP3    H233026   4.979   1.252   0.941 -0.7702  0.4772  0.6159
 3823TIP3   OH233027   3.038   0.721   1.583  0.3528  0.1667  0.2129
 3823TIP3    H133028   2.943   0.729   1.590  0.4002  0.3404  0.6854
 3823TIP3    H233029   3.064   0.669   1.659  0.8000  1.4171  0.9418
 3824TIP3   OH233030   3.503   0.571   7.942  0.2742 -0.4580 -0.0772
 3824TIP3    H133031   3.515   0.647   7.999 -0.3262 -0.0803 -0.4398
 3824TIP3    H233032   3.553   0.592   7.863 -1.3644  0.4302 -0.9545
 3825TIP3   OH233033   2.850   1.404   2.200  0.1090 -0.2674 -0.2226
 3825TIP3    H133034   2.917   1.466   2.227  2.1344 -2.1025 -0.7485
 3825TIP3    H233035   2.783   1.458   2.156  1.4416  1.5709 -0.1058
 3826TIP3   OH233036   5.554   0.085   0.809  0.3324 -0.0108  0.0528
 3826TIP3    H133037   5.484   0.137   0.849  1.5766  1.9263 -0.1051
 3826TIP3    H233038   5.629   0.098   0.868  1.3352  0.3608 -1.2433
 3827TIP3   OH233039   6.525   3.380   1.379 -0.1499  0.3450 -0.3995
 3827TIP3    H133040   6.431   3.362   1.375 -0.2534 -0.2287  2.6003
 3827TIP3    H233041   6.531   3.475   1.386 -0.4198  0.4450 -1.3467
 3828TIP3   OH233042   4.179   5.708   1.119 -0.0899  0.2026 -0.1609
 3828TIP3    H133043   4.127   5.722   1.040 -1.5414 -1.1613  0.4921
 3828TIP3    H233044   4.236   5.785   1.125 -1.1959  1.1711 -1.5569
 3829TIP3   OH233045   3.644   0.875   0.638  0.1739  0.1268 -0.2733
 3829TIP3    H133046   3.623   0.803   0.580 -0.0120  0.5036 -0.6750
 3829TIP3    H233047   3.598   0.951   0.601 -2.0121 -0.1093  1.7249
 3830TIP3   OH233048   3.297   6.751   1.008  0.3883  0.2046 -0.1408
 3830TIP3    H133049   3.213   6.716   0.976 -0.2208  1.3878  0.1016
 3830TIP3    H233050   3.273   6.831   1.053  1.9183  2.2858 -2.7397
 3831TIP3   OH233051   3.033   2.934   7.975 -0.0575  0.0974 -0.0956
 3831TIP3    H133052   3.036   2.947   8.070  3.3099  2.4258 -0.3517
 3831TIP3    H233053   3.061   2.843   7.963  0.8220  0.1703  1.1358
 3832TIP3   OH233054   6.425   2.003   8.342  0.1651  0.5033  0.5285
 3832TIP3    H133055   6.497   1.954   8.382  0.3894 -0.8099 -1.3396
 3832TIP3    H233056   6.462   2.037   8.261 -1.1725  0.2325 -0.2128
 3833TIP3   OH233057   5.506   3.922   8.092 -1.0745  0.3069  0.5852
 3833TIP3    H133058   5.598   3.928   8.117 -0.6376  1.7148 -1.1282
 3833TIP3    H233059   5.473   3.847   8.140  1.4850 -1.5467 -0.3134
 3834TIP3   OH233060   4.107   5.046   0.235 -0.6609 -0.1022 -0.5857
 3834TIP3    H133061   4.038   5.005   0.182 -1.3063  0.1822  0.0080
 3834TIP3    H233062   4.186   5.039   0.182 -1.2010 -0.2040 -1.3967
 3835TIP3   OH233063   0.674   6.184   1.059 -0.0321  0.1402  0.2740
 3835TIP3    H133064   0.718   6.239   0.994  0.2544 -1.3831 -0.8520
 3835TIP3    H233065   0.598   6.236   1.086 -0.7049  0.4410 -1.9870
 3836TIP3   OH233066   5.593   1.775   7.403  0.0567  0.2568  0.3016
 3836TIP3    H133067   5.634   1.751   7.486 -0.3440 -0.3732  0.3247
 3836TIP3    H233068   5.550   1.695   7.373 -1.6434  1.0225  0.5548
 3837TIP3   OH233069   6.570   1.174   7.680  0.0543 -0.0896 -0.7906
 3837TIP3    H133070   6.624   1.188   7.603  0.1008  0.5233 -0.6458
 3837TIP3    H233071   6.632   1.150   7.749  0.1409  0.6229 -0.6223
 3838TIP3   OH233072   6.491   4.046   2.706 -0.4176 -0.1275 -0.4478
 3838TIP3    H133073   6.457   3.968   2.662 -1.6560 -0.0020  0.2402
 3838TIP3    H233074   6.546   4.012   2.777 -2.8463 -0.5262  1.3967
 3839TIP3   OH233075   2.133   0.732   8.613  0.4640 -0.2714 -0.4334
 3839TIP3    H133076   2.055   0.681   8.632  0.3257  0.0158 -0.2470
 3839TIP3    H233077   2.141   0.793   8.685  2.3004 -1.9916  0.9456
 3840TIP3   OH233078   5.067   4.037   2.801 -0.2057  0.1243 -0.3993
 3840TIP3    H133079   5.017   4.118   2.803 -0.0873  0.2790 -2.0163
 3840TIP3    H233080   5.013   3.974   2.849 -0.5883  0.9866  0.3350
 3841TIP3   OH233081   5.780   3.941   8.099 -0.4480  0.6825  0.7252
 3841TIP3    H133082   5.760   4.031   8.074 -0.3418  0.4998 -0.0283
 3841TIP3    H233083   5.862   3.947   8.148 -0.8059  1.0778  1.2863
 3842TIP3   OH233084   0.996   4.992   2.239 -0.2496  0.0219 -0.2344
 3842TIP3    H133085   0.976   4.905   2.274  0.8407  0.2841  1.0799
 3842TIP3    H233086   0.912   5.024   2.206 -0.4111 -2.1187 -2.1602
 3843TIP3   OH233087   6.662   2.472   1.884  0.5342 -0.4066  0.4236
 3843TIP3    H133088   6.626   2.485   1.796  1.9086  1.4007  0.0664
 3843TIP3    H233089   6.598   2.415   1.928  0.0307 -1.7159 -1.8430
 3844TIP3   OH233090   3.001   2.376   8.140  0.0149 -0.5943  0.3398
 3844TIP3    H133091   2.990   2.304   8.202 -1.4418 -1.4691 -0.8560
 3844TIP3    H233092   2.914   2.387   8.101  0.5036  1.0103 -0.3763
 3845TIP3   OH233093   2.316   4.051   8.030 -0.0296 -0.0450 -0.2815
 3845TIP3    H133094   2.272   4.136   8.023 -0.6671 -0.2899  0.6331
 3845TIP3    H233095   2.406   4.072   8.051 -0.5741  0.3838  1.7869
 3846TIP3   OH233096   5.071   3.707   8.324  0.5569 -0.3762  0.0721
 3846TIP3    H133097   4.985   3.672   8.351 -0.5430  1.9620 -0.1674
 3846TIP3    H233098   5.128   3.687   8.398 -0.5607 -0.7122  0.8809
 3847TIP3   OH233099   1.252   5.992   8.172 -0.2449 -0.3059 -0.7140
 3847TIP3    H133100   1.247   6.081   8.207 -0.0648  0.2089 -1.9305
 3847TIP3    H233101   1.338   5.961   8.199 -0.5794 -0.3701  0.2954
 3848TIP3   OH233102   4.349   3.440   1.404  0.5296 -0.2073 -0.3021
 3848TIP3    H133103   4.372   3.489   1.325 -0.2119  1.1057  0.2598
 3848TIP3    H233104   4.256   3.457   1.416  0.1071 -2.2236 -0.3687
 3849TIP3   OH233105   1.618   5.566   7.916  0.2968 -0.3105 -0.1015
 3849TIP3    H133106   1.626   5.472   7.932  3.0405  0.1908  2.3852
 3849TIP3    H233107   1.576   5.600   7.995  0.2376  0.6623 -0.5395
 3850TIP3   OH233108   1.026   0.658   2.409  0.2585 -0.7720  0.1589
 3850TIP3    H133109   0.965   0.585   2.415  0.3609 -0.7609  1.6104
 3850TIP3    H233110   0.972   0.733   2.383  0.1372 -1.3060 -1.2242
 3851TIP3   OH233111   0.443   6.406   1.632 -0.4540  0.3095  0.0410
 3851TIP3    H133112   0.519   6.418   1.575 -0.1671 -1.2445  0.0304
 3851TIP3    H233113   0.477   6.421   1.720 -0.1412 -0.2506  0.0255
 3852TIP3   OH233114   3.293   2.639   0.315  0.2087 -0.6747  0.0986
 3852TIP3    H133115   3.235   2.660   0.387 -1.5675 -1.4567 -1.0467
 3852TIP3    H233116   3.368   2.697   0.327 -1.1430  0.9387  1.1851
 3853TIP3   OH233117   1.906   5.712   7.542  0.2694 -0.2111 -1.1492
 3853TIP3    H133118   1.822   5.711   7.497 -0.3972  2.1430 -0.1160
 3853TIP3    H233119   1.886   5.743   7.630  2.2337  0.7471 -0.9875
 3854TIP3   OH233120   0.420   1.321   8.081  0.1417  0.0235 -0.3614
 3854TIP3    H133121   0.421   1.320   7.986  0.9710 -0.0297 -0.3600
 3854TIP3    H233122   0.512   1.316   8.106  0.0014  1.0163  0.4310
 3855TIP3   OH233123   2.968   2.409   2.427  0.1858  0.4801 -0.5764
 3855TIP3    H133124   2.883   2.432   2.390 -0.7493  1.1492  1.7841
 3855TIP3    H233125   2.953   2.325   2.470 -0.4916  2.2581  3.0884
 3856TIP3   OH233126   1.108   1.787   1.932  0.8737  0.2696 -0.1009
 3856TIP3    H133127   1.157   1.843   1.993 -0.9923  2.0900 -0.1547
 3856TIP3    H233128   1.082   1.711   1.984  1.6579  0.4715  0.5929
 3857TIP3   OH233129   4.449   6.623   7.674 -1.2505 -0.2121 -0.0189
 3857TIP3    H133130   4.440   6.659   7.586 -3.1344 -0.2504  0.1125
 3857TIP3    H233131   4.426   6.696   7.732  1.0854  0.1647  0.5405
 3858TIP3   OH233132   3.961   3.924   8.222  0.2792  0.1669 -0.3279
 3858TIP3    H133133   4.027   3.984   8.258 -1.7656  2.1997  0.2615
 3858TIP3    H233134   3.954   3.854   8.288  2.0621 -0.3377 -0.6019
 3859TIP3   OH233135   5.653   4.532   1.614 -0.0412 -0.3164  0.6275
 3859TIP3    H133136   5.655   4.551   1.520 -0.6289  2.4654  1.1038
 3859TIP3    H233137   5.738   4.492   1.632 -0.2676 -1.7898 -1.2005
 3860TIP3   OH233138   4.579   3.649   1.802 -0.2341  0.5224 -0.4684
 3860TIP3    H133139   4.654   3.591   1.790 -0.2553  0.1556  0.9601
 3860TIP3    H233140   4.504   3.590   1.810 -0.1959  0.6503  1.4394
 3861TIP3   OH233141   2.476   4.967   8.564  0.3985  0.0023  0.1455
 3861TIP3    H133142   2.541   4.917   8.516 -0.4638 -0.8327 -0.1930
 3861TIP3    H233143   2.520   4.994   8.645  0.2823 -3.2633  1.4376
 3862TIP3   OH233144   5.677   5.689   6.948 -0.2917 -0.1947 -0.2685
 3862TIP3    H133145   5.703   5.600   6.973 -0.4277  0.1927  1.3975
 3862TIP3    H233146   5.760   5.737   6.946 -0.4305  0.1168  0.9846
 3863TIP3   OH233147   2.878   0.304   8.541  0.3701 -0.5513 -0.1828
 3863TIP3    H133148   2.913   0.378   8.591  0.7667 -1.1322  0.4030
 3863TIP3    H233149   2.785   0.326   8.529  0.4481 -0.0322  0.1254
 3864TIP3   OH233150   4.945   0.917   2.343 -0.4994 -0.2340 -0.1965
 3864TIP3    H133151   4.942   0.826   2.315  0.0564 -0.7275  1.2387
 3864TIP3    H233152   4.964   0.912   2.437 -1.0533  1.3404  0.0291
 3865TIP3   OH233153   0.484   6.105   7.557 -0.2445 -0.9886 -0.1605
 3865TIP3    H133154   0.527   6.187   7.581 -1.4209 -0.1872 -0.7328
 3865TIP3    H233155   0.502   6.046   7.631 -2.7001  0.9785  2.1871
 3866TIP3   OH233156   5.628   5.017   8.387 -0.0880 -0.6125  0.1007
 3866TIP3    H133157   5.694   4.974   8.442 -0.6633 -1.1945  0.3427
 3866TIP3    H233158   5.673   5.095   8.353  0.9327 -1.3144 -0.2284
 3867TIP3   OH233159   6.063   2.138   2.266 -0.0296  0.3181 -0.2367
 3867TIP3    H133160   5.977   2.158   2.228 -1.0392 -0.1204  1.7149
 3867TIP3    H233161   6.088   2.218   2.312 -0.5907 -0.3399  1.2819
 3868TIP3   OH233162   2.574   6.534   0.735 -0.4269  0.1985  0.6065
 3868TIP3    H133163   2.631   6.457   0.733 -1.8102 -0.8481  0.4433
 3868TIP3    H233164   2.617   6.593   0.796  0.7677 -0.6050  0.5913
 3869TIP3   OH233165   3.829   2.045   1.618 -0.0619  0.5045 -0.0119
 3869TIP3    H133166   3.853   1.953   1.624  2.0299  0.9054 -1.1636
 3869TIP3    H233167   3.735   2.045   1.604 -0.0481 -1.4827 -0.3112
 3870TIP3   OH233168   4.997   1.662   0.803 -0.2785  0.0777 -0.0175
 3870TIP3    H133169   4.933   1.598   0.836  0.9063  0.0855  2.5732
 3870TIP3    H233170   5.033   1.622   0.724  0.7712 -2.7756  1.7531
 3871TIP3   OH233171   0.936   5.050   0.203  0.2785  0.6809 -0.6065
 3871TIP3    H133172   0.905   4.964   0.176 -1.4561  0.9193  0.5193
 3871TIP3    H233173   0.861   5.091   0.246  0.8415  3.0300 -1.6827
 3872TIP3   OH233174   4.333   3.524   0.315  0.1999  0.2643  0.7923
 3872TIP3    H133175   4.303   3.460   0.380  3.5768 -2.4720 -0.0456
 3872TIP3    H233176   4.418   3.553   0.348  1.2355  0.0657 -1.5304
 3873TIP3   OH233177   2.870   5.219   1.329  0.5097  0.1958  0.0281
 3873TIP3    H133178   2.809   5.284   1.295  0.5198  0.7318  0.9924
 3873TIP3    H233179   2.817   5.166   1.389  1.5130  2.5421  3.2764
 3874TIP3   OH233180   4.772   1.321   0.333  0.0704  0.6385 -0.0166
 3874TIP3    H133181   4.819   1.300   0.414  2.3419  0.0980 -1.3989
 3874TIP3    H233182   4.814   1.402   0.302  0.2910  0.0085 -1.4118
 3875TIP3   OH233183   0.973   3.701   1.337  0.5774  0.2298  0.1700
 3875TIP3    H133184   1.001   3.667   1.422 -1.2303 -2.1167 -0.0836
 3875TIP3    H233185   0.878   3.698   1.340  0.4033 -2.7494 -2.8884
 3876TIP3   OH233186   2.445   1.668   7.977 -0.0880 -0.0519  0.7562
 3876TIP3    H133187   2.491   1.653   7.894 -0.3622 -0.8448  0.7348
 3876TIP3    H233188   2.485   1.607   8.038  0.1329  0.5560  1.2258
 3877TIP3   OH233189   4.580   3.027   7.282  0.6792  0.5804 -0.3257
 3877TIP3    H133190   4.610   3.054   7.195 -0.3969 -0.1327 -0.9460
 3877TIP3    H233191   4.545   2.939   7.268 -0.8664  1.0434  0.5310
 3878TIP3   OH233192   2.979   4.222   2.434  0.3235  0.1375 -0.0162
 3878TIP3    H133193   3.030   4.214   2.354  0.0871 -1.4740 -0.0330
 3878TIP3    H233194   2.946   4.312   2.433  1.1860  0.4554 -1.1919
 3879TIP3   OH233195   0.764   0.401   7.771 -0.5689  0.0504  0.2377
 3879TIP3    H133196   0.799   0.372   7.687  0.4825  0.6186  0.4600
 3879TIP3    H233197   0.757   0.322   7.824 -0.0540 -0.1357  0.0270
 3880TIP3   OH233198   0.661   1.775   2.635 -0.1705  0.3503 -0.2146
 3880TIP3    H133199   0.744   1.735   2.662  0.2946 -0.2503 -2.3368
 3880TIP3    H233200   0.595   1.732   2.689  0.5203 -2.0179 -1.1144
 3881TIP3   OH233201   4.297   6.236   3.102  0.0012 -0.6543 -0.0589
 3881TIP3    H133202   4.382   6.278   3.087  0.1774 -0.9829  0.0178
 3881TIP3    H233203   4.247   6.301   3.151  1.2558 -1.5560  2.6133
 3882TIP3   OH233204   1.778   6.105   2.519  0.0556 -0.3565 -0.1022
 3882TIP3    H133205   1.761   6.044   2.591 -0.5538 -0.3078 -0.1999
 3882TIP3    H233206   1.868   6.135   2.534 -0.0110 -0.4613  0.5551
 3883TIP3   OH233207   4.436   6.729   7.155  0.0956 -0.2614  0.0893
 3883TIP3    H133208   4.450   6.754   7.064 -1.2805 -0.1242 -0.1088
 3883TIP3    H233209   4.496   6.656   7.170  0.7837  0.1278 -0.7331
 3884TIP3   OH233210   2.402   0.524   8.102 -0.3400  0.0238 -0.6635
 3884TIP3    H133211   2.370   0.487   8.185 -1.7650 -1.7414 -1.9088
 3884TIP3    H233212   2.496   0.532   8.114 -0.2746 -1.8536  0.5440
 3885TIP3   OH233213   0.065   2.244   7.558  0.0636  0.8642 -0.4674
 3885TIP3    H133214   0.095   2.228   7.468 -1.2226  0.7624 -0.8981
 3885TIP3    H233215   0.045   2.338   7.560 -0.3376  0.7794 -0.4269
 3886TIP3   OH233216   4.208   4.207   2.114 -0.3611 -0.3972 -0.3116
 3886TIP3    H133217   4.251   4.139   2.062  0.9762  0.2566 -0.1103
 3886TIP3    H233218   4.213   4.176   2.204 -0.3837 -0.3517 -0.2943
 3887TIP3   OH233219   5.998   2.161   1.206  0.0338 -0.5484 -0.3357
 3887TIP3    H133220   6.078   2.112   1.189  0.0503 -0.4592 -0.5192
 3887TIP3    H233221   5.959   2.174   1.119 -0.1145 -0.4831 -0.2596
 3888TIP3   OH233222   6.528   1.149   0.272 -0.0600  0.2134  0.0074
 3888TIP3    H133223   6.456   1.086   0.266 -0.8007  1.0579 -0.2304
 3888TIP3    H233224   6.577   1.137   0.192 -0.9478  0.8029 -0.6456
 3889TIP3   OH233225   1.620   2.924   2.727  0.1719  0.3750 -0.0826
 3889TIP3    H133226   1.690   2.918   2.792 -0.6132  2.8059  1.1405
 3889TIP3    H233227   1.543   2.886   2.769  0.0952  0.2428 -0.3346
 3890TIP3   OH233228   6.786   2.304   0.274  0.6770 -0.1246 -0.4447
 3890TIP3    H133229   6.762   2.222   0.317 -1.0054  0.0628 -0.9789
 3890TIP3    H233230   6.872   2.325   0.311 -1.0823  0.6957  3.8743
 3891TIP3   OH233231   4.645   0.787   8.220  0.7142  0.0173  0.0754
 3891TIP3    H133232   4.662   0.801   8.313 -2.8666  2.1693  0.6279
 3891TIP3    H233233   4.682   0.865   8.178 -1.1864  1.1633  0.3716
 3892TIP3   OH233234   6.555   1.644   7.088  0.0006 -0.2915  0.4751
 3892TIP3    H133235   6.509   1.701   7.149 -1.4199 -1.2332  0.3392
 3892TIP3    H233236   6.638   1.623   7.132 -0.6911 -0.3958  1.7651
 3893TIP3   OH233237   0.303   6.819   7.983 -1.1072 -0.0146  0.1889
 3893TIP3    H133238   0.383   6.863   8.010 -1.5494  0.4916  0.7104
 3893TIP3    H233239   0.288   6.850   7.893 -0.8323  0.0461  0.1637
 3894TIP3   OH233240   3.470   0.228   1.695 -0.5494 -0.3744  0.3892
 3894TIP3    H133241   3.552   0.239   1.646 -0.3902  0.3044  0.7869
 3894TIP3    H233242   3.415   0.175   1.639 -0.2690  0.1577 -0.4064
 3895TIP3   OH233243   4.849   1.628   7.972 -0.0856 -0.7274  0.6068
 3895TIP3    H133244   4.923   1.603   8.027 -0.2636  0.8974  1.6651
 3895TIP3    H233245   4.858   1.723   7.961  0.3602 -1.0469 -2.8912
 3896TIP3   OH233246   1.490   6.409   8.440 -1.0107  0.5792 -0.9143
 3896TIP3    H133247   1.572   6.373   8.474 -0.5052  2.0290 -0.5323
 3896TIP3    H233248   1.479   6.369   8.354 -2.1927 -3.0292  0.7113
 3897TIP3   OH233249   4.454   2.430   8.189  0.2143 -0.2237 -0.3504
 3897TIP3    H133250   4.456   2.336   8.167  1.9085 -0.7032  1.5688
 3897TIP3    H233251   4.461   2.474   8.104 -2.2416 -1.7310 -1.4632
 3898TIP3   OH233252   0.676   6.818   7.655  0.0133  0.0889  0.3832
 3898TIP3    H133253   0.652   6.900   7.613  2.5363  0.9738  0.5262
 3898TIP3    H233254   0.720   6.768   7.586 -1.6787 -1.3139  0.2336
 3899TIP3   OH233255   6.746   2.950   1.165 -0.0186  0.4241 -0.5977
 3899TIP3    H133256   6.702   3.034   1.173 -1.9646 -0.5212 -0.7719
 3899TIP3    H233257   6.708   2.896   1.234 -0.2966 -0.8981 -1.7301
 3900TIP3   OH233258   2.691   2.406   2.535 -0.1171  0.1616  0.3629
 3900TIP3    H133259   2.734   2.424   2.451 -0.0712  2.1783  0.7642
 3900TIP3    H233260   2.715   2.316   2.555  1.9378  0.4269 -0.5978
 3901TIP3   OH233261   0.594   4.706   0.276  0.1601  0.1452  0.0197
 3901TIP3    H133262   0.542   4.731   0.352  0.8026 -1.1269  0.9167
 3901TIP3    H233263   0.538   4.646   0.227 -1.0431  2.4795 -1.6672
 3902TIP3   OH233264   1.011   1.204   7.963 -0.6649 -0.3163  0.7340
 3902TIP3    H133265   1.014   1.227   8.056 -0.9545  2.2982  0.1845
 3902TIP3    H233266   0.918   1.189   7.945 -0.6242 -0.6943  0.8378
 3903TIP3   OH233267   6.670   0.127   7.540  0.0965  0.3738 -0.6224
 3903TIP3    H133268   6.575   0.135   7.533  0.1685  3.3040  0.3863
 3903TIP3    H233269   6.697   0.090   7.456 -2.0759 -3.2353  0.0706
 3904TIP3   OH233270   3.392   6.625   1.725 -0.2588  0.1369  0.0571
 3904TIP3    H133271   3.449   6.702   1.731  0.8347 -0.6241 -0.2646
 3904TIP3    H233272   3.307   6.661   1.699  0.2033  1.2495 -0.0085
 3905TIP3   OH233273   0.539   1.166   7.595  0.4297  0.3061 -0.4286
 3905TIP3    H133274   0.517   1.222   7.670  2.4753 -0.1898  0.6190
 3905TIP3    H233275   0.465   1.175   7.536 -0.6297  1.8118  1.0329
 3906TIP3   OH233276   5.946   0.148   0.121 -0.3080 -0.0090 -0.2125
 3906TIP3    H133277   5.933   0.071   0.066 -2.9836  0.4809 -0.3600
 3906TIP3    H233278   5.953   0.221   0.060 -1.6387  0.3232  0.0024
 3907TIP3   OH233279   2.667   0.356   2.418 -0.1522  0.7070  0.3920
 3907TIP3    H133280   2.683   0.351   2.512  2.9517  1.0831 -0.0059
 3907TIP3    H233281   2.703   0.442   2.393  1.1960 -0.3250 -1.4243
 3908TIP3   OH233282   5.620   6.562   0.223  0.1437  0.3344  0.1566
 3908TIP3    H133283   5.668   6.644   0.211 -0.4109  1.0405  2.3469
 3908TIP3    H233284   5.648   6.531   0.309  0.5875 -1.9762 -0.7634
 3909TIP3   OH233285   1.026   3.969   2.637  0.1797  0.1272  0.2400
 3909TIP3    H133286   1.096   3.996   2.696 -0.9780  1.5527  1.0452
 3909TIP3    H233287   1.007   4.047   2.585  0.4186 -0.7887 -1.2753
 3910TIP3   OH233288   0.161   0.971   0.141 -0.2165 -0.0896  0.3448
 3910TIP3    H133289   0.201   0.972   0.228 -0.1456  2.1857  0.3547
 3910TIP3    H233290   0.075   0.933   0.155 -0.1431  0.0838  1.3867
 3911TIP3   OH233291   0.752   5.024   1.462 -0.1516 -0.3736  0.3154
 3911TIP3    H133292   0.750   5.051   1.554 -0.5196 -1.0470  0.5102
 3911TIP3    H233293   0.829   5.069   1.426  1.8370 -2.4210  1.7125
 3912TIP3   OH233294   5.091   2.353   3.004 -0.1444 -0.0591 -0.4066
 3912TIP3    H133295   5.034   2.279   3.026 -0.5114  1.0743  2.9210
 3912TIP3    H233296   5.041   2.403   2.939 -1.2878 -1.0257 -0.3022
 3913TIP3   OH233297   1.710   0.798   7.872  0.1316  0.3949 -0.5820
 3913TIP3    H133298   1.714   0.861   7.799  2.1302  1.9204  0.7323
 3913TIP3    H233299   1.657   0.841   7.938  2.6167  1.4350  0.8676
 3914TIP3   OH233300   2.106   0.192   8.290 -0.0230  0.1016 -0.0014
 3914TIP3    H133301   2.084   0.144   8.370 -0.6403  0.5824  0.1331
 3914TIP3    H233302   2.073   0.281   8.306 -0.7510  0.0393 -1.0487
 3915TIP3   OH233303   4.273   3.114   7.878  0.0198  0.1647 -0.5783
 3915TIP3    H133304   4.217   3.120   7.801 -0.7131  0.0553 -0.0599
 3915TIP3    H233305   4.270   3.022   7.904 -1.1130  0.5003  0.5757
 3916TIP3   OH233306   3.201   1.647   7.934  0.3558  0.4035  0.0478
 3916TIP3    H133307   3.226   1.739   7.927  0.1654  0.4918  0.4664
 3916TIP3    H233308   3.131   1.647   7.999  0.6308 -0.0855  0.3486
 3917TIP3   OH233309   5.176   3.096   6.814 -0.1442  0.8964  0.6638
 3917TIP3    H133310   5.130   3.052   6.742  0.6143 -0.4157  0.9506
 3917TIP3    H233311   5.106   3.136   6.866 -0.7102  1.8219 -0.7477
 3918TIP3   OH233312   2.268   4.062   8.304  0.3455  0.0218 -0.2157
 3918TIP3    H133313   2.258   4.013   8.223  0.1829 -0.5217  0.1301
 3918TIP3    H233314   2.330   4.132   8.282  1.9405 -1.3564 -0.2659
 3919TIP3   OH233315   4.778   5.202   1.824  0.0400  1.0640 -0.1802
 3919TIP3    H133316   4.865   5.164   1.814  0.0293  1.2625 -1.0782
 3919TIP3    H233317   4.744   5.209   1.735 -1.5594 -0.5596  0.2252
 3920TIP3   OH233318   3.194   5.206   8.268 -0.2354 -0.0162  0.1022
 3920TIP3    H133319   3.154   5.222   8.354 -1.6918  0.3421 -0.6148
 3920TIP3    H233320   3.133   5.146   8.224  1.5106 -1.8337  0.0356
 3921TIP3   OH233321   6.344   2.372   7.122  0.2287 -0.1867 -0.4434
 3921TIP3    H133322   6.384   2.344   7.204 -1.1422 -0.6803  0.0821
 3921TIP3    H233323   6.418   2.400   7.068  1.1344  0.3972  1.0378
 3922TIP3   OH233324   6.677   2.135   1.489  0.2760  0.1063 -0.6371
 3922TIP3    H133325   6.703   2.221   1.523  2.5426 -0.5130 -0.6315
 3922TIP3    H233326   6.604   2.153   1.430  1.0470  2.1152 -1.0501
 3923TIP3   OH233327   1.642   2.606   8.559 -0.8170 -0.0176  0.0717
 3923TIP3    H133328   1.737   2.604   8.568 -0.7117  2.6589  0.1448
 3923TIP3    H233329   1.626   2.576   8.469  0.1100 -0.0872 -0.0795
 3924TIP3   OH233330   1.453   5.682   2.037 -0.0434 -0.8245 -0.2382
 3924TIP3    H133331   1.414   5.595   2.032 -0.7506 -0.6339  1.3395
 3924TIP3    H233332   1.418   5.720   2.117  2.5195 -0.2231  0.7223
 3925TIP3   OH233333   2.082   0.356   1.350  0.0916 -0.0508 -0.7775
 3925TIP3    H133334   2.108   0.335   1.440  1.7225  0.2333 -1.1658
 3925TIP3    H233335   2.105   0.278   1.300  0.9781  0.5161 -1.2697
 3926TIP3   OH233336   2.183   6.697   2.098 -0.3087 -0.1290 -0.1254
 3926TIP3    H133337   2.172   6.788   2.125 -1.9215 -0.0273 -0.9926
 3926TIP3    H233338   2.149   6.646   2.172 -0.8912  0.0372 -0.2686
 3927TIP3   OH233339   5.404   0.733   1.464  0.6662  0.0817  0.0897
 3927TIP3    H133340   5.317   0.714   1.429  0.4757  0.1421  0.5211
 3927TIP3    H233341   5.398   0.824   1.495  1.4830  0.7751 -1.6989
 3928TIP3   OH233342   0.868   0.097   8.552  0.2993 -0.0820 -0.2979
 3928TIP3    H133343   0.823   0.077   8.635 -1.0852 -1.7900 -1.3876
 3928TIP3    H233344   0.890   0.011   8.516 -0.8152  0.5146 -2.5770
 3929TIP3   OH233345   4.215   6.829   8.347  0.1544 -0.1991 -0.2969
 3929TIP3    H133346   4.120   6.823   8.357  0.3108 -0.0755  1.5590
 3929TIP3    H233347   4.229   6.915   8.308 -0.3700  1.3894  2.7087
 3930TIP3   OH233348   2.209   2.561   8.633  0.1951 -0.0947 -0.0405
 3930TIP3    H133349   2.187   2.587   8.543  0.6749 -1.6503 -0.6435
 3930TIP3    H233350   2.305   2.560   8.634  0.1912 -1.1056  0.1622
 3931TIP3   OH233351   1.493   2.468   1.391  0.3066 -1.0020  0.5676
 3931TIP3    H133352   1.586   2.480   1.413  0.5152 -0.9753 -0.2675
 3931TIP3    H233353   1.453   2.553   1.406 -0.1299 -1.6194  3.3272
 3932TIP3   OH233354   1.500   2.678   2.068  0.0141  0.0122  0.0346
 3932TIP3    H133355   1.496   2.755   2.125 -0.9155 -1.1665  1.6842
 3932TIP3    H233356   1.476   2.710   1.982  0.8183  1.7634  0.4194
 3933TIP3   OH233357   2.231   3.146   1.864 -0.2013 -0.0450  0.0267
 3933TIP3    H133358   2.296   3.179   1.803  0.0465  0.6342  0.6572
 3933TIP3    H233359   2.200   3.223   1.912  0.5416 -0.7274  1.6632
 3934TIP3   OH233360   6.549   3.688   0.870  0.1482 -0.6265  0.1278
 3934TIP3    H133361   6.465   3.732   0.886  0.0221 -1.1818  1.0876
 3934TIP3    H233362   6.611   3.759   0.856 -0.5633 -0.2070 -1.1363
 3935TIP3   OH233363   3.142   4.721   2.992  0.1670  0.1024  0.5253
 3935TIP3    H133364   3.138   4.740   3.086 -1.2896 -2.0765  0.9906
 3935TIP3    H233365   3.089   4.790   2.951  1.7773  1.7639  1.1048
 3936TIP3   OH233366   5.137   4.408   8.212 -0.0911  0.6819 -0.0203
 3936TIP3    H133367   5.155   4.326   8.167  0.0579  0.1697  0.9490
 3936TIP3    H233368   5.217   4.427   8.261 -0.5486  0.7680  0.7133
 3937TIP3   OH233369   2.464   4.197   1.366 -0.0291 -0.1092 -0.1236
 3937TIP3    H133370   2.414   4.129   1.321  0.5658 -0.2753 -0.5488
 3937TIP3    H233371   2.400   4.243   1.419 -0.4668 -0.8885  0.0302
 3938TIP3   OH233372   5.321   3.375   0.608 -0.9180 -0.0524 -0.0781
 3938TIP3    H133373   5.384   3.366   0.536  0.5466 -2.7648  1.3792
 3938TIP3    H233374   5.329   3.466   0.636  2.2820 -0.2341 -0.0798
 3939TIP3   OH233375   6.287   0.731   2.636 -0.6623  0.2555  0.8542
 3939TIP3    H133376   6.220   0.666   2.658 -1.2100  0.0322 -1.2510
 3939TIP3    H233377   6.242   0.792   2.577  0.4549  1.2843  1.0330
 3940TIP3   OH233378   4.063   1.240   2.280  0.3046 -0.4446  0.0910
 3940TIP3    H133379   4.133   1.175   2.288  1.0802  0.5961  3.1094
 3940TIP3    H233380   4.095   1.316   2.329 -1.3718  1.5487 -1.7205
 3941TIP3   OH233381   5.854   2.443   0.320  0.0793 -0.2961  0.4807
 3941TIP3    H133382   5.814   2.461   0.406 -2.0836 -2.2841  0.0157
 3941TIP3    H233383   5.898   2.359   0.332 -2.7917 -2.1796 -0.9565
 3942TIP3   OH233384   2.854   4.498   2.455  0.2341  0.0257 -0.3322
 3942TIP3    H133385   2.850   4.560   2.382 -0.1078  0.1226 -0.2333
 3942TIP3    H233386   2.864   4.552   2.533 -0.8329  0.0145 -0.1695
 3943TIP3   OH233387   5.601   3.574   1.511 -0.2705 -0.0205  0.3670
 3943TIP3    H133388   5.569   3.498   1.561  0.9826 -0.7628  0.0908
 3943TIP3    H233389   5.673   3.609   1.564  0.3753 -0.1719 -0.3889
 3944TIP3   OH233390   5.590   6.645   7.728  0.0191  0.4513  0.0191
 3944TIP3    H133391   5.647   6.692   7.668 -0.4150  2.2907  0.9789
 3944TIP3    H233392   5.503   6.680   7.712 -0.2813  0.1597  0.9246
 3945TIP3   OH233393   1.475   1.324   2.502  0.0616 -0.1619  0.5506
 3945TIP3    H133394   1.479   1.328   2.598 -0.1649  0.5118  0.5348
 3945TIP3    H233395   1.447   1.411   2.475 -1.3631 -0.7739 -0.0617
 3946TIP3   OH233396   0.249   1.990   1.158 -0.2458 -0.1787  0.2138
 3946TIP3    H133397   0.317   1.996   1.224 -0.6907  0.0553  0.6554
 3946TIP3    H233398   0.287   1.935   1.089 -0.6109 -2.4322  1.7147
 3947TIP3   OH233399   6.417   1.483   0.280  0.3706 -0.3900  0.1411
 3947TIP3    H133400   6.397   1.424   0.208 -1.6585 -0.7963  0.9741
 3947TIP3    H233401   6.475   1.549   0.242 -0.8966 -0.3952 -1.9589
 3948TIP3   OH233402   3.737   1.836   7.949 -0.5737  0.5947  0.0287
 3948TIP3    H133403   3.728   1.888   7.869  1.4013  1.7120  0.4683
 3948TIP3    H233404   3.772   1.897   8.014  2.4151 -1.3324  0.4170
 3949TIP3   OH233405   1.863   3.658   3.177 -0.5073 -0.2777 -0.6784
 3949TIP3    H133406   1.815   3.575   3.176 -1.2171  0.0895  0.6960
 3949TIP3    H233407   1.813   3.714   3.236 -0.1829  1.2303 -1.7854
 3950TIP3   OH233408   1.905   0.716   7.091  0.0651 -0.4249  0.1778
 3950TIP3    H133409   1.872   0.659   7.022 -0.9731 -0.0854  0.3821
 3950TIP3    H233410   1.918   0.658   7.166  2.2599 -1.0168 -0.5754
 3951TIP3   OH233411   5.046   5.099   1.309 -0.2540 -0.0009  0.0689
 3951TIP3    H133412   4.990   5.024   1.290  0.1867 -0.4956  0.6885
 3951TIP3    H233413   5.085   5.122   1.224 -1.0826  0.1094 -0.2928
 3952TIP3   OH233414   5.220   6.838   8.107  0.1837  0.3649 -0.2108
 3952TIP3    H133415   5.311   6.867   8.101  0.4178 -0.1548  0.6860
 3952TIP3    H233416   5.226   6.746   8.132 -0.5953  0.6805  1.2402
 3953TIP3   OH233417   6.525   3.151   0.285 -0.0289 -0.6603  0.3187
 3953TIP3    H133418   6.567   3.070   0.255 -1.7283 -1.5054  0.1155
 3953TIP3    H233419   6.556   3.218   0.223 -0.0863 -1.5425 -0.6989
 3954TIP3   OH233420   4.028   5.534   0.103  0.0963  0.0365 -0.0417
 3954TIP3    H133421   4.094   5.598   0.079  0.9668 -1.3806 -1.6474
 3954TIP3    H233422   3.982   5.573   0.177  1.1210  2.1192 -0.4416
 3955TIP3   OH233423   1.459   6.216   1.510  0.9448  0.0701 -0.0541
 3955TIP3    H133424   1.469   6.307   1.539  0.4717  0.0782  0.0989
 3955TIP3    H233425   1.545   6.191   1.478  1.3115  0.2748  0.7520
 3956TIP3   OH233426   3.211   1.676   8.620 -0.2730 -1.0695  0.0856
 3956TIP3    H133427   3.175   1.648   8.536  0.1419 -0.9332 -0.1396
 3956TIP3    H233428   3.306   1.675   8.607 -0.2262 -0.3417  0.3287
 3957TIP3   OH233429   3.434   2.951   7.280  0.4717  0.0079 -0.1833
 3957TIP3    H133430   3.446   2.895   7.204  0.8723 -0.1753  0.0163
 3957TIP3    H233431   3.492   3.026   7.264  0.5872 -0.0508 -0.0369
 3958TIP3   OH233432   5.421   1.528   2.212  0.2651 -0.2709 -0.5056
 3958TIP3    H133433   5.329   1.513   2.188 -0.0280  1.6364 -0.6813
 3958TIP3    H233434   5.417   1.558   2.303  0.5019  1.7103 -1.1095
 3959TIP3   OH233435   1.172   2.266   2.533 -0.3606  0.0407  0.0680
 3959TIP3    H133436   1.183   2.224   2.618  0.1970 -2.1271 -1.0001
 3959TIP3    H233437   1.077   2.273   2.523 -0.4285  1.2992  1.2758
 3960TIP3   OH233438   4.237   2.362   7.998  0.3133  0.0035 -0.4673
 3960TIP3    H133439   4.242   2.438   7.940 -1.0054 -0.1240 -0.7781
 3960TIP3    H233440   4.181   2.391   8.070  1.2568 -0.1145  0.3509
 3961TIP3   OH233441   2.254   6.825   8.140  0.5931 -0.2662 -0.7961
 3961TIP3    H133442   2.227   6.899   8.194  1.2575 -1.0899  0.7389
 3961TIP3    H233443   2.289   6.761   8.203 -1.4848 -2.6012 -1.8422
 3962TIP3   OH233444   0.256   5.933   0.769  0.6458  0.5566  0.0486
 3962TIP3    H133445   0.173   5.910   0.810  0.1175  0.6913 -0.9196
 3962TIP3    H233446   0.289   6.006   0.821  0.2178  0.4272  0.5085
 3963TIP3   OH233447   5.262   6.270   8.442  0.2711  0.7334  0.1752
 3963TIP3    H133448   5.292   6.300   8.356  0.3168  0.9524  0.2668
 3963TIP3    H233449   5.335   6.290   8.500  0.2952  0.4562  0.2391
 3964TIP3   OH233450   1.421   4.764   0.337 -0.3204 -0.2448  0.0245
 3964TIP3    H133451   1.457   4.701   0.275 -0.4889 -0.6738  0.3534
 3964TIP3    H233452   1.390   4.837   0.283  2.0512  0.6710 -0.2021
 3965TIP3   OH233453   4.119   0.697   2.245 -0.2159 -0.0761 -0.2434
 3965TIP3    H133454   4.147   0.606   2.257 -0.0537 -0.1051 -0.8248
 3965TIP3    H233455   4.091   0.701   2.154 -2.1758 -0.0656  0.3073
 3966TIP3   OH233456   6.393   6.458   8.600 -0.4865 -0.3783  0.5398
 3966TIP3    H133457   6.353   6.544   8.614 -0.4117 -0.1456 -0.5594
 3966TIP3    H233458   6.323   6.395   8.618 -0.0044 -0.2338  3.4050
 3967TIP3   OH233459   5.904   2.234   0.019  0.1667 -0.1660  0.1716
 3967TIP3    H133460   5.949   2.176   0.081 -0.8650 -1.0021  0.1681
 3967TIP3    H233461   5.885   2.178  -0.056 -0.4802  0.2921 -0.0064
 3968TIP3   OH233462   6.191   2.721   0.790 -0.2726  0.0138 -0.3766
 3968TIP3    H133463   6.224   2.806   0.821 -0.0672  0.2685 -1.2416
 3968TIP3    H233464   6.269   2.677   0.756 -0.0421 -1.3187  1.7412
 3969TIP3   OH233465   2.750   4.605   1.902  0.6017 -0.3163  0.7594
 3969TIP3    H133466   2.739   4.534   1.839 -1.6450 -1.3077  2.1332
 3969TIP3    H233467   2.663   4.646   1.908  1.6962  2.3104  0.3723
 3970TIP3   OH233468   1.989   5.031   1.050  0.0925  0.2775 -0.1588
 3970TIP3    H133469   2.062   4.985   1.090 -0.0327  1.1199  1.0623
 3970TIP3    H233470   1.931   4.961   1.018 -0.1703 -0.4419  1.8027
 3971TIP3   OH233471   6.530   2.238   1.060 -0.5908  0.8062  0.8478
 3971TIP3    H133472   6.545   2.204   0.973 -0.5263  1.5584  0.5533
 3971TIP3    H233473   6.613   2.224   1.107 -0.2040  1.5365  0.3955
 3972TIP3   OH233474   1.337   4.997   8.534  0.6283 -0.2411  0.0577
 3972TIP3    H133475   1.280   4.990   8.610  1.0658  1.8622  0.6317
 3972TIP3    H233476   1.283   4.966   8.461 -1.1327  1.2670  0.6439
 3973TIP3   OH233477   4.679   3.937   1.349  0.4063  0.4408 -0.2657
 3973TIP3    H133478   4.679   3.990   1.269 -1.0024 -1.1574 -1.3898
 3973TIP3    H233479   4.591   3.946   1.384  0.6752  0.2191  0.4858
 3974TIP3   OH233480   2.348   5.339   1.189  0.2890  1.0953 -0.4343
 3974TIP3    H133481   2.291   5.384   1.252  1.4189  2.3891 -0.2869
 3974TIP3    H233482   2.428   5.391   1.188  1.8783 -1.1596  0.0713
 3975TIP3   OH233483   5.981   3.996   1.345  0.3965  0.5657 -0.0168
 3975TIP3    H133484   6.017   4.048   1.416  0.5022  0.8639 -0.2838
 3975TIP3    H233485   5.916   4.053   1.304  0.0353  0.2422  0.0995
 3976TIP3   OH233486   4.038   1.928   1.957 -0.1169  0.0692 -0.0348
 3976TIP3    H133487   4.055   1.995   1.890  0.8193 -0.1346 -0.0087
 3976TIP3    H233488   3.978   1.868   1.914 -1.0472  0.9637 -0.0281
 3977TIP3   OH233489   0.699   3.877   2.310 -0.3602 -0.0991 -1.2937
 3977TIP3    H133490   0.749   3.837   2.381 -1.2998  3.4656  1.6553
 3977TIP3    H233491   0.765   3.906   2.247  0.8641 -0.0112 -0.0179
 3978TIP3   OH233492   3.136   4.389   1.413  0.6140 -0.3069  0.6349
 3978TIP3    H133493   3.217   4.339   1.420  1.0873  0.4857  0.9004
 3978TIP3    H233494   3.084   4.341   1.347  1.4449 -0.6112  0.1850
 3979TIP3   OH233495   6.258   3.556   0.867 -0.1404 -0.4622  0.2739
 3979TIP3    H133496   6.293   3.537   0.779 -0.3715  1.5021 -0.2945
 3979TIP3    H233497   6.258   3.652   0.872 -3.7428 -0.3476  0.9144
 3980TIP3   OH233498   5.113   6.454   0.049 -0.5388  0.6307 -0.3336
 3980TIP3    H133499   5.100   6.440  -0.045 -1.8882  1.4931 -0.3009
 3980TIP3    H233500   5.200   6.494   0.055  0.0071 -0.3938 -1.0999
 3981TIP3   OH233501   0.765   6.260   1.552 -0.5800 -0.4483 -0.6945
 3981TIP3    H133502   0.726   6.343   1.579  2.1923 -0.1003  3.1435
 3981TIP3    H233503   0.789   6.273   1.460  2.9746  4.6139  0.5389
 3982TIP3   OH233504   5.343   0.443   1.223  0.3483  0.6580 -0.0402
 3982TIP3    H133505   5.300   0.387   1.288 -2.8683  1.4094 -1.3363
 3982TIP3    H233506   5.290   0.522   1.221  0.7409  0.9584 -3.0635
 3983TIP3   OH233507   3.758   5.419   8.120  0.2646  0.7170  0.1944
 3983TIP3    H133508   3.828   5.373   8.075  1.8898  1.6166  1.6556
 3983TIP3    H233509   3.695   5.352   8.142 -0.7404  0.2573 -3.4816
 3984TIP3   OH233510   5.983   3.182   0.755 -0.1171 -0.4703 -0.4382
 3984TIP3    H133511   5.978   3.277   0.751  0.5972 -0.3974  0.1704
 3984TIP3    H233512   5.935   3.152   0.678  1.2728  0.4252 -1.7089
 3985TIP3   OH233513   4.261   4.011   1.930 -0.4063 -0.7429  0.1642
 3985TIP3    H133514   4.197   3.957   1.883 -0.1266 -1.2938  0.4020
 3985TIP3    H233515   4.310   3.948   1.983  0.7220 -0.4132 -0.4445
 3986TIP3   OH233516   5.173   5.365   8.565 -0.2199 -0.2094  0.4637
 3986TIP3    H133517   5.081   5.356   8.590  0.2731 -0.6344  2.3413
 3986TIP3    H233518   5.176   5.341   8.473 -2.2206  1.3720 -0.0848
 3987TIP3   OH233519   1.856   1.532   0.395  0.0470  0.2445 -0.2521
 3987TIP3    H133520   1.781   1.558   0.448  0.3855 -1.0682  0.9309
 3987TIP3    H233521   1.923   1.504   0.459  1.4616  1.1507 -1.2767
 3988TIP3   OH233522   3.673   5.770   0.254  0.0803  0.4433 -0.3165
 3988TIP3    H133523   3.623   5.816   0.187 -0.5210  1.6532  0.9161
 3988TIP3    H233524   3.762   5.803   0.245 -0.3841  2.1457  0.7104
 3989TIP3   OH233525   1.726   1.300   0.724  0.3564 -0.4139  0.1393
 3989TIP3    H133526   1.658   1.272   0.786  0.4184  2.0205  1.4130
 3989TIP3    H233527   1.805   1.253   0.752  0.0572 -0.4088  1.0193
 3990TIP3   OH233528   2.249   5.092   8.224 -0.1322 -0.1681  0.3993
 3990TIP3    H133529   2.180   5.077   8.288  1.6703  0.5202  2.6304
 3990TIP3    H233530   2.308   5.017   8.233  0.6183  0.3846  0.2063
 3991TIP3   OH233531   0.914   2.880   8.017 -0.4110 -0.2612  0.3037
 3991TIP3    H133532   0.884   2.961   8.057 -1.3090 -0.3107 -0.2607
 3991TIP3    H233533   1.009   2.881   8.030 -0.5952  0.0551  1.8147
 3992TIP3   OH233534   5.129   0.812   6.865 -0.5481 -0.0627  0.1370
 3992TIP3    H133535   5.188   0.866   6.813 -1.1995 -0.6228 -1.2311
 3992TIP3    H233536   5.099   0.870   6.935  0.5171  0.6408  0.0317
 3993TIP3   OH233537   6.295   3.580   1.547  0.8004  0.1716  0.0167
 3993TIP3    H133538   6.266   3.513   1.485 -0.3532 -0.5730  1.2965
 3993TIP3    H233539   6.214   3.609   1.591  1.5370  0.8803  0.9631
 3994TIP3   OH233540   5.634   2.774   8.553 -0.1307 -0.5172 -0.5796
 3994TIP3    H133541   5.635   2.868   8.571 -1.3763 -0.2571 -1.7451
 3994TIP3    H233542   5.620   2.734   8.639 -0.6462  0.4206 -0.2074
 3995TIP3   OH233543   6.384   1.372   7.743  0.2086 -0.8127  0.0369
 3995TIP3    H133544   6.447   1.301   7.728  0.9193  0.2286 -2.5821
 3995TIP3    H233545   6.326   1.368   7.667 -1.1740  0.0052  1.0090
 3996TIP3   OH233546   4.985   3.291   7.941  0.5055  0.0894  0.0289
 3996TIP3    H133547   4.955   3.375   7.906 -0.7613 -0.2236  0.2840
 3996TIP3    H233548   4.949   3.226   7.881 -1.2187 -0.4226  1.5312
 3997TIP3   OH233549   1.519   4.576   0.172  0.0768  0.5620  0.4853
 3997TIP3    H133550   1.509   4.507   0.107  2.0307  2.2764 -1.8486
 3997TIP3    H233551   1.604   4.558   0.212  0.7907  1.7405 -0.4258
 3998TIP3   OH233552   1.882   2.519   2.451 -0.1429 -0.4436 -0.7430
 3998TIP3    H133553   1.794   2.522   2.489 -0.3661 -0.8965 -1.2011
 3998TIP3    H233554   1.890   2.603   2.404 -0.0666 -0.1114 -0.1402
 3999TIP3   OH233555   0.863   6.017   8.236 -0.1692  0.0478  0.3386
 3999TIP3    H133556   0.807   5.948   8.201 -1.2035  1.0329  0.0061
 3999TIP3    H233557   0.809   6.096   8.233  0.6854  0.7126  1.5331
 4000TIP3   OH233558   6.790   3.106   8.565  0.0697 -0.7492  0.1027
 4000TIP3    H133559   6.817   3.154   8.643 -0.5229  0.5979 -0.4864
 4000TIP3    H233560   6.714   3.054   8.593 -0.6295  0.3300  0.2539
 4001TIP3   OH233561   2.318   5.884   1.976 -0.2366  0.5448  0.1592
 4001TIP3    H133562   2.291   5.923   2.059  0.0585  0.1958  0.4262
 4001TIP3    H233563   2.412   5.901   1.971 -0.4524  1.5301 -0.6401
 4002TIP3   OH233564   5.185   2.378   7.602  0.1004 -0.6326  0.1532
 4002TIP3    H133565   5.221   2.292   7.627  1.7023 -0.0673 -0.0513
 4002TIP3    H233566   5.238   2.441   7.650 -0.3586  0.2802 -0.5057
 4003TIP3   OH233567   6.502   6.063   1.292 -0.6442 -1.2429 -0.6375
 4003TIP3    H133568   6.575   6.078   1.231  0.7735  0.2154  1.2790
 4003TIP3    H233569   6.545   6.043   1.375 -2.4538 -0.9199  0.4309
 4004TIP3   OH233570   5.359   4.102   1.963 -0.2236  0.2236 -0.0854
 4004TIP3    H133571   5.293   4.032   1.959 -0.2796  0.2262  0.6313
 4004TIP3    H233572   5.392   4.098   2.053  1.1179 -0.1059 -0.5683
 4005TIP3   OH233573   5.447   1.929   8.568  0.3910 -0.2711 -0.1103
 4005TIP3    H133574   5.395   1.999   8.609  0.2277  0.3555 -1.3323
 4005TIP3    H233575   5.410   1.921   8.480  1.4150 -0.8373 -0.5005
 4006TIP3   OH233576   3.854   3.572   0.503  0.2010  0.6706 -0.0683
 4006TIP3    H133577   3.830   3.665   0.503 -1.0165  0.4743  2.9782
 4006TIP3    H233578   3.896   3.558   0.588  2.7259 -1.0870 -1.4702
 4007TIP3   OH233579   0.718   2.061   0.252  0.2308  0.0686 -0.1085
 4007TIP3    H133580   0.692   2.051   0.343  1.4264  1.2033  0.3796
 4007TIP3    H233581   0.777   1.987   0.235  1.2844  0.7522  0.5294
 4008TIP3   OH233582   3.626   5.283   8.572 -0.6452 -0.5117  0.5664
 4008TIP3    H133583   3.539   5.300   8.607 -0.8864  0.3018 -0.3899
 4008TIP3    H233584   3.674   5.365   8.584 -0.7159 -0.2202 -0.8978
 4009TIP3   OH233585   0.282   6.616   3.043 -0.2886 -0.2055  0.0457
 4009TIP3    H133586   0.208   6.570   3.084 -1.5911 -0.0533 -1.9440
 4009TIP3    H233587   0.326   6.549   2.991  0.6543 -0.1723  0.7868
 4010TIP3   OH233588   6.005   1.276   0.985 -0.1158 -0.6341  0.4363
 4010TIP3    H133589   5.955   1.294   0.905  1.1703  0.9760 -0.0629
 4010TIP3    H233590   6.088   1.241   0.954  0.2504 -0.3404  1.0703
 4011TIP3   OH233591   2.696   0.796   0.647 -0.3145 -0.1191  0.3322
 4011TIP3    H133592   2.617   0.838   0.613  0.3142  0.4289 -0.5074
 4011TIP3    H233593   2.737   0.863   0.702 -0.3802 -0.3615  0.6752
 4012TIP3   OH233594   5.352   2.437   3.001 -0.3378  0.1734 -0.3055
 4012TIP3    H133595   5.359   2.435   2.906 -0.0418 -0.1889 -0.2789
 4012TIP3    H233596   5.268   2.397   3.020 -1.4752  2.3248 -0.5140
 4013TIP3   OH233597   0.414   4.584   0.619  0.4179 -0.0894  0.5024
 4013TIP3    H133598   0.460   4.661   0.588 -0.6260  0.3159 -0.0901
 4013TIP3    H233599   0.409   4.595   0.714  0.1115  0.6690  0.4032
 4014TIP3   OH233600   5.780   0.812   2.778  0.0654  0.0310  0.6778
 4014TIP3    H133601   5.811   0.724   2.800  0.5334 -0.0481 -0.2810
 4014TIP3    H233602   5.797   0.864   2.857  2.1694 -0.1315  0.3775
 4015TIP3   OH233603   2.430   6.805   7.281  0.8164  0.4191  0.1207
 4015TIP3    H133604   2.358   6.865   7.302  1.6894  1.0353  1.4881
 4015TIP3    H233605   2.391   6.743   7.219 -1.2980 -0.1313  1.8673
 4016TIP3   OH233606   5.735   1.758   0.899  0.1910 -0.2498 -0.2128
 4016TIP3    H133607   5.760   1.681   0.848 -2.6494 -0.3737 -1.6261
 4016TIP3    H233608   5.671   1.725   0.963 -0.0701  0.7135  0.0418
 4017TIP3   OH233609   0.227   0.990   0.401  0.0731  0.6189 -0.0919
 4017TIP3    H133610   0.319   1.007   0.423 -0.4269  0.9866  1.9414
 4017TIP3    H233611   0.181   1.068   0.432 -1.0992 -0.2430  0.3782
 4018TIP3   OH233612   3.262   6.325   7.455 -0.8858 -0.0398 -0.0222
 4018TIP3    H133613   3.332   6.317   7.519  0.1993  2.4553 -0.7830
 4018TIP3    H233614   3.297   6.284   7.376 -0.1862  1.2832 -0.4282
 4019TIP3   OH233615   4.310   1.790   0.773 -0.1083  0.2433 -0.2088
 4019TIP3    H133616   4.298   1.724   0.705 -0.2312 -2.3325  2.1531
 4019TIP3    H233617   4.402   1.781   0.798 -0.2177  0.7519  0.3766
 4020TIP3   OH233618   5.261   3.771   2.831  0.7078  0.0147  0.0447
 4020TIP3    H133619   5.318   3.748   2.904  1.2867  0.4834 -0.2461
 4020TIP3    H233620   5.224   3.856   2.855 -2.1007 -1.5011  1.5118
 4021TIP3   OH233621   4.690   3.808   2.800  0.5630  0.4714  0.1684
 4021TIP3    H133622   4.659   3.899   2.797 -0.5966  0.0802 -0.0122
 4021TIP3    H233623   4.660   3.770   2.718 -1.4813 -0.8708  1.4673
 4022TIP3   OH233624   3.231   0.401   8.605  0.4357 -0.2838  0.3688
 4022TIP3    H133625   3.270   0.353   8.678 -0.6053  0.3341  1.3796
 4022TIP3    H233626   3.172   0.464   8.647 -0.1691  0.1152 -1.0110
 4023TIP3   OH233627   0.843   1.945   1.146 -0.2230  0.4034  0.2186
 4023TIP3    H133628   0.792   2.017   1.109  1.8702  0.5614 -2.6631
 4023TIP3    H233629   0.932   1.960   1.115  1.0532 -1.4146  2.6667
 4024TIP3   OH233630   2.998   5.111   2.454  0.1093  0.1226 -0.1866
 4024TIP3    H133631   3.038   5.045   2.510  1.1893  1.3673  0.5358
 4024TIP3    H233632   2.977   5.063   2.373  1.5363 -0.9465  0.0361
 4025TIP3   OH233633   0.032   5.709   7.328 -0.3148  0.1526 -0.2497
 4025TIP3    H133634   0.091   5.751   7.389  0.1208 -1.1882  0.2790
 4025TIP3    H233635   0.082   5.635   7.292 -0.5379  0.9207 -2.2615
 4026TIP3   OH233636   3.541   3.792   8.634  0.1615 -0.1401  0.1578
 4026TIP3    H133637   3.486   3.723   8.596  0.1593 -0.4232  0.6682
 4026TIP3    H233638   3.518   3.792   8.727  0.7876 -0.0349  0.3154
 4027TIP3   OH233639   4.405   4.144   1.694 -0.1039  0.3695 -0.1922
 4027TIP3    H133640   4.364   4.076   1.747  1.6029 -0.4055  0.1986
 4027TIP3    H233641   4.385   4.226   1.740 -0.6215 -0.0655  0.3572
 4028TIP3   OH233642   0.387   2.577   0.005  0.7180  0.0145  0.0445
 4028TIP3    H133643   0.429   2.601  -0.077  0.2504 -0.7086 -0.4124
 4028TIP3    H233644   0.366   2.485  -0.004  0.5822 -0.0564  0.9477
 4029TIP3   OH233645   0.616   0.679   8.372  0.1237  0.5878  0.8694
 4029TIP3    H133646   0.573   0.623   8.308  1.6733  0.7063 -0.3363
 4029TIP3    H233647   0.604   0.768   8.337 -0.1517  0.7747  1.4370
 4030TIP3   OH233648   0.088   6.731   8.155 -0.4990  0.2659  0.8575
 4030TIP3    H133649   0.015   6.764   8.102 -0.6812 -1.3367  0.0444
 4030TIP3    H233650   0.166   6.759   8.108 -0.6564 -1.4884 -0.6025
 4031TIP3   OH233651   4.985   5.745   8.076 -0.0453 -0.0750  0.3190
 4031TIP3    H133652   4.977   5.650   8.072  0.4926 -0.1460  0.6874
 4031TIP3    H233653   5.073   5.763   8.042 -0.0768  0.2739  0.4137
 4032TIP3   OH233654   5.910   4.833   7.698  0.3790 -0.1188 -0.3862
 4032TIP3    H133655   5.939   4.743   7.689 -0.5174 -0.4341 -0.2211
 4032TIP3    H233656   5.930   4.874   7.614 -0.5642 -0.8773 -1.0044
 4033TIP3   OH233657   2.498   4.163   0.523  0.2613  0.4066  0.0760
 4033TIP3    H133658   2.430   4.219   0.560  2.0386  1.2508  2.3162
 4033TIP3    H233659   2.561   4.223   0.484  0.3053 -0.2995 -0.9858
 4034TIP3   OH233660   4.225   0.442   0.707 -0.5276  0.8136 -0.4494
 4034TIP3    H133661   4.244   0.466   0.798 -0.8495  1.1828 -0.4713
 4034TIP3    H233662   4.129   0.440   0.703 -0.5211  1.0682 -0.8421
 4035TIP3   OH233663   1.483   5.523   2.338 -0.2093  0.1829 -0.3664
 4035TIP3    H133664   1.426   5.598   2.324 -0.7703 -0.2983 -0.6671
 4035TIP3    H233665   1.537   5.548   2.414 -1.4968  0.2434  0.5548
 4036TIP3   OH233666   3.159   4.113   3.108  0.0189  0.2451  0.2044
 4036TIP3    H133667   3.204   4.129   3.191 -0.0093  0.5309  0.1648
 4036TIP3    H233668   3.215   4.050   3.062 -0.9273 -1.4068  1.2372
 4037TIP3   OH233669   4.963   4.151   0.774 -0.5782  0.0775  0.1865
 4037TIP3    H133670   4.914   4.081   0.732 -1.2221  1.1222 -0.8559
 4037TIP3    H233671   4.942   4.142   0.867  1.7297 -2.9465  0.5579
 4038TIP3   OH233672   2.880   1.082   1.532 -0.9037 -0.3629  0.6074
 4038TIP3    H133673   2.808   1.082   1.595  0.3802  0.6067  2.1414
 4038TIP3    H233674   2.931   1.159   1.554  0.1836 -0.5884 -0.9673
 4039TIP3   OH233675   0.245   0.455   7.936 -0.3728  0.0448  0.2972
 4039TIP3    H133676   0.289   0.405   7.867  2.0927  0.2925  1.6030
 4039TIP3    H233677   0.268   0.411   8.017  1.0619  2.6319  1.4216
 4040TIP3   OH233678   3.346   3.981   7.837  0.2556 -0.3090  0.5609
 4040TIP3    H133679   3.334   3.887   7.826 -2.1489 -0.1639  1.3802
 4040TIP3    H233680   3.307   4.020   7.759 -0.4528  0.0664  1.0934
 4041TIP3   OH233681   4.522   2.605   8.015 -0.4115  0.3258  0.0565
 4041TIP3    H133682   4.599   2.633   8.065 -0.8251 -2.1406  2.2624
 4041TIP3    H233683   4.525   2.659   7.935  3.7893  0.0892 -0.1691
 4042TIP3   OH233684   6.238   0.869   8.355 -0.4620 -0.1203  0.2698
 4042TIP3    H133685   6.247   0.953   8.400 -0.5684  0.1782 -0.2567
 4042TIP3    H233686   6.302   0.812   8.398  1.8267  1.0755 -1.3548
 4043TIP3   OH233687   2.955   3.327   2.552 -0.0574  0.4406 -0.3287
 4043TIP3    H133688   2.992   3.311   2.639  0.6511 -1.6635 -0.9545
 4043TIP3    H233689   2.861   3.313   2.563  0.2110 -1.4389 -0.2002
 4044TIP3   OH233690   5.605   5.014   0.832 -0.3665 -0.1422  0.1183
 4044TIP3    H133691   5.553   5.053   0.903 -3.1348  1.3690 -2.4950
 4044TIP3    H233692   5.551   4.941   0.800 -0.0718  0.3425 -1.5696
 4045TIP3   OH233693   2.161   6.164   0.006  0.2341 -0.1397  0.2606
 4045TIP3    H133694   2.212   6.117  -0.060  0.6167  0.7956 -0.1331
 4045TIP3    H233695   2.071   6.160  -0.026  0.4272  0.3921 -0.3985
 4046TIP3   OH233696   1.477   4.021   7.627 -0.1178 -0.7248 -0.4314
 4046TIP3    H133697   1.401   3.988   7.676 -0.3691 -0.9972 -1.0004
 4046TIP3    H233698   1.543   3.952   7.635  0.1078 -0.4545  0.1291
 4047TIP3   OH233699   4.899   5.895   0.955  0.1957 -0.1496 -0.1561
 4047TIP3    H133700   4.825   5.940   0.914  0.1105 -0.1533 -0.0078
 4047TIP3    H233701   4.863   5.812   0.985 -0.3538  0.8299  2.0844
 4048TIP3   OH233702   4.897   4.724   0.519 -0.2433 -0.1142  0.5346
 4048TIP3    H133703   4.826   4.665   0.543 -0.3462 -0.3966 -0.4064
 4048TIP3    H233704   4.883   4.802   0.573 -1.5822  0.0451  0.0054
 4049TIP3   OH233705   5.949   2.186   0.383 -0.0750  0.4226  0.4029
 4049TIP3    H133706   5.912   2.114   0.435 -1.2623  1.5467  1.1737
 4049TIP3    H233707   6.007   2.143   0.321 -1.1281 -1.2652  0.5152
 4050TIP3   OH233708   5.157   0.397   0.239  0.3085 -0.7592  0.1006
 4050TIP3    H133709   5.195   0.368   0.322  0.4719 -1.5876 -0.2613
 4050TIP3    H233710   5.063   0.406   0.257 -0.3126 -4.4998 -0.5369
 4051TIP3   OH233711   5.805   0.453   7.422  0.2382 -0.1507  0.1023
 4051TIP3    H133712   5.764   0.405   7.351  1.2848 -0.0113 -0.6075
 4051TIP3    H233713   5.845   0.385   7.477  0.3206 -0.1927 -0.0094
 4052TIP3   OH233714   0.109   3.943   1.537 -0.2610  0.0023 -0.1072
 4052TIP3    H133715   0.015   3.935   1.550 -0.1082 -1.1832  0.4089
 4052TIP3    H233716   0.123   4.035   1.518 -1.7873 -0.1749 -2.4728
 4053TIP3   OH233717   5.653   1.598   6.723 -0.2007  0.1060  0.0974
 4053TIP3    H133718   5.746   1.588   6.740 -0.4334 -2.8627  0.1731
 4053TIP3    H233719   5.645   1.598   6.628 -0.1526 -0.3687  0.0892
 4054TIP3   OH233720   2.456   5.946   1.232  0.4236  0.1592 -0.2769
 4054TIP3    H133721   2.517   5.882   1.268  0.9108  0.6102 -0.2922
 4054TIP3    H233722   2.387   5.953   1.298  3.1818  3.8706  2.6577
 4055TIP3   OH233723   0.199   0.571   1.255  0.3605  0.0355  0.2668
 4055TIP3    H133724   0.173   0.507   1.321 -2.3577  1.9517  1.2427
 4055TIP3    H233725   0.151   0.544   1.176  0.5755 -0.0946  0.1803
 4056TIP3   OH233726   1.180   3.525   1.184  0.3493 -0.0829 -0.1072
 4056TIP3    H133727   1.122   3.515   1.259  0.9948  1.5816  0.6691
 4056TIP3    H233728   1.149   3.604   1.140  2.2351  1.1244  0.5956
 4057TIP3   OH233729   4.670   5.896   8.582  0.9547  0.4116 -0.3460
 4057TIP3    H133730   4.712   5.844   8.650  0.8807  1.1913  0.3145
 4057TIP3    H233731   4.697   5.855   8.500  1.1923 -0.4346  0.1422
 4058TIP3   OH233732   2.508   3.124   0.671 -0.3389 -0.4757  0.6433
 4058TIP3    H133733   2.561   3.197   0.640 -1.6033  0.1517 -0.1424
 4058TIP3    H233734   2.454   3.162   0.741  1.1955 -1.4437  2.4423
 4059TIP3   OH233735   2.334   1.177   8.386  0.1722  0.3908 -0.1131
 4059TIP3    H133736   2.383   1.095   8.377  0.8565  0.8250 -0.4073
 4059TIP3    H233737   2.258   1.165   8.329 -1.6762 -1.4181  2.4711
 4060TIP3   OH233738   6.100   5.079   0.704  0.3299 -0.0378  0.9042
 4060TIP3    H133739   6.018   5.038   0.731 -1.1766  1.7225 -0.7126
 4060TIP3    H233740   6.091   5.092   0.610  1.1159  2.9785  1.1334
 4061TIP3   OH233741   3.562   2.848   1.355  0.1772  0.3282 -0.3127
 4061TIP3    H133742   3.508   2.927   1.365 -0.4024 -0.1930  0.8910
 4061TIP3    H233743   3.529   2.806   1.276  0.0375  0.9511 -0.5887
 4062TIP3   OH233744   2.052   1.608   6.709 -0.0275 -0.0144  0.5516
 4062TIP3    H133745   2.068   1.694   6.669 -0.1368  1.1824  2.9280
 4062TIP3    H233746   1.957   1.597   6.706  0.0660 -0.6523 -0.8415
 4063TIP3   OH233747   6.413   0.369   1.094  0.0244 -0.3135 -0.0711
 4063TIP3    H133748   6.389   0.397   1.006 -1.6850 -2.1351 -0.2650
 4063TIP3    H233749   6.352   0.298   1.114 -0.1230  0.5341  2.8918
 4064TIP3   OH233750   6.520   3.712   1.631  0.0960 -0.1630  0.0636
 4064TIP3    H133751   6.589   3.652   1.602  0.4128  0.3281 -0.2322
 4064TIP3    H233752   6.439   3.662   1.625  0.5979 -1.3047  2.0260
 4065TIP3   OH233753   1.790   1.109   8.458  0.0225 -0.0025  0.8550
 4065TIP3    H133754   1.762   1.129   8.368  0.0890  0.3625  0.9124
 4065TIP3    H233755   1.884   1.095   8.451  0.1133  0.5314  0.9460
 4066TIP3   OH233756   5.358   6.296   0.010 -0.1660 -0.0108  0.1656
 4066TIP3    H133757   5.273   6.287   0.052  0.5914 -1.4570  1.4849
 4066TIP3    H233758   5.420   6.259   0.073  1.6097  2.1249 -0.2043
 4067TIP3   OH233759   4.470   3.182   8.057 -0.1366 -0.4116  0.3333
 4067TIP3    H133760   4.556   3.183   8.015 -0.3845  1.1074 -0.2076
 4067TIP3    H233761   4.411   3.147   7.991 -0.3995  1.2805 -0.3746
 4068TIP3   OH233762   5.993   1.379   8.550 -0.1227 -0.0470 -0.5629
 4068TIP3    H133763   6.013   1.363   8.642 -0.5792 -1.8050 -0.7330
 4068TIP3    H233764   5.982   1.474   8.543  0.0455  0.1141  1.1613
 4069TIP3   OH233765   2.758   3.555   1.512  0.4071  0.0669 -0.6230
 4069TIP3    H133766   2.831   3.530   1.454  1.7468  1.6975  0.2622
 4069TIP3    H233767   2.752   3.650   1.503 -0.7200  0.1059  0.3553
 4070TIP3   OH233768   3.460   1.633   1.158  0.3832  0.1468 -0.5046
 4070TIP3    H133769   3.492   1.544   1.167  0.1950 -0.2447 -3.0888
 4070TIP3    H233770   3.513   1.671   1.088 -1.2061  1.2072 -1.2035
 4071TIP3   OH233771   1.025   6.694   1.248  0.4981  0.0978  0.0265
 4071TIP3    H133772   1.101   6.665   1.298  0.1952 -2.7093 -0.9326
 4071TIP3    H233773   1.060   6.714   1.161  0.3396  0.0704 -0.0442
 4072TIP3   OH233774   4.455   4.541   1.044  0.1652  0.0037  0.1037
 4072TIP3    H133775   4.411   4.616   1.004  0.4952 -0.7253 -1.6757
 4072TIP3    H233776   4.520   4.513   0.980 -2.3883 -4.1042 -1.0821
 4073TIP3   OH233777   6.304   0.427   0.245 -0.3536  0.3291 -0.5586
 4073TIP3    H133778   6.387   0.420   0.198  1.2967 -0.6355  2.2298
 4073TIP3    H233779   6.308   0.512   0.288  0.3917 -0.6652  1.4834
 4074TIP3   OH233780   5.436   3.989   1.712  0.1600  0.1974 -0.6972
 4074TIP3    H133781   5.360   3.956   1.663  0.5752 -1.3412 -0.3688
 4074TIP3    H233782   5.398   4.028   1.791 -0.3057 -0.5103 -0.5603
 4075TIP3   OH233783   0.333   6.642   0.506 -0.3253  0.7676  0.0932
 4075TIP3    H133784   0.296   6.621   0.420 -0.6629 -1.0967  0.6381
 4075TIP3    H233785   0.310   6.733   0.521 -1.1253  0.8340 -1.3617
 4076TIP3   OH233786   5.594   5.260   6.627  0.0393 -0.0640 -0.4760
 4076TIP3    H133787   5.613   5.200   6.699 -0.5809 -0.5142 -0.6739
 4076TIP3    H233788   5.678   5.301   6.606  0.8133 -1.9360 -1.3005
 4077TIP3   OH233789   5.817   6.448   2.391 -0.1672  0.2676  0.1008
 4077TIP3    H133790   5.895   6.423   2.342 -0.3410 -0.7891  0.3320
 4077TIP3    H233791   5.813   6.386   2.464 -0.3046  1.3630  1.0579
 4078TIP3   OH233792   5.098   6.286   8.041 -0.4130  0.2480 -0.3816
 4078TIP3    H133793   5.099   6.190   8.047 -4.0673  0.0821 -0.2860
 4078TIP3    H233794   5.086   6.304   7.948 -1.6724  0.4775 -0.1936
 4079TIP3   OH233795   3.055   3.116   0.213  0.4259 -0.6987  0.4501
 4079TIP3    H133796   3.080   3.202   0.246 -2.4278  0.8032 -0.8676
 4079TIP3    H233797   3.050   3.061   0.291  1.0727  0.6787  1.5059
 4080TIP3   OH233798   0.314   2.234   8.015 -0.4978  0.3282 -0.0950
 4080TIP3    H133799   0.338   2.176   8.088 -1.6882 -0.0491  0.0184
 4080TIP3    H233800   0.284   2.175   7.946 -0.9007  0.7707 -0.2995
 4081TIP3   OH233801   1.886   2.099   3.208 -0.1639 -0.3958 -0.1123
 4081TIP3    H133802   1.922   2.016   3.238 -1.1276 -0.0291  2.3430
 4081TIP3    H233803   1.953   2.164   3.231 -0.7539 -0.1574  1.0420
 4082TIP3   OH233804   1.246   0.307   7.459  0.4226 -0.3988  0.2449
 4082TIP3    H133805   1.223   0.389   7.416  0.4040 -0.3650  0.3204
 4082TIP3    H233806   1.270   0.249   7.387  1.5525  0.0302  0.2550
 4083TIP3   OH233807   4.377   3.002   7.466  0.0268  0.3003  0.7374
 4083TIP3    H133808   4.434   3.025   7.393 -1.4118 -1.0991 -0.9055
 4083TIP3    H233809   4.436   2.998   7.542  1.7437  0.7921 -0.5039
 4084TIP3   OH233810   4.755   3.407   1.765  0.0882  0.1971 -0.2575
 4084TIP3    H133811   4.824   3.359   1.809  0.0000  0.9658  0.7643
 4084TIP3    H233812   4.675   3.358   1.786  0.3740 -1.1279 -2.0752
 4085TIP3   OH233813   1.500   5.553   1.662 -0.0946  0.5909 -0.4797
 4085TIP3    H133814   1.531   5.618   1.726  3.5557 -0.7422 -0.6300
 4085TIP3    H233815   1.502   5.470   1.709 -0.7372  0.0458 -1.3869
 4086TIP3   OH233816   3.750   3.883   7.468  0.9896  0.6220 -0.3946
 4086TIP3    H133817   3.715   3.858   7.382 -0.6801 -1.0301  0.6782
 4086TIP3    H233818   3.767   3.977   7.460 -3.8237  1.7269 -1.1692
 4087TIP3   OH233819   3.027   0.889   8.610 -0.2479 -0.0981  0.0023
 4087TIP3    H133820   3.019   0.835   8.531 -1.4538  1.2787 -0.8603
 4087TIP3    H233821   3.111   0.934   8.600 -1.1666  1.3957 -1.4085
 4088TIP3   OH233822   3.773   0.665   7.031 -0.4128 -0.1647  0.1887
 4088TIP3    H133823   3.830   0.643   7.106 -0.4750 -0.9104  0.0217
 4088TIP3    H233824   3.700   0.603   7.038  0.4746 -1.4861 -1.5120
 4089TIP3   OH233825   1.616   5.076   2.212 -0.0612  0.0464 -0.3633
 4089TIP3    H133826   1.527   5.091   2.244  0.4162  3.7001 -0.3033
 4089TIP3    H233827   1.664   5.042   2.287 -1.1891 -1.2198 -0.1842
 4090TIP3   OH233828   5.387   2.459   1.856 -0.2225 -0.5339  0.0293
 4090TIP3    H133829   5.424   2.443   1.943  2.6445 -1.0413 -1.1705
 4090TIP3    H233830   5.391   2.554   1.845  3.0528 -0.6842 -0.9081
 4091TIP3   OH233831   1.893   1.548   0.869 -0.7577  0.3052 -0.2559
 4091TIP3    H133832   1.892   1.618   0.934  0.2216  0.1520 -0.0626
 4091TIP3    H233833   1.951   1.482   0.906 -1.9211 -0.7626 -0.2871
 4092TIP3   OH233834   6.293   0.542   1.327 -0.2226  0.4756  0.1810
 4092TIP3    H133835   6.295   0.448   1.309 -0.0612  0.2754  1.2140
 4092TIP3    H233836   6.200   0.562   1.337 -0.2293  0.3404  0.3933
 4093TIP3   OH233837   1.163   2.085   7.430 -0.3142 -0.2465 -0.2264
 4093TIP3    H133838   1.129   2.044   7.509 -1.0076 -1.3058 -1.0507
 4093TIP3    H233839   1.184   2.175   7.457 -0.7307 -0.5248  1.0977
 4094TIP3   OH233840   2.620   5.290   8.595 -0.4177  0.4945 -0.4543
 4094TIP3    H133841   2.536   5.317   8.559 -0.6900  1.3905  0.7967
 4094TIP3    H233842   2.599   5.225   8.661 -0.0720  0.2667 -0.5624
 4095TIP3   OH233843   5.139   1.364   7.859 -0.4409  0.2879 -0.2363
 4095TIP3    H133844   5.056   1.372   7.812  0.1692  0.6277 -1.2778
 4095TIP3    H233845   5.195   1.314   7.800 -0.1863 -0.7681  0.8531
 4096TIP3   OH233846   1.496   3.738   1.354  0.2756  0.0254 -0.2355
 4096TIP3    H133847   1.557   3.812   1.355  1.1700 -0.6945 -0.0099
 4096TIP3    H233848   1.414   3.774   1.389  0.4600  1.0958 -0.8724
 4097TIP3   OH233849   2.801   5.133   8.234  0.0754 -0.0684 -0.1675
 4097TIP3    H133850   2.714   5.159   8.204  0.3298  0.1648 -0.7174
 4097TIP3    H233851   2.818   5.191   8.309  0.4317  1.0356 -1.0802
 4098TIP3   OH233852   5.639   1.356   1.549 -0.5070  0.2363  0.3074
 4098TIP3    H133853   5.611   1.398   1.631 -2.3526 -1.2594  0.5183
 4098TIP3    H233854   5.718   1.307   1.574  0.1584  1.4221  0.6544
 4099TIP3   OH233855   3.172   5.496   7.992 -0.4879  0.2134  0.0872
 4099TIP3    H133856   3.082   5.465   8.001 -0.3873 -0.7741 -1.7642
 4099TIP3    H233857   3.225   5.420   8.015 -0.0729  0.9291  1.6345
 4100TIP3   OH233858   1.817   2.649   0.697 -0.6967  0.2813  0.2595
 4100TIP3    H133859   1.839   2.685   0.611 -0.7545 -1.3178 -0.4677
 4100TIP3    H233860   1.887   2.585   0.714 -0.8717  0.3403  1.2589
 4101TIP3   OH233861   4.701   3.143   7.918  0.1955  0.1419  0.4728
 4101TIP3    H133862   4.682   3.080   7.848  0.8753 -0.6286  0.9716
 4101TIP3    H233863   4.754   3.094   7.981  0.2031  1.0366  1.1790
 4102TIP3   OH233864   1.490   1.353   7.064  0.1531  0.1664  0.0422
 4102TIP3    H133865   1.428   1.295   7.019  0.1566  0.5207 -0.4313
 4102TIP3    H233866   1.448   1.439   7.061 -0.2404  0.0495  1.4896
 4103TIP3   OH233867   1.067   3.552   0.838  0.0697  0.6899  0.2777
 4103TIP3    H133868   1.142   3.552   0.898 -0.5736  2.3236  1.1481
 4103TIP3    H233869   1.096   3.604   0.763 -0.2391  1.4781  0.6975
 4104TIP3   OH233870   4.835   2.067   8.428  0.5706  0.0473 -0.2080
 4104TIP3    H133871   4.897   2.125   8.384 -2.2613  1.9235 -2.0191
 4104TIP3    H233872   4.784   2.027   8.358 -0.6701 -0.9926  1.2078
 4105TIP3   OH233873   4.851   3.905   2.076 -0.2159  1.1269 -0.1151
 4105TIP3    H133874   4.791   3.928   2.005  0.9501 -1.0111 -1.9121
 4105TIP3    H233875   4.919   3.973   2.071  1.2804 -0.3973 -2.9436
 4106TIP3   OH233876   4.820   5.704   1.544  0.3526  0.3634 -0.2017
 4106TIP3    H133877   4.906   5.677   1.513 -0.2397 -0.8725 -0.8397
 4106TIP3    H233878   4.775   5.622   1.563 -0.8937  0.9670 -0.4729
 4107TIP3   OH233879   5.013   5.475   8.072  0.1700  0.2332 -0.3218
 4107TIP3    H133880   5.062   5.463   7.991  1.2276 -0.1688  0.3709
 4107TIP3    H233881   4.967   5.392   8.086  0.5753  0.0398 -0.1252
 4108TIP3   OH233882   5.633   2.237   1.420 -0.0511  0.3094  0.4006
 4108TIP3    H133883   5.639   2.241   1.515 -0.4047  0.2625  0.4254
 4108TIP3    H233884   5.543   2.208   1.402  0.0492  0.2024  0.0568
 4109TIP3   OH233885   5.424   4.558   8.004  0.7622  0.2810 -0.0272
 4109TIP3    H133886   5.424   4.552   8.100 -0.1112  1.2232  0.0530
 4109TIP3    H233887   5.515   4.578   7.981  0.6561  1.7548  0.7464
 4110TIP3   OH233888   5.319   3.091   8.528 -0.3116  0.6730 -0.2587
 4110TIP3    H133889   5.387   3.044   8.576  1.2661  1.7663 -1.3046
 4110TIP3    H233890   5.359   3.175   8.506 -1.9299  1.2629 -1.1234
 4111TIP3   OH233891   1.233   0.821   7.093  0.1309  0.6474  0.3205
 4111TIP3    H133892   1.200   0.832   7.182 -1.5745  2.4482 -0.4576
 4111TIP3    H233893   1.154   0.810   7.040  1.1476 -1.5765 -0.8953
 4112TIP3   OH233894   3.558   3.034   8.030  0.2682 -0.1363 -0.6049
 4112TIP3    H133895   3.502   2.968   8.070 -1.2440  0.4171 -1.7099
 4112TIP3    H233896   3.551   3.016   7.936  1.6858  0.1745 -0.7883
 4113TIP3   OH233897   2.255   6.111   2.150  0.1555 -0.3101  0.0318
 4113TIP3    H133898   2.270   6.049   2.221 -1.0966 -2.0401 -1.1481
 4113TIP3    H233899   2.340   6.154   2.137  1.3209 -2.4171  0.3157
 4114TIP3   OH233900   1.654   4.972   1.937  0.2697 -0.0166  0.7757
 4114TIP3    H133901   1.748   4.958   1.941  0.0411 -1.6799  1.2445
 4114TIP3    H233902   1.629   4.989   2.028  0.0913  0.2392  0.6793
 4115TIP3   OH233903   4.179   4.808   8.310 -0.0400  0.5747  0.4774
 4115TIP3    H133904   4.094   4.850   8.320  0.1078  0.8593  0.5569
 4115TIP3    H233905   4.239   4.863   8.360  0.0654 -0.0194  1.0155
 4116TIP3   OH233906   1.252   5.827   8.649  0.3831  0.4116 -0.2006
 4116TIP3    H133907   1.309   5.805   8.575  0.4534  1.0238 -0.3347
 4116TIP3    H233908   1.203   5.747   8.667  2.3913 -0.6496  0.9299
 4117TIP3   OH233909   1.454   3.052   3.081 -0.1119 -0.2227 -0.1942
 4117TIP3    H133910   1.541   3.076   3.112 -1.0221 -0.7460  3.1883
 4117TIP3    H233911   1.395   3.110   3.128 -1.7207 -1.9670  0.0649
 4118TIP3   OH233912   2.311   2.322   8.204  0.1284  0.1384  0.3188
 4118TIP3    H133913   2.256   2.350   8.277 -2.4862 -0.9437 -1.1004
 4118TIP3    H233914   2.304   2.392   8.139  0.9417  0.2628  0.3575
 4119TIP3   OH233915   6.156   1.819   7.150  0.4740  0.1119 -0.0124
 4119TIP3    H133916   6.184   1.761   7.078  0.5346  0.7291 -0.4891
 4119TIP3    H233917   6.237   1.863   7.178  0.6708 -0.9583  1.2136
 4120TIP3   OH233918   2.569   1.207   0.191 -0.3769  0.0409  1.2282
 4120TIP3    H133919   2.655   1.223   0.229  0.6613 -0.3012 -0.8149
 4120TIP3    H233920   2.582   1.221   0.097 -2.5335 -0.1365  0.8588
 4121TIP3   OH233921   5.922   0.098   8.258 -0.6092  0.4909 -0.1502
 4121TIP3    H133922   5.896   0.190   8.256 -0.6595  0.4724 -0.5795
 4121TIP3    H233923   6.016   0.099   8.240 -1.0423  0.3231 -2.9123
 4122TIP3   OH233924   2.843   4.547   7.989 -0.0135  0.3146  0.2150
 4122TIP3    H133925   2.758   4.511   7.962  0.3083 -0.0599 -0.3161
 4122TIP3    H233926   2.905   4.511   7.926  0.6580 -0.0105  1.0421
 4123TIP3   OH233927   6.507   3.363   7.873 -0.4035 -0.2779 -0.8277
 4123TIP3    H133928   6.417   3.338   7.853 -1.0690  1.3616 -0.0319
 4123TIP3    H233929   6.504   3.458   7.887  1.5304 -0.1069 -1.2254
 4124TIP3   OH233930   1.995   2.422   0.730 -0.4063 -0.0806  0.0434
 4124TIP3    H133931   2.011   2.328   0.716  0.2006 -0.5144  2.9751
 4124TIP3    H233932   2.078   2.464   0.708  0.1384 -0.5743  1.0687
 4125TIP3   OH233933   3.165   6.233   0.722  0.4634 -0.3837  0.0054
 4125TIP3    H133934   3.146   6.309   0.667 -2.3460  0.1037  1.4548
 4125TIP3    H233935   3.176   6.161   0.660  0.2603  0.6543 -1.3011
 4126TIP3   OH233936   2.238   4.330   2.113  0.3417  0.1424  0.4676
 4126TIP3    H133937   2.171   4.272   2.078 -1.2126  1.2975  1.4166
 4126TIP3    H233938   2.234   4.318   2.207 -0.3251  2.0491  0.7330
 4127TIP3   OH233939   0.181   2.744   7.961 -0.2723  0.1493  0.6774
 4127TIP3    H133940   0.181   2.655   7.998  0.4742  0.4788  1.5157
 4127TIP3    H233941   0.213   2.799   8.033  1.1072  0.8428 -0.4315
 4128TIP3   OH233942   0.714   5.680   1.367 -0.2477  0.3047 -0.0650
 4128TIP3    H133943   0.790   5.727   1.400 -0.7493  0.5865  0.7375
 4128TIP3    H233944   0.743   5.639   1.286  0.7911  0.2980  0.3037
 4129TIP3   OH233945   0.783   5.409   2.280  0.4142 -0.1156 -0.6922
 4129TIP3    H133946   0.825   5.402   2.365  1.9724  0.1824 -1.4145
 4129TIP3    H233947   0.744   5.322   2.265  0.6443 -0.3501  0.0525
 4130TIP3   OH233948   0.358   2.333   7.647 -0.3670  0.1266 -0.5414
 4130TIP3    H133949   0.375   2.373   7.561 -1.3193  0.3002 -0.6530
 4130TIP3    H233950   0.302   2.396   7.692 -0.2549 -0.1825  0.0379
 4131TIP3   OH233951   3.853   1.982   2.477  0.1344 -0.4379  0.2838
 4131TIP3    H133952   3.944   2.011   2.473 -0.4390  1.3593 -2.6145
 4131TIP3    H233953   3.805   2.056   2.513 -0.4501 -0.4748 -0.3911
 4132TIP3   OH233954   6.027   3.399   1.605  0.0101  0.6442 -1.2226
 4132TIP3    H133955   5.952   3.346   1.633  2.0787 -1.8129  0.1918
 4132TIP3    H233956   6.028   3.472   1.667 -0.3975 -0.1034 -0.2934
 4133TIP3   OH233957   2.492   6.190   8.385  0.0867 -0.2599 -0.2337
 4133TIP3    H133958   2.574   6.211   8.339  0.3891 -0.5086  0.1878
 4133TIP3    H233959   2.520   6.147   8.465 -0.4804 -0.8835 -0.3664
 4134TIP3   OH233960   3.553   1.668   2.429  0.3984  0.5578  0.1979
 4134TIP3    H133961   3.463   1.684   2.404  0.5749 -1.1406 -1.8162
 4134TIP3    H233962   3.587   1.754   2.455 -1.6068  1.3034  0.5180
 4135TIP3   OH233963   3.429   2.597   0.580  0.6415  0.0723  0.8484
 4135TIP3    H133964   3.395   2.555   0.501  1.3755  0.5324  0.2810
 4135TIP3    H233965   3.513   2.634   0.554  1.5477 -0.9428  2.2100
 4136TIP3   OH233966   4.676   5.298   0.028  0.5580  0.4487  0.6505
 4136TIP3    H133967   4.705   5.207   0.025 -0.4291  0.1093  1.0465
 4136TIP3    H233968   4.646   5.310   0.118 -1.5117  0.4416  0.0226
 4137TIP3   OH233969   0.486   1.560   2.712 -0.0094 -0.1284  0.5476
 4137TIP3    H133970   0.398   1.528   2.689 -0.8179  3.3716 -2.1792
 4137TIP3    H233971   0.545   1.496   2.674 -1.4173 -1.2256  0.1102
 4138TIP3   OH233972   0.039   5.014   7.235 -0.0677  0.0197  0.2450
 4138TIP3    H133973   0.099   5.064   7.180 -0.2969 -0.2306 -0.2372
 4138TIP3    H233974   0.084   4.930   7.250 -0.6415 -0.4931 -0.8063
 4139TIP3   OH233975   3.008   3.339   8.058 -0.2580  0.1866  0.4161
 4139TIP3    H133976   3.083   3.282   8.043  2.4024  3.4687  0.1209
 4139TIP3    H233977   2.958   3.295   8.128  1.7433 -2.2553  0.4486
 4140TIP3   OH233978   1.703   2.925   0.675 -0.2419 -0.2893  0.3061
 4140TIP3    H133979   1.764   2.996   0.658 -0.6712  0.4119  1.5024
 4140TIP3    H233980   1.757   2.846   0.675  0.2171 -0.0057 -1.1975
 4141TIP3   OH233981   5.828   0.823   1.625  0.3745  0.1562  0.5178
 4141TIP3    H133982   5.864   0.907   1.597  1.8260 -0.9471 -1.1450
 4141TIP3    H233983   5.786   0.841   1.709 -0.5200  2.7953 -0.4096
 4142TIP3   OH233984   4.018   3.886   1.225 -0.2404  0.1518  0.0889
 4142TIP3    H133985   4.093   3.885   1.283 -0.2229  0.9008  0.0966
 4142TIP3    H233986   3.985   3.796   1.225  0.9194 -0.2819 -0.2755
 4143TIP3   OH233987   2.830   4.090   0.956 -0.2748  0.0360  0.7509
 4143TIP3    H133988   2.866   4.012   0.998  2.2785  0.2458 -0.8822
 4143TIP3    H233989   2.749   4.107   1.005 -0.1795 -2.7341  2.1129
 4144TIP3   OH233990   4.291   2.303   2.782 -0.5690  0.2369  0.8307
 4144TIP3    H133991   4.355   2.232   2.775 -2.6253 -1.6562 -0.3112
 4144TIP3    H233992   4.342   2.383   2.772  1.8252 -1.0546  1.8227
 4145TIP3   OH233993   4.554   4.136   8.400  0.2361 -0.1492 -0.1505
 4145TIP3    H133994   4.567   4.220   8.356  1.2822  0.5428  1.3572
 4145TIP3    H233995   4.631   4.127   8.456 -1.0315 -0.9120  1.5641
 4146TIP3   OH233996   1.463   4.771   7.425  0.5443 -0.0562  0.4350
 4146TIP3    H133997   1.426   4.718   7.354 -0.0711 -0.4761  1.0624
 4146TIP3    H233998   1.405   4.847   7.430 -0.0257 -0.5281  1.1640
 4147TIP3   OH233999   6.387   0.260   7.504  0.2644 -0.1707 -0.2493
 4147TIP3    H134000   6.388   0.210   7.423 -0.1790  0.3983 -0.6205
 4147TIP3    H234001   6.306   0.312   7.499 -0.3282 -0.9205  1.0437
 4148TIP3   OH234002   3.761   3.104   8.222  0.4936 -0.2288 -0.0063
 4148TIP3    H134003   3.725   3.120   8.135 -0.7317 -0.8799  0.3624
 4148TIP3    H234004   3.766   3.008   8.229 -1.3836 -0.2809  1.3835
 4149TIP3   OH234005   5.645   6.703   2.366 -0.0795 -0.3016  0.4208
 4149TIP3    H134006   5.683   6.786   2.339 -1.9868  0.0870 -1.2958
 4149TIP3    H234007   5.634   6.712   2.461 -1.4439  1.9775  0.1246
 4150TIP3   OH234008   6.542   4.853   2.055 -0.4215  0.2910  0.4415
 4150TIP3    H134009   6.574   4.771   2.093  0.5942 -0.3675 -1.6718
 4150TIP3    H234010   6.581   4.855   1.967 -3.0734  1.4299 -0.8106
 4151TIP3   OH234011   4.399   3.840   2.088 -0.6064 -0.3189 -0.1543
 4151TIP3    H134012   4.480   3.791   2.102  0.4607  1.5137  0.4304
 4151TIP3    H234013   4.374   3.871   2.176 -1.4409 -0.0848 -0.4586
 4152TIP3   OH234014   4.766   4.493   8.465 -0.4642  0.3634 -0.2394
 4152TIP3    H134015   4.759   4.418   8.406 -0.8540 -0.7481  1.1599
 4152TIP3    H234016   4.856   4.525   8.452 -0.6879  0.4315 -1.7306
 4153TIP3   OH234017   0.256   1.616   0.730  0.6236 -0.1494  0.1641
 4153TIP3    H134018   0.267   1.523   0.751  1.6038 -0.1154 -0.1748
 4153TIP3    H234019   0.301   1.628   0.647 -0.5392  0.3889 -0.4104
 4154TIP3   OH234020   4.241   4.646   1.222  0.3801  0.1276  0.2976
 4154TIP3    H134021   4.288   4.609   1.297  0.4690  1.2796  0.8337
 4154TIP3    H234022   4.310   4.672   1.161  0.2846 -2.2683 -0.9735
 4155TIP3   OH234023   1.078   5.340   1.057 -0.4515 -0.8601 -0.2008
 4155TIP3    H134024   1.099   5.248   1.043 -0.2647 -0.8184 -0.1973
 4155TIP3    H234025   0.988   5.349   1.027  0.1491 -0.6121 -2.0137
 4156TIP3   OH234026   6.559   5.465   1.806  0.0703 -0.6789  0.2461
 4156TIP3    H134027   6.608   5.525   1.863 -0.0726 -0.1560 -0.1739
 4156TIP3    H234028   6.612   5.459   1.727  0.2552 -1.3857  0.4148
 4157TIP3   OH234029   3.617   2.263   0.033 -0.1637 -0.7674 -0.0549
 4157TIP3    H134030   3.600   2.357   0.040 -1.0622 -0.8778 -0.5771
 4157TIP3    H234031   3.710   2.253   0.056 -0.4552  0.0400  1.6237
 4158TIP3   OH234032   5.157   5.505   7.833 -0.0218  0.2017  0.2503
 4158TIP3    H134033   5.103   5.503   7.754 -0.1011 -0.8424  0.3168
 4158TIP3    H234034   5.182   5.597   7.842 -1.4761  0.6541  0.0134
 4159TIP3   OH234035   5.640   5.243   1.492 -0.1274  0.0835 -0.3082
 4159TIP3    H134036   5.681   5.189   1.424  0.6245 -0.8072  0.8243
 4159TIP3    H234037   5.695   5.321   1.497 -1.1553  0.9593 -1.8736
 4160TIP3   OH234038   3.471   1.693   0.004 -0.2208 -0.7096 -0.8166
 4160TIP3    H134039   3.546   1.658  -0.043  1.1681 -0.3773  1.0139
 4160TIP3    H234040   3.472   1.647   0.088 -0.3247  1.2810  0.3443
 4161TIP3   OH234041   6.801   1.422   8.633  0.2493 -0.1653  0.7214
 4161TIP3    H134042   6.880   1.393   8.589  1.1451  0.2494  1.9816
 4161TIP3    H234043   6.730   1.400   8.573  1.4394  0.9113 -1.1514
 4162TIP3   OH234044   4.758   5.013   0.062  0.1283  0.7603 -0.1231
 4162TIP3    H134045   4.853   5.023   0.067  0.2986 -1.1036  2.7976
 4162TIP3    H234046   4.745   4.928   0.021 -0.1770  0.1897  1.1169
 4163TIP3   OH234047   6.054   5.916   8.406  0.3093  0.1440  0.1923
 4163TIP3    H134048   6.101   5.841   8.369 -1.1173 -0.0315 -1.4315
 4163TIP3    H234049   6.071   5.987   8.345 -0.5500  0.3875  0.2275
 4164TIP3   OH234050   2.004   0.574   7.716 -0.3040 -0.2114 -0.4538
 4164TIP3    H134051   1.996   0.512   7.644 -0.0347  0.0223 -0.6826
 4164TIP3    H234052   1.992   0.520   7.795 -2.7289 -0.1619 -0.6886
 4165TIP3   OH234053   2.459   4.169   7.068 -0.3202 -0.7615 -0.6585
 4165TIP3    H134054   2.426   4.259   7.070 -1.9498 -1.2799 -2.2192
 4165TIP3    H234055   2.381   4.115   7.063  0.6753 -2.2326 -0.8407
 4166TIP3   OH234056   2.061   0.039   8.506 -0.0480  0.4322  0.2531
 4166TIP3    H134057   2.034  -0.041   8.460 -1.1497  0.2277  1.2222
 4166TIP3    H234058   2.075   0.012   8.596 -0.3425  1.3176  0.5773
 4167TIP3   OH234059   2.312   1.188   7.458  0.0568  0.4268  0.3576
 4167TIP3    H134060   2.350   1.214   7.542  0.4569 -2.0146  1.0309
 4167TIP3    H234061   2.246   1.122   7.481 -0.9240  0.8316 -1.1659
 4168TIP3   OH234062   2.007   5.347   7.737 -0.2328  0.1259 -0.1191
 4168TIP3    H134063   2.050   5.415   7.788 -0.6520  0.3828 -0.1100
 4168TIP3    H234064   2.065   5.334   7.661 -0.6208  1.1628 -0.6103
 4169TIP3   OH234065   0.940   5.034   7.724 -0.4072  0.0018  0.2459
 4169TIP3    H134066   0.986   5.072   7.649 -0.5145 -0.1359  0.1111
 4169TIP3    H234067   0.936   4.941   7.706 -0.2528 -0.0602  0.5215
 4170TIP3   OH234068   1.331   1.577   7.027 -0.4575  0.2380  0.2398
 4170TIP3    H134069   1.380   1.659   7.021 -0.5152  0.2245 -0.4986
 4170TIP3    H234070   1.274   1.578   6.950  0.3027 -1.0019 -0.3565
 4171TIP3   OH234071   1.236   6.594   0.531 -0.0999  0.6450  0.3167
 4171TIP3    H134072   1.294   6.530   0.572 -0.8414  0.8704  1.7995
 4171TIP3    H234073   1.190   6.544   0.463 -0.9608 -0.5444  1.7096
 4172TIP3   OH234074   5.956   2.945   6.544 -0.1385 -0.3952 -0.3516
 4172TIP3    H134075   5.875   2.992   6.565 -1.5224 -1.4037 -3.0038
 4172TIP3    H234076   6.025   3.007   6.566 -1.4140 -0.1269  3.6645
 4173TIP3   OH234077   3.614   4.394   1.583 -0.7440 -0.7998  0.2580
 4173TIP3    H134078   3.691   4.351   1.546 -1.0410 -0.8126 -0.3433
 4173TIP3    H234079   3.628   4.487   1.566 -0.8962 -0.8083  0.0894
 4174TIP3   OH234080   6.810   5.227   0.176 -0.0866  0.1539 -0.1463
 4174TIP3    H134081   6.775   5.312   0.202  0.6395  0.9796 -1.7364
 4174TIP3    H234082   6.735   5.180   0.139 -0.0479  1.0297 -1.4073
 4175TIP3   OH234083   6.642   3.301   1.677  0.3072 -0.1206  0.1403
 4175TIP3    H134084   6.671   3.386   1.644  3.5337 -1.3990 -0.6652
 4175TIP3    H234085   6.595   3.262   1.603 -2.8983  1.5248  1.0997
 4176TIP3   OH234086   2.886   5.163   3.061 -0.1928 -0.7677  0.2241
 4176TIP3    H134087   2.877   5.250   3.021  0.0692 -1.2481 -0.9258
 4176TIP3    H234088   2.818   5.161   3.129 -1.5359 -0.3598 -1.0376
 4177TIP3   OH234089   3.996   6.610   0.806 -0.1873 -0.1009  0.5018
 4177TIP3    H134090   3.922   6.669   0.821  1.5982  2.1307  1.0743
 4177TIP3    H234091   4.021   6.625   0.715  0.9678  0.9598  0.9585
 4178TIP3   OH234092   4.141   2.284   0.843 -0.0990  0.6997 -0.2021
 4178TIP3    H134093   4.179   2.197   0.856 -0.9627  0.0012 -1.9452
 4178TIP3    H234094   4.212   2.344   0.865  0.7497 -0.4647  0.3639
 4179TIP3   OH234095   6.296   4.135   8.178 -0.5022  0.3060  0.2754
 4179TIP3    H134096   6.346   4.164   8.101 -0.8668  0.1754 -0.0148
 4179TIP3    H234097   6.233   4.072   8.143 -2.4861  2.1902  0.2155
 4180TIP3   OH234098   2.301   1.175   2.091 -0.4334  0.0775 -0.3259
 4180TIP3    H134099   2.292   1.223   2.174 -1.4999 -0.6689  0.0131
 4180TIP3    H234100   2.293   1.083   2.116  1.0591 -0.2666 -1.0422
 4181TIP3   OH234101   6.183   0.461   2.255 -0.2478 -0.1392  0.0771
 4181TIP3    H134102   6.112   0.450   2.192  0.2539  0.9061 -0.6971
 4181TIP3    H234103   6.263   0.449   2.204  0.1608 -1.3054  0.9401
 4182TIP3   OH234104   3.356   4.614   8.506 -0.0994  0.1292  0.5022
 4182TIP3    H134105   3.379   4.546   8.570 -0.6612 -0.1906  0.3684
 4182TIP3    H234106   3.309   4.568   8.437 -1.8993  0.8694  1.1719
 4183TIP3   OH234107   0.323   6.079   0.522  0.0923  0.1919  0.2411
 4183TIP3    H134108   0.289   6.018   0.587 -2.2298  1.7985  0.6695
 4183TIP3    H234109   0.393   6.126   0.567  0.3599 -0.5990  0.6571
 4184TIP3   OH234110   5.576   0.480   0.287  0.0817  0.0062 -0.6328
 4184TIP3    H134111   5.569   0.540   0.362 -1.7184 -0.7800 -0.1232
 4184TIP3    H234112   5.535   0.528   0.215  0.6697  0.2610 -0.8021
 4185TIP3   OH234113   2.740   5.153   7.614 -0.0141 -0.1673  0.5414
 4185TIP3    H134114   2.715   5.196   7.532  1.3810  0.7055  0.5455
 4185TIP3    H234115   2.704   5.065   7.607  1.4462 -0.6556 -1.7241
 4186TIP3   OH234116   4.104   3.871   0.331  0.1673  0.4471 -0.0429
 4186TIP3    H134117   4.065   3.862   0.418  0.3972 -0.7095 -0.0424
 4186TIP3    H234118   4.037   3.914   0.278 -1.0796 -1.3793 -0.0059
 4187TIP3   OH234119   0.623   5.160   2.020 -0.1337 -0.1390  0.3680
 4187TIP3    H134120   0.629   5.238   1.965  0.5261 -0.2643  0.2568
 4187TIP3    H234121   0.714   5.135   2.036 -0.1300  1.5112  3.8117
 4188TIP3   OH234122   3.379   3.738   7.589 -0.7261 -0.4176 -0.3487
 4188TIP3    H134123   3.384   3.801   7.517 -1.1382 -1.3571 -1.2265
 4188TIP3    H234124   3.459   3.752   7.640 -0.5300  0.3940 -0.8701
 4189TIP3   OH234125   3.783   2.545   6.869 -0.3953 -0.6392 -0.3022
 4189TIP3    H134126   3.865   2.498   6.857  0.5184  1.3626 -3.0854
 4189TIP3    H234127   3.721   2.499   6.812  0.0203  0.3817 -1.6200
 4190TIP3   OH234128   5.630   5.631   8.298 -0.0631 -0.4623 -0.7537
 4190TIP3    H134129   5.659   5.592   8.216  2.5832 -2.1917  0.8275
 4190TIP3    H234130   5.599   5.557   8.350 -0.5237  0.4043  0.2378
 4191TIP3   OH234131   4.961   6.657   2.264  0.4161  0.4482 -0.2953
 4191TIP3    H134132   4.987   6.674   2.174  1.1304  0.2161 -0.1407
 4191TIP3    H234133   5.002   6.573   2.286  1.8058  1.3619  0.8211
 4192TIP3   OH234134   6.198   0.911   0.579  0.0674 -0.4521 -0.2020
 4192TIP3    H134135   6.135   0.914   0.652 -1.8821 -1.1219 -1.7560
 4192TIP3    H234136   6.191   0.997   0.537  0.1961 -0.5288 -0.3824
 4193TIP3   OH234137   1.203   1.663   0.827 -0.3269  0.9110  0.0826
 4193TIP3    H134138   1.266   1.735   0.827 -0.3153  0.9045 -0.2652
 4193TIP3    H234139   1.244   1.597   0.771 -0.6948  0.9498 -0.2320
 4194TIP3   OH234140   1.177   0.058   2.093 -0.5570 -0.1083  0.2346
 4194TIP3    H134141   1.168  -0.024   2.141 -0.0089 -0.2081  0.1752
 4194TIP3    H234142   1.268   0.059   2.063 -1.1059 -0.4597 -1.5628
 4195TIP3   OH234143   1.916   1.253   7.535  0.4814  0.2304 -0.1112
 4195TIP3    H134144   1.972   1.175   7.541 -1.6137 -1.2723  0.8221
 4195TIP3    H234145   1.925   1.296   7.620  0.4476  0.1715 -0.0784
 4196TIP3   OH234146   5.260   4.839   7.852 -0.3614 -0.3835 -0.1013
 4196TIP3    H134147   5.264   4.826   7.757 -1.8159  0.0508 -0.2556
 4196TIP3    H234148   5.294   4.758   7.889 -1.1765 -1.1707 -1.0067
 4197TIP3   OH234149   2.088   3.330   2.515 -0.1510  0.7905  0.4534
 4197TIP3    H134150   2.179   3.356   2.499 -0.1416  0.6224  0.2359
 4197TIP3    H234151   2.095   3.243   2.555 -0.1115  1.6516  2.4489
 4198TIP3   OH234152   0.959   0.075   0.566  0.1407  0.3612 -0.0822
 4198TIP3    H134153   0.900   0.095   0.638 -0.1297 -1.2665  0.1822
 4198TIP3    H234154   1.039   0.044   0.608  0.0329 -0.4662 -0.4778
 4199TIP3   OH234155   0.550   5.206   7.499  0.5589 -0.2429 -0.0157
 4199TIP3    H134156   0.515   5.231   7.585  2.9051  3.0814  0.1665
 4199TIP3    H234157   0.489   5.246   7.436  0.4001 -0.2217  0.1500
 4200TIP3   OH234158   4.571   3.854   7.806 -0.0686 -0.3007  0.1003
 4200TIP3    H134159   4.572   3.766   7.769  1.1434 -0.2006 -0.1463
 4200TIP3    H234160   4.532   3.844   7.893 -0.7131 -0.9309 -0.2525
 4201TIP3   OH234161   4.284   1.603   8.667 -0.5668  0.0300  0.5534
 4201TIP3    H134162   4.379   1.589   8.676 -0.5577  0.3675  1.0085
 4201TIP3    H234163   4.266   1.582   8.576 -0.1677 -0.7213  0.6368
 4202TIP3   OH234164   0.758   3.686   0.212 -0.6553  0.3260  0.5608
 4202TIP3    H134165   0.794   3.669   0.299  0.9886 -0.7853 -0.2768
 4202TIP3    H234166   0.834   3.710   0.159 -1.2696 -1.1154 -1.0655
 4203TIP3   OH234167   5.346   5.602   8.137 -0.2708  0.5284  0.3283
 4203TIP3    H134168   5.293   5.522   8.129  0.8074 -0.1117 -0.8651
 4203TIP3    H234169   5.317   5.658   8.065  0.2571  0.3996  0.0020
 4204TIP3   OH234170   3.924   4.273   2.201 -0.1238 -0.0245  0.4850
 4204TIP3    H134171   3.888   4.228   2.124 -0.0025 -0.2034  0.5301
 4204TIP3    H234172   3.906   4.213   2.273 -0.2731  0.1619  0.6028
 4205TIP3   OH234173   4.785   1.937   0.143  0.2341  0.0538 -0.2711
 4205TIP3    H134174   4.876   1.909   0.152 -0.1659 -1.4899 -0.6812
 4205TIP3    H234175   4.763   1.918   0.052  0.2157  2.8033 -0.9345
 4206TIP3   OH234176   1.586   0.143   8.229 -0.0629 -0.3072  0.4523
 4206TIP3    H134177   1.671   0.125   8.188 -0.1566 -2.2010  1.0243
 4206TIP3    H234178   1.546   0.209   8.173  0.3066 -1.9418 -1.8790
 4207TIP3   OH234179   2.597   0.413   8.413 -0.1675  0.0345 -0.3647
 4207TIP3    H134180   2.658   0.449   8.349 -1.1287  3.2500  0.3407
 4207TIP3    H234181   2.519   0.391   8.362 -0.9944  2.7485 -0.4052
 4208TIP3   OH234182   2.766   1.491   7.444 -0.1105  0.4871  0.3275
 4208TIP3    H134183   2.674   1.507   7.460 -0.3681 -1.2644  0.8743
 4208TIP3    H234184   2.804   1.476   7.530  0.4097 -0.0578  0.0176
 4209TIP3   OH234185   6.362   0.174   1.990  0.3025  0.2103 -0.2266
 4209TIP3    H134186   6.401   0.103   2.041  0.0008  1.3255  1.6565
 4209TIP3    H234187   6.268   0.156   1.992  0.3586 -0.2320 -1.2013
 4210TIP3   OH234188   2.911   4.698   2.676 -0.3154  0.2025 -0.4060
 4210TIP3    H134189   2.991   4.646   2.680 -1.3376 -1.4852 -0.8368
 4210TIP3    H234190   2.935   4.783   2.714  1.2939 -0.7428  0.8028
 4211TIP3   OH234191   2.395   3.251   1.681  0.2895  0.1226 -0.5666
 4211TIP3    H134192   2.466   3.316   1.679 -0.0256  0.4880 -0.1386
 4211TIP3    H234193   2.437   3.170   1.653  1.3401 -0.0936  1.3854
 4212TIP3   OH234194   3.435   1.093   1.917  0.8102  0.2699 -0.1904
 4212TIP3    H134195   3.506   1.150   1.887  0.7746 -0.2906 -1.4015
 4212TIP3    H234196   3.384   1.148   1.976  0.3831  1.7582 -1.8571
 4213TIP3   OH234197   0.914   5.279   7.573 -0.2603  0.0407  0.4273
 4213TIP3    H134198   0.867   5.199   7.593  1.3843 -0.7652  1.2334
 4213TIP3    H234199   0.940   5.270   7.481 -1.1215  0.2080  0.1657
 4214TIP3   OH234200   3.553   4.403   2.455 -0.4439  0.2002 -0.0866
 4214TIP3    H134201   3.535   4.476   2.515  1.3971 -0.1460  0.9489
 4214TIP3    H234202   3.521   4.326   2.500 -3.3399  0.3440 -1.6126
 4215TIP3   OH234203   4.084   1.054   0.616 -0.0306 -0.0541 -0.3265
 4215TIP3    H134204   4.096   1.102   0.534 -4.2233 -0.4139 -1.3592
 4215TIP3    H234205   4.105   1.118   0.684  0.4666  1.2751 -1.6657
 4216TIP3   OH234206   3.022   3.553   2.340 -0.5152 -0.2303 -0.1085
 4216TIP3    H134207   2.964   3.481   2.367 -0.6011  0.3552  1.3646
 4216TIP3    H234208   2.997   3.626   2.396  0.9087  0.3746 -0.2187
 4217TIP3   OH234209   4.836   5.164   2.091 -0.3787  0.2866 -0.3537
 4217TIP3    H134210   4.779   5.143   2.017 -1.5002  1.8258  0.0278
 4217TIP3    H234211   4.809   5.104   2.161 -0.2949 -0.1972 -0.7340
 4218TIP3   OH234212   0.825   1.255   2.177 -0.0393 -0.4760  0.4135
 4218TIP3    H134213   0.895   1.278   2.238  1.1482 -1.5062 -0.5132
 4218TIP3    H234214   0.836   1.314   2.103 -0.7418 -0.0252  0.6575
 4219TIP3   OH234215   0.246   4.512   0.401  0.5259  0.1352  0.0974
 4219TIP3    H134216   0.325   4.539   0.448  0.2757  0.2547  0.4593
 4219TIP3    H234217   0.213   4.437   0.452  0.1937  0.3317  0.1789
 4220TIP3   OH234218   2.833   0.523   0.634  0.6839 -0.4621 -0.0830
 4220TIP3    H134219   2.853   0.617   0.628 -1.0347  0.2844  3.2343
 4220TIP3    H234220   2.751   0.512   0.587 -0.9084  0.5327  2.2620
 4221TIP3   OH234221   6.787   6.445   8.073  0.2536  0.5036 -0.2738
 4221TIP3    H134222   6.744   6.516   8.024 -0.5230 -1.4595 -2.6549
 4221TIP3    H234223   6.817   6.384   8.005  0.2317 -1.8041  1.6588
 4222TIP3   OH234224   1.567   0.581   2.759  0.1181 -0.5243 -0.1843
 4222TIP3    H134225   1.635   0.522   2.792 -2.2318 -1.6838  3.1424
 4222TIP3    H234226   1.512   0.526   2.704 -0.6534 -0.8020  0.8512
 4223TIP3   OH234227   3.811   2.924   7.168  0.2958 -0.8796  0.0213
 4223TIP3    H134228   3.846   2.880   7.090  1.4139  1.4350 -0.8716
 4223TIP3    H234229   3.759   2.997   7.134  0.6119  0.0380  1.4178
 4224TIP3   OH234230   1.933   0.187   2.773  0.2092  0.2323 -0.6180
 4224TIP3    H134231   1.954   0.274   2.737 -2.1159  0.8023 -0.7909
 4224TIP3    H234232   2.001   0.130   2.739  1.0939  1.7590 -1.5504
 4225TIP3   OH234233   0.672   1.359   2.601  0.6944 -0.2698 -0.1023
 4225TIP3    H134234   0.736   1.313   2.546  1.0689 -0.1209  0.1973
 4225TIP3    H234235   0.666   1.306   2.680 -1.0887 -1.3858 -0.9282
 4226TIP3   OH234236   5.390   5.380   1.508 -0.6695  0.2383 -0.2053
 4226TIP3    H134237   5.466   5.330   1.478 -0.7839  0.7445 -1.3993
 4226TIP3    H234238   5.427   5.465   1.533 -0.7981  0.3732 -0.4732
 4227TIP3   OH234239   3.483   6.452   7.785 -0.5744  0.6763  0.2948
 4227TIP3    H134240   3.404   6.492   7.748 -1.7961 -1.2056  0.7475
 4227TIP3    H234241   3.468   6.358   7.777  1.0280  0.2621  1.6677
 4228TIP3   OH234242   1.106   5.595   2.305 -0.0393  0.3304  0.1403
 4228TIP3    H134243   1.092   5.594   2.210 -2.7099 -2.0876  0.4326
 4228TIP3    H234244   1.108   5.503   2.330  0.7882  0.9019  2.4695
 4229TIP3   OH234245   5.055   4.902   6.906  0.7767  0.1413  0.0221
 4229TIP3    H134246   5.015   4.876   6.823  0.9351 -1.4042  0.3898
 4229TIP3    H234247   5.063   4.997   6.901  1.3884  0.0192 -1.9867
 4230TIP3   OH234248   6.607   5.550   0.714 -0.1566  0.2246 -0.3778
 4230TIP3    H134249   6.676   5.599   0.759 -1.0153  0.0234  1.2207
 4230TIP3    H234250   6.558   5.507   0.784 -1.8746  0.3070 -1.4650
 4231TIP3   OH234251   1.450   3.458   3.062 -0.4042 -0.1185 -0.2939
 4231TIP3    H134252   1.497   3.491   3.139 -1.9069 -0.2597  0.7177
 4231TIP3    H234253   1.439   3.365   3.079 -2.5350  0.2063  0.3275
 4232TIP3   OH234254   5.186   6.337   1.004  0.2472  0.0520  0.3722
 4232TIP3    H134255   5.148   6.333   1.091  0.4565 -0.1257  0.4556
 4232TIP3    H234256   5.139   6.270   0.954 -1.7034  1.8797 -0.3811
 4233TIP3   OH234257   0.795   0.181   2.278 -0.4194  0.3508 -0.2437
 4233TIP3    H134258   0.884   0.165   2.309  0.4971  0.8884 -2.4227
 4233TIP3    H234259   0.741   0.174   2.357  1.8989  3.4501  1.9009
 4234TIP3   OH234260   6.649   1.284   7.178 -0.0809  0.5990 -0.5760
 4234TIP3    H134261   6.634   1.363   7.126 -0.5712  0.5665 -0.4866
 4234TIP3    H234262   6.700   1.226   7.121 -1.3494  0.2176 -1.3382
 4235TIP3   OH234263   2.179   3.064   0.269  0.2778  0.2707 -0.5133
 4235TIP3    H134264   2.253   3.077   0.328  0.6987 -1.1754 -0.7045
 4235TIP3    H234265   2.218   3.057   0.182 -0.3733  2.9033 -1.1192
 4236TIP3   OH234266   6.587   0.472   6.721  0.0045  0.1521 -0.1605
 4236TIP3    H134267   6.569   0.537   6.653  0.7157  0.1446 -0.3586
 4236TIP3    H234268   6.530   0.498   6.794 -1.2711 -0.2245 -0.9758
 4237TIP3   OH234269   4.363   1.563   0.591 -0.3772  0.4811  0.6609
 4237TIP3    H134270   4.449   1.595   0.565 -0.1863  0.7181  1.5589
 4237TIP3    H234271   4.359   1.475   0.553  0.3296  0.4000  0.7533
 4238TIP3   OH234272   4.087   2.867   1.143 -0.0424  0.0286 -0.0591
 4238TIP3    H134273   4.089   2.811   1.066  1.1597 -0.6786  0.4636
 4238TIP3    H234274   3.994   2.881   1.160 -0.3502  0.9240 -2.1308
 4239TIP3   OH234275   6.269   2.613   0.518  0.4564  0.7480 -0.3483
 4239TIP3    H134276   6.200   2.658   0.566  0.0757  0.8865 -1.0166
 4239TIP3    H234277   6.284   2.667   0.441  1.5200  0.8778 -0.0719
 4240TIP3   OH234278   5.440   5.875   1.795  0.3728 -0.0089  0.2939
 4240TIP3    H134279   5.470   5.959   1.829 -0.2882 -0.3639  1.8491
 4240TIP3    H234280   5.362   5.896   1.744  0.0212  0.2975  0.9484
 4241TIP3   OH234281   1.954   3.559   2.576  0.2494  0.5543 -0.3805
 4241TIP3    H134282   2.022   3.623   2.556  0.0880  0.6461 -0.6372
 4241TIP3    H234283   1.992   3.475   2.551  0.4442  0.5539 -0.0856
 4242TIP3   OH234284   6.817   2.231   1.125  0.9398  0.5885  0.3848
 4242TIP3    H134285   6.892   2.241   1.067  1.0893 -1.0951  0.2363
 4242TIP3    H234286   6.798   2.320   1.154  0.7348  1.5299 -2.3438
 4243TIP3   OH234287   5.813   3.662   1.685  0.0002 -0.3066  0.0017
 4243TIP3    H134288   5.893   3.615   1.711 -0.9421 -1.8649  0.2221
 4243TIP3    H234289   5.841   3.719   1.614  1.2945 -0.9230 -0.0205
 4244TIP3   OH234290   4.175   3.879   7.620  0.1616  0.0093  0.5061
 4244TIP3    H134291   4.199   3.916   7.705 -1.1288  0.3686  0.7443
 4244TIP3    H234292   4.083   3.853   7.631  0.2787 -0.8777 -0.4721
 4245TIP3   OH234293   6.737   4.180   7.578  0.1868  0.3283 -0.3770
 4245TIP3    H134294   6.655   4.157   7.534 -0.4354 -0.9904  1.3510
 4245TIP3    H234295   6.770   4.256   7.529 -0.2479 -1.2039 -3.3136
 4246TIP3   OH234296   1.352   3.138   2.825 -0.1755  0.1450 -0.2814
 4246TIP3    H134297   1.345   3.044   2.807 -1.3170  0.3047 -0.7049
 4246TIP3    H234298   1.409   3.143   2.902  0.2325 -0.8685 -0.5077
 4247TIP3   OH234299   0.261   4.483   2.319  0.5244 -0.1475  0.4017
 4247TIP3    H134300   0.182   4.515   2.275  0.8930  1.0449  0.5569
 4247TIP3    H234301   0.233   4.463   2.408  0.2333 -0.5080  0.2324
 4248TIP3   OH234302   4.334   1.312   8.262 -0.1774  0.4674  0.2008
 4248TIP3    H134303   4.265   1.351   8.208 -0.5857  1.4309  1.3547
 4248TIP3    H234304   4.415   1.328   8.214 -0.7653 -1.2241 -1.4883
 4249TIP3   OH234305   1.182   4.089   1.782 -0.0499 -0.1620 -0.5376
 4249TIP3    H134306   1.190   4.182   1.760  0.5729  0.1166  0.7455
 4249TIP3    H234307   1.112   4.086   1.847 -1.2915 -0.8561 -1.8325
 4250TIP3   OH234308   3.791   1.178   7.052  0.8839 -0.5881  0.4763
 4250TIP3    H134309   3.727   1.200   6.984  1.0047  0.8297  0.8131
 4250TIP3    H234310   3.769   1.087   7.075 -0.4303 -0.4340 -0.0366
 4251TIP3   OH234311   3.659   0.365   1.454  0.2369  0.5597  0.3341
 4251TIP3    H134312   3.648   0.450   1.411 -0.1642  0.9804  1.2372
 4251TIP3    H234313   3.754   0.355   1.464  0.3033  0.7253 -0.1048
 4252TIP3   OH234314   5.383   5.904   2.080 -0.1075 -0.0426 -0.1759
 4252TIP3    H134315   5.406   5.890   2.171  1.1196 -0.0110 -0.4609
 4252TIP3    H234316   5.467   5.922   2.036 -0.7518  0.6894 -1.1666
 4253TIP3   OH234317   0.476   2.843   8.671 -0.1491 -0.1135 -0.2178
 4253TIP3    H134318   0.423   2.764   8.688 -0.7255 -0.0008 -1.3715
 4253TIP3    H234319   0.485   2.884   8.757 -3.6006  0.8732 -0.1752
 4254TIP3   OH234320   2.477   1.772   7.572  0.1659 -0.3564  0.3307
 4254TIP3    H134321   2.523   1.846   7.610  0.4217  0.0074 -0.6710
 4254TIP3    H234322   2.391   1.807   7.546  0.3784 -0.3359 -0.3713
 4255TIP3   OH234323   3.263   3.801   8.094 -0.9364  0.4413  0.6334
 4255TIP3    H134324   3.316   3.760   8.026 -0.3992  0.6198  0.9403
 4255TIP3    H234325   3.281   3.748   8.172 -0.3921  1.1329  0.9860
 4256TIP3   OH234326   4.578   3.230   1.833  0.4144 -0.3310 -0.1305
 4256TIP3    H134327   4.569   3.168   1.906 -0.2338  0.5709  0.5766
 4256TIP3    H234328   4.530   3.189   1.762  2.2985 -1.9435 -0.5741
 4257TIP3   OH234329   3.740   1.454   0.481 -0.0399  0.5602 -0.1358
 4257TIP3    H134330   3.821   1.405   0.462  1.4113  1.8625  2.1787
 4257TIP3    H234331   3.742   1.466   0.576 -3.0325  0.6261  0.0005
 4258TIP3   OH234332   5.796   0.031   0.943 -0.0257  0.6802  0.5932
 4258TIP3    H134333   5.825   0.073   1.024  0.9600  1.0964  0.0414
 4258TIP3    H234334   5.860   0.058   0.878 -1.8491  1.9294 -0.7831
 4259TIP3   OH234335   2.099   4.068   2.784 -0.1743 -0.2383 -0.0652
 4259TIP3    H134336   2.107   4.163   2.798 -0.5440 -0.4960  2.1955
 4259TIP3    H234337   2.180   4.043   2.741  1.2003  0.6959  1.8502
 4260TIP3   OH234338   6.834   4.946   0.950 -0.0797 -0.1340  0.2013
 4260TIP3    H134339   6.818   4.885   0.879  1.8210 -0.4688  0.0090
 4260TIP3    H234340   6.747   4.962   0.989 -1.2860  0.5338 -2.5242
 4261TIP3   OH234341   1.489   1.271   1.793 -0.4808 -0.2570  0.8164
 4261TIP3    H134342   1.502   1.178   1.776  0.8614  0.2259 -1.1073
 4261TIP3    H234343   1.576   1.303   1.815 -0.4540  0.9719 -0.9309
 4262TIP3   OH234344   1.150   1.388   1.475 -0.6130  0.1240 -0.3122
 4262TIP3    H134345   1.189   1.312   1.518 -0.4967  1.8389  2.8882
 4262TIP3    H234346   1.224   1.436   1.439 -0.6202 -0.7672 -1.6026
 4263TIP3   OH234347   4.154   2.540   0.571  0.7297 -0.1674  0.1667
 4263TIP3    H134348   4.201   2.622   0.557  1.0529 -0.0152  1.8993
 4263TIP3    H234349   4.156   2.527   0.666 -0.5777 -1.4474  0.0573
 4264TIP3   OH234350   0.612   3.576   8.686  0.3425 -0.5952 -0.2096
 4264TIP3    H134351   0.594   3.670   8.684  3.3865  0.1000 -1.8217
 4264TIP3    H234352   0.670   3.564   8.761  0.2815 -1.0951 -0.2410
 4265TIP3   OH234353   5.599   0.392   7.915 -0.5815 -0.3189  0.1562
 4265TIP3    H134354   5.517   0.442   7.922 -1.1196 -0.9117 -1.3762
 4265TIP3    H234355   5.620   0.368   8.006  0.0280  3.0882  1.0528
 4266TIP3   OH234356   3.152   4.403   8.019 -0.1128  0.4402  0.1685
 4266TIP3    H134357   3.103   4.323   8.000 -2.3941  1.6491  0.6287
 4266TIP3    H234358   3.142   4.456   7.940 -1.6071  1.6379  1.1040
 4267TIP3   OH234359   3.777   0.842   7.540  0.0397 -0.0412  0.0164
 4267TIP3    H134360   3.824   0.781   7.596 -0.3582  1.2814  1.8700
 4267TIP3    H234361   3.716   0.788   7.491  0.1615 -1.2070  1.1128
 4268TIP3   OH234362   2.540   0.115   1.941  0.2505 -0.2693  0.2454
 4268TIP3    H134363   2.494   0.032   1.928  0.7437 -0.2976 -1.6044
 4268TIP3    H234364   2.478   0.182   1.912  0.0743 -0.0205  1.1676
 4269TIP3   OH234365   5.322   3.187   7.684 -0.0613  0.1165 -0.4829
 4269TIP3    H134366   5.408   3.153   7.711 -0.1707  0.2167 -0.0069
 4269TIP3    H234367   5.262   3.114   7.699  0.0079 -0.0949 -1.2154
 4270TIP3   OH234368   0.365   3.209   0.619  0.5447  0.6219  0.2981
 4270TIP3    H134369   0.449   3.170   0.597  0.6434 -0.8453  2.9066
 4270TIP3    H234370   0.385   3.302   0.633  1.3813  0.5961 -0.5598
 4271TIP3   OH234371   3.798   0.685   0.146 -0.6489  0.5765 -0.0397
 4271TIP3    H134372   3.833   0.773   0.160 -0.6789  0.8710 -1.6353
 4271TIP3    H234373   3.705   0.699   0.125 -0.5375  0.2114 -0.7953
 4272TIP3   OH234374   5.242   1.061   1.949  0.1251 -0.2265  0.5642
 4272TIP3    H134375   5.267   0.995   1.885 -0.3597 -0.2407  0.3896
 4272TIP3    H234376   5.161   1.099   1.915 -0.1805 -0.2898  1.2007
 4273TIP3   OH234377   0.084   0.823   1.188  0.0984 -0.3259  0.3421
 4273TIP3    H134378   0.113   0.743   1.232  0.3028 -0.0305  0.7494
 4273TIP3    H234379   0.051   0.793   1.104  0.3119 -0.8237  0.4316
 4274TIP3   OH234380   1.535   4.428   8.218  0.2511  0.0560  0.8149
 4274TIP3    H134381   1.518   4.402   8.309  3.1902 -0.3901  1.3380
 4274TIP3    H234382   1.577   4.513   8.225  2.1067 -0.7421  0.0642
 4275TIP3   OH234383   2.314   4.001   1.292  0.1713 -1.4836 -0.2774
 4275TIP3    H134384   2.242   4.049   1.333 -0.4652 -1.4732 -1.3807
 4275TIP3    H234385   2.327   3.925   1.349  2.1848  0.6333  2.3708
 4276TIP3   OH234386   1.808   4.098   2.503 -0.0769 -0.3158 -0.4312
 4276TIP3    H134387   1.840   4.174   2.551 -2.1986  1.6089 -1.8738
 4276TIP3    H234388   1.887   4.045   2.488  1.2071  0.7391  1.9976
 4277TIP3   OH234389   2.680   6.032   7.954 -1.3154  0.0671 -0.3012
 4277TIP3    H134390   2.671   5.953   7.900  3.1013 -0.5111 -0.5227
 4277TIP3    H234391   2.680   6.104   7.891 -2.0210 -0.0211 -0.4167
 4278TIP3   OH234392   6.382   6.561   8.021 -0.4019 -0.4651  0.1449
 4278TIP3    H134393   6.407   6.597   7.937  0.0036 -0.4824  0.2564
 4278TIP3    H234394   6.420   6.473   8.022  3.1181  0.8692  1.9329
 4279TIP3   OH234395   1.692   3.181   3.121  0.1820 -0.6960 -0.4652
 4279TIP3    H134396   1.753   3.121   3.078 -0.6527 -1.8746 -0.0696
 4279TIP3    H234397   1.693   3.154   3.213 -1.9587 -1.6858 -0.6826
 4280TIP3   OH234398   5.830   2.016   7.059  0.0545  0.6124 -0.5155
 4280TIP3    H134399   5.853   2.085   6.997  0.6713  0.3201 -0.6262
 4280TIP3    H234400   5.891   2.029   7.132 -0.3916  0.7004 -0.1562
 4281TIP3   OH234401   3.515   6.803   8.667 -0.6677  0.0565  0.5461
 4281TIP3    H134402   3.502   6.728   8.609  2.3573 -2.9165  3.2311
 4281TIP3    H234403   3.587   6.853   8.628  1.3006 -1.8857  1.4285
 4282TIP3   OH234404   6.427   6.628   1.452  0.4497 -0.1069  0.4728
 4282TIP3    H134405   6.334   6.606   1.446  0.3270  0.2361  0.9922
 4282TIP3    H234406   6.452   6.654   1.364 -0.4188  1.6016  0.6876
 4283TIP3   OH234407   3.339   6.679   7.973 -0.2055 -0.6586 -0.6578
 4283TIP3    H134408   3.282   6.706   8.045  0.9775 -0.5278  0.2620
 4283TIP3    H234409   3.279   6.648   7.905 -1.3437 -0.9645  0.4518
 4284TIP3   OH234410   0.278   0.050   0.548 -0.4590 -0.1796 -0.0266
 4284TIP3    H134411   0.229   0.046   0.630 -0.9827  1.5777 -0.2133
 4284TIP3    H234412   0.228   0.112   0.494  1.4979  1.0418 -0.5186
 4285TIP3   OH234413   6.385   4.476   7.214  0.1236 -0.4445  0.3199
 4285TIP3    H134414   6.425   4.395   7.244 -0.7534 -0.9525  0.1444
 4285TIP3    H234415   6.373   4.463   7.120  0.8214  0.2663  0.1114
 4286TIP3   OH234416   0.749   3.834   8.418  0.1722  0.1541  0.5591
 4286TIP3    H134417   0.691   3.841   8.342 -1.1536  1.2020  1.6327
 4286TIP3    H234418   0.763   3.740   8.429  0.8106 -0.0106 -1.2557
 4287TIP3   OH234419   3.715   3.729   8.042  0.0466 -0.0519  0.1929
 4287TIP3    H134420   3.682   3.817   8.024 -2.6227 -1.1563 -0.8148
 4287TIP3    H234421   3.807   3.733   8.016 -0.2282  2.1922 -0.7066
 4288TIP3   OH234422   4.392   3.266   2.617 -0.4251 -0.2442  0.2782
 4288TIP3    H134423   4.316   3.217   2.647 -0.1389 -0.7710  0.1546
 4288TIP3    H234424   4.429   3.213   2.547 -0.4330  0.4215 -0.2382
 4289TIP3   OH234425   1.147   6.654   2.241  0.0810  0.3309 -0.6382
 4289TIP3    H134426   1.157   6.701   2.324  1.1135 -2.8319  1.1722
 4289TIP3    H234427   1.053   6.657   2.223 -0.3582 -0.0237  1.3892
 4290TIP3   OH234428   4.003   3.160   2.728 -0.1654 -0.4881 -0.4867
 4290TIP3    H134429   4.038   3.234   2.678  0.4586 -0.9719 -0.7755
 4290TIP3    H234430   4.066   3.089   2.714 -0.9545 -1.1963 -0.5238
 4291TIP3   OH234431   0.883   3.288   1.765  0.4268 -0.1165  0.0165
 4291TIP3    H134432   0.888   3.238   1.846  1.4134 -1.7049 -0.9657
 4291TIP3    H234433   0.972   3.322   1.752  0.1827  0.4560 -0.2140
 4292TIP3   OH234434   5.894   5.527   7.615  0.2025  0.1273  0.4354
 4292TIP3    H134435   5.922   5.515   7.524 -1.3206 -1.3518  0.1083
 4292TIP3    H234436   5.799   5.528   7.610  0.1151  1.9048  1.8399
 4293TIP3   OH234437   1.254   4.419   0.458 -0.3747  0.1677  0.6063
 4293TIP3    H134438   1.303   4.457   0.531 -1.3290  0.8801  0.8968
 4293TIP3    H234439   1.304   4.443   0.380  0.2844 -0.0042  0.9681
 4294TIP3   OH234440   5.514   1.107   7.747 -0.2205  0.6381 -0.3236
 4294TIP3    H134441   5.578   1.119   7.677  1.0792 -0.2825  0.6575
 4294TIP3    H234442   5.525   1.016   7.774 -1.4610  0.6627  0.3505
 4295TIP3   OH234443   0.905   2.915   8.639 -0.0573 -0.0812  0.2838
 4295TIP3    H134444   0.978   2.903   8.699  0.0948  0.3625  0.1925
 4295TIP3    H234445   0.910   3.007   8.614 -0.0876 -0.2680 -0.4395
 4296TIP3   OH234446   6.268   1.390   7.511  0.3712 -0.4404 -0.9084
 4296TIP3    H134447   6.179   1.355   7.510  0.7258 -1.3813 -0.5831
 4296TIP3    H234448   6.316   1.338   7.446  0.8373 -0.3782 -0.6238
 4297TIP3   OH234449   0.011   2.792   0.933 -0.0735 -0.0220 -0.1003
 4297TIP3    H134450   0.106   2.781   0.921 -0.1842 -1.2057 -0.0530
 4297TIP3    H234451   0.003   2.850   1.008  0.6150 -0.0393 -0.0028
 4298TIP3   OH234452   5.357   1.326   1.418  0.0525 -0.0712 -0.8068
 4298TIP3    H134453   5.428   1.388   1.401  0.4108  0.2619  1.5995
 4298TIP3    H234454   5.398   1.240   1.414  0.2427  0.0296 -1.0154
 4299TIP3   OH234455   2.162   2.749   7.267  0.5158 -0.1236  0.0866
 4299TIP3    H134456   2.136   2.784   7.182 -0.0327 -1.2585 -0.2322
 4299TIP3    H234457   2.250   2.784   7.282  0.4835  0.3497 -0.7865
 4300TIP3   OH234458   5.172   5.679   2.491 -0.4593  0.1129 -0.1404
 4300TIP3    H134459   5.246   5.622   2.469 -0.6956 -1.2234  2.2058
 4300TIP3    H234460   5.206   5.768   2.480  1.3140 -0.4767  0.3416
 4301TIP3   OH234461   3.282   4.439   2.353  0.0859  0.0470 -0.3087
 4301TIP3    H134462   3.370   4.402   2.359  0.9531  1.7930 -1.3957
 4301TIP3    H234463   3.286   4.518   2.407 -1.4154 -0.8109  1.1652
 4302TIP3   OH234464   5.784   6.300   1.604  0.1661  0.3856 -0.0466
 4302TIP3    H134465   5.805   6.267   1.516 -1.5265 -1.0787  0.0448
 4302TIP3    H234466   5.732   6.379   1.589 -0.0197  0.2032 -0.3708
 4303TIP3   OH234467   5.480   0.365   8.493  0.0336 -0.2427  0.4221
 4303TIP3    H134468   5.467   0.441   8.435  0.1502 -0.5479 -0.0135
 4303TIP3    H234469   5.427   0.296   8.453 -0.0801 -0.3855  0.8230
 4304TIP3   OH234470   2.681   2.798   1.386  0.8381  0.7485 -0.5059
 4304TIP3    H134471   2.706   2.729   1.324  3.1214  0.3146  0.7835
 4304TIP3    H234472   2.754   2.860   1.383  1.4043  0.3210  2.2247
 4305TIP3   OH234473   6.102   6.083   0.132  0.2181  0.3446  0.5225
 4305TIP3    H134474   6.161   6.010   0.150 -0.0050 -0.0206 -0.1982
 4305TIP3    H234475   6.028   6.043   0.086 -1.0778  0.6291  2.2861
 4306TIP3   OH234476   4.369   1.646   8.190 -0.5129 -0.1861  0.3378
 4306TIP3    H134477   4.324   1.730   8.196  1.9905  1.3862 -1.4006
 4306TIP3    H234478   4.376   1.628   8.097  0.6567 -1.3958  0.6174
 4307TIP3   OH234479   5.357   1.918   2.262 -0.5526  0.2257  0.0187
 4307TIP3    H134480   5.336   1.858   2.334 -2.2826 -1.4124 -1.7571
 4307TIP3    H234481   5.343   2.005   2.300 -3.0794 -0.6026  1.2739
 4308TIP3   OH234482   0.406   5.768   7.021 -0.1877  0.1579  0.0080
 4308TIP3    H134483   0.347   5.737   6.952 -0.0662  0.1212 -0.0789
 4308TIP3    H234484   0.452   5.842   6.982  0.3153 -0.2345 -0.1568
 4309TIP3   OH234485   6.144   6.762   0.209  0.4714 -0.1941 -0.1514
 4309TIP3    H134486   6.086   6.731   0.278 -1.5380  1.9341 -0.7482
 4309TIP3    H234487   6.202   6.825   0.254 -1.5078  1.9771 -0.4412
 4310TIP3   OH234488   0.702   1.680   1.914 -0.0070 -0.6668 -0.3293
 4310TIP3    H134489   0.695   1.749   1.980  0.2354 -0.0672 -0.9186
 4310TIP3    H234490   0.633   1.701   1.850 -0.6301 -1.5776  0.0304
 4311TIP3   OH234491   6.300   3.718   1.294 -0.1594  0.2967 -0.0742
 4311TIP3    H134492   6.325   3.691   1.382 -0.4834  1.4677  0.4025
 4311TIP3    H234493   6.210   3.686   1.284 -0.1837  0.3104  0.0928
 4312TIP3   OH234494   0.590   2.870   8.427  0.1909  0.0773  1.1521
 4312TIP3    H134495   0.535   2.862   8.505 -3.4750 -0.5768 -1.2246
 4312TIP3    H234496   0.632   2.956   8.437 -0.4271  0.1770  3.6321
 4313TIP3   OH234497   0.189   3.020   0.744  0.0656 -0.2298  0.0272
 4313TIP3    H134498   0.236   3.101   0.727  1.3038 -0.8462  0.4110
 4313TIP3    H234499   0.226   2.987   0.826 -0.5824 -1.0712  0.0037
 4314TIP3   OH234500   0.993   1.008   2.754 -0.3269  0.1865 -0.0251
 4314TIP3    H134501   0.988   1.044   2.843  1.6277 -0.6505  0.4586
 4314TIP3    H234502   1.085   1.016   2.730 -0.7061 -0.2397 -1.7333
 4315TIP3   OH234503   5.754   4.123   2.129  0.1894  0.3287  0.4681
 4315TIP3    H134504   5.743   4.106   2.035  1.0152  0.9515  0.2456
 4315TIP3    H234505   5.810   4.200   2.133  2.5119 -1.2869  1.4624
 4316TIP3   OH234506   6.553   6.377   1.475 -0.4949 -0.3146 -0.7482
 4316TIP3    H134507   6.508   6.458   1.499  0.4947 -0.0783  0.4042
 4316TIP3    H234508   6.493   6.333   1.415 -3.1006 -0.8615  2.0279
 4317TIP3   OH234509   1.568   3.439   2.405  0.8197 -0.1972 -0.3282
 4317TIP3    H134510   1.651   3.391   2.398  0.8902 -0.2718  0.7602
 4317TIP3    H234511   1.505   3.374   2.435  0.6238  0.0980 -0.0910
 4318TIP3   OH234512   1.853   1.082   2.216  0.0327 -1.0946 -0.0084
 4318TIP3    H134513   1.837   1.173   2.193  0.9991 -1.1006 -0.7205
 4318TIP3    H234514   1.801   1.069   2.296 -1.5544 -0.4469 -0.8847
 4319TIP3   OH234515   0.778   5.205   2.976 -0.1408  0.1478 -0.6228
 4319TIP3    H134516   0.697   5.255   2.985  0.8448  1.7846 -0.4859
 4319TIP3    H234517   0.810   5.229   2.889 -0.2647 -1.2252 -1.0631
 4320TIP3   OH234518   3.294   0.112   7.575  0.2886  0.0266  0.2082
 4320TIP3    H134519   3.215   0.077   7.617 -0.1161  2.2794  1.4905
 4320TIP3    H234520   3.362   0.047   7.595 -0.4266 -0.1676  2.3628
 4321TIP3   OH234521   2.284   5.637   0.326  0.3626  0.1175  0.3557
 4321TIP3    H134522   2.202   5.608   0.286  1.6829 -1.2497 -1.5457
 4321TIP3    H234523   2.280   5.732   0.322 -1.0682  0.0720  0.1580
 4322TIP3   OH234524   2.537   5.736   2.237  0.5376  0.4608  0.0231
 4322TIP3    H134525   2.445   5.735   2.208 -0.2017 -0.6873  2.1739
 4322TIP3    H234526   2.582   5.680   2.174 -0.4887  0.0508 -0.3767
 4323TIP3   OH234527   5.979   4.918   8.684  0.2684 -0.6288  1.0843
 4323TIP3    H134528   6.029   4.889   8.607 -1.8531 -1.0279 -0.2421
 4323TIP3    H234529   6.016   4.869   8.757  1.5256 -1.1898  0.1017
 4324TIP3   OH234530   5.191   3.936   0.765 -0.2207  0.2298 -0.3032
 4324TIP3    H134531   5.160   3.845   0.769  0.6235 -0.0160  1.6542
 4324TIP3    H234532   5.123   3.982   0.715 -1.0605 -1.3054 -0.6438
 4325TIP3   OH234533   6.819   2.435   6.905 -0.5121  0.7173  0.7991
 4325TIP3    H134534   6.830   2.416   6.812  0.2669  0.2005  0.9827
 4325TIP3    H234535   6.906   2.463   6.934 -1.1192  2.4430  1.0363
 4326TIP3   OH234536   0.322   1.564   1.104  0.1738  0.7563  0.0295
 4326TIP3    H134537   0.248   1.604   1.149  1.0536  2.2921  0.2065
 4326TIP3    H234538   0.293   1.475   1.084 -0.6627  0.3318  2.6650
 4327TIP3   OH234539   3.593   6.807   0.568  0.2005  0.2082  0.6068
 4327TIP3    H134540   3.656   6.765   0.511  0.4612  0.5260  0.6563
 4327TIP3    H234541   3.623   6.786   0.657  0.7438  1.0863  0.6403
 4328TIP3   OH234542   2.231   1.986   1.964 -0.1680 -0.1330 -0.1394
 4328TIP3    H134543   2.271   1.970   1.879  0.6653  0.8742  0.0562
 4328TIP3    H234544   2.202   2.077   1.961 -2.2782 -0.7420 -0.1918
 4329TIP3   OH234545   1.124   5.247   3.143 -0.0656  0.3234  0.4028
 4329TIP3    H134546   1.189   5.297   3.092 -0.3857  1.2521  0.8734
 4329TIP3    H234547   1.135   5.279   3.233 -0.6378 -0.0879  0.6221
 4330TIP3   OH234548   4.421   3.595   1.197  0.0631  0.2684 -0.3442
 4330TIP3    H134549   4.516   3.587   1.206  0.2473  2.8686  0.7210
 4330TIP3    H234550   4.408   3.669   1.138 -1.3072  0.5809  0.3007
 4331TIP3   OH234551   1.801   0.161   1.812 -0.3198  0.2438  0.1106
 4331TIP3    H134552   1.720   0.115   1.792 -1.1808  1.4038  0.8146
 4331TIP3    H234553   1.864   0.091   1.832 -1.4414 -0.6545  0.6436
 4332TIP3   OH234554   4.135   1.309   1.596  0.3894 -0.4231  0.0502
 4332TIP3    H134555   4.133   1.323   1.501  0.0789 -0.7666  0.0059
 4332TIP3    H234556   4.226   1.289   1.616  1.2340  3.0532  0.3159
 4333TIP3   OH234557   3.730   6.560   7.799 -0.1909  0.1458  0.0771
 4333TIP3    H134558   3.642   6.527   7.815  0.3167 -0.7654  1.0797
 4333TIP3    H234559   3.727   6.596   7.711 -1.0054 -1.8188 -0.7373
 4334TIP3   OH234560   2.471   1.184   0.915  0.1693  0.1745  0.2863
 4334TIP3    H134561   2.383   1.159   0.943  0.2721  0.5964  0.9930
 4334TIP3    H234562   2.457   1.232   0.833 -0.2179 -0.1736  0.1449
 4335TIP3   OH234563   2.779   2.368   8.016  0.2216 -0.6470 -0.6539
 4335TIP3    H134564   2.774   2.276   8.043  0.6366  0.1897  2.6783
 4335TIP3    H234565   2.733   2.371   7.932 -0.4044 -3.7543 -0.5313
 4336TIP3   OH234566   3.276   5.237   7.976  0.2865 -0.3367 -0.3857
 4336TIP3    H134567   3.363   5.197   7.982 -0.4275 -2.1220 -1.0846
 4336TIP3    H234568   3.224   5.188   8.039 -0.2339  0.6839 -0.0138
 4337TIP3   OH234569   5.483   5.876   8.271  0.4035  0.0638  0.3049
 4337TIP3    H134570   5.491   5.782   8.288  0.2543  0.1543  0.8887
 4337TIP3    H234571   5.408   5.903   8.324 -1.0736  0.0595 -1.6603
 4338TIP3   OH234572   0.854   4.765   0.140  0.7782 -0.5435 -0.2686
 4338TIP3    H134573   0.759   4.756   0.153  0.3447  2.1063 -1.1213
 4338TIP3    H234574   0.871   4.719   0.058  0.4755 -2.0008  0.4457
 4339TIP3   OH234575   0.346   2.017   2.355 -0.2779 -0.2551  0.2248
 4339TIP3    H134576   0.415   1.964   2.394  0.1170 -0.4562 -0.7374
 4339TIP3    H234577   0.386   2.059   2.279 -1.1622 -0.2592 -0.2678
 4340TIP3   OH234578   5.737   5.659   1.118  0.1867 -0.1612 -0.4403
 4340TIP3    H134579   5.825   5.655   1.154 -0.6577  1.1191  1.9911
 4340TIP3    H234580   5.721   5.753   1.105 -0.5963 -0.4203 -1.4751
 4341TIP3   OH234581   6.566   1.137   1.785  0.1403 -0.0833 -0.1438
 4341TIP3    H134582   6.631   1.073   1.812 -1.4609 -1.7487 -0.0703
 4341TIP3    H234583   6.572   1.138   1.689  1.7541  1.4558 -0.0868
 4342TIP3   OH234584   4.200   6.274   2.750 -0.2396 -0.8011 -0.1014
 4342TIP3    H134585   4.174   6.201   2.807  0.1273 -0.0946  1.0041
 4342TIP3    H234586   4.163   6.351   2.792 -0.4716 -0.3240 -1.1683
 4343TIP3   OH234587   4.029   0.020   0.240  0.6057 -0.3633  0.5040
 4343TIP3    H134588   3.986   0.099   0.209 -0.2761 -1.1687 -0.3650
 4343TIP3    H234589   4.085   0.050   0.312 -1.7698  0.6397  2.0250
 4344TIP3   OH234590   6.790   4.632   0.414  0.0379 -0.2914  0.5742
 4344TIP3    H134591   6.704   4.589   0.415  0.6493 -1.7497 -1.6600
 4344TIP3    H234592   6.852   4.562   0.434  0.8022  0.4721  0.9262
 4345TIP3   OH234593   3.778   0.358   0.437 -0.8483  0.1138  0.5964
 4345TIP3    H134594   3.718   0.398   0.500 -1.4941 -1.0218  0.7343
 4345TIP3    H234595   3.722   0.302   0.383  0.3202 -2.7352  2.1224
 4346TIP3   OH234596   5.678   4.654   1.887 -0.7142  0.6460  0.1324
 4346TIP3    H134597   5.655   4.593   1.957  0.4790 -2.2324 -1.7506
 4346TIP3    H234598   5.636   4.617   1.809  3.0381 -0.0455 -1.8110
 4347TIP3   OH234599   2.526   2.009   0.339  0.2152 -0.2030  0.6578
 4347TIP3    H134600   2.571   1.928   0.317 -1.0281 -0.9198  0.6480
 4347TIP3    H234601   2.508   2.050   0.255 -0.2344 -0.5267  0.5946
 4348TIP3   OH234602   4.649   0.839   1.234  0.4619 -0.6207 -0.0747
 4348TIP3    H134603   4.596   0.850   1.313  0.6741 -1.4216  0.1887
 4348TIP3    H234604   4.739   0.855   1.263  0.4339  0.1273 -0.3874
 4349TIP3   OH234605   4.863   6.088   7.300  0.0941  0.0631 -0.1882
 4349TIP3    H134606   4.796   6.156   7.310 -1.1181 -0.6908 -2.4103
 4349TIP3    H234607   4.898   6.102   7.212  2.2853 -0.1204  0.5958
 4350TIP3   OH234608   4.130   0.001   8.052  0.3122 -0.1132  0.0023
 4350TIP3    H134609   4.124   0.030   8.143 -2.0568  1.4723 -0.5622
 4350TIP3    H234610   4.080  -0.081   8.050  0.4840 -0.2205  0.1748
 4351TIP3   OH234611   0.552   0.648   1.527  0.9149 -0.1105 -1.1370
 4351TIP3    H134612   0.605   0.631   1.605  0.4684  1.4606 -0.4627
 4351TIP3    H234613   0.500   0.725   1.549 -0.8563 -0.9327 -2.1798
 4352TIP3   OH234614   2.872   5.075   0.139  0.1785  0.4748  0.2351
 4352TIP3    H134615   2.900   5.028   0.061  0.8054  1.4129 -0.1169
 4352TIP3    H234616   2.855   5.006   0.204  2.7279 -0.1851  0.2792
 4353TIP3   OH234617   0.905   4.387   1.161 -0.4237  0.0122  0.3973
 4353TIP3    H134618   0.978   4.423   1.210 -1.2922  4.2010 -0.9883
 4353TIP3    H234619   0.935   4.389   1.069 -2.2729  2.2617 -0.2483
 4354TIP3   OH234620   2.376   3.889   0.037  0.4807 -0.6040 -0.6422
 4354TIP3    H134621   2.348   3.861   0.124  2.5250 -0.4937  0.1079
 4354TIP3    H234622   2.460   3.845   0.023  0.7538  0.2965 -2.0567
 4355TIP3   OH234623   3.567   1.374   8.181 -0.2363  0.1723 -0.3466
 4355TIP3    H134624   3.601   1.459   8.153 -0.7880 -0.1765 -2.2202
 4355TIP3    H234625   3.507   1.348   8.111  0.3479 -2.0089 -0.1172
 4356TIP3   OH234626   0.040   1.207   1.275 -0.1448 -0.2062 -0.6382
 4356TIP3    H134627   0.020   1.143   1.206  2.5413 -0.5398 -1.2364
 4356TIP3    H234628  -0.012   1.283   1.252 -0.1918 -0.7116 -2.4157
 4357TIP3   OH234629   6.287   5.231   7.039 -0.2749 -0.0864 -0.5381
 4357TIP3    H134630   6.203   5.185   7.030  0.8252 -2.3030 -0.1728
 4357TIP3    H234631   6.338   5.177   7.100  0.9981  1.8796  0.2575
 4358TIP3   OH234632   0.812   6.055   0.610 -0.5862 -0.1093 -0.2576
 4358TIP3    H134633   0.870   6.129   0.594 -1.5676  0.4884 -1.2311
 4358TIP3    H234634   0.768   6.042   0.526  0.8047 -2.9239 -0.6646
 4359TIP3   OH234635   4.031   4.973   7.423  0.1734  0.3909  0.3573
 4359TIP3    H134636   4.074   4.898   7.465  1.8610  2.2093  2.1247
 4359TIP3    H234637   3.940   4.967   7.451  0.4590 -0.5654  1.1563
 4360TIP3   OH234638   0.622   5.443   1.566  0.2563 -0.2138 -0.5602
 4360TIP3    H134639   0.657   5.426   1.478 -1.2109 -0.1882 -1.1730
 4360TIP3    H234640   0.659   5.528   1.590  0.6126 -0.1873 -1.1801
 4361TIP3   OH234641   3.498   0.465   0.334  0.6306  0.0609 -0.1955
 4361TIP3    H134642   3.483   0.370   0.341  1.5071 -0.1854 -1.3014
 4361TIP3    H234643   3.417   0.499   0.298  0.6098 -0.4045 -0.6040
 4362TIP3   OH234644   2.529   1.055   1.961 -0.1635  0.5776 -0.4445
 4362TIP3    H134645   2.458   1.114   1.938  1.3556  1.8131 -2.2276
 4362TIP3    H234646   2.559   1.086   2.047 -0.3554  1.4387 -0.6843
 4363TIP3   OH234647   5.086   1.522   0.551  0.0167 -0.3658  0.1932
 4363TIP3    H134648   5.166   1.503   0.599 -0.9684  0.5275  2.3776
 4363TIP3    H234649   5.023   1.457   0.583 -0.4413 -0.2998 -0.5559
 4364TIP3   OH234650   3.797   0.648   8.356 -0.2012 -0.3509  0.1952
 4364TIP3    H134651   3.868   0.596   8.393  0.2898 -0.1220 -0.4080
 4364TIP3    H234652   3.833   0.737   8.349  0.4845 -0.7649 -2.7429
 4365TIP3   OH234653   6.725   5.420   7.869  0.6931 -0.0292 -0.2017
 4365TIP3    H134654   6.778   5.450   7.796  2.0227 -1.0345  0.3249
 4365TIP3    H234655   6.779   5.436   7.946 -0.5682  0.7420  0.5588
 4366TIP3   OH234656   5.392   3.482   8.215 -0.2189  0.1623 -0.0615
 4366TIP3    H134657   5.302   3.448   8.212  0.2197 -1.0240 -0.3016
 4366TIP3    H234658   5.382   3.572   8.246 -1.2255 -0.9946  3.4469
 4367TIP3   OH234659   5.817   3.241   7.732 -0.1880  0.5466 -0.3243
 4367TIP3    H134660   5.897   3.221   7.684 -0.2171  0.5152 -0.3601
 4367TIP3    H234661   5.805   3.335   7.721 -0.2545  0.5214 -0.4728
 4368TIP3   OH234662   3.996   3.251   1.744 -0.5040  0.3732  0.5838
 4368TIP3    H134663   4.056   3.214   1.679 -1.3985 -0.7511  0.3802
 4368TIP3    H234664   4.053   3.294   1.808  0.4143  1.1573 -0.7197
 4369TIP3   OH234665   3.473   6.728   0.249 -0.2325 -0.7312  0.1416
 4369TIP3    H134666   3.568   6.726   0.265 -0.6674 -0.5007  3.3224
 4369TIP3    H234667   3.465   6.764   0.161  2.6665 -2.3940 -0.9479
 4370TIP3   OH234668   3.691   2.668   8.055 -0.0712 -0.2449 -0.1167
 4370TIP3    H134669   3.747   2.740   8.026  0.2364 -0.5852 -0.3595
 4370TIP3    H234670   3.655   2.631   7.975 -0.4121 -0.2174  0.0212
 4371TIP3   OH234671   5.779   5.943   0.993  0.1130  0.5149 -0.4769
 4371TIP3    H134672   5.710   5.996   1.034  0.2681 -0.2463  0.8401
 4371TIP3    H234673   5.860   5.972   1.036  0.1432 -1.0655  0.6062
 4372TIP3   OH234674   4.516   0.457   7.509 -0.3564 -0.6090 -0.9263
 4372TIP3    H134675   4.520   0.539   7.461  1.8541 -0.9004 -1.3643
 4372TIP3    H234676   4.426   0.452   7.541 -0.7949  1.5115 -1.6593
 4373TIP3   OH234677   1.206   1.106   8.398 -0.1245  0.0912  0.8481
 4373TIP3    H134678   1.287   1.058   8.418  0.4672  0.8477  0.3724
 4373TIP3    H234679   1.172   1.133   8.483  1.3371  1.6456  1.0162
 4374TIP3   OH234680   6.629   1.533   7.779  0.3713  0.1114 -0.4294
 4374TIP3    H134681   6.668   1.565   7.698  0.0537  0.0757 -0.5955
 4374TIP3    H234682   6.560   1.473   7.752  0.1536  0.2255 -0.1385
 4375TIP3   OH234683   0.442   5.039   0.740 -0.4137  0.2587 -0.4054
 4375TIP3    H134684   0.394   5.005   0.816 -0.1757  2.2666  0.7421
 4375TIP3    H234685   0.381   5.101   0.700  0.3829  1.1177 -0.3070
 4376TIP3   OH234686   2.253   5.156   0.998  0.2984 -0.0054 -0.1212
 4376TIP3    H134687   2.164   5.188   0.982 -0.4103 -0.2750  2.8530
 4376TIP3    H234688   2.294   5.223   1.051  0.3567 -1.7728  2.2249
 4377TIP3   OH234689   5.235   2.560   7.814 -0.3084 -0.8242  0.2070
 4377TIP3    H134690   5.146   2.596   7.812 -0.3121 -0.8467 -0.1595
 4377TIP3    H234691   5.271   2.588   7.898 -0.2683  0.1387 -0.1273
 4378TIP3   OH234692   1.494   6.611   7.761  0.3197 -0.3241 -0.3628
 4378TIP3    H134693   1.483   6.518   7.784  1.7829 -0.1808  1.0584
 4378TIP3    H234694   1.494   6.657   7.845 -0.1863  0.9631 -1.0387
 4379TIP3   OH234695   3.949   6.294   0.018 -0.6214 -0.0138  0.0848
 4379TIP3    H134696   3.900   6.375   0.031 -1.9369 -0.8302  0.4200
 4379TIP3    H234697   3.882   6.226   0.015  0.5375 -1.2627  1.1595
 4380TIP3   OH234698   1.372   6.459   0.303 -0.2502 -0.0741 -0.1336
 4380TIP3    H134699   1.321   6.380   0.287  2.8075 -2.3267  0.5249
 4380TIP3    H234700   1.461   6.428   0.319  0.9624  3.4709  0.8885
 4381TIP3   OH234701   0.594   0.798   1.884  0.1472  0.6138 -0.0765
 4381TIP3    H134702   0.682   0.830   1.903  0.4755 -0.8845  1.0674
 4381TIP3    H234703   0.595   0.706   1.911 -2.0247  0.7915  0.8281
 4382TIP3   OH234704   0.144   1.626   8.328 -0.1198 -0.0020  0.1367
 4382TIP3    H134705   0.203   1.592   8.262  0.3144  2.5920 -0.9148
 4382TIP3    H234706   0.179   1.593   8.411  1.6992 -0.0625 -0.6115
 4383TIP3   OH234707   1.755   5.876   8.402 -0.0270 -0.4907  0.0929
 4383TIP3    H134708   1.820   5.908   8.464 -0.1934  0.2238 -0.1008
 4383TIP3    H234709   1.806   5.851   8.324  0.0571 -0.3061  0.0891
 4384TIP3   OH234710   5.541   2.598   0.044 -0.4614 -0.1324 -0.1526
 4384TIP3    H134711   5.451   2.571   0.063 -0.0759 -0.1441  1.8591
 4384TIP3    H234712   5.595   2.524   0.073  0.1804 -0.8512 -2.8845
 4385TIP3   OH234713   5.714   4.074   1.843  0.2470  0.1716  0.3575
 4385TIP3    H134714   5.801   4.041   1.818  0.0419 -1.8085  1.9844
 4385TIP3    H234715   5.655   4.035   1.779  0.0704 -2.4764  1.9763
 4386TIP3   OH234716   5.840   2.631   1.117  0.0044 -0.8519 -0.2815
 4386TIP3    H134717   5.815   2.566   1.183  0.1742 -1.8087 -1.1335
 4386TIP3    H234718   5.760   2.646   1.067 -0.2791  0.3171  0.4811
 4387TIP3   OH234719   2.526   5.748   7.297 -0.0042  0.3264 -0.3673
 4387TIP3    H134720   2.514   5.658   7.329  0.8489  0.0534 -0.7820
 4387TIP3    H234721   2.469   5.753   7.220 -1.7735  0.8676  0.9167
 4388TIP3   OH234722   0.222   4.754   0.134 -0.2481  0.3837 -0.1699
 4388TIP3    H134723   0.178   4.832   0.167  1.7170  0.9636  1.2807
 4388TIP3    H234724   0.229   4.696   0.210 -2.0107 -1.4353 -1.3093
 4389TIP3   OH234725   3.103   5.841   0.564  0.0064  0.1361 -0.0106
 4389TIP3    H134726   3.175   5.899   0.541 -0.1687  0.4496  0.2267
 4389TIP3    H234727   3.054   5.830   0.483  0.8903 -0.8992 -0.4291
 4390TIP3   OH234728   2.328   4.885   2.396  0.4198  0.0601 -0.3884
 4390TIP3    H134729   2.396   4.861   2.333  2.5010  0.9197  1.4224
 4390TIP3    H234730   2.362   4.857   2.480 -0.9920  1.5272  0.7390
 4391TIP3   OH234731   6.789   6.738   2.758 -0.5059  0.7354 -0.1152
 4391TIP3    H134732   6.825   6.650   2.748 -2.6349 -0.2398  0.3846
 4391TIP3    H234733   6.815   6.765   2.846  0.5732  0.8362 -0.4502
 4392TIP3   OH234734   0.596   5.190   2.415 -0.3153 -0.1722 -0.4530
 4392TIP3    H134735   0.518   5.232   2.380 -0.7726 -0.4148  0.2556
 4392TIP3    H234736   0.578   5.096   2.407  0.9544 -0.3092 -2.6195
 4393TIP3   OH234737   5.930   2.743   8.037 -0.4591 -0.0838  0.1706
 4393TIP3    H134738   5.871   2.688   8.088 -1.0138 -0.4802 -0.8981
 4393TIP3    H234739   6.012   2.693   8.033 -0.6713 -0.4099 -0.0308
 4394TIP3   OH234740   6.560   2.818   1.362  0.4088  0.3446 -0.0175
 4394TIP3    H134741   6.480   2.792   1.316  0.1971 -1.2641  1.1729
 4394TIP3    H234742   6.529   2.846   1.449  1.0716  0.3567  0.2191
 4395TIP3   OH234743   3.837   2.648   2.744 -0.2580  0.1351  0.4800
 4395TIP3    H134744   3.925   2.616   2.760 -0.1054  0.1258 -0.3427
 4395TIP3    H234745   3.810   2.687   2.827  1.0019  1.2673  0.3962
 4396TIP3   OH234746   0.731   4.184   0.120 -0.4184 -0.9449 -0.2543
 4396TIP3    H134747   0.782   4.132   0.057  0.5543 -0.8192  0.4012
 4396TIP3    H234748   0.650   4.134   0.132  0.2169 -1.9838 -0.1229
 4397TIP3   OH234749   4.063   4.588   8.077  0.4594  0.3726  0.2870
 4397TIP3    H134750   4.105   4.647   8.140 -0.3339  1.9425 -0.6001
 4397TIP3    H234751   3.972   4.617   8.074  0.4709  0.3326 -1.5425
 4398TIP3   OH234752   5.643   0.859   7.682  0.0970  0.5145  0.0721
 4398TIP3    H134753   5.659   0.801   7.756  1.3992  0.9991  0.1984
 4398TIP3    H234754   5.606   0.803   7.614 -0.1604 -0.1317  0.7356
 4399TIP3   OH234755   1.542   5.250   7.995  0.1168  0.1438  0.6115
 4399TIP3    H134756   1.607   5.179   7.998  1.7190  1.5362  0.4497
 4399TIP3    H234757   1.498   5.238   7.911  0.2517 -0.7638  0.6620
 4400TIP3   OH234758   6.135   1.149   8.358 -0.0613  0.2869 -0.1834
 4400TIP3    H134759   6.064   1.099   8.398 -0.2751  1.7314  1.3842
 4400TIP3    H234760   6.092   1.226   8.321  0.5777  0.8094  0.1242
 4401TIP3   OH234761   4.342   4.668   1.569 -0.0553 -0.1271 -0.4925
 4401TIP3    H134762   4.359   4.588   1.519 -1.8200 -1.0133  0.2742
 4401TIP3    H234763   4.262   4.651   1.617 -0.1737  1.9132  0.1456
 4402TIP3   OH234764   6.135   6.411   8.419 -0.1504  1.1799 -0.2262
 4402TIP3    H134765   6.066   6.406   8.353  0.9481 -1.0875 -1.3027
 4402TIP3    H234766   6.180   6.494   8.400 -1.5469  1.9021 -0.5167
 4403TIP3   OH234767   4.870   1.834   2.981 -0.0761 -0.5271  0.0010
 4403TIP3    H134768   4.958   1.798   2.992  0.6119  1.0857 -0.0470
 4403TIP3    H234769   4.842   1.802   2.896  0.3327 -1.2998  0.1426
 4404TIP3   OH234770   1.243   0.339   1.569 -0.2207  0.1654 -0.3644
 4404TIP3    H134771   1.295   0.417   1.585 -0.4251  0.0227  1.1649
 4404TIP3    H234772   1.152   0.370   1.569 -0.2926 -0.0350  0.0793
 4405TIP3   OH234773   1.056   2.652   0.389 -0.2042  0.2807 -0.4258
 4405TIP3    H134774   1.011   2.641   0.305 -1.8792  1.1483  0.2979
 4405TIP3    H234775   1.002   2.716   0.436  2.3723  2.1675  0.1511
 4406TIP3   OH234776   6.242   2.561   6.523 -0.8385 -0.4774 -0.2398
 4406TIP3    H134777   6.334   2.562   6.550 -1.1858 -1.6799  1.1523
 4406TIP3    H234778   6.242   2.520   6.437 -0.2953 -3.7291  1.1444
 4407TIP3   OH234779   4.959   2.291   1.827  0.6224 -0.2895  0.4692
 4407TIP3    H134780   4.975   2.354   1.757 -0.9851 -0.2227  0.1167
 4407TIP3    H234781   4.868   2.305   1.851  0.2363 -2.4096  0.4405
 4408TIP3   OH234782   6.043   5.930   1.458  0.3252 -0.0930  0.4077
 4408TIP3    H134783   6.102   5.929   1.384 -0.7108 -0.4929 -0.4424
 4408TIP3    H234784   5.967   5.979   1.427 -0.7475 -1.5175  0.6834
 4409TIP3   OH234785   1.091   2.101   1.484 -0.1406 -0.1038  0.3805
 4409TIP3    H134786   1.109   2.031   1.547  1.1925  0.9548  1.2178
 4409TIP3    H234787   1.077   2.179   1.537 -2.8158  0.0954 -0.4773
 4410TIP3   OH234788   4.544   3.438   7.318  0.3955  0.6819  0.5789
 4410TIP3    H134789   4.620   3.478   7.275  0.0202  2.2598  1.3085
 4410TIP3    H234790   4.481   3.509   7.326 -1.3030 -0.6717 -0.2462
 4411TIP3   OH234791   2.817   3.901   0.458 -0.2369  0.3275  0.6384
 4411TIP3    H134792   2.912   3.908   0.468 -0.3135  0.6135  1.1994
 4411TIP3    H234793   2.782   3.942   0.536 -0.8191 -0.3823  0.7575
 4412TIP3   OH234794   0.215   0.773   8.488  0.2700  0.1440  0.0630
 4412TIP3    H134795   0.254   0.764   8.575  1.1926 -0.9317 -0.4276
 4412TIP3    H234796   0.129   0.811   8.504  0.2309 -0.4722  1.4983
 4413TIP3   OH234797   6.468   0.822   0.599  0.2593  0.3059 -0.3049
 4413TIP3    H134798   6.506   0.885   0.660 -1.2825  0.7799  0.2234
 4413TIP3    H234799   6.374   0.841   0.601 -0.2178 -1.8102 -0.3659
 4414TIP3   OH234800   2.164   1.348   8.003 -0.0417  0.1511 -0.4144
 4414TIP3    H134801   2.231   1.299   7.956  1.3640  1.4103  0.2217
 4414TIP3    H234802   2.132   1.412   7.939  2.4591  2.4266  0.4420
 4415TIP3   OH234803   6.469   4.833   0.044 -0.1226 -0.8406 -0.3070
 4415TIP3    H134804   6.542   4.778   0.073 -0.0096 -0.7939 -0.5045
 4415TIP3    H234805   6.393   4.798   0.091  0.0714 -0.7282  0.0932
 4416TIP3   OH234806   1.214   0.587   1.932  1.1386 -0.3530  0.0295
 4416TIP3    H134807   1.283   0.567   1.869  2.0362  2.1709  0.0962
 4416TIP3    H234808   1.173   0.667   1.899 -0.1220 -0.4397  1.2835
 4417TIP3   OH234809   3.535   2.456   1.824 -0.1706 -0.2123 -0.3703
 4417TIP3    H134810   3.547   2.440   1.918  1.3592  0.6516 -0.3981
 4417TIP3    H234811   3.618   2.431   1.784 -1.2534 -1.8653 -1.7116
 4418TIP3   OH234812   5.889   6.495   8.296 -0.1630  1.2467  0.7702
 4418TIP3    H134813   5.803   6.537   8.285 -0.2308  1.3436  1.5503
 4418TIP3    H234814   5.874   6.428   8.363  0.2387  0.8466  0.4634
 4419TIP3   OH234815   6.085   0.876   1.787  0.4725 -0.2649  0.4541
 4419TIP3    H134816   6.062   0.875   1.880 -1.6170  2.4404  0.1238
 4419TIP3    H234817   6.001   0.882   1.742  1.4914  0.5153 -1.4707
 4420TIP3   OH234818   1.201   6.054   0.773 -0.0872 -0.5080  0.2561
 4420TIP3    H134819   1.205   5.983   0.837  1.6743  0.3272  1.1285
 4420TIP3    H234820   1.128   6.108   0.801 -1.8761 -2.2260 -0.7787
 4421TIP3   OH234821   4.994   5.724   1.955 -0.2082 -0.2860  0.0052
 4421TIP3    H134822   5.049   5.722   2.033 -0.5824  0.4374  0.2912
 4421TIP3    H234823   5.000   5.814   1.923 -0.1734 -0.5359 -0.7210
 4422TIP3   OH234824   0.513   2.775   2.442 -0.2964  0.0975 -0.6069
 4422TIP3    H134825   0.583   2.784   2.508  0.3805  1.1999 -1.4457
 4422TIP3    H234826   0.433   2.767   2.494  0.4302 -1.3614  0.3888
 4423TIP3   OH234827   5.300   6.166   1.327  0.8947  0.1078  0.4925
 4423TIP3    H134828   5.366   6.176   1.258  0.4134 -0.1717 -0.0170
 4423TIP3    H234829   5.231   6.114   1.287  0.5226  0.0932  1.1351
 4424TIP3   OH234830   4.235   1.222   0.754 -0.4381  0.0784  0.1409
 4424TIP3    H134831   4.268   1.250   0.669 -0.0060  0.6998  0.5025
 4424TIP3    H234832   4.238   1.302   0.808  2.4480 -0.9200  1.7109
 4425TIP3   OH234833   2.337   1.845   0.578  0.2841  0.1879 -0.1802
 4425TIP3    H134834   2.292   1.762   0.563 -1.9023  1.4308 -0.9272
 4425TIP3    H234835   2.430   1.823   0.576 -0.2337 -2.3043  0.1443
 4426TIP3   OH234836   6.445   1.365   1.594 -0.5751  0.0036 -0.0883
 4426TIP3    H134837   6.397   1.441   1.561 -0.4252  0.2155  0.1766
 4426TIP3    H234838   6.445   1.303   1.521 -2.1283 -0.4114  0.2330
 4427TIP3   OH234839   3.833   5.426   1.394 -0.1399 -0.7487 -0.0073
 4427TIP3    H134840   3.744   5.411   1.426 -0.6831  3.6659  1.3499
 4427TIP3    H234841   3.890   5.394   1.464 -0.8508 -0.5478  0.6757
 4428TIP3   OH234842   0.554   6.005   1.791 -0.4575  0.1404 -0.0578
 4428TIP3    H134843   0.618   6.070   1.820 -1.2482  1.1990 -0.6250
 4428TIP3    H234844   0.538   6.026   1.699 -1.8746  0.1163  0.1623
 4429TIP3   OH234845   1.218   2.313   0.946 -0.0682  0.0781  0.4648
 4429TIP3    H134846   1.230   2.343   1.036 -1.5024 -0.1908  0.7683
 4429TIP3    H234847   1.129   2.280   0.943  0.4163 -1.2414 -0.6959
 4430TIP3   OH234848   3.080   4.886   3.201 -0.2438  0.4592  0.0776
 4430TIP3    H134849   3.030   4.840   3.269 -0.4653 -0.3088 -0.5924
 4430TIP3    H234850   3.123   4.957   3.248 -0.8556  0.2957  0.9235
 4431TIP3   OH234851   0.035   5.996   7.403 -1.1346  0.0934 -0.1688
 4431TIP3    H134852   0.003   5.919   7.450 -1.3085  0.6490  0.6331
 4431TIP3    H234853   0.065   5.961   7.319 -1.8986 -0.7426 -0.1159
 4432TIP3   OH234854   0.500   1.787   1.746 -0.1534  0.0092 -0.3758
 4432TIP3    H134855   0.521   1.870   1.790 -1.3342  0.8494 -1.3129
 4432TIP3    H234856   0.441   1.813   1.675  0.9907 -1.3942 -1.9101
 4433TIP3   OH234857   4.450   4.844   2.317  0.0803 -0.5139 -0.0750
 4433TIP3    H134858   4.507   4.847   2.394 -0.1389 -1.1884  0.1250
 4433TIP3    H234859   4.508   4.857   2.243  0.0237  2.3339  0.2703
 4434TIP3   OH234860   3.368   5.724   1.859 -0.0595  0.3219  0.1484
 4434TIP3    H134861   3.439   5.778   1.825 -0.0165  0.4380  0.4198
 4434TIP3    H234862   3.362   5.748   1.952 -0.7125  0.6031  0.0394
 4435TIP3   OH234863   3.311   4.578   2.838 -0.1792  0.0497 -0.8677
 4435TIP3    H134864   3.236   4.532   2.801  0.5099 -1.2364 -0.7147
 4435TIP3    H234865   3.273   4.637   2.903 -1.0530 -0.5904 -0.7835
 4436TIP3   OH234866   6.013   1.464   0.451  0.4741  0.2075  0.0483
 4436TIP3    H134867   6.059   1.544   0.428 -0.5348  0.6956 -0.3468
 4436TIP3    H234868   6.070   1.420   0.513  1.8898  0.3168 -1.1385
 4437TIP3   OH234869   0.566   0.730   7.475  0.1510  0.0082 -0.1870
 4437TIP3    H134870   0.503   0.772   7.417 -0.9321 -0.7639  0.4028
 4437TIP3    H234871   0.647   0.779   7.461 -0.1426  0.0292 -2.1133
 4438TIP3   OH234872   1.421   5.346   2.557  0.0897 -0.4401  0.0554
 4438TIP3    H134873   1.406   5.425   2.609 -0.7506 -1.2239  1.0478
 4438TIP3    H234874   1.448   5.378   2.471 -3.2116  1.0576 -0.5645
 4439TIP3   OH234875   4.654   5.915   7.474  0.1735 -0.1209  0.4609
 4439TIP3    H134876   4.710   5.952   7.406 -2.5131  1.6146 -0.9665
 4439TIP3    H234877   4.608   5.843   7.431 -0.7880  0.3142  0.7481
 4440TIP3   OH234878   3.724   4.565   1.890  0.7218 -0.5253  0.0778
 4440TIP3    H134879   3.785   4.573   1.964 -1.1411 -0.7804  1.7417
 4440TIP3    H234880   3.737   4.646   1.840  1.0451  0.3370  1.4980
 4441TIP3   OH234881   2.557   5.694   1.908  0.2231  0.5352  0.7930
 4441TIP3    H134882   2.565   5.621   1.970  0.2483  1.8358  2.4097
 4441TIP3    H234883   2.463   5.712   1.904  0.2110  0.3837  0.3518
 4442TIP3   OH234884   2.453   3.590   8.317  0.1855 -0.2080  0.2489
 4442TIP3    H134885   2.432   3.660   8.256  3.0734  1.2213  0.7285
 4442TIP3    H234886   2.528   3.545   8.278  0.2265 -1.1380  1.3389
 4443TIP3   OH234887   2.930   3.545   1.815 -0.5753 -0.1767  0.3725
 4443TIP3    H134888   2.986   3.573   1.743  0.5837  0.2108  1.3910
 4443TIP3    H234889   2.869   3.618   1.827 -0.2267  0.1285  0.3219
 4444TIP3   OH234890   5.284   2.529   8.226  0.6435 -0.3808 -0.3418
 4444TIP3    H134891   5.345   2.540   8.154  2.4977 -1.2112  1.0324
 4444TIP3    H234892   5.329   2.564   8.302 -1.4626  0.9553  0.3898
 4445TIP3   OH234893   4.201   6.182   8.248  0.3022  0.1580 -0.4391
 4445TIP3    H134894   4.136   6.148   8.309  0.3806  0.7579 -0.0161
 4445TIP3    H234895   4.244   6.253   8.296  0.0269  0.9684 -1.3704
 4446TIP3   OH234896   1.751   2.316   8.059 -0.4360 -0.3728  0.9494
 4446TIP3    H134897   1.758   2.337   7.965 -0.2719  0.8235  1.2184
 4446TIP3    H234898   1.679   2.254   8.064  0.1795 -1.2203 -0.0875
 4447TIP3   OH234899   1.727   3.726   2.095  0.2704  0.1148  0.5297
 4447TIP3    H134900   1.780   3.740   2.174  0.8607 -0.3957  0.2356
 4447TIP3    H234901   1.783   3.756   2.023 -0.0037 -0.0379  0.2490
 4448TIP3   OH234902   2.733   1.618   1.891  0.0377 -0.0983  0.2393
 4448TIP3    H134903   2.773   1.554   1.832 -0.0728 -1.9031  1.9699
 4448TIP3    H234904   2.671   1.566   1.943 -0.0929  1.4350  1.7095
 4449TIP3   OH234905   1.923   1.806   1.030  0.0658 -0.2924 -0.7645
 4449TIP3    H134906   1.986   1.743   1.063  0.5576  1.5613  2.2048
 4449TIP3    H234907   1.901   1.860   1.106 -1.3159  2.2761 -2.8230
 4450TIP3   OH234908   2.205   5.062   0.443 -0.5615 -0.0456  0.2111
 4450TIP3    H134909   2.232   5.088   0.531  0.1994  0.3433 -0.1274
 4450TIP3    H234910   2.132   5.121   0.422  0.9228  1.6389 -0.4130
 4451TIP3   OH234911   5.634   5.291   1.141 -0.1120 -0.2002  0.0872
 4451TIP3    H134912   5.616   5.377   1.103  2.9806 -0.0238 -1.2861
 4451TIP3    H234913   5.678   5.311   1.224 -0.8432 -0.5111  0.5594
 4452TIP3   OH234914   6.247   3.276   7.846 -0.3353  0.5028 -0.0626
 4452TIP3    H134915   6.291   3.192   7.832 -0.8889  0.2358 -0.2293
 4452TIP3    H234916   6.204   3.295   7.762 -1.9804 -0.1028  0.6005
 4453TIP3   OH234917   2.709   2.942   8.264  0.2579 -0.3875  0.6494
 4453TIP3    H134918   2.724   2.989   8.182 -0.8087  1.2609  1.3353
 4453TIP3    H234919   2.785   2.885   8.274  2.5733  2.4528  0.6063
 4454TIP3   OH234920   2.224   3.888   8.492 -0.1789 -0.3627  1.1012
 4454TIP3    H134921   2.273   3.930   8.562 -1.6605  1.1257  1.3277
 4454TIP3    H234922   2.241   3.942   8.415 -0.2540 -0.7171  0.8354
 4455TIP3   OH234923   2.361   5.437   2.016 -0.3137  0.0867  0.7304
 4455TIP3    H134924   2.343   5.427   1.922 -2.6259  0.2628  1.0976
 4455TIP3    H234925   2.427   5.371   2.035  0.4197  0.2529 -1.0777
 4456TIP3   OH234926   3.892   4.076   2.014 -0.4328 -0.1519  0.2595
 4456TIP3    H134927   3.970   4.022   2.003 -0.1908 -0.1652  1.8232
 4456TIP3    H234928   3.833   4.049   1.943  0.5655 -0.8517 -0.3251
 4457TIP3   OH234929   6.204   6.292   8.039  0.0060 -0.3159 -0.9009
 4457TIP3    H134930   6.181   6.381   8.067  1.2535 -1.2000  3.9524
 4457TIP3    H234931   6.300   6.292   8.038  0.0153 -1.4950 -1.2135
 4458TIP3   OH234932   3.753   1.554   6.950  0.3899 -0.2321 -1.1409
 4458TIP3    H134933   3.718   1.605   6.878 -0.9871  2.1157  1.0112
 4458TIP3    H234934   3.686   1.487   6.967 -0.4839  0.7638 -0.5453
 4459TIP3   OH234935   0.108   5.737   1.208  0.3500 -0.2242  0.2585
 4459TIP3    H134936   0.032   5.741   1.266  1.2361 -1.1841  1.5358
 4459TIP3    H234937   0.101   5.653   1.163 -0.7311  0.8266 -1.6640
 4460TIP3   OH234938   0.035   4.028   1.265  0.2942  0.0615 -0.3239
 4460TIP3    H134939   0.009   4.119   1.259 -0.0360 -0.0824 -1.1511
 4460TIP3    H234940   0.129   4.031   1.286 -0.0910  0.5684  1.5611
 4461TIP3   OH234941   3.074   5.654   0.268 -0.4656  0.2973  0.5657
 4461TIP3    H134942   3.132   5.625   0.339  2.4054 -0.0360 -1.7001
 4461TIP3    H234943   3.132   5.705   0.210 -2.8670  1.3075 -1.0990
 4462TIP3   OH234944   4.473   5.223   2.332  0.3663  0.0859 -0.6470
 4462TIP3    H134945   4.412   5.152   2.350  0.4620 -0.3216 -1.8312
 4462TIP3    H234946   4.422   5.288   2.286  0.7727 -0.1788 -1.4855
 4463TIP3   OH234947   6.147   6.111   0.664  0.0584 -0.1045  0.8939
 4463TIP3    H134948   6.127   6.068   0.747 -0.1390 -0.7124  0.5361
 4463TIP3    H234949   6.193   6.044   0.613 -0.9745 -0.1670  0.0187
 4464TIP3   OH234950   6.267   2.029   0.617  0.0614 -0.2540  0.2389
 4464TIP3    H134951   6.299   2.118   0.616  2.4406 -1.0371  0.7035
 4464TIP3    H234952   6.327   1.982   0.676 -1.6286 -1.9811  0.7079
 4465TIP3   OH234953   3.860   3.003   7.417  0.0470  0.2761  0.3100
 4465TIP3    H134954   3.843   2.981   7.326 -3.9672 -0.3313  1.0361
 4465TIP3    H234955   3.897   2.923   7.454  2.0528  0.6364 -0.7272
 4466TIP3   OH234956   1.519   2.863   8.440 -1.1954  0.1629 -0.2332
 4466TIP3    H134957   1.584   2.807   8.396 -2.5952 -0.0482 -2.1878
 4466TIP3    H234958   1.568   2.942   8.464  0.6361 -1.4814  1.8429
 4467TIP3   OH234959   4.357   2.983   0.573 -0.3005 -0.1058 -0.1808
 4467TIP3    H134960   4.332   3.012   0.661  0.1095 -2.5812  0.8490
 4467TIP3    H234961   4.291   3.020   0.515  0.3303  2.9665  0.8881
 4468TIP3   OH234962   1.730   1.499   8.461 -0.2271 -0.5532  0.1210
 4468TIP3    H134963   1.668   1.436   8.496  0.2529 -1.1549 -0.0993
 4468TIP3    H234964   1.816   1.466   8.486 -0.0068  0.7326  1.2035
 4469TIP3   OH234965   3.349   5.103   0.508  0.1075  0.5041  0.1682
 4469TIP3    H134966   3.303   5.041   0.451  1.0721 -0.1239  0.0332
 4469TIP3    H234967   3.399   5.047   0.568  0.8562  1.1507  0.1669
 4470TIP3   OH234968   5.549   3.913   2.710  0.2122  0.2857  0.0630
 4470TIP3    H134969   5.584   4.002   2.712 -0.6915  0.7371 -1.7236
 4470TIP3    H234970   5.457   3.922   2.734  0.8542 -0.7172  3.4367
 4471TIP3   OH234971   0.203   3.205   6.897 -0.1586  0.3462 -0.1673
 4471TIP3    H134972   0.244   3.288   6.922 -0.8785  1.4879 -2.4829
 4471TIP3    H234973   0.265   3.165   6.836 -0.1610 -0.4578  0.3485
 4472TIP3   OH234974   5.241   1.803   8.032 -0.0221  0.1311 -0.8020
 4472TIP3    H134975   5.180   1.738   8.066 -0.5927 -0.2908 -2.5721
 4472TIP3    H234976   5.266   1.855   8.109 -2.4994  0.2317  0.0043
 4473TIP3   OH234977   0.424   1.931   7.247  0.3476  0.4689 -0.3270
 4473TIP3    H134978   0.495   1.990   7.222  1.1749  0.4050  1.7329
 4473TIP3    H234979   0.348   1.964   7.199  0.8456  3.0322  0.5032
 4474TIP3   OH234980   4.493   3.951   7.083  0.0074  0.0729  0.0495
 4474TIP3    H134981   4.536   4.037   7.085 -1.2921  0.7480  0.0743
 4474TIP3    H234982   4.560   3.891   7.049  0.6387  1.2770 -0.8986
 4475TIP3   OH234983   3.272   1.527   7.445 -0.3725  0.2170  0.2874
 4475TIP3    H134984   3.317   1.455   7.402 -1.9341  0.0110 -1.0712
 4475TIP3    H234985   3.206   1.557   7.382 -1.5011  1.1285  1.8052
 4476TIP3   OH234986   4.811   5.858   0.128  0.1966  0.5745  0.0658
 4476TIP3    H134987   4.865   5.906   0.191  1.0876 -0.5716  0.2259
 4476TIP3    H234988   4.738   5.824   0.180  1.5053 -1.3040  0.8019
 4477TIP3   OH234989   1.754   6.704   7.373 -0.1076  0.6239 -0.0236
 4477TIP3    H134990   1.740   6.735   7.463 -0.2066  0.9916 -0.1626
 4477TIP3    H234991   1.670   6.720   7.329  0.0560  0.7947 -0.2776
 4478TIP3   OH234992   6.155   6.838   2.680  0.7554 -0.3344  0.3074
 4478TIP3    H134993   6.212   6.776   2.725  1.9661 -1.5386 -2.6560
 4478TIP3    H234994   6.205   6.919   2.676  0.9780 -0.4679  0.3827
 4479TIP3   OH234995   6.418   3.751   0.240  0.4405 -0.0393  0.1689
 4479TIP3    H134996   6.364   3.674   0.225 -1.8702  1.8624 -2.4337
 4479TIP3    H234997   6.485   3.747   0.172  1.3563 -0.5643  1.0894
 4480TIP3   OH234998   1.194   1.376   7.874  0.0971 -0.4185  0.0248
 4480TIP3    H134999   1.134   1.310   7.907 -0.3912 -0.1350 -0.2864
 4480TIP3    H235000   1.214   1.348   7.784  1.3288 -1.1244  0.4819
 4481TIP3   OH235001   0.768   2.387   1.638  0.3143  0.4882  0.4498
 4481TIP3    H135002   0.693   2.432   1.676 -0.1210  0.6756 -0.6091
 4481TIP3    H235003   0.782   2.312   1.696 -0.3277  0.7659  0.9828
 4482TIP3   OH235004   6.189   4.346   0.349 -0.2273 -0.2836 -0.2252
 4482TIP3    H135005   6.214   4.328   0.439 -0.7454  2.2488  0.4824
 4482TIP3    H235006   6.099   4.314   0.342 -0.5419  0.4299  0.4817
 4483TIP3   OH235007   3.889   4.242   0.170  0.3406 -0.1523  0.3934
 4483TIP3    H135008   3.940   4.296   0.109  2.6346 -2.6531 -0.0506
 4483TIP3    H235009   3.838   4.306   0.220  0.9694  2.2346 -1.7575
 4484TIP3   OH235010   6.356   1.295   8.372  0.4075 -0.5282 -0.5355
 4484TIP3    H135011   6.358   1.313   8.278  0.3295  1.1501 -0.2520
 4484TIP3    H235012   6.292   1.225   8.382  0.3833 -0.7047 -1.7142
 4485TIP3   OH235013   2.203   6.487   1.150 -0.5046 -0.2090  0.5576
 4485TIP3    H135014   2.262   6.495   1.074  1.1258  0.4994  1.8282
 4485TIP3    H235015   2.231   6.407   1.194 -1.5398 -0.6954  0.3595
 4486TIP3   OH235016   1.763   6.641   0.012 -0.5702  0.2311  0.0151
 4486TIP3    H135017   1.844   6.603   0.047 -0.3411 -0.9622 -1.6889
 4486TIP3    H235018   1.736   6.705   0.078  1.0950 -0.2219  1.1993
 4487TIP3   OH235019   5.618   0.226   8.674 -0.4319  0.2957 -0.0100
 4487TIP3    H135020   5.567   0.228   8.755  0.1530 -1.6778  0.4661
 4487TIP3    H235021   5.574   0.288   8.616 -1.7286  0.6623  1.3057
 4488TIP3   OH235022   3.112   0.614   0.539 -0.0314  0.3946  0.1205
 4488TIP3    H135023   3.121   0.639   0.448 -0.6217  0.9740  0.2159
 4488TIP3    H235024   3.088   0.694   0.585 -0.7824 -0.0872  0.6129
 4489TIP3   OH235025   4.967   4.773   8.539  0.1980 -0.4160  0.1634
 4489TIP3    H135026   5.042   4.800   8.590  0.7848 -1.6612 -0.0060
 4489TIP3    H235027   5.002   4.755   8.452  0.2952 -3.6026  0.7290
 4490TIP3   OH235028   3.500   6.244   0.701 -0.1397  0.2428  0.0430
 4490TIP3    H135029   3.498   6.339   0.710  0.0584  0.1375  1.4404
 4490TIP3    H235030   3.526   6.229   0.610 -0.2666  1.5219 -0.2183
 4491TIP3   OH235031   0.751   0.521   1.000 -0.3556  0.2040 -0.2073
 4491TIP3    H135032   0.689   0.566   1.058 -0.9203  0.5876 -1.0803
 4491TIP3    H235033   0.730   0.428   1.010  0.4021  0.1407  1.1356
 4492TIP3   OH235034   3.159   4.756   0.043  0.2588  0.1880  0.1457
 4492TIP3    H135035   3.188   4.735   0.132 -0.5572 -0.2070  0.3361
 4492TIP3    H235036   3.219   4.708  -0.014 -2.1355 -3.7650  0.5741
 4493TIP3   OH235037   4.870   5.823   1.297  0.1839  0.7014  0.3457
 4493TIP3    H135038   4.858   5.802   1.390  2.2777  1.9694  0.9655
 4493TIP3    H235039   4.843   5.744   1.251  1.6866 -1.0082  2.2040
 4494TIP3   OH235040   0.338   6.589   0.230 -0.0150  0.2623 -0.3858
 4494TIP3    H135041   0.301   6.509   0.191 -0.0216  0.2311 -0.3158
 4494TIP3    H235042   0.266   6.652   0.226 -0.6659 -0.3021  1.3264
 4495TIP3   OH235043   2.827   6.379   2.934 -0.0369  0.0153  0.0419
 4495TIP3    H135044   2.869   6.465   2.928  2.3964 -1.0247  0.8366
 4495TIP3    H235045   2.738   6.398   2.962  0.4557  2.2795  0.2683
 4496TIP3   OH235046   4.980   6.340   1.191  0.5323 -0.0679 -0.8799
 4496TIP3    H135047   4.903   6.361   1.137 -0.1766  0.4790  0.3033
 4496TIP3    H235048   4.956   6.260   1.237  0.8650 -0.1633 -0.8745
 4497TIP3   OH235049   1.353   5.019   7.990  0.2723  0.1193  0.1732
 4497TIP3    H135050   1.259   5.007   8.000  0.2404  1.6343  2.9574
 4497TIP3    H235051   1.361   5.102   7.943  0.2282 -0.0390 -0.1160
 4498TIP3   OH235052   2.950   5.934   2.026  0.0314 -0.0504 -0.0949
 4498TIP3    H135053   3.001   5.904   1.951 -1.4336  0.0099 -1.1553
 4498TIP3    H235054   2.950   6.030   2.018 -0.8750 -0.0841 -0.5399
 4499TIP3   OH235055   2.626   4.680   1.139  0.0518  0.2206 -0.0650
 4499TIP3    H135056   2.530   4.675   1.138 -0.0335  1.3446  0.7305
 4499TIP3    H235057   2.647   4.740   1.068  0.1578  0.1812 -0.0670
 4500TIP3   OH235058   6.347   2.850   1.062 -0.2092 -0.5844  0.1022
 4500TIP3    H135059   6.320   2.791   1.132  1.4560 -1.9899 -0.3648
 4500TIP3    H235060   6.266   2.887   1.028 -1.5145 -3.7951 -0.6190
 4501TIP3   OH235061   4.988   1.186   1.485  0.4054 -0.9600 -0.5081
 4501TIP3    H135062   5.019   1.186   1.576  1.1748  0.3607 -0.7439
 4501TIP3    H235063   4.894   1.168   1.492  0.5045 -1.1655  0.5284
 4502TIP3   OH235064   4.112   1.165   0.365  0.3779 -0.2372 -0.1590
 4502TIP3    H135065   4.103   1.257   0.343  2.6498 -0.0325 -0.4734
 4502TIP3    H235066   4.197   1.140   0.329  0.8349 -1.8666  1.8620
 4503TIP3   OH235067   6.402   2.928   1.591 -0.1731  0.1536  0.2933
 4503TIP3    H135068   6.343   2.944   1.665 -0.2094  1.8348 -0.0480
 4503TIP3    H235069   6.350   2.952   1.514  0.2154 -0.5604 -0.2010
 4504TIP3   OH235070   3.735   3.218   8.694  0.1429  0.0604 -0.6553
 4504TIP3    H135071   3.728   3.124   8.678 -0.0100  0.3043 -2.2119
 4504TIP3    H235072   3.823   3.241   8.663  1.1742  0.0584  2.0115
 4505TIP3   OH235073   1.045   2.106   0.440  0.0063 -0.5763 -0.1223
 4505TIP3    H135074   1.088   2.023   0.462 -0.2791 -0.4470  0.9742
 4505TIP3    H235075   1.070   2.122   0.349  0.6615 -1.4986 -0.1228
 4506TIP3   OH235076   0.979   2.336   0.568  0.0168  0.5033  0.0391
 4506TIP3    H135077   1.016   2.254   0.536 -1.2965 -0.3027  0.4990
 4506TIP3    H235078   1.041   2.365   0.636  0.2079 -0.4070  0.2722
 4507TIP3   OH235079   0.530   1.569   7.613 -0.6064  0.7041 -0.1168
 4507TIP3    H135080   0.616   1.546   7.578  0.5592  1.7914  1.8863
 4507TIP3    H235081   0.503   1.646   7.563 -0.8549 -0.1492 -1.3408
 4508TIP3   OH235082   2.831   0.244   0.663 -0.2680 -0.1024 -0.7572
 4508TIP3    H135083   2.764   0.179   0.641 -0.3414  0.5177 -2.6079
 4508TIP3    H235084   2.795   0.327   0.630  0.2680  0.7081  0.6144
 4509TIP3   OH235085   6.445   1.222   6.770 -0.4342  0.3475  0.1463
 4509TIP3    H135086   6.349   1.212   6.766 -0.3104 -0.9781  0.0365
 4509TIP3    H235087   6.479   1.135   6.751  0.8544  1.1964 -1.8081
 4510TIP3   OH235088   0.298   0.553   0.710 -0.1811  0.2261 -0.7195
 4510TIP3    H135089   0.275   0.638   0.672 -2.3933 -0.2303 -0.5233
 4510TIP3    H235090   0.357   0.574   0.782 -1.9548  1.7797  0.3542
 4511TIP3   OH235091   6.090   3.383   0.988  0.2163  0.0852 -0.8429
 4511TIP3    H135092   6.152   3.448   1.021 -1.9857  1.4528  0.8489
 4511TIP3    H235093   6.067   3.413   0.900 -0.7021  1.6199 -0.1139
 4512TIP3   OH235094   2.731   4.025   8.233 -1.0380  0.5968 -0.4126
 4512TIP3    H135095   2.809   4.081   8.223  0.1107 -0.7437  0.6243
 4512TIP3    H235096   2.703   4.041   8.323 -1.5844  0.5812 -0.5781
 4513TIP3   OH235097   1.166   5.089   1.835  0.4763 -0.0582 -0.0590
 4513TIP3    H135098   1.125   5.010   1.800  2.3481 -0.4697 -1.4855
 4513TIP3    H235099   1.120   5.161   1.791 -0.4674 -0.3735  0.3803
 4514TIP3   OH235100   2.026   3.919   2.505  0.4688 -0.1614  0.1770
 4514TIP3    H135101   2.099   3.965   2.464  0.8965 -1.6805 -0.8254
 4514TIP3    H235102   2.066   3.872   2.578  0.4769 -0.9089 -0.3067
 4515TIP3   OH235103   0.604   1.522   0.041  0.4569  0.2547 -0.6200
 4515TIP3    H135104   0.594   1.566   0.125 -2.9501 -0.3509 -0.5589
 4515TIP3    H235105   0.657   1.582  -0.011  1.2675  1.4052  1.4035
 4516TIP3   OH235106   4.998   6.437   0.431 -0.0806 -0.7771 -0.5524
 4516TIP3    H135107   5.018   6.350   0.398  2.0884 -0.4557 -0.2091
 4516TIP3    H235108   5.067   6.493   0.396 -0.0845  0.3592  1.1170
 4517TIP3   OH235109   2.292   1.581   2.813  0.4824  0.3902 -0.0985
 4517TIP3    H135110   2.339   1.498   2.805  0.8048  0.5703 -0.0859
 4517TIP3    H235111   2.250   1.594   2.728 -0.8844 -0.5678  0.3906
 4518TIP3   OH235112   2.247   0.832   7.029  0.3891 -0.3073  0.3636
 4518TIP3    H135113   2.324   0.863   6.980  0.9962  1.1378  2.1165
 4518TIP3    H235114   2.212   0.762   6.975  1.7626  0.3277 -1.4939
 4519TIP3   OH235115   4.379   6.283   0.036 -0.7892 -0.0266  0.5213
 4519TIP3    H135116   4.459   6.230   0.039 -2.0737 -2.0354  2.4180
 4519TIP3    H235117   4.333   6.252  -0.042  0.0465  0.8568 -0.3525
 4520TIP3   OH235118   1.200   6.672   1.683  0.0404 -0.2406  0.2552
 4520TIP3    H135119   1.187   6.595   1.627  0.4124 -0.0287 -0.1313
 4520TIP3    H235120   1.138   6.660   1.755 -0.9765 -0.1460 -0.5918
 4521TIP3   OH235121   3.586   4.697   1.507 -0.1409  0.0419  0.4533
 4521TIP3    H135122   3.647   4.770   1.501  2.4536 -1.9226  0.7855
 4521TIP3    H235123   3.537   4.699   1.425  2.3775  0.1572 -1.1558
 4522TIP3   OH235124   6.776   1.457   1.226 -0.6065 -0.9837 -0.2219
 4522TIP3    H135125   6.843   1.512   1.186 -0.0775 -0.4607  1.2981
 4522TIP3    H235126   6.733   1.513   1.290 -1.8674 -1.6002 -0.4882
 4523TIP3   OH235127   1.330   3.528   0.546 -0.6092 -0.1295 -0.7798
 4523TIP3    H135128   1.281   3.610   0.537  0.2878  0.4585 -0.3848
 4523TIP3    H235129   1.263   3.463   0.569 -1.1666  0.7502  0.1942
 4524TIP3   OH235130   2.260   6.394   0.494  0.1216  0.1901  0.2354
 4524TIP3    H135131   2.323   6.438   0.437 -0.7741 -1.2206 -2.0136
 4524TIP3    H235132   2.181   6.448   0.488  0.2270  0.4063  0.7294
 4525TIP3   OH235133   1.752   0.394   0.637  0.0618  0.3513 -0.1149
 4525TIP3    H135134   1.812   0.442   0.580  1.3458 -0.2804  0.6649
 4525TIP3    H235135   1.696   0.461   0.675 -2.3030  0.6434 -3.6746
 4526TIP3   OH235136   3.792   4.056   1.342  0.1681  0.1459  0.6602
 4526TIP3    H135137   3.874   4.039   1.297  0.1659  0.6929  0.4436
 4526TIP3    H235138   3.730   3.993   1.305 -0.3951  1.9237 -1.6712
 4527TIP3   OH235139   3.104   0.890   0.663  0.4438  0.3863  0.1147
 4527TIP3    H135140   3.168   0.936   0.609 -0.1904  0.8390 -0.2761
 4527TIP3    H235141   3.055   0.960   0.707  1.2630  0.0301  1.6913
 4528TIP3   OH235142   4.604   1.373   2.002 -0.4884  0.2146  0.4301
 4528TIP3    H135143   4.538   1.396   2.066 -1.6097 -0.1231 -0.5734
 4528TIP3    H235144   4.679   1.345   2.054 -1.8359 -1.3826  1.6137
 4529TIP3   OH235145   5.563   2.699   1.008 -0.1753 -0.1691 -0.4670
 4529TIP3    H135146   5.483   2.650   1.025 -2.1511  2.4211 -1.6288
 4529TIP3    H235147   5.561   2.771   1.070  1.7263 -0.4509  0.0034
 4530TIP3   OH235148   4.028   0.184   7.854  0.4104  0.0521 -0.3326
 4530TIP3    H135149   4.020   0.114   7.919 -0.0584 -0.9576 -1.4340
 4530TIP3    H235150   4.096   0.242   7.888  0.9483 -1.0483  0.5096
 4531TIP3   OH235151   2.826   2.197   0.905  0.0160 -0.5426 -0.1766
 4531TIP3    H135152   2.855   2.175   0.817 -0.0430  1.4945 -0.7504
 4531TIP3    H235153   2.897   2.165   0.962  0.8946 -0.3005 -1.1086
 4532TIP3   OH235154   4.698   6.343   1.352 -0.1479 -0.7196  0.8374
 4532TIP3    H135155   4.715   6.414   1.415  1.3338  0.6451 -0.9896
 4532TIP3    H235156   4.715   6.383   1.267 -1.5125 -2.6809 -0.4176
 4533TIP3   OH235157   0.651   1.010   6.805 -0.3549 -0.2146 -0.4470
 4533TIP3    H135158   0.565   1.002   6.847 -0.6566  0.6683 -0.8791
 4533TIP3    H235159   0.705   0.944   6.849 -0.1190  1.8213  2.6391
 4534TIP3   OH235160   5.207   4.879   0.015 -0.2528 -0.2294  0.4283
 4534TIP3    H135161   5.295   4.900  -0.014  0.2400 -1.7301  0.7056
 4534TIP3    H235162   5.183   4.950   0.075  0.5962  0.4055  0.0331
 4535TIP3   OH235163   4.875   1.687   1.748 -0.4052  0.6275 -0.0914
 4535TIP3    H135164   4.818   1.746   1.699  1.3048  1.2274 -1.4559
 4535TIP3    H235165   4.861   1.602   1.708  0.5233  1.0024 -1.2792
 4536TIP3   OH235166   3.444   2.300   2.334 -0.4173 -0.6364 -0.1656
 4536TIP3    H135167   3.362   2.341   2.360 -0.3777  0.0130 -1.0151
 4536TIP3    H235168   3.433   2.208   2.355 -0.8039 -0.3244  1.0609
 4537TIP3   OH235169   2.304   0.852   2.442  0.1022  0.0350 -0.4105
 4537TIP3    H135170   2.261   0.862   2.527 -0.7366 -1.5452 -0.6217
 4537TIP3    H235171   2.310   0.758   2.429  0.2001  0.2510 -2.1249
 4538TIP3   OH235172   1.873   4.593   8.313 -0.1535 -0.0209 -0.3091
 4538TIP3    H135173   1.779   4.610   8.307 -0.4427 -1.0427  0.8937
 4538TIP3    H235174   1.906   4.607   8.224 -1.6350 -0.7239 -0.9964
 4539TIP3   OH235175   2.311   6.055   0.761  0.3006  0.0261  0.1437
 4539TIP3    H135176   2.337   6.145   0.781 -1.1228  0.3938  0.4170
 4539TIP3    H235177   2.258   6.028   0.835 -0.6335 -0.4619 -0.6762
 4540TIP3   OH235178   1.009   6.281   7.964 -0.1874  0.0526 -0.0580
 4540TIP3    H135179   1.067   6.356   7.979 -0.4037 -0.1037  1.7593
 4540TIP3    H235180   0.946   6.284   8.036 -1.5018 -0.6894 -1.1194
 4541TIP3   OH235181   5.979   5.595   1.240  0.0018 -0.2618 -0.6213
 4541TIP3    H135182   5.998   5.513   1.194 -0.8460 -1.5759  1.2415
 4541TIP3    H235183   6.065   5.633   1.258  0.4439 -1.0628 -0.9900
 4542TIP3   OH235184   2.391   3.220   2.872 -0.1346  0.3089 -0.0164
 4542TIP3    H135185   2.323   3.220   2.805 -0.2891  2.1264  0.0989
 4542TIP3    H235186   2.442   3.300   2.855  1.4778 -0.5769  0.4003
 4543TIP3   OH235187   5.523   3.370   8.009  0.2128  0.2608 -0.2206
 4543TIP3    H135188   5.497   3.396   8.098 -0.1871 -2.0092  0.4068
 4543TIP3    H235189   5.441   3.370   7.960  0.6169  2.7705 -1.0009
 4544TIP3   OH235190   4.746   5.591   7.494  0.8720 -0.0162 -0.2834
 4544TIP3    H135191   4.678   5.533   7.460  1.4742 -1.6690  1.1534
 4544TIP3    H235192   4.809   5.598   7.423 -0.9534  1.9946 -1.8529
 4545TIP3   OH235193   4.652   6.235   8.002  0.3623  0.7442 -0.5737
 4545TIP3    H135194   4.585   6.244   7.934  0.6038 -0.3548 -0.9868
 4545TIP3    H235195   4.623   6.160   8.054  0.5552  1.1284  0.0904
 4546TIP3   OH235196   0.500   4.810   0.501 -0.0080  0.1643  0.0160
 4546TIP3    H135197   0.535   4.854   0.578 -0.3922 -0.6593  0.6784
 4546TIP3    H235198   0.436   4.872   0.465  1.6869  1.4692 -0.9134
 4547TIP3   OH235199   5.065   4.368   1.375 -0.2950  0.4229  0.2385
 4547TIP3    H135200   5.047   4.442   1.434 -2.1495  0.6897 -0.6105
 4547TIP3    H235201   5.066   4.407   1.288 -2.5973 -0.6941 -0.3530
 4548TIP3   OH235202   5.939   5.671   8.521 -0.0317 -0.2255 -0.4705
 4548TIP3    H135203   6.010   5.734   8.507  0.9111 -0.7330  1.6156
 4548TIP3    H235204   5.859   5.722   8.509  0.6572  0.5024 -2.3020
 4549TIP3   OH235205   5.796   3.484   8.062 -0.4405 -0.4582 -0.9954
 4549TIP3    H135206   5.753   3.563   8.030 -0.5666  0.6737  1.6835
 4549TIP3    H235207   5.725   3.420   8.068 -1.5128  0.8073  1.5251
 4550TIP3   OH235208   5.419   6.782   3.024 -0.1793 -0.8685 -0.6138
 4550TIP3    H135209   5.461   6.697   3.014 -1.3160 -1.3998 -1.0074
 4550TIP3    H235210   5.358   6.788   2.951 -0.0839  0.3142 -0.6197
 4551TIP3   OH235211   6.353   1.118   2.408 -0.1183 -0.2175 -0.6655
 4551TIP3    H135212   6.304   1.036   2.394 -0.8827 -0.0149  0.6723
 4551TIP3    H235213   6.360   1.126   2.503  1.6181  0.3192 -0.8130
 4552TIP3   OH235214   6.314   5.840   8.113 -0.6315 -0.1366 -0.7019
 4552TIP3    H135215   6.265   5.774   8.161 -1.3706  0.9038  0.0330
 4552TIP3    H235216   6.250   5.909   8.096  0.3392  0.8259 -0.5725
 4553TIP3   OH235217   3.467   5.787   7.961  0.2025 -0.0549  0.5237
 4553TIP3    H135218   3.550   5.826   7.936  0.8544 -0.6636  1.6600
 4553TIP3    H235219   3.485   5.693   7.969 -1.0244 -0.4603 -0.8943
 4554TIP3   OH235220   4.105   2.432   7.698 -0.3266  0.0838 -0.0877
 4554TIP3    H135221   4.014   2.405   7.692 -0.5386  0.6602  0.4500
 4554TIP3    H235222   4.104   2.511   7.752  0.2635  1.3031 -1.7775
 4555TIP3   OH235223   3.497   3.901   3.205  0.2118  0.2185 -0.4689
 4555TIP3    H135224   3.588   3.915   3.177  0.1880  0.1180 -0.5919
 4555TIP3    H235225   3.445   3.910   3.126  0.2242 -0.9417 -0.6210
 4556TIP3   OH235226   3.900   4.981   1.561  0.1987  0.2197 -0.4457
 4556TIP3    H135227   3.898   5.074   1.580 -1.0779  0.0871  0.1429
 4556TIP3    H235228   3.988   4.953   1.587  0.8216  1.3491 -1.2041
 4557TIP3   OH235229   3.958   0.319   1.071  0.2963 -0.1501  0.1410
 4557TIP3    H135230   3.953   0.266   1.150  0.8400 -0.0223  0.2639
 4557TIP3    H235231   3.945   0.409   1.101  0.3815 -0.1130  0.0689
 4558TIP3   OH235232   0.530   3.586   1.734  0.2382  0.6732  0.1069
 4558TIP3    H135233   0.503   3.630   1.654  0.8926  3.7367  1.4258
 4558TIP3    H235234   0.460   3.602   1.797  0.9605  0.7446  0.9307
 4559TIP3   OH235235   1.444   6.727   3.002 -0.1736  0.6654  0.2786
 4559TIP3    H135236   1.376   6.756   2.942  0.3690  0.8501 -0.2541
 4559TIP3    H235237   1.461   6.635   2.978 -0.7000  0.4142  0.8503
 4560TIP3   OH235238   0.158   3.094   1.479 -0.9451 -0.1773  0.4765
 4560TIP3    H135239   0.180   3.115   1.570  0.8759  1.2662 -0.2424
 4560TIP3    H235240   0.081   3.147   1.460 -0.2122  0.9690  0.6347
 4561TIP3   OH235241   5.462   3.676   2.067 -0.3685 -0.4669 -0.5119
 4561TIP3    H135242   5.523   3.614   2.027 -1.3456 -2.1320  0.4487
 4561TIP3    H235243   5.504   3.761   2.059  1.0073 -1.2460 -1.9304
 4562TIP3   OH235244   4.862   4.153   1.855  0.4222  0.0641  0.3951
 4562TIP3    H135245   4.768   4.155   1.872  0.2493  1.7180 -0.4606
 4562TIP3    H235246   4.870   4.104   1.773  0.0448  1.6912 -0.6570
 4563TIP3   OH235247   6.085   3.838   6.673  0.0934 -0.2354 -0.2234
 4563TIP3    H135248   6.039   3.755   6.675  0.5105 -0.4835 -0.5587
 4563TIP3    H235249   6.159   3.823   6.614  0.8729  0.0076  0.6690
 4564TIP3   OH235250   3.220   5.034   1.412  0.0247  0.2704 -0.2612
 4564TIP3    H135251   3.200   4.952   1.367  1.0487  1.0223 -2.1912
 4564TIP3    H235252   3.171   5.029   1.494  1.7801 -3.2688  0.7450
 4565TIP3   OH235253   0.045   5.692   2.138  0.2997  0.1370  0.0696
 4565TIP3    H135254   0.049   5.647   2.223  1.7884 -0.1986 -0.1508
 4565TIP3    H235255   0.130   5.675   2.098  0.2240  1.6409 -0.8048
 4566TIP3   OH235256   5.925   1.676   8.606 -0.4054  0.2595 -0.1502
 4566TIP3    H135257   5.865   1.672   8.680  0.5536  1.9304  0.7756
 4566TIP3    H235258   5.869   1.685   8.529 -1.4029 -1.1006  0.3780
 4567TIP3   OH235259   1.452   1.432   2.233  0.4548  0.0804 -0.1168
 4567TIP3    H135260   1.491   1.345   2.231 -1.4856 -0.9801  2.3789
 4567TIP3    H235261   1.512   1.485   2.285 -0.9034 -1.4111  3.3065
 4568TIP3   OH235262   6.730   1.082   0.089  0.1957 -0.2485  0.0918
 4568TIP3    H135263   6.700   1.087  -0.002 -0.1970  0.8780  0.2740
 4568TIP3    H235264   6.777   1.164   0.103 -0.7030  0.0999  1.2308
 4569TIP3   OH235265   0.901   5.752   6.843 -0.1556  0.2241  0.4540
 4569TIP3    H135266   0.969   5.760   6.910  0.1174  1.1155  0.0851
 4569TIP3    H235267   0.918   5.668   6.801  0.1866  0.0459  0.9395
 4570TIP3   OH235268   2.958   3.394   7.545  0.5815  0.9821  0.3616
 4570TIP3    H135269   2.922   3.339   7.474 -1.2703  0.5140  1.5752
 4570TIP3    H235270   2.937   3.483   7.519  2.0568  1.0311 -0.7903
 4571TIP3   OH235271   4.821   5.371   7.725  0.2314  0.0679  0.2262
 4571TIP3    H135272   4.821   5.421   7.644 -1.8503  1.2103  0.8450
 4571TIP3    H235273   4.791   5.433   7.792  0.9821 -1.0861  1.7106
 4572TIP3   OH235274   1.321   5.591   7.957 -0.0778  0.5168 -0.4689
 4572TIP3    H135275   1.303   5.546   7.875  2.4240 -1.1668 -0.1975
 4572TIP3    H235276   1.329   5.521   8.022 -1.3597  1.7566  1.1446
 4573TIP3   OH235277   0.362   4.288   0.192  0.2267 -0.0536  0.1280
 4573TIP3    H135278   0.272   4.312   0.213 -0.6603 -1.1736 -2.0393
 4573TIP3    H235279   0.401   4.368   0.158 -0.5121  0.0448 -0.5160
 4574TIP3   OH235280   5.501   5.620   1.564 -0.3744  0.6351  0.4674
 4574TIP3    H135281   5.560   5.696   1.569 -0.6701  0.8933  0.0750
 4574TIP3    H235282   5.413   5.656   1.572 -0.5596  0.4312 -0.5582
 4575TIP3   OH235283   4.788   2.558   8.090 -0.3940 -0.3942  0.7326
 4575TIP3    H135284   4.809   2.482   8.036 -1.0667 -0.1572  0.1075
 4575TIP3    H235285   4.839   2.547   8.170  0.7244 -0.6935 -0.0071
 4576TIP3   OH235286   2.433   0.259   0.619  0.0708  0.0917 -0.2119
 4576TIP3    H135287   2.350   0.263   0.571  0.5141 -1.2740 -1.1710
 4576TIP3    H235288   2.408   0.265   0.711 -1.0495  0.1919 -0.5091
 4577TIP3   OH235289   4.846   4.730   1.018 -0.0486  0.0160  0.1751
 4577TIP3    H135290   4.796   4.747   0.938 -2.0645 -0.5065  1.2690
 4577TIP3    H235291   4.849   4.814   1.063 -0.9036 -0.1938  0.6276
 4578TIP3   OH235292   5.653   1.333   0.095 -0.4184  0.0290 -0.8990
 4578TIP3    H135293   5.680   1.298   0.010 -0.0672 -1.7651 -0.0847
 4578TIP3    H235294   5.679   1.425   0.092  2.5394 -0.7313 -1.5502
 4579TIP3   OH235295   1.741   0.993   7.666 -0.0877 -0.7567 -0.3482
 4579TIP3    H135296   1.759   1.081   7.698  0.4896 -0.8024 -0.5408
 4579TIP3    H235297   1.827   0.957   7.646 -0.4153 -0.8689 -1.5978
 4580TIP3   OH235298   6.792   1.561   7.190  0.3258 -0.3032 -0.4855
 4580TIP3    H135299   6.820   1.490   7.248 -0.2856  1.1199  1.6903
 4580TIP3    H235300   6.860   1.567   7.124  0.6838 -2.5008 -0.3818
 4581TIP3   OH235301   4.920   2.923   7.788 -0.0235  0.1547 -0.1664
 4581TIP3    H135302   4.874   3.003   7.764 -0.7334 -0.1468  0.1607
 4581TIP3    H235303   4.907   2.865   7.713 -1.2487 -0.3701  0.4248
 4582TIP3   OH235304   4.190   0.605   8.228  0.1705 -0.1655  0.4961
 4582TIP3    H135305   4.257   0.572   8.168 -1.0848 -0.4808 -0.7815
 4582TIP3    H235306   4.107   0.584   8.185 -0.7417  1.1625  1.5325
 4583TIP3   OH235307   3.749   6.756   0.793 -0.3639  0.1506 -0.3407
 4583TIP3    H135308   3.669   6.716   0.825 -1.7730  1.5974 -1.8641
 4583TIP3    H235309   3.756   6.839   0.840  0.6821 -0.2836  0.3215
 4584TIP3   OH235310   5.180   3.445   1.625  0.5072 -0.5078 -0.3387
 4584TIP3    H135311   5.208   3.447   1.716  0.8050 -0.1874 -0.4339
 4584TIP3    H235312   5.091   3.482   1.626  1.1983  1.2788 -0.4079
 4585TIP3   OH235313   5.376   1.491   0.532 -0.1413  0.0077 -0.2701
 4585TIP3    H135314   5.429   1.534   0.465 -0.9132 -0.0437 -0.9191
 4585TIP3    H235315   5.426   1.503   0.613  0.3352  0.8954 -0.6825
 4586TIP3   OH235316   3.316   2.163   2.066  0.5022 -0.2698 -0.3689
 4586TIP3    H135317   3.375   2.238   2.075  0.1397 -0.1586  1.4871
 4586TIP3    H235318   3.229   2.199   2.084  0.3681 -1.1769  0.9192
 4587TIP3   OH235319   0.760   4.266   1.418  0.0758  0.1461 -1.2873
 4587TIP3    H135320   0.826   4.200   1.394  1.4493  1.0144 -0.1038
 4587TIP3    H235321   0.812   4.341   1.446 -1.4453  0.9348 -0.4864
 4588TIP3   OH235322   5.575   4.812   2.314 -0.1684  0.0651  1.0150
 4588TIP3    H135323   5.634   4.745   2.348 -0.8753 -0.1909  1.7753
 4588TIP3    H235324   5.553   4.782   2.226 -1.3427 -1.3244  1.7246
 4589TIP3   OH235325   0.508   4.356   1.323  0.0829 -0.2992  0.4539
 4589TIP3    H135326   0.535   4.391   1.238 -0.7286  0.9666  0.6950
 4589TIP3    H235327   0.579   4.295   1.347  1.1496  0.5752 -0.3568
 4590TIP3   OH235328   4.392   3.536   2.449 -0.5469  0.4796  0.0426
 4590TIP3    H135329   4.456   3.606   2.449  0.3507 -0.2475  2.3699
 4590TIP3    H235330   4.428   3.470   2.508 -1.9677 -1.3826 -1.0364
 4591TIP3   OH235331   3.400   2.989   6.740  0.0323 -0.6833  0.4068
 4591TIP3    H135332   3.419   3.039   6.660  0.0282 -1.7270 -0.2688
 4591TIP3    H235333   3.485   2.973   6.780 -0.0574  1.0655  1.4164
 4592TIP3   OH235334   1.719   6.383   0.359  0.2551  0.2628  0.3073
 4592TIP3    H135335   1.709   6.376   0.454  0.8003 -0.1284  0.3420
 4592TIP3    H235336   1.733   6.477   0.343  1.4464  0.1757  0.7519
 4593TIP3   OH235337   3.367   1.435   8.353  0.6049 -0.0371  0.6170
 4593TIP3    H135338   3.381   1.522   8.317  0.6394 -0.5631 -0.7119
 4593TIP3    H235339   3.455   1.400   8.369  0.6120 -0.1137  0.4151
 4594TIP3   OH235340   4.119   4.009   1.007  0.3247 -0.0664 -0.7275
 4594TIP3    H135341   4.099   3.973   1.094  0.1284 -1.8407 -1.4665
 4594TIP3    H235342   4.168   4.089   1.025  0.0988 -0.2814  1.0147
 4595TIP3   OH235343   4.983   0.006   0.616 -0.0310  0.0350  0.0965
 4595TIP3    H135344   5.059  -0.003   0.558  0.1168 -0.1623  0.3148
 4595TIP3    H235345   4.965  -0.084   0.645  0.2721  0.1974  0.8216
 4596TIP3   OH235346   6.706   1.625   1.446 -0.2223 -0.4666  0.3596
 4596TIP3    H135347   6.739   1.572   1.519  0.3162 -1.3151 -0.4637
 4596TIP3    H235348   6.768   1.697   1.439  1.3261 -1.8473 -0.9389
 4597TIP3   OH235349   5.556   5.197   0.613  0.0221  0.6068  0.1836
 4597TIP3    H135350   5.557   5.147   0.695 -0.6659 -1.4183 -0.9650
 4597TIP3    H235351   5.477   5.166   0.568  0.0147  2.2004 -0.9607
 4598TIP3   OH235352   1.156   2.902   2.038  0.1539  0.4216  0.4814
 4598TIP3    H135353   1.147   2.811   2.011 -1.0753  0.7928 -0.4384
 4598TIP3    H235354   1.202   2.898   2.122  1.4122 -0.9446 -0.2330
 4599TIP3   OH235355   3.949   6.641   7.999 -0.1527 -0.4832  0.1711
 4599TIP3    H135356   3.934   6.548   8.019 -1.6457 -0.4873 -0.8206
 4599TIP3    H235357   3.939   6.647   7.904  0.8114  0.5635  0.1096
 4600TIP3   OH235358   0.576   6.826   1.370  0.0612  0.4816  0.5096
 4600TIP3    H135359   0.576   6.860   1.459  0.3000  0.4231  0.5308
 4600TIP3    H235360   0.513   6.882   1.323 -0.9042 -0.1838  0.9787
 4601TIP3   OH235361   5.117   3.287   8.167  0.0325  0.5529  0.4860
 4601TIP3    H135362   5.075   3.296   8.081  1.5533  1.5922 -0.2058
 4601TIP3    H235363   5.045   3.284   8.229 -1.1267 -0.6430 -0.8505
 4602TIP3   OH235364   3.602   3.647   1.692 -0.1279  0.2149  0.8806
 4602TIP3    H135365   3.558   3.721   1.733 -1.2617 -1.1901  2.3174
 4602TIP3    H235366   3.571   3.571   1.740  2.4743 -1.0508  0.7653
 4603TIP3   OH235367   3.169   4.841   7.513  0.2857 -0.3737  0.1418
 4603TIP3    H135368   3.118   4.805   7.586 -0.2924 -0.2073 -0.1711
 4603TIP3    H235369   3.129   4.926   7.495 -1.6377 -1.6754 -2.3681
 4604TIP3   OH235370   5.617   0.534   1.236  0.2423  0.0494  0.1536
 4604TIP3    H135371   5.527   0.505   1.249  0.2322  0.7830  2.0357
 4604TIP3    H235372   5.609   0.621   1.197  0.2149 -0.7279 -1.6846
 4605TIP3   OH235373   2.795   3.928   7.879  0.7608 -0.5129  0.0389
 4605TIP3    H135374   2.795   4.018   7.847  1.6148 -1.5912 -3.4269
 4605TIP3    H235375   2.882   3.916   7.916  0.2842  0.3428  1.5007
 4606TIP3   OH235376   3.116   1.843   0.548 -0.0339  0.0807 -0.1378
 4606TIP3    H135377   3.022   1.826   0.555 -0.1524  0.3342 -1.0650
 4606TIP3    H235378   3.139   1.884   0.632 -1.2160  2.1664 -0.7591
 4607TIP3   OH235379   0.576   6.646   7.084  0.0389  0.0153  0.1061
 4607TIP3    H135380   0.581   6.551   7.100  0.6971  0.2503  1.3631
 4607TIP3    H235381   0.544   6.683   7.166  4.3924  1.3595  1.4593
 4608TIP3   OH235382   0.276   6.195   1.603 -0.5303  0.2268  0.0521
 4608TIP3    H135383   0.327   6.274   1.623  1.2512 -1.3589  2.3065
 4608TIP3    H235384   0.296   6.178   1.511  1.6685  0.6987  0.3704
 4609TIP3   OH235385   5.364   4.811   7.590  0.8203 -0.4666  0.1285
 4609TIP3    H135386   5.440   4.849   7.635  0.4881  0.3277  0.0309
 4609TIP3    H235387   5.372   4.840   7.500  0.2967 -0.2189  0.1591
 4610TIP3   OH235388   0.869   1.664   2.756 -0.1055 -0.4232  0.3646
 4610TIP3    H135389   0.948   1.688   2.709 -1.9016 -0.2531 -2.9048
 4610TIP3    H235390   0.897   1.650   2.847  3.3677  0.7631 -0.3942
 4611TIP3   OH235391   5.052   6.569   2.691  0.0260 -0.2085  0.0598
 4611TIP3    H135392   5.078   6.479   2.673 -1.3383 -0.5229 -0.4805
 4611TIP3    H235393   4.966   6.578   2.650  0.0657  1.2977  0.2344
 4612TIP3   OH235394   0.483   4.110   1.602  0.3828 -0.1957 -0.8495
 4612TIP3    H135395   0.571   4.086   1.573  0.0937 -1.1008 -1.0190
 4612TIP3    H235396   0.496   4.159   1.683  1.0069 -0.9612 -0.4783
 4613TIP3   OH235397   2.873   3.793   3.081  0.0480 -0.3017  0.0237
 4613TIP3    H135398   2.882   3.737   3.004 -0.7977  0.5129 -0.6902
 4613TIP3    H235399   2.781   3.782   3.107  0.3040 -0.5060  0.8824
 4614TIP3   OH235400   4.555   1.517   1.776 -0.2858  0.3062 -0.3199
 4614TIP3    H135401   4.485   1.525   1.841  1.5688  1.7310  1.6120
 4614TIP3    H235402   4.616   1.454   1.815  0.0323 -0.1493 -1.5158
 4615TIP3   OH235403   0.884   6.625   2.108  0.1187 -0.2603  0.1595
 4615TIP3    H135404   0.821   6.613   2.179  0.0231 -0.0677  0.1085
 4615TIP3    H235405   0.859   6.708   2.068 -0.1050 -0.5866 -0.3911
 4616TIP3   OH235406   3.299   1.258   2.103  0.4437 -0.0166 -0.2434
 4616TIP3    H135407   3.301   1.263   2.198  0.9902 -0.9221 -0.1993
 4616TIP3    H235408   3.212   1.223   2.083  0.1022  0.7341 -0.1198
 4617TIP3   OH235409   1.354   0.582   7.652 -0.1627  0.1123  0.1501
 4617TIP3    H135410   1.437   0.567   7.698  0.0074 -0.0910 -0.2163
 4617TIP3    H235411   1.380   0.596   7.561 -0.4036  1.6287  0.2925
 4618TIP3   OH235412   3.365   3.645   8.312  0.4610  0.0768  0.2079
 4618TIP3    H135413   3.440   3.591   8.336  0.1717 -0.9225 -1.0375
 4618TIP3    H235414   3.289   3.592   8.335  0.1422 -1.2477 -3.2076
 4619TIP3   OH235415   3.258   5.800   8.508 -0.0425 -0.0380  0.5474
 4619TIP3    H135416   3.248   5.887   8.469  0.8482  0.3912  1.2627
 4619TIP3    H235417   3.257   5.815   8.602 -4.0685 -1.2540  0.9196
 4620TIP3   OH235418   0.352   0.590   2.207  0.1559 -0.2880 -0.1992
 4620TIP3    H135419   0.278   0.554   2.157 -0.2513  0.0534  0.1477
 4620TIP3    H235420   0.311   0.628   2.285  0.7834 -0.8281  0.4008
 4621TIP3   OH235421   2.314   3.944   0.511  0.2315  0.0115  0.5253
 4621TIP3    H135422   2.373   4.020   0.514  3.2925 -1.9396 -2.4726
 4621TIP3    H235423   2.230   3.980   0.481  1.2668  2.3466  0.1964
 4622TIP3   OH235424   2.149   4.207   7.305 -0.0601 -0.0827 -0.1986
 4622TIP3    H135425   2.158   4.136   7.241 -0.7361  0.2260 -0.6463
 4622TIP3    H235426   2.236   4.247   7.308 -0.3000  0.6415 -1.8262
 4623TIP3   OH235427   0.696   5.222   8.658 -0.2228 -0.1285 -0.1772
 4623TIP3    H135428   0.648   5.215   8.740  2.1410 -1.4262  1.1975
 4623TIP3    H235429   0.710   5.131   8.630  1.4123  0.1895 -0.4884
 4624TIP3   OH235430   1.660   0.194   2.481 -0.0798 -0.7334  0.1935
 4624TIP3    H135431   1.581   0.226   2.438 -0.3080 -0.4699  0.8017
 4624TIP3    H235432   1.732   0.235   2.434 -0.3450  0.0605  0.4707
 4625TIP3   OH235433   5.036   4.934   7.647  0.0020  0.6194 -0.2774
 4625TIP3    H135434   5.034   4.992   7.570  1.2543  0.6845 -0.2813
 4625TIP3    H235435   5.035   4.994   7.721 -0.6098  0.5713 -0.2364
 4626TIP3   OH235436   0.995   4.503   0.391 -0.4468  0.1273  0.0783
 4626TIP3    H135437   0.989   4.442   0.317 -0.4254 -0.7650  0.7922
 4626TIP3    H235438   1.067   4.468   0.444 -0.9510  0.3088  0.9053
 4627TIP3   OH235439   5.554   4.226   8.677  0.0155  0.7298 -0.3973
 4627TIP3    H135440   5.459   4.216   8.684 -0.0310  1.7464  1.0582
 4627TIP3    H235441   5.584   4.149   8.628 -1.6001  0.6714 -1.3392
 4628TIP3   OH235442   0.633   5.683   6.816  0.3932 -0.0672  0.2428
 4628TIP3    H135443   0.728   5.673   6.810  0.5879  1.3134  0.8027
 4628TIP3    H235444   0.618   5.777   6.812 -0.9425 -0.2562  0.4099
 4629TIP3   OH235445   4.505   5.925   1.561  0.6788 -0.1951 -0.7046
 4629TIP3    H135446   4.456   6.007   1.562 -0.3284 -0.7645 -1.6437
 4629TIP3    H235447   4.586   5.945   1.608 -0.0586  1.0108  0.0948
 4630TIP3   OH235448   0.013   2.617   1.708  0.3954 -0.5736 -0.4612
 4630TIP3    H135449  -0.035   2.640   1.788  0.8064 -0.6491 -0.1875
 4630TIP3    H235450   0.023   2.700   1.661 -0.9582 -0.7266 -1.0634
 4631TIP3   OH235451   1.610   4.157   1.342  0.4556  0.0680 -0.0785
 4631TIP3    H135452   1.555   4.221   1.296 -2.3366 -2.4171 -0.4607
 4631TIP3    H235453   1.559   4.133   1.419  1.0684 -2.2174 -0.3344
 4632TIP3   OH235454   1.565   3.484   7.654  0.4917 -0.0863 -0.4386
 4632TIP3    H135455   1.592   3.396   7.627  0.7558 -0.0830 -0.1908
 4632TIP3    H235456   1.597   3.542   7.585 -0.1124 -0.2369 -0.8491
 4633TIP3   OH235457   2.460   5.697   7.584  0.2537  0.0554  0.1416
 4633TIP3    H135458   2.493   5.622   7.534  0.1749 -0.2545  0.5513
 4633TIP3    H235459   2.368   5.704   7.559  0.4372  0.4739 -0.4517
 4634TIP3   OH235460   3.875   4.099   6.974  0.0659  0.4650 -0.5041
 4634TIP3    H135461   3.964   4.128   6.955  0.5196 -0.4827  0.1233
 4634TIP3    H235462   3.859   4.129   7.064  0.1180 -0.2171 -0.2640
 4635TIP3   OH235463   2.186   4.930   2.965  0.0266 -0.2895  0.1258
 4635TIP3    H135464   2.112   4.985   2.938  1.5945  0.3432 -3.4580
 4635TIP3    H235465   2.156   4.840   2.950 -0.0316 -0.0345 -1.4618
 4636TIP3   OH235466   3.001   6.210   8.465  0.4100  0.0960  0.2758
 4636TIP3    H135467   3.026   6.276   8.531 -1.8586  1.6538 -0.3188
 4636TIP3    H235468   2.914   6.182   8.492  0.6706 -1.4914 -0.4432
 4637TIP3   OH235469   1.831   4.621   0.547  0.4467  1.2084  0.3579
 4637TIP3    H135470   1.747   4.662   0.523  0.8241  2.3650  0.9358
 4637TIP3    H235471   1.883   4.693   0.583  1.9530  0.6568 -0.6171
 4638TIP3   OH235472   2.020   5.693   0.537  0.4506  0.4457  0.2898
 4638TIP3    H135473   1.977   5.722   0.456 -0.3538 -1.3477  0.0263
 4638TIP3    H235474   2.112   5.719   0.526  0.3546  0.2296 -1.1938
 4639TIP3   OH235475   4.637   2.134   2.196 -0.9209  0.0086  0.1049
 4639TIP3    H135476   4.671   2.139   2.285 -1.7998 -0.5446  0.4991
 4639TIP3    H235477   4.579   2.057   2.198 -1.0835  0.0955 -0.8953
 4640TIP3   OH235478   1.535   2.060   8.453 -0.0263  0.2586 -0.4516
 4640TIP3    H135479   1.485   2.043   8.373 -0.3352  1.9454 -0.6464
 4640TIP3    H235480   1.617   2.098   8.423  0.1351  0.2827  0.0116
 4641TIP3   OH235481   5.792   5.441   1.370 -0.0000 -0.1164  0.5370
 4641TIP3    H135482   5.782   5.529   1.407 -0.7749  1.4145 -2.8990
 4641TIP3    H235483   5.886   5.431   1.359  0.0523  0.7391  0.0763
 4642TIP3   OH235484   1.833   4.931   0.237  0.1786 -0.5364 -0.4021
 4642TIP3    H135485   1.762   4.993   0.221 -0.5083 -0.9944  0.7371
 4642TIP3    H235486   1.905   4.985   0.270 -0.2126 -0.2715  0.0273
 4643TIP3   OH235487   6.149   4.974   1.220  0.1997  0.8039  0.7112
 4643TIP3    H135488   6.124   5.032   1.148  1.0054 -0.8012 -0.9444
 4643TIP3    H235489   6.094   5.001   1.293 -0.6270  2.5240 -0.4856
 4644TIP3   OH235490   5.688   3.214   1.244 -0.5372  0.3169  0.0564
 4644TIP3    H135491   5.609   3.161   1.252 -0.0162 -0.1779  3.7995
 4644TIP3    H235492   5.724   3.217   1.332  3.8628  0.2197 -1.4834
 4645TIP3   OH235493   3.275   1.753   1.853 -0.6362  0.5336  0.4514
 4645TIP3    H135494   3.181   1.747   1.868 -0.2886 -1.0428  2.4926
 4645TIP3    H235495   3.286   1.730   1.761 -2.0337 -2.6138  0.9525
 4646TIP3   OH235496   4.291   5.871   2.711 -0.6648  0.3953 -0.1179
 4646TIP3    H135497   4.290   5.802   2.777 -0.6743 -0.7904 -1.3188
 4646TIP3    H235498   4.340   5.942   2.751 -0.1495 -0.5267  0.9289
 4647TIP3   OH235499   5.902   0.097   2.610  0.2894  0.1620  0.7332
 4647TIP3    H135500   5.823   0.053   2.640  1.4784 -1.7498  1.2279
 4647TIP3    H235501   5.972   0.058   2.662  1.4994  2.4264  0.9526
 4648TIP3   OH235502   6.634   2.531   0.354 -0.9203 -0.2827  0.4906
 4648TIP3    H135503   6.592   2.544   0.439 -1.0942 -0.4538  0.4313
 4648TIP3    H235504   6.702   2.465   0.371 -0.5323  0.1473  0.6316
 4649TIP3   OH235505   1.149   4.658   2.578 -0.4089 -0.4143 -1.1788
 4649TIP3    H135506   1.120   4.590   2.638  0.9029 -1.2632 -1.4767
 4649TIP3    H235507   1.154   4.737   2.632 -1.0517 -0.7472 -0.6218
 4650TIP3   OH235508   5.032   5.519   8.340 -0.6883 -0.7351 -0.1523
 4650TIP3    H135509   5.099   5.586   8.351  0.7754 -1.6975 -2.4180
 4650TIP3    H235510   5.023   5.510   8.245 -1.7480 -2.8467  0.0936
 4651TIP3   OH235511   0.132   0.806   6.974 -0.0451  0.3616 -0.5215
 4651TIP3    H135512   0.037   0.813   6.974  0.0404  2.0694  0.2361
 4651TIP3    H235513   0.156   0.808   7.067  0.7553  0.2379 -0.7172
 4652TIP3   OH235514   6.010   0.693   8.338  0.0459 -0.0306  0.3329
 4652TIP3    H135515   5.926   0.721   8.300  0.3322 -1.4685 -1.5400
 4652TIP3    H235516   6.059   0.774   8.349 -0.7767  0.6399 -0.6841
 4653TIP3   OH235517   2.395   1.978   8.034 -0.1484 -0.1777  0.5689
 4653TIP3    H135518   2.379   1.890   8.002  0.4272 -0.7395  1.7762
 4653TIP3    H235519   2.480   2.002   7.998 -0.7797  0.3161 -0.6309
 4654TIP3   OH235520   3.470   0.041   7.872 -0.4131  0.1737 -0.0495
 4654TIP3    H135521   3.463  -0.034   7.931  2.7954  1.2879  2.0675
 4654TIP3    H235522   3.407   0.105   7.905  0.3428  0.2240  1.3675
 4655TIP3   OH235523   1.198   5.679   8.242 -0.2333  0.3828  0.4063
 4655TIP3    H135524   1.217   5.628   8.163  0.9384  1.1959  0.1512
 4655TIP3    H235525   1.128   5.630   8.285 -1.4447  0.3234 -1.5168
 4656TIP3   OH235526   6.737   1.353   6.895 -0.2434 -0.0967  1.3604
 4656TIP3    H135527   6.809   1.403   6.933  0.3157  0.7842 -0.7373
 4656TIP3    H235528   6.767   1.262   6.898  1.2840  0.3110 -0.0559
 4657TIP3   OH235529   1.000   6.501   0.367 -0.1413 -0.1607 -0.4303
 4657TIP3    H135530   0.944   6.551   0.307 -1.2131  0.2462  0.8416
 4657TIP3    H235531   1.034   6.429   0.315 -0.5232  0.5346 -1.6823
 4658TIP3   OH235532   1.585   5.174   2.687 -0.1498  0.3894 -0.1099
 4658TIP3    H135533   1.504   5.222   2.671 -0.1848  0.9180  1.4387
 4658TIP3    H235534   1.589   5.165   2.782  1.5829  0.3274 -0.1540
 4659TIP3   OH235535   2.093   4.721   2.456 -0.2332 -0.6807 -0.8182
 4659TIP3    H135536   2.136   4.653   2.404  0.6303 -1.6945  1.1386
 4659TIP3    H235537   2.164   4.773   2.492 -0.7447 -0.6983  0.2517
 4660TIP3   OH235538   0.078   0.284   7.053 -0.4227 -0.3773 -0.0115
 4660TIP3    H135539   0.107   0.353   7.113 -0.8046 -1.3578  1.3347
 4660TIP3    H235540   0.137   0.211   7.070 -0.2206 -0.5138 -1.2118
 4661TIP3   OH235541   6.534   1.866   1.207  0.0025 -0.6309  0.2577
 4661TIP3    H135542   6.497   1.854   1.294  0.8159 -0.7605  0.5945
 4661TIP3    H235543   6.626   1.889   1.222 -0.4752  2.0966 -0.4903
 4662TIP3   OH235544   5.568   5.619   0.451  0.5299  0.7206 -0.2838
 4662TIP3    H135545   5.512   5.673   0.396  0.8716  0.5964 -0.7607
 4662TIP3    H235546   5.634   5.584   0.391  0.4625 -0.0272  0.0582
 4663TIP3   OH235547   0.341   5.484   2.293  0.2292  0.3181 -0.3737
 4663TIP3    H135548   0.385   5.517   2.371 -0.1288  0.2832 -0.1590
 4663TIP3    H235549   0.384   5.400   2.275 -0.0394  0.0833  0.0831
 4664TIP3   OH235550   0.940   5.209   1.350  0.0891 -0.1894 -0.4075
 4664TIP3    H135551   1.034   5.231   1.348  0.0287  0.6937  2.3582
 4664TIP3    H235552   0.929   5.146   1.279  2.6110  0.2538 -1.3072
 4665TIP3   OH235553   1.583   1.048   7.996  0.1333  1.1701 -0.3695
 4665TIP3    H135554   1.494   1.014   8.006 -0.0828  2.0513  0.9651
 4665TIP3    H235555   1.571   1.133   7.953  0.4072  0.9066 -0.9665
 4666TIP3   OH235556   5.015   6.693   1.946  0.3638  0.4832 -0.1138
 4666TIP3    H135557   4.954   6.690   1.873 -1.0605 -1.0968  1.0726
 4666TIP3    H235558   5.063   6.610   1.941  0.6478  0.6118  0.4337
 4667TIP3   OH235559   0.207   0.509   8.695 -0.4492  0.3015  0.0679
 4667TIP3    H135560   0.258   0.579   8.737 -0.4329  0.4663 -0.2259
 4667TIP3    H235561   0.244   0.501   8.608 -0.6345  0.1152  0.0049
 4668TIP3   OH235562   4.382   5.883   8.537 -0.0986  0.4153  0.4764
 4668TIP3    H135563   4.472   5.867   8.565  0.5216  2.2282 -0.3062
 4668TIP3    H235564   4.373   5.836   8.454  0.4279  0.9049  0.1314
 4669TIP3   OH235565   6.261   4.352   0.608 -0.4502 -0.1954  0.3260
 4669TIP3    H135566   6.312   4.309   0.676 -0.5398  1.6784  1.6419
 4669TIP3    H235567   6.319   4.421   0.574 -0.8787 -0.2715 -0.6073
 4670TIP3   OH235568   0.945   5.313   8.083  0.2646 -0.3262 -0.6161
 4670TIP3    H135569   0.852   5.327   8.099  0.6445  0.5313  1.1214
 4670TIP3    H235570   0.959   5.345   7.994 -1.2719 -1.4758 -1.3207
 4671TIP3   OH235571   4.967   6.546   7.276  0.3505  0.1264  0.3938
 4671TIP3    H135572   4.875   6.560   7.254  0.7212  0.3969 -1.1372
 4671TIP3    H235573   5.015   6.591   7.206  1.6557  0.3723  1.4096
 4672TIP3   OH235574   4.754   3.458   2.106  0.0348  0.3270  0.1844
 4672TIP3    H135575   4.768   3.364   2.101 -0.0607  0.0111  3.3641
 4672TIP3    H235576   4.829   3.491   2.155  0.0073  1.9099 -0.7708
 4673TIP3   OH235577   5.703   4.070   7.767  0.3709 -0.2709  0.0471
 4673TIP3    H135578   5.682   4.089   7.859  3.2005 -1.4840  1.0391
 4673TIP3    H235579   5.682   3.978   7.756 -1.1644  0.1587 -0.9692
 4674TIP3   OH235580   6.594   1.688   2.105 -0.1145  0.7620  0.1393
 4674TIP3    H135581   6.504   1.703   2.136 -0.8856 -1.0874 -1.0447
 4674TIP3    H235582   6.634   1.633   2.172 -0.4544  0.1374 -0.1622
 4675TIP3   OH235583   6.540   2.163   1.795  0.0665  0.2020 -0.0721
 4675TIP3    H135584   6.588   2.161   1.712 -0.1054  2.4742 -0.2889
 4675TIP3    H235585   6.482   2.239   1.787  0.4544  0.8174  2.3515
 4676TIP3   OH235586   6.413   4.970   1.287  0.1481 -0.1268  0.0860
 4676TIP3    H135587   6.401   4.941   1.377 -1.5856 -0.0312 -0.0779
 4676TIP3    H235588   6.324   4.977   1.252  0.8170 -1.2831 -2.0005
 4677TIP3   OH235589   2.552   4.009   0.260 -0.0750 -0.1779  0.0599
 4677TIP3    H135590   2.538   4.064   0.337 -2.4686  1.8990 -1.6833
 4677TIP3    H235591   2.473   4.022   0.207  1.0235 -2.2980 -2.2950
 4678TIP3   OH235592   0.554   2.399   2.127 -0.0108 -0.0141 -0.6394
 4678TIP3    H135593   0.515   2.475   2.171  0.5491 -0.5669  0.8811
 4678TIP3    H235594   0.607   2.437   2.056 -1.1770  0.8828 -1.0562
 4679TIP3   OH235595   1.645   2.175   0.752 -0.6755  0.2034  0.2065
 4679TIP3    H135596   1.630   2.267   0.734 -1.6161  0.1139  0.4980
 4679TIP3    H235597   1.570   2.130   0.713 -0.1604 -0.4548 -0.0480
 4680TIP3   OH235598   1.169   1.986   1.255  0.3420 -0.4854 -0.1057
 4680TIP3    H135599   1.135   2.046   1.321  0.7072  0.0993 -0.4420
 4680TIP3    H235600   1.104   1.915   1.252 -0.0877 -0.1195  0.3069
 4681TIP3   OH235601   5.177   5.621   2.178  0.3125 -0.1277  0.2561
 4681TIP3    H135602   5.206   5.576   2.258 -2.1933 -0.3467  1.1316
 4681TIP3    H235603   5.222   5.575   2.107 -0.0525 -2.2511  1.3233
 4682TIP3   OH235604   6.578   5.757   1.072  0.4326  0.3346 -0.1175
 4682TIP3    H135605   6.607   5.824   1.133 -0.5614  0.6755 -0.0007
 4682TIP3    H235606   6.606   5.675   1.110  0.6528  0.6134  0.3187
 4683TIP3   OH235607   5.717   6.745   8.270 -0.2672 -0.9375 -0.4941
 4683TIP3    H135608   5.790   6.793   8.232 -0.9459  0.6998  0.1655
 4683TIP3    H235609   5.671   6.809   8.323 -2.0086 -1.9976 -0.6298
 4684TIP3   OH235610   5.554   5.089   1.739  0.7885  0.1576 -0.2048
 4684TIP3    H135611   5.531   5.167   1.789  0.6795 -0.4971  0.8038
 4684TIP3    H235612   5.573   5.121   1.651 -1.3364  1.0583 -0.3837
 4685TIP3   OH235613   3.051   1.468   8.426  0.4625 -0.2515  0.3899
 4685TIP3    H135614   2.998   1.454   8.347  0.1346 -0.4263  0.6380
 4685TIP3    H235615   3.126   1.519   8.396  1.5103 -2.1943 -0.4906
 4686TIP3   OH235616   6.004   2.545   2.290  0.3161 -0.0388  0.8458
 4686TIP3    H135617   6.062   2.478   2.328 -0.1483  0.9588  3.5444
 4686TIP3    H235618   5.942   2.565   2.360 -0.7340  1.8879 -0.5471
 4687TIP3   OH235619   1.566   0.259   0.178  0.5639  0.4548  0.4531
 4687TIP3    H135620   1.475   0.252   0.150  0.3920  3.3588  0.0408
 4687TIP3    H235621   1.562   0.264   0.273  0.3470  0.2173  0.4586
 4688TIP3   OH235622   3.416   1.351   7.313  0.3317 -0.4368 -0.0401
 4688TIP3    H135623   3.431   1.398   7.231  2.1100  0.4050  0.7360
 4688TIP3    H235624   3.393   1.262   7.285  1.5745 -0.3555 -1.4534
 4689TIP3   OH235625   4.690   4.740   7.867 -0.1814 -0.6674 -0.7818
 4689TIP3    H135626   4.784   4.744   7.851  0.0962 -0.7990  0.6516
 4689TIP3    H235627   4.663   4.656   7.831  0.3240 -0.7917 -0.8741
 4690TIP3   OH235628   4.597   4.133   1.918  0.2553  0.3085  0.7195
 4690TIP3    H135629   4.516   4.142   1.868  0.2299  0.9755  0.8699
 4690TIP3    H235630   4.630   4.046   1.896  2.2168  1.8099 -3.4345
 4691TIP3   OH235631   4.719   6.697   7.341  0.1529 -0.1375 -0.3326
 4691TIP3    H135632   4.644   6.637   7.345 -0.9827  1.2206 -0.3027
 4691TIP3    H235633   4.730   6.715   7.248  1.8490 -1.9567 -0.5487
 4692TIP3   OH235634   2.807   2.218   0.025  0.4582 -0.5303  1.0600
 4692TIP3    H135635   2.893   2.183   0.049  0.1808 -1.1273  1.2078
 4692TIP3    H235636   2.749   2.142   0.029 -0.3131  0.0836  2.1129
 4693TIP3   OH235637   6.062   4.624   0.877  0.0088 -0.3010  0.0812
 4693TIP3    H135638   5.990   4.665   0.926 -1.3048 -2.1101 -0.2435
 4693TIP3    H235639   6.039   4.636   0.785  2.1932  2.5899 -0.2555
 4694TIP3   OH235640   0.059   1.972   0.060 -0.0695 -0.3272 -0.1233
 4694TIP3    H135641  -0.032   1.983   0.032  0.4258  1.2399 -1.2195
 4694TIP3    H235642   0.070   1.877   0.068 -2.2210 -0.5077  1.5656
 4695TIP3   OH235643   2.432   5.010   3.079 -0.2468  0.8443 -0.4956
 4695TIP3    H135644   2.347   4.981   3.045 -1.9319  2.0077  2.2577
 4695TIP3    H235645   2.424   5.105   3.084  0.6479  0.8760  1.0654
 4696TIP3   OH235646   4.507   2.778   7.780 -0.6800 -0.9223 -0.6686
 4696TIP3    H135647   4.487   2.743   7.693 -1.1797 -0.1259 -0.8748
 4696TIP3    H235648   4.573   2.846   7.765 -2.0929  0.5017 -0.6556
 4697TIP3   OH235649   6.116   3.455   7.339  0.1011 -0.0081 -0.2892
 4697TIP3    H135650   6.139   3.542   7.305 -1.0528  0.0515 -0.9848
 4697TIP3    H235651   6.041   3.428   7.286 -0.4994 -0.7911  0.9099
 4698TIP3   OH235652   1.692   0.757   2.506 -0.5455 -0.0876  0.0157
 4698TIP3    H135653   1.619   0.706   2.541 -0.2647  0.1032  0.8985
 4698TIP3    H235654   1.657   0.845   2.493 -0.5282 -0.0475  0.2438
 4699TIP3   OH235655   4.142   3.018   8.468  0.1310  0.8867 -0.4095
 4699TIP3    H135656   4.082   3.084   8.503 -0.2305  0.7995 -0.8491
 4699TIP3    H235657   4.170   3.053   8.384 -0.4541  0.2696 -0.8786
 4700TIP3   OH235658   0.032   4.947   0.257  0.5843  0.0003  0.3954
 4700TIP3    H135659  -0.030   4.949   0.330  2.1697  0.0668  1.7999
 4700TIP3    H235660   0.026   5.033   0.217 -0.0097  0.1034  0.6969
 4701TIP3   OH235661   6.331   4.640   0.242 -0.2097  0.2421 -0.4203
 4701TIP3    H135662   6.347   4.553   0.207  0.9998 -0.3332  1.4157
 4701TIP3    H235663   6.249   4.667   0.202  0.1219 -1.1228 -2.1392
 4702TIP3   OH235664   2.684   3.259   2.304  0.4791 -0.2642  0.4646
 4702TIP3    H135665   2.633   3.179   2.317  0.9629 -0.5882  0.4048
 4702TIP3    H235666   2.677   3.306   2.388 -0.0121 -0.2481  0.4138
 4703TIP3   OH235667   3.901   6.327   3.305  0.5808 -0.0337 -0.0924
 4703TIP3    H135668   3.861   6.332   3.218 -0.8488  0.0404  0.5473
 4703TIP3    H235669   3.834   6.285   3.360  3.0017 -4.2329  0.0742
 4704TIP3   OH235670   4.286   4.721   0.924  0.5317  0.0523  0.2524
 4704TIP3    H135671   4.292   4.796   0.866  0.3790  1.1457  1.5923
 4704TIP3    H235672   4.194   4.716   0.948  0.8041  0.5371  1.5139
 4705TIP3   OH235673   5.256   2.202   2.338  0.3087 -0.8232  0.5377
 4705TIP3    H135674   5.253   2.180   2.245 -0.9291 -0.6610  0.5190
 4705TIP3    H235675   5.221   2.291   2.343  1.1892 -0.4927  1.0767
 4706TIP3   OH235676   4.630   1.553   0.511 -0.1376 -0.0547  0.6244
 4706TIP3    H135677   4.694   1.521   0.575 -0.3564 -0.9307  0.4175
 4706TIP3    H235678   4.588   1.473   0.478 -1.0110  0.4838  0.4224
 4707TIP3   OH235679   0.233   4.873   2.705  0.0252 -0.0609 -0.5843
 4707TIP3    H135680   0.243   4.873   2.800  0.5711  0.2261 -0.6376
 4707TIP3    H235681   0.200   4.785   2.685 -1.1990  0.2537 -0.0314
 4708TIP3   OH235682   4.170   6.687   2.460 -0.1131  0.8422 -0.3297
 4708TIP3    H135683   4.110   6.702   2.533 -1.0333  0.7778 -1.0647
 4708TIP3    H235684   4.202   6.598   2.474  1.5441  1.6236  1.2849
 4709TIP3   OH235685   1.722   0.588   0.880  0.5538  0.3463 -0.0674
 4709TIP3    H135686   1.813   0.610   0.902 -1.0234  5.0130  3.7001
 4709TIP3    H235687   1.684   0.672   0.853 -3.4360 -0.3524  2.5109
 4710TIP3   OH235688   1.722   4.065   8.269  0.1302 -0.2642 -0.0224
 4710TIP3    H135689   1.632   4.095   8.256  0.6447  0.5805 -2.0697
 4710TIP3    H235690   1.718   3.971   8.254 -0.9567 -0.8940  3.3893
 4711TIP3   OH235691   1.700   1.542   7.002 -0.0317  0.2044 -0.4456
 4711TIP3    H135692   1.715   1.488   6.924  2.4162 -0.0670  0.1167
 4711TIP3    H235693   1.639   1.491   7.055 -1.5052  0.2579 -1.9996
 4712TIP3   OH235694   3.607   0.979   1.677 -0.3670 -0.5873 -0.0674
 4712TIP3    H135695   3.549   1.018   1.612  0.4931  0.9009  0.0036
 4712TIP3    H235696   3.550   0.961   1.752 -0.4916  2.7292  0.7919
 4713TIP3   OH235697   6.192   4.588   8.465 -0.6133 -0.5445 -0.2585
 4713TIP3    H135698   6.277   4.547   8.481 -0.1695  0.7329  0.8445
 4713TIP3    H235699   6.198   4.673   8.508 -2.1918 -0.1239 -0.8113
 4714TIP3   OH235700   5.588   5.510   0.033 -0.0096  0.0541 -0.2935
 4714TIP3    H135701   5.561   5.572  -0.034 -2.4083  2.6999  2.8074
 4714TIP3    H235702   5.507   5.463   0.056  1.0731 -1.8772 -0.1975
 4715TIP3   OH235703   5.879   1.422   2.902  0.0508 -0.1675  0.0682
 4715TIP3    H135704   5.890   1.511   2.869 -0.0774  0.2818  1.1954
 4715TIP3    H235705   5.967   1.384   2.900  0.0538 -0.1273 -0.7047
 4716TIP3   OH235706   3.679   2.928   6.811 -1.0496  0.3940 -0.7159
 4716TIP3    H135707   3.638   2.842   6.825  0.1353 -0.2824 -1.2236
 4716TIP3    H235708   3.759   2.925   6.863 -2.4394  2.4143  1.8070
 4717TIP3   OH235709   6.414   0.874   0.287 -0.0328 -0.2748 -0.1621
 4717TIP3    H135710   6.486   0.818   0.316 -0.1406  0.8233  2.5879
 4717TIP3    H235711   6.366   0.894   0.368 -1.4918  1.6782 -1.4242
 4718TIP3   OH235712   2.564   5.227   2.318  0.0324  0.2258  0.4719
 4718TIP3    H135713   2.652   5.259   2.299 -0.6381 -0.0167 -4.2365
 4718TIP3    H235714   2.509   5.305   2.321  0.2005  0.3196  2.6814
 4719TIP3   OH235715   6.347   4.043   0.381  0.2686 -0.2836  0.0748
 4719TIP3    H135716   6.258   4.037   0.415 -0.2535  0.1865 -1.1507
 4719TIP3    H235717   6.389   3.962   0.410 -0.0527  0.1816  2.0044
 4720TIP3   OH235718   6.592   6.811   2.587 -0.0521  0.5332  0.1252
 4720TIP3    H135719   6.626   6.893   2.550  2.7685 -1.2301 -1.4928
 4720TIP3    H235720   6.663   6.777   2.640  0.1527 -2.4126 -1.8535
 4721TIP3   OH235721   2.235   3.642   7.510  0.0276  0.0605 -0.2036
 4721TIP3    H135722   2.270   3.615   7.595 -0.0828  0.0116 -0.1743
 4721TIP3    H235723   2.313   3.666   7.459  0.1286 -0.3000 -0.2255
 4722TIP3   OH235724   4.410   3.492   8.536 -0.8578  0.5915  0.5691
 4722TIP3    H135725   4.473   3.540   8.482 -1.6914 -0.9522 -1.9382
 4722TIP3    H235726   4.324   3.523   8.508 -1.3266 -0.3524  0.8912
 4723TIP3   OH235727   3.039   4.271   2.891 -0.2137  0.3367 -0.0837
 4723TIP3    H135728   2.954   4.293   2.931 -0.2960  0.9405 -0.5651
 4723TIP3    H235729   3.069   4.194   2.938 -0.6710  0.5801  0.6182
 4724TIP3   OH235730   6.412   0.996   1.180  0.2744  0.1663 -0.0395
 4724TIP3    H135731   6.400   0.967   1.090 -0.2689 -1.9304  0.6742
 4724TIP3    H235732   6.373   0.927   1.234 -0.0597  1.7031  1.8022
 4725TIP3   OH235733   0.603   2.313   8.442  0.6820  0.0030 -0.0464
 4725TIP3    H135734   0.655   2.374   8.494 -0.8604  1.1181  0.2859
 4725TIP3    H235735   0.633   2.226   8.469  0.2105  0.5454  2.5112
 4726TIP3   OH235736   5.659   4.080   1.336 -0.8619 -1.1111 -0.5123
 4726TIP3    H135737   5.590   4.141   1.309 -1.3132 -1.3272  0.1407
 4726TIP3    H235738   5.616   4.021   1.398  0.3989  0.0887  1.6161
 4727TIP3   OH235739   5.626   4.513   0.537  0.2961 -0.0209  0.2379
 4727TIP3    H135740   5.531   4.503   0.545  0.2568 -0.9616 -1.1638
 4727TIP3    H235741   5.637   4.599   0.497  0.0439  0.0986  0.4166
 4728TIP3   OH235742   6.221   4.672   7.291 -0.1082 -0.2581 -0.4391
 4728TIP3    H135743   6.187   4.719   7.215 -1.8505  0.2488  0.6010
 4728TIP3    H235744   6.286   4.613   7.255 -0.7419  0.1071 -2.3052
 4729TIP3   OH235745   5.689   2.370   0.108 -0.6849 -0.8128  0.2461
 4729TIP3    H135746   5.770   2.327   0.080  0.0745  0.2787  0.7192
 4729TIP3    H235747   5.709   2.406   0.194 -0.8248  1.6256 -0.6529
 4730TIP3   OH235748   6.801   0.491   7.954 -0.0379  1.0888  0.3140
 4730TIP3    H135749   6.890   0.462   7.933  0.6768  2.5077  1.2420
 4730TIP3    H235750   6.750   0.472   7.875  0.8008 -0.8339  0.1883
 4731TIP3   OH235751   0.223   5.039   6.857 -0.2369 -0.0457 -0.8082
 4731TIP3    H135752   0.195   4.976   6.791 -1.8187 -0.7700  0.4714
 4731TIP3    H235753   0.278   4.989   6.918 -0.5981  0.0674 -0.3806
 4732TIP3   OH235754   3.131   0.755   2.803  0.0247  0.8278  0.2846
 4732TIP3    H135755   3.077   0.730   2.878  1.6535  0.6600  1.4519
 4732TIP3    H235756   3.086   0.716   2.727 -1.7800  1.2084  1.1136
 4733TIP3   OH235757   2.714   2.727   7.961  0.2317 -0.2578 -0.1068
 4733TIP3    H135758   2.677   2.639   7.952 -3.0631  1.0241 -0.5835
 4733TIP3    H235759   2.806   2.713   7.982 -0.0974 -3.7877 -0.4994
 4734TIP3   OH235760   2.936   3.850   0.815 -0.0087  0.1429 -0.9157
 4734TIP3    H135761   2.854   3.812   0.845 -0.3933 -0.0010 -2.1079
 4734TIP3    H235762   2.911   3.934   0.776  0.4248  0.1229 -1.2382
 4735TIP3   OH235763   4.557   0.380   0.824 -0.3211  0.3054 -0.3494
 4735TIP3    H135764   4.546   0.449   0.889 -2.1262 -0.8454  0.6744
 4735TIP3    H235765   4.594   0.306   0.874  0.6237  0.1807 -1.1997
 4736TIP3   OH235766   1.279   1.562   8.043 -0.5712  0.0740  0.1943
 4736TIP3    H135767   1.366   1.530   8.063 -0.2151  0.4553 -0.6812
 4736TIP3    H235768   1.244   1.499   7.980 -1.0285 -0.2092  0.7170
 4737TIP3   OH235769   2.584   4.166   7.986  0.0656  0.3954  0.1782
 4737TIP3    H135770   2.663   4.162   8.040  1.0176 -0.1666 -1.2166
 4737TIP3    H235771   2.614   4.149   7.897 -1.3109  2.3667 -0.7399
 4738TIP3   OH235772   1.897   5.307   1.054  0.3809 -0.5710  0.0729
 4738TIP3    H135773   1.927   5.219   1.078  0.6682 -0.4128  0.2882
 4738TIP3    H235774   1.847   5.293   0.973  0.3091 -0.9523  0.1795
 4739TIP3   OH235775   4.842   4.999   1.126 -0.1697 -0.2198 -0.2329
 4739TIP3    H135776   4.782   5.059   1.171  0.0058  0.3344 -0.7199
 4739TIP3    H235777   4.880   5.052   1.056  0.3803 -0.7594 -0.3496
 4740TIP3   OH235778   4.319   5.953   1.144 -0.0170 -0.3030 -0.3136
 4740TIP3    H135779   4.408   5.945   1.109 -0.3603 -0.5885 -1.1642
 4740TIP3    H235780   4.289   6.038   1.111  0.1401  0.0573  0.4586
 4741TIP3   OH235781   0.894   3.951   0.229 -0.2990  0.1439 -0.1405
 4741TIP3    H135782   0.953   3.927   0.300 -0.3934 -0.8095 -0.3684
 4741TIP3    H235783   0.810   3.914   0.254 -0.2664 -0.4648 -0.8694
 4742TIP3   OH235784   0.456   6.014   2.538 -0.0021  0.2207 -0.1152
 4742TIP3    H135785   0.478   6.081   2.603 -1.5310  0.7085 -0.0630
 4742TIP3    H235786   0.478   6.055   2.454 -0.2040  0.5087 -0.0328
 4743TIP3   OH235787   4.983   5.376   1.261  0.0938  0.2406 -0.4813
 4743TIP3    H135788   4.964   5.291   1.301  1.5759 -0.6207 -1.4876
 4743TIP3    H235789   5.004   5.356   1.170 -0.9817  1.8869 -1.1439
 4744TIP3   OH235790   3.472   6.759   7.633 -0.5778 -0.2384 -0.0528
 4744TIP3    H135791   3.488   6.793   7.722 -0.0832 -0.8649  0.1041
 4744TIP3    H235792   3.559   6.743   7.598 -0.7851 -0.3586 -0.5133
 4745TIP3   OH235793   0.728   5.291   7.079  0.3166 -0.4590  0.2238
 4745TIP3    H135794   0.704   5.220   7.018  0.9941 -1.7447  1.3856
 4745TIP3    H235795   0.652   5.348   7.080 -0.3457 -1.2803 -0.6038
 4746TIP3   OH235796   0.763   3.077   0.842 -0.4472 -0.1184  0.2008
 4746TIP3    H135797   0.811   3.098   0.922 -0.0516  1.4811 -0.4227
 4746TIP3    H235798   0.742   2.984   0.850  1.3354 -0.4725  1.2363
 4747TIP3   OH235799   6.737   4.113   8.127 -0.0110  0.2313 -0.1265
 4747TIP3    H135800   6.721   4.113   8.032  1.2370 -0.0226 -0.3549
 4747TIP3    H235801   6.674   4.051   8.162 -1.3766  1.2910 -0.6169
 4748TIP3   OH235802   4.364   3.149   0.800  0.1429  0.5698  0.4210
 4748TIP3    H135803   4.439   3.205   0.816 -0.0561  0.2634  2.6585
 4748TIP3    H235804   4.344   3.109   0.884 -2.0483  0.0341 -0.2683
 4749TIP3   OH235805   2.239   2.933   1.493  0.1074 -0.0934 -0.0143
 4749TIP3    H135806   2.261   3.012   1.542 -1.1037 -0.3385  0.9582
 4749TIP3    H235807   2.175   2.887   1.547 -1.2206 -0.4207 -1.7764
 4750TIP3   OH235808   3.230   1.462   7.743 -0.0982  0.5059  0.3138
 4750TIP3    H135809   3.269   1.500   7.665 -0.0908  0.9401  0.5290
 4750TIP3    H235810   3.196   1.536   7.793 -0.5325  0.1962  0.4918
 4751TIP3   OH235811   5.200   1.019   7.966  0.2289  0.0662 -0.1438
 4751TIP3    H135812   5.153   1.030   7.884 -0.1744 -0.4723  0.0120
 4751TIP3    H235813   5.140   0.971   8.023  1.3984 -1.7672 -0.3623
 4752TIP3   OH235814   6.683   0.446   1.078 -0.1650 -0.0262  1.2074
 4752TIP3    H135815   6.715   0.391   1.006 -0.0890  0.6115  0.7505
 4752TIP3    H235816   6.589   0.429   1.080 -0.2668  0.4421  0.5350
 4753TIP3   OH235817   1.845   0.546   1.710  0.3406  0.1609  0.0314
 4753TIP3    H135818   1.887   0.601   1.776 -0.8407  2.0536 -0.7080
 4753TIP3    H235819   1.903   0.552   1.634  0.5580 -0.1903  0.1668
 4754TIP3   OH235820   1.972   4.843   0.669  0.3302  0.3922 -0.3571
 4754TIP3    H135821   1.924   4.922   0.647 -2.5458 -0.7863  1.0930
 4754TIP3    H235822   2.025   4.867   0.744 -0.9974  0.8552  0.4705
 4755TIP3   OH235823   0.646   1.969   7.849 -0.0598 -0.5555  0.7039
 4755TIP3    H135824   0.603   2.039   7.800  0.6855  0.6693  1.7480
 4755TIP3    H235825   0.735   2.001   7.865  0.2164 -1.6150  1.4581
 4756TIP3   OH235826   4.817   4.420   1.255  0.5297  0.1908 -0.2881
 4756TIP3    H135827   4.754   4.469   1.307  1.8627  0.5494  1.0519
 4756TIP3    H235828   4.883   4.484   1.228  0.6317 -0.2739 -1.2070
 4757TIP3   OH235829   5.520   2.941   2.357 -0.0693  0.6623  0.2550
 4757TIP3    H135830   5.483   2.955   2.445  0.5562  0.6591  0.5252
 4757TIP3    H235831   5.503   2.849   2.338 -0.4334  0.7266  0.2633
 4758TIP3   OH235832   0.841   1.143   2.532  0.1029  0.0745  0.8116
 4758TIP3    H135833   0.932   1.167   2.546 -0.3417  1.2451  1.8044
 4758TIP3    H235834   0.803   1.138   2.620 -0.0722 -3.5258  0.6737
 4759TIP3   OH235835   1.617   4.683   8.268 -0.3879 -0.2061  0.3923
 4759TIP3    H135836   1.641   4.729   8.348 -0.3710  1.9654 -0.7718
 4759TIP3    H235837   1.538   4.729   8.237 -0.7733 -1.4238 -0.4977
 4760TIP3   OH235838   6.767   3.820   0.292  0.2310 -0.0029 -0.1622
 4760TIP3    H135839   6.729   3.901   0.257  2.3603  2.1048  1.9246
 4760TIP3    H235840   6.713   3.800   0.368  1.5493  1.4683  1.2493
 4761TIP3   OH235841   3.372   5.463   8.259  0.0819 -0.0265 -0.6623
 4761TIP3    H135842   3.327   5.379   8.254  1.1983 -0.6407 -0.7256
 4761TIP3    H235843   3.401   5.469   8.350 -0.3842  0.5052 -0.5453
 4762TIP3   OH235844   5.812   0.073   0.539 -0.2049 -0.2497 -0.3552
 4762TIP3    H135845   5.806   0.012   0.465  1.8971  0.0623 -0.8761
 4762TIP3    H235846   5.829   0.158   0.498  0.0234  0.1068  0.4521
 4763TIP3   OH235847   4.438   1.403   8.508 -0.1152  0.1843  0.2163
 4763TIP3    H135848   4.451   1.336   8.441  1.0931 -0.4986  1.0890
 4763TIP3    H235849   4.522   1.449   8.513 -0.5108  0.8864  0.5616
 4764TIP3   OH235850   4.041   1.517   0.532 -0.1835  0.3423  0.0845
 4764TIP3    H135851   4.071   1.606   0.549  0.2693  0.2020  0.0403
 4764TIP3    H235852   4.051   1.505   0.437 -0.5116  0.3413  0.0494
 4765TIP3   OH235853   1.450   1.002   8.518 -0.0469 -0.1811  0.4877
 4765TIP3    H135854   1.461   1.067   8.588  0.2325  0.5946 -0.2521
 4765TIP3    H235855   1.505   0.928   8.545 -0.1289  0.0056  1.1952
 4766TIP3   OH235856   1.815   5.801   7.178 -0.0290  1.4286 -0.0032
 4766TIP3    H135857   1.848   5.863   7.243 -1.3055  1.4542  0.6659
 4766TIP3    H235858   1.806   5.719   7.226  0.3505  1.0824 -0.5219
 4767TIP3   OH235859   1.902   2.029   6.959 -0.0835 -0.5433  0.2585
 4767TIP3    H135860   1.824   1.995   7.003 -0.2433 -0.1471  0.2840
 4767TIP3    H235861   1.897   2.123   6.973 -1.8929  0.0565 -3.3572
 4768TIP3   OH235862   2.789   4.412   1.571  0.0797  1.0768 -0.2921
 4768TIP3    H135863   2.742   4.476   1.518  2.0809  2.4102 -0.5450
 4768TIP3    H235864   2.877   4.448   1.581  1.0848 -1.2912  0.1804
 4769TIP3   OH235865   2.215   2.846   2.219 -0.8563  0.0494 -0.7539
 4769TIP3    H135866   2.269   2.772   2.246  0.6105  2.0441  2.4996
 4769TIP3    H235867   2.269   2.893   2.155  0.2782  0.6336  0.5609
 4770TIP3   OH235868   3.504   5.513   7.996  0.2239  0.2450  0.1617
 4770TIP3    H135869   3.528   5.422   7.976  0.3179  0.2786  0.1191
 4770TIP3    H235870   3.444   5.506   8.070  0.4983  0.1684  0.3806
 4771TIP3   OH235871   1.183   2.067   7.937  0.2707 -0.5109 -0.3420
 4771TIP3    H135872   1.132   2.071   8.018  2.5047  1.0904  1.1135
 4771TIP3    H235873   1.228   1.983   7.941 -0.2041 -0.7649 -0.3029
 4772TIP3   OH235874   5.440   2.418   0.378 -0.1770  0.2020  0.3476
 4772TIP3    H135875   5.387   2.382   0.448 -1.2850  3.4399  1.3695
 4772TIP3    H235876   5.379   2.472   0.327  1.3099  0.6873 -1.0124
 4773TIP3   OH235877   2.673   0.357   1.063  0.4795  0.3364 -0.6720
 4773TIP3    H135878   2.602   0.419   1.044  0.1066  0.5281  1.1647
 4773TIP3    H235879   2.741   0.378   0.999 -1.5186 -0.6823 -3.3914
 4774TIP3   OH235880   5.099   5.929   7.303 -0.5721  0.7808 -0.1716
 4774TIP3    H135881   5.037   6.002   7.309  0.7167  1.8286  1.2624
 4774TIP3    H235882   5.135   5.922   7.392 -1.6025 -2.4994  0.1107
 4775TIP3   OH235883   5.135   0.371   2.062 -0.0334 -0.0532 -0.2047
 4775TIP3    H135884   5.190   0.446   2.037 -1.3025  1.0579  0.1847
 4775TIP3    H235885   5.111   0.388   2.153  0.1306 -1.2478  0.0699
 4776TIP3   OH235886   3.954   3.422   2.150  0.4217 -0.3017  0.6197
 4776TIP3    H135887   3.929   3.479   2.223  0.7869  0.5702  0.0805
 4776TIP3    H235888   3.896   3.448   2.079  1.8850  0.8212 -0.2358
 4777TIP3   OH235889   3.317   0.255   2.744  0.0163  0.2382 -0.3349
 4777TIP3    H135890   3.368   0.333   2.767 -0.7270  0.9737 -1.1283
 4777TIP3    H235891   3.290   0.270   2.654 -3.3381  0.8798  0.6314
 4778TIP3   OH235892   4.857   3.259   7.258  0.4562 -0.2028 -0.3912
 4778TIP3    H135893   4.803   3.240   7.181  2.8736  1.2296 -2.5581
 4778TIP3    H235894   4.896   3.174   7.281 -0.3901 -0.6709 -0.6303
 4779TIP3   OH235895   6.049   2.010   8.003  0.2714  1.1409  0.1089
 4779TIP3    H135896   6.057   1.963   8.085  0.9648  0.4234 -0.3567
 4779TIP3    H235897   5.954   2.023   7.991 -0.0196 -0.9374 -0.1873
 4780TIP3   OH235898   1.761   1.458   1.284  0.6972  0.2389 -0.3954
 4780TIP3    H135899   1.742   1.389   1.347 -0.3533 -1.6360 -2.5800
 4780TIP3    H235900   1.688   1.520   1.294  1.8369  1.3250  1.8288
 4781TIP3   OH235901   6.711   4.442   1.694  0.3836 -0.2961 -0.3349
 4781TIP3    H135902   6.781   4.388   1.658 -0.0107 -0.8340 -0.3157
 4781TIP3    H235903   6.635   4.423   1.638  0.3038  0.4348 -0.4824
 4782TIP3   OH235904   2.246   1.251   6.943 -0.0263  0.4917  0.3504
 4782TIP3    H135905   2.333   1.216   6.925 -1.0788 -1.4393 -1.3873
 4782TIP3    H235906   2.239   1.249   7.039  0.8736 -1.9170  0.4315
 4783TIP3   OH235907   6.482   3.582   8.080  0.1534  0.4310 -0.4970
 4783TIP3    H135908   6.573   3.606   8.095  0.5159 -0.1357 -1.6196
 4783TIP3    H235909   6.471   3.498   8.126  0.3804  0.2081 -0.8414
 4784TIP3   OH235910   0.028   0.284   8.612 -0.7294 -0.1181 -0.1804
 4784TIP3    H135911   0.007   0.356   8.552  0.7404  0.5949  0.1213
 4784TIP3    H235912   0.098   0.319   8.668 -0.4634 -1.5556  0.4217
 4785TIP3   OH235913   5.735   1.301   7.320  0.4418  0.3603  0.1213
 4785TIP3    H135914   5.759   1.230   7.261 -0.6617 -0.4082  0.5651
 4785TIP3    H235915   5.660   1.342   7.278  0.4038  0.5788  0.4017
 4786TIP3   OH235916   6.736   2.460   1.216  0.0803  0.3399  0.0520
 4786TIP3    H135917   6.725   2.508   1.134  0.4625 -0.6770 -0.6199
 4786TIP3    H235918   6.670   2.497   1.275  1.4040  2.7427  0.1053
 4787TIP3   OH235919   0.850   5.426   0.903 -0.5222 -0.1392  0.0845
 4787TIP3    H135920   0.795   5.368   0.850  0.0498 -1.8687  1.2891
 4787TIP3    H235921   0.890   5.486   0.840 -1.6309 -0.6310 -1.1364
 4788TIP3   OH235922   0.098   4.926   1.738  0.5044 -0.4939 -0.0695
 4788TIP3    H135923   0.149   5.005   1.756  0.8600 -1.3521  3.2682
 4788TIP3    H235924   0.150   4.877   1.674  1.5277  0.7618 -0.2368
 4789TIP3   OH235925   3.086   2.887   2.349 -0.1333 -0.7393  0.6737
 4789TIP3    H135926   3.099   2.977   2.319  0.3417 -0.5343  1.4590
 4789TIP3    H235927   2.999   2.887   2.388 -0.6202 -0.9275 -0.3615
 4790TIP3   OH235928   5.114   5.634   0.975  0.2548 -0.2365  0.1240
 4790TIP3    H135929   5.077   5.721   0.965 -0.2161 -0.2604  1.4315
 4790TIP3    H235930   5.199   5.638   0.931  0.2067  0.8686  0.1258
 4791TIP3   OH235931   4.274   5.323   1.482  0.7960  0.1152 -0.3139
 4791TIP3    H135932   4.261   5.308   1.576  0.1583  0.6667 -0.3123
 4791TIP3    H235933   4.237   5.410   1.466  2.8246  0.9650 -0.6627
 4792TIP3   OH235934   6.522   2.070   2.091  0.1270 -0.6144 -0.5626
 4792TIP3    H135935   6.506   2.081   1.997  2.2185 -0.5496 -0.9694
 4792TIP3    H235936   6.597   2.127   2.108 -1.9703  1.6445  1.7917
 4793TIP3   OH235937   2.760   0.095   7.607 -0.2890  0.1062 -0.5196
 4793TIP3    H135938   2.710   0.106   7.688  0.3617  2.4711 -0.3563
 4793TIP3    H235939   2.708   0.035   7.554 -1.6945  0.0304  0.8894
 4794TIP3   OH235940   2.677   1.662   0.114  0.3297  0.4338  0.5648
 4794TIP3    H135941   2.727   1.641   0.035  0.7453  0.4589  0.8151
 4794TIP3    H235942   2.702   1.594   0.177 -2.0972 -1.2898 -0.1550
 4795TIP3   OH235943   6.078   0.418   0.532 -0.0647 -0.3890 -0.3877
 4795TIP3    H135944   6.015   0.400   0.462  0.7502  0.3550 -1.3407
 4795TIP3    H235945   6.125   0.496   0.503  1.9133 -1.4143 -0.1600
 4796TIP3   OH235946   6.789   1.963   1.136 -0.1517 -0.5037  0.1445
 4796TIP3    H135947   6.884   1.957   1.145 -0.3244 -2.2737  1.2515
 4796TIP3    H235948   6.771   2.057   1.131  1.4845 -0.0110  2.1266
 4797TIP3   OH235949   2.875   2.242   6.891 -0.4554  0.0722  0.4368
 4797TIP3    H135950   2.964   2.270   6.913 -0.5545 -0.0743  1.0197
 4797TIP3    H235951   2.861   2.162   6.942  0.0673 -1.4899 -1.7016
 4798TIP3   OH235952   4.935   2.763   1.106 -0.8732 -0.8352  0.7210
 4798TIP3    H135953   4.999   2.795   1.042 -1.9994 -0.4834 -0.2758
 4798TIP3    H235954   4.875   2.837   1.118 -1.3501 -1.3047  1.2980
 4799TIP3   OH235955   1.135   0.810   1.818  0.1189 -0.6944  0.2894
 4799TIP3    H135956   1.097   0.896   1.836  0.5637 -0.3870 -0.2022
 4799TIP3    H235957   1.148   0.810   1.723  1.1469 -0.8740  0.4268
 4800TIP3   OH235958   0.617   6.737   8.584  0.0239 -0.3478 -0.7001
 4800TIP3    H135959   0.626   6.742   8.680 -1.0938  1.0727 -0.6276
 4800TIP3    H235960   0.678   6.668   8.558  1.0247 -0.1561  0.9448
 4801TIP3   OH235961   2.866   3.032   0.990  0.1023 -0.5658 -0.4048
 4801TIP3    H135962   2.836   3.122   0.999  0.9069 -0.4375  1.2348
 4801TIP3    H235963   2.799   2.990   0.936  0.2181  1.2355 -2.0439
 4802TIP3   OH235964   5.578   0.728   1.022 -0.0554 -0.5850 -0.9591
 4802TIP3    H135965   5.514   0.793   1.050 -0.3730 -0.4462 -1.9772
 4802TIP3    H235966   5.528   0.667   0.967  0.0625 -2.1171  0.5251
 4803TIP3   OH235967   5.663   1.995   2.598 -0.2885  0.5174  0.3495
 4803TIP3    H135968   5.744   1.961   2.637 -0.2514  0.6241  0.3635
 4803TIP3    H235969   5.603   1.920   2.600  0.4707 -0.2270 -1.5984
 4804TIP3   OH235970   1.170   6.828   0.706 -0.0098  0.6576  0.1152
 4804TIP3    H135971   1.228   6.821   0.782  0.1004 -0.0866 -0.0307
 4804TIP3    H235972   1.204   6.764   0.644  0.3591  1.7783 -0.8816
 4805TIP3   OH235973   2.611   1.601   7.728  0.2133 -0.0775 -0.2050
 4805TIP3    H135974   2.562   1.664   7.675 -0.1766 -0.1084  0.1101
 4805TIP3    H235975   2.696   1.643   7.742 -0.4383  0.9398  1.0013
 4806TIP3   OH235976   5.148   1.651   2.285  0.1316  0.2097  0.0534
 4806TIP3    H135977   5.103   1.584   2.336  0.2443  0.5092  0.5508
 4806TIP3    H235978   5.209   1.692   2.346  0.8417  0.0463 -0.5167
 4807TIP3   OH235979   1.778   2.237   1.690 -0.1534  0.1788 -0.2694
 4807TIP3    H135980   1.818   2.276   1.767  0.4028  1.3548 -1.1184
 4807TIP3    H235981   1.760   2.146   1.715  1.3912  0.1196  0.7420
 4808TIP3   OH235982   2.620   0.898   8.133 -0.0844  0.1254  0.1808
 4808TIP3    H135983   2.630   0.803   8.145  1.8471  0.1071 -1.2585
 4808TIP3    H235984   2.584   0.928   8.217  3.4009 -1.2756  2.3945
 4809TIP3   OH235985   1.119   5.725   1.222 -0.1640  0.3014  0.5693
 4809TIP3    H135986   1.140   5.635   1.194  0.4612 -0.0059  1.9329
 4809TIP3    H235987   1.064   5.759   1.152  0.0837 -0.9399 -0.2758
 4810TIP3   OH235988   3.371   4.705   1.010  0.0302  0.3565 -0.2096
 4810TIP3    H135989   3.331   4.623   0.983  2.3910 -1.1070  0.4037
 4810TIP3    H235990   3.297   4.761   1.035 -1.6403 -1.8987  0.2582
 4811TIP3   OH235991   2.618   2.497   7.786  0.2604 -0.1323  0.1331
 4811TIP3    H135992   2.541   2.440   7.788 -1.6484  2.2734 -0.1010
 4811TIP3    H235993   2.629   2.521   7.694 -0.5600  1.8164  0.4959
 4812TIP3   OH235994   3.644   4.599   1.138 -0.0090 -0.1364  0.1353
 4812TIP3    H135995   3.655   4.665   1.206  1.0299  1.0839 -1.1836
 4812TIP3    H235996   3.688   4.521   1.173 -1.9282 -0.4531  2.0404
 4813TIP3   OH235997   4.271   4.550   7.356 -0.6929  0.8183  0.0678
 4813TIP3    H135998   4.308   4.483   7.413 -0.6692 -0.2082 -1.1124
 4813TIP3    H235999   4.346   4.603   7.329 -0.0992 -0.8483 -1.7871
 4814TIP3   OH236000   5.931   3.400   2.418  0.3571 -0.3784  0.3661
 4814TIP3    H136001   5.893   3.341   2.353 -1.5691 -0.3213  1.3681
 4814TIP3    H236002   5.930   3.486   2.376  3.0641 -0.9228 -1.0528
 4815TIP3   OH236003   2.441   3.482   2.794  0.0549  0.5842 -0.3258
 4815TIP3    H136004   2.470   3.497   2.884 -2.5923 -1.7927  1.0855
 4815TIP3    H236005   2.409   3.567   2.765 -0.0836  1.1677  1.4180
 4816TIP3   OH236006   5.705   6.561   1.533  0.6396  0.7443 -0.0691
 4816TIP3    H136007   5.619   6.544   1.493  2.1943 -1.8705 -2.7069
 4816TIP3    H236008   5.720   6.655   1.519 -1.3161  1.0320 -0.4944
 4817TIP3   OH236009   1.931   3.501   7.647 -0.0290  0.1020 -0.0040
 4817TIP3    H136010   1.897   3.586   7.619 -1.5762 -0.4508  0.0629
 4817TIP3    H236011   1.998   3.521   7.712 -0.8723  1.2636  0.5357
 4818TIP3   OH236012   3.869   3.417   1.569 -0.1036  0.1604  0.8063
 4818TIP3    H136013   3.810   3.343   1.553  1.8770 -1.6690  1.4272
 4818TIP3    H236014   3.921   3.390   1.645  0.6153  2.2847  1.1446
 4819TIP3   OH236015   4.684   4.126   0.574  0.2486 -0.4696 -0.7573
 4819TIP3    H136016   4.657   4.125   0.667 -0.5555  0.2406 -0.9631
 4819TIP3    H236017   4.710   4.036   0.556  0.1559 -0.6822  0.0915
 4820TIP3   OH236018   2.872   6.102   1.103 -0.2179 -0.2547 -0.0501
 4820TIP3    H136019   2.863   6.008   1.090  1.6730 -0.3819 -0.7724
 4820TIP3    H236020   2.863   6.140   1.015  0.2483  0.1156  0.0562
 4821TIP3   OH236021   6.242   0.181   8.671  0.0639 -0.3795  0.2615
 4821TIP3    H136022   6.285   0.182   8.756  0.9804  1.5628 -0.1736
 4821TIP3    H236023   6.157   0.222   8.687  0.5463  0.7058  0.1205
 4822TIP3   OH236024   2.484   3.482   1.551  0.5509 -0.7857 -0.3235
 4822TIP3    H136025   2.572   3.517   1.540 -0.2678  1.3571 -0.4588
 4822TIP3    H236026   2.454   3.464   1.462  0.2483  0.1471 -0.4256
 4823TIP3   OH236027   5.476   6.781   1.670  0.3665  0.0600  0.0050
 4823TIP3    H136028   5.434   6.702   1.704 -0.7558  0.5692 -0.1617
 4823TIP3    H236029   5.405   6.845   1.664  1.5957  1.7236  2.0058
 4824TIP3   OH236030   4.294   0.447   8.009 -0.1487 -0.2486 -0.7921
 4824TIP3    H136031   4.248   0.482   7.933  0.9434 -0.6073 -1.6488
 4824TIP3    H236032   4.345   0.521   8.042 -1.0695  0.0619 -0.0428
 4825TIP3   OH236033   1.901   4.410   0.922 -0.0284  0.5617 -0.6033
 4825TIP3    H136034   1.929   4.402   0.831  0.3954  0.1324 -0.4375
 4825TIP3    H236035   1.828   4.472   0.919 -1.1900 -0.7861 -1.4804
 4826TIP3   OH236036   0.751   0.673   0.782  0.3815  0.4938 -0.2332
 4826TIP3    H136037   0.780   0.596   0.830  2.3168  0.7939 -0.8346
 4826TIP3    H236038   0.780   0.659   0.692  1.4126  2.1851 -0.2182
 4827TIP3   OH236039   2.725   3.036   8.014 -0.4793 -0.3687 -0.6217
 4827TIP3    H136040   2.796   2.991   7.969 -1.2135 -2.1081 -0.0978
 4827TIP3    H236041   2.649   3.025   7.958 -1.3570 -2.3818  0.8317
 4828TIP3   OH236042   6.748   6.567   7.307 -0.7195  0.2054 -0.1644
 4828TIP3    H136043   6.772   6.536   7.220 -0.4620 -2.6544  0.8213
 4828TIP3    H236044   6.652   6.569   7.305 -0.8267 -2.1579  0.1289
 4829TIP3   OH236045   0.433   0.633   0.959 -0.4971  0.1664 -0.6047
 4829TIP3    H136046   0.464   0.617   1.048  0.5249 -0.9704 -1.1388
 4829TIP3    H236047   0.481   0.712   0.931 -1.4637  1.0458  0.1205
 4830TIP3   OH236048   3.318   3.823   2.532  0.1996  0.4149  0.3060
 4830TIP3    H136049   3.358   3.800   2.449 -0.6880  0.4096 -0.1275
 4830TIP3    H236050   3.385   3.875   2.577  0.9624 -0.2054 -0.0912
 4831TIP3   OH236051   1.627   6.812   2.169  0.0994 -0.2203 -0.6251
 4831TIP3    H136052   1.590   6.886   2.218 -0.7253 -1.3836  0.5960
 4831TIP3    H236053   1.720   6.835   2.158 -0.2963  1.3248 -0.9506
 4832TIP3   OH236054   2.842   1.803   0.613  0.1193  0.3072 -0.0592
 4832TIP3    H136055   2.769   1.786   0.554 -1.4730  2.7857  1.0232
 4832TIP3    H236056   2.818   1.757   0.694  0.3171  0.2175 -0.0503
 4833TIP3   OH236057   6.729   2.528   0.921 -0.2219 -0.3251  0.6082
 4833TIP3    H136058   6.797   2.585   0.956 -0.4861  0.1323  0.3740
 4833TIP3    H236059   6.772   2.481   0.849 -0.1807  0.0297  0.4015
 4834TIP3   OH236060   5.641   6.390   2.044 -0.1135 -0.0892  0.1618
 4834TIP3    H136061   5.560   6.361   2.003  0.8980 -1.3533 -1.0705
 4834TIP3    H236062   5.694   6.422   1.971 -0.0753  2.2108  1.1416
 4835TIP3   OH236063   0.894   5.092   1.979 -0.7234  0.4338  0.2019
 4835TIP3    H136064   0.904   5.021   1.916  0.5425  1.0241 -0.2954
 4835TIP3    H236065   0.982   5.129   1.987 -0.9658  0.7048  1.9222
 4836TIP3   OH236066   6.100   1.923   7.575 -0.3880 -0.3801  0.0252
 4836TIP3    H136067   6.120   1.978   7.651 -2.5416 -1.4752  1.4768
 4836TIP3    H236068   6.073   1.839   7.613 -1.4699 -0.9803 -1.9556
 4837TIP3   OH236069   3.750   5.812   1.510  0.7116  1.0113 -0.1545
 4837TIP3    H136070   3.821   5.844   1.454  0.2952 -1.4044 -2.2703
 4837TIP3    H236071   3.786   5.735   1.554 -0.0963  0.7090  0.0002
 4838TIP3   OH236072   5.876   6.514   1.312  0.2631  0.3250  0.0618
 4838TIP3    H136073   5.852   6.454   1.241  1.0459  1.0261 -0.8348
 4838TIP3    H236074   5.812   6.498   1.380 -0.5965 -0.2884 -0.8632
 4839TIP3   OH236075   1.584   1.043   1.970  0.1585 -0.2823 -0.4910
 4839TIP3    H136076   1.495   1.038   1.934 -0.4375  1.5139  0.5662
 4839TIP3    H236077   1.599   0.956   2.007  0.0689 -1.5864 -3.2465
 4840TIP3   OH236078   1.439   1.629   2.030 -0.0045  0.0624  0.0922
 4840TIP3    H136079   1.442   1.593   2.118 -0.0889  1.0200  0.5010
 4840TIP3    H236080   1.523   1.605   1.991  0.2920  0.1748  0.6509
 4841TIP3   OH236081   3.331   0.628   2.660  0.2277  0.1847  0.6230
 4841TIP3    H136082   3.271   0.645   2.733 -0.9700  1.4766 -0.6110
 4841TIP3    H236083   3.417   0.621   2.702 -0.6917 -1.4968  2.4091
 4842TIP3   OH236084   1.710   1.614   2.434 -0.1664 -0.2062 -0.4040
 4842TIP3    H136085   1.735   1.684   2.494 -0.7759  0.2892 -0.7271
 4842TIP3    H236086   1.621   1.590   2.461  0.2275 -1.2487  0.0660
 4843TIP3   OH236087   3.236   2.476   2.427 -0.0924 -0.1821 -0.0446
 4843TIP3    H136088   3.242   2.561   2.470  0.0738  0.3042 -1.0028
 4843TIP3    H236089   3.142   2.455   2.429  0.0734 -0.8935  1.8879
 4844TIP3   OH236090   3.008   3.012   7.167 -0.2566  0.0998  0.1997
 4844TIP3    H136091   3.080   3.054   7.120 -0.5017 -1.1220 -1.3272
 4844TIP3    H236092   3.049   2.939   7.214 -0.4746 -0.5916 -0.6643
 4845TIP3   OH236093   0.075   4.446   7.889 -0.0601  0.1383  0.0044
 4845TIP3    H136094   0.088   4.442   7.984  0.7920 -1.4549 -0.1433
 4845TIP3    H236095   0.046   4.536   7.872  1.7285  1.0735  1.5413
 4846TIP3   OH236096   0.759   1.329   8.612  0.6764  0.7139 -0.0585
 4846TIP3    H136097   0.717   1.393   8.670 -1.0328 -0.5288  0.1507
 4846TIP3    H236098   0.847   1.363   8.599  0.4744  2.0410  1.6871
 4847TIP3   OH236099   5.123   0.395   7.954  0.5192 -0.4485 -0.7230
 4847TIP3    H136100   5.204   0.358   7.919  0.5142 -0.6426 -0.5302
 4847TIP3    H236101   5.150   0.477   7.995  0.3851  0.2375 -1.9767
 4848TIP3   OH236102   2.123   0.182   7.933 -0.3185 -0.6530  0.4181
 4848TIP3    H136103   2.172   0.161   8.013  0.1694  1.2394  0.6711
 4848TIP3    H236104   2.190   0.209   7.870 -0.8399 -0.3554 -0.0189
 4849TIP3   OH236105   3.565   1.700   0.470 -0.2592  0.8738  0.5036
 4849TIP3    H136106   3.620   1.683   0.547  0.1142  0.0833  0.0756
 4849TIP3    H236107   3.550   1.794   0.473  2.1982  1.3696 -0.0435
 4850TIP3   OH236108   5.253   2.755   1.135 -0.4816  0.4630 -0.3747
 4850TIP3    H136109   5.204   2.822   1.088 -0.3671  0.6760 -0.1936
 4850TIP3    H236110   5.252   2.784   1.226  1.6895  1.5335 -0.6456
 4851TIP3   OH236111   4.314   2.349   0.040  0.0778 -0.1844  0.4231
 4851TIP3    H136112   4.367   2.285  -0.007 -0.1990 -1.1922  1.4365
 4851TIP3    H236113   4.225   2.337   0.006  0.3689  1.0910 -0.8465
 4852TIP3   OH236114   5.002   6.052   0.269  1.1200 -0.2958 -0.3460
 4852TIP3    H136115   4.971   6.135   0.232  1.0594 -0.6727 -1.1547
 4852TIP3    H236116   5.095   6.068   0.288  0.8002  0.3867  0.7906
 4853TIP3   OH236117   2.857   5.390   2.924  0.0086  0.0643 -0.3049
 4853TIP3    H136118   2.907   5.365   2.846  0.2620 -1.4633  0.3109
 4853TIP3    H236119   2.827   5.479   2.906  1.1491  0.2223 -1.5962
 4854TIP3   OH236120   1.775   3.295   7.586  0.1800 -0.4143  0.2226
 4854TIP3    H136121   1.779   3.267   7.495 -0.2444 -0.4682  0.2161
 4854TIP3    H236122   1.831   3.372   7.590 -2.1726  1.5036 -0.8184
 4855TIP3   OH236123   1.192   0.792   6.796 -0.2745  0.1810  0.1094
 4855TIP3    H136124   1.150   0.845   6.728  0.1780 -1.1350 -1.2619
 4855TIP3    H236125   1.122   0.769   6.856 -0.6104  1.7225  0.3502
 4856TIP3   OH236126   1.881   4.539   2.472 -0.5208 -0.7575 -0.1514
 4856TIP3    H136127   1.952   4.585   2.517 -0.6295  0.3977 -1.1036
 4856TIP3    H236128   1.926   4.487   2.405 -0.5902  1.2138 -1.8367
 4857TIP3   OH236129   0.713   3.119   8.396  0.5260  0.2247 -0.2507
 4857TIP3    H136130   0.763   3.161   8.466 -0.0323  1.1598 -0.3869
 4857TIP3    H236131   0.634   3.173   8.387 -0.1130 -0.7361 -0.6034
 4858TIP3   OH236132   2.927   2.719   0.183 -0.4481  0.5620 -0.1303
 4858TIP3    H136133   3.001   2.771   0.214 -0.0004  1.4433 -2.4809
 4858TIP3    H236134   2.859   2.731   0.249  1.3398  0.0113  1.9188
 4859TIP3   OH236135   4.069   6.653   7.355 -0.0704 -0.2774  0.1820
 4859TIP3    H136136   4.106   6.612   7.277  1.2853  0.6362  0.3176
 4859TIP3    H236137   4.117   6.613   7.428  1.2695  1.4519  0.3187
 4860TIP3   OH236138   0.704   0.625   8.637 -0.0922 -0.3016 -0.4222
 4860TIP3    H136139   0.675   0.667   8.557 -1.2191 -0.8108 -0.2924
 4860TIP3    H236140   0.640   0.555   8.653 -0.2132  0.1436  1.2251
 4861TIP3   OH236141   4.740   6.562   8.474 -0.1343  0.1673  0.1427
 4861TIP3    H136142   4.680   6.518   8.534  0.0059 -1.1729 -0.6487
 4861TIP3    H236143   4.826   6.526   8.495  0.2693  1.3358  0.5988
 4862TIP3   OH236144   4.542   5.563   1.710  0.0831  0.2418 -0.5340
 4862TIP3    H136145   4.605   5.634   1.721 -1.3441  1.4520  0.2121
 4862TIP3    H236146   4.538   5.549   1.615  1.0829  0.5022 -0.6218
 4863TIP3   OH236147   5.437   1.847   1.351 -0.1174  0.6998  1.1750
 4863TIP3    H136148   5.526   1.859   1.317 -0.7909 -0.1897 -1.0157
 4863TIP3    H236149   5.414   1.933   1.386  0.4160  1.9204 -1.2304
 4864TIP3   OH236150   6.653   4.239   8.591  0.0314  0.5771 -0.1646
 4864TIP3    H136151   6.741   4.202   8.587 -0.0481  0.4688 -1.2874
 4864TIP3    H236152   6.610   4.207   8.511 -0.1302  2.8445 -1.0525
 4865TIP3   OH236153   3.104   2.771   6.983  0.4582 -0.5044  0.7560
 4865TIP3    H136154   3.098   2.835   7.055  1.4024 -0.8043  1.1106
 4865TIP3    H236155   3.197   2.756   6.972  0.4248  0.5178 -1.4432
 4866TIP3   OH236156   3.399   6.308   7.161 -0.0338 -0.1695  0.0215
 4866TIP3    H136157   3.457   6.318   7.085  0.8588  1.2228  0.8425
 4866TIP3    H236158   3.347   6.388   7.162 -1.7448 -1.2319 -0.4591
 4867TIP3   OH236159   2.258   2.834   8.430  0.8720  0.2255  0.3241
 4867TIP3    H136160   2.350   2.816   8.413  0.9155 -0.8185  1.4945
 4867TIP3    H236161   2.213   2.812   8.348  1.7179  1.4617 -0.5070
 4868TIP3   OH236162   0.676   5.195   2.671  0.2164  0.5097 -0.2957
 4868TIP3    H136163   0.631   5.206   2.588 -0.1360  1.9905  0.0542
 4868TIP3    H236164   0.769   5.201   2.649  0.1803 -0.5319 -0.7575
 4869TIP3   OH236165   4.815   1.008   1.808 -0.2212  0.1284 -0.3725
 4869TIP3    H136166   4.861   1.092   1.801  1.1722 -0.6644 -1.0136
 4869TIP3    H236167   4.836   0.977   1.896  1.7918 -0.9366 -1.1747
 4870TIP3   OH236168   0.289   4.433   1.460 -0.5348  0.2268 -0.5848
 4870TIP3    H136169   0.329   4.489   1.526  1.3102 -0.7980 -0.7645
 4870TIP3    H236170   0.362   4.403   1.406 -1.8886  0.4380 -2.6705
 4871TIP3   OH236171   6.253   2.164   8.490 -0.0158 -0.0700  0.0755
 4871TIP3    H136172   6.212   2.242   8.529  0.9842  0.4576  0.0922
 4871TIP3    H236173   6.346   2.176   8.504  0.0772 -2.2140  1.8373
 4872TIP3   OH236174   2.286   2.514   1.889  0.0673 -0.0763 -0.0883
 4872TIP3    H136175   2.326   2.600   1.903  0.0644  0.0995 -1.0526
 4872TIP3    H236176   2.227   2.527   1.815 -0.3415 -0.7844  0.1089
 4873TIP3   OH236177   6.053   2.861   0.057  0.1078 -0.6545  0.2117
 4873TIP3    H136178   6.027   2.929  -0.005 -0.2554 -0.2750  0.7706
 4873TIP3    H236179   5.997   2.786   0.036  0.3039 -0.6894 -0.2089
 4874TIP3   OH236180   1.014   2.113   2.220  0.1175 -0.3282  0.5064
 4874TIP3    H136181   0.949   2.183   2.217 -0.1100 -0.5576 -1.6259
 4874TIP3    H236182   1.080   2.139   2.156  0.3877 -1.7214  0.1865
 4875TIP3   OH236183   3.177   0.543   1.785 -0.0122  0.0742  0.5541
 4875TIP3    H136184   3.219   0.497   1.858 -1.7841 -1.1032  0.9172
 4875TIP3    H236185   3.110   0.597   1.828 -1.7390 -1.3808 -0.2131
 4876TIP3   OH236186   1.899   4.087   8.050  0.3021 -0.1976 -0.1929
 4876TIP3    H136187   1.834   4.066   8.117  0.5015 -0.7940 -0.1853
 4876TIP3    H236188   1.861   4.056   7.969  0.0869  0.4723 -0.3592
 4877TIP3   OH236189   4.499   4.078   1.062  0.4169  0.6350  0.2294
 4877TIP3    H136190   4.434   4.130   1.109 -1.4537 -1.4835  0.1822
 4877TIP3    H236191   4.583   4.102   1.102 -0.6828  1.5870  2.0881
 4878TIP3   OH236192   5.138   3.177   1.071 -0.8389  0.1672  0.3049
 4878TIP3    H136193   5.044   3.170   1.088 -0.8922 -0.5644 -0.2370
 4878TIP3    H236194   5.144   3.201   0.979 -0.5100  2.0082  0.7700
 4879TIP3   OH236195   0.285   4.045   8.016  0.4130  0.2702 -0.1817
 4879TIP3    H136196   0.261   4.103   7.944 -2.6935  0.2854  0.7367
 4879TIP3    H236197   0.374   4.072   8.039  1.1506  0.9089 -3.2979
 4880TIP3   OH236198   4.907   2.224   7.934  0.2694  0.1782  0.0586
 4880TIP3    H136199   4.987   2.173   7.927  0.9888  1.2756 -0.0319
 4880TIP3    H236200   4.853   2.195   7.861  0.4373 -0.8101  0.3163
 4881TIP3   OH236201   2.536   0.452   0.257 -0.3221 -0.3942 -0.1996
 4881TIP3    H136202   2.510   0.538   0.224 -0.3115 -0.1445  0.4298
 4881TIP3    H236203   2.511   0.391   0.188  1.8231  0.3420 -1.7164
 4882TIP3   OH236204   4.327   2.451   2.010 -0.1959  0.1172  0.2709
 4882TIP3    H136205   4.283   2.420   1.931 -0.7004 -2.6269  1.4800
 4882TIP3    H236206   4.363   2.536   1.987 -2.1557  0.3750 -2.2159
 4883TIP3   OH236207   1.293   0.180   2.645  0.1547  0.3372  0.9105
 4883TIP3    H136208   1.264   0.264   2.610 -0.3193  0.5918  1.8827
 4883TIP3    H236209   1.215   0.143   2.686  0.0346 -1.1594 -0.5490
 4884TIP3   OH236210   1.674   0.255   7.354 -0.1328 -0.1057  0.2218
 4884TIP3    H136211   1.672   0.187   7.286  2.3816 -0.7036  0.6310
 4884TIP3    H236212   1.760   0.297   7.343  0.0563  0.2522  2.5480
 4885TIP3   OH236213   3.041   6.676   0.012  0.1550  0.0191  0.1337
 4885TIP3    H136214   3.039   6.646   0.102 -1.9253  1.2556  0.5824
 4885TIP3    H236215   3.018   6.769   0.017 -0.2213  0.0716 -1.6685
 4886TIP3   OH236216   6.186   4.382   2.494 -0.2544 -0.2450 -0.2076
 4886TIP3    H136217   6.146   4.317   2.552 -0.1205  0.5648  0.8307
 4886TIP3    H236218   6.274   4.394   2.529  0.0678 -0.2426 -1.0109
 4887TIP3   OH236219   4.025   1.135   8.485  0.0475 -0.0466 -0.0826
 4887TIP3    H136220   4.000   1.070   8.550 -0.2107  0.1743  0.0405
 4887TIP3    H236221   4.004   1.095   8.401  1.8678 -0.9912 -0.1380
 4888TIP3   OH236222   2.504   3.287   8.148  0.6502 -0.1900  0.3481
 4888TIP3    H136223   2.494   3.374   8.108  2.0185  1.2960  2.9714
 4888TIP3    H236224   2.462   3.228   8.086  3.4259  1.6927 -3.8058
 4889TIP3   OH236225   2.298   6.284   1.293 -0.5591 -0.0259 -0.2797
 4889TIP3    H136226   2.321   6.218   1.228  0.2253 -0.0128 -0.0273
 4889TIP3    H236227   2.238   6.240   1.353  0.3483 -0.6671  0.1737
 4890TIP3   OH236228   0.711   0.332   0.550 -0.1835 -0.0536 -0.1423
 4890TIP3    H136229   0.653   0.334   0.473 -1.4983  0.3722  0.8174
 4890TIP3    H236230   0.655   0.301   0.621  1.0877 -0.7094  0.5993
 4891TIP3   OH236231   1.321   3.023   0.182  0.2211 -0.1547 -0.1861
 4891TIP3    H136232   1.376   3.100   0.171  0.6760 -0.4741 -0.1542
 4891TIP3    H236233   1.323   2.979   0.097 -0.7617  0.3340 -0.4793
 4892TIP3   OH236234   6.456   1.610   1.828  0.5635 -0.6581 -0.1774
 4892TIP3    H136235   6.373   1.651   1.850  1.3887  1.2890 -0.5157
 4892TIP3    H236236   6.501   1.600   1.911  1.3365  1.4216 -0.2942
 4893TIP3   OH236237   6.628   0.746   0.392 -0.2030  0.0920  0.3394
 4893TIP3    H136238   6.583   0.740   0.476 -1.8856 -1.3299 -0.5949
 4893TIP3    H236239   6.617   0.659   0.352  1.7707  0.2745 -0.7711
 4894TIP3   OH236240   2.776   4.830   7.857  0.4262  0.5381  0.1973
 4894TIP3    H136241   2.688   4.865   7.871 -0.2936 -0.5031 -1.4288
 4894TIP3    H236242   2.783   4.758   7.920 -0.2558  0.0405 -0.2830
 4895TIP3   OH236243   1.567   2.667   3.059 -0.0261 -0.3113  0.2944
 4895TIP3    H136244   1.574   2.597   2.993 -0.1877  0.9793 -1.1333
 4895TIP3    H236245   1.626   2.639   3.128  1.2108 -1.0645 -0.9992
 4896TIP3   OH236246   4.233   2.195   1.148 -0.5165  0.1356  0.0206
 4896TIP3    H136247   4.149   2.192   1.194 -0.5058  0.5784  0.0675
 4896TIP3    H236248   4.249   2.104   1.123 -0.5177 -0.1129  0.8944
 4897TIP3   OH236249   0.215   1.048   7.799  0.2012 -0.0733  0.3428
 4897TIP3    H136250   0.189   1.127   7.847 -0.4872  0.0648 -0.2351
 4897TIP3    H236251   0.193   0.976   7.858 -0.6095  0.0959  0.2559
 4898TIP3   OH236252   6.680   4.629   6.654 -0.2119  0.2915  0.1743
 4898TIP3    H136253   6.649   4.556   6.600 -1.0909  1.2556 -0.6800
 4898TIP3    H236254   6.700   4.590   6.739 -1.4228 -0.8223 -0.0204
 4899TIP3   OH236255   6.457   4.187   7.520 -0.5304 -0.2009 -0.6383
 4899TIP3    H136256   6.424   4.126   7.454  0.1519 -0.6105 -0.6054
 4899TIP3    H236257   6.411   4.162   7.601 -0.1385 -0.7932 -0.5857
 4900TIP3   OH236258   0.884   5.642   0.707 -0.3885 -0.9811 -0.0125
 4900TIP3    H136259   0.868   5.593   0.626 -1.6108 -0.4500 -0.1131
 4900TIP3    H236260   0.943   5.713   0.680 -0.9207 -0.7065 -0.4895
 4901TIP3   OH236261   4.974   6.477   7.539  0.7010  0.1044  0.0683
 4901TIP3    H136262   4.893   6.508   7.580  0.9346 -2.5124  2.9549
 4901TIP3    H236263   4.967   6.505   7.448 -3.6642 -0.3144  0.0280
 4902TIP3   OH236264   1.676   6.016   2.948  0.2967  0.3187 -0.7303
 4902TIP3    H136265   1.678   6.111   2.933 -0.8954  0.6274  0.8394
 4902TIP3    H236266   1.718   6.004   3.033  2.1031 -0.8007 -1.7231
 4903TIP3   OH236267   1.272   0.130   7.999  0.5379 -0.2443  0.2329
 4903TIP3    H136268   1.316   0.109   7.917  3.4680 -1.2440  1.9109
 4903TIP3    H236269   1.267   0.046   8.046 -0.6942  0.3610  1.2573
 4904TIP3   OH236270   5.399   4.461   1.695 -0.3141  0.1282  0.2074
 4904TIP3    H136271   5.432   4.411   1.770  0.9035  0.0313 -0.3727
 4904TIP3    H236272   5.478   4.484   1.645 -1.1666 -0.5714 -1.5280
 4905TIP3   OH236273   5.949   4.492   8.106  0.0566 -0.7119 -0.3596
 4905TIP3    H136274   5.926   4.407   8.068  0.0748 -0.3532 -1.2042
 4905TIP3    H236275   6.045   4.491   8.110  0.0219 -1.0905  0.5001
 4906TIP3   OH236276   1.918   4.865   1.997 -0.6600 -0.0305  0.0735
 4906TIP3    H136277   1.911   4.773   2.024 -1.3015  0.0546  0.2029
 4906TIP3    H236278   1.992   4.899   2.048 -1.7877  0.1037  1.7132
 4907TIP3   OH236279   5.222   2.328   0.580  0.2591 -0.2686 -0.1142
 4907TIP3    H136280   5.141   2.294   0.543 -0.1150  0.1716  0.2871
 4907TIP3    H236281   5.241   2.271   0.654 -0.5091  0.5254  0.7202
 4908TIP3   OH236282   4.182   5.196   1.962 -0.1534  0.2538  0.3673
 4908TIP3    H136283   4.269   5.164   1.985 -0.8380 -2.1393 -0.0997
 4908TIP3    H236284   4.134   5.197   2.045 -0.1430 -0.0113  0.3770
 4909TIP3   OH236285   6.234   2.014   2.080  0.1076 -0.2047  0.0399
 4909TIP3    H136286   6.189   2.077   2.137  0.9565 -1.2823  2.0162
 4909TIP3    H236287   6.326   2.037   2.087  0.3905 -1.4092  0.4911
 4910TIP3   OH236288   6.139   2.524   0.264 -0.0729 -0.2406  0.0301
 4910TIP3    H136289   6.047   2.521   0.288 -0.4381 -1.6590 -1.3393
 4910TIP3    H236290   6.158   2.617   0.249 -1.7194 -0.0619 -1.1753
 4911TIP3   OH236291   0.333   3.063   7.431 -0.5279 -0.4049  0.3487
 4911TIP3    H136292   0.416   3.110   7.422 -1.8512  2.0455  0.1827
 4911TIP3    H236293   0.297   3.095   7.514 -1.9829 -0.2553 -0.3088
 4912TIP3   OH236294   5.706   4.085   1.073 -0.0514  0.1854 -0.3637
 4912TIP3    H136295   5.739   3.995   1.065 -0.6172  0.0973 -1.9623
 4912TIP3    H236296   5.689   4.095   1.167  1.0743 -0.9839  0.0033
 4913TIP3   OH236297   1.712   1.927   1.755  0.2065  0.2642 -0.3347
 4913TIP3    H136298   1.644   1.899   1.816  1.1502  0.1061  0.6999
 4913TIP3    H236299   1.792   1.929   1.809  1.4585 -1.6834 -1.9795
 4914TIP3   OH236300   3.276   2.352   0.294  0.3657  0.0089  0.0431
 4914TIP3    H136301   3.186   2.318   0.290 -0.0671  1.0106  0.8746
 4914TIP3    H236302   3.267   2.444   0.269  1.4267 -0.2841 -1.5774
 4915TIP3   OH236303   3.320   3.050   0.479  0.0150 -0.3378 -0.4697
 4915TIP3    H136304   3.359   2.978   0.429  0.3581 -1.4054  1.2504
 4915TIP3    H236305   3.395   3.104   0.504  0.4864 -2.1175  2.4070
 4916TIP3   OH236306   4.513   0.682   2.937 -0.3349 -0.1141  0.2179
 4916TIP3    H136307   4.431   0.641   2.964 -1.5392  3.4628  2.8649
 4916TIP3    H236308   4.488   0.773   2.918  3.1489  1.5666  2.6640
 4917TIP3   OH236309   3.665   6.804   1.914  0.0916  0.0670  0.2134
 4917TIP3    H136310   3.643   6.795   1.821 -1.0108 -0.6279  0.5174
 4917TIP3    H236311   3.753   6.840   1.915 -0.1506  0.7369 -1.1018
 4918TIP3   OH236312   6.212   3.000   0.840  0.7002  0.9090  0.2765
 4918TIP3    H136313   6.265   3.004   0.760  1.3727 -3.6899  0.2349
 4918TIP3    H236314   6.136   3.055   0.821  0.1938 -0.9326 -4.1548
 4919TIP3   OH236315   2.418   6.568   1.478 -0.1513 -0.1078  0.1839
 4919TIP3    H136316   2.383   6.514   1.549  0.5444 -0.8810 -0.0361
 4919TIP3    H236317   2.448   6.504   1.413  0.8781  0.5379  0.0086
 4920TIP3   OH236318   4.513   0.971   0.521 -0.5744 -0.4730  0.3651
 4920TIP3    H136319   4.442   0.987   0.582  0.9094 -1.5736  2.5141
 4920TIP3    H236320   4.508   0.878   0.501 -1.3676 -0.0417 -1.7277
 4921TIP3   OH236321   0.543   3.254   7.417  0.5746 -0.3809  0.6290
 4921TIP3    H136322   0.546   3.295   7.330  0.5885 -0.2933  0.6699
 4921TIP3    H236323   0.616   3.293   7.464 -0.6112  1.0988  1.3318
 4922TIP3   OH236324   0.324   1.106   7.399 -0.0921 -0.7646  0.0003
 4922TIP3    H136325   0.294   1.163   7.329 -1.3414 -2.4109 -0.8766
 4922TIP3    H236326   0.247   1.094   7.454  0.7555  0.1543  1.4637
 4923TIP3   OH236327   0.308   0.600   8.158  0.0124 -0.5998  0.2411
 4923TIP3    H136328   0.283   0.586   8.067  0.4041  0.0700  0.0187
 4923TIP3    H236329   0.399   0.570   8.162  0.3989  0.5058  0.0997
 4924TIP3   OH236330   4.509   3.758   8.479  0.0486  0.5153 -0.0146
 4924TIP3    H136331   4.458   3.720   8.408 -0.5387 -0.2061  0.7791
 4924TIP3    H236332   4.460   3.836   8.505 -0.7494 -0.2598  0.8482
 4925TIP3   OH236333   2.103   4.791   1.399 -0.7836 -0.1218  0.0760
 4925TIP3    H136334   2.151   4.742   1.465  1.1695  1.4165 -0.1189
 4925TIP3    H236335   2.132   4.754   1.315 -2.0586 -1.0095 -0.0021
 4926TIP3   OH236336   4.427   0.958   1.026 -0.2160  0.4271  0.3275
 4926TIP3    H136337   4.363   1.014   1.070 -1.7799 -0.3874 -0.8072
 4926TIP3    H236338   4.479   0.919   1.097  0.1138  2.3281  1.1927
 4927TIP3   OH236339   2.977   3.134   0.709  0.3800  0.4573 -0.0146
 4927TIP3    H136340   2.910   3.200   0.728  0.0327 -0.2925  1.5681
 4927TIP3    H236341   2.929   3.061   0.672  0.0286 -0.6164  2.3603
 4928TIP3   OH236342   0.344   4.430   8.116  0.4091 -0.0756  0.3647
 4928TIP3    H136343   0.249   4.416   8.121  0.3805 -0.5553 -1.2308
 4928TIP3    H236344   0.355   4.497   8.049  1.3226 -2.0118 -1.5359
 4929TIP3   OH236345   1.471   3.929   0.321  0.2220  0.4097 -0.6627
 4929TIP3    H136346   1.477   3.837   0.347 -1.9408  0.4100  0.0816
 4929TIP3    H236347   1.483   3.928   0.226 -0.1232 -0.6875 -0.7121
 4930TIP3   OH236348   5.680   5.014   7.111  0.3004 -0.3474 -0.2049
 4930TIP3    H136349   5.751   4.990   7.052  1.2862  0.8654  0.4310
 4930TIP3    H236350   5.668   5.108   7.097 -1.6498 -0.6461 -0.7692
 4931TIP3   OH236351   4.494   1.732   1.243 -0.5746  0.3025 -0.1003
 4931TIP3    H136352   4.581   1.708   1.212  0.2349  1.5358  1.1185
 4931TIP3    H236353   4.503   1.822   1.274 -2.3819  0.5822 -0.2825
 4932TIP3   OH236354   3.168   0.049   0.647 -0.0310 -0.0761  0.5408
 4932TIP3    H136355   3.163   0.141   0.620  0.8228 -0.2235 -0.1640
 4932TIP3    H236356   3.106   0.042   0.720 -0.8041  0.8392 -0.0045
 4933TIP3   OH236357   4.476   1.800   8.415  0.2659 -0.4235  0.0940
 4933TIP3    H136358   4.383   1.785   8.435  0.2474 -1.0298 -0.4276
 4933TIP3    H236359   4.494   1.743   8.340  0.6150  1.0123 -0.9405
 4934TIP3   OH236360   5.142   2.088   7.957  0.3831 -0.6658  0.3024
 4934TIP3    H136361   5.177   2.130   8.035  1.6665 -1.8644  0.4198
 4934TIP3    H236362   5.217   2.045   7.917 -0.3289 -0.4558 -1.3672
 4935TIP3   OH236363   0.990   2.833   2.891 -0.2149 -0.1679  0.1084
 4935TIP3    H136364   0.902   2.839   2.854  0.2264  0.0685 -0.9257
 4935TIP3    H236365   1.048   2.846   2.817  0.6994  0.6384  0.9500
 4936TIP3   OH236366   5.915   4.911   0.323 -0.6356 -0.0401  0.1093
 4936TIP3    H136367   5.935   4.818   0.326  1.0617  0.2680  4.1325
 4936TIP3    H236368   5.822   4.917   0.346 -1.6910 -0.7052 -3.3267
 4937TIP3   OH236369   6.610   3.920   1.335  0.3906  0.0879 -0.1928
 4937TIP3    H136370   6.614   3.846   1.274  1.2180  0.3019 -0.4151
 4937TIP3    H236371   6.696   3.962   1.328  0.6017 -0.0316  1.3294
 4938TIP3   OH236372   6.287   2.582   3.237  0.4915  0.1011  0.1373
 4938TIP3    H136373   6.362   2.532   3.269  0.9382  0.0414 -0.9365
 4938TIP3    H236374   6.210   2.538   3.273  0.9359 -0.5015  0.3499
 4939TIP3   OH236375   5.708   1.904   1.519 -0.0273  0.4026 -0.0962
 4939TIP3    H136376   5.735   1.850   1.445 -0.6686 -0.7046  0.4430
 4939TIP3    H236377   5.786   1.954   1.542  0.3690  0.2675 -1.0909
 4940TIP3   OH236378   0.250   6.346   8.464  0.4106 -0.0541  0.0062
 4940TIP3    H136379   0.230   6.354   8.370 -0.4197  0.9696  0.2502
 4940TIP3    H236380   0.197   6.415   8.505 -0.4029 -1.4521  1.3992
 4941TIP3   OH236381   0.330   0.758   0.046  0.0864  0.1823  0.0436
 4941TIP3    H136382   0.268   0.822   0.083  1.5034  2.1701 -0.8386
 4941TIP3    H236383   0.413   0.780   0.087  1.0444  0.3728 -1.9111
 4942TIP3   OH236384   5.045   0.993   7.741 -0.5796  0.5052 -0.5187
 4942TIP3    H136385   5.036   0.923   7.677 -2.1903  0.8807 -0.7507
 4942TIP3    H236386   5.060   1.072   7.690  0.4801  0.4655 -0.2939
 4943TIP3   OH236387   2.036   3.030   8.232  0.2969 -0.4173 -0.2467
 4943TIP3    H136388   1.988   2.950   8.253  1.2790 -0.4596  2.3007
 4943TIP3    H236389   2.015   3.090   8.304  2.8422  0.0574  0.2154
 4944TIP3   OH236390   1.979   5.140   3.192  0.7866 -0.1334  0.1940
 4944TIP3    H136391   1.977   5.141   3.097  1.0866 -0.4146  0.1852
 4944TIP3    H236392   2.003   5.229   3.217 -0.0838  0.1615  0.0297
 4945TIP3   OH236393   6.400   1.335   7.272  0.3801 -0.4026  0.4535
 4945TIP3    H136394   6.374   1.382   7.193 -0.8440  0.5911  1.3897
 4945TIP3    H236395   6.495   1.323   7.263  0.0727 -1.6823 -1.8319
 4946TIP3   OH236396   2.186   1.769   2.579  0.1042 -0.4546  0.1190
 4946TIP3    H136397   2.135   1.850   2.577 -0.2217 -0.6699 -0.9943
 4946TIP3    H236398   2.160   1.722   2.500  2.4570 -0.3102 -0.8450
 4947TIP3   OH236399   6.031   2.744   7.220  0.1055  0.4770 -0.5747
 4947TIP3    H136400   5.965   2.809   7.195  0.6499  0.0662 -3.4394
 4947TIP3    H236401   6.100   2.754   7.154  0.7750 -2.1576 -0.3796
 4948TIP3   OH236402   4.915   4.066   6.957 -0.1974  0.0093 -0.2492
 4948TIP3    H136403   4.937   3.980   6.920  2.0550 -0.1772  1.3116
 4948TIP3    H236404   4.867   4.046   7.038 -3.9740  0.3999 -2.1535
 4949TIP3   OH236405   4.876   2.149   3.057  0.5864 -0.2725 -0.6417
 4949TIP3    H136406   4.840   2.060   3.057  1.8075 -0.7947 -0.5146
 4949TIP3    H236407   4.845   2.187   3.139  0.0753 -0.5901 -0.6820
 4950TIP3   OH236408   3.357   0.643   1.330 -0.0485  0.2582 -0.3549
 4950TIP3    H136409   3.318   0.701   1.265  0.3380 -0.1120 -0.9355
 4950TIP3    H236410   3.294   0.571   1.339  0.0123  0.1838 -0.5136
 4951TIP3   OH236411   4.368   0.943   1.499  1.0862  0.0594 -0.2880
 4951TIP3    H136412   4.417   0.862   1.484  0.9269 -0.3466  1.2397
 4951TIP3    H236413   4.429   0.999   1.547  1.0560  0.7215 -0.9932
 4952TIP3   OH236414   4.395   4.207   7.455 -0.1932 -0.2409  0.0834
 4952TIP3    H136415   4.332   4.203   7.527  1.4327 -0.8247  1.5347
 4952TIP3    H236416   4.457   4.276   7.480  0.0434  0.0081 -1.0935
 4953TIP3   OH236417   5.245   6.463   0.708 -0.3073  0.1626  0.6437
 4953TIP3    H136418   5.250   6.379   0.662 -0.8361  1.5546 -2.1737
 4953TIP3    H236419   5.239   6.439   0.800  0.5169 -2.8475  0.0332
 4954TIP3   OH236420   4.886   3.173   1.237  0.3636  0.3230 -0.0744
 4954TIP3    H136421   4.898   3.085   1.270 -0.8262 -0.1152 -0.7323
 4954TIP3    H236422   4.867   3.226   1.314  1.7930  0.1611  0.4063
 4955TIP3   OH236423   6.069   3.206   1.937  0.2394 -0.2989  0.1490
 4955TIP3    H136424   6.099   3.277   1.994  1.1592  0.3297 -1.0728
 4955TIP3    H236425   6.028   3.144   1.996 -0.2650  1.0791  1.3009
 4956TIP3   OH236426   0.872   0.531   2.732  0.5945  0.2711  0.3840
 4956TIP3    H136427   0.938   0.560   2.795 -0.5617  0.9586  1.3150
 4956TIP3    H236428   0.818   0.609   2.716 -0.1594 -0.3419 -0.1373
 4957TIP3   OH236429   2.810   0.404   1.483  0.1326 -0.6279  0.2410
 4957TIP3    H136430   2.886   0.353   1.455 -0.2331 -0.5908 -0.8790
 4957TIP3    H236431   2.805   0.477   1.421  0.6494  0.8147  1.8029
 4958TIP3   OH236432   3.755   4.067   1.780  0.4134  0.5054 -0.0310
 4958TIP3    H136433   3.705   4.143   1.809 -0.0467  0.2669 -0.1952
 4958TIP3    H236434   3.717   4.043   1.696  0.8837  0.3947 -0.2163
 4959TIP3   OH236435   0.778   2.957   1.220  0.1879  0.4945 -0.0449
 4959TIP3    H136436   0.830   3.027   1.180 -0.6763  1.1965  0.0330
 4959TIP3    H236437   0.824   2.938   1.302  0.3893  1.0304 -0.0283
 4960TIP3   OH236438   2.295   5.162   1.505  0.6234  0.5654 -0.5084
 4960TIP3    H136439   2.218   5.219   1.508 -0.5878 -1.0170  0.9089
 4960TIP3    H236440   2.315   5.153   1.412  0.5063  2.7827 -0.7903
 4961TIP3   OH236441   5.591   4.568   2.142  0.2973 -0.9579 -0.5448
 4961TIP3    H136442   5.543   4.582   2.224  0.2940 -0.8283 -0.5691
 4961TIP3    H236443   5.651   4.496   2.161  0.8760 -0.3919 -0.1808
 4962TIP3   OH236444   1.396   4.825   3.008 -0.1995 -0.4777  0.3649
 4962TIP3    H136445   1.392   4.788   3.096 -1.7726 -0.5273  0.2941
 4962TIP3    H236446   1.309   4.810   2.971 -0.9187  2.9975  0.2499
 4963TIP3   OH236447   6.431   1.192   0.710 -0.0510  0.2584 -0.5518
 4963TIP3    H136448   6.489   1.176   0.785  0.1914 -1.6097 -1.0891
 4963TIP3    H236449   6.491   1.205   0.636 -0.3158  0.3862 -0.7466
 4964TIP3   OH236450   0.221   4.844   8.442 -0.1595  0.1542  0.3175
 4964TIP3    H136451   0.153   4.911   8.451 -0.8065 -0.3788 -0.4481
 4964TIP3    H236452   0.195   4.776   8.503  1.5881  1.4116  2.6257
 4965TIP3   OH236453   1.563   2.565   0.211 -0.3349 -0.7344  0.1012
 4965TIP3    H136454   1.594   2.520   0.289  0.9056 -2.6057 -1.3755
 4965TIP3    H236455   1.481   2.521   0.189 -1.2987  0.5685  0.9450
 4966TIP3   OH236456   1.347   0.978   1.831 -0.1744  0.0628 -0.0237
 4966TIP3    H136457   1.300   0.897   1.854 -0.9348  0.6823  0.6876
 4966TIP3    H236458   1.390   0.958   1.748 -2.6859 -0.1867 -1.3714
 4967TIP3   OH236459   2.115   4.807   0.435  0.1401 -0.3160  0.3184
 4967TIP3    H136460   2.064   4.816   0.515  0.7337 -1.0384  0.7836
 4967TIP3    H236461   2.170   4.885   0.432  0.5692 -0.5941  0.9402
 4968TIP3   OH236462   5.333   6.692   6.919 -0.2719 -0.2105  0.2673
 4968TIP3    H136463   5.293   6.760   6.865 -2.8686 -2.0609 -0.2956
 4968TIP3    H236464   5.391   6.645   6.859 -0.4020 -0.0532  0.0142
 4969TIP3   OH236465   5.699   0.548   7.657  0.3856  0.2218 -0.2389
 4969TIP3    H136466   5.607   0.534   7.636  0.3230  1.1396 -0.5952
 4969TIP3    H236467   5.746   0.527   7.576  0.6250 -1.4504  0.2813
 4970TIP3   OH236468   6.378   1.673   0.754 -0.2653  0.2096 -0.0260
 4970TIP3    H136469   6.457   1.656   0.703 -0.0012  2.9463 -0.6288
 4970TIP3    H236470   6.411   1.702   0.839 -0.6871 -0.7222  0.4735
 4971TIP3   OH236471   2.859   3.831   1.143  0.5863 -0.6536 -0.0094
 4971TIP3    H136472   2.768   3.844   1.168  0.9083 -0.1581  0.9618
 4971TIP3    H236473   2.906   3.824   1.226  1.4879 -0.4913 -0.4944
 4972TIP3   OH236474   6.176   2.734   1.436 -0.9091 -0.4431 -0.1783
 4972TIP3    H136475   6.207   2.700   1.352  1.9539 -0.5243  0.7979
 4972TIP3    H236476   6.183   2.829   1.428 -2.5239 -0.3407 -0.6516
 4973TIP3   OH236477   1.259   5.580   2.698  0.6529  0.2989  0.2218
 4973TIP3    H136478   1.339   5.612   2.658  1.6726 -1.2458  0.9465
 4973TIP3    H236479   1.275   5.585   2.792  0.0737 -0.4403  0.3661
 4974TIP3   OH236480   6.688   3.176   8.311 -0.0181 -0.6433  0.3726
 4974TIP3    H136481   6.725   3.147   8.394 -1.0420 -1.2690  0.6328
 4974TIP3    H236482   6.594   3.162   8.321 -0.4598  1.7145  0.0659
 4975TIP3   OH236483   4.867   4.993   2.728 -0.1415  0.6443 -0.0759
 4975TIP3    H136484   4.931   4.954   2.669 -0.8104  0.5377 -0.7390
 4975TIP3    H236485   4.808   5.042   2.671 -0.3549  1.1644  0.5782
 4976TIP3   OH236486   5.223   1.245   8.646  0.0910  0.4245 -0.1270
 4976TIP3    H136487   5.153   1.264   8.710 -0.3746  1.6805 -0.9601
 4976TIP3    H236488   5.271   1.172   8.684 -2.9962 -2.0312 -0.5273
 4977TIP3   OH236489   0.033   0.736   0.937 -0.2727 -0.3744  0.1191
 4977TIP3    H136490   0.058   0.806   0.877  0.5031 -0.4992  0.2853
 4977TIP3    H236491  -0.007   0.670   0.880 -1.9183  0.5977  0.0823
 4978TIP3   OH236492   0.757   6.310   8.129 -0.8942  0.1756  0.1307
 4978TIP3    H136493   0.708   6.282   8.207 -0.6121  2.7021  1.3355
 4978TIP3    H236494   0.724   6.398   8.111 -0.1107  0.0923 -1.9357
 4979TIP3   OH236495   2.695   2.370   0.588  0.0553 -0.1882  0.1911
 4979TIP3    H136496   2.723   2.416   0.508 -1.0521 -0.0973 -0.1741
 4979TIP3    H236497   2.775   2.338   0.627  0.6308 -0.2196 -0.9660
 4980TIP3   OH236498   0.480   5.165   7.754 -0.4207  0.7276  0.2715
 4980TIP3    H136499   0.405   5.105   7.756 -0.7213  1.1031  0.5355
 4980TIP3    H236500   0.556   5.109   7.765 -0.7143  0.4115  0.7562
 4981TIP3   OH236501   2.964   1.155   0.625  0.2260 -0.4376 -0.2421
 4981TIP3    H136502   3.021   1.212   0.676 -0.5998 -0.2835  0.5328
 4981TIP3    H236503   2.999   1.160   0.536 -0.1795  1.7481 -0.3290
 4982TIP3   OH236504   3.981   5.280   0.042  0.1925  0.5319 -0.1450
 4982TIP3    H136505   3.990   5.375   0.051 -1.0764  0.6876 -0.3028
 4982TIP3    H236506   3.902   5.259   0.092 -0.4953 -0.1991 -1.4832
 4983TIP3   OH236507   1.106   3.475   1.804 -0.1778  0.2851 -0.2669
 4983TIP3    H136508   1.032   3.443   1.855  0.8879  0.8441  1.7271
 4983TIP3    H236509   1.183   3.441   1.849  0.8320 -0.2277 -2.2421
 4984TIP3   OH236510   3.779   2.045   0.625  0.1018 -0.3679 -0.4267
 4984TIP3    H136511   3.729   2.124   0.601 -1.4550 -1.0478  0.4582
 4984TIP3    H236512   3.781   2.047   0.720  1.5439 -0.5317 -0.4380
 4985TIP3   OH236513   4.230   3.611   7.471 -0.6781  0.1778  0.4892
 4985TIP3    H136514   4.274   3.630   7.388 -1.5682  0.5459  0.0848
 4985TIP3    H236515   4.221   3.697   7.514  1.9132 -0.2489  2.1180
 4986TIP3   OH236516   0.480   2.357   1.158  0.3448  0.7099 -1.1681
 4986TIP3    H136517   0.493   2.303   1.080 -1.2619  1.2525 -1.8515
 4986TIP3    H236518   0.526   2.438   1.139  0.3581  0.6589 -1.3538
 4987TIP3   OH236519   3.197   4.009   0.723  0.0620  0.0684 -0.2679
 4987TIP3    H136520   3.140   4.037   0.652  1.8708 -1.1159 -2.3017
 4987TIP3    H236521   3.168   3.920   0.744 -1.0233  0.7197  1.1445
 4988TIP3   OH236522   0.207   1.321   8.546  0.6500 -0.0372  0.0244
 4988TIP3    H136523   0.211   1.292   8.455  0.3642 -0.4713  0.1478
 4988TIP3    H236524   0.289   1.290   8.584  1.5031  1.4810 -0.4566
 4989TIP3   OH236525   3.957   6.839   8.333 -0.8636  0.5044 -0.1553
 4989TIP3    H136526   3.904   6.842   8.253 -0.4148  2.0275 -0.4229
 4989TIP3    H236527   3.898   6.803   8.399 -1.3111 -0.5666 -1.1074
 4990TIP3   OH236528   5.899   3.026   1.346 -0.1833 -0.5191 -0.8346
 4990TIP3    H136529   5.925   3.052   1.257  2.6299 -1.3062 -0.3170
 4990TIP3    H236530   5.944   3.088   1.403 -0.2056 -1.3662  0.1125
 4991TIP3   OH236531   1.326   2.754   8.262 -0.2737  0.2563  0.0187
 4991TIP3    H136532   1.393   2.792   8.319 -0.5677 -0.2812  0.7353
 4991TIP3    H236533   1.272   2.700   8.320 -0.3949 -0.5566 -0.8183
 4992TIP3   OH236534   2.428   4.669   0.660  0.2642  0.1373 -0.7161
 4992TIP3    H136535   2.490   4.734   0.629 -0.2734  1.9435  1.7198
 4992TIP3    H236536   2.477   4.616   0.722  0.0752 -0.2248 -0.8703
 4993TIP3   OH236537   2.705   2.389   0.247 -0.1092  0.2734 -0.4227
 4993TIP3    H136538   2.694   2.393   0.152 -0.5620  0.4970 -0.3652
 4993TIP3    H236539   2.772   2.322   0.261  0.3786  0.6519 -0.9230
 4994TIP3   OH236540   1.784   2.623   7.873 -0.2749 -0.1327 -0.2091
 4994TIP3    H136541   1.706   2.668   7.841  1.0850  1.8661 -0.9035
 4994TIP3    H236542   1.845   2.626   7.799  0.9455 -0.4046  0.7593
 4995TIP3   OH236543   5.447   4.319   6.791  0.1395 -0.8354 -0.5494
 4995TIP3    H136544   5.429   4.225   6.800 -1.2446 -0.5737 -0.3791
 4995TIP3    H236545   5.532   4.331   6.833 -0.7642 -1.6290  1.6511
 4996TIP3   OH236546   5.812   1.865   0.446  0.0047 -0.4799  0.6231
 4996TIP3    H136547   5.878   1.916   0.493 -0.0429  0.1948 -0.0248
 4996TIP3    H236548   5.854   1.839   0.364 -0.2833 -0.6993  0.5382
 4997TIP3   OH236549   6.031   0.003   1.337  0.0222 -0.3469  0.0535
 4997TIP3    H136550   6.008   0.028   1.426  0.0332 -1.6831  0.4619
 4997TIP3    H236551   6.052  -0.091   1.343  1.2689 -0.1757 -1.1174
 4998TIP3   OH236552   1.848   5.782   0.320 -0.1566 -0.1202  0.1983
 4998TIP3    H136553   1.787   5.721   0.278  1.4571 -0.4984 -1.7560
 4998TIP3    H236554   1.854   5.855   0.258  0.3767  0.5146  0.9821
 4999TIP3   OH236555   0.665   5.896   8.054  0.9921  0.4036  0.0042
 4999TIP3    H136556   0.726   5.878   7.982  1.9018 -0.6572  0.9941
 4999TIP3    H236557   0.635   5.809   8.082 -2.0722  0.9118 -1.3011
 5000TIP3   OH236558   6.056   0.335   2.615 -0.0044  0.1873 -0.1719
 5000TIP3    H136559   6.111   0.310   2.541  2.4587  0.5362  1.4192
 5000TIP3    H236560   6.002   0.257   2.633  2.0690 -1.2809 -0.0319
 5001TIP3   OH236561   2.286   4.193   7.776  0.3186 -0.0961 -0.6793
 5001TIP3    H136562   2.336   4.275   7.775  1.2083 -0.5390  1.3514
 5001TIP3    H236563   2.346   4.129   7.812 -0.8435 -1.3208 -0.8321
 5002TIP3   OH236564   1.195   5.969   2.819  0.2164  0.1013  0.8294
 5002TIP3    H136565   1.119   5.958   2.877  0.5862 -0.8848  1.1293
 5002TIP3    H236566   1.168   6.039   2.759 -0.9868 -0.3343  0.8349
 5003TIP3   OH236567   1.572   1.025   1.677 -0.5112 -0.2067  0.5159
 5003TIP3    H136568   1.635   1.005   1.746  1.2312  0.8405 -0.6953
 5003TIP3    H236569   1.619   1.008   1.596 -1.6081  1.1237 -0.4476
 5004TIP3   OH236570   4.048   1.732   8.461 -0.1265  0.1518 -0.0559
 5004TIP3    H136571   3.997   1.689   8.531  0.8958  0.6925  1.0493
 5004TIP3    H236572   4.118   1.669   8.441  0.7046  0.7921  0.7690
 5005TIP3   OH236573   4.896   3.761   1.361 -0.5134  0.3290  0.0580
 5005TIP3    H136574   4.898   3.741   1.455 -1.3158  0.3145  0.0771
 5005TIP3    H236575   4.833   3.832   1.353  1.5776  2.2743 -0.1281
 5006TIP3   OH236576   0.492   1.835   1.051  0.0187  0.7406 -0.1301
 5006TIP3    H136577   0.503   1.762   1.112 -1.0925  2.0203  1.7361
 5006TIP3    H236578   0.546   1.905   1.088 -1.3069  1.7964 -0.1157
 5007TIP3   OH236579   3.554   1.814   1.455 -0.1349  0.4143  0.5869
 5007TIP3    H136580   3.586   1.837   1.542  0.8826  0.7013  0.1499
 5007TIP3    H236581   3.465   1.782   1.470  0.1001  0.2649  1.7528
 5008TIP3   OH236582   3.055   3.563   7.067  0.3989  0.0066  0.2931
 5008TIP3    H136583   3.091   3.485   7.108  0.2956 -0.9402 -1.3562
 5008TIP3    H236584   3.068   3.550   6.974 -0.9758  1.2880 -0.1191
 5009TIP3   OH236585   0.001   2.718   1.342  0.1457  0.7091 -0.0595
 5009TIP3    H136586   0.038   2.751   1.424 -1.9286  0.3904  1.0976
 5009TIP3    H236587  -0.093   2.736   1.350 -0.5149 -1.8392 -1.1253
 5010TIP3   OH236588   2.010   1.840   8.261  0.7927 -0.1478  0.0316
 5010TIP3    H136589   2.016   1.934   8.246 -0.0879 -0.2220 -0.8256
 5010TIP3    H236590   2.055   1.800   8.187 -0.2283 -0.4280 -0.4543
 5011TIP3   OH236591   2.101   3.634   1.349  0.5702  0.1621  0.2736
 5011TIP3    H136592   2.023   3.586   1.377  0.5671  0.5103  0.8848
 5011TIP3    H236593   2.142   3.577   1.284 -0.8556  0.5332 -1.0050
 5012TIP3   OH236594   0.835   0.807   2.729 -0.0917 -0.0993  0.0356
 5012TIP3    H136595   0.776   0.850   2.791 -0.4916 -1.1139  0.3812
 5012TIP3    H236596   0.901   0.874   2.708  0.1112  0.2359  1.6241
 5013TIP3   OH236597   3.054   3.809   1.339 -0.0411  0.2574 -0.3730
 5013TIP3    H136598   3.017   3.843   1.421  2.7330 -2.9754  2.5224
 5013TIP3    H236599   3.134   3.860   1.326  0.2355 -0.1365 -0.2427
 5014TIP3   OH236600   2.484   5.537   7.067  0.5153 -0.1375 -0.1534
 5014TIP3    H136601   2.445   5.450   7.074  0.9682 -0.3636 -0.4394
 5014TIP3    H236602   2.413   5.596   7.094  0.0216 -0.5509 -0.5101
 5015TIP3   OH236603   5.862   0.191   6.877  0.1667  0.3019 -0.6334
 5015TIP3    H136604   5.922   0.122   6.847  0.0883 -0.1210  0.1684
 5015TIP3    H236605   5.775   0.151   6.868  0.1710 -0.0170  0.6193
 5016TIP3   OH236606   3.560   3.158   0.590  0.0467  0.3022 -0.1659
 5016TIP3    H136607   3.623   3.132   0.657 -1.4902  1.5282  1.8850
 5016TIP3    H236608   3.537   3.248   0.613 -0.8893  0.6064 -2.1047
 5017TIP3   OH236609   3.254   1.831   7.530 -0.1198  0.4156 -0.5449
 5017TIP3    H136610   3.313   1.810   7.603  0.6424 -0.3517 -1.3594
 5017TIP3    H236611   3.166   1.812   7.565  0.1688  0.7758  0.4136
 5018TIP3   OH236612   2.480   2.377   0.371  0.4943 -0.6423 -0.2078
 5018TIP3    H136613   2.564   2.399   0.329 -0.1259  2.4485 -0.0453
 5018TIP3    H236614   2.425   2.348   0.298  0.9912 -0.4176 -0.6866
 5019TIP3   OH236615   1.415   3.196   2.170 -0.1497  0.4708  0.1701
 5019TIP3    H136616   1.412   3.103   2.189 -1.7033  0.4227 -0.2257
 5019TIP3    H236617   1.497   3.208   2.122 -0.1762 -0.7657 -0.1993
 5020TIP3   OH236618   6.306   3.516   0.512 -0.1409  0.0108 -0.2100
 5020TIP3    H136619   6.328   3.436   0.560  0.3238 -1.8113 -3.2121
 5020TIP3    H236620   6.212   3.507   0.494  0.2983 -0.9499 -2.2662
 5021TIP3   OH236621   4.141   2.019   2.479  0.1031  0.6132 -0.3548
 5021TIP3    H136622   4.203   1.954   2.512 -1.9080 -1.3954 -0.2441
 5021TIP3    H236623   4.110   2.065   2.557  0.2971  0.5450 -0.2364
 5022TIP3   OH236624   4.084   3.583   1.112 -0.3130  0.2618 -0.5222
 5022TIP3    H136625   4.108   3.491   1.105 -1.6605 -0.1563  0.1868
 5022TIP3    H236626   4.066   3.597   1.205 -0.8654  1.0412 -0.7327
 5023TIP3   OH236627   4.169   0.102   2.349  0.1080  0.4032  0.2598
 5023TIP3    H136628   4.150   0.167   2.417 -0.5067  1.2085 -0.6400
 5023TIP3    H236629   4.157   0.018   2.392  0.8702  0.8761  1.4523
 5024TIP3   OH236630   4.015   3.550   7.320 -0.4135  0.0070 -0.4279
 5024TIP3    H136631   3.928   3.539   7.359 -0.0808  0.8093  0.5791
 5024TIP3    H236632   4.071   3.575   7.393  0.0586  2.4652 -1.5054
 5025TIP3   OH236633   4.464   5.155   2.073 -1.0020 -0.3581  0.1453
 5025TIP3    H136634   4.486   5.154   2.166 -3.1240  0.0448  0.6963
 5025TIP3    H236635   4.531   5.210   2.033  0.4022 -1.1872  1.2910
 5026TIP3   OH236636   3.996   2.857   2.120 -0.1359  0.5314  0.0834
 5026TIP3    H136637   3.926   2.820   2.173 -0.6113  1.3437  0.0434
 5026TIP3    H236638   4.000   2.949   2.146 -0.2938  0.9222 -1.1792
 5027TIP3   OH236639   1.292   5.875   7.641  0.0979  0.2296  0.7697
 5027TIP3    H136640   1.338   5.828   7.572 -0.9939 -1.9342  1.4399
 5027TIP3    H236641   1.350   5.871   7.717  0.1632  0.3345  0.7270
 5028TIP3   OH236642   0.045   0.009   1.062 -0.3798  0.3842 -0.3732
 5028TIP3    H136643  -0.009   0.070   1.112  1.5814  0.8419  1.3448
 5028TIP3    H236644  -0.004  -0.073   1.062 -1.4337  0.9929  0.4346
 5029TIP3   OH236645   0.696   0.699   2.220  0.5689 -0.4332 -0.3435
 5029TIP3    H136646   0.744   0.720   2.141 -0.5917 -1.2335 -1.2956
 5029TIP3    H236647   0.630   0.635   2.193 -2.2857  1.9120  0.4150
 5030TIP3   OH236648   6.386   0.404   1.600  0.1632 -0.3445  0.4183
 5030TIP3    H136649   6.301   0.360   1.600  0.9370 -1.9172  0.5964
 5030TIP3    H236650   6.423   0.383   1.514  1.3819 -1.8074  1.2449
 5031TIP3   OH236651   2.589   5.083   0.090 -0.4517  0.3744  0.1740
 5031TIP3    H136652   2.518   5.093   0.153 -0.9113 -0.0957 -0.2533
 5031TIP3    H236653   2.668   5.082   0.143 -0.7056  1.6115  0.5927
 5032TIP3   OH236654   2.029   2.077   1.680 -0.4089 -0.5341  0.1019
 5032TIP3    H136655   2.113   2.044   1.646  0.5239  0.2605  1.5455
 5032TIP3    H236656   2.039   2.172   1.680 -1.4576 -0.4180 -0.0242
 5033TIP3   OH236657   0.940   3.150   1.089  0.4147 -0.5217  0.6948
 5033TIP3    H136658   0.914   3.242   1.092 -0.0317 -0.5731 -0.7222
 5033TIP3    H236659   1.035   3.151   1.103  0.7490  0.3825 -1.2830
 5034TIP3   OH236660   6.098   3.281   0.228 -0.2401  0.1684  0.0737
 5034TIP3    H136661   6.119   3.307   0.318 -0.1355 -0.8650  0.3684
 5034TIP3    H236662   6.009   3.246   0.233  0.0314 -0.5603 -0.0718
 5035TIP3   OH236663   3.673   6.167   2.868  0.1372 -0.1221 -0.9127
 5035TIP3    H136664   3.722   6.121   2.800  1.4345  0.6715 -0.5546
 5035TIP3    H236665   3.695   6.122   2.949 -3.2623 -2.5943 -1.1707
 5036TIP3   OH236666   0.802   4.369   7.816  0.5357 -0.0112 -0.3864
 5036TIP3    H136667   0.818   4.284   7.858 -1.4310 -0.0302  0.4511
 5036TIP3    H236668   0.781   4.428   7.889 -0.8046  0.5116 -1.1670
 5037TIP3   OH236669   4.111   0.199   2.042 -0.1734  0.0847  0.1128
 5037TIP3    H136670   4.182   0.139   2.020  0.1516  0.4583  0.1265
 5037TIP3    H236671   4.102   0.256   1.965  0.6859  1.1241  0.7440
 5038TIP3   OH236672   0.835   0.450   2.402  0.0695 -0.1027 -0.0983
 5038TIP3    H136673   0.780   0.467   2.327 -0.0446 -2.3857 -0.6277
 5038TIP3    H236674   0.779   0.403   2.463  0.8835 -0.7574  0.1793
 5039TIP3   OH236675   3.890   2.844   7.928  0.1251 -0.1543 -0.2130
 5039TIP3    H136676   3.924   2.933   7.931 -1.7000  0.6053 -0.3674
 5039TIP3    H236677   3.865   2.830   7.837  0.3218 -0.7995 -0.1753
 5040TIP3   OH236678   0.316   3.911   1.741  0.0440  0.0132  0.0426
 5040TIP3    H136679   0.230   3.916   1.700 -0.7413  0.3201  1.6725
 5040TIP3    H236680   0.371   3.969   1.688 -1.1149  0.9505 -0.1787
 5041TIP3   OH236681   2.011   1.228   1.974  0.2176  0.5771 -0.3609
 5041TIP3    H136682   2.099   1.207   2.007 -0.4725 -0.9062  0.6828
 5041TIP3    H236683   1.988   1.309   2.018  1.4276  1.5364 -1.4141
 5042TIP3   OH236684   0.150   2.985   2.265  0.0532  0.1925 -0.4029
 5042TIP3    H136685   0.240   2.998   2.296 -0.4184  0.8842  0.7195
 5042TIP3    H236686   0.108   3.070   2.277 -0.3478  0.3193 -2.4037
 5043TIP3   OH236687   3.384   5.633   2.337 -0.7734 -0.2634 -0.3177
 5043TIP3    H136688   3.441   5.606   2.265 -1.0790 -2.7511  0.2770
 5043TIP3    H236689   3.433   5.611   2.416 -1.4347  0.1624  0.2221
 5044TIP3   OH236690   2.717   6.771   2.099 -0.5315 -0.1139 -0.3108
 5044TIP3    H136691   2.627   6.793   2.075 -1.1965  0.3067  2.3048
 5044TIP3    H236692   2.748   6.846   2.150  1.3275 -0.2721 -1.1063
 5045TIP3   OH236693   5.149   6.278   7.310  0.0368 -0.2407  0.5204
 5045TIP3    H136694   5.171   6.249   7.222  0.8628 -0.6535  0.8579
 5045TIP3    H236695   5.061   6.316   7.301  0.4337  0.4432 -0.6272
 5046TIP3   OH236696   5.854   0.972   0.046  0.3795 -0.0700  0.9510
 5046TIP3    H136697   5.781   1.025   0.077 -0.2151 -1.0917  1.3741
 5046TIP3    H236698   5.893   0.936   0.127  2.7075  2.1130  0.9198
 5047TIP3   OH236699   0.887   6.777   1.653  0.3361  0.6011  0.2494
 5047TIP3    H136700   0.948   6.825   1.708 -1.0157  1.7458  0.7906
 5047TIP3    H236701   0.943   6.732   1.589  1.7597  1.1895  1.0422
 5048TIP3   OH236702   5.281   6.091   0.305  0.2812  0.0276 -0.2371
 5048TIP3    H136703   5.283   6.089   0.401  0.2868  1.4554 -0.1879
 5048TIP3    H236704   5.367   6.123   0.280  0.6317 -1.2776 -0.7841
 5049TIP3   OH236705   1.659   1.732   7.807  0.1892  0.5463 -0.2062
 5049TIP3    H136706   1.743   1.697   7.779 -0.2256 -1.1764  0.6057
 5049TIP3    H236707   1.606   1.733   7.727  0.8126  1.2008 -0.6232
 5050TIP3   OH236708   1.708   0.355   2.823  0.0368  0.0135  0.6163
 5050TIP3    H136709   1.671   0.279   2.777  0.6473  1.4701 -2.5528
 5050TIP3    H236710   1.794   0.325   2.854  0.8938 -0.2789 -1.8545
 5051TIP3   OH236711   1.191   2.997   1.657  0.6234 -0.2137 -0.3460
 5051TIP3    H136712   1.233   2.915   1.685 -0.2574  0.2084  2.4131
 5051TIP3    H236713   1.102   2.972   1.634  0.6152 -0.1619 -0.3705
 5052TIP3   OH236714   5.986   4.065   1.703 -0.0991 -0.0554 -0.0501
 5052TIP3    H136715   5.974   4.142   1.648  1.3292 -0.7372 -1.3762
 5052TIP3    H236716   6.016   4.101   1.787  0.7584  0.8288 -0.7098
 5053TIP3   OH236717   2.474   4.163   8.697 -0.0489 -0.2658 -0.1412
 5053TIP3    H136718   2.442   4.073   8.704 -2.2826  0.4497 -0.3574
 5053TIP3    H236719   2.407   4.208   8.646  1.8627  1.1628 -1.5004
 5054TIP3   OH236720   6.167   2.516   8.117 -0.3787  0.5438 -0.0655
 5054TIP3    H136721   6.088   2.517   8.170 -0.1078 -0.0452  0.3549
 5054TIP3    H236722   6.158   2.438   8.063 -0.6263  1.1047 -0.8699
 5055TIP3   OH236723   0.884   3.914   0.869 -1.2118  0.6875 -0.4424
 5055TIP3    H136724   0.874   3.911   0.773 -3.2925  0.5198 -0.2693
 5055TIP3    H236725   0.801   3.951   0.900 -1.2796 -0.8475  1.3833
 5056TIP3   OH236726   3.831   6.582   2.047 -0.1778 -0.1776  0.7900
 5056TIP3    H136727   3.885   6.659   2.066 -0.1280  0.2274 -0.8686
 5056TIP3    H236728   3.874   6.510   2.092  0.7104  0.4703  0.9949
 5057TIP3   OH236729   6.828   5.105   8.065 -0.1452 -0.0884  0.1295
 5057TIP3    H136730   6.854   5.189   8.104  0.2343 -0.0125 -0.2713
 5057TIP3    H236731   6.887   5.095   7.990 -1.4172  0.2134 -0.9708
 5058TIP3   OH236732   1.801   2.984   7.985 -0.7190  0.0864  0.3294
 5058TIP3    H136733   1.879   2.949   7.943 -2.0030 -1.0075 -1.2714
 5058TIP3    H236734   1.769   3.051   7.925 -2.0571 -0.8383 -0.0581
 5059TIP3   OH236735   2.715   0.669   2.355  0.3420  0.1436  0.7126
 5059TIP3    H136736   2.685   0.635   2.271  0.9213  0.7541  0.2517
 5059TIP3    H236737   2.810   0.672   2.347  0.3049  2.0132  0.6773
 5060TIP3   OH236738   6.797   6.744   0.446 -0.5752  0.4589 -0.3392
 5060TIP3    H136739   6.771   6.818   0.390  0.8387  0.2164 -1.3766
 5060TIP3    H236740   6.795   6.668   0.387 -0.3498 -0.0441  0.2901
 5061TIP3   OH236741   1.387   5.405   8.163 -0.4472  0.6774 -0.6214
 5061TIP3    H136742   1.358   5.325   8.208 -0.1317  0.8347 -0.1410
 5061TIP3    H236743   1.459   5.376   8.107 -1.9922  0.1242 -2.4217
 5062TIP3   OH236744   3.007   3.522   1.280 -0.0351  0.7577 -0.0903
 5062TIP3    H136745   3.034   3.438   1.317 -0.3517 -0.1480 -1.7713
 5062TIP3    H236746   3.057   3.587   1.328  0.3595 -0.4014  1.1370
 5063TIP3   OH236747   4.086   4.950   0.668 -0.6818 -0.0841  0.1315
 5063TIP3    H136748   4.027   5.006   0.719  0.3209  1.0600  0.0826
 5063TIP3    H236749   4.036   4.869   0.654 -2.4320  1.0207 -0.3493
 5064TIP3   OH236750   6.300   1.770   6.905 -0.0228  0.0486  0.0238
 5064TIP3    H136751   6.311   1.680   6.876 -0.4759  0.1748 -0.5565
 5064TIP3    H236752   6.366   1.820   6.857  0.3314  0.0077  0.4601
 5065TIP3   OH236753   6.649   6.725   1.936  0.7136 -0.1370  0.2376
 5065TIP3    H136754   6.723   6.738   1.996 -0.1870 -0.6179  1.5088
 5065TIP3    H236755   6.682   6.667   1.868  1.6388  0.0304  0.5371
 5066TIP3   OH236756   4.598   5.540   0.652  0.2240  0.6379  0.1851
 5066TIP3    H136757   4.657   5.465   0.648  2.2002  2.1523 -0.5862
 5066TIP3    H236758   4.647   5.611   0.611 -1.6962  2.2933  0.6141
 5067TIP3   OH236759   1.948   3.535   1.946 -0.0506  0.3528 -0.4070
 5067TIP3    H136760   1.926   3.628   1.937  0.6621  0.4959 -0.6977
 5067TIP3    H236761   1.863   3.490   1.947 -0.5012  1.1380  1.3742
 5068TIP3   OH236762   6.730   1.875   1.957  0.1100 -0.4788  0.1770
 5068TIP3    H136763   6.685   1.949   1.998  0.0697 -1.0148  1.1186
 5068TIP3    H236764   6.719   1.803   2.019  2.1435 -0.6740  0.3671
 5069TIP3   OH236765   6.035   5.562   2.017 -0.2150  0.0606 -0.4570
 5069TIP3    H136766   6.101   5.534   1.954 -0.4721  0.0556 -0.7273
 5069TIP3    H236767   5.952   5.530   1.981 -0.3992  0.3292 -0.2777
 5070TIP3   OH236768   3.382   5.197   2.434  0.1866 -0.3521 -0.2787
 5070TIP3    H136769   3.393   5.106   2.407 -0.2862 -0.7414  0.7861
 5070TIP3    H236770   3.418   5.200   2.523 -0.3224  0.3721 -0.0898
 5071TIP3   OH236771   0.789   0.894   7.691  0.8362  0.7327 -0.2619
 5071TIP3    H136772   0.788   0.937   7.606  0.2545  1.3629  0.0479
 5071TIP3    H236773   0.839   0.814   7.677 -0.5605  0.0460 -1.5838
 5072TIP3   OH236774   1.059   1.915   1.696  0.4055 -0.1796  0.8842
 5072TIP3    H136775   0.970   1.885   1.685  0.2967 -0.1474  1.6330
 5072TIP3    H236776   1.083   1.889   1.785  1.2893 -0.5636  0.5503
 5073TIP3   OH236777   6.580   3.401   2.742 -0.1649  0.3539 -0.4435
 5073TIP3    H136778   6.658   3.346   2.742  0.2615  0.9089  1.0782
 5073TIP3    H236779   6.614   3.490   2.747 -0.8978  0.6592 -0.7201
 5074TIP3   OH236780   6.034   4.349   8.332  0.1660 -0.3885  0.2745
 5074TIP3    H136781   5.954   4.373   8.286  0.3762  0.9226  0.5298
 5074TIP3    H236782   6.101   4.409   8.297  1.0092 -1.3815  0.1469
 5075TIP3   OH236783   0.883   6.714   0.990  0.4174 -0.0366  0.0987
 5075TIP3    H136784   0.976   6.733   0.973  0.3665  0.3802  0.2539
 5075TIP3    H236785   0.844   6.703   0.903  0.6050 -0.1788  0.0314
 5076TIP3   OH236786   6.291   3.369   0.048 -0.1583 -0.2839 -0.0143
 5076TIP3    H136787   6.239   3.358   0.128 -0.1283 -1.7132 -0.1598
 5076TIP3    H236788   6.381   3.377   0.079 -0.2649  0.3671  0.1459
 5077TIP3   OH236789   5.723   2.088   1.838  0.3927 -0.4434  0.2572
 5077TIP3    H136790   5.750   2.111   1.927  1.9017 -0.7350 -0.0927
 5077TIP3    H236791   5.670   2.162   1.809  0.0410 -0.2583  1.3123
 5078TIP3   OH236792   5.308   4.170   0.215 -0.3744 -0.1832 -0.0235
 5078TIP3    H136793   5.224   4.124   0.206 -0.7372  0.1632  1.4790
 5078TIP3    H236794   5.293   4.238   0.280  1.2034 -0.4491  0.6841
 5079TIP3   OH236795   1.479   4.326   1.187  0.3850 -0.3089  0.6399
 5079TIP3    H136796   1.558   4.313   1.134  1.4299  2.5092  1.3234
 5079TIP3    H236797   1.422   4.380   1.133 -0.0377 -0.3194  1.0700
 5080TIP3   OH236798   3.265   1.118   8.595 -0.1719  0.1701 -0.6359
 5080TIP3    H136799   3.344   1.142   8.643 -1.0569  0.5535  0.6970
 5080TIP3    H236800   3.274   1.161   8.510  1.8094 -1.1847 -1.1818
 5081TIP3   OH236801   0.312   1.294   1.878  0.1172 -0.2427 -0.2374
 5081TIP3    H136802   0.330   1.388   1.885 -0.3828 -0.1510 -0.0945
 5081TIP3    H236803   0.394   1.251   1.901 -0.0538  0.1381  1.2281
 5082TIP3   OH236804   1.787   3.557   0.455 -0.1467  0.3555 -0.7013
 5082TIP3    H136805   1.824   3.481   0.499 -0.8816 -0.4383 -1.3979
 5082TIP3    H236806   1.851   3.579   0.387  0.9530  1.5403  0.6594
 5083TIP3   OH236807   2.683   4.107   8.507 -0.4630  0.5252  0.0519
 5083TIP3    H136808   2.754   4.069   8.559  1.2903  2.0958 -1.0382
 5083TIP3    H236809   2.613   4.123   8.570  0.3421 -0.5679  1.2862
 5084TIP3   OH236810   6.694   4.543   8.395  0.9603 -0.3258  0.4782
 5084TIP3    H136811   6.652   4.538   8.309  1.4641 -3.3598  0.3227
 5084TIP3    H236812   6.748   4.464   8.400  2.5255  0.7984  2.8013
 5085TIP3   OH236813   1.611   6.179   1.159 -0.7778  0.2409 -0.4157
 5085TIP3    H136814   1.675   6.248   1.139 -3.0677  3.1309  1.4331
 5085TIP3    H236815   1.559   6.172   1.079 -0.1691  0.2216 -0.8184
 5086TIP3   OH236816   2.260   1.767   3.266  0.0967  0.3069 -0.3317
 5086TIP3    H136817   2.219   1.828   3.204 -2.0866  0.8424  1.5193
 5086TIP3    H236818   2.263   1.684   3.219 -0.6339  0.9131 -1.5071
 5087TIP3   OH236819   4.698   5.133   2.525 -0.9469  0.5024 -0.3477
 5087TIP3    H136820   4.630   5.161   2.586 -1.0523  1.2150 -0.7880
 5087TIP3    H236821   4.656   5.133   2.440 -0.1794  1.8036 -0.7565
 5088TIP3   OH236822   1.127   2.165   0.175  0.0629  0.3402  0.3837
 5088TIP3    H136823   1.040   2.199   0.156  0.7650  1.5464 -0.8117
 5088TIP3    H236824   1.156   2.125   0.094  0.6097 -0.1052  0.7862
 5089TIP3   OH236825   2.411   3.190   0.348  0.5148  0.0603 -0.1072
 5089TIP3    H136826   2.505   3.180   0.339  1.0591  3.0377  1.0363
 5089TIP3    H236827   2.399   3.280   0.377 -2.5900 -0.6829  1.4109
 5090TIP3   OH236828   5.746   3.262   0.162 -0.1257  0.0708  0.2438
 5090TIP3    H136829   5.744   3.298   0.250 -0.8188 -0.5374  0.4836
 5090TIP3    H236830   5.779   3.173   0.173  1.9225  0.6851 -0.3862
 5091TIP3   OH236831   4.564   6.501   0.860 -0.1733  0.3042 -0.0897
 5091TIP3    H136832   4.469   6.505   0.845 -0.6175 -1.2601  1.8947
 5091TIP3    H236833   4.594   6.590   0.848 -1.9868  0.9358 -0.2759
 5092TIP3   OH236834   0.687   6.017   0.845  0.2758 -0.0177  0.4354
 5092TIP3    H136835   0.747   6.057   0.781 -0.9991  0.3648 -0.5789
 5092TIP3    H236836   0.662   6.089   0.903 -2.3649  0.9482 -1.6562
 5093TIP3   OH236837   6.334   1.407   7.002  0.6168  0.4632 -0.0447
 5093TIP3    H136838   6.267   1.444   6.945 -0.7861 -1.1265  0.5195
 5093TIP3    H236839   6.411   1.397   6.945 -1.1382 -2.4546 -2.1896
 5094TIP3   OH236840   3.153   1.502   2.238  0.2283 -0.0268 -0.2819
 5094TIP3    H136841   3.172   1.571   2.301 -0.1451  1.0642 -1.3413
 5094TIP3    H236842   3.134   1.425   2.293 -1.4263  1.2106  0.9884
 5095TIP3   OH236843   2.784   4.643   2.201 -0.1674  0.4471 -0.3097
 5095TIP3    H136844   2.730   4.607   2.130 -0.6084  2.6283 -1.1671
 5095TIP3    H236845   2.728   4.708   2.243  0.3076 -0.3662  1.6971
 5096TIP3   OH236846   1.719   3.434   3.189 -0.3142 -0.3646  0.4175
 5096TIP3    H136847   1.723   3.348   3.147  0.8846  0.4985 -1.4076
 5096TIP3    H236848   1.701   3.416   3.281 -0.4326 -2.5352  0.0107
 5097TIP3   OH236849   2.401   1.985   2.294  0.1359 -0.3116  0.5432
 5097TIP3    H136850   2.308   2.006   2.287  0.0498 -1.2582 -2.6443
 5097TIP3    H236851   2.409   1.941   2.379 -1.7878  1.9603  2.0358
 5098TIP3   OH236852   4.406   0.427   1.719  0.0551 -0.6221  0.3946
 5098TIP3    H136853   4.464   0.354   1.695  0.0034 -0.3674 -0.5511
 5098TIP3    H236854   4.330   0.384   1.759 -0.1252 -1.1308 -0.4523
 5099TIP3   OH236855   4.446   0.050   0.298 -0.5719 -0.1751 -0.7976
 5099TIP3    H136856   4.491   0.004   0.369  1.2284  2.1704 -0.2844
 5099TIP3    H236857   4.359   0.069   0.334  1.3197  3.9947  2.4793
 5100TIP3   OH236858   4.930   4.423   0.756 -0.1580 -0.1018 -0.0905
 5100TIP3    H136859   4.928   4.341   0.706  1.8074 -0.6914  0.7177
 5100TIP3    H236860   5.018   4.427   0.791 -0.6956  1.6277  1.1553
 5101TIP3   OH236861   1.457   0.930   7.578  0.0906  0.1049 -0.4214
 5101TIP3    H136862   1.467   0.874   7.502  1.2993 -1.1853  0.6384
 5101TIP3    H236863   1.540   0.978   7.585  0.9194 -1.4625  1.3230
 5102TIP3   OH236864   0.486   4.966   1.479  0.0274 -0.0896 -0.3584
 5102TIP3    H136865   0.565   4.967   1.425  0.2045 -0.9960 -0.1217
 5102TIP3    H236866   0.434   5.040   1.446  0.5300 -0.0858 -1.1678
 5103TIP3   OH236867   5.741   2.043   1.268 -0.3750 -0.5643 -0.5410
 5103TIP3    H136868   5.831   2.063   1.241 -0.2351 -0.3605  0.0719
 5103TIP3    H236869   5.725   2.100   1.343  0.4832 -3.5280  2.1195
 5104TIP3   OH236870   2.836   5.346   8.417 -0.4732 -0.0942 -0.4877
 5104TIP3    H136871   2.781   5.379   8.346 -0.9603 -1.8275 -0.9718
 5104TIP3    H236872   2.773   5.318   8.484 -0.0545  0.5183  0.1732
 5105TIP3   OH236873   2.845   6.717   6.964  0.1484  0.4330 -0.8743
 5105TIP3    H136874   2.800   6.633   6.959 -0.5629  0.6827  0.6418
 5105TIP3    H236875   2.925   6.699   7.013 -0.3379  0.7462  0.0567
 5106TIP3   OH236876   0.794   2.003   2.354 -0.4549 -0.3930  0.0626
 5106TIP3    H136877   0.813   1.991   2.261  1.6523  1.9102  0.1034
 5106TIP3    H236878   0.878   2.021   2.395 -1.5731  0.6602  2.0856
 5107TIP3   OH236879   4.348   2.641   1.098  0.5908  0.0084  1.0659
 5107TIP3    H136880   4.397   2.561   1.080  0.7661  0.5465 -1.1245
 5107TIP3    H236881   4.366   2.698   1.023  0.4604  2.1188  2.5442
 5108TIP3   OH236882   0.600   4.138   2.070 -0.3909 -0.1149  0.3173
 5108TIP3    H136883   0.539   4.161   1.999  0.2095 -0.8856 -0.4724
 5108TIP3    H236884   0.677   4.193   2.054 -1.1120  1.4034  1.7462
 5109TIP3   OH236885   4.364   1.677   7.927 -0.7641 -0.1598  0.0278
 5109TIP3    H136886   4.433   1.673   7.860 -0.9170  0.6302 -0.1903
 5109TIP3    H236887   4.306   1.748   7.897 -2.2876 -1.5088 -0.3638
 5110TIP3   OH236888   5.559   5.847   7.627  0.2552  0.1123 -0.0005
 5110TIP3    H136889   5.631   5.878   7.682 -0.7044 -0.6423  1.7993
 5110TIP3    H236890   5.482   5.855   7.684 -0.8401 -0.4519 -1.3663
 5111TIP3   OH236891   3.832   4.330   0.675 -0.0083  0.2262 -0.6819
 5111TIP3    H136892   3.789   4.375   0.603 -2.2965  0.9737  1.0221
 5111TIP3    H236893   3.839   4.396   0.744  0.6882 -0.8581  0.3212
 5112TIP3   OH236894   1.832   0.173   8.132 -0.0812  0.5219 -0.2438
 5112TIP3    H136895   1.868   0.208   8.214 -3.2866  0.6467  1.2363
 5112TIP3    H236896   1.874   0.226   8.064  3.6901 -0.4444  1.0726
 5113TIP3   OH236897   4.791   5.848   8.298 -0.1352  0.1249  0.5049
 5113TIP3    H136898   4.769   5.765   8.339 -2.7268  0.4259 -0.0886
 5113TIP3    H236899   4.854   5.825   8.230 -1.0338 -1.4104  0.1411
 5114TIP3   OH236900   5.001   0.514   6.979  0.3109 -0.1212 -0.0055
 5114TIP3    H136901   4.933   0.526   6.912 -0.5600  0.7602  1.0033
 5114TIP3    H236902   4.973   0.437   7.028  0.5350 -0.2955 -0.1448
 5115TIP3   OH236903   5.908   6.040   0.464 -0.2889 -0.0630 -0.4209
 5115TIP3    H136904   5.951   6.078   0.541  0.4141 -1.8557  0.1146
 5115TIP3    H236905   5.894   6.114   0.405 -0.5569  1.3076  1.2816
 5116TIP3   OH236906   1.220   3.344   2.306  0.3210  0.0645  0.4890
 5116TIP3    H136907   1.283   3.288   2.262 -1.5794 -0.5680 -1.6032
 5116TIP3    H236908   1.215   3.423   2.252 -0.4384  0.2219  0.7670
 5117TIP3   OH236909   5.309   2.432   8.632  0.6435  0.2789 -0.1726
 5117TIP3    H136910   5.224   2.474   8.623 -0.5051 -1.5728  1.2268
 5117TIP3    H236911   5.294   2.359   8.692  3.2264 -0.1368  0.1163
 5118TIP3   OH236912   5.611   6.358   0.496 -0.5987 -0.1311 -0.7459
 5118TIP3    H136913   5.654   6.417   0.557 -0.2641 -1.3789  0.2444
 5118TIP3    H236914   5.592   6.279   0.546 -2.9064 -0.1401 -1.4726
 5119TIP3   OH236915   3.268   0.214   7.967  0.5700 -0.3166  0.4908
 5119TIP3    H136916   3.202   0.255   7.910  0.4415 -0.4006  0.5796
 5119TIP3    H236917   3.222   0.198   8.049  0.1560 -2.0944 -0.0530
 5120TIP3   OH236918   3.835   5.635   7.945  0.4599 -0.0250 -0.5318
 5120TIP3    H136919   3.894   5.672   8.010 -0.8054 -0.2156  0.7776
 5120TIP3    H236920   3.780   5.574   7.994 -1.9035  1.3109 -1.3114
 5121TIP3   OH236921   6.065   1.521   7.833 -0.2345 -0.0691  0.0800
 5121TIP3    H136922   5.996   1.524   7.900 -1.8125 -2.5288 -1.2892
 5121TIP3    H236923   6.107   1.436   7.846 -0.6871 -0.6800 -2.0812
 5122TIP3   OH236924   5.713   4.221   6.589  0.1008  0.2149  0.0096
 5122TIP3    H136925   5.774   4.152   6.615 -0.9611 -0.2147  1.4907
 5122TIP3    H236926   5.766   4.283   6.538  1.0520 -1.7425 -1.5056
 5123TIP3   OH236927   4.543   5.925   0.703  0.6457 -0.2019  0.3611
 5123TIP3    H136928   4.555   5.843   0.751 -2.0582 -0.5285  0.6511
 5123TIP3    H236929   4.481   5.903   0.633  1.5338  1.1360 -0.8914
 5124TIP3   OH236930   1.875   3.455   1.475 -0.2816  0.8120  0.3092
 5124TIP3    H136931   1.824   3.375   1.459 -1.0482  1.5433 -1.0306
 5124TIP3    H236932   1.811   3.520   1.501  0.2173  1.2640  0.4228
 5125TIP3   OH236933   0.667   2.161   1.397  0.3853  0.4450  0.0450
 5125TIP3    H136934   0.733   2.219   1.434  0.7283  0.0921 -0.0053
 5125TIP3    H236935   0.687   2.075   1.434  1.0957 -0.0343 -1.3707
 5126TIP3   OH236936   1.850   2.409   3.043 -0.0785 -0.0652 -0.4247
 5126TIP3    H136937   1.904   2.487   3.031 -1.3419  0.9165  0.0662
 5126TIP3    H236938   1.888   2.365   3.118 -1.3597  1.9048  1.4949
 5127TIP3   OH236939   3.101   3.582   0.443  0.3208 -0.0202 -0.5566
 5127TIP3    H136940   3.181   3.602   0.492 -0.2434 -0.8052  0.7194
 5127TIP3    H236941   3.107   3.488   0.425 -1.3807 -0.6453  1.6593
 5128TIP3   OH236942   1.189   6.496   7.990 -0.1061 -0.3808  0.0912
 5128TIP3    H136943   1.279   6.529   7.984  0.3639 -1.7734 -1.5600
 5128TIP3    H236944   1.136   6.564   7.949 -0.1171  1.2697  2.6463
 5129TIP3   OH236945   6.615   4.202   1.876  0.0300  0.5413  0.0571
 5129TIP3    H136946   6.698   4.179   1.918  0.0398  2.9412  1.5025
 5129TIP3    H236947   6.636   4.279   1.823 -1.2348  1.1221  0.3754
 5130TIP3   OH236948   1.162   6.079   1.128  0.1352  0.4859  0.1397
 5130TIP3    H136949   1.124   6.113   1.047 -2.8580 -1.0669  0.7264
 5130TIP3    H236950   1.205   5.998   1.103  0.8703  0.9665 -0.1638
 5131TIP3   OH236951   5.539   6.261   0.232  0.1665  0.0770 -0.0200
 5131TIP3    H136952   5.569   6.304   0.313 -2.2974  1.0190  0.4886
 5131TIP3    H236953   5.577   6.174   0.235 -1.0032 -0.4450  2.9606
 5132TIP3   OH236954   3.479   4.726   8.044  0.0595  0.5656  0.0293
 5132TIP3    H136955   3.393   4.728   8.001  0.3310  0.1704 -0.5429
 5132TIP3    H236956   3.477   4.802   8.102 -2.4941 -1.9342  3.6497
 5133TIP3   OH236957   0.313   0.998   0.771  0.3141 -0.4777 -0.4441
 5133TIP3    H136958   0.403   0.972   0.750  1.4397  2.0478  0.8450
 5133TIP3    H236959   0.318   1.035   0.859 -2.0413 -0.3140 -0.2991
 5134TIP3   OH236960   6.685   0.976   1.320 -1.0704  0.0448 -0.2043
 5134TIP3    H136961   6.772   0.935   1.317 -0.9033  0.3215  0.4739
 5134TIP3    H236962   6.633   0.928   1.257 -0.0686  0.6964 -1.5673
 5135TIP3   OH236963   1.048   4.434   7.729  0.5389  0.4488  0.3959
 5135TIP3    H136964   0.962   4.406   7.762  0.8355 -1.0083  0.0074
 5135TIP3    H236965   1.028   4.482   7.649  0.1023 -0.6803 -0.2042
 5136TIP3   OH236966   1.924   6.155   7.613  0.7381 -0.4019 -0.0667
 5136TIP3    H136967   1.849   6.111   7.572 -2.6292  1.4947  3.4198
 5136TIP3    H236968   1.951   6.097   7.684  0.6265  0.2235  0.4949
 5137TIP3   OH236969   5.335   1.897   8.309 -0.4100  0.4968 -0.5410
 5137TIP3    H136970   5.257   1.952   8.316 -0.6150  0.4672 -2.2473
 5137TIP3    H236971   5.306   1.810   8.338 -0.5282  0.8761  0.5211
 5138TIP3   OH236972   3.274   1.841   0.900 -0.1437 -0.1095 -0.0740
 5138TIP3    H136973   3.187   1.803   0.913  0.0663 -0.3873  0.5754
 5138TIP3    H236974   3.258   1.919   0.847 -0.8134 -0.0755  0.1628
 5139TIP3   OH236975   6.005   5.180   2.228  1.0617  0.3567  0.1314
 5139TIP3    H136976   6.007   5.153   2.136  1.1614  2.5028 -0.5545
 5139TIP3    H236977   5.949   5.115   2.270 -0.1448  0.0952 -1.7327
 5140TIP3   OH236978   1.000   6.513   1.584  0.8635 -0.0161  0.2968
 5140TIP3    H136979   0.992   6.437   1.642  1.4656  0.8186  1.5356
 5140TIP3    H236980   1.059   6.484   1.515 -0.3963 -1.2500 -0.3066
 5141TIP3   OH236981   2.853   0.968   0.802 -0.4085  0.1861 -0.7550
 5141TIP3    H136982   2.883   1.054   0.772 -1.0489  0.4595 -0.6304
 5141TIP3    H236983   2.816   0.984   0.889  1.4706 -0.6164  0.2300
 5142TIP3   OH236984   1.893   0.575   0.472 -0.1432  0.0796 -0.8529
 5142TIP3    H136985   1.825   0.610   0.414 -1.4669 -1.5267 -0.3485
 5142TIP3    H236986   1.964   0.551   0.412 -0.6025  0.4270 -1.5609
 5143TIP3   OH236987   3.801   1.385   1.725 -0.0759 -0.4631 -0.6141
 5143TIP3    H136988   3.885   1.430   1.716 -0.3020  0.1393  0.2028
 5143TIP3    H236989   3.801   1.321   1.653  0.1310  1.0220 -2.0039
 5144TIP3   OH236990   3.990   1.989   8.342  0.2560 -0.0011  0.5247
 5144TIP3    H136991   3.987   1.925   8.413  2.0832 -0.2390  0.4334
 5144TIP3    H236992   3.978   2.074   8.386  2.2991 -0.0569  1.3165
 5145TIP3   OH236993   1.982   2.137   2.952 -0.3903  0.1406 -0.1576
 5145TIP3    H136994   1.924   2.121   3.026  0.9765  0.0009  0.9347
 5145TIP3    H236995   1.949   2.080   2.883 -0.4162 -1.4134  1.0668
 5146TIP3   OH236996   1.868   0.781   8.524  0.3254  0.1276  0.4560
 5146TIP3    H136997   1.891   0.732   8.445 -1.0591  0.7915 -0.4018
 5146TIP3    H236998   1.933   0.851   8.528 -0.3283  0.8519 -0.8456
 5147TIP3   OH236999   0.690   5.005   7.815 -0.2410 -0.0243 -0.8092
 5147TIP3    H137000   0.778   5.039   7.798  0.1609 -0.5371  0.2170
 5147TIP3    H237001   0.703   4.925   7.865 -1.3367  1.0997  1.4615
 5148TIP3   OH237002   2.972   1.783   8.683  0.3515  0.2009 -0.2537
 5148TIP3    H137003   3.061   1.754   8.667  0.6161  0.4657  0.6423
 5148TIP3    H237004   2.918   1.704   8.672  0.7836 -0.1152 -0.1296
 5149TIP3   OH237005   2.262   0.332   0.134 -0.2376  0.0527  0.3102
 5149TIP3    H137006   2.235   0.377   0.214  0.0295  1.7479 -0.5056
 5149TIP3    H237007   2.181   0.323   0.083 -0.1907  0.2266  0.2005
 5150TIP3   OH237008   6.639   0.594   7.500 -0.2045  0.2698  0.4391
 5150TIP3    H137009   6.571   0.564   7.561  0.3480  0.2519  1.0588
 5150TIP3    H237010   6.650   0.687   7.521 -0.6098  0.4690 -0.2153
 5151TIP3   OH237011   0.566   1.860   2.400  0.5493  0.0046 -0.0757
 5151TIP3    H137012   0.635   1.916   2.365  0.2048 -0.8131 -2.1915
 5151TIP3    H237013   0.597   1.836   2.487  2.7068  0.0406 -0.7726
 5152TIP3   OH237014   2.909   6.434   7.636  0.5953 -0.0929  0.6034
 5152TIP3    H137015   2.969   6.494   7.592 -1.7990  1.1281 -1.2752
 5152TIP3    H237016   2.965   6.380   7.691  3.3618  1.0338 -0.8881
 5153TIP3   OH237017   0.263   2.426   2.207 -0.4464  0.1382 -0.2185
 5153TIP3    H137018   0.355   2.430   2.235 -1.2264 -2.6665  3.5491
 5153TIP3    H237019   0.261   2.358   2.140  0.2318  0.3767 -0.4914
 5154TIP3   OH237020   1.871   2.824   8.333  0.0644 -0.4442 -0.2285
 5154TIP3    H137021   1.860   2.843   8.426 -0.3305  0.0333 -0.3707
 5154TIP3    H237022   1.869   2.728   8.327  1.3566 -0.5196  0.4061
 5155TIP3   OH237023   0.016   5.209   0.869 -0.1408 -0.5479 -0.2572
 5155TIP3    H137024   0.002   5.117   0.891 -0.1918 -0.3576  0.5408
 5155TIP3    H237025  -0.048   5.256   0.922 -0.8481 -0.1115 -1.4511
 5156TIP3   OH237026   1.465   0.929   6.670  0.0753 -0.0494  0.7993
 5156TIP3    H137027   1.546   0.981   6.665  0.3564 -0.4937  0.6188
 5156TIP3    H237028   1.491   0.842   6.639 -0.7963  0.1809 -0.6551
 5157TIP3   OH237029   5.770   5.487   0.812  0.0317 -0.1154 -0.1056
 5157TIP3    H137030   5.696   5.473   0.871  0.0398 -0.4088 -0.1639
 5157TIP3    H237031   5.764   5.580   0.788 -0.3191 -0.1371 -0.1145
 5158TIP3   OH237032   2.840   0.272   8.250  0.5585  0.1125 -1.1888
 5158TIP3    H137033   2.776   0.334   8.217 -2.4576 -1.5812  0.9653
 5158TIP3    H237034   2.906   0.326   8.294 -2.0015  1.9161  0.7368
 5159TIP3   OH237035   0.949   1.530   1.607  0.2099  0.6120  0.3464
 5159TIP3    H137036   1.024   1.499   1.557 -0.7931 -0.2816 -0.6704
 5159TIP3    H237037   0.881   1.544   1.541 -1.2669 -0.9172  1.4472
 5160TIP3   OH237038   5.518   3.987   0.290  0.5925  0.2859 -0.1290
 5160TIP3    H137039   5.460   4.063   0.287 -1.5403 -1.2149  0.0623
 5160TIP3    H237040   5.504   3.950   0.377 -0.1477 -1.5186 -0.9553
 5161TIP3   OH237041   6.569   3.847   7.581 -0.0186  0.0080 -0.9870
 5161TIP3    H137042   6.476   3.854   7.558 -0.1155 -0.0345 -0.6120
 5161TIP3    H237043   6.611   3.812   7.502 -0.2380  0.5276 -1.3410
 5162TIP3   OH237044   6.340   5.060   2.119  0.3293  0.2735 -0.1417
 5162TIP3    H137045   6.276   5.084   2.052 -0.8388 -0.4186  0.6759
 5162TIP3    H237046   6.313   4.973   2.148  1.8261 -0.1562  0.0516
 5163TIP3   OH237047   5.077   6.110   0.932 -0.3695  0.0815 -0.1673
 5163TIP3    H137048   5.139   6.080   0.999 -0.3366 -0.1377 -0.2926
 5163TIP3    H237049   5.011   6.041   0.927 -1.0681  0.6918  0.5273
 5164TIP3   OH237050   0.499   3.207   2.024 -0.2233 -0.3878  0.0767
 5164TIP3    H137051   0.405   3.223   2.035 -0.3336 -1.3613  0.6712
 5164TIP3    H237052   0.516   3.130   2.078  0.7655 -0.6874 -0.6439
 5165TIP3   OH237053   1.132   1.132   1.200  0.1417 -0.5996 -0.1300
 5165TIP3    H137054   1.048   1.160   1.164  0.7698 -1.1530 -2.1225
 5165TIP3    H237055   1.175   1.086   1.128  1.2243 -2.3033  1.5168
 5166TIP3   OH237056   6.027   0.593   1.283 -0.6256  0.3409  0.1769
 5166TIP3    H137057   5.985   0.578   1.368  0.5320 -1.2110  0.4993
 5166TIP3    H237058   5.980   0.535   1.223 -0.5359  0.4179  0.0339
 5167TIP3   OH237059   5.434   3.058   1.917 -0.8249 -0.0583 -0.1319
 5167TIP3    H137060   5.446   3.142   1.961 -1.4747 -0.2862  0.4860
 5167TIP3    H237061   5.477   2.995   1.974 -1.2670 -0.2944 -0.0643
 5168TIP3   OH237062   1.458   4.664   3.208  0.0445  0.2504  0.1097
 5168TIP3    H137063   1.527   4.620   3.158  1.5645  0.8599  1.5469
 5168TIP3    H237064   1.400   4.594   3.236 -0.8239 -0.1101 -2.3639
 5169TIP3   OH237065   4.948   1.546   0.265  0.0221 -0.6929  0.0699
 5169TIP3    H137066   4.960   1.576   0.355 -2.2094  1.3693 -0.2418
 5169TIP3    H237067   4.957   1.624   0.212 -2.7265 -1.0646 -1.0939
 5170TIP3   OH237068   1.797   5.893   1.107  1.0982  0.2272 -0.1570
 5170TIP3    H137069   1.741   5.908   1.182  0.7028 -1.2854 -0.1197
 5170TIP3    H237070   1.737   5.872   1.035  1.5265 -3.2336  0.2993
 5171TIP3   OH237071   3.625   6.827   1.620 -0.5110  0.2456  0.2989
 5171TIP3    H137072   3.640   6.833   1.525  0.0858  2.4705  0.4745
 5171TIP3    H237073   3.699   6.775   1.652 -0.8922 -0.8064 -0.4715
 5172TIP3   OH237074   3.173   4.829   8.211 -0.2539 -0.0626 -0.0936
 5172TIP3    H137075   3.173   4.869   8.125  0.0289  1.9563  0.7998
 5172TIP3    H237076   3.114   4.884   8.263 -0.5419 -1.3293  0.9709
 5173TIP3   OH237077   3.758   6.113   0.004  0.8343 -0.7126 -0.6115
 5173TIP3    H137078   3.698   6.163  -0.051 -0.7997 -1.8943  0.0202
 5173TIP3    H237079   3.714   6.030   0.018  2.2027 -1.2629  0.6808
 5174TIP3   OH237080   6.732   3.526   1.538  0.0205  0.1151  0.2489
 5174TIP3    H137081   6.824   3.550   1.551  0.3235 -0.2687 -1.0137
 5174TIP3    H237082   6.719   3.535   1.444 -1.2050  0.0155  0.3989
 5175TIP3   OH237083   4.209   1.808   2.137  0.1088  0.0499  0.1266
 5175TIP3    H137084   4.163   1.872   2.082  1.1683  0.4416 -0.3365
 5175TIP3    H237085   4.142   1.742   2.158  0.1654 -1.5281 -3.7651
 5176TIP3   OH237086   2.395   5.735   8.488  0.1099 -0.5020 -0.1330
 5176TIP3    H137087   2.417   5.664   8.428 -2.6078  0.9755 -3.1797
 5176TIP3    H237088   2.357   5.803   8.433 -0.9927  1.7572  3.0926
 5177TIP3   OH237089   1.952   2.180   8.692  0.3286  0.3193 -0.1843
 5177TIP3    H137090   1.992   2.110   8.745  1.9023 -0.0388 -1.7587
 5177TIP3    H237091   1.869   2.198   8.736  0.6900 -1.2975  1.2929
 5178TIP3   OH237092   0.737   1.586   2.446  0.2600  0.8501 -0.3211
 5178TIP3    H137093   0.687   1.543   2.516 -0.3513  1.1539 -0.5613
 5178TIP3    H237094   0.693   1.671   2.435 -1.2180 -0.1246 -2.7345
 5179TIP3   OH237095   0.491   0.997   7.798 -0.0646  0.4524  0.0472
 5179TIP3    H137096   0.398   1.022   7.796 -0.0921  0.3231 -0.5938
 5179TIP3    H237097   0.520   1.007   7.707 -0.2831 -2.5884 -0.4525
 5180TIP3   OH237098   5.782   5.370   1.893  0.0672  0.5342  0.0215
 5180TIP3    H137099   5.710   5.430   1.876 -1.2624 -0.9223  0.2793
 5180TIP3    H237100   5.833   5.371   1.813  0.1215  2.0288  0.0406
 5181TIP3   OH237101   4.291   3.050   1.039 -0.0009  0.0560  0.3581
 5181TIP3    H137102   4.218   2.990   1.054  1.1762 -1.8134 -0.9332
 5181TIP3    H237103   4.341   3.049   1.121 -1.8989  2.1919  1.6450
 5182TIP3   OH237104   1.845   2.621   0.413  0.2344 -0.1498  0.0524
 5182TIP3    H137105   1.755   2.653   0.421  0.2667 -0.0770  0.1256
 5182TIP3    H237106   1.836   2.526   0.412  0.1685 -0.1451  0.2033
 5183TIP3   OH237107   0.946   3.763   8.684  0.0241  0.3634 -0.6269
 5183TIP3    H137108   0.891   3.817   8.628 -0.8795 -0.3458 -0.4328
 5183TIP3    H237109   0.946   3.677   8.643  1.9393  0.6240 -1.2612
 5184TIP3   OH237110   0.299   3.644   8.282 -0.4835  0.6000 -0.0851
 5184TIP3    H137111   0.294   3.657   8.377 -1.6717  1.7659 -0.2856
 5184TIP3    H237112   0.234   3.576   8.264  0.7380 -0.6529  0.0843
 5185TIP3   OH237113   3.904   1.518   1.306  0.2988 -1.0197  0.1625
 5185TIP3    H137114   3.837   1.512   1.374 -1.1639  1.6831 -0.8789
 5185TIP3    H237115   3.934   1.428   1.294 -3.2996 -2.4488  0.5230
 5186TIP3   OH237116   1.033   0.888   1.078  1.3542  0.0922 -0.2386
 5186TIP3    H137117   0.981   0.954   1.124  1.5803  1.1204 -1.4181
 5186TIP3    H237118   1.008   0.805   1.119 -1.4865  0.4775 -0.9753
 5187TIP3   OH237119   3.136   0.384   6.839  0.0837  0.3351  0.6678
 5187TIP3    H137120   3.191   0.381   6.761 -0.2473  0.6587  0.4148
 5187TIP3    H237121   3.147   0.472   6.873 -0.8772  0.6677  0.1608
 5188TIP3   OH237122   5.057   6.491   1.711  0.2052 -0.0103  0.3112
 5188TIP3    H137123   5.040   6.581   1.685 -1.0309  0.6072  2.9148
 5188TIP3    H237124   5.028   6.438   1.637  0.1355  1.6817 -0.9135
 5189TIP3   OH237125   0.424   3.082   1.043 -0.3514 -0.5285 -0.4355
 5189TIP3    H137126   0.345   3.107   0.994 -0.1893 -1.4624 -1.2159
 5189TIP3    H237127   0.396   3.084   1.135 -1.0452 -0.0359 -0.6442
 5190TIP3   OH237128   1.011   0.863   8.300  0.0604  0.2814  0.3733
 5190TIP3    H137129   0.916   0.848   8.302 -0.1572  1.5107  0.2666
 5190TIP3    H237130   1.020   0.958   8.289  1.2959  0.0295 -1.2187
 5191TIP3   OH237131   1.726   0.006   1.328 -0.8217  0.0598 -0.1410
 5191TIP3    H137132   1.670   0.064   1.276  0.4975  0.4313 -1.2092
 5191TIP3    H237133   1.805  -0.004   1.275  0.9451  1.1245  2.1775
 5192TIP3   OH237134   1.406   3.258   8.421  0.4572  0.6292  0.5204
 5192TIP3    H137135   1.430   3.349   8.435 -0.7941  0.9347  0.8402
 5192TIP3    H237136   1.445   3.211   8.495 -0.9698  1.3162  1.7712
 5193TIP3   OH237137   1.798   4.536   7.644 -0.0519  0.3978  0.0387
 5193TIP3    H137138   1.761   4.594   7.577 -0.0657  1.9161  1.2925
 5193TIP3    H237139   1.829   4.596   7.712 -1.2684 -1.1401  2.0246
 5194TIP3   OH237140   2.422   3.861   2.228 -0.1856 -0.1230  1.0077
 5194TIP3    H137141   2.376   3.904   2.300  0.3044  1.7301  0.2682
 5194TIP3    H237142   2.364   3.789   2.203 -0.6449 -0.4248  2.8398
 5195TIP3   OH237143   2.523   5.434   1.444  0.0865  0.3670  0.5073
 5195TIP3    H137144   2.574   5.410   1.522  0.3433  0.1931  0.2851
 5195TIP3    H237145   2.442   5.470   1.480 -0.2309 -0.6491  0.8549
 5196TIP3   OH237146   0.251   4.136   2.449 -0.2809 -0.2410  0.1277
 5196TIP3    H137147   0.175   4.099   2.496  0.9212 -0.2980  2.1487
 5196TIP3    H237148   0.252   4.228   2.473  0.8860 -0.4638  1.0224
 5197TIP3   OH237149   1.713   4.608   0.900 -0.2170  0.1805 -0.2279
 5197TIP3    H137150   1.752   4.695   0.895 -2.5381  1.3079 -0.2114
 5197TIP3    H237151   1.671   4.605   0.987 -0.9756 -0.5670 -0.5985
 5198TIP3   OH237152   1.565   4.493   1.817  0.5149 -0.0514  0.4068
 5198TIP3    H137153   1.483   4.481   1.864  0.4979  2.1906  1.0856
 5198TIP3    H237154   1.539   4.505   1.725  0.2701 -1.1497  0.3188
 5199TIP3   OH237155   5.483   2.090   8.140 -0.0105  0.5591 -0.4450
 5199TIP3    H137156   5.415   2.152   8.167  0.7089  0.9225  0.6193
 5199TIP3    H237157   5.466   2.011   8.192  1.8767  1.5458  1.8776
 5200TIP3   OH237158   4.996   2.719   7.958  0.2926  0.2451  0.7310
 5200TIP3    H137159   4.914   2.687   7.995  0.2715  0.2473  0.6861
 5200TIP3    H237160   4.980   2.812   7.940  0.0582  0.0845  0.0423
 5201TIP3   OH237161   4.688   1.670   1.488  0.0007 -0.2273 -0.0217
 5201TIP3    H137162   4.672   1.763   1.472  0.7214 -0.2873 -1.2443
 5201TIP3    H237163   4.606   1.627   1.462  0.0530 -0.0307 -0.5170
 5202TIP3   OH237164   5.520   0.206   0.270  0.2710  0.3867  0.1344
 5202TIP3    H137165   5.519   0.159   0.353  0.4554  1.2370  0.6220
 5202TIP3    H237166   5.550   0.294   0.292 -3.3269  1.8584 -0.1748
 5203TIP3   OH237167   2.280   4.514   2.566  0.6070  0.8862  0.1493
 5203TIP3    H137168   2.260   4.598   2.607 -0.6320  1.1455 -0.9230
 5203TIP3    H237169   2.233   4.450   2.620 -2.3699  1.3751 -1.6294
 5204TIP3   OH237170   2.090   5.544   7.233  0.6208 -0.2690  0.1548
 5204TIP3    H137171   2.102   5.455   7.265 -1.9307 -0.5868  0.4243
 5204TIP3    H237172   2.011   5.576   7.277  1.0621  1.8699 -0.4758
 5205TIP3   OH237173   5.692   2.542   1.858 -0.2596 -0.3577 -0.5061
 5205TIP3    H137174   5.784   2.519   1.846  0.5800  2.5897 -0.2680
 5205TIP3    H237175   5.672   2.513   1.947  0.5338 -0.6271 -0.4060
 5206TIP3   OH237176   0.198   6.114   0.288 -0.4242 -0.3248  0.1965
 5206TIP3    H137177   0.224   6.086   0.376  0.0891 -0.2942  0.0525
 5206TIP3    H237178   0.277   6.149   0.249 -0.4751 -0.9961 -0.5381
 5207TIP3   OH237179   0.616   2.258   6.577 -0.0387 -0.4934 -0.7143
 5207TIP3    H137180   0.657   2.188   6.628  0.7874  0.5364  0.0747
 5207TIP3    H237181   0.621   2.335   6.634  0.5205  0.5905 -2.1889
 5208TIP3   OH237182   1.828   0.329   2.299  0.8226 -0.0685  0.4142
 5208TIP3    H137183   1.919   0.353   2.313  0.4944  1.5220  0.0723
 5208TIP3    H237184   1.788   0.408   2.262 -0.7832 -0.5843  0.9525
 5209TIP3   OH237185   3.252   1.996   2.290  0.3073  0.4215  0.1024
 5209TIP3    H137186   3.295   2.021   2.371 -0.6882 -0.0386  0.7875
 5209TIP3    H237187   3.295   2.049   2.223  0.7202  1.2661  1.0111
 5210TIP3   OH237188   6.841   1.798   0.684  0.1485 -0.1448  0.4067
 5210TIP3    H137189   6.930   1.775   0.711 -0.2454 -1.0977  0.9543
 5210TIP3    H237190   6.787   1.724   0.714 -0.6581 -0.1520 -0.9640
 5211TIP3   OH237191   0.237   0.240   8.132 -0.1332  0.0502 -0.4003
 5211TIP3    H137192   0.187   0.199   8.061 -0.4702  0.0617 -0.1746
 5211TIP3    H237193   0.174   0.245   8.205  0.4439 -0.7175  0.1697
 5212TIP3   OH237194   3.924   3.976   0.112  0.1693  0.3729 -0.3600
 5212TIP3    H137195   3.876   3.965   0.030 -0.3028 -1.1899  0.0906
 5212TIP3    H237196   3.900   4.063   0.143 -0.7709  0.4158 -1.1687
 5213TIP3   OH237197   6.663   5.767   2.628 -0.2219  0.4131  0.9767
 5213TIP3    H137198   6.592   5.818   2.589  1.2566  0.4569 -1.9850
 5213TIP3    H237199   6.628   5.678   2.634 -0.2837  0.1902 -1.5219
 5214TIP3   OH237200   2.681   3.410   0.276 -0.1428  0.2719  0.2015
 5214TIP3    H137201   2.647   3.391   0.188  0.7046  0.1441 -0.1067
 5214TIP3    H237202   2.724   3.329   0.303  0.3099  0.5760  0.3949
 5215TIP3   OH237203   2.615   5.792   0.355 -0.3176 -0.3268 -0.2865
 5215TIP3    H137204   2.588   5.825   0.441  0.5191 -0.6915  0.1373
 5215TIP3    H237205   2.664   5.712   0.375 -0.5318 -0.6816 -1.1436
 5216TIP3   OH237206   3.954   2.836   0.474  0.8311  0.5246 -0.0025
 5216TIP3    H137207   4.006   2.916   0.481  1.6262  0.2785 -2.3244
 5216TIP3    H237208   4.019   2.766   0.462  0.0411  0.0354 -1.6710
 5217TIP3   OH237209   4.561   5.299   0.296  0.0122 -0.1179  0.2610
 5217TIP3    H137210   4.552   5.238   0.368 -1.0911 -0.2083  0.0551
 5217TIP3    H237211   4.474   5.338   0.285  0.1579 -0.0970 -0.9965
 5218TIP3   OH237212   3.478   2.764   2.470  0.7484 -0.3738  0.4459
 5218TIP3    H137213   3.523   2.844   2.498 -0.0248 -0.8727  3.5221
 5218TIP3    H237214   3.389   2.774   2.503 -0.0649 -1.4784 -1.2814
 5219TIP3   OH237215   6.647   3.255   0.505  0.2348  0.3056  0.3385
 5219TIP3    H137216   6.659   3.166   0.536  0.0199  0.2145  0.1658
 5219TIP3    H237217   6.591   3.246   0.428  0.3379  0.5749  0.2320
 5220TIP3   OH237218   0.591   4.054   8.544  0.6118  0.0680  1.2580
 5220TIP3    H137219   0.662   4.004   8.505 -0.0475 -1.4690  1.9583
 5220TIP3    H237220   0.618   4.146   8.534  1.7412 -0.3855 -0.2594
 5221TIP3   OH237221   0.342   4.446   7.739  0.3643 -0.8163 -0.7460
 5221TIP3    H137222   0.386   4.526   7.710 -1.1713 -0.0716 -1.1377
 5221TIP3    H237223   0.254   4.475   7.764 -0.5465 -2.5331 -1.7873
 5222TIP3   OH237224   0.890   2.961   2.113 -1.0885 -0.5854  0.1663
 5222TIP3    H137225   0.985   2.951   2.110 -0.6210  1.9081  2.4691
 5222TIP3    H237226   0.867   3.004   2.030 -0.0819 -0.5341 -0.0939
 5223TIP3   OH237227   0.820   6.492   7.807 -0.3380  0.4649 -0.1509
 5223TIP3    H137228   0.844   6.403   7.831  0.9226  0.9963  0.6629
 5223TIP3    H237229   0.895   6.524   7.755 -0.9058  0.9560 -0.6833
 5224TIP3   OH237230   6.833   2.121   7.782  0.2501  0.0936 -0.1137
 5224TIP3    H137231   6.806   2.189   7.843 -0.8067  0.6093 -1.1246
 5224TIP3    H237232   6.842   2.166   7.698 -0.5815 -1.0169 -0.8359
 5225TIP3   OH237233   1.058   5.186   8.433  0.4971 -0.1430  0.8028
 5225TIP3    H137234   1.146   5.216   8.411  0.3407 -0.1672  0.1461
 5225TIP3    H237235   1.056   5.188   8.529  0.8429  0.9213  0.7972
 5226TIP3   OH237236   2.638   0.713   1.062 -0.9654  0.7639  0.8029
 5226TIP3    H137237   2.622   0.808   1.058  0.7514  1.0765  0.3459
 5226TIP3    H237238   2.577   0.676   0.999  0.3838  1.9213 -1.3318
 5227TIP3   OH237239   4.190   6.180   1.066  0.0904 -0.4005 -0.0166
 5227TIP3    H137240   4.122   6.212   1.007  0.5892  0.9607  0.1072
 5227TIP3    H237241   4.239   6.259   1.091  0.9852 -1.1931  0.8131
 5228TIP3   OH237242   5.138   5.106   0.202  0.1424  0.0563 -0.1913
 5228TIP3    H137243   5.097   5.142   0.122 -0.6779 -0.5062 -0.0382
 5228TIP3    H237244   5.066   5.063   0.248  0.7541 -0.2265  0.5153
 5229TIP3   OH237245   1.907   0.539   0.088 -0.1941  0.7955  0.0466
 5229TIP3    H137246   1.848   0.466   0.068  0.0583  0.4881  0.4162
 5229TIP3    H237247   1.849   0.614   0.097 -0.5265  0.5114  0.3218
 5230TIP3   OH237248   0.086   1.515   8.075  0.4925 -0.4544 -0.5181
 5230TIP3    H137249   0.074   1.599   8.120  1.3275 -0.6606  0.1122
 5230TIP3    H237250   0.158   1.531   8.014 -0.7234 -0.1356 -1.9383
 5231TIP3   OH237251   3.057   5.282   1.535  0.1820  0.1820 -0.4717
 5231TIP3    H137252   2.998   5.230   1.481 -0.0427  0.9386 -0.9739
 5231TIP3    H237253   3.013   5.367   1.543 -1.3483 -0.7458  3.4522
 5232TIP3   OH237254   2.746   2.371   1.588  0.0474 -0.2297  0.0908
 5232TIP3    H137255   2.678   2.439   1.590  1.9948  1.9473 -1.7927
 5232TIP3    H237256   2.747   2.341   1.498  2.5758  0.9685 -0.3583
 5233TIP3   OH237257   3.937   1.416   7.097  0.3664  0.5010  0.0261
 5233TIP3    H137258   3.891   1.463   7.027 -0.2416 -1.7284 -1.1429
 5233TIP3    H237259   3.894   1.331   7.102  1.7465 -0.1658  1.7394
 5234TIP3   OH237260   4.461   0.640   8.087 -0.4482  0.5386 -0.6722
 5234TIP3    H137261   4.519   0.685   8.147  0.5084 -0.1291 -1.0828
 5234TIP3    H237262   4.476   0.682   8.002 -2.7608  2.4023 -0.2862
 5235TIP3   OH237263   2.001   2.086   1.222  0.0616 -0.7100 -0.6529
 5235TIP3    H137264   1.953   2.129   1.292  1.5659  0.5362 -0.3463
 5235TIP3    H237265   1.961   2.119   1.141  2.1654  2.6385 -0.4904
 5236TIP3   OH237266   5.204   4.384   7.397  0.2754 -0.0118 -0.4352
 5236TIP3    H137267   5.283   4.388   7.343  1.2613  1.0692  0.9941
 5236TIP3    H237268   5.206   4.465   7.447 -0.6633 -0.9027  1.1149
 5237TIP3   OH237269   6.625   1.490   0.996  0.1253  0.1873  0.4617
 5237TIP3    H137270   6.540   1.447   1.002 -0.5283  0.9587 -2.2253
 5237TIP3    H237271   6.663   1.480   1.084 -3.2345  0.9252  2.1610
 5238TIP3   OH237272   4.625   4.486   0.729 -0.4361  0.0921 -0.9128
 5238TIP3    H137273   4.616   4.505   0.635 -0.0402  1.1084 -0.7559
 5238TIP3    H237274   4.720   4.487   0.744 -0.4706 -0.7198 -0.6255
 5239TIP3   OH237275   0.711   5.137   1.724 -0.4795  0.3460 -0.2169
 5239TIP3    H137276   0.783   5.200   1.730 -0.2634  0.0749  0.0136
 5239TIP3    H237277   0.705   5.098   1.811 -0.8930  0.3525 -0.2395
 5240TIP3   OH237278   0.019   0.988   0.772 -0.2701 -0.4159 -0.3227
 5240TIP3    H137279   0.107   0.995   0.735 -0.3790 -2.8522 -1.2244
 5240TIP3    H237280  -0.039   0.981   0.696 -0.9745 -1.1763  0.2609
 5241TIP3   OH237281   1.845   1.767   7.091 -0.3639  0.0316 -0.0419
 5241TIP3    H137282   1.781   1.837   7.106 -0.4860 -0.2630  0.8556
 5241TIP3    H237283   1.792   1.692   7.063 -0.4061 -0.1944  0.6409
 5242TIP3   OH237284   0.445   2.780   8.210  0.8872  0.3752  0.4171
 5242TIP3    H137285   0.473   2.808   8.298  1.1500  0.0667  0.4318
 5242TIP3    H237286   0.353   2.757   8.221  0.2334  2.6194  0.0993
 5243TIP3   OH237287   2.217   2.251   1.422  0.1037 -0.0765 -0.1666
 5243TIP3    H137288   2.157   2.325   1.410 -0.8866 -0.7579  0.4971
 5243TIP3    H237289   2.304   2.291   1.421 -0.3810  0.9976 -0.6011
 5244TIP3   OH237290   4.208   0.599   0.185  0.2357 -0.1751 -0.1770
 5244TIP3    H137291   4.133   0.552   0.223 -0.6978 -0.7180 -2.4949
 5244TIP3    H237292   4.264   0.530   0.149  0.2146  0.3426 -1.2546
 5245TIP3   OH237293   4.914   5.459   8.607  0.0127  0.2928  0.4259
 5245TIP3    H137294   4.821   5.463   8.586  0.4740 -0.2846 -2.1563
 5245TIP3    H237295   4.956   5.509   8.537  1.6130  1.3989  2.0886
 5246TIP3   OH237296   2.368   3.404   1.265  0.0822 -0.2112  0.7665
 5246TIP3    H137297   2.393   3.315   1.242  1.5208 -0.3195  2.5307
 5246TIP3    H237298   2.291   3.393   1.322 -0.3741 -0.2538  0.1449
 5247TIP3   OH237299   3.215   1.093   8.086  0.0020  0.6455  0.0198
 5247TIP3    H137300   3.181   1.010   8.053 -1.2459  0.3473  1.8740
 5247TIP3    H237301   3.230   1.146   8.007  0.3226 -1.1237 -1.1644
 5248TIP3   OH237302   1.257   6.702   7.474  0.4454 -0.2787 -0.3037
 5248TIP3    H137303   1.193   6.700   7.402  0.0987 -1.2534  0.0178
 5248TIP3    H237304   1.224   6.771   7.532 -0.4896 -0.9553 -0.0040
 5249TIP3   OH237305   2.299   2.982   0.004  0.0183  1.0492 -0.1152
 5249TIP3    H137306   2.395   2.977  -0.003 -0.0169  0.4022 -0.2193
 5249TIP3    H237307   2.267   2.943  -0.077 -0.3442 -1.3248  1.0772
 5250TIP3   OH237308   2.154   4.509   8.566 -0.3035 -0.4959 -0.0298
 5250TIP3    H137309   2.152   4.473   8.478  0.5566  2.0225 -1.1967
 5250TIP3    H237310   2.063   4.527   8.587 -0.4249  0.1561 -1.0338
 5251TIP3   OH237311   3.453   5.929   8.224 -0.3481 -0.2697 -0.2472
 5251TIP3    H137312   3.436   5.863   8.157  0.9538  0.4198 -1.2981
 5251TIP3    H237313   3.366   5.949   8.260 -1.1313 -0.3830 -1.9829
 5252TIP3   OH237314   2.031   5.172   2.497 -0.2141  0.2792  0.1172
 5252TIP3    H137315   2.122   5.151   2.480  0.3109  0.1345  2.6836
 5252TIP3    H237316   1.984   5.090   2.479  0.3061  0.0636 -0.2811
 5253TIP3   OH237317   4.796   3.520   7.239 -0.1715 -0.7253  0.3570
 5253TIP3    H137318   4.804   3.537   7.145 -2.1380  1.4914  0.4703
 5253TIP3    H237319   4.843   3.438   7.253  2.6634  0.3046 -2.0357
 5254TIP3   OH237320   3.351   5.607   0.708 -0.1353  0.4032 -0.0539
 5254TIP3    H137321   3.357   5.628   0.615  0.5798 -0.3330 -0.1925
 5254TIP3    H237322   3.262   5.575   0.720  0.2042 -0.9451 -0.8311
 5255TIP3   OH237323   6.258   5.075   7.691 -0.1706 -0.1330  0.1026
 5255TIP3    H137324   6.233   4.994   7.646  0.8847 -0.2016 -0.3756
 5255TIP3    H237325   6.353   5.073   7.694 -0.1677  0.6600  0.9056
 5256TIP3   OH237326   4.179   5.245   7.692 -0.6635 -0.3190 -0.2342
 5256TIP3    H137327   4.117   5.256   7.620 -0.0232  2.3008 -0.4774
 5256TIP3    H237328   4.203   5.152   7.689 -2.7803 -0.8809 -1.5931
 5257TIP3   OH237329   1.596   6.085   7.729 -0.1780 -0.3728 -0.1033
 5257TIP3    H137330   1.517   6.102   7.678 -0.5295  1.3186  0.9254
 5257TIP3    H237331   1.659   6.051   7.666 -1.2277 -0.2370 -1.2505
 5258TIP3   OH237332   4.408   0.205   8.492 -0.1856 -0.5464 -0.1119
 5258TIP3    H137333   4.320   0.213   8.455 -0.1406 -0.2836 -0.1627
 5258TIP3    H237334   4.394   0.168   8.580 -0.3680 -0.2171 -0.0017
 5259TIP3   OH237335   4.729   4.138   8.598 -0.2615  0.3921 -0.0609
 5259TIP3    H137336   4.780   4.218   8.610  0.4377 -0.0499 -0.0534
 5259TIP3    H237337   4.764   4.077   8.663 -0.5204 -0.0511 -0.3326
 5260TIP3   OH237338   1.767   1.342   2.281  0.1652 -0.1504  0.0935
 5260TIP3    H137339   1.700   1.280   2.309 -0.2410  0.4909  0.5725
 5260TIP3    H237340   1.758   1.416   2.341  0.7536  0.3014 -0.3596
 5261TIP3   OH237341   1.288   0.360   2.917 -0.0423 -0.1223 -0.8235
 5261TIP3    H137342   1.366   0.339   2.967  0.2792 -2.2265 -2.1174
 5261TIP3    H237343   1.238   0.279   2.913 -1.6743  0.8312 -1.1559
 5262TIP3   OH237344   0.975   1.252   0.614  0.6941 -0.2121  0.0183
 5262TIP3    H137345   0.882   1.229   0.608  0.6127  0.4752 -2.0909
 5262TIP3    H237346   0.980   1.342   0.580  1.9782  0.2074  1.2401
 5263TIP3   OH237347   2.748   0.166   2.235 -0.4314  0.3814  0.1096
 5263TIP3    H137348   2.717   0.234   2.295 -1.7424 -0.7604  0.7984
 5263TIP3    H237349   2.827   0.203   2.195 -0.6293  1.9512  1.0801
 5264TIP3   OH237350   1.084   4.749   0.303  0.0644 -0.2773 -0.1692
 5264TIP3    H137351   1.016   4.761   0.236 -0.3913  0.5447  0.4089
 5264TIP3    H237352   1.079   4.657   0.327 -1.6259 -0.0249  0.6263
 5265TIP3   OH237353   3.651   0.981   2.660 -0.1713 -0.2885 -0.2999
 5265TIP3    H137354   3.655   1.010   2.569 -0.6338 -0.6889 -0.4502
 5265TIP3    H237355   3.688   1.054   2.710  0.9383 -0.4411 -0.8837
 5266TIP3   OH237356   0.380   2.628   0.684 -0.0608  0.7228  0.0968
 5266TIP3    H137357   0.438   2.695   0.648  0.5187 -0.1827 -0.7218
 5266TIP3    H237358   0.336   2.591   0.607  1.3514 -1.3993  0.2331
 5267TIP3   OH237359   0.768   0.524   8.012 -0.5106  0.2490  0.2196
 5267TIP3    H137360   0.821   0.603   8.013  1.1971 -0.8483  0.7757
 5267TIP3    H237361   0.760   0.502   7.919 -3.0136  2.2961 -0.1397
 5268TIP3   OH237362   3.843   3.622   2.348  0.0088  0.1524  0.1209
 5268TIP3    H137363   3.887   3.706   2.336  0.9547 -0.6176 -2.6611
 5268TIP3    H237364   3.755   3.645   2.378  0.9392  1.9565  1.6959
 5269TIP3   OH237365   0.455   2.639   2.192 -0.3070 -0.2573  0.2921
 5269TIP3    H137366   0.451   2.674   2.281  1.8392  1.5740 -0.2233
 5269TIP3    H237367   0.365   2.642   2.161 -1.1835 -1.3081  2.4698
 5270TIP3   OH237368   3.018   0.169   2.391  0.2120  0.2942 -0.5228
 5270TIP3    H137369   2.993   0.195   2.480 -0.8794  2.0739 -1.2980
 5270TIP3    H237370   3.084   0.234   2.365  1.5203 -1.0023 -0.5717
 5271TIP3   OH237371   6.324   5.454   7.655 -0.1653 -0.1599  0.4116
 5271TIP3    H137372   6.386   5.410   7.713  0.0837 -0.3521  0.0038
 5271TIP3    H237373   6.293   5.529   7.705  0.1094 -0.2793  0.7617
 5272TIP3   OH237374   2.195   1.331   2.319  0.4276 -0.1359 -0.2275
 5272TIP3    H137375   2.234   1.348   2.405 -0.8983 -1.0091  0.5760
 5272TIP3    H237376   2.128   1.264   2.335 -0.4607  0.3167 -1.7880
 5273TIP3   OH237377   2.814   0.894   1.344  0.2069 -0.1512  0.2202
 5273TIP3    H137378   2.878   0.898   1.273 -0.3291  1.0506 -0.2279
 5273TIP3    H237379   2.839   0.966   1.403  1.4750 -1.9595  2.0221
 5274TIP3   OH237380   5.893   6.627   0.806  0.1269 -0.3668 -0.2829
 5274TIP3    H137381   5.825   6.568   0.838 -0.1335  0.7188  1.3175
 5274TIP3    H237382   5.875   6.710   0.851  3.3387 -0.4229  1.3947
 5275TIP3   OH237383   1.444   3.404   1.514  0.8571  0.2276  0.2733
 5275TIP3    H137384   1.376   3.349   1.553 -0.6281  1.0830 -1.0250
 5275TIP3    H237385   1.436   3.487   1.561 -0.3124  0.9534 -1.1532
 5276TIP3   OH237386   3.858   5.199   1.872  0.5637  0.4634 -0.0132
 5276TIP3    H137387   3.917   5.133   1.908  0.6732  1.0711  0.9578
 5276TIP3    H237388   3.778   5.150   1.850  0.9253 -0.1216 -0.0458
 5277TIP3   OH237389   5.387   6.780   7.568 -0.4033  0.2565 -0.0306
 5277TIP3    H137390   5.414   6.861   7.611  0.5193  0.2942 -0.6392
 5277TIP3    H237391   5.303   6.759   7.607 -0.3783  1.1886  0.5656
 5278TIP3   OH237392   1.869   6.084   0.439 -0.1358 -0.3006 -0.1384
 5278TIP3    H137393   1.933   6.100   0.370  0.1543  2.2184  0.6219
 5278TIP3    H237394   1.787   6.065   0.392  0.0101  1.5408 -1.2279
 5279TIP3   OH237395   3.177   2.473   1.879 -0.5518  0.0699 -0.1968
 5279TIP3    H137396   3.177   2.455   1.973  0.0734 -0.6682 -0.3271
 5279TIP3    H237397   3.086   2.497   1.860 -0.2599  2.3853  0.9600
 5280TIP3   OH237398   6.105   2.207   7.689  0.3003  0.2183 -0.6162
 5280TIP3    H137399   6.156   2.265   7.633  1.3458 -1.1845 -1.1480
 5280TIP3    H237400   6.020   2.199   7.645  0.0300  1.5470 -0.3794
 5281TIP3   OH237401   3.060   3.894   7.942  0.1834  0.5084 -0.5830
 5281TIP3    H137402   3.068   3.825   7.876 -3.8393 -1.6449  0.8497
 5281TIP3    H237403   3.106   3.859   8.019  2.0408  1.5806 -1.1320
 5282TIP3   OH237404   5.597   1.486   1.333  0.2548 -0.3519  0.1998
 5282TIP3    H137405   5.678   1.501   1.284  0.9641  0.0344  1.4251
 5282TIP3    H237406   5.624   1.433   1.408  0.0809  2.4832  2.4441
 5283TIP3   OH237407   3.911   0.660   0.497  0.2322  0.6747 -0.5287
 5283TIP3    H137408   3.957   0.680   0.415  1.0571  1.4095  0.1000
 5283TIP3    H237409   3.818   0.669   0.475  0.2441 -2.0304 -2.1424
 5284TIP3   OH237410   3.038   3.256   1.420  0.1773 -0.0839 -0.5368
 5284TIP3    H137411   3.097   3.262   1.495  0.8838 -0.4548 -1.0525
 5284TIP3    H237412   2.951   3.242   1.459  0.7406 -1.8203  0.1903
 5285TIP3   OH237413   2.149   5.555   1.789  0.3127 -0.2684  0.2687
 5285TIP3    H137414   2.066   5.551   1.835  1.4884  0.5083  2.6235
 5285TIP3    H237415   2.172   5.648   1.791  2.0027 -0.6721  1.1868
 5286TIP3   OH237416   3.602   2.317   7.273  0.6499 -0.5747  0.1425
 5286TIP3    H137417   3.542   2.370   7.220  2.9521  0.8154 -1.2108
 5286TIP3    H237418   3.602   2.231   7.231  1.4733  0.1478 -1.3875
 5287TIP3   OH237419   2.038   3.948   0.429 -0.4749  0.1636  0.5392
 5287TIP3    H137420   1.983   3.976   0.355 -0.8900 -0.8757  0.4307
 5287TIP3    H237421   1.979   3.896   0.484 -0.2569  1.1920  1.7859
 5288TIP3   OH237422   5.626   5.565   7.588 -0.1574  0.4789 -0.1079
 5288TIP3    H137423   5.534   5.544   7.597 -0.3177 -0.4413 -2.9720
 5288TIP3    H237424   5.633   5.655   7.621 -2.0991  0.6251  0.0219
 5289TIP3   OH237425   6.694   4.157   1.483  0.3658 -0.1543 -0.1096
 5289TIP3    H137426   6.667   4.074   1.522  1.2175 -1.0298 -1.2789
 5289TIP3    H237427   6.759   4.192   1.544 -1.0080  0.3835  1.0955
 5290TIP3   OH237428   5.674   4.991   0.412 -0.0272  0.4069 -0.3976
 5290TIP3    H137429   5.599   4.938   0.438 -0.7940  0.4237 -2.4434
 5290TIP3    H237430   5.650   5.080   0.435 -0.8603  0.4721 -1.4802
 5291TIP3   OH237431   3.077   6.241   7.792  0.4778  0.6861  0.5687
 5291TIP3    H137432   3.097   6.211   7.880 -3.3075 -0.4964  1.2032
 5291TIP3    H237433   3.086   6.163   7.737 -0.8475  0.4615  0.6412
 5292TIP3   OH237434   1.157   0.372   2.076 -0.0146 -0.5459  0.0971
 5292TIP3    H137435   1.224   0.307   2.055  2.0215  0.8002  1.9316
 5292TIP3    H237436   1.168   0.441   2.011 -0.2610 -0.7579 -0.1689
 5293TIP3   OH237437   3.743   4.509   8.637  0.2912  0.7423  0.0475
 5293TIP3    H137438   3.717   4.580   8.696  0.8859  0.6775  0.4093
 5293TIP3    H237439   3.702   4.529   8.554  0.4205  1.4926  0.1600
 5294TIP3   OH237440   0.450   6.116   0.170 -0.5844 -0.4875  0.0631
 5294TIP3    H137441   0.410   6.030   0.157 -0.6738 -0.3164 -0.8427
 5294TIP3    H237442   0.462   6.151   0.082 -2.3720  1.2789  0.4406
 5295TIP3   OH237443   4.029   5.863   0.919 -0.9527  0.0762  1.0819
 5295TIP3    H137444   3.935   5.879   0.911 -0.8269  0.0941 -1.0874
 5295TIP3    H237445   4.069   5.949   0.902 -0.4786 -0.8064 -3.7213
 5296TIP3   OH237446   1.240   4.063   2.379  0.8328  0.4143  0.7462
 5296TIP3    H137447   1.278   4.112   2.452  2.8932  1.8752 -1.1635
 5296TIP3    H237448   1.146   4.069   2.393  1.1034  2.4531  2.1825
 5297TIP3   OH237449   0.199   3.605   0.636 -0.0395  0.0942 -0.0385
 5297TIP3    H137450   0.210   3.621   0.542 -1.1985  0.5150 -0.1158
 5297TIP3    H237451   0.141   3.675   0.665  0.9340  0.4386  1.1592
 5298TIP3   OH237452   5.130   6.107   6.829 -0.4345  0.1020  0.3647
 5298TIP3    H137453   5.209   6.102   6.775  0.3063  1.6689  1.2483
 5298TIP3    H237454   5.131   6.026   6.880  1.1411  0.5308  1.0611
 5299TIP3   OH237455   0.093   5.891   0.992  0.0319 -0.1372 -0.2850
 5299TIP3    H137456   0.102   5.841   1.073 -0.8984  0.1960  0.0447
 5299TIP3    H237457   0.106   5.982   1.019 -0.4922 -0.0058 -0.4595
 5300TIP3   OH237458   1.904   2.104   8.444  0.5746  0.5777  0.2808
 5300TIP3    H137459   1.936   2.013   8.440 -0.7835  0.1124 -0.6660
 5300TIP3    H237460   1.926   2.133   8.532  0.0490 -1.0616  0.9948
 5301TIP3   OH237461   3.490   3.662   0.338 -0.2469 -0.5133  0.1486
 5301TIP3    H137462   3.504   3.719   0.414  0.2122 -2.3803  1.5410
 5301TIP3    H237463   3.575   3.660   0.293 -0.7247  1.2138 -0.9311
 5302TIP3   OH237464   4.285   4.349   8.312 -0.4954 -0.4108  0.4214
 5302TIP3    H137465   4.192   4.338   8.330 -0.8679 -1.4824 -1.7820
 5302TIP3    H237466   4.324   4.371   8.397 -2.5092 -1.4510  1.6975
 5303TIP3   OH237467   3.328   5.805   2.108 -0.0507 -0.4423 -0.0778
 5303TIP3    H137468   3.248   5.824   2.157 -0.0341  0.5512 -0.3992
 5303TIP3    H237469   3.398   5.844   2.161 -0.2633  2.9732 -1.9953
 5304TIP3   OH237470   3.206   5.790   8.011 -0.4698  0.4987  0.0530
 5304TIP3    H137471   3.202   5.697   8.035 -0.3395  0.7904  1.2471
 5304TIP3    H237472   3.300   5.807   7.999 -0.4317  0.6557  0.5711
 5305TIP3   OH237473   6.004   6.053   1.104 -0.1396  0.2190 -0.7005
 5305TIP3    H137474   6.037   6.136   1.071  2.2342 -1.3391 -2.5321
 5305TIP3    H237475   6.081   6.008   1.139 -1.5107 -0.9131  1.0736
 5306TIP3   OH237476   6.177   2.582   1.897  0.4431  0.2668 -0.0209
 5306TIP3    H137477   6.117   2.524   1.849 -1.4847  2.2191 -0.1770
 5306TIP3    H237478   6.243   2.607   1.832  0.3050 -0.3944 -0.4280
 5307TIP3   OH237479   1.059   5.908   0.096 -0.2062  0.1442  0.3989
 5307TIP3    H137480   1.138   5.922   0.043 -0.2864 -0.0105  0.2375
 5307TIP3    H237481   1.047   5.990   0.143 -0.6423  0.6112 -0.5020
 5308TIP3   OH237482   4.853   1.147   1.137 -0.1560  0.8763 -0.4087
 5308TIP3    H137483   4.773   1.192   1.166 -0.0765  0.4899  0.4338
 5308TIP3    H237484   4.911   1.152   1.212 -0.2362 -0.8580 -0.1979
 5309TIP3   OH237485   1.879   5.841   6.924  0.3478 -0.3689  0.4183
 5309TIP3    H137486   1.844   5.843   7.013 -1.5170 -2.4924 -0.1490
 5309TIP3    H237487   1.812   5.884   6.871  1.6033  1.1939  0.0283
 5310TIP3   OH237488   5.925   6.397   7.682  0.0339  0.0316  0.0086
 5310TIP3    H137489   5.982   6.447   7.741  0.0573 -1.5701  1.4160
 5310TIP3    H237490   5.908   6.457   7.610  3.0871  0.7897 -0.2483
 5311TIP3   OH237491   5.480   1.428   6.840 -0.1126  0.7881  0.7623
 5311TIP3    H137492   5.397   1.475   6.840 -1.1169 -0.4394 -4.1360
 5311TIP3    H237493   5.543   1.491   6.804 -0.2168  0.1708 -0.5683
 5312TIP3   OH237494   5.392   3.697   7.926 -0.1387  0.3671 -1.3314
 5312TIP3    H137495   5.350   3.704   8.012  1.0573  0.4062 -0.7269
 5312TIP3    H237496   5.363   3.613   7.892  0.6446 -0.4093 -0.1631
 5313TIP3   OH237497   1.643   0.484   7.155 -0.5939  0.3370 -0.1945
 5313TIP3    H137498   1.734   0.462   7.175 -0.2909  0.7247 -1.1057
 5313TIP3    H237499   1.644   0.507   7.062 -1.7417 -0.2609 -0.3612
 5314TIP3   OH237500   6.373   5.282   1.809 -0.4286 -0.1221  0.1960
 5314TIP3    H137501   6.415   5.199   1.831 -0.4537 -0.2882 -0.3632
 5314TIP3    H237502   6.446   5.341   1.790 -0.4229 -0.2631 -0.2510
 5315TIP3   OH237503   2.995   3.667   8.480 -0.6289 -0.3069 -0.4210
 5315TIP3    H137504   3.049   3.590   8.463 -0.5483 -0.8155  1.8356
 5315TIP3    H237505   2.926   3.663   8.414  0.3461 -1.3621 -1.4063
 5316TIP3   OH237506   4.641   5.606   8.377 -0.6909 -0.0119  0.0811
 5316TIP3    H137507   4.594   5.568   8.451 -3.8372  0.2203 -1.6279
 5316TIP3    H237508   4.689   5.532   8.339 -2.6450 -1.2054 -0.2079
 5317TIP3   OH237509   4.963   3.415   0.776 -0.6471 -0.0341  0.2071
 5317TIP3    H137510   5.018   3.339   0.793 -1.5731 -0.7552  0.0844
 5317TIP3    H237511   4.925   3.398   0.689  0.9256  1.6859 -0.8920
 5318TIP3   OH237512   3.696   2.374   1.620 -0.3495 -0.0481  0.0076
 5318TIP3    H137513   3.674   2.281   1.616  0.0446 -0.1317 -0.2900
 5318TIP3    H237514   3.769   2.378   1.682 -0.9168  0.1721  0.6661
 5319TIP3   OH237515   3.867   1.080   2.193  0.5605  0.0498  0.7939
 5319TIP3    H137516   3.915   1.139   2.251 -0.4005  0.6827  0.9719
 5319TIP3    H237517   3.869   0.995   2.238 -1.0682  0.7603  2.3256
 5320TIP3   OH237518   2.841   0.337   7.699 -0.1189 -0.3663 -0.4260
 5320TIP3    H137519   2.798   0.258   7.665  1.0941 -1.6983  0.9994
 5320TIP3    H237520   2.769   0.389   7.734 -0.7667 -2.0058  0.8403
 5321TIP3   OH237521   1.570   2.672   0.515  0.1970  0.1498 -0.7506
 5321TIP3    H137522   1.494   2.648   0.461 -0.2626 -1.0278  0.3644
 5321TIP3    H237523   1.544   2.753   0.559 -0.5773 -0.4253 -0.1140
 5322TIP3   OH237524   4.436   1.540   0.927 -0.5079  0.2599  0.0885
 5322TIP3    H137525   4.484   1.461   0.903 -0.0788  0.0512  1.5364
 5322TIP3    H237526   4.495   1.612   0.904  0.0943  0.0470  0.9238
 5323TIP3   OH237527   4.422   3.537   6.974  0.1195  0.4118  0.1116
 5323TIP3    H137528   4.436   3.442   6.967 -0.6985  0.3816 -1.8835
 5323TIP3    H237529   4.337   3.546   7.015  0.2468  0.2955  0.4052
 5324TIP3   OH237530   5.817   0.077   2.357 -0.0979  1.0094 -0.3444
 5324TIP3    H137531   5.800   0.170   2.348 -0.6096  1.0885  1.1854
 5324TIP3    H237532   5.859   0.068   2.442  0.1029 -0.1374 -0.5438
 5325TIP3   OH237533   6.684   0.548   8.215  0.2438  0.4469  0.0729
 5325TIP3    H137534   6.617   0.612   8.193 -0.2575  0.1318  0.6689
 5325TIP3    H237535   6.736   0.540   8.135  0.8729  2.2437  0.2532
 5326TIP3   OH237536   1.109   3.450   1.472  0.6195 -0.6222 -0.0414
 5326TIP3    H137537   1.137   3.447   1.564  1.4461  0.0268 -0.2536
 5326TIP3    H237538   1.015   3.433   1.475  0.3821  0.6573  1.0668
 5327TIP3   OH237539   5.115   6.018   8.087  0.0128 -0.5388  0.2445
 5327TIP3    H137540   5.101   6.001   8.180  0.3699  2.1074  0.8730
 5327TIP3    H237541   5.176   5.950   8.059  1.3233 -0.3697  2.4213
 5328TIP3   OH237542   5.080   6.062   8.651 -0.8526  0.4435  0.1701
 5328TIP3    H137543   5.019   6.031   8.718 -1.7247 -2.0983 -1.6306
 5328TIP3    H237544   5.030   6.124   8.599 -0.9918  0.5140  0.3861
 5329TIP3   OH237545   0.998   2.468   8.623 -0.1647 -0.4111 -0.1633
 5329TIP3    H137546   0.923   2.517   8.589  0.0196  1.3377  1.8039
 5329TIP3    H237547   0.966   2.428   8.704  0.8891  0.0240  0.4865
 5330TIP3   OH237548   3.441   4.074   2.336  0.0308  0.0108 -0.0381
 5330TIP3    H137549   3.420   4.124   2.415 -1.1509  0.1561 -0.4301
 5330TIP3    H237550   3.515   4.121   2.297  1.2243 -0.5781  1.4347
 5331TIP3   OH237551   3.251   3.059   7.493  0.7210 -0.2310  0.7039
 5331TIP3    H137552   3.308   3.017   7.429 -0.1682  0.1705 -0.3616
 5331TIP3    H237553   3.278   3.151   7.493 -0.6169  0.1821 -0.5918
 5332TIP3   OH237554   4.694   0.383   2.345  0.3685 -0.7152  0.5310
 5332TIP3    H137555   4.686   0.458   2.286  0.8531  0.3404  1.7654
 5332TIP3    H237556   4.774   0.338   2.316  0.6054 -0.2023  0.3797
 5333TIP3   OH237557   0.463   2.751   1.469  0.0829 -0.2689  0.9771
 5333TIP3    H137558   0.506   2.666   1.463 -1.1284 -1.1296  3.3435
 5333TIP3    H237559   0.386   2.736   1.525 -1.4962  1.8923 -0.4232
 5334TIP3   OH237560   4.964   2.536   8.308 -0.0479  0.9009 -0.6949
 5334TIP3    H137561   5.058   2.527   8.320 -0.0337  1.8308  0.0514
 5334TIP3    H237562   4.946   2.628   8.329 -1.1920  0.6080 -0.3272
 5335TIP3   OH237563   3.793   1.608   7.817  0.3656 -0.0623 -0.4604
 5335TIP3    H137564   3.718   1.549   7.813 -0.7039  1.1226  0.9658
 5335TIP3    H237565   3.759   1.687   7.859  2.7144  0.0258  1.5093
 5336TIP3   OH237566   5.467   3.319   0.387  0.5507 -0.0490  0.5915
 5336TIP3    H137567   5.518   3.239   0.379 -1.0173 -0.9371 -1.4412
 5336TIP3    H237568   5.522   3.387   0.349  0.6089 -0.8107 -0.7270
 5337TIP3   OH237569   0.677   0.274   1.068 -0.0588  0.2704  0.2715
 5337TIP3    H137570   0.700   0.198   1.123  0.8341  0.2396 -0.1175
 5337TIP3    H237571   0.585   0.290   1.086 -0.2903 -0.9800  0.2879
 5338TIP3   OH237572   2.365   0.844   1.572  0.3951 -0.4008 -0.0406
 5338TIP3    H137573   2.340   0.776   1.510 -0.5187 -1.2694  1.2359
 5338TIP3    H237574   2.333   0.813   1.657  2.8383  0.0666  1.1397
 5339TIP3   OH237575   6.104   5.685   2.252  0.1739  0.4185 -0.1556
 5339TIP3    H137576   6.075   5.650   2.167  1.7551  0.1348 -0.6011
 5339TIP3    H237577   6.132   5.774   2.232 -2.6455  1.6333  0.7432
 5340TIP3   OH237578   0.132   2.019   2.012 -0.2741 -0.1384  0.1289
 5340TIP3    H137579   0.051   1.998   1.964  0.1107 -0.9908 -0.1534
 5340TIP3    H237580   0.110   2.004   2.104 -0.0655 -1.6489 -0.0435
 5341TIP3   OH237581   6.667   1.598   0.736  0.0051 -0.2270  0.1676
 5341TIP3    H137582   6.650   1.547   0.816 -2.2971 -0.7469 -0.5769
 5341TIP3    H237583   6.721   1.540   0.682 -0.8855 -1.0866  0.1698
 5342TIP3   OH237584   5.498   3.552   2.309 -0.0568 -0.0581  0.0948
 5342TIP3    H137585   5.545   3.607   2.371 -2.3850  1.7264  0.3883
 5342TIP3    H237586   5.481   3.608   2.234 -1.5996 -0.6455 -0.0400
 5343TIP3   OH237587   1.905   6.327   7.321 -0.1539 -0.1996  0.2619
 5343TIP3    H137588   1.816   6.302   7.296 -0.1027 -0.5563  0.4347
 5343TIP3    H237589   1.940   6.250   7.366  0.3165 -0.1333  0.0121
 5344TIP3   OH237590   3.793   4.195   8.612 -0.6377  0.4509 -0.5481
 5344TIP3    H137591   3.771   4.220   8.702 -0.5595  1.7403 -0.8623
 5344TIP3    H237592   3.731   4.244   8.558 -0.5328 -0.1335 -1.2037
 5345TIP3   OH237593   0.762   1.933   7.315 -0.7002  0.0534  0.0546
 5345TIP3    H137594   0.790   1.968   7.400  0.3635  0.1891 -0.3431
 5345TIP3    H237595   0.722   2.008   7.270 -0.9910  0.0545  0.3115
 5346TIP3   OH237596   5.307   1.376   1.682  0.2133  0.2972  0.5211
 5346TIP3    H137597   5.338   1.336   1.601  1.2459  2.3365 -0.1441
 5346TIP3    H237598   5.214   1.352   1.686  0.3202 -0.4530 -0.8720
 5347TIP3   OH237599   3.696   3.841   2.119  0.4038  0.3906 -0.2402
 5347TIP3    H137600   3.759   3.811   2.054  1.5782 -1.8156  1.7084
 5347TIP3    H237601   3.612   3.805   2.090  1.0983 -1.4913 -0.0602
 5348TIP3   OH237602   6.115   0.309   0.788 -0.2015 -0.1014 -0.2662
 5348TIP3    H137603   6.109   0.350   0.701 -0.6305  0.4609  0.0274
 5348TIP3    H237604   6.059   0.232   0.781  2.0421 -1.7764 -1.4187
 5349TIP3   OH237605   0.164   6.838   8.395 -0.2463  0.3517 -0.6398
 5349TIP3    H137606   0.154   6.797   8.309 -0.5399  0.6363 -0.7424
 5349TIP3    H237607   0.237   6.791   8.436  0.3213  0.6389 -1.3016
 5350TIP3   OH237608   2.291   1.003   8.162  0.1960  0.3244 -0.9582
 5350TIP3    H137609   2.213   1.011   8.108 -0.4325 -0.4140 -0.1896
 5350TIP3    H237610   2.273   0.928   8.219  0.7387  1.2159  0.4291
 5351TIP3   OH237611   1.014   0.401   0.987 -0.5154  0.5884  0.1980
 5351TIP3    H137612   1.024   0.350   1.067 -1.8512  0.5026  0.3242
 5351TIP3    H237613   0.933   0.450   0.999 -0.2538  1.2894 -0.7240
 5352TIP3   OH237614   4.307   3.856   0.115 -0.2027 -0.1265  0.0555
 5352TIP3    H137615   4.240   3.862   0.183  2.1503  1.7641  2.4932
 5352TIP3    H237616   4.356   3.777   0.137  0.4471  0.3898  0.5500
 5353TIP3   OH237617   6.396   0.696   1.102  0.1739  0.2139 -0.3624
 5353TIP3    H137618   6.315   0.747   1.112  1.0492  1.4287  1.0193
 5353TIP3    H237619   6.389   0.626   1.166  0.0832  0.1400 -0.4535
 5354TIP3   OH237620   0.400   5.626   7.263  0.0213 -0.0121 -0.1599
 5354TIP3    H137621   0.322   5.576   7.239  0.6334 -1.6424  1.1472
 5354TIP3    H237622   0.419   5.679   7.185 -0.4539 -2.0623 -1.7436
 5355TIP3   OH237623   3.619   1.384   1.072 -0.0231 -0.9398  1.0574
 5355TIP3    H137624   3.625   1.358   0.980 -1.6602 -3.4015  1.5462
 5355TIP3    H237625   3.709   1.383   1.103  0.4750 -0.9124 -0.3177
 5356TIP3   OH237626   0.011   6.194   7.938 -0.0940 -0.3715 -0.7052
 5356TIP3    H137627   0.025   6.133   8.010  0.9190  0.4481 -0.1852
 5356TIP3    H237628   0.093   6.190   7.888 -0.8509 -1.0870 -1.9611
 5357TIP3   OH237629   5.497   2.676   7.333 -0.0271  0.2875  0.3545
 5357TIP3    H137630   5.471   2.688   7.241 -1.7363 -0.7281  0.6626
 5357TIP3    H237631   5.420   2.703   7.383  0.6847  0.2923  1.4814
 5358TIP3   OH237632   2.069   2.024   2.608 -0.1818 -0.1322  0.7624
 5358TIP3    H137633   2.125   2.102   2.609 -1.2990  0.7376 -0.5784
 5358TIP3    H237634   2.001   2.043   2.672 -0.5769  0.1046  0.2782
 5359TIP3   OH237635   5.929   3.476   0.774 -0.7547  0.1179  0.0894
 5359TIP3    H137636   5.834   3.471   0.783 -1.3019  1.5601 -3.3937
 5359TIP3    H237637   5.948   3.570   0.775  0.6057 -0.1446  0.2715
 5360TIP3   OH237638   0.400   1.236   2.442 -0.2840 -0.0959 -0.1997
 5360TIP3    H137639   0.331   1.298   2.465 -0.2171 -0.1491  0.1471
 5360TIP3    H237640   0.473   1.292   2.412  0.1885  0.0703  1.1778
 5361TIP3   OH237641   5.254   4.794   2.525  0.1044  0.6270 -0.0481
 5361TIP3    H137642   5.268   4.778   2.618  1.4682  0.3782 -0.2775
 5361TIP3    H237643   5.169   4.754   2.507  0.1634  0.0250  0.9247
 5362TIP3   OH237644   0.285   4.087   0.570  0.1999 -0.3969 -0.5886
 5362TIP3    H137645   0.224   4.144   0.522 -0.5122  1.0062  1.8175
 5362TIP3    H237646   0.356   4.145   0.598 -1.3129 -0.0964  3.2872
 5363TIP3   OH237647   0.331   5.203   1.424 -0.4424 -0.2697  0.1445
 5363TIP3    H137648   0.286   5.175   1.504 -0.9128  2.5636  0.9977
 5363TIP3    H237649   0.363   5.291   1.444  1.2855 -0.2873 -2.1131
 5364TIP3   OH237650   4.677   2.834   0.148 -0.7519 -0.6090 -0.1600
 5364TIP3    H137651   4.609   2.901   0.143 -0.8851 -0.7164  0.1557
 5364TIP3    H237652   4.754   2.874   0.110 -0.5651  0.0638  0.8986
 5365TIP3   OH237653   0.275   1.472   2.498  0.6940 -0.5895  0.0096
 5365TIP3    H137654   0.279   1.553   2.446  0.2275  0.1465  1.0905
 5365TIP3    H237655   0.186   1.439   2.485  0.7498 -0.7022 -0.0902
 5366TIP3   OH237656   2.942   0.847   8.070  0.3614 -0.3347 -0.0913
 5366TIP3    H137657   2.867   0.796   8.037  0.1256 -0.4757  0.6423
 5366TIP3    H237658   2.902   0.915   8.124  0.7815 -0.7673  0.7853
 5367TIP3   OH237659   5.376   0.911   8.181  0.4692  0.0376 -0.1282
 5367TIP3    H137660   5.421   0.959   8.112 -2.0512  0.8105 -1.3892
 5367TIP3    H237661   5.372   0.821   8.150  1.1073 -0.0358 -0.0037
 5368TIP3   OH237662   6.573   0.073   1.464 -0.1815  0.1612  0.0956
 5368TIP3    H137663   6.590   0.137   1.396  0.7164  0.3130  0.4462
 5368TIP3    H237664   6.649   0.079   1.522  0.9182 -2.5509 -0.9009
 5369TIP3   OH237665   0.922   4.798   1.402 -0.3232  0.4456  0.0080
 5369TIP3    H137666   0.859   4.869   1.404  0.0403  0.7786 -0.1643
 5369TIP3    H237667   0.922   4.767   1.311 -2.5131 -1.6449  0.6237
 5370TIP3   OH237668   1.398   2.805   0.341  0.1469 -0.3832 -0.4665
 5370TIP3    H137669   1.406   2.751   0.262  1.2197  0.3205 -0.8536
 5370TIP3    H237670   1.343   2.879   0.314  2.1002  0.8919 -1.1622
 5371TIP3   OH237671   3.137   0.613   6.975  0.1011 -0.3552  0.3926
 5371TIP3    H137672   3.179   0.697   6.956 -0.1627 -0.1018  0.9010
 5371TIP3    H237673   3.189   0.576   7.047  1.0481 -1.2718 -0.7056
 5372TIP3   OH237674   0.756   3.426   7.282  0.0297  0.5415 -0.7134
 5372TIP3    H137675   0.830   3.374   7.252  0.0619  1.0663 -1.6173
 5372TIP3    H237676   0.681   3.391   7.234 -0.6014 -0.9010  1.2181
 5373TIP3   OH237677   4.670   4.572   1.421  0.3471 -1.1023  0.3461
 5373TIP3    H137678   4.665   4.666   1.402  1.4178 -0.8959  1.0118
 5373TIP3    H237679   4.583   4.550   1.455 -0.1658 -0.5349 -0.5603
 5374TIP3   OH237680   2.793   6.413   1.090 -0.1748 -0.2926 -0.1617
 5374TIP3    H137681   2.820   6.352   1.021 -1.3144  0.6176 -1.4653
 5374TIP3    H237682   2.833   6.496   1.066 -0.2676 -0.0494  0.4946
 5375TIP3   OH237683   2.783   3.265   8.197  0.8458  0.9279 -0.1119
 5375TIP3    H137684   2.789   3.202   8.124  1.0501 -0.7364  1.2770
 5375TIP3    H237685   2.691   3.289   8.200  1.0194  1.9438 -1.6215
 5376TIP3   OH237686   6.737   5.506   1.113  0.0880 -0.2279 -0.4829
 5376TIP3    H137687   6.690   5.425   1.092 -0.0960 -0.1032 -0.5514
 5376TIP3    H237688   6.778   5.489   1.198 -1.0989  0.0961  0.1769
 5377TIP3   OH237689   3.324   0.177   0.041  0.0080 -0.1909 -0.0985
 5377TIP3    H137690   3.343   0.173   0.135 -1.0666 -1.2347  0.0989
 5377TIP3    H237691   3.389   0.121   0.001 -0.7673 -1.4004  0.2645
 5378TIP3   OH237692   0.337   5.660   7.653  0.2332  0.2024 -0.2822
 5378TIP3    H137693   0.289   5.585   7.620  1.3494 -0.2033 -1.0235
 5378TIP3    H237694   0.305   5.734   7.601 -0.1832  0.0892 -0.1906
 5379TIP3   OH237695   3.910   2.357   0.979 -0.3277 -0.3517 -0.2846
 5379TIP3    H137696   3.998   2.330   0.955 -0.5603 -1.7524  0.2784
 5379TIP3    H237697   3.922   2.424   1.046  0.3110 -0.1514 -0.5960
 5380TIP3   OH237698   4.724   4.737   1.904 -0.1118 -0.0589  0.5419
 5380TIP3    H137699   4.667   4.784   1.843  0.3166  0.4637  0.5347
 5380TIP3    H237700   4.753   4.660   1.854 -1.2034 -0.6027  0.7256
 5381TIP3   OH237701   2.541   3.245   1.989 -0.0892 -0.0984  0.5881
 5381TIP3    H137702   2.520   3.333   2.020 -0.7165  1.2247 -3.0335
 5381TIP3    H237703   2.536   3.252   1.894  1.3079 -3.7399  0.0887
 5382TIP3   OH237704   6.130   1.812   8.186 -0.4843  0.0878  0.0230
 5382TIP3    H137705   6.104   1.728   8.224 -0.3867 -0.7029 -1.5881
 5382TIP3    H237706   6.182   1.789   8.109 -2.3226  1.5688 -1.7787
 5383TIP3   OH237707   2.507   1.446   2.376 -0.3716  0.0017  0.1660
 5383TIP3    H137708   2.435   1.460   2.437 -0.1972 -1.0175  0.6243
 5383TIP3    H237709   2.498   1.517   2.312 -1.7539 -0.0859  0.2329
 5384TIP3   OH237710   0.953   1.807   0.595 -0.3203 -0.3707 -0.2373
 5384TIP3    H137711   1.049   1.813   0.590 -0.2910  0.3443  0.7774
 5384TIP3    H237712   0.937   1.715   0.616  0.3675  0.0350  2.6126
 5385TIP3   OH237713   5.632   6.248   7.695  0.0723  0.0089  0.0869
 5385TIP3    H137714   5.652   6.167   7.742 -1.9930  0.2541  1.4856
 5385TIP3    H237715   5.540   6.241   7.672  0.1566  1.4735 -0.8328
 5386TIP3   OH237716   2.167   4.972   0.153 -0.0990  0.0550  0.1278
 5386TIP3    H137717   2.112   4.903   0.191 -0.4660  0.6897  0.7668
 5386TIP3    H237718   2.203   5.018   0.229  1.5226 -0.4872 -0.2590
 5387TIP3   OH237719   5.390   0.563   0.895  0.6224  0.7166  0.1073
 5387TIP3    H137720   5.298   0.567   0.922  0.7967  2.1189  0.5702
 5387TIP3    H237721   5.386   0.540   0.802 -0.1763  0.5546  0.1674
 5388TIP3   OH237722   1.463   1.346   2.789 -0.4671  0.0945  0.2024
 5388TIP3    H137723   1.514   1.296   2.854 -0.0975 -1.5587 -1.2943
 5388TIP3    H237724   1.500   1.435   2.794  0.1651 -0.2116  1.5938
 5389TIP3   OH237725   5.459   2.334   7.800  0.0616  0.3785 -0.1012
 5389TIP3    H137726   5.406   2.414   7.806  0.7158  0.7848  0.3647
 5389TIP3    H237727   5.549   2.365   7.797  0.3778 -0.3576  1.0130
 5390TIP3   OH237728   1.246   1.585   0.008 -0.3388  0.3111  0.3182
 5390TIP3    H137729   1.338   1.585   0.035  0.3086  0.6462 -1.6944
 5390TIP3    H237730   1.245   1.634  -0.074 -2.4466  0.9111  0.6432
 5391TIP3   OH237731   0.151   1.603   7.507 -0.3068 -0.0534  0.1290
 5391TIP3    H137732   0.183   1.693   7.504  0.3547 -0.2514  0.7957
 5391TIP3    H237733   0.059   1.609   7.481 -1.0270  1.1790  2.6256
 5392TIP3   OH237734   1.015   4.753   2.351 -0.0909 -0.2921 -0.4076
 5392TIP3    H137735   1.054   4.742   2.438 -0.3868  1.3214 -0.0582
 5392TIP3    H237736   0.974   4.668   2.333  1.7355 -1.3509  0.1170
 5393TIP3   OH237737   1.189   4.298   2.098  0.5080 -0.3993  0.7429
 5393TIP3    H137738   1.224   4.378   2.058  2.1055 -0.8416  1.1919
 5393TIP3    H237739   1.125   4.330   2.161  0.0673  0.4470 -0.1037
 5394TIP3   OH237740   4.827   0.214   8.048  0.0418 -0.4846  0.4896
 5394TIP3    H137741   4.740   0.240   8.080 -0.0538 -0.9638  0.6166
 5394TIP3    H237742   4.813   0.131   8.004  0.2385 -0.0115 -0.4955
 5395TIP3   OH237743   0.884   6.060   7.445 -0.2072 -0.4923  0.8732
 5395TIP3    H137744   0.845   6.066   7.532 -0.5773  0.6048  0.6535
 5395TIP3    H237745   0.946   5.987   7.451  0.9432  0.5350  2.5220
 5396TIP3   OH237746   2.269   3.051   7.110 -0.2116 -0.3470 -0.1301
 5396TIP3    H137747   2.322   3.048   7.189  0.7971 -0.4189 -0.7902
 5396TIP3    H237748   2.214   3.128   7.121 -0.4303 -0.6338  0.8505
 5397TIP3   OH237749   5.591   3.066   7.999 -0.1040 -0.0289  0.0263
 5397TIP3    H137750   5.634   3.144   8.035 -1.7634  0.5758  0.7840
 5397TIP3    H237751   5.498   3.080   8.016 -0.7377 -0.8486 -2.3996
 5398TIP3   OH237752   4.490   2.006   7.888  0.0103  0.1992  0.2657
 5398TIP3    H137753   4.519   2.054   7.810 -1.2903 -0.3860 -0.6137
 5398TIP3    H237754   4.568   1.961   7.919  0.0566 -1.6453 -2.2479
 5399TIP3   OH237755   5.766   1.202   6.728 -0.2217  0.1671 -0.7512
 5399TIP3    H137756   5.787   1.112   6.755  1.8776 -0.4047 -3.7636
 5399TIP3    H237757   5.846   1.251   6.743 -0.9925  1.3131 -0.2078
 5400TIP3   OH237758   2.967   1.704   1.571 -0.3204 -0.0355 -0.3375
 5400TIP3    H137759   2.966   1.626   1.626  1.3412 -0.1366 -0.3927
 5400TIP3    H237760   2.957   1.670   1.482 -2.4749  0.0870 -0.1992
 5401TIP3   OH237761   4.641   0.247   0.400  0.1148  0.5656  0.4489
 5401TIP3    H137762   4.587   0.175   0.366 -1.1248  0.8536  1.6941
 5401TIP3    H237763   4.637   0.314   0.333 -1.4053  0.7174  0.6508
 5402TIP3   OH237764   6.120   6.545   7.815  0.4685  0.5905  0.5271
 5402TIP3    H137765   6.196   6.598   7.790  1.1424  0.0409  1.3904
 5402TIP3    H237766   6.125   6.537   7.910 -1.3845  1.6008  0.7693
 5403TIP3   OH237767   6.794   4.714   8.588 -0.6724  0.2340  0.2968
 5403TIP3    H137768   6.738   4.694   8.663  1.7369 -3.4621  1.3848
 5403TIP3    H237769   6.771   4.649   8.522  1.2681 -0.4582  0.2326
 5404TIP3   OH237770   5.108   0.670   1.815  0.0050 -0.8615 -0.8681
 5404TIP3    H137771   5.168   0.709   1.878 -0.0748 -0.3615 -1.1024
 5404TIP3    H237772   5.105   0.732   1.742 -0.9274 -0.7929 -0.7827
 5405TIP3   OH237773   6.433   0.449   2.148  0.4071 -0.3853 -0.0707
 5405TIP3    H137774   6.424   0.360   2.112  0.1607 -0.2707 -0.3052
 5405TIP3    H237775   6.486   0.438   2.226 -0.6928 -0.9335  0.6324
 5406TIP3   OH237776   1.005   5.017   7.424  0.2715  0.5420 -0.2531
 5406TIP3    H137777   1.036   4.926   7.426  2.1171  1.1495 -0.0642
 5406TIP3    H237778   0.911   5.009   7.407  0.5201 -1.3736 -1.0019
 5407TIP3   OH237779   0.429   1.470   1.437 -0.4926 -0.0379  0.6215
 5407TIP3    H137780   0.353   1.485   1.493  0.4313  1.0011  1.6369
 5407TIP3    H237781   0.401   1.402   1.376 -1.5454 -1.2243  2.3402
 5408TIP3   OH237782   4.963   5.182   8.396  1.0441  0.0776 -0.8633
 5408TIP3    H137783   4.919   5.245   8.340 -0.3638 -0.0643  0.0231
 5408TIP3    H237784   4.914   5.101   8.384  0.0216  0.3037  1.3286
 5409TIP3   OH237785   1.319   4.686   2.326 -0.4743  0.1646 -0.2270
 5409TIP3    H137786   1.298   4.769   2.284  1.7257  1.5997  1.2993
 5409TIP3    H237787   1.247   4.673   2.389 -0.5221  1.2744 -0.0236
 5410TIP3   OH237788   3.048   6.476   2.233 -0.2918  0.0742  0.0246
 5410TIP3    H137789   3.078   6.504   2.147 -2.0161  1.8438 -0.0713
 5410TIP3    H237790   2.999   6.551   2.267 -2.0687 -1.5850  1.3634
 5411TIP3   OH237791   2.827   5.934   2.271 -0.5834  0.2526  0.3543
 5411TIP3    H137792   2.873   5.975   2.198 -1.6362  1.1742  0.1900
 5411TIP3    H237793   2.736   5.927   2.242 -0.7313 -0.7951  0.9861
 5412TIP3   OH237794   6.799   5.610   3.042  0.3001 -0.0923 -0.4443
 5412TIP3    H137795   6.720   5.584   2.997 -0.6669  0.2134  1.0018
 5412TIP3    H237796   6.792   5.569   3.129  0.8837  1.2959  0.2946
 5413TIP3   OH237797   1.937   4.336   3.007  0.0630 -0.2188 -0.2133
 5413TIP3    H137798   1.848   4.310   2.985  0.0678 -0.6668  0.2803
 5413TIP3    H237799   1.961   4.399   2.939 -0.1087 -1.1640 -1.1677
 5414TIP3   OH237800   2.854   1.326   1.253  0.0724 -0.1974  0.1122
 5414TIP3    H137801   2.928   1.267   1.236  0.4679  0.3819 -0.2169
 5414TIP3    H237802   2.808   1.330   1.169 -1.0145 -1.4624  0.6173
 5415TIP3   OH237803   0.939   5.065   6.769 -0.0424  0.4275 -0.0619
 5415TIP3    H137804   0.978   4.995   6.821  0.1963 -0.4115 -1.3127
 5415TIP3    H237805   0.845   5.055   6.781  0.0189  1.8718  2.2231
 5416TIP3   OH237806   2.954   0.458   7.979  0.6587 -0.5054 -0.2991
 5416TIP3    H137807   2.884   0.497   8.032 -0.2687 -2.1068 -0.2656
 5416TIP3    H237808   3.034   0.496   8.013  0.0700 -1.1382  1.9954
 5417TIP3   OH237809   1.333   5.744   2.287  0.8231 -0.1930 -0.4709
 5417TIP3    H137810   1.248   5.701   2.297 -0.1609  1.6908 -0.4775
 5417TIP3    H237811   1.315   5.837   2.293  2.9460  0.2621 -0.1400
 5418TIP3   OH237812   0.342   3.261   1.624  0.0895  0.5665  0.0216
 5418TIP3    H137813   0.421   3.311   1.647 -0.7432  3.8276 -3.2064
 5418TIP3    H237814   0.376   3.181   1.582  1.5454  0.3163  1.5590
 5419TIP3   OH237815   4.935   3.794   2.902 -0.3742 -0.2224  0.2307
 5419TIP3    H137816   4.929   3.720   2.962 -0.6726 -0.3321  0.0681
 5419TIP3    H237817   4.848   3.801   2.863 -0.1971 -0.1297 -0.1644
 5420TIP3   OH237818   1.912   6.324   0.111 -0.3006 -0.3377 -0.2023
 5420TIP3    H137819   1.859   6.338   0.190 -0.2702 -1.6650  0.0656
 5420TIP3    H237820   1.998   6.298   0.143  0.0791  0.3021 -0.6676
 5421TIP3   OH237821   2.849   1.542   8.609 -0.3578 -0.1474  0.1768
 5421TIP3    H137822   2.843   1.461   8.659 -0.0511  0.0277  0.5052
 5421TIP3    H237823   2.900   1.519   8.531 -0.7800 -0.4064 -0.0222
 5422TIP3   OH237824   0.222   2.286   2.702  0.6934 -0.0231 -0.7323
 5422TIP3    H137825   0.250   2.260   2.615  0.7283 -0.3239 -0.6332
 5422TIP3    H237826   0.261   2.372   2.716  0.0846  0.3524 -1.2995
 5423TIP3   OH237827   5.777   2.829   0.665 -0.3836 -0.9538 -0.1410
 5423TIP3    H137828   5.744   2.746   0.698 -1.6742 -0.5864 -0.4167
 5423TIP3    H237829   5.710   2.893   0.690 -0.1088 -0.2397 -1.1556
 5424TIP3   OH237830   6.618   2.352   8.353  0.2403 -0.3354  0.5693
 5424TIP3    H137831   6.557   2.371   8.282  0.7895  0.2013  0.2350
 5424TIP3    H237832   6.562   2.337   8.429 -0.3173 -0.0459  0.2219
 5425TIP3   OH237833   1.797   2.587   7.068 -0.0746 -0.6318  0.5852
 5425TIP3    H137834   1.747   2.668   7.056 -0.5242 -1.1376 -1.2895
 5425TIP3    H237835   1.732   2.522   7.096 -0.0371 -0.7437  0.4144
 5426TIP3   OH237836   1.907   5.871   8.171 -0.1071 -0.2090  0.1637
 5426TIP3    H137837   1.984   5.826   8.135  0.2103 -0.0364  0.6235
 5426TIP3    H237838   1.895   5.947   8.114  1.8416  1.4139  1.7572
 5427TIP3   OH237839   2.088   2.504   1.288 -0.3823  0.5423 -0.2971
 5427TIP3    H137840   2.126   2.552   1.214  2.1448  0.8015  1.0394
 5427TIP3    H237841   1.994   2.505   1.272 -0.0812  2.3657 -2.4341
 5428TIP3   OH237842   5.849   3.785   1.441  0.4728  0.0848  0.3347
 5428TIP3    H137843   5.903   3.860   1.417 -0.6111  0.5962 -0.6209
 5428TIP3    H237844   5.762   3.822   1.454  0.2988 -0.7452  1.6837
 5429TIP3   OH237845   5.841   5.773   8.080  0.2061  0.4424 -0.4539
 5429TIP3    H137846   5.890   5.712   8.136 -0.5824  2.1144  2.2781
 5429TIP3    H237847   5.760   5.727   8.060 -0.0497  0.2429  0.9213
 5430TIP3   OH237848   2.575   2.216   8.185  0.2311  0.0382 -0.2694
 5430TIP3    H137849   2.481   2.233   8.189 -0.2646 -2.3741 -0.0846
 5430TIP3    H237850   2.584   2.141   8.126  1.5970 -2.1685  2.4797
 5431TIP3   OH237851   2.714   2.929   7.566  0.2579 -0.1358 -0.1590
 5431TIP3    H137852   2.667   3.006   7.533 -0.7765 -0.4502  0.5212
 5431TIP3    H237853   2.799   2.932   7.523 -0.3462  0.5198 -1.3403
 5432TIP3   OH237854   6.083   2.391   3.303  0.1984 -0.8777  0.5365
 5432TIP3    H137855   6.142   2.324   3.268 -1.4380 -1.7952 -0.6455
 5432TIP3    H237856   6.006   2.387   3.245  0.3987  2.6961 -0.1612
 5433TIP3   OH237857   2.720   1.747   2.438  0.2340 -0.1515  0.4136
 5433TIP3    H137858   2.758   1.708   2.359 -1.0921  1.0088 -0.8601
 5433TIP3    H237859   2.771   1.826   2.452 -0.8052  0.7306 -0.5452
 5434TIP3   OH237860   0.022   5.726   8.225 -0.3279 -0.3437 -0.2141
 5434TIP3    H137861   0.068   5.719   8.309 -0.2429 -2.2362 -0.3820
 5434TIP3    H237862  -0.070   5.716   8.247 -0.1945 -2.9477 -0.4729
 5435TIP3   OH237863   6.117   6.245   0.357 -0.5849  0.1308  0.1411
 5435TIP3    H137864   6.104   6.165   0.307 -2.6166  0.1790  0.4872
 5435TIP3    H237865   6.032   6.289   0.355 -0.3469  0.8567  2.3498
 5436TIP3   OH237866   2.328   1.457   8.183 -0.4634 -0.0057  0.1443
 5436TIP3    H137867   2.349   1.423   8.270  0.2634 -0.1808 -0.0981
 5436TIP3    H237868   2.328   1.381   8.126 -0.8543  0.1221 -0.0327
 5437TIP3   OH237869   6.140   2.334   0.543 -0.4479  0.3480 -0.3833
 5437TIP3    H137870   6.147   2.397   0.472 -0.1230 -0.7142 -1.3307
 5437TIP3    H237871   6.105   2.255   0.501 -2.0335  0.2619  0.9895
 5438TIP3   OH237872   0.907   3.668   0.436  0.0751  0.6318 -0.0975
 5438TIP3    H137873   0.975   3.729   0.465 -0.0602  0.4050  0.7515
 5438TIP3    H237874   0.865   3.640   0.518 -1.4169  1.1993 -0.6420
 5439TIP3   OH237875   1.655   1.977   0.118 -0.1361  0.2167 -0.1597
 5439TIP3    H137876   1.697   2.027   0.188  0.6471  0.0438 -0.4937
 5439TIP3    H237877   1.721   1.913   0.091  0.3153  1.5121 -2.3639
 5440TIP3   OH237878   5.170   2.680   7.267  0.0484 -0.1037  0.4309
 5440TIP3    H137879   5.160   2.690   7.172  1.5313  0.1030  0.2714
 5440TIP3    H237880   5.204   2.765   7.296 -1.8655  0.3801  1.4077
 5441TIP3   OH237881   2.085   5.422   2.066  0.0861  0.1697 -0.0923
 5441TIP3    H137882   2.085   5.366   1.989 -0.3096  0.4062 -0.2671
 5441TIP3    H237883   2.176   5.449   2.076  0.5020 -1.3715  0.6359
 5442TIP3   OH237884   5.111   2.011   0.118  0.2481  0.3181  0.2325
 5442TIP3    H137885   5.096   1.917   0.112 -2.6374  0.7200 -0.2736
 5442TIP3    H237886   5.125   2.028   0.211  0.2609 -0.5467  0.3907
 5443TIP3   OH237887   0.726   4.452   0.093  0.1378  0.1522 -0.7506
 5443TIP3    H137888   0.649   4.482   0.044  0.0291 -0.8646 -1.2254
 5443TIP3    H237889   0.703   4.365   0.124  0.8223  0.1324 -0.2690
 5444TIP3   OH237890   5.185   6.000   0.552  0.2795 -0.1723  0.0220
 5444TIP3    H137891   5.096   6.034   0.543  0.3382 -0.0249 -0.0099
 5444TIP3    H237892   5.183   5.916   0.508  0.1936 -0.1016 -0.1105
 5445TIP3   OH237893   0.299   5.720   0.430  0.1266  0.2367 -0.0328
 5445TIP3    H137894   0.273   5.639   0.475  1.5279  1.4524  3.2945
 5445TIP3    H237895   0.391   5.731   0.453  0.0695  2.5992 -0.6896
 5446TIP3   OH237896   5.948   1.866   7.336  0.6253 -0.2352  0.1968
 5446TIP3    H137897   5.980   1.866   7.426 -0.1755 -0.8284  0.4890
 5446TIP3    H237898   6.024   1.838   7.284  1.5010  1.4022  0.5092
 5447TIP3   OH237899   2.412   1.706   0.166 -0.2855  0.0133 -0.0239
 5447TIP3    H137900   2.487   1.663   0.127  0.8177 -0.5856  2.5689
 5447TIP3    H237901   2.372   1.755   0.094  2.7862  0.6661 -1.4442
 5448TIP3   OH237902   4.725   6.440   0.321 -0.2033 -0.2593 -0.4732
 5448TIP3    H137903   4.661   6.436   0.392  0.8171  0.7461  0.5526
 5448TIP3    H237904   4.810   6.443   0.366  0.5631 -1.2092 -1.7801
 5449TIP3   OH237905   0.607   1.115   6.533 -0.1705  0.4375  0.1237
 5449TIP3    H137906   0.643   1.203   6.549 -1.9331  0.9934  1.2380
 5449TIP3    H237907   0.616   1.070   6.616 -4.3580  1.5071  1.3724
 5450TIP3   OH237908   6.158   1.414   1.230 -0.0200  0.2772 -0.2754
 5450TIP3    H137909   6.245   1.393   1.264 -0.5240 -2.8336 -0.6360
 5450TIP3    H237910   6.170   1.420   1.135 -0.3563 -1.4937 -0.4645
 5451TIP3   OH237911   0.708   0.245   8.345 -0.0735 -0.2936  0.2382
 5451TIP3    H137912   0.636   0.183   8.336 -0.3649 -0.3557  2.4747
 5451TIP3    H237913   0.764   0.208   8.413  0.1346  1.4954  1.1157
 5452TIP3   OH237914   2.638   5.793   1.379 -0.1708  0.4000 -0.2583
 5452TIP3    H137915   2.621   5.747   1.461 -1.7572  0.2101 -0.6547
 5452TIP3    H237916   2.720   5.840   1.394  1.1419 -1.9454  0.4104
 5453TIP3   OH237917   5.130   0.041   0.322  0.2545  0.1717  0.3979
 5453TIP3    H137918   5.108   0.121   0.369  1.4034  0.4144  0.5516
 5453TIP3    H237919   5.171   0.071   0.241  0.5838 -0.2527  0.4017
 5454TIP3   OH237920   0.964   1.555   0.675  0.1550 -0.2143 -0.0801
 5454TIP3    H137921   1.011   1.598   0.747 -1.3313  1.5185 -0.1038
 5454TIP3    H237922   0.884   1.522   0.715  0.7792 -2.1655 -0.2920
 5455TIP3   OH237923   0.226   5.983   7.768  0.4907 -0.3155 -0.1121
 5455TIP3    H137924   0.171   5.935   7.830  1.5026 -1.8031 -0.3070
 5455TIP3    H237925   0.314   5.974   7.804  0.8636  0.2600 -0.8752
 5456TIP3   OH237926   4.279   2.045   1.739 -0.2759  0.3339  0.7280
 5456TIP3    H137927   4.279   2.065   1.646 -1.4491  0.3150  0.7125
 5456TIP3    H237928   4.325   2.119   1.779 -1.1406  1.1515  0.2725
 5457TIP3   OH237929   4.931   5.536   0.202 -0.2399  0.2317  0.1294
 5457TIP3    H137930   5.017   5.556   0.165 -0.6609  1.6608 -0.1249
 5457TIP3    H237931   4.872   5.534   0.127 -0.2681 -1.9157  0.1547
 5458TIP3   OH237932   3.807   1.157   1.587 -0.0071  0.2973 -0.3211
 5458TIP3    H137933   3.883   1.101   1.600  0.0692  0.2827 -0.8261
 5458TIP3    H237934   3.742   1.124   1.648  0.5132  0.5388  0.3810
 5459TIP3   OH237935   3.198   0.922   1.499  0.0469 -0.0731  0.4379
 5459TIP3    H137936   3.152   0.877   1.570  0.0448  0.6585  0.9131
 5459TIP3    H237937   3.181   0.869   1.422 -2.1179  0.5065  0.4629
 5460TIP3   OH237938   1.888   6.181   1.900 -0.1138 -0.5258 -0.4295
 5460TIP3    H137939   1.800   6.144   1.912  0.7308 -2.5884 -0.1193
 5460TIP3    H237940   1.910   6.220   1.984 -0.4908 -0.5531 -0.3166
 5461TIP3   OH237941   1.934   4.557   2.021 -0.0590  0.0783 -0.1816
 5461TIP3    H137942   1.924   4.481   1.964 -1.4055  0.1595 -0.0707
 5461TIP3    H237943   1.845   4.586   2.038  0.4318  2.0006 -0.6389
 5462TIP3   OH237944   0.203   6.383   8.202 -0.5768 -0.4342  0.0879
 5462TIP3    H137945   0.116   6.405   8.168 -0.6896 -1.3220 -0.2262
 5462TIP3    H237946   0.264   6.426   8.141 -0.7796 -1.9214 -1.2115
 5463TIP3   OH237947   6.289   4.721   7.856 -0.2112 -0.2174  0.2827
 5463TIP3    H137948   6.234   4.790   7.891  2.3655  2.5935 -0.8078
 5463TIP3    H237949   6.353   4.703   7.925  1.6136  1.5355 -0.8427
 5464TIP3   OH237950   6.194   6.605   1.770  0.3821 -0.8125  0.1710
 5464TIP3    H137951   6.189   6.521   1.725 -0.0072 -0.5992 -0.1861
 5464TIP3    H237952   6.280   6.640   1.745  1.4965 -2.0220  1.9784
 5465TIP3   OH237953   4.483   0.095   1.038  0.0003  0.4226  0.2393
 5465TIP3    H137954   4.575   0.119   1.027 -0.2637  1.2255 -0.3945
 5465TIP3    H237955   4.445   0.108   0.951 -0.4520 -1.1340  0.1859
 5466TIP3   OH237956   2.306   4.496   8.111 -0.4035  0.0713 -0.3311
 5466TIP3    H137957   2.234   4.491   8.174 -0.9571 -1.3645 -1.0209
 5466TIP3    H237958   2.262   4.502   8.026  0.3175  0.4279 -0.6872
 5467TIP3   OH237959   4.668   0.696   0.308  0.0306  0.4388 -0.4274
 5467TIP3    H137960   4.639   0.777   0.266 -0.5255  0.4201 -0.0985
 5467TIP3    H237961   4.614   0.691   0.388  0.0537 -0.2600 -0.4538
 5468TIP3   OH237962   3.735   0.548   1.730  0.3898 -0.3455 -0.4343
 5468TIP3    H137963   3.730   0.626   1.675  1.1974 -0.3711 -0.5502
 5468TIP3    H237964   3.735   0.475   1.667 -0.1074 -0.4353 -0.3368
 5469TIP3   OH237965   3.585   6.469   1.969 -0.5505 -0.1590 -0.2729
 5469TIP3    H137966   3.618   6.404   2.032 -0.2856 -0.6091 -0.8739
 5469TIP3    H237967   3.624   6.552   1.997 -1.2364 -0.1658  0.7692
 5470TIP3   OH237968   6.371   5.039   7.236  0.0580  0.2290  0.4405
 5470TIP3    H137969   6.329   4.972   7.181  0.7600 -0.3882  0.6390
 5470TIP3    H237970   6.463   5.013   7.240  0.3302  1.1800  0.5749
 5471TIP3   OH237971   3.187   3.394   0.759  0.3359 -0.3539 -0.3770
 5471TIP3    H137972   3.275   3.377   0.791 -0.3091 -0.2139  1.6211
 5471TIP3    H237973   3.152   3.308   0.738  0.8181 -0.4450 -0.8144
 5472TIP3   OH237974   6.043   5.577   0.077 -0.4402  0.0562 -0.4703
 5472TIP3    H137975   6.133   5.585   0.046 -0.3384  3.2767  0.2328
 5472TIP3    H237976   5.990   5.600   0.000 -0.5737 -0.1563 -0.4408
 5473TIP3   OH237977   2.614   1.585   1.535  0.5485 -0.0711  0.3775
 5473TIP3    H137978   2.581   1.674   1.548  0.8147  0.0958 -0.0621
 5473TIP3    H237979   2.561   1.531   1.593  2.0898  0.7147  2.6562
 5474TIP3   OH237980   5.259   1.220   0.815  0.2647 -0.1780  0.0520
 5474TIP3    H137981   5.245   1.186   0.727  0.4300 -0.6830  0.2162
 5474TIP3    H237982   5.249   1.315   0.806 -0.7429 -0.3040 -0.3123
 5475TIP3   OH237983   2.761   2.416   2.264  0.3987 -0.1714  0.7334
 5475TIP3    H137984   2.727   2.369   2.188  0.1553 -0.6431  1.1319
 5475TIP3    H237985   2.807   2.491   2.227  1.1368 -0.9338  0.0708
 5476TIP3   OH237986   5.056   1.725   2.041 -0.9400  0.4945 -0.2456
 5476TIP3    H137987   5.102   1.743   2.123 -3.3340  1.6710  0.9521
 5476TIP3    H237988   5.014   1.640   2.055 -1.0981  0.5546 -0.3547
 5477TIP3   OH237989   1.198   1.980   0.716  0.4668 -0.0868 -0.3459
 5477TIP3    H137990   1.256   2.017   0.782  0.8266 -0.4609 -0.4492
 5477TIP3    H237991   1.256   1.936   0.655  0.0863 -0.3094 -0.5506
 5478TIP3   OH237992   4.991   2.318   7.264  0.3905 -0.1778 -0.1091
 5478TIP3    H137993   5.034   2.233   7.273 -0.5518 -0.6227  0.3871
 5478TIP3    H237994   5.010   2.346   7.175 -1.7736 -2.3278 -1.3475
 5479TIP3   OH237995   2.633   2.766   2.069  0.2015 -0.7133  0.0805
 5479TIP3    H137996   2.665   2.856   2.072 -0.0060 -0.6473  0.2861
 5479TIP3    H237997   2.710   2.713   2.091  1.4043 -0.8596 -3.7747
 5480TIP3   OH237998   2.974   0.989   1.832  0.0960  0.2897 -0.0071
 5480TIP3    H137999   3.055   0.938   1.835 -0.4282 -0.6302  3.9748
 5480TIP3    H238000   3.002   1.079   1.851  0.2675 -0.0507  1.5083
 5481TIP3   OH238001   4.740   2.240   1.639 -0.0140 -0.8098  0.0976
 5481TIP3    H138002   4.681   2.314   1.646 -0.2350 -0.9718 -0.0445
 5481TIP3    H238003   4.709   2.178   1.705  0.2440 -0.7275  0.2986
 5482TIP3   OH238004   1.459   0.515   1.250  0.2780 -0.0524  0.0656
 5482TIP3    H138005   1.506   0.588   1.210  1.0638 -0.1399  0.7948
 5482TIP3    H238006   1.383   0.556   1.292  0.1107  0.1953 -0.4727
 5483TIP3   OH238007   6.095   1.866   1.373 -0.1019 -0.3639 -0.3810
 5483TIP3    H138008   6.071   1.774   1.379 -1.3688 -0.1091 -1.2151
 5483TIP3    H238009   6.080   1.901   1.461  0.8418 -1.0278  0.0678
 5484TIP3   OH238010   2.764   4.069   0.664  0.2638  0.3038 -0.2758
 5484TIP3    H138011   2.799   4.147   0.708 -0.5336  1.4825 -1.6635
 5484TIP3    H238012   2.670   4.085   0.657  0.1613 -0.5711 -1.0261
 5485TIP3   OH238013   4.443   4.281   0.822  0.0987 -0.3275 -0.2598
 5485TIP3    H138014   4.519   4.339   0.815 -0.5662  0.4227 -1.8188
 5485TIP3    H238015   4.476   4.195   0.796  0.2995  0.1192 -1.5517
 5486TIP3   OH238016   4.965   4.187   2.094  0.2717 -0.0378 -0.0197
 5486TIP3    H138017   4.987   4.277   2.118 -0.6019  0.3663 -0.7036
 5486TIP3    H238018   4.946   4.190   2.001  1.5534 -1.2026 -0.3579
 5487TIP3   OH238019   0.532   6.235   0.611  0.0559  0.1781  0.3925
 5487TIP3    H138020   0.529   6.321   0.570  2.0249  0.0986 -0.0310
 5487TIP3    H238021   0.623   6.226   0.642 -0.2559 -1.5052  0.9369
 5488TIP3   OH238022   2.374   6.643   0.096 -0.4563 -0.6930 -0.3039
 5488TIP3    H138023   2.396   6.721   0.147  0.8425 -0.6276 -0.9301
 5488TIP3    H238024   2.430   6.574   0.131 -0.3563 -0.9184 -0.8860
 5489TIP3   OH238025   4.274   1.084   2.284  0.1514  0.4963 -0.1640
 5489TIP3    H138026   4.268   0.996   2.320 -0.0486  0.5586 -0.0423
 5489TIP3    H238027   4.364   1.092   2.253 -0.4052 -0.5376 -2.1981
 5490TIP3   OH238028   2.641   1.037   1.057 -0.3742 -0.1390 -0.3216
 5490TIP3    H138029   2.635   1.078   1.143  0.1082 -2.2745  0.7971
 5490TIP3    H238030   2.585   1.090   1.001 -1.0119  1.0810  1.3946
 5491TIP3   OH238031   1.650   5.733   2.389 -0.0045 -0.1687  0.0629
 5491TIP3    H138032   1.707   5.656   2.386 -1.1322 -1.0946  1.1820
 5491TIP3    H238033   1.636   5.755   2.297 -0.2346 -1.7601 -0.3261
 5492TIP3   OH238034   1.852   5.983   0.139 -0.4802 -0.4825  0.5041
 5492TIP3    H138035   1.890   5.968   0.053 -1.4721 -1.8927  0.2775
 5492TIP3    H238036   1.909   6.049   0.180 -0.4522  0.8160 -1.5084
 5493TIP3   OH238037   5.015   4.669   8.281 -0.3994  0.2422 -0.1129
 5493TIP3    H138038   5.048   4.584   8.252  0.5090  0.5139  0.0871
 5493TIP3    H238039   5.035   4.729   8.209 -0.4030  0.4218  0.0328
 5494TIP3   OH238040   6.400   4.475   0.907  0.1814 -0.1705 -0.0225
 5494TIP3    H138041   6.348   4.521   0.973 -1.0472 -0.3977 -0.8028
 5494TIP3    H238042   6.353   4.393   0.892  0.2778  0.0075 -1.3902
 5495TIP3   OH238043   1.597   2.813   7.876 -0.4809 -0.1867  0.5925
 5495TIP3    H138044   1.537   2.772   7.938 -1.3654 -0.5812 -0.4991
 5495TIP3    H238045   1.658   2.862   7.932 -1.8610  0.3137  1.7280
 5496TIP3   OH238046   0.570   0.517   1.979  0.1975 -0.4158  0.4021
 5496TIP3    H138047   0.487   0.479   1.951 -0.3768  0.8670  0.2785
 5496TIP3    H238048   0.637   0.467   1.933 -0.5919 -0.3058 -0.8946
 5497TIP3   OH238049   2.410   5.143   0.271  0.1446 -0.1416 -0.0101
 5497TIP3    H138050   2.360   5.103   0.341  0.4702 -1.0396 -0.2742
 5497TIP3    H238051   2.352   5.209   0.234 -0.9861 -1.3760 -0.5188
 5498TIP3   OH238052   0.788   3.266   8.623  0.1988  0.3126 -0.1609
 5498TIP3    H138053   0.880   3.244   8.616 -0.0822 -0.4465 -2.0827
 5498TIP3    H238054   0.777   3.296   8.713  2.3397  0.5925  0.0582
 5499TIP3   OH238055   1.324   1.543   7.336 -0.6565 -0.2735  0.2956
 5499TIP3    H138056   1.290   1.629   7.363  1.6852  0.2391  1.8909
 5499TIP3    H238057   1.298   1.535   7.244  0.0058  2.6860 -0.2590
 5500TIP3   OH238058   2.691   4.616   1.415 -0.1364  0.1826  0.1430
 5500TIP3    H138059   2.681   4.583   1.326 -2.1323  0.2810  0.2778
 5500TIP3    H238060   2.733   4.701   1.405 -1.0593  0.5502 -0.7971
 5501TIP3   OH238061   4.319   2.250   2.379  0.1390  0.4778  0.2419
 5501TIP3    H138062   4.293   2.160   2.402 -0.4294 -0.0561 -2.1905
 5501TIP3    H238063   4.388   2.272   2.442  0.1371 -1.5696  1.0405
 5502TIP3   OH238064   6.245   3.287   8.141 -0.2953 -0.2213 -0.3461
 5502TIP3    H138065   6.179   3.355   8.128  0.1718  0.1704 -0.6837
 5502TIP3    H238066   6.255   3.247   8.055  0.1739 -0.0331 -0.3833
 5503TIP3   OH238067   5.313   2.694   7.579  0.0269  0.1444 -0.1306
 5503TIP3    H138068   5.226   2.733   7.577  0.8684  2.1431 -0.3559
 5503TIP3    H238069   5.321   2.657   7.667 -1.3228 -0.8384 -0.3902
 5504TIP3   OH238070   6.042   3.926   1.013  0.0663 -0.2740  0.5730
 5504TIP3    H138071   6.094   3.928   1.093 -1.1093 -0.4061  1.3700
 5504TIP3    H238072   5.966   3.872   1.035 -0.4278 -0.0662 -0.5343
 5505TIP3   OH238073   1.625   3.377   0.051 -0.5252 -0.6191 -0.2026
 5505TIP3    H138074   1.637   3.471   0.042 -1.1384  0.0178  4.0331
 5505TIP3    H238075   1.713   3.343   0.063 -0.5517  0.3241  3.7997
 5506TIP3   OH238076   0.040   5.119   0.578  0.5347  0.3019 -0.2655
 5506TIP3    H138077   0.011   5.166   0.656 -0.4915 -1.5102  0.5015
 5506TIP3    H238078   0.079   5.187   0.523  0.1047  1.8513  1.2406
 5507TIP3   OH238079   3.727   6.521   8.672  0.1518  0.2115  0.0908
 5507TIP3    H138080   3.672   6.542   8.597 -0.1903  1.2416  0.6204
 5507TIP3    H238081   3.666   6.510   8.745  0.5995  0.9573  0.5932
 5508TIP3   OH238082   1.535   1.264   0.908  0.0290 -0.3025 -0.0437
 5508TIP3    H138083   1.462   1.221   0.863  0.1025 -0.5715  0.0898
 5508TIP3    H238084   1.500   1.347   0.937  0.5187  0.7721 -2.3032
 5509TIP3   OH238085   3.262   2.176   8.079  0.3249  0.8097  0.3189
 5509TIP3    H138086   3.315   2.185   8.158  2.0852 -0.1956 -0.6945
 5509TIP3    H238087   3.194   2.242   8.089  0.8671  1.1393  2.3727
 5510TIP3   OH238088   1.945   1.139   0.746 -0.5669 -0.4039 -0.5210
 5510TIP3    H138089   1.919   1.122   0.837 -1.0217  2.5878  0.0234
 5510TIP3    H238090   2.021   1.082   0.732 -2.0608 -2.9048  0.7741
 5511TIP3   OH238091   0.539   5.863   2.272  0.0703 -0.1516 -0.3291
 5511TIP3    H138092   0.449   5.857   2.239 -0.0571  0.2340 -0.0648
 5511TIP3    H238093   0.545   5.952   2.307 -0.7963 -1.3890  3.4502
 5512TIP3   OH238094   0.856   5.925   7.835 -0.3884  0.0605  0.1904
 5512TIP3    H138095   0.931   5.983   7.822 -0.7110  1.1437  2.6324
 5512TIP3    H238096   0.892   5.837   7.821  0.0707  0.6737 -3.7328
 5513TIP3   OH238097   5.736   1.008   1.245  0.3437 -0.2351  0.0043
 5513TIP3    H138098   5.735   0.956   1.164  0.4854  0.2092 -0.2862
 5513TIP3    H238099   5.807   0.970   1.296 -0.4731 -1.2658  0.4266
 5514TIP3   OH238100   5.052   2.192   0.913  0.4674  0.5078 -0.2350
 5514TIP3    H138101   5.040   2.286   0.921  1.0324  0.5928 -0.3523
 5514TIP3    H238102   5.145   2.181   0.892  0.4725 -0.0864  0.0606
 5515TIP3   OH238103   5.034   1.500   8.615  0.5134  0.3431 -0.1552
 5515TIP3    H138104   5.043   1.452   8.532 -2.7761 -0.8390  0.0444
 5515TIP3    H238105   5.014   1.433   8.680  1.0306  1.4839  1.2385
 5516TIP3   OH238106   2.263   1.585   3.093  0.0277 -0.1789 -0.3220
 5516TIP3    H138107   2.219   1.502   3.072  0.4684 -0.2278 -1.1020
 5516TIP3    H238108   2.282   1.624   3.008  1.1387  0.0277  0.0057
 5517TIP3   OH238109   3.859   4.289   1.500 -0.1239 -0.1372  1.0246
 5517TIP3    H138110   3.856   4.208   1.449  0.6231  1.0426 -1.0014
 5517TIP3    H238111   3.929   4.274   1.564  3.4159  0.4334 -2.3485
 5518TIP3   OH238112   2.438   1.945   3.019 -0.4115  0.1221 -0.1375
 5518TIP3    H138113   2.347   1.915   3.031 -1.2403  2.0777 -1.0291
 5518TIP3    H238114   2.456   1.997   3.098  0.1621 -0.6947  0.2884
 5519TIP3   OH238115   1.072   3.747   1.624 -0.1469  0.2118 -0.2712
 5519TIP3    H138116   0.978   3.737   1.639 -0.0309 -0.0453  0.3182
 5519TIP3    H238117   1.111   3.670   1.665  0.5011  1.3985  1.4503
 5520TIP3   OH238118   5.465   0.110   8.076 -0.2691 -0.5445  0.2330
 5520TIP3    H138119   5.469   0.173   8.148 -0.4083 -1.1318  0.7705
 5520TIP3    H238120   5.555   0.078   8.066 -0.1314 -0.0187 -0.2708
 5521TIP3   OH238121   0.121   6.007   8.532 -0.1123  0.0216  0.5401
 5521TIP3    H138122   0.043   6.051   8.497 -0.1593  0.2014  0.8687
 5521TIP3    H238123   0.104   5.998   8.626 -0.2340 -0.9715  0.4305
 5522TIP3   OH238124   1.747   3.267   0.785  0.5721 -0.1099 -0.7242
 5522TIP3    H138125   1.818   3.326   0.813 -1.1980  0.7286  2.5224
 5522TIP3    H238126   1.686   3.324   0.737 -0.0771  0.2720  0.5114
 5523TIP3   OH238127   3.349   0.851   1.138  0.0385  0.2527  0.0391
 5523TIP3    H138128   3.384   0.809   1.059  0.6806  0.3517  0.2647
 5523TIP3    H238129   3.379   0.942   1.131 -0.1546  0.3328  0.2508
 5524TIP3   OH238130   0.231   2.114   0.529 -0.4345 -0.0308 -0.3477
 5524TIP3    H138131   0.233   2.035   0.474  0.3082 -0.1850 -0.1122
 5524TIP3    H238132   0.139   2.125   0.552 -0.8039  0.1469 -1.7770
 5525TIP3   OH238133   2.147   2.680   1.094  0.4165  0.0760  0.0861
 5525TIP3    H138134   2.129   2.771   1.118  0.4989  0.0794  0.1380
 5525TIP3    H238135   2.122   2.674   1.002  2.3281  0.7080 -0.5278
 5526TIP3   OH238136   4.406   4.939   0.256 -0.4826  0.1101 -0.5790
 5526TIP3    H138137   4.352   4.862   0.238 -0.2104 -0.8627  2.2047
 5526TIP3    H238138   4.368   4.976   0.336  2.8992 -0.7034  1.5983
 5527TIP3   OH238139   5.062   0.122   1.237 -0.0700  0.3394  0.2212
 5527TIP3    H138140   4.990   0.118   1.301  0.5036  1.6372  0.9875
 5527TIP3    H238141   5.081   0.215   1.228 -0.2105  0.2092 -1.9826
 5528TIP3   OH238142   1.216   6.021   1.995 -0.1136 -0.3549 -0.4901
 5528TIP3    H138143   1.272   5.988   1.925 -0.4114 -0.8581 -0.5016
 5528TIP3    H238144   1.141   5.960   1.996 -0.3901 -0.0147 -0.1198
 5529TIP3   OH238145   0.559   3.988   2.682 -0.0356  0.5718  0.1686
 5529TIP3    H138146   0.478   3.939   2.699  1.2320 -1.3929  0.8099
 5529TIP3    H238147   0.593   3.951   2.600  2.5117 -1.9358  2.2017
 5530TIP3   OH238148   5.985   5.906   7.867 -0.0427 -0.3661  0.0747
 5530TIP3    H138149   6.068   5.946   7.894  1.4493 -2.6388 -0.8467
 5530TIP3    H238150   5.923   5.931   7.936  1.0063  2.5034  0.1062
 5531TIP3   OH238151   3.572   0.983   2.124 -0.0979 -0.0563  0.6569
 5531TIP3    H138152   3.522   1.019   2.051  0.6039  0.7587  0.5575
 5531TIP3    H238153   3.635   0.924   2.084  1.4356  1.6595  0.3646
 5532TIP3   OH238154   0.709   5.822   0.194  0.2988 -0.1872 -0.0300
 5532TIP3    H138155   0.695   5.901   0.247  0.8932 -0.7177  0.9480
 5532TIP3    H238156   0.784   5.779   0.235 -0.0787 -1.3115 -0.4877
 5533TIP3   OH238157   0.942   0.616   2.058  0.2415 -0.0640 -0.8670
 5533TIP3    H138158   0.926   0.536   2.108 -0.2099 -0.2042 -1.2369
 5533TIP3    H238159   1.013   0.592   1.998  2.8784  0.9024  1.6077
 5534TIP3   OH238160   2.492   1.627   2.162  0.4688  0.0882  0.9557
 5534TIP3    H138161   2.402   1.650   2.139  0.5023 -1.7865 -1.5239
 5534TIP3    H238162   2.540   1.710   2.159 -0.3507  0.5781 -2.2819
 5535TIP3   OH238163   4.808   2.990   2.200  0.4918 -0.1548 -0.0496
 5535TIP3    H138164   4.803   2.900   2.169  1.6532 -0.5969  1.0121
 5535TIP3    H238165   4.852   2.985   2.284 -0.7174  1.2564  0.7215
 5536TIP3   OH238166   4.811   2.038   0.800  0.0009  0.2700 -0.5870
 5536TIP3    H138167   4.892   2.087   0.814  0.7078 -0.9195 -0.2789
 5536TIP3    H238168   4.806   1.978   0.875 -0.7600 -0.1969 -0.9941
 5537TIP3   OH238169   0.773   2.065   6.705  0.4131 -0.7913 -0.1128
 5537TIP3    H138170   0.723   2.026   6.777 -2.5164  2.1146 -0.3385
 5537TIP3    H238171   0.864   2.042   6.723  0.1742  1.2660  5.6410
 5538TIP3   OH238172   1.085   3.487   2.695 -0.1949 -0.2700  0.0403
 5538TIP3    H138173   1.024   3.441   2.637 -0.0949 -1.8768  1.1383
 5538TIP3    H238174   1.147   3.529   2.635 -1.5326  0.2302 -1.0502
 5539TIP3   OH238175   3.853   6.058   1.008  0.0541 -0.4079  0.2116
 5539TIP3    H138176   3.778   6.022   0.960  0.3011 -2.5137  1.2777
 5539TIP3    H238177   3.911   6.092   0.940 -0.9353 -0.5959 -0.7576
 5540TIP3   OH238178   6.284   2.599   7.866  0.5778 -0.2126 -0.0586
 5540TIP3    H138179   6.234   2.554   7.934  0.7270 -0.0178  0.1838
 5540TIP3    H238180   6.322   2.675   7.911  0.5334  0.0138 -0.4007
 5541TIP3   OH238181   0.846   4.148   7.273  0.6435 -0.5766 -0.1065
 5541TIP3    H138182   0.869   4.111   7.358  0.8603  2.9055  1.5315
 5541TIP3    H238183   0.930   4.172   7.233  0.4716 -0.8330 -0.6323
 5542TIP3   OH238184   6.330   2.585   7.307 -0.2611 -0.9825  0.4187
 5542TIP3    H138185   6.299   2.508   7.259  0.6140 -1.3210  0.3812
 5542TIP3    H238186   6.410   2.612   7.261 -1.6926  1.2875 -0.9406
 5543TIP3   OH238187   5.446   6.349   0.971  0.0301  0.1299 -0.2923
 5543TIP3    H138188   5.353   6.335   0.989 -0.1104  0.1620 -0.9559
 5543TIP3    H238189   5.490   6.279   1.019 -0.2281  0.8698  1.0664
 5544TIP3   OH238190   3.129   3.312   7.742  0.0294  0.2549 -0.1162
 5544TIP3    H138191   3.102   3.335   7.831  0.6874 -0.4103  0.2689
 5544TIP3    H238192   3.058   3.344   7.686 -2.5906 -3.0648  0.9740
 5545TIP3   OH238193   1.299   6.839   2.430 -0.4069 -0.2231  0.5576
 5545TIP3    H138194   1.310   6.854   2.524 -1.0456  0.2817  0.5587
 5545TIP3    H238195   1.353   6.906   2.389 -0.0870 -0.4764  0.5604
 5546TIP3   OH238196   1.093   3.107   2.354 -0.0859 -0.2274  0.1410
 5546TIP3    H138197   1.130   3.195   2.362 -2.1619  1.0064 -2.0913
 5546TIP3    H238198   1.158   3.058   2.304  0.1516  0.7514 -0.5470
 5547TIP3   OH238199   0.853   3.757   2.565 -0.1051 -0.3069  0.3695
 5547TIP3    H138200   0.899   3.827   2.611 -0.4577 -0.1836  0.5374
 5547TIP3    H238201   0.923   3.701   2.531  0.1592 -0.9076  1.8209
 5548TIP3   OH238202   5.732   2.056   7.447 -1.0415  0.2886  0.0708
 5548TIP3    H138203   5.795   2.093   7.386 -1.0029  2.6573  1.3983
 5548TIP3    H238204   5.716   1.967   7.416  3.4463 -0.7134  0.0553
 5549TIP3   OH238205   3.683   3.069   0.820 -0.2004  0.4865 -0.0919
 5549TIP3    H138206   3.679   2.976   0.800 -0.4543  0.2812  0.8753
 5549TIP3    H238207   3.622   3.081   0.893  0.8073  1.1699  0.6660
 5550TIP3   OH238208   2.954   0.949   3.007 -0.4833  0.0432 -0.1890
 5550TIP3    H138209   2.870   0.971   3.047 -0.4057 -0.5996  0.3399
 5550TIP3    H238210   2.971   0.858   3.033  0.1807  0.0288 -0.6290
 5551TIP3   OH238211   3.072   6.389   8.653  0.0201 -0.2318  0.1255
 5551TIP3    H138212   3.030   6.474   8.664  2.3212  0.8443  1.3115
 5551TIP3    H238213   3.064   6.347   8.739  0.6983 -0.3200  0.1507
 5552TIP3   OH238214   4.213   3.613   0.690 -0.7734 -0.1380 -0.5021
 5552TIP3    H138215   4.198   3.674   0.762 -1.0339  2.4351 -2.5917
 5552TIP3    H238216   4.167   3.534   0.716  2.1144 -0.7812  3.7625
 5553TIP3   OH238217   2.777   4.869   0.298  0.1848  0.3230  0.1747
 5553TIP3    H138218   2.719   4.923   0.352 -1.6479 -0.6071 -0.7663
 5553TIP3    H238219   2.803   4.797   0.354  1.1002  1.1442  0.8424
 5554TIP3   OH238220   0.981   2.473   7.008 -0.3051 -0.1157 -0.2094
 5554TIP3    H138221   1.064   2.506   7.043 -0.2297  0.3101 -0.7676
 5554TIP3    H238222   0.938   2.551   6.972 -0.9792 -0.3213  0.1287
 5555TIP3   OH238223   4.243   0.222   8.219  0.1947  0.2538  0.3445
 5555TIP3    H138224   4.281   0.247   8.134 -1.8584 -2.5851 -1.5827
 5555TIP3    H238225   4.172   0.284   8.233 -0.1749  0.0585 -0.6108
 5556TIP3   OH238226   0.317   5.444   8.538 -0.8739  0.1172  0.6882
 5556TIP3    H138227   0.293   5.457   8.630 -0.2381  3.2630  0.5165
 5556TIP3    H238228   0.365   5.361   8.538 -1.1301 -0.1142  3.1272
 5557TIP3   OH238229   0.199   2.766   2.042  0.4563 -0.0330 -0.2341
 5557TIP3    H138230   0.132   2.732   1.983 -0.2638 -1.3468  1.2745
 5557TIP3    H238231   0.151   2.797   2.118  1.4937 -0.1694  0.4979
 5558TIP3   OH238232   3.467   0.279   0.837  0.0792  0.0824  0.2280
 5558TIP3    H138233   3.392   0.338   0.844  1.5019  2.2300 -1.4179
 5558TIP3    H238234   3.491   0.261   0.928 -0.7664  1.5888  0.7930
 5559TIP3   OH238235   3.143   0.618   0.971 -0.2866 -0.4119  0.4306
 5559TIP3    H138236   3.138   0.583   1.059 -0.5618 -2.0613 -0.2058
 5559TIP3    H238237   3.052   0.630   0.943 -0.5090 -4.5216 -1.2991
 5560TIP3   OH238238   2.761   1.813   1.180 -0.6735  0.2698 -0.7375
 5560TIP3    H138239   2.791   1.744   1.239 -0.3461 -0.0591 -1.2792
 5560TIP3    H238240   2.726   1.881   1.238 -1.3596 -0.5171 -0.2123
 5561TIP3   OH238241   5.873   3.658   7.216  0.4534 -0.2255 -0.2305
 5561TIP3    H138242   5.792   3.639   7.168  0.6689 -1.0217 -0.2914
 5561TIP3    H238243   5.942   3.618   7.163  1.0666  1.6075 -0.8998
 5562TIP3   OH238244   1.396   2.901   1.431  0.2149  0.1619 -0.1113
 5562TIP3    H138245   1.462   2.958   1.393  2.8914 -0.9747  2.4221
 5562TIP3    H238246   1.328   2.961   1.464  0.5928  1.4624 -1.5760
 5563TIP3   OH238247   3.764   3.670   1.479  0.2784 -0.3914  0.2819
 5563TIP3    H138248   3.814   3.594   1.508 -1.6372 -2.3804 -1.2561
 5563TIP3    H238249   3.684   3.668   1.532  0.5436  1.0730  0.7865
 5564TIP3   OH238250   2.514   2.257   1.405  0.0140 -0.0061 -0.0549
 5564TIP3    H138251   2.523   2.268   1.310  0.3143 -0.1825 -0.0491
 5564TIP3    H238252   2.525   2.345   1.441  0.4903 -0.0297 -0.1423
 5565TIP3   OH238253   0.159   1.589   1.524  0.2325  0.0586  0.0827
 5565TIP3    H138254   0.171   1.642   1.445 -1.7096 -0.9837 -0.9788
 5565TIP3    H238255   0.158   1.652   1.596 -2.1480  1.5704 -1.1502
 5566TIP3   OH238256   4.113   4.546   7.720  0.0416 -0.1021  0.2681
 5566TIP3    H138257   4.069   4.542   7.805  1.1160  1.3443  0.9345
 5566TIP3    H238258   4.072   4.477   7.668 -1.3852 -0.2999  1.6031
 5567TIP3   OH238259   1.711   4.715   7.455  0.4886  0.3511 -0.1573
 5567TIP3    H138260   1.760   4.690   7.377  2.2448 -1.2908  1.3448
 5567TIP3    H238261   1.620   4.713   7.428  0.6491 -4.3003 -1.3283
 5568TIP3   OH238262   3.129   3.771   0.972  0.1863  0.0515  0.3005
 5568TIP3    H138263   3.089   3.756   1.057 -0.6302  1.4261  0.1725
 5568TIP3    H238264   3.063   3.818   0.921  1.8481  2.2630  0.0267
 5569TIP3   OH238265   5.008   3.811   8.566 -0.0825 -0.3182 -0.5638
 5569TIP3    H138266   4.979   3.727   8.602  1.1101 -0.6543 -0.3408
 5569TIP3    H238267   4.976   3.811   8.476  1.1692 -1.6942 -1.0476
 5570TIP3   OH238268   6.094   4.098   0.812 -1.1990  0.4337  0.9478
 5570TIP3    H138269   6.114   4.185   0.847  0.2127  0.3374  0.4490
 5570TIP3    H238270   6.042   4.056   0.881 -0.9529  1.2660  1.6669
 5571TIP3   OH238271   4.610   5.113   8.448 -0.1849  0.3220  0.0092
 5571TIP3    H138272   4.677   5.051   8.419 -1.1489 -0.4115 -0.7249
 5571TIP3    H238273   4.563   5.067   8.518 -0.2804  0.6071  0.1365
 5572TIP3   OH238274   4.913   6.551   0.650  0.2064  0.4233 -0.4311
 5572TIP3    H138275   4.952   6.517   0.570 -0.7569  0.4050 -0.9068
 5572TIP3    H238276   4.846   6.487   0.674 -2.4253  2.3763 -1.9659
 5573TIP3   OH238277   3.453   3.315   0.830  0.2250  0.0347  0.6634
 5573TIP3    H138278   3.528   3.361   0.868  0.0577 -0.5451  1.7375
 5573TIP3    H238279   3.445   3.236   0.883 -0.7340 -0.2427  0.1212
 5574TIP3   OH238280   6.054   4.613   2.667 -0.7149 -0.3259 -0.2004
 5574TIP3    H138281   5.959   4.617   2.683 -0.7078 -1.7766  0.3154
 5574TIP3    H238282   6.084   4.538   2.718  0.8074  0.3759  0.0026
 5575TIP3   OH238283   1.259   4.914   2.205  0.0801  0.4353 -0.5286
 5575TIP3    H138284   1.296   4.976   2.141 -0.3463  1.2520 -0.0040
 5575TIP3    H238285   1.165   4.915   2.188  0.1495 -0.6847 -1.0333
 5576TIP3   OH238286   1.608   0.368   1.418  0.3323  0.2549 -0.1217
 5576TIP3    H138287   1.560   0.418   1.351 -0.1182  0.7697  0.5773
 5576TIP3    H238288   1.585   0.277   1.400  1.3348  0.2407 -1.5501
 5577TIP3   OH238289   3.491   0.444   2.221  0.3184 -0.4990 -0.7485
 5577TIP3    H138290   3.537   0.361   2.209  0.8165 -0.0203 -2.3702
 5577TIP3    H238291   3.558   0.511   2.204 -0.6063  0.2134 -1.6678
 5578TIP3   OH238292   6.212   1.501   3.057 -0.2127  0.3964  0.1558
 5578TIP3    H138293   6.253   1.449   3.126  0.9559 -0.1987 -0.9682
 5578TIP3    H238294   6.203   1.441   2.983 -3.3591  0.4074  0.3677
 5579TIP3   OH238295   1.919   0.625   8.030  0.5009 -0.7153 -0.3790
 5579TIP3    H138296   1.863   0.648   7.956 -0.6994 -0.2041  0.6481
 5579TIP3    H238297   1.905   0.531   8.042 -1.8332 -0.2695  1.1315
 5580TIP3   OH238298   0.002   3.203   0.139 -0.1419  0.5384 -0.2085
 5580TIP3    H138299  -0.036   3.270   0.197  0.0073  0.3603  0.1005
 5580TIP3    H238300   0.093   3.198   0.167  0.3878  1.6939 -1.6148
 5581TIP3   OH238301   5.089   4.040   8.687 -0.1666 -0.7391 -0.1131
 5581TIP3    H138302   5.091   4.115   8.628  0.7452 -0.5543  0.1482
 5581TIP3    H238303   5.061   3.967   8.632  4.5485 -1.5109 -1.8925
 5582TIP3   OH238304   3.403   6.266   2.150  0.1186  0.1765  0.0524
 5582TIP3    H138305   3.308   6.278   2.145 -0.0406 -0.2191  1.5770
 5582TIP3    H238306   3.431   6.331   2.215  1.0518  1.0023 -1.1376
 5583TIP3   OH238307   3.166   1.795   7.065 -0.2927  0.4172  0.3198
 5583TIP3    H138308   3.235   1.857   7.088 -0.7734  0.7709  0.8324
 5583TIP3    H238309   3.102   1.847   7.017 -0.3997  0.1755  0.2009
 5584TIP3   OH238310   0.374   2.524   2.516  0.1449  0.0174  0.4978
 5584TIP3    H138311   0.322   2.453   2.476  0.9851 -0.0649 -0.4998
 5584TIP3    H238312   0.333   2.538   2.601 -0.5350 -1.1283  0.3925
 5585TIP3   OH238313   2.493   1.542   7.404 -0.4701 -0.4399  0.3625
 5585TIP3    H138314   2.516   1.626   7.442 -0.5440 -0.3364  0.1766
 5585TIP3    H238315   2.455   1.492   7.477 -1.0193 -0.0850  0.3232
 5586TIP3   OH238316   1.520   3.966   1.777 -0.1883 -0.0858  0.0558
 5586TIP3    H138317   1.466   3.888   1.784  0.7332 -0.8690 -1.1393
 5586TIP3    H238318   1.487   4.012   1.700 -0.1930  0.2795  0.2732
 5587TIP3   OH238319   0.127   3.439   8.651 -0.1387  0.5572  0.1633
 5587TIP3    H138320   0.122   3.360   8.598  0.4376  2.0321 -2.2581
 5587TIP3    H238321   0.219   3.443   8.679 -0.6613 -0.7517  2.2597
 5588TIP3   OH238322   5.481   0.278   1.028 -0.5436 -0.0018 -0.2365
 5588TIP3    H138323   5.452   0.360   1.069  1.0159 -0.2915  1.5774
 5588TIP3    H238324   5.411   0.216   1.046 -2.5094  1.2026 -2.9896
 5589TIP3   OH238325   2.610   3.870   2.024  0.3927 -0.0376  0.1070
 5589TIP3    H138326   2.598   3.965   2.018  1.7905  0.1016 -0.7295
 5589TIP3    H238327   2.529   3.839   2.065  0.8540  1.7540  2.6246
 5590TIP3   OH238328   0.814   1.422   0.375  0.2901 -0.3153 -0.2697
 5590TIP3    H138329   0.855   1.494   0.328  0.0747 -0.3801 -0.5572
 5590TIP3    H238330   0.848   1.343   0.334 -0.9875 -0.3737 -1.2877
 5591TIP3   OH238331   2.905   3.307   0.430 -0.6155  0.0813 -0.2059
 5591TIP3    H138332   2.872   3.352   0.508 -1.1475 -0.2675 -0.2227
 5591TIP3    H238333   2.999   3.325   0.430 -0.4832 -0.4842  0.8956
 5592TIP3   OH238334   1.876   4.788   7.843  0.2958  0.4452  0.5169
 5592TIP3    H138335   1.797   4.792   7.788 -0.5335 -1.0408  1.5118
 5592TIP3    H238336   1.949   4.795   7.781 -0.6003  1.7797 -0.4289
 5593TIP3   OH238337   2.007   0.634   1.503 -0.4000 -0.2052  0.8063
 5593TIP3    H138338   2.019   0.729   1.512  1.4363 -0.4958  1.8115
 5593TIP3    H238339   1.994   0.621   1.409 -2.8582  1.2201  0.8615
 5594TIP3   OH238340   2.112   1.865   6.911  0.2203 -0.1627  0.0557
 5594TIP3    H138341   2.070   1.791   6.954  2.2445 -0.7178  1.1833
 5594TIP3    H238342   2.052   1.938   6.925 -0.7993 -1.1019  0.7789
 5595TIP3   OH238343   4.140   4.874   1.640  0.6601  0.0891 -0.8293
 5595TIP3    H138344   4.122   4.828   1.721 -0.6378 -0.3907 -1.3614
 5595TIP3    H238345   4.176   4.808   1.581  3.0306  0.7438 -0.2267
 5596TIP3   OH238346   5.950   3.345   7.149  0.6349  0.5907 -0.4247
 5596TIP3    H138347   5.959   3.344   7.053 -0.7024  0.0965 -0.5596
 5596TIP3    H238348   5.856   3.340   7.164  0.8070  1.1476  0.9227
 5597TIP3   OH238349   4.324   4.963   0.806  0.1451 -0.1139  0.2677
 5597TIP3    H138350   4.232   4.971   0.783  0.2956  0.8701 -0.0602
 5597TIP3    H238351   4.371   4.982   0.724  0.6554  1.0238  0.8010
 5598TIP3   OH238352   1.987   3.523   0.208 -0.1253 -0.7987 -0.1678
 5598TIP3    H138353   2.044   3.505   0.283  0.8414  1.8089 -0.1859
 5598TIP3    H238354   2.045   3.562   0.142 -1.7123  0.8611 -0.6450
 5599TIP3   OH238355   6.582   0.382   0.023  0.3694  0.1229  0.3318
 5599TIP3    H138356   6.624   0.464  -0.002  1.0213  0.0566  1.1504
 5599TIP3    H238357   6.510   0.371  -0.039 -1.4279  2.6652  1.7963
 5600TIP3   OH238358   6.148   0.542   7.204  0.3590  0.1071  0.4240
 5600TIP3    H138359   6.063   0.576   7.174 -0.1294 -2.1006 -0.9657
 5600TIP3    H238360   6.213   0.597   7.161 -0.4005 -0.1170 -1.0846
 5601TIP3   OH238361   5.567   6.432   1.316  0.2482 -0.7033  0.5173
 5601TIP3    H138362   5.586   6.495   1.246  0.9880  0.1634  1.4611
 5601TIP3    H238363   5.591   6.347   1.280  2.8688 -0.0333  0.4716
 5602TIP3   OH238364   1.134   3.136   0.842  0.3959 -0.3731  0.0280
 5602TIP3    H138365   1.111   3.046   0.867 -0.2475 -0.0632  0.5792
 5602TIP3    H238366   1.103   3.145   0.752 -0.0102 -0.5412  0.1496
 5603TIP3   OH238367   2.787   1.058   2.375  0.3889 -0.3144 -0.6683
 5603TIP3    H138368   2.788   0.999   2.299 -1.7984  0.8797 -1.7471
 5603TIP3    H238369   2.694   1.071   2.393  0.6229 -3.1938  4.5092
 5604TIP3   OH238370   0.176   2.767   0.071 -0.0816 -0.1793  0.5754
 5604TIP3    H138371   0.211   2.701   0.132  0.1303 -0.7180 -0.1100
 5604TIP3    H238372   0.219   2.848   0.097  1.8183 -0.8318 -0.3001
 5605TIP3   OH238373   2.602   1.225   2.219 -0.2952 -0.2818  0.8031
 5605TIP3    H138374   2.536   1.268   2.274 -0.0286 -0.3722  1.1982
 5605TIP3    H238375   2.684   1.271   2.240  0.0737 -1.2257  1.5345
 5606TIP3   OH238376   3.845   4.774   7.541 -0.3868 -0.0605 -0.3464
 5606TIP3    H138377   3.773   4.780   7.477  0.0813 -0.2453 -0.9050
 5606TIP3    H238378   3.804   4.792   7.625 -0.7251  1.8321 -0.8751
 5607TIP3   OH238379   6.348   1.070   7.793 -0.0302 -0.4020 -0.4180
 5607TIP3    H138380   6.288   1.061   7.719  0.0232  1.2529 -0.7088
 5607TIP3    H238381   6.423   1.118   7.757  0.1454  0.1220  0.6114
 5608TIP3   OH238382   0.593   4.645   2.045 -0.0997 -0.4318  0.0574
 5608TIP3    H138383   0.562   4.735   2.054 -1.0964 -0.5214 -1.9178
 5608TIP3    H238384   0.521   4.592   2.078  0.1666 -0.5363  0.4794
 5609TIP3   OH238385   5.012   3.826   6.876  0.1702 -0.2259 -0.0848
 5609TIP3    H138386   4.987   3.734   6.864  1.0841 -0.2308 -2.3370
 5609TIP3    H238387   5.107   3.826   6.874  0.1711  0.8604 -1.1217
 5610TIP3   OH238388   2.969   3.618   8.078 -0.5179  0.4828  0.0812
 5610TIP3    H138389   2.971   3.620   7.982 -0.4590  0.7373  0.0877
 5610TIP3    H238390   2.994   3.528   8.100 -2.5219 -0.2000 -0.2043
 5611TIP3   OH238391   2.367   3.086   7.951  0.2604 -0.1850 -0.7896
 5611TIP3    H138392   2.354   3.013   7.890 -4.6109 -0.7108  0.4411
 5611TIP3    H238393   2.339   3.051   8.035  1.3690  2.1294  0.6391
 5612TIP3   OH238394   5.958   3.364   1.259  0.6251  0.0974  0.0709
 5612TIP3    H138395   5.871   3.326   1.271  0.8328 -1.3799 -2.4512
 5612TIP3    H238396   5.999   3.311   1.191  2.3052  2.7166 -1.1452
 5613TIP3   OH238397   3.508   3.892   1.791  0.2338 -0.4305 -0.2320
 5613TIP3    H138398   3.518   3.969   1.846  0.7236 -1.1908  0.7900
 5613TIP3    H238399   3.569   3.906   1.718 -0.4839  0.6240 -0.6469
 5614TIP3   OH238400   3.573   5.076   0.881  0.5825  0.4101 -0.8050
 5614TIP3    H138401   3.489   5.121   0.869  0.7316  0.5037 -1.5345
 5614TIP3    H238402   3.565   4.996   0.829  0.4000 -0.3290  0.3152
 5615TIP3   OH238403   6.205   1.349   0.642  0.0248  0.2239 -0.6095
 5615TIP3    H138404   6.288   1.301   0.639 -0.6252 -1.0661  0.4576
 5615TIP3    H238405   6.214   1.409   0.716 -1.0739 -2.2635  1.7419
 5616TIP3   OH238406   2.322   2.359   0.143  0.4827 -0.0520 -0.4220
 5616TIP3    H138407   2.361   2.275   0.119 -0.4807 -0.2306 -1.4518
 5616TIP3    H238408   2.377   2.424   0.100  1.1158 -0.1572  0.2166
 5617TIP3   OH238409   0.330   4.624   1.646 -0.2787 -0.3768 -0.9734
 5617TIP3    H138410   0.420   4.656   1.655 -0.4931  0.0011 -0.0815
 5617TIP3    H238411   0.289   4.687   1.587 -0.2016 -0.0388 -0.6706
 5618TIP3   OH238412   1.465   3.460   1.228  0.3475 -0.1289 -0.2567
 5618TIP3    H138413   1.419   3.544   1.232  0.1271 -0.2956  1.4277
 5618TIP3    H238414   1.466   3.429   1.319 -4.0203 -4.3195 -1.1908
 5619TIP3   OH238415   0.083   0.649   7.487 -0.3907 -0.5317 -0.8800
 5619TIP3    H138416   0.154   0.646   7.552 -2.0243  0.5525  1.0766
 5619TIP3    H238417   0.011   0.600   7.528 -2.0480  1.6224 -1.0634
 5620TIP3   OH238418   5.527   1.050   0.832 -0.5171  0.0302  0.1792
 5620TIP3    H138419   5.489   0.974   0.789  1.3778  0.1551 -1.8708
 5620TIP3    H238420   5.480   1.125   0.796 -1.0736 -0.0502  0.7343
 5621TIP3   OH238421   5.879   3.588   0.257  0.3112 -0.2059 -0.3349
 5621TIP3    H138422   5.840   3.504   0.281  0.7642 -0.6027 -0.9422
 5621TIP3    H238423   5.813   3.653   0.279 -0.0710 -0.7315  0.0790
 5622TIP3   OH238424   4.178   0.248   2.581 -0.0009  0.3200  0.8412
 5622TIP3    H138425   4.121   0.191   2.633 -0.4110  0.1748  0.2407
 5622TIP3    H238426   4.151   0.336   2.605 -0.4027  0.2526  0.6472
 5623TIP3   OH238427   5.342   1.012   0.010 -0.2230  0.6298 -0.2784
 5623TIP3    H138428   5.398   0.962   0.069  1.0951  0.2753 -1.7421
 5623TIP3    H238429   5.368   0.983  -0.078 -1.4407  1.8158 -1.0785
 5624TIP3   OH238430   4.503   4.446   7.574 -0.7728  0.4520 -0.2449
 5624TIP3    H138431   4.590   4.487   7.573 -0.7468  0.3945 -0.3058
 5624TIP3    H238432   4.478   4.445   7.667 -0.1957 -0.6137 -0.0833
 5625TIP3   OH238433   4.046   2.082   2.229  0.1891 -0.7562  0.7307
 5625TIP3    H138434   4.088   2.058   2.312  0.2324  0.5102  1.0974
 5625TIP3    H238435   4.054   2.004   2.175 -0.6302 -1.9238  2.2234
 5626TIP3   OH238436   2.815   3.550   1.070  0.5889 -0.1048  0.4915
 5626TIP3    H138437   2.860   3.634   1.061 -1.4767  1.3729  2.7112
 5626TIP3    H238438   2.864   3.504   1.138 -0.5892  1.1302  2.2670
 5627TIP3   OH238439   4.349   0.476   1.371  0.0782  0.1073 -0.0906
 5627TIP3    H138440   4.352   0.414   1.444 -0.4175  0.5364  0.3044
 5627TIP3    H238441   4.354   0.422   1.293 -1.3701 -0.5301  0.2231
 5628TIP3   OH238442   2.146   2.071   2.294  0.0588  0.1748  0.4091
 5628TIP3    H138443   2.084   2.000   2.285  2.1473 -1.8185  0.8013
 5628TIP3    H238444   2.101   2.136   2.349 -1.4967 -1.3708  1.0305
 5629TIP3   OH238445   4.158   3.761   0.907  0.3945 -0.5299  0.3417
 5629TIP3    H138446   4.132   3.847   0.938  1.8990 -0.3095  1.0643
 5629TIP3    H238447   4.124   3.700   0.973 -1.7974 -0.6691 -0.8180
 5630TIP3   OH238448   1.950   2.295   1.917 -0.2585 -0.1726 -0.8752
 5630TIP3    H138449   2.044   2.282   1.929 -0.0278  0.8422 -1.4880
 5630TIP3    H238450   1.910   2.234   1.979  0.8085 -0.1152 -0.0971
 5631TIP3   OH238451   4.296   5.964   8.132 -0.0815 -0.1146 -0.0463
 5631TIP3    H138452   4.279   6.046   8.177 -0.8673 -0.1459 -0.2745
 5631TIP3    H238453   4.385   5.940   8.159 -0.1426  0.4008  0.6412
 5632TIP3   OH238454   4.034   4.807   1.905 -0.2813 -0.5102 -0.4842
 5632TIP3    H138455   3.999   4.769   1.985  0.4396 -0.2168 -0.0238
 5632TIP3    H238456   3.971   4.783   1.837 -1.2176 -0.2409  0.2729
 5633TIP3   OH238457   6.500   6.592   0.356  0.3494  0.2408 -0.0734
 5633TIP3    H138458   6.493   6.685   0.338 -0.2777  0.0448 -0.8927
 5633TIP3    H238459   6.519   6.552   0.271  1.3593 -0.3065  0.3886
 5634TIP3   OH238460   0.042   4.217   1.983 -0.3113 -0.9140 -0.3806
 5634TIP3    H138461   0.030   4.299   2.032 -0.9735 -0.8553 -0.6345
 5634TIP3    H238462   0.095   4.162   2.042 -2.0001 -1.2534  0.9055
 5635TIP3   OH238463   1.424   4.090   1.543  0.5246  0.4122  0.3529
 5635TIP3    H138464   1.363   4.164   1.548 -0.3496 -0.0524 -2.3023
 5635TIP3    H238465   1.371   4.017   1.513  2.2400 -0.1859 -1.3850
 5636TIP3   OH238466   1.056   3.667   7.717  0.3025 -0.2360  0.4669
 5636TIP3    H138467   1.122   3.693   7.782  2.3459  0.8256 -1.8625
 5636TIP3    H238468   1.096   3.689   7.633 -2.0439 -1.9160 -1.2026
 5637TIP3   OH238469   2.967   5.698   8.210  0.0418 -0.1941 -0.2074
 5637TIP3    H138470   2.964   5.609   8.175 -1.6558 -0.0790 -0.4329
 5637TIP3    H238471   2.997   5.687   8.300 -1.0184 -1.1122  0.0561
 5638TIP3   OH238472   2.434   2.470   2.745 -0.4433  0.5492 -0.4418
 5638TIP3    H138473   2.520   2.494   2.779 -0.3881  2.2910 -1.6790
 5638TIP3    H238474   2.431   2.375   2.753 -0.2836  0.7077  3.9584
 5639TIP3   OH238475   4.524   0.353   7.793 -0.0077  0.0074 -0.2307
 5639TIP3    H138476   4.526   0.363   7.888 -0.7473 -1.3261 -0.0555
 5639TIP3    H238477   4.565   0.433   7.760 -0.1921  0.7181  1.1867
 5640TIP3   OH238478   2.915   4.048   3.155  0.5421 -0.2007  0.1665
 5640TIP3    H138479   2.896   3.955   3.139  0.1186 -0.0083 -0.4611
 5640TIP3    H238480   3.010   4.054   3.149  0.5567 -0.5556 -0.0121
 5641TIP3   OH238481   0.277   0.783   0.590  0.0648 -0.4755  0.4012
 5641TIP3    H138482   0.321   0.812   0.510 -1.2878 -1.6161 -0.7964
 5641TIP3    H238483   0.255   0.864   0.636  3.9127  0.2119  1.4597
 5642TIP3   OH238484   2.867   4.672   8.250 -0.4464  0.3212  0.1622
 5642TIP3    H138485   2.839   4.632   8.168  0.0631 -0.8692  0.5432
 5642TIP3    H238486   2.963   4.673   8.245 -0.3742 -0.3812  0.9874
 5643TIP3   OH238487   1.391   2.641   1.078  0.0239  0.1877  0.2966
 5643TIP3    H138488   1.470   2.666   1.031 -0.8060 -0.4002 -1.5216
 5643TIP3    H238489   1.382   2.547   1.062 -0.1893 -0.0866  1.8460
 5644TIP3   OH238490   3.819   6.430   0.290  0.0661 -0.6434  0.4462
 5644TIP3    H138491   3.727   6.413   0.269  0.2112 -0.9247  0.0456
 5644TIP3    H238492   3.819   6.439   0.386 -0.3679 -0.7017  0.4567
 5645TIP3   OH238493   1.293   0.663   2.874  0.6291  0.1927  0.0506
 5645TIP3    H138494   1.283   0.570   2.896  0.2037  0.8159  3.0021
 5645TIP3    H238495   1.382   0.671   2.841  1.0740 -1.1150  0.8444
 5646TIP3   OH238496   5.386   3.125   1.410  0.0083  0.0751  0.1429
 5646TIP3    H138497   5.390   3.166   1.323 -0.2560 -2.1258 -0.9824
 5646TIP3    H238498   5.349   3.038   1.394 -1.3860  0.1128  2.6907
 5647TIP3   OH238499   5.463   6.837   0.516 -0.1183 -0.1640 -0.2128
 5647TIP3    H138500   5.485   6.905   0.580 -1.9692 -0.0951  0.3946
 5647TIP3    H238501   5.374   6.812   0.537  0.1395 -2.0137 -1.1509
 5648TIP3   OH238502   2.030   0.927   8.011  0.2994  0.0783  0.0008
 5648TIP3    H138503   1.986   0.855   7.966  1.7615  0.3748 -2.0684
 5648TIP3    H238504   1.969   0.954   8.079 -1.2293 -1.6650 -0.5896
 5649TIP3   OH238505   4.301   6.174   2.148 -0.5217  0.2249  0.3227
 5649TIP3    H138506   4.342   6.123   2.218  0.0705 -0.8279 -0.7569
 5649TIP3    H238507   4.246   6.238   2.194 -1.9295 -1.8671  1.7233
 5650TIP3   OH238508   1.715   4.238   7.669  0.0916  0.6604 -0.1869
 5650TIP3    H138509   1.681   4.150   7.652  1.3492  0.5222 -2.4610
 5650TIP3    H238510   1.681   4.261   7.755 -2.5779 -0.9242 -0.7055
 5651TIP3   OH238511   5.175   4.088   1.604  0.0444  0.0056 -0.2214
 5651TIP3    H138512   5.134   4.173   1.588  2.2468  0.9406 -1.3828
 5651TIP3    H238513   5.258   4.092   1.556  0.5135 -2.5765  0.2251
 5652TIP3   OH238514   0.304   3.225   7.632  0.1721  0.2435  0.3740
 5652TIP3    H138515   0.221   3.242   7.677  0.7534  0.9251  1.2348
 5652TIP3    H238516   0.308   3.292   7.564  0.6076  1.0554  1.1799
 5653TIP3   OH238517   0.111   6.842   1.954  0.1511 -0.2650  0.0402
 5653TIP3    H138518   0.088   6.757   1.916 -1.1634 -0.1237  0.4556
 5653TIP3    H238519   0.069   6.842   2.040 -0.3016  0.9929 -0.1576
 5654TIP3   OH238520   0.941   3.079   7.556  0.1742 -0.5171 -0.5250
 5654TIP3    H138521   1.036   3.068   7.550  0.1951 -0.0055 -1.2395
 5654TIP3    H238522   0.918   3.039   7.640  1.2677  0.9257  0.5390
 5655TIP3   OH238523   2.778   5.595   3.205  0.2973 -0.1664  0.5585
 5655TIP3    H138524   2.820   5.509   3.210 -0.8982 -0.7078  1.9955
 5655TIP3    H238525   2.686   5.576   3.186  0.3540  0.9137 -0.9391
 5656TIP3   OH238526   5.672   0.997   8.298  0.1244  0.2738 -0.4918
 5656TIP3    H138527   5.605   1.058   8.264  2.1118  2.2760 -1.0372
 5656TIP3    H238528   5.705   0.952   8.220  1.0948  1.0886 -0.5622
 5657TIP3   OH238529   0.559   1.706   1.383 -0.1820 -0.2419  0.0288
 5657TIP3    H138530   0.626   1.670   1.324 -0.1227 -1.1791  0.6569
 5657TIP3    H238531   0.509   1.630   1.412  0.7363 -0.0132  2.3816
 5658TIP3   OH238532   1.369   1.544   1.766  0.6565  0.0010 -0.3600
 5658TIP3    H138533   1.394   1.453   1.784 -0.5167 -0.2014  0.4072
 5658TIP3    H238534   1.372   1.587   1.852 -0.0001  0.3630 -0.5093
 5659TIP3   OH238535   2.560   6.428   1.254  0.0858 -0.0034 -0.7496
 5659TIP3    H138536   2.624   6.419   1.183 -0.6910  0.6195 -1.5511
 5659TIP3    H238537   2.492   6.364   1.234  1.3919 -2.1089  1.2056
 5660TIP3   OH238538   1.655   6.373   0.640  0.3105 -0.3534 -0.5340
 5660TIP3    H138539   1.749   6.358   0.650  0.4726  1.2139  0.6840
 5660TIP3    H238540   1.639   6.456   0.686 -1.2714  0.6270 -2.6924
 5661TIP3   OH238541   3.519   0.669   8.333 -0.1483  0.5162  0.1556
 5661TIP3    H138542   3.534   0.760   8.307  0.1993  0.3795 -0.1335
 5661TIP3    H238543   3.607   0.634   8.347 -0.2375 -0.0064 -0.5426
 5662TIP3   OH238544   4.856   4.946   8.017  0.3478  0.3292 -0.2882
 5662TIP3    H138545   4.812   4.989   7.943 -1.3720  2.8130  1.9687
 5662TIP3    H238546   4.792   4.881   8.047 -0.5662  1.7837  1.0822
 5663TIP3   OH238547   0.646   2.097   1.027  0.4015 -0.2565 -0.2959
 5663TIP3    H138548   0.674   2.164   0.965  0.2898 -1.4482 -1.7003
 5663TIP3    H238549   0.558   2.073   0.998  0.2863 -0.7419  0.4185
 5664TIP3   OH238550   2.134   6.768   0.043  0.0765  0.0930  0.2430
 5664TIP3    H138551   2.210   6.709   0.041 -0.7799 -1.0708  0.4665
 5664TIP3    H238552   2.077   6.731   0.110 -1.5909 -0.2612 -1.2857
 5665TIP3   OH238553   4.548   3.300   1.104  0.7672  0.8862  0.0514
 5665TIP3    H138554   4.571   3.375   1.158  2.2013  0.6812 -0.2340
 5665TIP3    H238555   4.611   3.301   1.032 -0.0415  0.1780 -0.6957
 5666TIP3   OH238556   3.980   0.845   0.941 -0.0642 -0.0222 -0.0934
 5666TIP3    H138557   4.053   0.793   0.975 -0.2336  0.3632  0.9126
 5666TIP3    H238558   3.908   0.782   0.931 -0.9183  0.2444  3.0792
 5667TIP3   OH238559   0.550   3.766   7.980  0.2849  0.6603  0.2212
 5667TIP3    H138560   0.489   3.692   7.979  0.2755  0.6493 -1.1356
 5667TIP3    H238561   0.634   3.727   7.954  1.1403  0.5119  2.8702
 5668TIP3   OH238562   2.436   6.679   1.097  0.4416 -0.1626  0.3196
 5668TIP3    H138563   2.465   6.588   1.104 -1.0081 -0.6202  0.6411
 5668TIP3    H238564   2.375   6.691   1.170  1.3846  1.3861  0.8943
 5669TIP3   OH238565   6.485   6.739   1.194 -0.0946  0.6193  0.0247
 5669TIP3    H138566   6.397   6.772   1.211 -1.0100 -2.4024  1.9913
 5669TIP3    H238567   6.475   6.683   1.117 -0.6694 -1.8858  1.7831
 5670TIP3   OH238568   2.551   2.620   7.470 -0.2256 -0.1933  0.4260
 5670TIP3    H138569   2.550   2.535   7.426  0.0053  0.4807 -0.9491
 5670TIP3    H238570   2.636   2.623   7.513 -0.0053 -0.4477  0.0204
 5671TIP3   OH238571   0.360   3.846   0.453  0.1583  0.5029 -0.6742
 5671TIP3    H138572   0.294   3.785   0.420 -1.0329  0.2577  1.9207
 5671TIP3    H238573   0.310   3.926   0.473  0.5319  0.2134  1.5976
 5672TIP3   OH238574   6.075   6.771   7.128 -0.4790  0.4513 -0.3302
 5672TIP3    H138575   6.154   6.718   7.127 -0.3930  0.5761 -0.2866
 5672TIP3    H238576   6.034   6.754   7.043 -0.3890  0.4084 -0.3655
 5673TIP3   OH238577   2.801   0.465   0.249  0.1800  0.2158 -0.5432
 5673TIP3    H138578   2.710   0.463   0.280  0.3729 -1.3614 -0.0278
 5673TIP3    H238579   2.826   0.373   0.241  2.3688  0.5859  1.1694
 5674TIP3   OH238580   2.052   1.345   0.971 -0.5165  0.2275  0.0502
 5674TIP3    H138581   2.063   1.334   1.065  0.8305 -1.2568 -0.2327
 5674TIP3    H238582   2.124   1.295   0.932 -1.0788  0.7462 -1.7717
 5675TIP3   OH238583   2.493   3.637   7.389  1.0270  0.5662 -0.4971
 5675TIP3    H138584   2.519   3.595   7.307  1.0888  1.1614 -0.7884
 5675TIP3    H238585   2.569   3.628   7.446  0.7216 -0.4991 -0.2416
 5676TIP3   OH238586   6.501   1.688   8.261 -0.0457  0.2871 -0.1069
 5676TIP3    H138587   6.567   1.630   8.224  0.7581  0.7225  0.6129
 5676TIP3    H238588   6.448   1.715   8.185 -1.3276 -2.4304 -0.2780
 5677TIP3   OH238589   5.832   6.090   7.556  0.0289 -0.2973 -0.6039
 5677TIP3    H138590   5.853   6.159   7.619 -0.4869  0.8499 -1.6657
 5677TIP3    H238591   5.781   6.133   7.488 -0.4944 -1.7742 -1.1919
 5678TIP3   OH238592   3.808   3.413   7.417 -0.2187 -0.3099  0.0684
 5678TIP3    H138593   3.732   3.437   7.471 -0.8215  2.0411 -1.6760
 5678TIP3    H238594   3.771   3.364   7.344 -0.2166  1.5643 -1.2281
 5679TIP3   OH238595   5.455   5.244   1.922 -0.1201  0.0061 -0.5436
 5679TIP3    H138596   5.398   5.320   1.909  0.1034  0.2426 -0.1514
 5679TIP3    H238597   5.405   5.186   1.980 -0.0188  0.1535 -0.3074
 5680TIP3   OH238598   5.279   5.200   0.433 -0.6982 -0.4235 -0.3165
 5680TIP3    H138599   5.310   5.288   0.414  0.6791 -0.8085  0.0516
 5680TIP3    H238600   5.212   5.183   0.366 -1.7778  1.2811  0.2784
 5681TIP3   OH238601   3.586   0.310   2.545 -0.4877 -0.4788 -0.3904
 5681TIP3    H138602   3.680   0.329   2.540 -1.0340  2.7786 -0.3057
 5681TIP3    H238603   3.545   0.395   2.555 -3.2921 -1.9637  2.8198
 5682TIP3   OH238604   5.732   2.836   0.388 -0.5770 -0.0678  0.3979
 5682TIP3    H138605   5.755   2.826   0.481  1.4157 -1.4037 -0.1727
 5682TIP3    H238606   5.640   2.811   0.384 -1.0690  1.1815  2.1643
 5683TIP3   OH238607   6.130   5.132   0.158 -0.6284 -0.5348 -0.4410
 5683TIP3    H138608   6.161   5.096   0.075 -1.0194  1.0639 -1.3064
 5683TIP3    H238609   6.038   5.151   0.143 -0.2588  1.5328 -0.2938
 5684TIP3   OH238610   3.089   0.400   8.358  0.2523 -0.3882 -0.3167
 5684TIP3    H138611   3.166   0.437   8.315 -0.2457  1.1454  0.0623
 5684TIP3    H238612   3.102   0.419   8.451  0.7138 -2.5656  0.1292
 5685TIP3   OH238613   5.599   2.570   7.733  0.5052 -0.3455  0.1627
 5685TIP3    H138614   5.556   2.638   7.786  1.4364 -1.7939  2.9843
 5685TIP3    H238615   5.689   2.601   7.723  1.0185 -1.2216  1.7308
 5686TIP3   OH238616   4.876   4.964   1.606 -0.8384  0.0111  0.0143
 5686TIP3    H138617   4.851   4.879   1.643  0.3243 -0.2554  0.2211
 5686TIP3    H238618   4.933   4.941   1.532  1.7320  0.5816  1.6639
 5687TIP3   OH238619   5.451   4.098   7.573 -0.0596  0.4630 -0.1639
 5687TIP3    H138620   5.360   4.124   7.592  0.0672  1.3186 -0.6400
 5687TIP3    H238621   5.496   4.102   7.657 -0.2891  0.8052 -0.0561
 5688TIP3   OH238622   5.837   1.946   2.064  0.1145 -0.7850  0.5416
 5688TIP3    H138623   5.923   1.906   2.082 -0.0536 -0.8656  1.1929
 5688TIP3    H238624   5.799   1.890   1.996  1.6626  0.7862 -1.7529
 5689TIP3   OH238625   3.269   5.889   1.559 -0.7810  0.0642 -0.1419
 5689TIP3    H138626   3.295   5.961   1.617 -0.6971  0.3514 -0.5327
 5689TIP3    H238627   3.349   5.866   1.512 -1.3752  1.5715 -2.0312
 5690TIP3   OH238628   2.141   3.285   8.154  0.4961  0.0506 -0.1794
 5690TIP3    H138629   2.108   3.199   8.127  0.1840  0.9099 -2.8310
 5690TIP3    H238630   2.165   3.274   8.245 -2.0112 -2.1318  0.3408
 5691TIP3   OH238631   2.554   6.821   6.818  0.1171  0.1901 -0.4387
 5691TIP3    H138632   2.562   6.747   6.878  0.7222 -0.1066 -0.8702
 5691TIP3    H238633   2.460   6.840   6.816  0.0744  0.1295  0.4931
 5692TIP3   OH238634   1.164   3.139   6.975 -0.2837  0.2095  0.0131
 5692TIP3    H138635   1.094   3.189   6.933 -0.4067 -0.7292 -0.9380
 5692TIP3    H238636   1.145   3.048   6.954  2.3187  0.0179 -2.0716
 5693TIP3   OH238637   4.040   3.524   0.268 -0.3114 -0.4208 -0.2154
 5693TIP3    H138638   3.981   3.541   0.341  1.2298  0.3991  0.8861
 5693TIP3    H238639   4.118   3.576   0.287 -0.2609  0.7002 -3.0177
 5694TIP3   OH238640   3.177   3.092   6.828  0.0456  0.0525 -0.3318
 5694TIP3    H138641   3.098   3.038   6.820  0.6778 -0.6877 -1.9070
 5694TIP3    H238642   3.243   3.045   6.777  1.8249  0.1179  1.7791
 5695TIP3   OH238643   3.131   3.369   6.894 -0.1350 -0.0266 -0.5704
 5695TIP3    H138644   3.164   3.281   6.874 -0.7737 -0.1914 -0.9239
 5695TIP3    H238645   3.209   3.423   6.900  0.5603 -1.1643  2.5918
 5696TIP3   OH238646   6.836   6.007   0.076 -0.3748 -0.3547  0.6317
 5696TIP3    H138647   6.744   6.030   0.090  0.3332  2.1634  1.6276
 5696TIP3    H238648   6.871   5.996   0.164  0.5778  0.0867  0.3150
 5697TIP3   OH238649   5.172   0.010   2.771 -0.2496  0.1379  0.8588
 5697TIP3    H138650   5.131  -0.076   2.781  0.3954 -0.4979 -1.4016
 5697TIP3    H238651   5.100   0.067   2.742 -0.2019 -0.2454 -0.0537
 5698TIP3   OH238652   3.186   4.046   7.612 -0.0321  0.3766 -0.2020
 5698TIP3    H138653   3.090   4.048   7.616 -0.1270 -2.5384  1.6374
 5698TIP3    H238654   3.205   4.034   7.519 -1.6949 -2.6045 -0.2764
 5699TIP3   OH238655   5.336   5.503   1.250 -0.3729  0.1267 -0.4844
 5699TIP3    H138656   5.344   5.442   1.324 -0.7677 -0.1909 -0.7017
 5699TIP3    H238657   5.340   5.447   1.172  1.5395  0.5986 -0.7723
 5700TIP3   OH238658   6.549   2.672   7.131 -0.2011 -0.4202 -0.1796
 5700TIP3    H138659   6.627   2.723   7.111 -1.0420  0.1862 -2.2664
 5700TIP3    H238660   6.478   2.718   7.085 -1.8576 -0.8188  1.7902
 5701TIP3   OH238661   2.353   3.752   8.136 -0.4191  0.2829  0.7494
 5701TIP3    H138662   2.269   3.771   8.093 -0.6026 -1.4916  0.2439
 5701TIP3    H238663   2.417   3.800   8.084 -0.8881 -0.1160 -0.2196
 5702TIP3   OH238664   4.596   1.249   7.417 -0.7006  0.2390 -0.3310
 5702TIP3    H138665   4.671   1.231   7.474 -0.5360  0.3656 -0.5056
 5702TIP3    H238666   4.615   1.336   7.380 -1.4370  0.7380  0.4343
 5703TIP3   OH238667   2.813   2.618   1.222 -0.3091 -0.1918  0.3483
 5703TIP3    H138668   2.872   2.544   1.216 -0.4433 -0.2487 -0.2671
 5703TIP3    H238669   2.866   2.694   1.198 -0.1442 -0.0650  1.0752
 5704TIP3   OH238670   5.828   5.759   0.760  0.0568  0.3088  0.3625
 5704TIP3    H138671   5.920   5.745   0.783  0.3497  1.4512 -0.0643
 5704TIP3    H238672   5.810   5.850   0.784 -0.4079  0.7075 -1.3173
 5705TIP3   OH238673   2.938   4.918   8.375 -0.0232  0.3934 -0.2239
 5705TIP3    H138674   2.897   4.832   8.364 -2.6033  1.3793  0.8994
 5705TIP3    H238675   2.899   4.972   8.306  1.1523  0.8405 -0.5670
 5706TIP3   OH238676   5.493   4.311   1.877 -0.1012 -0.0983  0.2158
 5706TIP3    H138677   5.447   4.232   1.904  0.2413 -0.2681  0.3123
 5706TIP3    H238678   5.586   4.291   1.891  0.0457  0.0208 -0.5345
 5707TIP3   OH238679   2.730   1.084   1.771  0.2774  0.2506 -0.0195
 5707TIP3    H138680   2.814   1.041   1.790 -0.9390 -1.0499  3.1813
 5707TIP3    H238681   2.676   1.067   1.848 -3.3671  0.0571 -2.3302
 5708TIP3   OH238682   1.893   6.695   0.731 -0.0756 -0.1415  0.5396
 5708TIP3    H138683   1.912   6.786   0.712  2.4663 -0.9336 -1.1726
 5708TIP3    H238684   1.868   6.694   0.824 -1.6215  2.4016  0.2480
 5709TIP3   OH238685   2.085   4.388   8.320  0.4645  0.8049 -0.3531
 5709TIP3    H138686   2.053   4.301   8.342  0.1278  0.5459 -1.7541
 5709TIP3    H238687   2.010   4.446   8.334  0.0738  0.5565 -1.2918
 5710TIP3   OH238688   1.467   6.121   0.913 -0.2374  0.8240  0.0264
 5710TIP3    H138689   1.525   6.111   0.838 -0.3026  2.9073 -0.3536
 5710TIP3    H238690   1.381   6.138   0.874 -1.0725 -1.6603  0.5887
 5711TIP3   OH238691   4.805   0.369   8.323 -0.0513  0.2081  0.3434
 5711TIP3    H138692   4.791   0.276   8.342  1.1351 -0.4477 -1.5535
 5711TIP3    H238693   4.718   0.408   8.326 -1.0605 -1.6204 -1.6748
 5712TIP3   OH238694   0.014   3.560   7.708  0.2768  0.5698  0.4133
 5712TIP3    H138695   0.078   3.575   7.779 -0.4867  0.1633  1.1970
 5712TIP3    H238696   0.035   3.628   7.644  2.9068 -0.8440 -0.3912
 5713TIP3   OH238697   5.951   0.691   7.624  0.6334 -0.3604  0.1690
 5713TIP3    H138698   5.859   0.672   7.638  0.9448 -1.7673  0.4200
 5713TIP3    H238699   5.953   0.743   7.544 -0.1428 -2.8877 -1.5931
 5714TIP3   OH238700   5.336   6.054   7.249 -0.0229  0.1776  0.4341
 5714TIP3    H138701   5.265   5.991   7.255 -0.3939  0.6546  1.2601
 5714TIP3    H238702   5.323   6.098   7.165  0.4223 -1.0456 -0.2903
 5715TIP3   OH238703   4.423   2.640   1.818  0.7389 -0.2325  0.2771
 5715TIP3    H138704   4.361   2.696   1.771  1.7046  1.2795  0.7141
 5715TIP3    H238705   4.472   2.596   1.749  0.5320  0.1252 -0.1051
 5716TIP3   OH238706   6.097   2.374   1.330 -0.2839  0.6694 -0.1648
 5716TIP3    H138707   6.127   2.409   1.246 -0.2855  2.2352  0.4359
 5716TIP3    H238708   6.050   2.294   1.308  1.8404 -0.3292 -1.4201
 5717TIP3   OH238709   1.435   1.718   2.721  0.3128 -0.0967  0.0394
 5717TIP3    H138710   1.504   1.760   2.772 -0.7857  0.7920  0.8209
 5717TIP3    H238711   1.354   1.747   2.761 -0.5425 -0.8049 -1.1219
 5718TIP3   OH238712   1.615   5.989   1.348 -0.2839 -0.2982 -0.1833
 5718TIP3    H138713   1.593   6.053   1.280 -0.0192  0.6751  0.6308
 5718TIP3    H238714   1.531   5.948   1.370 -0.5430  0.1257 -0.3635
 5719TIP3   OH238715   6.561   5.106   0.772  0.7196 -0.1439  0.7274
 5719TIP3    H138716   6.489   5.112   0.835 -0.2465  0.1867 -0.3663
 5719TIP3    H238717   6.591   5.016   0.778 -0.6454 -0.6561  0.3130
 5720TIP3   OH238718   3.368   3.232   3.088  0.3286  0.7133 -0.1538
 5720TIP3    H138719   3.304   3.163   3.076  0.3623  0.2699  1.9128
 5720TIP3    H238720   3.323   3.299   3.139  0.8693  1.4030 -0.5456
 5721TIP3   OH238721   1.662   4.801   0.425 -0.6732  0.1671  0.3923
 5721TIP3    H138722   1.575   4.781   0.390 -0.4065  0.0606 -0.2320
 5721TIP3    H238723   1.712   4.827   0.348  0.4110 -1.6892  0.4182
 5722TIP3   OH238724   3.266   6.665   1.365  0.0414  0.4588  0.3343
 5722TIP3    H138725   3.248   6.600   1.296 -0.0560  0.9037 -0.0692
 5722TIP3    H238726   3.223   6.629   1.443  0.6946 -0.3631  0.3278
 5723TIP3   OH238727   0.980   3.279   7.218 -0.9588  0.3261  0.8037
 5723TIP3    H138728   0.981   3.206   7.156 -0.1651 -0.6075  1.8851
 5723TIP3    H238729   1.026   3.349   7.172  0.8876 -0.8011  0.8145
 5724TIP3   OH238730   2.108   5.393   1.574 -0.4217  0.2874 -0.1583
 5724TIP3    H138731   2.107   5.437   1.659 -0.4026 -0.7975  0.4321
 5724TIP3    H238732   2.072   5.457   1.513  2.2232  2.1795  0.0819
 5725TIP3   OH238733   5.730   1.280   0.736 -0.2738 -0.2226  0.5111
 5725TIP3    H138734   5.684   1.297   0.654  2.1664  0.7558 -0.7323
 5725TIP3    H238735   5.674   1.218   0.782 -0.5770 -2.8148 -2.9760
 5726TIP3   OH238736   6.393   2.933   2.372  0.1512 -0.3319  0.3716
 5726TIP3    H138737   6.409   2.840   2.385  0.0439 -0.2651  1.0186
 5726TIP3    H238738   6.330   2.956   2.440 -0.8740 -0.0754 -0.6246
 5727TIP3   OH238739   2.128   1.073   1.303 -0.1697 -0.0161 -0.2984
 5727TIP3    H138740   2.210   1.120   1.320  0.0712 -0.4182 -0.3517
 5727TIP3    H238741   2.065   1.143   1.284  0.2249  0.2848 -0.5355
 5728TIP3   OH238742   4.870   6.662   1.380 -0.3076  0.1704 -0.4864
 5728TIP3    H138743   4.959   6.630   1.363 -0.1616 -0.2740  0.9288
 5728TIP3    H238744   4.874   6.695   1.470 -1.9182 -1.1443  0.1145
 5729TIP3   OH238745   2.713   2.545   2.767 -0.1650 -0.2116  0.3523
 5729TIP3    H138746   2.723   2.515   2.677  0.3593 -1.4040  0.7951
 5729TIP3    H238747   2.795   2.589   2.788 -0.7227  1.1074 -0.1105
 5730TIP3   OH238748   3.941   6.815   7.707 -0.1761 -0.9950  0.0265
 5730TIP3    H138749   4.021   6.811   7.654  0.1141 -0.1139  0.3703
 5730TIP3    H238750   3.954   6.891   7.764 -1.3153 -0.7554 -0.0083
 5731TIP3   OH238751   2.132   3.540   2.840  0.7930  0.2168  0.3137
 5731TIP3    H138752   2.084   3.461   2.861 -0.5053  0.9206  0.0971
 5731TIP3    H238753   2.152   3.531   2.747  0.9190  0.0049  0.3607
 5732TIP3   OH238754   1.794   2.236   1.418  0.4124 -0.2996  0.6175
 5732TIP3    H138755   1.806   2.223   1.512  0.2790 -0.3960  0.6230
 5732TIP3    H238756   1.745   2.158   1.390 -0.2064  0.0796  0.6061
 5733TIP3   OH238757   4.582   1.959   1.472  0.1382  0.0135  0.2550
 5733TIP3    H138758   4.511   2.018   1.447  1.1519  1.3979  0.5111
 5733TIP3    H238759   4.662   2.010   1.456  1.0664 -1.3623  0.3232
 5734TIP3   OH238760   3.509   2.234   2.973 -0.7871  0.3032 -0.0782
 5734TIP3    H138761   3.455   2.183   3.033  0.1793 -0.6350  0.0165
 5734TIP3    H238762   3.491   2.197   2.886  0.8889 -1.1351  0.1372
 5735TIP3   OH238763   3.683   2.628   0.855  0.4336 -0.4462 -0.1371
 5735TIP3    H138764   3.748   2.558   0.849  2.1296  0.9030  1.4482
 5735TIP3    H238765   3.701   2.684   0.780  0.6500 -0.4444 -0.0844
 5736TIP3   OH238766   2.682   6.722   8.595 -0.5188 -0.2624  0.1826
 5736TIP3    H138767   2.661   6.693   8.506  1.1787 -3.0013  0.5654
 5736TIP3    H238768   2.755   6.783   8.584 -1.1198  0.3812 -0.3464
 5737TIP3   OH238769   3.700   6.278   2.196 -0.9522  0.2630 -0.0552
 5737TIP3    H138770   3.786   6.247   2.224 -1.2780 -1.1025 -0.4656
 5737TIP3    H238771   3.660   6.313   2.275 -1.1547 -1.8624  0.8556
 5738TIP3   OH238772   5.024   6.297   7.780  0.5281 -0.0957  0.2833
 5738TIP3    H138773   5.078   6.251   7.715 -0.7168 -0.4816 -0.5055
 5738TIP3    H238774   5.013   6.385   7.742  2.2729  0.6705  1.4269
 5739TIP3   OH238775   4.645   5.166   1.251  0.2458 -0.0005  0.2255
 5739TIP3    H138776   4.630   5.251   1.292  0.0564 -0.5010  1.2252
 5739TIP3    H238777   4.578   5.159   1.183 -0.4137  0.2008  0.8483
 5740TIP3   OH238778   3.415   0.690   0.898  0.6312  0.1584  0.1950
 5740TIP3    H138779   3.331   0.658   0.929  1.3937  0.2958  2.5709
 5740TIP3    H238780   3.408   0.686   0.802 -1.8026 -0.4436  0.3319
 5741TIP3   OH238781   5.840   4.096   7.505  0.0870 -0.1341 -0.3965
 5741TIP3    H138782   5.902   4.163   7.535 -2.0006  2.0869 -0.7096
 5741TIP3    H238783   5.773   4.092   7.574  0.4638 -2.4444 -0.0723
 5742TIP3   OH238784   5.878   0.976   7.792  0.3474  0.3383  0.0927
 5742TIP3    H138785   5.922   0.891   7.792  0.2426  0.2234 -2.1644
 5742TIP3    H238786   5.793   0.959   7.753 -0.8699  1.0017  2.2585
 5743TIP3   OH238787   0.357   1.378   0.686 -0.1520 -0.2063 -0.5217
 5743TIP3    H138788   0.450   1.388   0.662 -0.1843  0.3724 -0.4258
 5743TIP3    H238789   0.356   1.306   0.748 -0.1457 -2.1848 -2.6969
 5744TIP3   OH238790   3.014   4.578   1.548 -0.0295 -0.2712 -0.0330
 5744TIP3    H138791   3.059   4.631   1.614 -1.1502 -1.1028  1.4557
 5744TIP3    H238792   3.080   4.514   1.521  0.9042  0.9799 -0.8406
 5745TIP3   OH238793   1.386   3.049   1.915  0.1344 -0.2578 -0.0327
 5745TIP3    H138794   1.446   3.012   1.981  0.6869  0.9655  0.1857
 5745TIP3    H238795   1.305   3.000   1.927  0.1758  0.0177  1.6647
 5746TIP3   OH238796   6.634   2.860   0.096  0.3951 -0.3014 -0.2684
 5746TIP3    H138797   6.649   2.816   0.012 -2.1545 -1.8605 -0.0040
 5746TIP3    H238798   6.580   2.936   0.074  0.1086 -0.4553 -0.1032
 5747TIP3   OH238799   1.762   6.484   7.909  0.0173 -0.0625  0.6928
 5747TIP3    H138800   1.801   6.531   7.835  0.9236  0.2398  1.3422
 5747TIP3    H238801   1.761   6.547   7.980 -0.5585 -0.4438  1.0345
 5748TIP3   OH238802   0.495   0.579   1.230  0.1614 -0.3906  0.1547
 5748TIP3    H138803   0.400   0.568   1.234  0.1130 -0.5163 -1.0475
 5748TIP3    H238804   0.523   0.581   1.322 -0.9966 -0.3588  0.5182
 5749TIP3   OH238805   5.569   6.149   7.049  0.8563  0.3933 -0.2611
 5749TIP3    H138806   5.487   6.186   7.017  1.1983  0.1323 -1.5079
 5749TIP3    H238807   5.625   6.226   7.065  1.2870  0.5137 -2.0696
 5750TIP3   OH238808   4.456   5.123   1.505 -1.0127 -0.6728 -0.0556
 5750TIP3    H138809   4.427   5.214   1.501 -0.8468 -0.6016  0.3429
 5750TIP3    H238810   4.441   5.089   1.416  0.5756  0.2459 -0.7087
 5751TIP3   OH238811   2.268   4.612   1.584 -0.1273 -0.1475 -0.1715
 5751TIP3    H138812   2.339   4.568   1.630  1.6256  1.2051 -1.4274
 5751TIP3    H238813   2.214   4.650   1.654  2.3874  1.7732  0.8956
 5752TIP3   OH238814   3.819   1.103   0.666  0.3990  0.3486  0.2257
 5752TIP3    H138815   3.907   1.071   0.648 -0.2279 -0.0040 -2.7599
 5752TIP3    H238816   3.761   1.032   0.639 -0.8491  1.8489 -1.3251
 5753TIP3   OH238817   5.205   4.424   0.857  0.3840  0.4397  0.0873
 5753TIP3    H138818   5.212   4.518   0.872 -0.2644  0.8035 -1.6615
 5753TIP3    H238819   5.291   4.389   0.881 -0.1177  1.0445  3.2411
 5754TIP3   OH238820   6.142   0.527   8.490 -0.1953  0.3153  0.3223
 5754TIP3    H138821   6.118   0.585   8.418  2.7801  2.5771  0.9616
 5754TIP3    H238822   6.140   0.582   8.568  1.3840 -0.7366  1.1792
 5755TIP3   OH238823   2.150   1.923   3.067 -0.2897 -0.3537 -0.0789
 5755TIP3    H138824   2.124   2.015   3.062  1.1769  0.1476  0.7779
 5755TIP3    H238825   2.113   1.884   2.988  1.0978  1.5312 -1.7708
 5756TIP3   OH238826   1.861   5.744   2.660 -0.5660  0.3438  0.4326
 5756TIP3    H138827   1.916   5.670   2.686  1.4582  0.6600 -2.4918
 5756TIP3    H238828   1.918   5.821   2.669 -1.4911  1.0905  0.0923
 5757TIP3   OH238829   0.901   5.879   1.133  0.8039  0.6231 -0.0237
 5757TIP3    H138830   0.844   5.902   1.206 -0.2827 -1.6276 -0.0874
 5757TIP3    H238831   0.849   5.896   1.055  0.7579 -0.0313 -0.1396
 5758TIP3   OH238832   2.041   2.945   1.698 -0.4491  0.2370  0.3909
 5758TIP3    H138833   1.994   3.028   1.706 -0.2269  0.2387  2.0917
 5758TIP3    H238834   2.102   2.945   1.771  0.2897 -0.9798 -0.1864
 5759TIP3   OH238835   4.992   6.187   0.644 -0.0942  0.1323 -0.1740
 5759TIP3    H138836   4.939   6.267   0.644 -0.7434 -0.2794 -1.4306
 5759TIP3    H238837   5.021   6.178   0.735  0.4689  2.1021 -0.1062
 5760TIP3   OH238838   1.914   5.946   2.109  0.3025 -0.2828  0.2159
 5760TIP3    H138839   1.835   5.892   2.105  1.1251 -1.5331  0.2675
 5760TIP3    H238840   1.925   5.979   2.020  0.4418 -1.1864 -0.1129
 5761TIP3   OH238841   2.054   4.703   1.771 -0.1919 -0.4392 -0.4318
 5761TIP3    H138842   1.976   4.667   1.727  0.2428 -1.4526 -0.3966
 5761TIP3    H238843   2.035   4.695   1.864 -0.6754  0.7458 -0.4092
 5762TIP3   OH238844   1.921   1.854   2.347 -0.1874 -0.3991  0.2985
 5762TIP3    H138845   1.871   1.841   2.427 -0.8189 -2.3137 -0.3464
 5762TIP3    H238846   1.971   1.773   2.337  1.3117  0.5734 -0.2680
 5763TIP3   OH238847   0.617   6.345   7.629 -0.5559  0.0900  0.0443
 5763TIP3    H138848   0.696   6.307   7.667 -0.8812 -1.8630 -1.0669
 5763TIP3    H238849   0.648   6.425   7.585  0.8129 -0.5899 -0.3090
 5764TIP3   OH238850   5.144   0.846   0.864  0.3411 -1.0566  0.0435
 5764TIP3    H138851   5.080   0.910   0.895 -0.9341 -1.7502 -1.0628
 5764TIP3    H238852   5.215   0.850   0.928 -0.3902  0.3790  0.8076
 5765TIP3   OH238853   3.185   5.541   2.171 -0.4296  0.2949 -0.6324
 5765TIP3    H138854   3.245   5.589   2.228 -2.1634  1.1157  0.5580
 5765TIP3    H238855   3.182   5.453   2.208 -0.0984  0.2927 -0.6055
 5766TIP3   OH238856   0.259   6.574   0.927  0.5594  0.4199  0.0393
 5766TIP3    H138857   0.332   6.552   0.985 -0.0887  0.5507  0.9228
 5766TIP3    H238858   0.253   6.669   0.931  0.3975  0.4163 -0.1088
 5767TIP3   OH238859   5.966   2.592   0.851  0.3714  0.1323  0.6088
 5767TIP3    H138860   6.035   2.656   0.834  0.9194  0.4515  3.5651
 5767TIP3    H238861   5.930   2.616   0.936  0.6732 -3.5170  1.9671
 5768TIP3   OH238862   5.059   0.673   7.244  0.5990  0.2204 -0.1553
 5768TIP3    H138863   5.031   0.631   7.325  2.6069 -0.2958  0.3063
 5768TIP3    H238864   5.044   0.767   7.259  0.0730  0.0498  0.4272
 5769TIP3   OH238865   1.153   2.897   3.111 -0.2262 -0.0488  0.8701
 5769TIP3    H138866   1.118   2.970   3.163  0.8445  0.5805  0.7423
 5769TIP3    H238867   1.086   2.880   3.045 -0.6754  0.5406  1.1592
 5770TIP3   OH238868   6.172   6.345   0.024  0.3156  0.5755 -0.2608
 5770TIP3    H138869   6.250   6.371   0.073  1.6933 -0.8582 -1.5951
 5770TIP3    H238870   6.145   6.262   0.063  0.5534  0.1581 -0.9739
 5771TIP3   OH238871   1.060   0.031   7.549  0.0600 -0.3097  0.2212
 5771TIP3    H138872   1.078   0.108   7.603 -0.8033 -0.8638  1.3417
 5771TIP3    H238873   0.994   0.060   7.487 -1.2168 -0.4393  1.4626
 5772TIP3   OH238874   5.896   0.572   0.254 -0.2396  0.4232 -0.5486
 5772TIP3    H138875   5.808   0.533   0.260  0.7248 -1.6359  1.6582
 5772TIP3    H238876   5.913   0.608   0.341  2.1332 -1.7878  0.0216
 5773TIP3   OH238877   3.888   4.870   8.268  0.1339 -0.0075 -0.2443
 5773TIP3    H138878   3.882   4.961   8.299  0.0062  0.4304 -1.5057
 5773TIP3    H238879   3.875   4.817   8.347  0.0101  1.0643  0.4763
 5774TIP3   OH238880   1.982   0.483   2.738 -0.0613 -0.3146  1.0385
 5774TIP3    H138881   2.072   0.516   2.730 -0.4223  0.9041  1.6451
 5774TIP3    H238882   1.937   0.516   2.660 -0.5074  0.9705  1.8104
 5775TIP3   OH238883   6.205   0.005   0.588  0.7981  0.6421 -0.4557
 5775TIP3    H138884   6.219   0.053   0.507  0.4265 -1.8027 -2.0463
 5775TIP3    H238885   6.244  -0.081   0.573 -3.2875 -1.5455  0.1246
 5776TIP3   OH238886   0.571   5.700   0.473 -0.2731 -0.2584 -0.4121
 5776TIP3    H138887   0.575   5.721   0.566  3.2476  0.1375 -0.5137
 5776TIP3    H238888   0.648   5.743   0.435 -1.8158 -0.0145 -3.6331
 5777TIP3   OH238889   0.886   3.878   8.016 -0.2838  0.3097 -0.0280
 5777TIP3    H138890   0.861   3.816   7.947  3.5788  1.0200 -2.3727
 5777TIP3    H238891   0.948   3.829   8.070 -0.0799  1.0235  0.3846
 5778TIP3   OH238892   5.085   2.032   2.157  0.3576 -0.4506 -0.4372
 5778TIP3    H138893   5.160   1.992   2.115 -0.5876 -1.9728 -0.7519
 5778TIP3    H238894   5.022   2.047   2.086 -1.0880 -2.6630  0.2638
 5779TIP3   OH238895   3.990   5.212   8.465 -0.3919  0.7665  0.3031
 5779TIP3    H138896   3.977   5.251   8.551  0.4726 -0.6499  1.1205
 5779TIP3    H238897   3.924   5.143   8.459  0.0264  0.3690  0.1561
 5780TIP3   OH238898   0.991   5.988   2.273 -0.0461  0.7308  0.4746
 5780TIP3    H138899   0.985   6.033   2.357 -1.3831  1.3485  0.0669
 5780TIP3    H238900   0.949   6.046   2.211  2.4467  1.1213 -1.0118
 5781TIP3   OH238901   6.665   3.540   8.405  0.4776 -0.2494 -0.1179
 5781TIP3    H138902   6.604   3.485   8.356  0.0466 -1.1747  1.3714
 5781TIP3    H238903   6.743   3.546   8.350 -0.2303 -0.6780 -1.1908
 5782TIP3   OH238904   0.737   0.460   3.074  0.0922  0.3747 -0.2542
 5782TIP3    H138905   0.704   0.394   3.134  1.2464  2.5239  3.0160
 5782TIP3    H238906   0.825   0.429   3.051  0.6760  0.7357  1.3522
 5783TIP3   OH238907   2.954   6.573   8.222 -0.1059 -0.2312  0.4022
 5783TIP3    H138908   3.030   6.515   8.212 -0.6600 -1.0961  1.0183
 5783TIP3    H238909   2.990   6.655   8.255  0.6262 -0.4356  0.1251
 5784TIP3   OH238910   3.114   1.278   0.822  0.1671 -0.2809 -0.6671
 5784TIP3    H138911   3.144   1.337   0.891 -2.0859 -0.1199  0.2375
 5784TIP3    H238912   3.191   1.266   0.767  1.1915  2.0788  0.1092
 5785TIP3   OH238913   1.954   3.546   8.132  0.3061  0.0610  0.1085
 5785TIP3    H138914   2.020   3.581   8.192 -0.3723 -0.2593  1.0635
 5785TIP3    H238915   1.990   3.462   8.105 -0.3089 -0.7885  1.7572
 5786TIP3   OH238916   1.517   1.272   1.310 -0.5239 -0.1695  0.6548
 5786TIP3    H138917   1.465   1.349   1.286 -1.0476 -0.1492  1.7856
 5786TIP3    H238918   1.605   1.293   1.280 -0.2868  1.6041  2.3540
 5787TIP3   OH238919   1.493   3.781   8.269  0.6952 -0.1113 -0.2029
 5787TIP3    H138920   1.442   3.718   8.218  1.5992  0.0519 -1.3526
 5787TIP3    H238921   1.572   3.796   8.217  2.1549 -0.7102  1.7269
 5788TIP3   OH238922   1.407   5.825   7.874  0.0545  0.4514 -0.2847
 5788TIP3    H138923   1.501   5.822   7.892  0.1400 -0.9630 -0.7803
 5788TIP3    H238924   1.370   5.755   7.929 -0.9164  1.8111  0.8740
 5789TIP3   OH238925   4.456   2.208   1.878  0.2781 -0.0264 -0.3898
 5789TIP3    H138926   4.416   2.167   1.954  0.5493  1.0226  0.3402
 5789TIP3    H238927   4.403   2.286   1.863  1.9453  1.3528  0.5435
 5790TIP3   OH238928   6.578   4.672   1.067 -0.2061  0.3909  0.5185
 5790TIP3    H138929   6.486   4.648   1.057 -0.3896  1.4358 -0.5532
 5790TIP3    H238930   6.627   4.595   1.037 -0.7186 -0.2451  1.2966
 5791TIP3   OH238931   2.923   0.868   0.402 -0.0306 -0.0552  0.2861
 5791TIP3    H138932   2.862   0.879   0.475 -1.5050  0.3862 -0.9563
 5791TIP3    H238933   2.977   0.946   0.404 -0.0557 -0.0485  0.9132
 5792TIP3   OH238934   2.868   4.853   1.986 -0.1033  0.1679 -0.3360
 5792TIP3    H138935   2.815   4.778   1.959 -0.5626 -0.1706  1.3430
 5792TIP3    H238936   2.824   4.929   1.948  0.7631 -0.3983 -2.6558
 5793TIP3   OH238937   4.922   0.907   1.399 -0.2753 -0.2111 -1.1052
 5793TIP3    H138938   4.878   0.848   1.460  0.1000 -0.0706 -0.6936
 5793TIP3    H238939   4.873   0.989   1.404  0.9749  0.4913  0.5904
 5794TIP3   OH238940   1.947   3.034   0.598  0.4089 -0.0528  0.6393
 5794TIP3    H138941   2.038   3.063   0.597  0.4008  0.1973  2.6694
 5794TIP3    H238942   1.921   3.032   0.506  1.1397  4.1711  0.1572
 5795TIP3   OH238943   1.561   3.752   0.142  0.2714  0.1847 -0.5174
 5795TIP3    H138944   1.636   3.698   0.116  0.1923 -1.1897  1.7775
 5795TIP3    H238945   1.489   3.690   0.147 -0.0366  0.6339  1.3186
 5796TIP3   OH238946   6.387   0.590   0.847  0.1507 -0.1251 -0.2797
 5796TIP3    H138947   6.416   0.632   0.928  0.3612 -0.0278 -0.4017
 5796TIP3    H238948   6.292   0.600   0.847  0.0417 -1.0924  0.4827
 5797TIP3   OH238949   5.415   4.971   0.497 -0.6474  0.3690  0.2609
 5797TIP3    H138950   5.335   4.948   0.543 -0.2211  0.6890  1.2013
 5797TIP3    H238951   5.397   5.056   0.457 -0.4967  0.8663  1.2232
 5798TIP3   OH238952   5.290   6.629   8.478  0.0228 -0.1023  0.5780
 5798TIP3    H138953   5.383   6.626   8.455 -0.5053  1.3612 -2.1505
 5798TIP3    H238954   5.281   6.709   8.529  0.4940 -1.2157  2.5267
 5799TIP3   OH238955   2.224   2.231   2.670  0.2749 -0.0334 -0.2089
 5799TIP3    H138956   2.308   2.202   2.705  0.2797  0.9213  0.6189
 5799TIP3    H238957   2.181   2.275   2.744 -0.7591 -0.1141 -0.7438
 5800TIP3   OH238958   5.912   5.217   0.993 -0.0502 -0.3546  0.9913
 5800TIP3    H138959   5.819   5.224   1.013 -0.0096  0.7041  0.8829
 5800TIP3    H238960   5.916   5.170   0.910 -0.5216 -0.0255  0.7788
 5801TIP3   OH238961   1.408   1.927   7.628  0.0438 -0.2429 -0.8753
 5801TIP3    H138962   1.426   1.908   7.536  1.6306 -4.5162  0.0750
 5801TIP3    H238963   1.313   1.922   7.636  0.0135 -2.0825 -1.9552
 5802TIP3   OH238964   0.294   4.189   7.785 -0.0867 -0.4038  0.2667
 5802TIP3    H138965   0.297   4.285   7.782 -0.7839 -0.3884 -0.0099
 5802TIP3    H238966   0.379   4.162   7.751  0.1123  0.1195  0.3388
 5803TIP3   OH238967   6.774   5.114   2.219 -0.4505 -0.1101 -0.1722
 5803TIP3    H138968   6.802   5.195   2.263 -0.7437 -0.2687  0.3186
 5803TIP3    H238969   6.836   5.048   2.251 -2.2216 -0.8025  2.1477
 5804TIP3   OH238970   1.755   4.611   1.383  0.1082  0.7345  0.3104
 5804TIP3    H138971   1.793   4.699   1.392  1.6541 -0.0497  2.1838
 5804TIP3    H238972   1.818   4.563   1.329  0.5448  0.1401  1.3098
 5805TIP3   OH238973   5.427   0.830   1.831  0.3469 -0.2787 -0.9346
 5805TIP3    H138974   5.467   0.820   1.918  0.6664  1.3119 -0.8733
 5805TIP3    H238975   5.449   0.749   1.786 -2.4994 -2.5978  1.4614
 5806TIP3   OH238976   5.433   0.609   7.680 -0.6265 -0.7357  0.1158
 5806TIP3    H138977   5.370   0.549   7.639 -0.8378  0.0262 -0.7007
 5806TIP3    H238978   5.420   0.597   7.774 -0.9394 -1.6779 -0.0388
 5807TIP3   OH238979   1.878   1.212   2.690 -0.3600 -0.0214  0.0338
 5807TIP3    H138980   1.785   1.221   2.669 -0.4967 -2.0183 -0.3865
 5807TIP3    H238981   1.921   1.283   2.643 -1.4536 -0.3024 -1.4427
 5808TIP3   OH238982   1.903   4.353   1.828 -1.1266  0.2958  0.1540
 5808TIP3    H138983   1.907   4.392   1.740 -1.2481  1.4222  0.6282
 5808TIP3    H238984   1.812   4.323   1.837 -0.8649 -0.7346 -0.4655
 5809TIP3   OH238985   4.284   5.234   7.097 -0.3708 -0.3811 -0.6878
 5809TIP3    H138986   4.210   5.174   7.106 -0.9287  0.2580 -0.9159
 5809TIP3    H238987   4.361   5.177   7.092 -0.7078 -1.0205  0.8391
 5810TIP3   OH238988   2.345   0.245   0.920 -0.0057 -0.2691 -0.0813
 5810TIP3    H138989   2.284   0.173   0.904 -1.1110  0.7228 -0.4480
 5810TIP3    H238990   2.421   0.203   0.961 -1.1327 -1.4536  0.8919
 5811TIP3   OH238991   5.736   1.246   8.566 -0.3201 -0.0091  0.1256
 5811TIP3    H138992   5.717   1.226   8.474  2.1226  2.0470 -0.9629
 5811TIP3    H238993   5.831   1.249   8.570 -0.3923  1.2647  2.4102
 5812TIP3   OH238994   6.580   2.926   7.365 -0.1157 -0.0097 -0.2957
 5812TIP3    H138995   6.592   2.995   7.430 -0.0488 -1.4038  1.2346
 5812TIP3    H238996   6.509   2.872   7.399  0.4731 -1.2546 -0.9524
 5813TIP3   OH238997   5.228   0.026   8.584 -0.0861 -0.8903  0.3896
 5813TIP3    H138998   5.241   0.045   8.677  0.3753 -1.3372  0.4166
 5813TIP3    H238999   5.134   0.007   8.576 -0.4574  0.7719  0.4705
 5814TIP3   OH239000   6.405   2.424   8.211 -1.1443  0.8159  0.1040
 5814TIP3    H139001   6.416   2.419   8.116  2.0858  2.4637  0.2483
 5814TIP3    H239002   6.363   2.509   8.225 -1.3348  0.7110  0.1715
 5815TIP3   OH239003   4.619   5.777   7.971  0.0961 -0.2108  0.7149
 5815TIP3    H139004   4.543   5.730   8.007  0.6866 -0.6753  1.3818
 5815TIP3    H239005   4.636   5.847   8.033 -1.9483  2.2155 -1.2007
 5816TIP3   OH239006   5.386   0.196   7.626  0.3533 -0.2689 -0.0391
 5816TIP3    H139007   5.297   0.206   7.592  0.1363  0.9281  0.8324
 5816TIP3    H239008   5.378   0.213   7.720  1.1787 -2.1549  0.4262
 5817TIP3   OH239009   0.981   5.986   3.371 -0.0675 -0.1745  0.2372
 5817TIP3    H139010   0.917   5.924   3.336  0.2978 -0.9692  0.9608
 5817TIP3    H239011   0.963   6.068   3.324 -1.0985 -0.5958 -0.1243
 5818TIP3   OH239012   1.103   3.901   0.407 -0.0069  0.2750 -0.0770
 5818TIP3    H139013   1.157   3.963   0.357 -2.6065  1.8414 -1.1007
 5818TIP3    H239014   1.144   3.900   0.494  3.6601 -1.2767 -1.5775
 5819TIP3   OH239015   6.376   1.380   8.010  0.5618 -0.2129  0.7409
 5819TIP3    H139016   6.461   1.340   8.028  0.1023 -1.2036  0.8137
 5819TIP3    H239017   6.369   1.376   7.914  1.5300  1.9098  0.5336
 5820TIP3   OH239018   4.773   3.455   1.454 -0.0676  0.3868 -0.9856
 5820TIP3    H139019   4.712   3.500   1.512  1.8895  2.7378 -0.5936
 5820TIP3    H239020   4.859   3.467   1.494  0.8094 -2.2059 -1.8637
 5821TIP3   OH239021   4.879   5.167   0.928  0.0820 -0.3843  0.2631
 5821TIP3    H139022   4.823   5.162   0.851 -0.2909 -0.4395  0.5320
 5821TIP3    H239023   4.937   5.241   0.912 -1.2028  0.7794  0.7182
 5822TIP3   OH239024   1.465   2.835   0.739  0.1079 -0.0808 -0.2878
 5822TIP3    H139025   1.482   2.757   0.791  0.1958 -0.3738 -0.7436
 5822TIP3    H239026   1.551   2.876   0.729  0.5271 -1.2636 -2.1242
 5823TIP3   OH239027   2.097   0.633   2.526 -0.1378 -0.0401 -0.5624
 5823TIP3    H139028   2.155   0.651   2.600 -0.9579 -1.9699  0.6155
 5823TIP3    H239029   2.046   0.714   2.515  0.5455  0.5423  0.4568
 5824TIP3   OH239030   4.781   1.944   7.918 -0.1957 -0.4899 -0.1402
 5824TIP3    H139031   4.802   1.922   7.827 -0.3326  0.6506 -0.4546
 5824TIP3    H239032   4.862   1.984   7.951 -0.0801 -1.0854  0.3062
 5825TIP3   OH239033   3.822   2.870   0.720 -0.3853 -0.6090  0.3462
 5825TIP3    H139034   3.857   2.853   0.632 -0.7876  0.0580  0.0507
 5825TIP3    H239035   3.871   2.946   0.751 -0.1523 -0.9220  0.7578
 5826TIP3   OH239036   5.623   5.044   6.792  0.4952 -0.0701 -0.0278
 5826TIP3    H139037   5.575   4.961   6.795  0.8587 -0.2655  0.5581
 5826TIP3    H239038   5.714   5.020   6.812  0.9603  0.2168 -1.6601
 5827TIP3   OH239039   4.389   5.288   8.592  0.0700  0.1963 -0.5990
 5827TIP3    H139040   4.450   5.228   8.635  0.2276  0.2789 -0.7075
 5827TIP3    H239041   4.411   5.374   8.628  0.0148  0.2259 -0.6363
 5828TIP3   OH239042   2.006   3.129   1.093  0.6302  0.1994  0.3617
 5828TIP3    H139043   2.084   3.076   1.107  1.6524  1.5796  0.1077
 5828TIP3    H239044   1.934   3.078   1.131  1.6133 -1.1842  0.4196
 5829TIP3   OH239045   0.695   2.410   0.729  0.1526  0.4526 -0.1432
 5829TIP3    H139046   0.676   2.354   0.653  1.0909 -1.6700  1.0788
 5829TIP3    H239047   0.766   2.466   0.700 -1.4699  1.8255 -1.7290
 5830TIP3   OH239048   6.269   3.918   7.585  0.3210 -0.7583 -0.3429
 5830TIP3    H139049   6.226   3.953   7.663  1.4934 -0.3882  0.1532
 5830TIP3    H239050   6.245   3.825   7.585  0.6759 -0.8725  0.7355
 5831TIP3   OH239051   3.083   3.821   0.323 -0.2301 -0.0778  0.2332
 5831TIP3    H139052   3.044   3.797   0.239 -0.0025  0.8713 -0.1550
 5831TIP3    H239053   3.118   3.739   0.357 -0.8950 -0.5892 -0.2963
 5832TIP3   OH239054   0.114   0.252   6.600  0.1206  0.0915 -0.3190
 5832TIP3    H139055   0.025   0.271   6.630  0.2679  0.3902 -0.0571
 5832TIP3    H239056   0.170   0.298   6.663  0.5213 -1.8811  0.8711
 5833TIP3   OH239057   0.658   2.089   8.136  0.4333 -0.2050  0.3961
 5833TIP3    H139058   0.632   2.075   8.045  0.3781 -0.4710  0.4498
 5833TIP3    H239059   0.716   2.165   8.134 -2.7471  2.4081  0.6745
 5834TIP3   OH239060   2.867   2.327   7.443  0.0071 -0.2393 -0.3988
 5834TIP3    H139061   2.789   2.315   7.388  0.4468 -0.4322 -0.9918
 5834TIP3    H239062   2.887   2.420   7.435  0.3272 -0.3480 -0.9299
 5835TIP3   OH239063   6.271   0.056   1.519  0.3390 -0.3616  0.5978
 5835TIP3    H139064   6.364   0.076   1.512  0.0070  2.2284  2.2427
 5835TIP3    H239065   6.268  -0.027   1.567  1.7492 -2.2626 -2.2844
 5836TIP3   OH239066   1.729   1.922   7.550  0.4689 -0.6922  0.5814
 5836TIP3    H139067   1.731   1.958   7.461  3.0140  1.0060  1.2127
 5836TIP3    H239068   1.735   1.828   7.538 -0.1292 -0.5657 -1.0316
 5837TIP3   OH239069   5.978   1.620   1.861  0.5811 -0.0707 -0.0279
 5837TIP3    H139070   5.961   1.613   1.767  0.4957  1.3830 -0.1347
 5837TIP3    H239071   5.914   1.684   1.892  0.6453 -0.4984  1.0208
 5838TIP3   OH239072   2.605   5.953   1.947  0.0625  0.3963  0.3341
 5838TIP3    H139073   2.685   5.980   1.903 -0.6829 -0.7280 -1.8455
 5838TIP3    H239074   2.611   5.857   1.950 -0.6221  0.3731  1.3160
 5839TIP3   OH239075   2.576   0.154   3.020 -0.8220 -0.8772  0.1185
 5839TIP3    H139076   2.667   0.129   3.038 -0.2135  1.8162  1.1820
 5839TIP3    H239077   2.523   0.089   3.066  0.3588 -4.2861 -2.8632
 5840TIP3   OH239078   3.363   0.597   0.635 -0.0402 -0.3826 -0.1695
 5840TIP3    H139079   3.270   0.587   0.612 -0.5695  1.8531  0.8008
 5840TIP3    H239080   3.410   0.557   0.561 -1.6945 -3.8087  0.3951
 5841TIP3   OH239081   0.493   5.997   6.892  0.0777 -0.1712  0.2211
 5841TIP3    H139082   0.566   5.993   6.831  0.9108 -1.4747  1.2556
 5841TIP3    H239083   0.525   6.051   6.965  1.0182 -2.8024  1.8776
 5842TIP3   OH239084   0.990   1.480   2.406  0.2644 -0.4357 -0.4436
 5842TIP3    H139085   0.913   1.528   2.438 -0.4073 -1.7274 -0.0455
 5842TIP3    H239086   1.006   1.414   2.473  1.0548 -0.8833 -1.0646
 5843TIP3   OH239087   1.608   6.097   0.080 -0.3715  0.1866  0.1546
 5843TIP3    H139088   1.595   6.003   0.092  0.2234  0.2264  1.2702
 5843TIP3    H239089   1.696   6.113   0.114 -0.8585  1.3153  0.9486
 5844TIP3   OH239090   2.532   6.302   6.956 -0.5270 -0.6026  0.2563
 5844TIP3    H139091   2.559   6.223   7.003  1.3517 -0.7008 -0.8900
 5844TIP3    H239092   2.449   6.279   6.914 -0.0705 -1.9249  0.0496
 5845TIP3   OH239093   2.599   4.328   1.839  0.0358 -0.0461 -0.1489
 5845TIP3    H139094   2.686   4.300   1.866 -0.1213 -0.2904  0.1117
 5845TIP3    H239095   2.544   4.250   1.848 -0.7495  0.6754  2.1084
 5846TIP3   OH239096   2.811   2.603   7.604 -0.0448 -0.3616 -0.2347
 5846TIP3    H139097   2.863   2.642   7.534  0.0202 -2.0565 -1.1735
 5846TIP3    H239098   2.843   2.645   7.684  2.6842 -1.2189 -0.7858
 5847TIP3   OH239099   4.370   2.710   8.245 -0.0305  0.5869 -0.2986
 5847TIP3    H139100   4.420   2.629   8.230  0.2608  1.0041 -1.7670
 5847TIP3    H239101   4.417   2.754   8.316  1.0355  0.4195 -0.8768
 5848TIP3   OH239102   3.732   0.757   2.036 -0.3853  0.0923 -0.8347
 5848TIP3    H139103   3.805   0.780   1.980 -1.2839 -0.0156 -2.0853
 5848TIP3    H239104   3.772   0.735   2.120  1.1029 -0.7943 -1.7283
 5849TIP3   OH239105   5.401   1.861   0.973  0.0607  0.1373 -0.5347
 5849TIP3    H139106   5.458   1.938   0.968 -0.6779  0.7162 -0.2067
 5849TIP3    H239107   5.353   1.861   0.890 -0.7822  0.7167 -0.0681
 5850TIP3   OH239108   2.843   2.467   0.915  0.0644 -0.0749  0.4782
 5850TIP3    H139109   2.821   2.374   0.908 -0.7613 -0.1557  2.9880
 5850TIP3    H239110   2.936   2.469   0.936 -0.2960 -0.5052  2.2961
 5851TIP3   OH239111   5.303   2.167   0.796 -0.8185  0.6740  0.8213
 5851TIP3    H139112   5.388   2.201   0.767 -0.2458  0.4611  2.1541
 5851TIP3    H239113   5.290   2.087   0.746 -0.1901  0.6721  0.6540
 5852TIP3   OH239114   2.714   3.048   2.091  0.1813 -0.0775  0.0595
 5852TIP3    H139115   2.668   3.117   2.044  1.7523  0.3368 -0.9740
 5852TIP3    H239116   2.726   3.082   2.180  3.2112  2.2476 -1.0617
 5853TIP3   OH239117   3.708   1.014   7.736 -0.1421  0.4205 -0.4995
 5853TIP3    H139118   3.665   0.931   7.758  2.9632 -1.0567  0.4144
 5853TIP3    H239119   3.766   0.992   7.663  1.7275  1.4203  0.6289
 5854TIP3   OH239120   1.312   1.099   7.272  0.0071 -0.3082 -0.5818
 5854TIP3    H139121   1.365   1.161   7.322 -2.4145  0.8442  0.7595
 5854TIP3    H239122   1.270   1.152   7.204 -2.1423 -0.3374  0.6227
 5855TIP3   OH239123   3.081   4.219   7.362 -0.1382 -0.3789  0.3881
 5855TIP3    H139124   3.042   4.214   7.274  0.4836 -1.7605  0.1674
 5855TIP3    H239125   3.157   4.162   7.357  1.1622  1.2041  1.2119
 5856TIP3   OH239126   3.541   5.654   7.078 -0.5143 -0.2963 -0.0879
 5856TIP3    H139127   3.583   5.615   7.155 -0.6493 -1.6029 -0.6333
 5856TIP3    H239128   3.469   5.594   7.057 -0.4192 -0.0255 -1.2746
 5857TIP3   OH239129   4.214   1.782   1.685  0.6354  0.3509 -0.4130
 5857TIP3    H139130   4.184   1.766   1.596 -0.5357  0.2801 -0.0188
 5857TIP3    H239131   4.242   1.874   1.685  2.8155 -0.2381 -1.4167
 5858TIP3   OH239132   2.960   5.005   1.071 -0.0668 -0.1728 -0.6848
 5858TIP3    H139133   2.978   5.098   1.082  1.2248 -0.6728  2.6008
 5858TIP3    H239134   2.869   4.994   1.101  0.1898 -0.1054  0.1467
 5859TIP3   OH239135   5.750   2.021   8.513  0.1994  0.4197  0.4273
 5859TIP3    H139136   5.788   1.933   8.516 -0.4520  0.1528  2.5022
 5859TIP3    H239137   5.656   2.005   8.504  0.2594  0.9922 -1.5394
 5860TIP3   OH239138   0.285   0.606   1.690  0.2267  0.3011 -0.1502
 5860TIP3    H139139   0.336   0.534   1.726  0.8271  0.1491 -1.2592
 5860TIP3    H239140   0.198   0.568   1.673 -0.4094  0.6328  2.0010
 5861TIP3   OH239141   3.174   6.126   0.465  0.5315 -0.5909  0.0620
 5861TIP3    H139142   3.087   6.101   0.436 -0.6095  3.3812 -0.5181
 5861TIP3    H239143   3.227   6.129   0.385 -0.3959  2.2854 -0.5586
 5862TIP3   OH239144   1.676   3.344   6.862 -0.0894  0.0960  0.1860
 5862TIP3    H139145   1.750   3.292   6.892 -0.2260 -0.1740  0.0578
 5862TIP3    H239146   1.604   3.322   6.921 -0.3921 -0.5271 -0.4005
 5863TIP3   OH239147   1.917   3.345   6.671 -0.1703  0.2240 -0.1619
 5863TIP3    H139148   1.920   3.253   6.697  0.5994  0.6370  1.3156
 5863TIP3    H239149   1.827   3.372   6.690 -0.6311 -0.4022 -1.3494
 5864TIP3   OH239150   0.438   2.414   0.861  0.1339  0.0437  0.2083
 5864TIP3    H139151   0.433   2.446   0.770 -0.0681  0.7678  0.4645
 5864TIP3    H239152   0.508   2.466   0.901 -2.4341  2.7522  1.5917
 5865TIP3   OH239153   1.247   1.375   7.572 -0.1421  0.7424  0.5877
 5865TIP3    H139154   1.153   1.359   7.561 -0.0375 -0.1892  0.8877
 5865TIP3    H239155   1.268   1.445   7.510 -0.7484 -0.0751 -0.5759
 5866TIP3   OH239156   2.639   2.021   1.415 -0.3086  0.3192  0.4653
 5866TIP3    H139157   2.691   2.016   1.495  0.9235 -0.5743 -0.3557
 5866TIP3    H239158   2.588   2.102   1.424  0.9812  1.0548  1.4422
 5867TIP3   OH239159   1.210   0.168   7.163  0.0567  0.6156 -0.3730
 5867TIP3    H139160   1.238   0.078   7.145 -0.4682  0.3215  0.2515
 5867TIP3    H239161   1.291   0.219   7.165  0.1771  0.8360 -4.2347
 5868TIP3   OH239162   2.470   4.782   1.510 -0.3879  0.1152 -0.3301
 5868TIP3    H139163   2.530   4.714   1.479  0.6947  0.8480  0.0836
 5868TIP3    H239164   2.400   4.734   1.554  0.1991 -0.7449 -0.3009
 5869TIP3   OH239165   4.232   6.296   0.739  0.0567 -0.1739 -0.0580
 5869TIP3    H139166   4.232   6.285   0.643  1.2699  0.8731 -0.1915
 5869TIP3    H239167   4.298   6.234   0.770  0.1065 -0.0642  0.0543
 5870TIP3   OH239168   1.800   1.513   6.677 -0.4900 -0.0572 -0.2758
 5870TIP3    H139169   1.788   1.426   6.716  1.0470  0.4619  1.4687
 5870TIP3    H239170   1.720   1.560   6.700 -0.6724 -0.5337  0.0864
 5871TIP3   OH239171   3.652   3.081   0.329  0.2065 -0.1464 -0.0265
 5871TIP3    H139172   3.636   3.119   0.415  0.1958  1.4892 -0.7255
 5871TIP3    H239173   3.734   3.120   0.300  0.1233 -0.5524 -0.8434
 5872TIP3   OH239174   2.564   2.437   1.855  0.5346  0.2857 -0.0807
 5872TIP3    H139175   2.474   2.470   1.853  0.6027  0.4926  0.1667
 5872TIP3    H239176   2.615   2.505   1.811  0.5642  0.1470 -0.2617
 5873TIP3   OH239177   4.304   3.152   0.014  0.2018  0.4598 -0.2332
 5873TIP3    H139178   4.352   3.234   0.019  2.0509 -0.5694 -0.2000
 5873TIP3    H239179   4.282   3.143  -0.079  2.2769 -0.1964 -0.7150
 5874TIP3   OH239180   2.524   4.888   2.194  0.5455  0.2518 -0.1546
 5874TIP3    H139181   2.581   4.883   2.270 -0.2465  0.0607  0.4361
 5874TIP3    H239182   2.584   4.894   2.119  1.5325 -4.5242 -0.0449
 5875TIP3   OH239183   6.377   4.660   2.343  0.2555 -0.2202  0.6139
 5875TIP3    H139184   6.470   4.658   2.321  0.5365  0.6122  1.6554
 5875TIP3    H239185   6.336   4.704   2.269  0.7441 -0.2344  0.3280
 5876TIP3   OH239186   0.610   5.574   2.430 -0.2140 -0.5075 -0.0439
 5876TIP3    H139187   0.585   5.660   2.396  0.3024 -0.4417 -0.2625
 5876TIP3    H239188   0.666   5.537   2.361  1.5861 -0.0201  1.0924
 5877TIP3   OH239189   6.496   1.743   2.713 -0.2225  0.2087  0.2111
 5877TIP3    H139190   6.485   1.837   2.701 -1.7809  0.3545  2.2769
 5877TIP3    H239191   6.407   1.709   2.723  0.3647 -1.3561  0.4953
 5878TIP3   OH239192   4.231   4.974   7.699 -0.0186 -0.4124 -0.7060
 5878TIP3    H139193   4.302   4.944   7.757  0.1573 -0.0935 -0.7529
 5878TIP3    H239194   4.197   4.894   7.660  0.9778 -0.4968 -1.4507
 5879TIP3   OH239195   5.527   0.710   7.455 -0.4567 -0.2380 -0.1010
 5879TIP3    H139196   5.503   0.637   7.399 -0.4877  0.7703 -1.4414
 5879TIP3    H239197   5.495   0.685   7.542 -1.3194 -1.3776 -0.7264
 5880TIP3   OH239198   2.583   4.926   7.588  0.8180  0.8078 -0.1790
 5880TIP3    H139199   2.510   4.915   7.526  0.0574  2.4383  0.3817
 5880TIP3    H239200   2.619   4.838   7.598  0.2510  0.3146 -2.0677
 5881TIP3   OH239201   5.970   4.171   2.436 -0.6808  0.6223 -0.4384
 5881TIP3    H139202   5.998   4.200   2.349 -0.5185  0.7255 -0.3529
 5881TIP3    H239203   5.930   4.249   2.475 -1.5541  0.3408 -0.7511
 5882TIP3   OH239204   6.302   4.307   1.534 -0.3659 -0.4440  0.0140
 5882TIP3    H139205   6.378   4.357   1.505 -0.1792 -0.6714  0.1120
 5882TIP3    H239206   6.297   4.322   1.628  1.0298 -2.3967  0.4532
 5883TIP3   OH239207   2.497   2.778   8.116  0.1433  0.0250 -0.1917
 5883TIP3    H139208   2.583   2.790   8.075  0.3535 -0.1537  0.1931
 5883TIP3    H239209   2.503   2.693   8.161 -0.7238 -0.7070 -1.3798
 5884TIP3   OH239210   6.096   1.948   3.298 -0.5166  0.3265  0.3152
 5884TIP3    H139211   6.130   2.033   3.273 -0.1260  0.1493  0.2476
 5884TIP3    H239212   6.102   1.895   3.218 -0.1852  0.0536  0.5209
 5885TIP3   OH239213   1.266   4.340   1.728  0.6219 -0.3904  0.1175
 5885TIP3    H139214   1.213   4.412   1.761  1.5456  0.3875 -0.0834
 5885TIP3    H239215   1.286   4.364   1.638  1.6490 -0.4833  0.3101
 5886TIP3   OH239216   0.484   0.335   0.361  0.2012 -0.8471  0.1130
 5886TIP3    H139217   0.421   0.369   0.425  1.8194 -1.4916  2.1627
 5886TIP3    H239218   0.434   0.328   0.279 -2.2275 -0.8546  1.5034
 5887TIP3   OH239219   3.582   6.215   8.503 -0.0165  0.2159  0.2369
 5887TIP3    H139220   3.603   6.303   8.473 -0.6266  0.2094 -0.2167
 5887TIP3    H239221   3.495   6.223   8.542 -0.0540 -0.1737  0.2380
 5888TIP3   OH239222   6.172   2.067   7.361  0.1018 -0.6741  1.0859
 5888TIP3    H139223   6.149   2.012   7.436  1.3281 -0.5459  1.5759
 5888TIP3    H239224   6.265   2.088   7.375 -0.0856  0.6769  0.3717
 5889TIP3   OH239225   4.583   4.869   2.087  0.0111 -0.1986 -0.0173
 5889TIP3    H139226   4.516   4.910   2.033  1.9002  1.1525 -1.4463
 5889TIP3    H239227   4.610   4.792   2.037  0.4056 -0.0224 -0.0812
 5890TIP3   OH239228   1.311   1.335   2.005  0.4185 -0.8041  0.2722
 5890TIP3    H139229   1.372   1.377   2.065  0.4295 -0.3701 -0.0397
 5890TIP3    H239230   1.367   1.282   1.948  0.5028 -0.4402  0.0137
 5891TIP3   OH239231   4.459   4.568   1.920  0.2254  0.0954  0.3372
 5891TIP3    H139232   4.398   4.599   1.988 -0.8880  0.8483 -0.9582
 5891TIP3    H239233   4.473   4.644   1.864  0.4397 -0.7316 -0.7659
 5892TIP3   OH239234   3.582   2.978   1.764  0.1213 -0.4425  0.1639
 5892TIP3    H139235   3.511   2.922   1.794  1.5857 -1.8753  1.1610
 5892TIP3    H239236   3.635   2.921   1.707  1.2173  0.1564  0.5506
 5893TIP3   OH239237   2.156   2.715   8.206 -0.3165 -0.4419  0.0818
 5893TIP3    H139238   2.205   2.747   8.130 -0.4065  1.8276  0.9056
 5893TIP3    H239239   2.071   2.689   8.170 -0.0713 -0.1629 -0.7215
 5894TIP3   OH239240   3.334   3.463   7.847 -0.0237 -0.4639 -0.9069
 5894TIP3    H139241   3.313   3.402   7.776  1.4592 -1.4910 -0.5172
 5894TIP3    H239242   3.408   3.423   7.891 -0.3990  0.5686  0.7333
 5895TIP3   OH239243   6.671   6.248   1.044 -0.3791 -0.4099  0.3781
 5895TIP3    H139244   6.724   6.207   1.113 -0.8165 -2.0585 -0.2131
 5895TIP3    H239245   6.734   6.296   0.990  0.5875 -2.5009 -0.4352
 5896TIP3   OH239246   2.389   1.304   8.624  0.0145  0.1649  0.1724
 5896TIP3    H139247   2.338   1.235   8.582 -1.0789  0.9112  0.2567
 5896TIP3    H239248   2.437   1.346   8.552  1.3933 -1.2136  0.2200
 5897TIP3   OH239249   4.129   1.955   7.165 -0.1246  0.1751  0.2335
 5897TIP3    H139250   4.180   1.896   7.221 -1.9152 -0.8404  0.8947
 5897TIP3    H239251   4.074   2.004   7.226  1.1975  2.5083 -0.3211
 5898TIP3   OH239252   2.288   4.483   2.936  0.1416  0.0621  0.0574
 5898TIP3    H139253   2.302   4.563   2.986 -0.3022 -1.3699  2.6306
 5898TIP3    H239254   2.315   4.413   2.994 -0.5963 -1.7490 -1.6724
 5899TIP3   OH239255   1.160   0.590   0.479 -0.2391 -0.0702  0.0750
 5899TIP3    H139256   1.094   0.551   0.537 -1.2483  0.5373 -0.6356
 5899TIP3    H239257   1.149   0.684   0.489 -0.1870  0.0383 -0.8365
 5900TIP3   OH239258   2.948   5.241   0.737 -0.3240 -0.3811  0.2903
 5900TIP3    H139259   2.916   5.290   0.812 -2.1242  0.8198 -1.1809
 5900TIP3    H239260   3.034   5.278   0.719 -0.2163 -0.1388  1.2649
 5901TIP3   OH239261   4.534   4.964   7.882 -0.0907  0.1641 -0.3076
 5901TIP3    H139262   4.472   4.916   7.936 -1.4182  2.1434  0.0458
 5901TIP3    H239263   4.600   4.899   7.857 -1.6350 -1.7351  0.3128
 5902TIP3   OH239264   2.460   1.850   2.514 -0.1212  0.6641  0.4103
 5902TIP3    H139265   2.431   1.819   2.600  0.1912  1.1684  0.7020
 5902TIP3    H239266   2.540   1.801   2.497 -1.4878 -1.3158 -0.7498
 5903TIP3   OH239267   2.208   6.467   1.974  0.1937 -0.1435 -0.4377
 5903TIP3    H139268   2.202   6.558   2.002 -0.9719 -0.1131 -0.7681
 5903TIP3    H239269   2.160   6.418   2.040 -0.4810 -0.3422 -1.0657
 5904TIP3   OH239270   6.434   0.152   8.048  0.6937  0.6376  0.1352
 5904TIP3    H139271   6.410   0.135   7.957 -2.2160 -2.3186  1.2736
 5904TIP3    H239272   6.522   0.116   8.057 -0.2107 -2.0310 -0.8271
 5905TIP3   OH239273   6.411   2.010   7.508  0.5504  0.2416  0.3052
 5905TIP3    H139274   6.368   1.963   7.580 -2.0932  0.9529 -0.6717
 5905TIP3    H239275   6.434   2.095   7.545  0.3111  0.1697  0.6257
 5906TIP3   OH239276   1.975   3.153   2.097  0.1999 -0.0735 -0.1487
 5906TIP3    H139277   2.064   3.185   2.110  0.7365 -1.0010 -1.4081
 5906TIP3    H239278   1.923   3.201   2.162  1.6309  0.3341  0.7396
 5907TIP3   OH239279   3.248   2.295   0.580  0.0817  0.1444  0.3483
 5907TIP3    H139280   3.333   2.331   0.603  0.6388 -0.6963 -0.3696
 5907TIP3    H239281   3.259   2.260   0.492 -0.5697 -1.3693  0.8391
 5908TIP3   OH239282   6.318   2.816   3.398  0.1204  0.2372 -0.0083
 5908TIP3    H139283   6.413   2.828   3.394  0.0575  1.1669  0.8367
 5908TIP3    H239284   6.301   2.742   3.340  1.1987  0.9713 -1.3156
 5909TIP3   OH239285   6.569   4.930   1.037  0.3726  0.0898 -0.3341
 5909TIP3    H139286   6.591   4.836   1.037 -0.5723 -0.1408 -0.7753
 5909TIP3    H239287   6.529   4.945   1.122  1.3726  0.3130  0.1121
 5910TIP3   OH239288   4.883   0.059   2.480  0.7371 -0.0282 -0.4655
 5910TIP3    H139289   4.941   0.106   2.540  0.9845 -0.2582 -0.5236
 5910TIP3    H239290   4.884   0.113   2.400  2.6202 -1.1283 -1.2703
 5911TIP3   OH239291   2.699   3.414   8.460  0.2448  0.0170  0.9356
 5911TIP3    H139292   2.754   3.436   8.385  0.5377 -1.7571  0.5901
 5911TIP3    H239293   2.659   3.497   8.485  1.2212  0.9020 -0.3051
 5912TIP3   OH239294   1.819   2.222   1.010 -1.1074 -0.0379 -0.4490
 5912TIP3    H139295   1.859   2.291   0.958 -1.1631  0.0970 -0.3148
 5912TIP3    H239296   1.762   2.175   0.949 -0.3896 -0.5339 -0.7633
 5913TIP3   OH239297   4.520   5.805   2.570  0.3560 -0.5916 -0.3871
 5913TIP3    H139298   4.475   5.774   2.492  1.5276 -0.1803 -1.2672
 5913TIP3    H239299   4.452   5.847   2.623 -0.4340 -0.7806 -1.2352
 5914TIP3   OH239300   0.383   3.982   6.734 -0.3005 -0.3614  0.1707
 5914TIP3    H139301   0.436   3.917   6.781 -0.4313 -0.1477  0.6152
 5914TIP3    H239302   0.304   3.991   6.787 -0.1995  0.2996  0.2140
 5915TIP3   OH239303   5.330   5.648   0.798  0.0656  0.9868  0.3673
 5915TIP3    H139304   5.406   5.702   0.817  0.9359  0.6277 -1.8163
 5915TIP3    H239305   5.361   5.583   0.735 -2.0346  0.8148 -0.5838
 5916TIP3   OH239306   6.405   4.995   1.836 -0.2803 -0.5278  0.3181
 5916TIP3    H139307   6.377   4.959   1.920 -0.4843 -1.0556  0.0309
 5916TIP3    H239308   6.500   4.986   1.836 -0.1092  0.9232  1.1410
 5917TIP3   OH239309   0.133   4.983   1.277 -0.3721 -0.5529  0.2255
 5917TIP3    H139310   0.153   5.075   1.262 -1.7044 -0.2109  0.4193
 5917TIP3    H239311   0.113   4.948   1.190 -1.7850 -0.1628  0.3803
 5918TIP3   OH239312   2.244   2.074   0.195 -0.1264 -0.3705  0.3733
 5918TIP3    H139313   2.235   2.098   0.287 -2.2727 -0.5091  0.2675
 5918TIP3    H239314   2.157   2.040   0.171 -0.0025  0.7565 -2.0046
 5919TIP3   OH239315   4.813   0.529   2.127 -0.1109  0.9131  0.4601
 5919TIP3    H139316   4.822   0.601   2.064  3.2114  0.6255  0.4611
 5919TIP3    H239317   4.856   0.561   2.206 -0.6227 -0.2522  1.2323
 5920TIP3   OH239318   1.831   6.404   1.739 -0.4989 -0.5035 -0.0423
 5920TIP3    H139319   1.852   6.316   1.772 -1.8066 -0.8375 -0.0258
 5920TIP3    H239320   1.817   6.392   1.645  0.1616 -0.1449 -0.1889
 5921TIP3   OH239321   2.889   2.319   7.695  0.3507 -0.2219  0.6311
 5921TIP3    H139322   2.867   2.401   7.738 -2.1402 -0.7056  0.4768
 5921TIP3    H239323   2.857   2.330   7.605  2.0109 -0.5897 -0.0337
 5922TIP3   OH239324   2.124   1.620   0.227 -0.1779  0.3968  0.4858
 5922TIP3    H139325   2.209   1.655   0.198 -0.3333 -0.4719 -1.1583
 5922TIP3    H239326   2.132   1.525   0.213 -1.2038  0.2420  0.9160
 5923TIP3   OH239327   2.839   5.345   2.270 -0.7128 -0.2075  0.4128
 5923TIP3    H139328   2.842   5.439   2.250 -1.4835  0.0469  1.4171
 5923TIP3    H239329   2.864   5.303   2.188 -1.3845  0.8560 -0.3700
 5924TIP3   OH239330   1.088   3.990   1.258 -0.3202  0.6108  0.2586
 5924TIP3    H139331   1.056   4.046   1.188  0.7657 -1.3417 -1.9091
 5924TIP3    H239332   1.074   3.901   1.226  3.0212 -0.3541  1.1229
 5925TIP3   OH239333   2.103   1.565   7.822  0.5599 -0.2614 -0.5470
 5925TIP3    H139334   2.016   1.565   7.782  0.1935 -1.0217  0.2354
 5925TIP3    H239335   2.137   1.652   7.803 -0.4805  0.1494 -0.6119
 5926TIP3   OH239336   1.269   6.086   7.416  0.2249  0.2945  0.0874
 5926TIP3    H139337   1.266   6.002   7.462 -0.3227  1.5425  2.4667
 5926TIP3    H239338   1.357   6.119   7.431 -0.0913  0.9073  0.6480
 5927TIP3   OH239339   6.550   0.354   1.334 -0.2574  0.1344  0.2874
 5927TIP3    H139340   6.620   0.371   1.271 -0.0717 -1.6045 -0.0125
 5927TIP3    H239341   6.472   0.340   1.280 -0.6753  1.1855  0.5855
 5928TIP3   OH239342   0.196   4.504   1.200 -0.2077  0.4643 -0.0374
 5928TIP3    H139343   0.275   4.469   1.158  2.1460  4.3125  0.6754
 5928TIP3    H239344   0.205   4.480   1.292  0.2051  0.9108  0.0456
 5929TIP3   OH239345   5.115   0.784   2.094  0.5137  0.3544 -0.1795
 5929TIP3    H139346   5.167   0.707   2.117  0.6224 -0.1176 -1.8767
 5929TIP3    H239347   5.166   0.858   2.127  1.7691 -0.1617 -0.8710
 5930TIP3   OH239348   1.234   4.082   2.831  0.2687  1.0562  0.2404
 5930TIP3    H139349   1.214   4.098   2.923  0.2339 -1.4974  0.7462
 5930TIP3    H239350   1.325   4.110   2.821  0.1277  1.7870  0.9090
 5931TIP3   OH239351   1.538   5.586   1.267 -0.2260 -0.3420  0.0796
 5931TIP3    H139352   1.473   5.572   1.336  0.4385 -0.9124  0.6016
 5931TIP3    H239353   1.558   5.498   1.235 -2.1681  0.0052 -2.4300
 5932TIP3   OH239354   1.969   4.429   1.541  0.1024 -0.6443  0.2515
 5932TIP3    H139355   1.996   4.446   1.451  0.0172 -1.1248  0.1313
 5932TIP3    H239356   1.921   4.507   1.567  1.0702 -0.0389  0.2583
 5933TIP3   OH239357   6.425   2.196   7.995 -0.1932  0.3121  0.2055
 5933TIP3    H139358   6.381   2.192   8.081 -0.4263  0.3065  0.0866
 5933TIP3    H239359   6.385   2.125   7.945 -1.1563  1.2752 -0.4212
 5934TIP3   OH239360   5.760   4.701   2.486  0.4161 -0.1185  0.3261
 5934TIP3    H139361   5.749   4.796   2.491 -1.3943 -0.3498  2.5710
 5934TIP3    H239362   5.707   4.667   2.558  2.9553 -2.7305  1.1260
 5935TIP3   OH239363   6.058   4.257   8.584  0.3582  0.4757  0.1846
 5935TIP3    H139364   6.075   4.292   8.497  0.9013  0.6050  0.3390
 5935TIP3    H239365   6.144   4.233   8.617  0.0755 -0.3166  0.3733
 5936TIP3   OH239366   4.879   0.229   7.756 -0.6448  0.1062  0.1245
 5936TIP3    H139367   4.888   0.314   7.798 -0.6306 -0.1602  0.6713
 5936TIP3    H239368   4.939   0.171   7.804 -1.8162 -0.5867  0.8235
 5937TIP3   OH239369   1.732   2.703   1.705  0.2814 -0.4045  0.2538
 5937TIP3    H139370   1.805   2.659   1.748  0.1472 -1.8516 -0.9192
 5937TIP3    H239371   1.661   2.639   1.707 -0.9488  0.9201  1.2403
 5938TIP3   OH239372   1.243   2.047   2.738 -0.0028 -0.0820  0.4824
 5938TIP3    H139373   1.160   2.066   2.783 -1.2505  1.0849 -2.0904
 5938TIP3    H239374   1.282   1.976   2.790 -2.4805 -0.5213  1.9545
 5939TIP3   OH239375   0.273   5.928   2.141  0.1109 -0.1360  0.0521
 5939TIP3    H139376   0.297   6.018   2.120 -0.5846  0.4415  1.6375
 5939TIP3    H239377   0.228   5.897   2.062 -1.0864  1.4454  0.0665
 5940TIP3   OH239378   0.410   0.216   7.518  0.6534 -0.4897  0.1978
 5940TIP3    H139379   0.502   0.215   7.546  1.1774 -2.4308 -1.3877
 5940TIP3    H239380   0.409   0.166   7.437 -1.8324 -0.5289  0.1844
 5941TIP3   OH239381   6.061   5.685   0.918  0.8053 -0.1853 -0.0657
 5941TIP3    H139382   6.014   5.605   0.945 -2.6238  2.0232  1.1424
 5941TIP3    H239383   6.138   5.687   0.975  0.8621 -2.4548  0.0495
 5942TIP3   OH239384   4.633   2.823   0.868  0.1635  0.3981 -0.2906
 5942TIP3    H139385   4.628   2.742   0.919 -0.2427  0.7692  0.2778
 5942TIP3    H239386   4.560   2.817   0.807  0.3080  0.2089 -0.4464
 5943TIP3   OH239387   5.134   4.610   0.462 -0.2481  0.2312 -0.1679
 5943TIP3    H139388   5.047   4.643   0.483 -1.0882 -0.5970 -2.0665
 5943TIP3    H239389   5.135   4.607   0.366  1.5721 -0.5845 -0.1532
 5944TIP3   OH239390   6.272   5.276   1.085 -0.7406  0.5142  0.1597
 5944TIP3    H139391   6.235   5.189   1.067 -1.4801  0.4954  1.6448
 5944TIP3    H239392   6.324   5.264   1.164  0.8843  1.0018 -0.7648
 5945TIP3   OH239393   3.741   3.481   1.931  0.1267 -0.2057  0.5387
 5945TIP3    H139394   3.771   3.395   1.901 -0.1347 -0.2364  0.3573
 5945TIP3    H239395   3.657   3.463   1.974 -0.6072  0.1133 -0.6849
 5946TIP3   OH239396   2.173   5.807   8.084  0.1002  0.3168 -0.2296
 5946TIP3    H139397   2.252   5.795   8.032  0.1399  2.3807 -0.7064
 5946TIP3    H239398   2.130   5.884   8.047 -1.1596  0.3744  1.2252
 5947TIP3   OH239399   5.803   4.395   2.260  0.1382 -0.3908 -0.8007
 5947TIP3    H139400   5.848   4.479   2.270  0.7999 -0.8251  0.1206
 5947TIP3    H239401   5.797   4.361   2.350  1.0298 -1.8878 -1.2632
 5948TIP3   OH239402   1.379   0.935   2.339 -0.2642  0.2799  0.1704
 5948TIP3    H139403   1.361   0.890   2.257 -0.9130  2.1308 -0.7653
 5948TIP3    H239404   1.328   0.887   2.404  1.9645 -2.5845  0.0001
 5949TIP3   OH239405   3.481   1.308   1.334 -0.3093 -0.1322  0.8256
 5949TIP3    H139406   3.554   1.283   1.277 -1.5055 -0.0615 -0.8177
 5949TIP3    H239407   3.475   1.238   1.398  1.9029  0.4233  1.7428
 5950TIP3   OH239408   4.311   4.118   0.131 -0.8960  0.1602  0.2088
 5950TIP3    H139409   4.322   4.024   0.115 -0.1579  0.2037  0.4353
 5950TIP3    H239410   4.216   4.132   0.128 -0.9871 -0.5123 -0.2653
 5951TIP3   OH239411   1.408   3.363   7.340  0.7670  0.3345 -0.0454
 5951TIP3    H139412   1.446   3.279   7.315  1.6768  0.6414  0.2647
 5951TIP3    H239413   1.333   3.340   7.395 -0.8534 -0.3377 -2.3867
 5952TIP3   OH239414   6.038   1.762   0.276  0.0791  0.0221  0.0224
 5952TIP3    H139415   6.074   1.710   0.204  1.3335  1.7500 -0.6489
 5952TIP3    H239416   6.100   1.750   0.348  0.2929  0.4536 -0.0868
 5953TIP3   OH239417   2.595   5.705   1.634 -0.2813 -0.1874 -0.2793
 5953TIP3    H139418   2.595   5.738   1.724  1.1298 -1.5422  0.2631
 5953TIP3    H239419   2.655   5.631   1.635 -1.0162 -0.8800 -2.1302
 5954TIP3   OH239420   6.471   4.152   1.158 -0.0596 -0.3184 -0.5819
 5954TIP3    H139421   6.387   4.107   1.157 -0.3511 -0.0866  2.8214
 5954TIP3    H239422   6.519   4.112   1.231  0.4518  3.3978  1.3484
 5955TIP3   OH239423   0.615   2.129   7.151 -0.5465 -0.1073 -0.3132
 5955TIP3    H139424   0.662   2.186   7.090  1.2155  0.7186  1.6900
 5955TIP3    H239425   0.554   2.187   7.197  1.4406  0.3919  1.9214
 5956TIP3   OH239426   5.491   1.482   8.243  0.3602  0.7697 -0.4218
 5956TIP3    H139427   5.422   1.467   8.307  1.5550 -1.0858  0.5074
 5956TIP3    H239428   5.455   1.452   8.160 -0.1405  0.3671 -0.0602
 5957TIP3   OH239429   4.528   1.548   0.057 -0.2358  0.1256 -0.2172
 5957TIP3    H139430   4.613   1.563   0.017 -0.7975 -0.9230 -1.9044
 5957TIP3    H239431   4.532   1.594   0.141  2.3634 -0.8255  0.2603
 5958TIP3   OH239432   4.578   3.855   0.579  0.1648 -0.4476  0.1092
 5958TIP3    H139433   4.550   3.764   0.574 -1.3178  0.0454 -2.0088
 5958TIP3    H239434   4.515   3.902   0.524  1.6268  1.6694  0.1437
 5959TIP3   OH239435   1.051   6.534   0.731 -0.0835 -0.0588  0.0725
 5959TIP3    H139436   1.093   6.565   0.812 -1.2232 -1.0384  1.0648
 5959TIP3    H239437   1.094   6.585   0.662  1.8603 -0.1284  1.1403
 5960TIP3   OH239438   3.388   4.481   1.249  0.1522  0.7390 -0.1632
 5960TIP3    H139439   3.456   4.540   1.218  2.3875 -0.6923  1.7443
 5960TIP3    H239440   3.312   4.538   1.264  0.7766  2.3326 -2.5430
 5961TIP3   OH239441   1.743   3.812   8.170  0.1038 -0.3727  0.3427
 5961TIP3    H139442   1.717   3.826   8.079 -0.8008 -1.6299  0.3915
 5961TIP3    H239443   1.791   3.729   8.169  2.2221  0.7840  0.6409
 5962TIP3   OH239444   5.184   6.603   0.313  0.1185  0.3273 -0.2947
 5962TIP3    H139445   5.153   6.693   0.313  1.7400  0.9956  2.0620
 5962TIP3    H239446   5.258   6.602   0.253  0.6015  0.8075  0.2764
 5963TIP3   OH239447   3.954   1.139   0.907  0.1727  0.3149  0.4649
 5963TIP3    H139448   3.890   1.120   0.838 -1.5000  1.0299  1.7385
 5963TIP3    H239449   3.979   1.053   0.940 -2.0765  0.0165  1.5891
 5964TIP3   OH239450   3.975   6.259   7.069 -0.2590 -0.0627  0.0883
 5964TIP3    H139451   3.889   6.231   7.101  0.0345  1.4020  2.4287
 5964TIP3    H239452   4.034   6.189   7.099 -0.3827 -0.1278  0.1840
 5965TIP3   OH239453   5.103   3.649   0.440  0.2872  0.7321  0.1708
 5965TIP3    H139454   5.011   3.624   0.447 -0.0999  1.2535 -2.2239
 5965TIP3    H239455   5.145   3.574   0.397  0.5034  1.3951 -0.8022
 5966TIP3   OH239456   5.794   0.959   0.927  0.3560 -0.0161  0.8977
 5966TIP3    H139457   5.731   0.889   0.944  0.2975  0.1756  1.4893
 5966TIP3    H239458   5.740   1.036   0.907  0.3766 -0.7769 -2.7303
 5967TIP3   OH239459   5.160   2.249   1.496 -0.0452  0.5878  0.4051
 5967TIP3    H139460   5.202   2.333   1.476 -1.0881  1.4158  1.5399
 5967TIP3    H239461   5.115   2.264   1.579  1.4749 -1.7465  1.7479
 5968TIP3   OH239462   0.751   2.474   1.949 -0.4239 -0.1332 -0.5422
 5968TIP3    H139463   0.719   2.541   1.888  0.9900 -0.3084 -1.5326
 5968TIP3    H239464   0.812   2.520   2.006 -0.6778 -0.2618 -0.1608
 5969TIP3   OH239465   6.299   5.598   1.321 -0.0481 -0.3046  0.0876
 5969TIP3    H139466   6.360   5.635   1.385  0.3725  2.9602 -2.0058
 5969TIP3    H239467   6.285   5.508   1.351  0.6692  0.7941  4.2838
 5970TIP3   OH239468   6.378   1.946   2.315  0.4609 -0.0253 -0.2949
 5970TIP3    H139469   6.446   2.001   2.275  0.8217 -1.2071 -1.3888
 5970TIP3    H239470   6.388   1.861   2.272  0.4222 -1.1985  1.8520
 5971TIP3   OH239471   1.241   6.272   0.137 -0.0107 -0.0102 -0.5070
 5971TIP3    H139472   1.188   6.214   0.192 -0.5572 -0.8498 -1.8682
 5971TIP3    H239473   1.300   6.213   0.091  0.7623  0.7330 -0.4765
 5972TIP3   OH239474   4.908   3.383   0.466  0.2866  0.2451 -0.5621
 5972TIP3    H139475   4.886   3.290   0.474 -0.6479  0.4885 -0.1321
 5972TIP3    H239476   4.830   3.428   0.498  1.3885  1.1751  0.9407
 5973TIP3   OH239477   1.643   4.917   0.697  0.0739  0.1437 -0.4182
 5973TIP3    H139478   1.641   4.975   0.620 -0.8281 -1.0940 -1.3559
 5973TIP3    H239479   1.662   4.830   0.661 -2.6701 -0.8837  0.4344
 5974TIP3   OH239480   6.347   3.695   7.761  0.1221  0.0259  0.0109
 5974TIP3    H139481   6.420   3.712   7.701  1.2016 -0.4392  1.1451
 5974TIP3    H239482   6.309   3.614   7.729 -0.9619  1.0802 -1.5498
 5975TIP3   OH239483   3.355   5.291   3.186  0.2903 -0.0229 -0.3783
 5975TIP3    H139484   3.259   5.295   3.185  0.2712 -0.3815 -0.1669
 5975TIP3    H239485   3.375   5.198   3.180  0.6362  0.0796 -0.8155
 5976TIP3   OH239486   1.567   0.129   2.717  0.2786 -0.4450 -0.2516
 5976TIP3    H139487   1.478   0.141   2.684  1.0719  1.1028 -1.9865
 5976TIP3    H239488   1.624   0.156   2.644  2.1691 -0.4662  1.1353
 5977TIP3   OH239489   4.021   4.345   8.277  0.1068  0.0626  0.0984
 5977TIP3    H139490   4.022   4.414   8.211 -1.2583 -0.9648 -1.0405
 5977TIP3    H239491   3.931   4.314   8.278 -0.1323  0.5604  3.0424
 5978TIP3   OH239492   3.002   4.586   0.463  0.1921 -0.0673  0.2981
 5978TIP3    H139493   3.007   4.671   0.507  0.3676  0.5275 -0.8268
 5978TIP3    H239494   2.919   4.549   0.492 -0.4063  0.9738 -0.0347
 5979TIP3   OH239495   3.677   3.924   1.560 -0.1458  0.0847  0.0214
 5979TIP3    H139496   3.713   3.979   1.490 -3.3681  0.9136 -1.1419
 5979TIP3    H239497   3.721   3.840   1.550  0.6525  0.6843 -1.9832
 5980TIP3   OH239498   4.968   2.844   1.550  0.2500  0.1073  0.7180
 5980TIP3    H139499   4.913   2.918   1.573  2.2571  0.9057  3.4305
 5980TIP3    H239500   4.907   2.772   1.535 -1.5874  1.4744  1.3113
 5981TIP3   OH239501   1.559   1.161   2.236  0.1985 -0.1834 -0.1909
 5981TIP3    H139502   1.621   1.125   2.173  0.8068 -2.3505  1.5363
 5981TIP3    H239503   1.489   1.095   2.241  0.5976 -0.5179  1.9700
 5982TIP3   OH239504   2.548   5.990   0.981 -0.6740  0.2063 -0.0238
 5982TIP3    H139505   2.505   5.907   0.966 -0.1085  0.1024 -1.2315
 5982TIP3    H239506   2.560   5.995   1.076  0.7464 -1.8448 -0.0465
 5983TIP3   OH239507   1.703   6.002   3.380  0.0710  0.6619 -1.2865
 5983TIP3    H139508   1.735   6.072   3.322  0.5038 -0.2277 -2.1578
 5983TIP3    H239509   1.716   5.921   3.329 -0.1191 -0.0850 -0.1817
 5984TIP3   OH239510   6.532   3.508   0.365  1.1718 -0.5510  0.4706
 5984TIP3    H139511   6.439   3.516   0.388  0.8174  0.1296 -1.0731
 5984TIP3    H239512   6.578   3.524   0.448  0.0081  3.2226  0.6191
 5985TIP3   OH239513   6.530   3.101   8.662 -0.1028  0.5848  0.6755
 5985TIP3    H139514   6.446   3.092   8.706 -0.6326  1.6597 -0.0728
 5985TIP3    H239515   6.557   3.191   8.680  1.0883  0.1386  1.2320
 5986TIP3   OH239516   6.240   5.456   8.426 -0.6068 -0.0424 -0.3587
 5986TIP3    H139517   6.242   5.496   8.513  1.2494 -1.0139  0.1035
 5986TIP3    H239518   6.317   5.399   8.424 -0.3331  0.3002 -2.8090
 5987TIP3   OH239519   4.963   6.766   6.873  0.3447  0.2231  0.7884
 5987TIP3    H139520   4.935   6.806   6.956 -0.4019 -0.1569  0.7254
 5987TIP3    H239521   4.920   6.818   6.806 -0.1031 -0.2717  0.6853
 5988TIP3   OH239522   3.849   2.534   8.627 -0.5786  0.0265  0.0002
 5988TIP3    H139523   3.896   2.615   8.646  2.0597 -1.3103 -0.3961
 5988TIP3    H239524   3.763   2.546   8.669 -0.3950  3.0740 -0.2680
 5989TIP3   OH239525   5.567   1.666   1.109 -0.2312  0.4618 -0.4462
 5989TIP3    H139526   5.529   1.580   1.125 -0.5269  0.4877 -0.9661
 5989TIP3    H239527   5.499   1.713   1.061  0.4801  0.4741 -1.4929
 5990TIP3   OH239528   4.450   0.718   0.769 -0.0342  0.1898 -0.3344
 5990TIP3    H139529   4.409   0.804   0.769  0.7819  0.6118 -2.0389
 5990TIP3    H239530   4.544   0.737   0.773  0.1298 -0.6388 -0.1890
 5991TIP3   OH239531   1.323   4.465   1.005  0.2963  0.4185 -0.4538
 5991TIP3    H139532   1.285   4.518   0.935  2.3511  0.6112 -1.4833
 5991TIP3    H239533   1.276   4.382   1.000 -1.1836  1.2120 -0.4965
 5992TIP3   OH239534   4.861   4.260   8.255 -0.0274  0.3828 -0.2031
 5992TIP3    H139535   4.812   4.198   8.201  1.3821  0.1702 -1.3171
 5992TIP3    H239536   4.910   4.313   8.192 -0.5477  2.0947  0.7648
 5993TIP3   OH239537   5.910   2.220   2.595  0.1997  0.8170 -0.1073
 5993TIP3    H139538   5.846   2.190   2.530 -0.1636  0.0835  0.5638
 5993TIP3    H239539   5.857   2.261   2.663  0.3315 -0.5371  0.8628
 5994TIP3   OH239540   6.132   2.477   1.067 -0.5373  0.1042 -0.1911
 5994TIP3    H139541   6.193   2.540   1.030 -0.5765 -0.0773 -0.5648
 5994TIP3    H239542   6.053   2.529   1.086 -0.7020  0.0980 -0.8403
 5995TIP3   OH239543   0.677   2.513   6.764 -0.1553 -0.1070 -0.0427
 5995TIP3    H139544   0.688   2.534   6.671  0.8079 -0.4849 -0.0242
 5995TIP3    H239545   0.733   2.576   6.810 -1.3117  0.6636  0.3551
 5996TIP3   OH239546   0.925   3.417   1.044  0.0422 -0.0907 -0.4354
 5996TIP3    H139547   0.986   3.453   0.979  1.4072 -0.5196  0.5600
 5996TIP3    H239548   0.843   3.463   1.028  0.2660 -0.3798 -2.6222
 5997TIP3   OH239549   1.713   4.970   1.610 -0.0277 -0.0814 -0.0135
 5997TIP3    H139550   1.770   5.025   1.664 -0.0722  0.2967 -0.3486
 5997TIP3    H239551   1.630   5.018   1.606 -1.0119 -1.4456  1.9509
 5998TIP3   OH239552   5.401   2.125   1.344 -0.3876  0.0427 -0.7215
 5998TIP3    H139553   5.342   2.187   1.387 -1.2311  0.5047 -2.4479
 5998TIP3    H239554   5.379   2.131   1.251 -0.0496 -2.3962 -1.0284
 5999TIP3   OH239555   0.620   2.956   8.086  0.2564 -0.3261  0.6071
 5999TIP3    H139556   0.528   2.929   8.096 -0.4595  0.4522 -2.7028
 5999TIP3    H239557   0.670   2.882   8.120 -1.5074 -0.1661  3.9220
 6000TIP3   OH239558   5.196   4.862   0.638  0.0660  0.2155  1.1784
 6000TIP3    H139559   5.184   4.768   0.623 -0.2961  0.4446 -0.1060
 6000TIP3    H239560   5.107   4.897   0.636  0.1232  0.4814  2.5474
 6001TIP3   OH239561   1.943   4.016   0.758 -0.1129 -0.4089 -0.3946
 6001TIP3    H139562   1.988   3.962   0.822  0.6159  1.4699  0.7866
 6001TIP3    H239563   1.912   3.955   0.691  1.6006 -2.1040  0.2875
 6002TIP3   OH239564   5.466   6.300   1.539  0.2067 -0.5488 -0.3450
 6002TIP3    H139565   5.511   6.342   1.466  2.0751 -0.3848  0.8354
 6002TIP3    H239566   5.403   6.241   1.497 -0.9894  1.7825 -2.0425
 6003TIP3   OH239567   1.387   2.103   0.863  0.4786 -0.2482  0.2213
 6003TIP3    H139568   1.416   2.060   0.943 -1.3842 -0.8551  0.6215
 6003TIP3    H239569   1.353   2.188   0.892  0.2817 -0.2525  0.0035
 6004TIP3   OH239570   5.817   1.513   1.169 -0.1759  0.2393  0.9582
 6004TIP3    H139571   5.828   1.422   1.140  0.6300  0.4000  0.7549
 6004TIP3    H239572   5.815   1.564   1.088 -1.3304  0.3471  1.0327
 6005TIP3   OH239573   1.564   0.254   0.443 -0.4562 -0.5194 -0.8078
 6005TIP3    H139574   1.601   0.166   0.453  0.6763  0.0183 -0.0466
 6005TIP3    H239575   1.596   0.302   0.519 -0.2601  0.8284 -1.7191
 6006TIP3   OH239576   1.909   3.205   1.699 -0.3014 -0.5781 -1.0046
 6006TIP3    H139577   1.915   3.265   1.773  1.7252 -1.2053 -0.5749
 6006TIP3    H239578   1.818   3.210   1.671 -0.9484  0.2454  1.0418
 6007TIP3   OH239579   3.644   4.227   7.936 -0.4745 -0.2465 -0.1141
 6007TIP3    H139580   3.716   4.265   7.988 -0.7273 -1.7100  1.3875
 6007TIP3    H239581   3.572   4.290   7.946 -0.8867 -1.0104  2.3292
 6008TIP3   OH239582   0.573   3.113   8.670  0.3493 -0.3313  0.0718
 6008TIP3    H139583   0.597   3.061   8.747  1.2868 -2.2643 -1.4310
 6008TIP3    H239584   0.650   3.166   8.651  0.4288 -0.4722 -0.0039
 6009TIP3   OH239585   2.683   3.778   2.321 -0.8534 -0.0121 -0.8015
 6009TIP3    H139586   2.625   3.816   2.255 -0.7924  0.5685 -0.5213
 6009TIP3    H239587   2.714   3.853   2.372  0.8037 -0.2214 -1.4624
 6010TIP3   OH239588   1.458   3.321   7.032 -0.4763 -0.1977  0.2650
 6010TIP3    H139589   1.362   3.324   7.029 -0.5193 -1.9071 -1.4269
 6010TIP3    H239590   1.477   3.257   7.102 -0.5227  0.6734  1.0976
 6011TIP3   OH239591   2.660   0.112   7.033  0.5905 -0.1829 -0.0506
 6011TIP3    H139592   2.604   0.093   6.958  1.0813 -0.5226 -0.3301
 6011TIP3    H239593   2.747   0.122   6.997  1.1310 -1.9926  0.6478
 6012TIP3   OH239594   2.942   0.437   2.212  0.1058  0.1008  0.1367
 6012TIP3    H139595   3.035   0.449   2.234  0.7707  0.2784 -2.4176
 6012TIP3    H239596   2.943   0.396   2.126 -2.2333 -1.3026  0.6884
 6013TIP3   OH239597   0.372   6.198   2.069  0.3889 -0.3909  0.2762
 6013TIP3    H139598   0.329   6.283   2.069 -1.4237 -1.2678  0.0252
 6013TIP3    H239599   0.451   6.212   2.016  0.7578  1.3895  1.1910
 6014TIP3   OH239600   0.017   4.524   1.918 -0.1680 -0.4437 -0.1320
 6014TIP3    H139601  -0.030   4.494   1.840  0.5455  1.4445 -1.3676
 6014TIP3    H239602  -0.052   4.561   1.974 -0.3129  1.7298 -1.6494
 6015TIP3   OH239603   1.809   3.068   2.404 -0.0806  0.0622  0.5933
 6015TIP3    H139604   1.796   3.159   2.377 -0.6517 -0.1699  0.0688
 6015TIP3    H239605   1.882   3.072   2.466  0.4048  0.7736 -0.0050
 6016TIP3   OH239606   1.591   3.059   1.299  0.6616  0.5627 -0.9407
 6016TIP3    H139607   1.617   3.130   1.357  3.8469 -0.5662 -0.8018
 6016TIP3    H239608   1.580   3.101   1.213 -1.9053  1.8582 -0.0834
 6017TIP3   OH239609   2.020   3.739   8.618  0.1150  0.1399 -0.3511
 6017TIP3    H139610   2.062   3.680   8.680  0.5793  0.0864 -0.7147
 6017TIP3    H239611   2.091   3.771   8.563  0.0529  1.8315  0.4713
 6018TIP3   OH239612   4.009   6.040   2.113  0.3567 -0.1470 -0.1901
 6018TIP3    H139613   4.012   6.098   2.037 -0.5350  1.5506  0.9954
 6018TIP3    H239614   3.991   6.099   2.187 -0.6113 -1.9529  1.0866
 6019TIP3   OH239615   5.292   3.310   2.233  0.0973 -0.3326  0.6499
 6019TIP3    H139616   5.221   3.341   2.176 -0.3749 -1.9139  0.3239
 6019TIP3    H239617   5.256   3.232   2.275  1.5968 -1.1079  0.5704
 6020TIP3   OH239618   4.463   1.202   1.385 -0.2962 -0.1283  0.5362
 6020TIP3    H139619   4.402   1.132   1.361 -0.3476 -0.4724  1.6039
 6020TIP3    H239620   4.407   1.274   1.415 -0.2093 -0.7347  2.2897
 6021TIP3   OH239621   3.108   5.841   2.305  0.0984  0.3399  0.1379
 6021TIP3    H139622   3.168   5.911   2.330  0.6078  0.3233 -0.9441
 6021TIP3    H239623   3.021   5.879   2.313  0.2783  0.5472  1.1780
 6022TIP3   OH239624   0.603   2.976   0.222 -0.0081 -0.4288 -0.1591
 6022TIP3    H139625   0.608   3.062   0.264  0.0272  0.2002 -1.4051
 6022TIP3    H239626   0.662   2.921   0.274  0.5246  0.4812  0.2359
 6023TIP3   OH239627   1.557   2.220   1.242 -0.2317  0.2222 -0.1754
 6023TIP3    H139628   1.493   2.290   1.250 -0.2245  0.0967  1.2402
 6023TIP3    H239629   1.627   2.244   1.303 -0.3777 -1.1558  0.5673
 6024TIP3   OH239630   2.591   0.450   0.532 -0.4378  0.6441 -0.3814
 6024TIP3    H139631   2.550   0.374   0.573  0.0995  1.5914  2.0265
 6024TIP3    H239632   2.564   0.444   0.440 -3.6384 -0.3018  0.4944
 6025TIP3   OH239633   5.747   4.011   0.633  0.0239 -0.3780  0.1076
 6025TIP3    H139634   5.690   4.005   0.556 -0.0138 -3.8163  0.2444
 6025TIP3    H239635   5.834   3.989   0.600  0.2331 -0.6647  0.8339
 6026TIP3   OH239636   0.346   6.719   8.566  0.6682  0.2588 -0.4447
 6026TIP3    H139637   0.318   6.704   8.656  0.5174 -1.0224 -0.6853
 6026TIP3    H239638   0.442   6.720   8.570  0.6523  0.9009 -0.1743
 6027TIP3   OH239639   6.582   3.372   2.202 -0.9260  0.2882  0.5994
 6027TIP3    H139640   6.637   3.372   2.280  0.1647  0.6829 -0.1458
 6027TIP3    H239641   6.616   3.444   2.149 -2.4433  0.8106  0.3026
 6028TIP3   OH239642   2.164   0.467   1.680  0.1533  0.2727 -0.1241
 6028TIP3    H139643   2.109   0.498   1.752  0.8218  0.0047  0.5246
 6028TIP3    H239644   2.159   0.536   1.614  2.1813  2.2177  1.5783
 6029TIP3   OH239645   6.675   4.392   0.133 -0.2883  0.0933 -0.4915
 6029TIP3    H139646   6.678   4.323   0.067  1.6713 -0.0867 -0.2660
 6029TIP3    H239647   6.665   4.346   0.216  0.9473  0.0482 -0.3482
 6030TIP3   OH239648   3.678   1.618   8.110 -0.0107 -0.0023  0.2178
 6030TIP3    H139649   3.700   1.697   8.061 -1.3141  0.2273 -0.0228
 6030TIP3    H239650   3.761   1.570   8.116  0.4583  0.6146 -1.0222
 6031TIP3   OH239651   0.771   3.705   1.657  0.4298  0.3004 -0.1391
 6031TIP3    H139652   0.707   3.650   1.702  0.8517  0.9044  1.2609
 6031TIP3    H239653   0.744   3.704   1.566 -0.4132 -1.0480  0.0928
 6032TIP3   OH239654   0.781   6.627   0.742 -0.0080  0.3368  0.4113
 6032TIP3    H139655   0.863   6.611   0.696  0.4984  1.3131  0.9605
 6032TIP3    H239656   0.723   6.666   0.676 -0.9451 -2.5934 -0.6935
 6033TIP3   OH239657   5.591   2.066   1.036  0.0326 -0.2846 -0.2978
 6033TIP3    H139658   5.684   2.086   1.023 -0.1419 -0.0931 -1.2937
 6033TIP3    H239659   5.583   2.050   1.131  1.2488 -1.2081 -0.3236
 6034TIP3   OH239660   3.679   5.538   0.016 -0.0185  0.3973  0.0075
 6034TIP3    H139661   3.679   5.588  -0.066 -2.4780  0.7399  0.1524
 6034TIP3    H239662   3.635   5.595   0.079 -0.2081 -0.7663  0.9627
 6035TIP3   OH239663   6.705   1.969   7.522 -0.4109  0.0624  0.1033
 6035TIP3    H139664   6.611   1.989   7.523 -0.7400 -1.3472  1.9579
 6035TIP3    H239665   6.736   1.998   7.608  0.7771  0.1229 -0.3341
 6036TIP3   OH239666   0.518   4.915   3.523 -0.4792 -0.1956 -0.1478
 6036TIP3    H139667   0.494   4.911   3.430  0.1982 -0.3613 -0.3170
 6036TIP3    H239668   0.433   4.916   3.569 -0.8242 -0.9746 -0.7330
 6037TIP3   OH239669   6.052   0.651   8.024 -0.5756 -0.1313 -0.7444
 6037TIP3    H139670   6.014   0.719   7.968  2.4875  0.7398 -1.9951
 6037TIP3    H239671   6.097   0.699   8.093 -2.8093 -1.1575  1.5772
 6038TIP3   OH239672   3.091   6.611   7.530  0.9647  0.4902  0.7396
 6038TIP3    H139673   3.067   6.686   7.584  0.5025  1.5801 -0.9181
 6038TIP3    H239674   3.146   6.647   7.461 -1.6657 -0.0881 -1.8534
 6039TIP3   OH239675   3.203   4.665   0.309  0.3736 -0.1174  0.2718
 6039TIP3    H139676   3.115   4.631   0.326  0.8367 -1.4393  0.1948
 6039TIP3    H239677   3.241   4.602   0.248  1.5896  0.0774  0.7920
 6040TIP3   OH239678   1.013   0.570   1.315 -0.2094  0.1371  0.3742
 6040TIP3    H139679   1.066   0.589   1.238 -0.5465 -0.7250 -0.0909
 6040TIP3    H239680   1.015   0.474   1.322  0.1981  0.2256  1.7100
 6041TIP3   OH239681   5.647   5.862   1.586 -0.1136  0.1654 -0.0875
 6041TIP3    H139682   5.568   5.877   1.533 -1.6370 -0.7273  1.7983
 6041TIP3    H239683   5.641   5.926   1.656  2.1030  1.6190 -1.1309
 6042TIP3   OH239684   1.632   2.670   0.905 -0.2443 -0.7901  0.5457
 6042TIP3    H139685   1.682   2.676   0.987 -0.1735 -1.1674  0.5341
 6042TIP3    H239686   1.694   2.694   0.837 -0.7275  1.1271  0.7176
 6043TIP3   OH239687   5.171   5.997   1.956 -0.2401 -0.0123 -0.2352
 6043TIP3    H139688   5.249   5.957   1.994 -0.6554 -1.0911 -0.4954
 6043TIP3    H239689   5.205   6.060   1.892  0.4475  1.1855  1.2489
 6044TIP3   OH239690   6.090   1.355   8.139  0.3405 -0.2971  0.6172
 6044TIP3    H139691   6.076   1.285   8.075 -0.0714 -0.2465  0.6484
 6044TIP3    H239692   6.155   1.412   8.098 -1.0936  0.6173 -0.5019
 6045TIP3   OH239693   2.740   2.692   8.689  0.1248 -0.0303  0.6471
 6045TIP3    H139694   2.816   2.724   8.738  0.5295  1.3548 -0.7885
 6045TIP3    H239695   2.777   2.649   8.612 -0.4723  2.1261 -0.9497
 6046TIP3   OH239696   4.847   0.265   0.073  0.5777 -0.1336 -0.1752
 6046TIP3    H139697   4.805   0.188   0.037  0.2178  0.4292 -1.0018
 6046TIP3    H239698   4.775   0.318   0.107  0.8954 -0.5460  1.1898
 6047TIP3   OH239699   1.024   3.127   8.562 -0.3405 -0.0087  0.3839
 6047TIP3    H139700   1.059   3.215   8.576  0.3047 -0.2764  0.4832
 6047TIP3    H239701   1.101   3.071   8.561 -0.6444 -0.4212 -0.9169
 6048TIP3   OH239702   0.807   2.280   2.187  0.0865 -0.2752 -0.5415
 6048TIP3    H139703   0.847   2.349   2.133 -0.9891  0.5505 -0.3356
 6048TIP3    H239704   0.717   2.311   2.201 -0.3502 -1.6225 -0.2425
 6049TIP3   OH239705   6.051   3.867   8.433  0.1161 -0.0783  0.2116
 6049TIP3    H139706   6.124   3.812   8.460  0.8912  1.0668  0.5410
 6049TIP3    H239707   5.973   3.826   8.470  0.9921  0.8068  3.2982
 6050TIP3   OH239708   2.004   6.706   0.258 -0.3597 -0.4105 -0.2144
 6050TIP3    H139709   2.089   6.717   0.301 -0.2512 -1.9623  0.0563
 6050TIP3    H239710   1.952   6.655   0.321 -0.7653 -1.2868 -1.2245
 6051TIP3   OH239711   4.719   4.883   7.465 -0.1217 -0.5870 -0.0015
 6051TIP3    H139712   4.728   4.840   7.380  0.2924 -3.4500  1.3695
 6051TIP3    H239713   4.793   4.945   7.469 -1.7087  1.6934 -2.7254
 6052TIP3   OH239714   6.518   2.190   7.678  0.4988 -0.3758  0.6977
 6052TIP3    H139715   6.494   2.283   7.670  0.4890 -0.3561  0.9562
 6052TIP3    H239716   6.582   2.188   7.749  1.4005 -0.4038 -0.0988
 6053TIP3   OH239717   2.969   6.305   2.456  0.0959  0.1998 -0.1065
 6053TIP3    H139718   2.901   6.370   2.472 -3.3824 -2.6309 -2.1185
 6053TIP3    H239719   2.997   6.323   2.365 -0.5584 -0.8021 -0.5128
 6054TIP3   OH239720   5.701   4.059   8.501 -0.1741  0.0127  0.2044
 6054TIP3    H139721   5.788   4.033   8.472  0.2978 -1.0652  2.3770
 6054TIP3    H239722   5.645   3.985   8.478 -0.3003  0.1881 -0.0737
 6055TIP3   OH239723   1.930   6.378   8.109 -0.0238  0.9557  0.1964
 6055TIP3    H139724   1.918   6.448   8.173  0.2087  1.5308 -0.3721
 6055TIP3    H239725   1.889   6.412   8.029 -0.3240  0.2436  0.0360
 6056TIP3   OH239726   5.524   0.568   0.021 -0.3143 -0.1418  0.9502
 6056TIP3    H139727   5.619   0.579   0.013 -0.5427  0.6541 -1.0603
 6056TIP3    H239728   5.495   0.540  -0.066 -1.9307 -0.4449  1.5484
 6057TIP3   OH239729   5.400   5.750   0.257 -0.3358 -0.0248 -0.4659
 6057TIP3    H139730   5.337   5.793   0.199  0.5919 -2.3650 -3.4605
 6057TIP3    H239731   5.483   5.795   0.240 -0.2461 -0.0783 -0.1807
 6058TIP3   OH239732   3.487   2.210   7.790 -0.4973 -0.0297  0.6244
 6058TIP3    H139733   3.539   2.134   7.764 -1.9382 -0.0620 -2.6625
 6058TIP3    H239734   3.444   2.183   7.872 -0.7074 -2.6637 -0.2508
 6059TIP3   OH239735   2.801   1.906   1.662 -0.3309  0.0906 -0.4179
 6059TIP3    H139736   2.748   1.855   1.723  0.1316 -1.6003 -1.3819
 6059TIP3    H239737   2.869   1.846   1.632  0.6973  1.4926 -1.0524
 6060TIP3   OH239738   4.601   4.393   8.141 -0.3199  0.2878 -0.1485
 6060TIP3    H139739   4.627   4.302   8.127 -2.4958 -0.1967 -1.3834
 6060TIP3    H239740   4.681   4.443   8.123  1.0160 -1.3475  0.8907
 6061TIP3   OH239741   2.793   1.265   7.970  0.4138 -0.3031 -0.0437
 6061TIP3    H139742   2.730   1.195   7.955  0.0132  0.4376 -2.2680
 6061TIP3    H239743   2.867   1.243   7.913  0.0634  1.2883 -1.1811
 6062TIP3   OH239744   0.572   0.469   8.206  0.0694 -0.2497  0.4545
 6062TIP3    H139745   0.607   0.394   8.255 -1.7923 -1.2756  0.3076
 6062TIP3    H239746   0.624   0.472   8.126 -0.0776 -1.6676  0.2808
 6063TIP3   OH239747   0.292   6.654   1.413  0.2452 -0.2660  0.0045
 6063TIP3    H139748   0.268   6.608   1.494 -1.3289  0.3904 -0.0475
 6063TIP3    H239749   0.381   6.686   1.430  0.8598 -2.1032  0.5559
 6064TIP3   OH239750   0.846   2.609   7.970 -0.2477 -0.5845  0.3527
 6064TIP3    H139751   0.754   2.637   7.961  0.3763  2.1270  1.4107
 6064TIP3    H239752   0.895   2.691   7.974  2.3699 -1.9537 -1.0256
 6065TIP3   OH239753   3.465   3.757   2.016 -0.1599  0.4544  0.8782
 6065TIP3    H139754   3.479   3.809   1.936  0.9221  0.2464  0.9123
 6065TIP3    H239755   3.424   3.677   1.986 -1.3351  1.0829  0.7536
 6066TIP3   OH239756   2.055   0.433   0.291  0.5207  0.0743  0.0610
 6066TIP3    H139757   2.001   0.469   0.220 -1.4398 -0.2311  1.3340
 6066TIP3    H239758   2.027   0.342   0.299  1.0468 -0.0252  0.9348
 6067TIP3   OH239759   1.328   5.220   0.092 -0.4202  0.6102 -0.1097
 6067TIP3    H139760   1.324   5.229  -0.003 -0.1234 -2.8984 -0.5788
 6067TIP3    H239761   1.239   5.200   0.119  0.2785 -4.6861 -0.6956
 6068TIP3   OH239762   6.271   3.097   0.433  0.3714  0.2506 -0.2777
 6068TIP3    H139763   6.342   3.152   0.400  0.7284 -0.9980 -1.6876
 6068TIP3    H239764   6.314   3.031   0.486  0.6636 -1.9922 -3.0729
 6069TIP3   OH239765   1.162   0.008   3.393 -0.3335 -0.3195  0.2863
 6069TIP3    H139766   1.244  -0.040   3.386 -0.4034 -0.5247  0.8588
 6069TIP3    H239767   1.170   0.079   3.329 -0.1846 -1.0197 -0.4902
 6070TIP3   OH239768   3.550   0.575   7.580 -0.1045  0.3278  0.1045
 6070TIP3    H139769   3.480   0.511   7.570  1.4730 -1.3959 -0.4010
 6070TIP3    H239770   3.631   0.526   7.566  1.2012  2.4217 -0.2831
 6071TIP3   OH239771   1.338   1.569   0.412 -0.0278 -0.2363  0.2343
 6071TIP3    H139772   1.382   1.504   0.358 -0.3182  1.1457 -1.8124
 6071TIP3    H239773   1.371   1.554   0.500  1.3069 -1.9244 -0.4974
 6072TIP3   OH239774   2.367   0.082   0.247 -0.7926 -0.8170 -0.1395
 6072TIP3    H139775   2.297   0.046   0.302 -2.2112 -2.0601 -2.5849
 6072TIP3    H239776   2.329   0.161   0.209 -0.5284 -0.9683 -0.7345
 6073TIP3   OH239777   6.584   5.299   1.057 -0.4201  0.6885  0.1411
 6073TIP3    H139778   6.531   5.282   1.135 -1.0709  3.3362  0.3729
 6073TIP3    H239779   6.521   5.318   0.988  0.1589 -1.4997 -1.0824
 6074TIP3   OH239780   6.127   4.010   7.958  0.2721 -0.6546 -0.6784
 6074TIP3    H139781   6.168   3.925   7.975  1.0813 -0.6015 -2.2006
 6074TIP3    H239782   6.063   3.993   7.889  0.1888 -0.0925 -0.7494
 6075TIP3   OH239783   0.945   4.022   8.412 -0.0643 -0.1878 -0.2950
 6075TIP3    H139784   0.936   4.065   8.496 -0.0730  0.7907 -0.7868
 6075TIP3    H239785   0.894   3.941   8.421 -0.6780  0.2668  0.3954
 6076TIP3   OH239786   6.051   3.773   8.155  0.4021 -0.0494 -0.0387
 6076TIP3    H139787   6.139   3.791   8.121 -0.5437  0.6799 -2.3040
 6076TIP3    H239788   6.057   3.795   8.248  3.7010 -4.0633  1.0259
 6077TIP3   OH239789   3.447   6.492   8.153 -0.0512  0.0500  0.3807
 6077TIP3    H139790   3.448   6.551   8.078  0.7812  0.1169  0.4384
 6077TIP3    H239791   3.392   6.537   8.218  1.3371  1.2304  0.7848
 6078TIP3   OH239792   5.506   3.468   8.539  0.3486 -0.3697  0.1816
 6078TIP3    H139793   5.478   3.418   8.462  1.1395  0.1839 -0.4855
 6078TIP3    H239794   5.597   3.443   8.552  0.0866 -0.8087  1.2407
 6079TIP3   OH239795   3.311   4.185   0.927  0.0471  0.5298 -0.1245
 6079TIP3    H139796   3.287   4.129   0.854  1.0004  1.2842 -1.0486
 6079TIP3    H239797   3.308   4.274   0.891  2.8731  0.7782  0.0010
 6080TIP3   OH239798   1.711   0.423   8.406  0.0782  0.2805  0.7461
 6080TIP3    H139799   1.625   0.442   8.369  0.2981 -0.0503  0.0464
 6080TIP3    H239800   1.694   0.407   8.499 -0.7155 -0.4730  0.4831
 6081TIP3   OH239801   3.674   2.660   2.014  0.3263 -0.1760  0.1337
 6081TIP3    H139802   3.714   2.718   2.079 -1.0354  0.8259  0.1109
 6081TIP3    H239803   3.702   2.572   2.040 -0.9769  0.0874  2.6862
 6082TIP3   OH239804   6.822   2.510   7.679 -0.6036  0.0450  0.4021
 6082TIP3    H139805   6.770   2.590   7.679  0.2228  0.5848  0.6306
 6082TIP3    H239806   6.791   2.461   7.756 -1.4839 -0.1231 -0.0386
 6083TIP3   OH239807   0.404   6.610   1.161  0.3547 -0.5001  0.0944
 6083TIP3    H139808   0.367   6.622   1.249 -0.2607  0.1935 -0.2465
 6083TIP3    H239809   0.429   6.698   1.133 -2.2715 -0.1783 -1.6197
 6084TIP3   OH239810   3.434   6.268   2.698  0.0344 -0.2301  0.4873
 6084TIP3    H139811   3.499   6.267   2.768  1.5899 -0.5509 -0.9011
 6084TIP3    H239812   3.417   6.175   2.681 -1.1225 -0.1532  1.0887
 6085TIP3   OH239813   1.226   3.354   8.186 -0.2927  0.2623 -0.3630
 6085TIP3    H139814   1.293   3.420   8.168  1.3789 -1.3121 -0.2532
 6085TIP3    H239815   1.246   3.323   8.274  0.4428 -1.9591 -1.2299
 6086TIP3   OH239816   4.611   3.691   2.151  0.7356 -0.0326 -0.7129
 6086TIP3    H139817   4.654   3.687   2.236  2.3471 -0.1629 -1.4911
 6086TIP3    H239818   4.650   3.619   2.101 -2.5903 -2.1281 -0.5710
 6087TIP3   OH239819   5.383   4.682   1.394  0.0233 -0.6663  0.4626
 6087TIP3    H139820   5.350   4.600   1.429  2.2723 -1.7872  0.1055
 6087TIP3    H239821   5.438   4.718   1.463 -0.8364  0.5297  0.5689
 6088TIP3   OH239822   4.769   0.367   1.179 -0.3810  0.1614 -0.0571
 6088TIP3    H139823   4.835   0.425   1.139  1.2950 -1.3761  0.3232
 6088TIP3    H239824   4.766   0.395   1.271 -0.6565  0.5761 -0.1901
 6089TIP3   OH239825   3.203   6.045   1.884 -0.1460 -0.6230  0.1251
 6089TIP3    H139826   3.199   6.116   1.948  1.1501 -0.2704 -0.1650
 6089TIP3    H239827   3.209   5.965   1.936  3.8338 -0.2056  0.5680
 6090TIP3   OH239828   4.244   4.430   1.422  0.3710 -0.0547  0.5117
 6090TIP3    H139829   4.213   4.343   1.396 -0.2981 -0.3426  2.1528
 6090TIP3    H239830   4.176   4.463   1.481 -0.4261  2.4775 -1.6292
 6091TIP3   OH239831   0.442   4.651   7.997 -0.3347 -0.7113  0.2853
 6091TIP3    H139832   0.455   4.683   7.908 -1.3876 -2.3322 -0.5068
 6091TIP3    H239833   0.420   4.729   8.047  0.4856  0.2667 -0.8122
 6092TIP3   OH239834   0.087   4.300   1.598 -0.0076  0.0932 -0.6346
 6092TIP3    H139835   0.146   4.356   1.547  1.8107 -1.1775 -0.0247
 6092TIP3    H239836   0.141   4.267   1.670 -1.7378 -0.4069  0.4834
 6093TIP3   OH239837   5.778   3.118   0.930 -0.2206 -0.2230 -0.6855
 6093TIP3    H139838   5.869   3.118   0.898  0.4923 -0.9381  1.1663
 6093TIP3    H239839   5.754   3.210   0.932  1.3084  0.2101  0.8676
 6094TIP3   OH239840   0.588   6.545   2.179 -0.5036  0.8863 -0.1113
 6094TIP3    H139841   0.638   6.465   2.197  0.1946  0.7561 -2.3217
 6094TIP3    H239842   0.626   6.610   2.238  0.6853  0.2030 -0.0726
 6095TIP3   OH239843   0.414   2.783   7.732 -0.0289  0.5441  0.5793
 6095TIP3    H139844   0.417   2.863   7.784 -2.1872  0.4865  0.8778
 6095TIP3    H239845   0.384   2.716   7.794  1.3774 -0.4391  0.2422
 6096TIP3   OH239846   5.183   2.864   0.540  0.2420  0.7383 -0.1733
 6096TIP3    H139847   5.203   2.858   0.447  0.4851 -0.1271 -0.0807
 6096TIP3    H239848   5.160   2.955   0.555 -0.7734  0.6875 -1.2785
 6097TIP3   OH239849   0.877   4.016   7.497 -0.1459  0.2655  0.0043
 6097TIP3    H139850   0.856   3.965   7.575 -0.7652 -0.6291 -0.7365
 6097TIP3    H239851   0.970   3.999   7.482 -0.3159 -0.5671 -0.1619
 6098TIP3   OH239852   2.696   4.324   8.367  0.3539 -0.0150 -0.4649
 6098TIP3    H139853   2.788   4.319   8.343  1.0581  0.1517  1.9286
 6098TIP3    H239854   2.684   4.254   8.431 -0.5914  1.2951  0.8783
 6099TIP3   OH239855   3.406   3.143   8.363 -0.1431  0.0655  0.6252
 6099TIP3    H139856   3.470   3.212   8.347 -0.7823  0.3461 -0.9606
 6099TIP3    H239857   3.392   3.104   8.277  0.0054 -1.8952  1.4328
 6100TIP3   OH239858   1.630   1.531   1.603  0.4696  0.1861  0.0228
 6100TIP3    H139859   1.653   1.443   1.571  0.9284 -0.3953  1.8305
 6100TIP3    H239860   1.535   1.534   1.600  0.5001  0.9653 -3.3458
 6101TIP3   OH239861   6.698   6.631   1.032 -0.1756 -0.1589 -0.1082
 6101TIP3    H139862   6.624   6.577   1.061 -0.8689  0.7700 -0.1181
 6101TIP3    H239863   6.732   6.584   0.955 -1.4826 -0.0050 -0.8113
 6102TIP3   OH239864   0.316   2.575   1.652  0.5903  0.4639  0.0119
 6102TIP3    H139865   0.237   2.619   1.621 -0.1685 -0.3054  0.7949
 6102TIP3    H239866   0.294   2.482   1.647  0.6151  0.2889  2.3425
 6103TIP3   OH239867   1.039   0.069   2.692  0.2268  0.2320  0.3144
 6103TIP3    H139868   0.991  -0.006   2.726 -0.6066  1.2218  1.3943
 6103TIP3    H239869   1.010   0.076   2.601  0.3614 -0.7791  0.1827
 6104TIP3   OH239870   0.308   0.808   1.898 -0.1159 -0.1757 -0.2702
 6104TIP3    H139871   0.319   0.800   1.803  0.5204  0.2740 -0.2436
 6104TIP3    H239872   0.398   0.811   1.932 -0.3022  1.3890  0.1868
 6105TIP3   OH239873   6.419   6.717   1.716 -0.7232 -0.6606 -0.2435
 6105TIP3    H139874   6.490   6.752   1.771 -1.2240 -1.0335  0.6455
 6105TIP3    H239875   6.460   6.706   1.630  0.0986 -0.1592  0.0683
 6106TIP3   OH239876   1.685   4.356   2.342 -0.1687 -0.0755  0.1949
 6106TIP3    H139877   1.723   4.425   2.397 -2.1638  0.8100  0.5968
 6106TIP3    H239878   1.656   4.402   2.264 -1.1521 -0.5196  0.2822
 6107TIP3   OH239879   1.199   5.020   1.567  0.4516  0.3772 -0.1177
 6107TIP3    H139880   1.139   5.094   1.563 -0.0229 -0.0212 -0.6460
 6107TIP3    H239881   1.283   5.057   1.593  1.4875  1.9144 -4.7418
 6108TIP3   OH239882   5.926   5.124   8.497  0.4471  0.0409  0.2207
 6108TIP3    H139883   5.941   5.203   8.548  1.9212 -0.7258  1.0472
 6108TIP3    H239884   5.924   5.053   8.562  3.4097 -1.1042 -0.7703
 6109TIP3   OH239885   0.121   4.272   0.457  1.0665  0.6071  0.2872
 6109TIP3    H139886   0.047   4.241   0.510  1.2290 -0.9399 -0.3214
 6109TIP3    H239887   0.083   4.290   0.371  1.4936 -0.9757 -0.2665
 6110TIP3   OH239888   5.608   3.277   2.483 -0.3024  0.0170  0.0031
 6110TIP3    H139889   5.655   3.348   2.527 -2.2048  0.6249  1.2014
 6110TIP3    H239890   5.655   3.198   2.507 -0.4181  0.4937  2.0037
 6111TIP3   OH239891   4.295   0.264   1.122  0.4175 -0.3521 -0.6430
 6111TIP3    H139892   4.243   0.217   1.187  0.4330  0.0191 -0.3570
 6111TIP3    H239893   4.330   0.196   1.065 -0.5394 -0.5905 -0.9614
 6112TIP3   OH239894   3.482   4.219   0.551  0.3668  0.6478  0.1550
 6112TIP3    H139895   3.405   4.168   0.576  0.0867  0.9075 -0.1535
 6112TIP3    H239896   3.556   4.172   0.587 -0.0229  1.0128  1.4721
 6113TIP3   OH239897   6.734   3.022   7.591 -0.0453  0.1164 -0.4038
 6113TIP3    H139898   6.775   2.936   7.601 -4.5621 -2.3305 -0.0729
 6113TIP3    H239899   6.741   3.062   7.678 -0.7866 -1.4820  0.4317
 6114TIP3   OH239900   3.508   1.061   0.511  0.5337  0.1681  0.0156
 6114TIP3    H139901   3.428   1.111   0.529 -0.3889 -0.4906 -1.9318
 6114TIP3    H239902   3.533   1.088   0.423  2.3590  0.1694  0.5029
 6115TIP3   OH239903   4.097   2.550   2.771 -0.2354 -0.0312 -0.4072
 6115TIP3    H139904   4.151   2.625   2.797 -0.2633 -0.5953  1.4123
 6115TIP3    H239905   4.137   2.520   2.689  0.3149  1.4130 -0.7093
 6116TIP3   OH239906   1.353   4.625   2.043 -0.4877 -0.0194  0.2140
 6116TIP3    H139907   1.366   4.623   2.137 -1.2005  0.3589  0.3224
 6116TIP3    H239908   1.260   4.608   2.030 -0.2100 -1.1302 -0.4792
 6117TIP3   OH239909   0.643   5.785   0.738  0.2412 -0.5598 -0.0106
 6117TIP3    H139910   0.729   5.741   0.742 -0.0619 -1.1069  1.1115
 6117TIP3    H239911   0.662   5.877   0.753  0.5813 -0.7737  0.9366
 6118TIP3   OH239912   5.548   1.642   0.338 -0.6943  0.5248  0.0191
 6118TIP3    H139913   5.614   1.620   0.272  0.0336 -0.6526  1.1050
 6118TIP3    H239914   5.542   1.738   0.335 -0.4738  0.5149 -1.5391
 6119TIP3   OH239915   2.719   0.652   0.061  0.5637 -0.3887  0.1199
 6119TIP3    H139916   2.779   0.581   0.083  0.6795 -0.1500  0.6017
 6119TIP3    H239917   2.670   0.668   0.142  0.6405  0.1711  0.0639
 6120TIP3   OH239918   0.489   4.903   3.233  0.2032 -0.6802  0.4310
 6120TIP3    H139919   0.439   4.832   3.194 -0.2200  0.1302 -0.5767
 6120TIP3    H239920   0.472   4.978   3.175 -0.9450  0.7575  2.5020
 6121TIP3   OH239921   3.248   3.133   7.110  0.1824  0.3395 -0.3404
 6121TIP3    H139922   3.341   3.153   7.124  0.3432  0.0731 -0.9821
 6121TIP3    H239923   3.241   3.119   7.015  0.0353 -2.4384 -0.0009
 6122TIP3   OH239924   3.164   5.767   1.074  0.5385  0.5671  0.6898
 6122TIP3    H139925   3.253   5.784   1.041  0.2621 -1.3180 -1.2266
 6122TIP3    H239926   3.167   5.677   1.107 -0.1306  1.2439  2.7689
 6123TIP3   OH239927   0.905   3.526   8.226  0.6264 -0.1341  0.0580
 6123TIP3    H139928   0.904   3.454   8.164  1.7773 -1.0409  1.0479
 6123TIP3    H239929   0.821   3.521   8.271  0.3260 -0.2729 -0.5160
 6124TIP3   OH239930   2.332   3.988   7.575  0.0262 -0.4320  0.7953
 6124TIP3    H139931   2.238   3.971   7.580  0.0922 -0.8142  0.8162
 6124TIP3    H239932   2.371   3.927   7.638  0.4039 -1.3154 -0.2418
 6125TIP3   OH239933   2.259   2.789   7.950 -0.6342  0.6388  0.9247
 6125TIP3    H139934   2.244   2.694   7.947  0.9460  0.1958  3.5678
 6125TIP3    H239935   2.354   2.797   7.961 -0.3794  2.7001 -1.8063
 6126TIP3   OH239936   5.149   0.508   8.663  0.4469  0.6199  0.4081
 6126TIP3    H139937   5.187   0.550   8.740  3.6887  1.1851 -1.3219
 6126TIP3    H239938   5.153   0.414   8.683  0.3169  0.7888  1.2761
 6127TIP3   OH239939   0.213   0.852   8.234  0.2883  0.2687  0.3622
 6127TIP3    H139940   0.184   0.848   8.325 -2.7115 -1.2935 -0.5391
 6127TIP3    H239941   0.261   0.770   8.221  2.3934  1.3231  0.9253
 6128TIP3   OH239942   1.199   6.447   8.617 -0.1765  0.1351 -0.5556
 6128TIP3    H139943   1.111   6.444   8.579 -1.2561  3.2216  1.3189
 6128TIP3    H239944   1.196   6.386   8.691 -1.1763  1.0654  0.1967
 6129TIP3   OH239945   5.756   6.601   2.636 -0.2531  0.1059 -0.4411
 6129TIP3    H139946   5.724   6.661   2.703 -0.0737 -0.9339  0.6206
 6129TIP3    H239947   5.828   6.554   2.678 -1.8791 -2.5310 -0.3114
 6130TIP3   OH239948   0.316   4.154   8.486 -0.0703  0.2391  0.2663
 6130TIP3    H139949   0.395   4.124   8.531 -0.9295  0.2958  1.8645
 6130TIP3    H239950   0.308   4.094   8.411  2.0893  0.9455 -0.6319
 6131TIP3   OH239951   3.122   4.061   1.128 -0.1676  0.5995  0.8180
 6131TIP3    H139952   3.199   4.005   1.124 -1.3865 -1.1708  1.1286
 6131TIP3    H239953   3.117   4.102   1.042  0.0246 -0.8013  0.1141
 6132TIP3   OH239954   6.679   4.697   1.568 -0.5296 -0.2802  0.4447
 6132TIP3    H139955   6.707   4.627   1.626 -0.1256  0.1221  0.7428
 6132TIP3    H239956   6.653   4.653   1.487  1.1299 -0.6670  0.0904
 6133TIP3   OH239957   3.955   0.507   0.262  0.0516 -0.2765 -0.0750
 6133TIP3    H139958   3.912   0.586   0.228  1.8347  0.5633 -0.5010
 6133TIP3    H239959   3.893   0.472   0.326 -1.6537  0.3308 -1.3098
 6134TIP3   OH239960   2.434   5.596   2.612  0.2299  0.8641 -0.5470
 6134TIP3    H139961   2.363   5.614   2.551 -0.3903 -1.1984 -0.5238
 6134TIP3    H239962   2.408   5.639   2.693 -1.2912 -0.2522 -0.3975
 6135TIP3   OH239963   2.643   2.927   0.858 -0.1672 -0.2930  0.0694
 6135TIP3    H139964   2.627   2.836   0.835  0.9172 -0.7936  1.1588
 6135TIP3    H239965   2.581   2.946   0.928  0.2071 -0.4939  0.4637
 6136TIP3   OH239966   2.367   6.475   2.221  0.3322 -0.3550  0.1133
 6136TIP3    H139967   2.405   6.444   2.139  0.8426 -1.8438  0.8803
 6136TIP3    H239968   2.344   6.395   2.268 -2.0260  0.4739  0.4967
 6137TIP3   OH239969   4.706   4.159   8.051 -0.4086 -0.0985 -0.1105
 6137TIP3    H139970   4.633   4.137   7.993  0.1740 -0.6929 -0.6492
 6137TIP3    H239971   4.784   4.137   7.999  0.1265 -0.7386  0.9403
 6138TIP3   OH239972   3.965   2.789   8.612  0.1492  0.4243 -0.3560
 6138TIP3    H139973   4.024   2.770   8.539 -0.2566 -0.3347 -0.4915
 6138TIP3    H239974   3.914   2.864   8.582  1.1230  1.1929 -0.1802
 6139TIP3   OH239975   6.581   6.619   6.869 -0.3801 -0.2338  0.0886
 6139TIP3    H139976   6.592   6.566   6.949  0.2406 -1.4757 -0.7796
 6139TIP3    H239977   6.489   6.610   6.847 -0.2095 -1.2813 -0.2488
 6140TIP3   OH239978   3.990   6.501   8.279 -0.6525  0.2678  0.4401
 6140TIP3    H139979   3.949   6.578   8.317  1.2622  1.4352  0.2864
 6140TIP3    H239980   4.012   6.446   8.354  2.7215  2.3645  1.2124
 6141TIP3   OH239981   2.869   1.413   8.190 -0.2854 -0.4223  0.2153
 6141TIP3    H139982   2.795   1.378   8.240 -0.3434 -0.6922 -0.0530
 6141TIP3    H239983   2.863   1.368   8.105  0.5505 -0.9147  0.4036
 6142TIP3   OH239984   3.980   0.568   8.602 -0.9965  0.2746  0.6594
 6142TIP3    H139985   3.910   0.598   8.660 -1.1092  0.8862  0.2186
 6142TIP3    H239986   4.055   0.624   8.623 -1.3397  1.2184 -0.4757
 6143TIP3   OH239987   6.429   4.439   8.497 -0.1806  0.3986  0.6331
 6143TIP3    H139988   6.435   4.375   8.568 -1.6471  0.1421  0.5656
 6143TIP3    H239989   6.511   4.430   8.449 -1.1957 -3.0697 -0.7212
 6144TIP3   OH239990   2.582   0.051   1.562  0.5344 -0.0138 -0.0008
 6144TIP3    H139991   2.553   0.102   1.487 -0.4326  0.6105  0.7769
 6144TIP3    H239992   2.505   0.001   1.588  1.3922 -1.7242 -0.5922
 6145TIP3   OH239993   2.252   6.703   1.315 -0.0814  0.3816  0.0166
 6145TIP3    H139994   2.218   6.624   1.272 -1.1917  1.0285 -0.3337
 6145TIP3    H239995   2.302   6.670   1.390 -1.1071 -0.6372  0.2774
 6146TIP3   OH239996   0.645   3.887   0.358 -0.0580 -0.3097 -0.4794
 6146TIP3    H139997   0.569   3.940   0.336  0.5264  0.0985 -1.5727
 6146TIP3    H239998   0.637   3.809   0.304 -0.6287 -1.1270  0.7281
 6147TIP3   OH239999   3.528   0.483   1.086  0.2488  0.2292 -0.4872
 6147TIP3    H140000   3.511   0.543   1.014 -0.3383 -0.3244 -0.8143
 6147TIP3    H240001   3.557   0.540   1.158  2.1112  0.6734 -1.5161
 6148TIP3   OH240002   6.446   3.734   1.975 -0.4262 -0.5442  0.0288
 6148TIP3    H140003   6.377   3.674   1.945 -3.3228  0.7187  3.4433
 6148TIP3    H240004   6.431   3.814   1.925 -0.4434 -0.7410 -0.2862
 6149TIP3   OH240005   4.831   5.579   0.853  0.2617 -0.1526  0.4939
 6149TIP3    H140006   4.783   5.619   0.781 -1.0331 -3.1635 -0.4812
 6149TIP3    H240007   4.923   5.599   0.836 -0.2129  1.1030 -0.7015
 6150TIP3   OH240008   1.506   0.299   7.944 -0.0228  0.3854 -0.1354
 6150TIP3    H140009   1.411   0.295   7.931 -0.3100  1.7318  1.2727
 6150TIP3    H240010   1.531   0.385   7.911  0.2626  1.1285  1.8842
 6151TIP3   OH240011   5.197   3.694   2.153  0.2386  0.0250 -0.8510
 6151TIP3    H140012   5.287   3.701   2.121 -0.2636 -0.6984 -2.5236
 6151TIP3    H240013   5.170   3.784   2.170  0.0692  0.6762 -3.9902
 6152TIP3   OH240014   6.698   2.685   7.447 -0.4055 -0.2155 -0.2691
 6152TIP3    H140015   6.655   2.690   7.532 -1.4081 -2.5677 -0.5510
 6152TIP3    H240016   6.660   2.757   7.397  0.3903  1.3660  1.3143
 6153TIP3   OH240017   0.765   0.173   7.910  1.2792  0.0922 -0.4146
 6153TIP3    H140018   0.713   0.206   7.983  0.6881  2.3698 -1.7366
 6153TIP3    H240019   0.747   0.079   7.908  0.8271  0.0684  1.9372
 6154TIP3   OH240020   4.520   3.071   1.239  0.2366  0.5570 -0.0139
 6154TIP3    H140021   4.531   3.159   1.203  1.6097  0.3652 -0.1028
 6154TIP3    H240022   4.548   3.079   1.330 -1.3496  0.5933  0.4995
 6155TIP3   OH240023   5.597   5.729   7.930  0.1581 -0.0161  0.0766
 6155TIP3    H140024   5.612   5.651   7.982 -0.9921  1.5269  2.9147
 6155TIP3    H240025   5.502   5.734   7.920  0.1144  1.5505  0.9241
 6156TIP3   OH240026   5.072   5.142   1.678 -1.2866  0.7582  0.3519
 6156TIP3    H140027   5.142   5.122   1.616 -1.8748  2.2824 -0.8796
 6156TIP3    H240028   4.995   5.097   1.644 -0.9159 -1.0685  1.8060
 6157TIP3   OH240029   2.358   6.327   7.717 -0.4366  0.3345 -0.0026
 6157TIP3    H140030   2.377   6.339   7.624 -1.4526 -0.7411 -0.3842
 6157TIP3    H240031   2.266   6.299   7.719 -0.2194 -0.3629  1.2683
 6158TIP3   OH240032   6.121   3.038   7.677 -1.1192 -0.1777  0.2343
 6158TIP3    H140033   6.056   3.070   7.614 -0.6821  0.0747 -0.0943
 6158TIP3    H240034   6.114   2.943   7.673  1.0992 -0.3865 -2.6308
 6159TIP3   OH240035   3.409   2.773   7.068 -0.1775 -0.7766  0.1561
 6159TIP3    H140036   3.457   2.753   6.988 -1.0842 -1.3075 -0.2677
 6159TIP3    H240037   3.377   2.688   7.099 -2.8758 -0.2354 -0.8925
 6160TIP3   OH240038   2.345   6.365   2.530 -0.4541  0.2673 -0.5866
 6160TIP3    H140039   2.267   6.375   2.585  0.1254 -1.0922  0.5567
 6160TIP3    H240040   2.394   6.446   2.542 -0.9364  0.4883 -0.0762
 6161TIP3   OH240041   2.780   6.323   1.918  0.4619  0.0149 -0.0465
 6161TIP3    H140042   2.816   6.409   1.899 -0.2453  0.4443  0.5040
 6161TIP3    H240043   2.689   6.327   1.889  0.3025 -0.4035  0.3665
 6162TIP3   OH240044   5.415   3.925   0.544 -0.0959  0.0027  0.0174
 6162TIP3    H140045   5.320   3.920   0.553 -0.1142  0.3980  0.0477
 6162TIP3    H240046   5.447   3.949   0.632 -0.1681  2.4240 -0.5462
 6163TIP3   OH240047   6.787   6.528   0.258 -0.3884  0.5628  0.8868
 6163TIP3    H140048   6.701   6.485   0.264 -0.6376  0.8645 -0.3286
 6163TIP3    H240049   6.822   6.500   0.174 -0.1378  1.9933  0.5000
 6164TIP3   OH240050   3.336   3.650   0.117  0.4817  0.0720  0.0712
 6164TIP3    H140051   3.365   3.571   0.071 -1.0912 -0.4081 -0.1621
 6164TIP3    H240052   3.390   3.653   0.196  0.7648 -1.0814 -0.0588
 6165TIP3   OH240053   4.080   6.516   2.857 -0.5120 -0.0204 -0.0328
 6165TIP3    H140054   4.050   6.502   2.947  0.1307 -1.3834 -0.0044
 6165TIP3    H240055   4.082   6.611   2.847 -0.5975  0.1513  1.3978
 6166TIP3   OH240056   4.301   2.877   8.029 -0.0565 -0.4605 -0.4891
 6166TIP3    H140057   4.323   2.812   8.096 -0.1150  1.3670  1.3746
 6166TIP3    H240058   4.371   2.870   7.965  1.4495 -0.4936  1.0931
 6167TIP3   OH240059   0.689   5.528   2.963  0.6983  0.0357  0.1569
 6167TIP3    H140060   0.642   5.447   2.985 -0.1189  0.3834 -0.2774
 6167TIP3    H240061   0.698   5.526   2.868 -2.5612  2.1226 -0.3424
 6168TIP3   OH240062   0.489   2.614   8.457  0.1592  0.6671 -0.4599
 6168TIP3    H140063   0.547   2.542   8.480  0.0918  0.7368 -0.0713
 6168TIP3    H240064   0.547   2.685   8.431  0.2220  0.2652 -1.5110
 6169TIP3   OH240065   2.542   3.527   2.154 -0.0904  0.0377  0.3705
 6169TIP3    H140066   2.601   3.491   2.221  0.0301  1.6031  1.1592
 6169TIP3    H240067   2.461   3.547   2.201  0.7552  3.3141  0.6903
 6170TIP3   OH240068   4.447   5.634   0.409  0.1234  0.1797  0.5794
 6170TIP3    H140069   4.395   5.593   0.478  2.0472 -0.5081  1.6991
 6170TIP3    H240070   4.430   5.581   0.331 -1.6909  0.6636  0.6126
 6171TIP3   OH240071   4.287   2.977   1.831 -0.1908 -0.2258 -0.0878
 6171TIP3    H140072   4.265   2.885   1.846 -0.5255 -0.0937  0.2602
 6171TIP3    H240073   4.332   3.004   1.911 -1.6751  0.3944  0.5773
 6172TIP3   OH240074   5.696   1.598   0.100 -0.0831 -0.2928  0.3162
 6172TIP3    H140075   5.647   1.601   0.019 -0.5261 -0.3686  0.5762
 6172TIP3    H240076   5.708   1.689   0.126 -3.3544 -0.2410  2.1752
 6173TIP3   OH240077   3.481   1.097   6.978 -0.2199 -0.6212  0.3667
 6173TIP3    H140078   3.412   1.053   6.929  0.2494 -1.7088  0.6420
 6173TIP3    H240079   3.561   1.048   6.956  0.9596  2.0314 -1.8437
 6174TIP3   OH240080   1.844   3.323   2.342  0.4290 -0.2341 -0.2681
 6174TIP3    H140081   1.928   3.340   2.384  0.6744 -0.2006 -0.7563
 6174TIP3    H240082   1.828   3.400   2.287 -1.1738  0.9439  1.7397
 6175TIP3   OH240083   5.455   6.762   2.134  0.4092 -0.1751  0.1275
 6175TIP3    H140084   5.436   6.696   2.067 -0.9070 -0.2962  0.5906
 6175TIP3    H240085   5.490   6.713   2.208  0.5428 -0.2055  0.0448
 6176TIP3   OH240086   5.222   5.664   1.618  0.1968  0.2510  0.1392
 6176TIP3    H140087   5.225   5.664   1.713  0.5450 -0.7813  0.1349
 6176TIP3    H240088   5.170   5.587   1.595  1.6622 -0.5825 -0.5334
 6177TIP3   OH240089   0.431   6.841   0.994 -0.0881  0.1305 -0.5973
 6177TIP3    H140090   0.429   6.922   1.044 -1.3341 -0.5377  0.5331
 6177TIP3    H240091   0.351   6.844   0.941 -0.1105 -0.3102 -0.5961
 6178TIP3   OH240092   5.082   2.700   1.809 -0.2418 -0.0826  0.0422
 6178TIP3    H140093   5.063   2.742   1.892 -2.9251  0.1760 -0.6082
 6178TIP3    H240094   5.057   2.764   1.743 -2.1893 -1.7655 -0.9550
 6179TIP3   OH240095   4.015   0.690   1.992  0.1053 -0.4505  0.0289
 6179TIP3    H140096   4.009   0.602   1.953  1.3887 -0.1896 -0.8137
 6179TIP3    H240097   4.090   0.730   1.949  0.4739  0.5238  1.5007
 6180TIP3   OH240098   6.109   1.097   0.042 -0.3963  0.3770 -0.5917
 6180TIP3    H140099   6.038   1.033   0.034  1.0349 -1.0993 -2.3472
 6180TIP3    H240100   6.087   1.147   0.121 -2.2648 -1.4200  0.1235
 6181TIP3   OH240101   2.300   3.526   7.746  0.2482 -0.6473  0.3653
 6181TIP3    H140102   2.369   3.460   7.742  0.4789 -0.5478  1.9471
 6181TIP3    H240103   2.285   3.539   7.840 -0.2877  1.0344  0.0797
 6182TIP3   OH240104   3.723   3.715   0.207  0.2407 -0.0271 -0.5196
 6182TIP3    H140105   3.806   3.709   0.162  1.3525  1.0087  1.2713
 6182TIP3    H240106   3.697   3.806   0.199 -0.8508 -0.3856 -1.2473
 6183TIP3   OH240107   5.856   2.116   0.960  0.0211 -0.1060  0.2172
 6183TIP3    H140108   5.881   2.038   0.911  0.8941 -0.0288  0.5262
 6183TIP3    H240109   5.898   2.188   0.914  0.0717  0.0680  0.5337
 6184TIP3   OH240110   6.468   1.533   1.254 -0.4120 -0.4304  0.5451
 6184TIP3    H140111   6.416   1.500   1.327  2.0089 -1.4476  1.9158
 6184TIP3    H240112   6.509   1.613   1.287 -1.3601  0.6133 -0.6705
 6185TIP3   OH240113   4.466   2.582   7.542 -0.2015  0.2667  0.0939
 6185TIP3    H140114   4.381   2.624   7.531  0.4920  2.2339  1.6093
 6185TIP3    H240115   4.504   2.580   7.454 -2.2464 -1.8131 -0.8360
 6186TIP3   OH240116   4.975   0.630   0.361  0.2298  0.3035 -0.4083
 6186TIP3    H140117   4.903   0.688   0.338 -0.1851  0.6209  1.4769
 6186TIP3    H240118   4.942   0.542   0.344 -0.9459  0.3984  1.1329
 6187TIP3   OH240119   6.089   6.579   8.081 -0.5660  0.4570 -0.2876
 6187TIP3    H140120   6.016   6.538   8.126 -0.2190  0.7716  0.5958
 6187TIP3    H240121   6.155   6.592   8.149 -0.5034  2.0949 -0.6142
 6188TIP3   OH240122   6.569   1.256   8.566  0.3935  0.4593  0.6695
 6188TIP3    H140123   6.611   1.194   8.506  0.1721  0.6807  0.2848
 6188TIP3    H240124   6.486   1.277   8.524  0.2722  0.6710  1.0203
 6189TIP3   OH240125   5.643   6.253   2.319 -0.8535  0.2771 -0.1005
 6189TIP3    H140126   5.616   6.194   2.248  0.6946  0.0753 -0.5811
 6189TIP3    H240127   5.736   6.269   2.301 -0.4121  0.2017  1.9159
 6190TIP3   OH240128   1.655   2.004   1.464  0.3864 -0.0035  0.7138
 6190TIP3    H140129   1.562   1.980   1.465  0.2884  0.3561  0.5376
 6190TIP3    H240130   1.689   1.977   1.549  0.1433 -0.2313  0.7378
 6191TIP3   OH240131   6.487   1.401   2.277  0.1913 -0.2362 -0.0067
 6191TIP3    H140132   6.434   1.421   2.354  0.0573  1.3224 -0.4635
 6191TIP3    H240133   6.561   1.351   2.310 -0.6781 -0.9723  0.8820
 6192TIP3   OH240134   1.366   6.584   2.109  0.5444 -0.0136 -0.2560
 6192TIP3    H140135   1.402   6.673   2.103 -0.8962  0.7892  1.8570
 6192TIP3    H240136   1.272   6.597   2.123  0.7299 -1.5615  4.2016
 6193TIP3   OH240137   3.056   6.670   7.150  0.5462  0.8746  0.1772
 6193TIP3    H140138   3.088   6.727   7.219 -1.1341  0.9829  0.9131
 6193TIP3    H240139   3.135   6.634   7.110  1.5776  1.8548  1.2592
 6194TIP3   OH240140   0.619   2.779   0.736 -0.0109  0.0367  0.4137
 6194TIP3    H140141   0.590   2.823   0.817  0.1681  1.9339 -0.4840
 6194TIP3    H240142   0.689   2.721   0.765  0.2496  0.8878  1.5931
 6195TIP3   OH240143   3.470   0.023   7.174 -0.2379 -0.0147 -0.4198
 6195TIP3    H140144   3.504   0.111   7.157 -0.7893 -0.1166 -2.2492
 6195TIP3    H240145   3.416   0.003   7.097 -1.6602 -1.2087  0.8283
 6196TIP3   OH240146   4.793   3.493   6.972 -0.1131 -0.0382  0.1556
 6196TIP3    H140147   4.870   3.483   6.915  0.9145  2.6559  0.8837
 6196TIP3    H240148   4.764   3.404   6.989  3.0567 -1.2305  0.0743
 6197TIP3   OH240149   6.401   6.250   0.970  0.3773  0.8078  0.4537
 6197TIP3    H140150   6.377   6.157   0.968 -0.0821  0.9275  0.1641
 6197TIP3    H240151   6.492   6.251   1.001  0.2425  0.2935  0.8655
 6198TIP3   OH240152   5.291   1.594   1.512 -0.0034 -0.4665  0.1486
 6198TIP3    H140153   5.332   1.507   1.511  1.7211  0.2713 -1.8676
 6198TIP3    H240154   5.365   1.655   1.511 -1.1829  1.0187  0.3022
 6199TIP3   OH240155   0.047   3.184   1.768  0.0334 -0.4818  0.2816
 6199TIP3    H140156  -0.036   3.230   1.762 -0.1258 -0.6650  0.9995
 6199TIP3    H240157   0.040   3.132   1.849  0.7805 -0.6177  0.2658
 6200TIP3   OH240158   5.824   3.212   6.650 -0.3327 -0.3184  0.2435
 6200TIP3    H140159   5.777   3.289   6.617  1.2512  0.9008  0.7166
 6200TIP3    H240160   5.916   3.230   6.632  0.1103 -1.9718  0.6708
 6201TIP3   OH240161   3.856   2.396   3.098 -0.1155 -0.1909 -0.3616
 6201TIP3    H140162   3.877   2.333   3.168  0.6370 -0.4819 -0.8428
 6201TIP3    H240163   3.915   2.373   3.027 -0.4323  0.5237 -0.8597
 6202TIP3   OH240164   6.551   4.013   0.648  0.4392 -0.0525  0.2260
 6202TIP3    H140165   6.600   3.961   0.712 -0.2410 -1.0908 -0.0716
 6202TIP3    H240166   6.534   3.952   0.576 -1.1916  0.3011  0.2787
 6203TIP3   OH240167   5.484   6.430   2.573 -0.0707 -0.2893 -0.3140
 6203TIP3    H140168   5.578   6.447   2.571  0.4002 -2.5137 -0.4998
 6203TIP3    H240169   5.454   6.452   2.485  0.3745 -0.0082 -0.3961
 6204TIP3   OH240170   3.751   4.832   7.838 -0.2006  0.2999 -0.1726
 6204TIP3    H140171   3.739   4.738   7.824  1.1510  0.0862 -0.0158
 6204TIP3    H240172   3.816   4.838   7.908  0.1867  1.3489 -0.6072
 6205TIP3   OH240173   1.410   5.769   8.427  0.3831  0.3003  0.6397
 6205TIP3    H140174   1.335   5.762   8.368  0.1033  3.6016  0.4038
 6205TIP3    H240175   1.484   5.789   8.370  0.4817  1.6618  1.2150
 6206TIP3   OH240176   1.762   4.875   0.933 -0.1093  0.4678 -0.5140
 6206TIP3    H140177   1.703   4.897   0.862 -1.0943 -1.3256 -0.3185
 6206TIP3    H240178   1.718   4.905   1.012 -0.9454 -1.0880 -0.3454
 6207TIP3   OH240179   2.229   6.098   0.474  0.2894 -0.4554 -0.2663
 6207TIP3    H140180   2.268   6.059   0.552  0.0610 -1.4291 -0.6273
 6207TIP3    H240181   2.245   6.192   0.484  1.1076 -0.6601  0.4785
 6208TIP3   OH240182   3.343   6.172   1.371 -0.2420 -0.0779  0.4419
 6208TIP3    H140183   3.284   6.097   1.360  1.4498 -2.1169  3.5214
 6208TIP3    H240184   3.353   6.179   1.466  0.7676  3.2730  0.1886
 6209TIP3   OH240185   2.395   4.760   0.143  0.5318  0.1151 -0.0520
 6209TIP3    H140186   2.340   4.827   0.101 -0.2559  0.0185  0.7910
 6209TIP3    H240187   2.398   4.689   0.079 -1.3567 -0.3813  0.3633
 6210TIP3   OH240188   0.073   4.032   7.734  0.7489 -0.0051 -0.4888
 6210TIP3    H140189   0.157   4.076   7.749 -0.7630  3.1668 -0.3039
 6210TIP3    H240190   0.016   4.102   7.702 -2.3748 -1.5075  1.3246
 6211TIP3   OH240191   4.362   3.975   8.530 -0.2249 -0.2166 -0.3285
 6211TIP3    H140192   4.415   4.037   8.479  1.0831  0.2828  1.5192
 6211TIP3    H240193   4.314   4.030   8.592  1.8504 -0.9709  2.1568
 6212TIP3   OH240194   1.891   1.835   0.756 -0.1313  0.7080 -0.7698
 6212TIP3    H140195   1.851   1.751   0.732  1.4091 -0.2882 -0.0885
 6212TIP3    H240196   1.900   1.831   0.851  1.3364  0.9634 -0.8708
 6213TIP3   OH240197   2.816   0.411   1.750 -0.2953  0.0073 -0.1529
 6213TIP3    H140198   2.866   0.350   1.695  1.3539  1.5950 -0.5345
 6213TIP3    H240199   2.762   0.460   1.688  0.4175  0.7488 -0.2093
 6214TIP3   OH240200   0.302   2.039   1.779 -0.2555 -0.4340 -0.2320
 6214TIP3    H140201   0.282   1.993   1.860  1.7267 -0.4860  0.2833
 6214TIP3    H240202   0.310   1.970   1.713  0.5511 -0.6346  0.0687
 6215TIP3   OH240203   5.210   3.430   0.289 -0.7398  0.6350  0.4045
 6215TIP3    H140204   5.297   3.405   0.318 -0.8353  0.8687  0.8976
 6215TIP3    H240205   5.188   3.366   0.221 -0.8830 -0.4771  1.4652
 6216TIP3   OH240206   5.585   0.077   6.941 -0.3842 -0.2544 -0.1090
 6216TIP3    H140207   5.525   0.142   6.978  0.3304 -0.0695  0.7505
 6216TIP3    H240208   5.564  -0.005   6.987 -1.0285 -0.5671 -0.9251
 6217TIP3   OH240209   1.263   0.253   0.707  0.1696  0.2837  0.0694
 6217TIP3    H140210   1.356   0.231   0.703  0.0440 -0.6475  1.5253
 6217TIP3    H240211   1.219   0.171   0.685 -0.3543  1.1909 -2.5650
 6218TIP3   OH240212   6.788   0.347   7.707  0.0899 -0.3417  0.3621
 6218TIP3    H140213   6.792   0.253   7.726 -0.6795 -0.1105  1.8317
 6218TIP3    H240214   6.865   0.363   7.652 -0.1063 -1.9310 -0.4506
 6219TIP3   OH240215   1.766   0.864   7.390  0.1501 -0.4693 -0.2417
 6219TIP3    H140216   1.693   0.803   7.382  0.4072 -1.2752  2.3477
 6219TIP3    H240217   1.742   0.920   7.465  1.7078 -0.0833  0.0095
 6220TIP3   OH240218   0.476   4.043   0.199  0.0438  0.3183  0.0340
 6220TIP3    H140219   0.416   4.116   0.186 -0.9373 -0.3135  0.8215
 6220TIP3    H240220   0.420   3.965   0.192  0.8192 -0.2984  0.5376
 6221TIP3   OH240221   5.916   0.711   0.490  0.3785 -0.7160  0.2510
 6221TIP3    H140222   5.976   0.679   0.557  1.7461 -0.5470 -0.8483
 6221TIP3    H240223   5.838   0.739   0.538  1.3156 -0.6063  1.7483
 6222TIP3   OH240224   2.066   6.114   0.250 -0.2134 -0.3994  0.0212
 6222TIP3    H140225   2.131   6.120   0.181 -0.3478 -0.9371 -0.1544
 6222TIP3    H240226   2.116   6.106   0.331 -0.0510 -1.4318 -0.1663
 6223TIP3   OH240227   4.782   6.272   1.810 -0.0136 -0.2356  0.3401
 6223TIP3    H140228   4.768   6.349   1.754 -0.2861 -0.2313  0.4127
 6223TIP3    H240229   4.808   6.309   1.894 -1.4331 -0.1659  0.7640
 6224TIP3   OH240230   0.624   4.387   1.635 -0.1486  0.0637  0.0288
 6224TIP3    H140231   0.647   4.469   1.591  1.2116 -0.3128 -0.0077
 6224TIP3    H240232   0.655   4.318   1.576 -0.5699 -0.4784  0.4220
 6225TIP3   OH240233   6.113   1.490   7.163 -0.3149  0.4694 -0.1428
 6225TIP3    H140234   6.194   1.532   7.191 -1.0893  1.3302  0.9013
 6225TIP3    H240235   6.125   1.474   7.069  0.8375  1.0995 -0.1167
 6226TIP3   OH240236   3.713   0.927   7.172  0.0826  0.2330 -0.2053
 6226TIP3    H140237   3.808   0.917   7.170  0.2162  0.0734  2.6935
 6226TIP3    H240238   3.680   0.838   7.181 -0.0922  0.4328  1.7036
 6227TIP3   OH240239   1.182   2.799   7.976  0.0980  0.3604  0.4404
 6227TIP3    H140240   1.238   2.721   7.967  1.4611  1.3189  0.2498
 6227TIP3    H240241   1.229   2.854   8.039 -0.8765  1.0154  0.6065
 6228TIP3   OH240242   4.896   3.018   2.448 -0.8549  0.1361 -0.1292
 6228TIP3    H140243   4.879   3.084   2.516 -2.3866  0.6498 -0.9729
 6228TIP3    H240244   4.959   2.958   2.489 -1.2214  0.8051  1.5008
 6229TIP3   OH240245   2.865   5.562   1.798  0.5280  0.5280 -0.0638
 6229TIP3    H140246   2.869   5.622   1.872  0.4216  0.5830 -0.1024
 6229TIP3    H240247   2.953   5.561   1.762  0.7344  0.0400  0.4336
 6230TIP3   OH240248   1.040   1.022   2.108  0.1061  0.0770 -0.2444
 6230TIP3    H140249   1.049   1.117   2.116 -2.4098  0.5366 -1.6997
 6230TIP3    H240250   1.128   0.991   2.089  1.2408  1.9206  1.5533
 6231TIP3   OH240251   5.427   3.857   2.390 -0.1471  0.3747 -0.5670
 6231TIP3    H140252   5.380   3.862   2.474  0.7993  0.4766 -0.0263
 6231TIP3    H240253   5.374   3.909   2.330 -0.2134  1.3321  0.2845
 6232TIP3   OH240254   2.521   4.057   1.038  0.2053 -0.6485 -0.2113
 6232TIP3    H140255   2.540   4.009   1.119  2.2390  0.9007  0.3130
 6232TIP3    H240256   2.519   4.149   1.065  0.0859 -0.1534 -1.7993
 6233TIP3   OH240257   6.614   4.502   8.123  0.3388 -0.5389  0.1501
 6233TIP3    H140258   6.686   4.557   8.092 -1.0555  1.4073  0.1864
 6233TIP3    H240259   6.535   4.552   8.103 -0.9313 -1.8375  1.6317
 6234TIP3   OH240260   3.409   3.304   7.499  0.0971  0.2515 -0.4134
 6234TIP3    H140261   3.452   3.290   7.414  3.4601  2.5946  0.7193
 6234TIP3    H240262   3.475   3.347   7.553 -3.4206  3.4216  1.8687
 6235TIP3   OH240263   2.847   6.229   0.514 -0.5551  0.2751 -0.5258
 6235TIP3    H140264   2.875   6.165   0.578 -2.2970  0.4810  0.5230
 6235TIP3    H240265   2.866   6.314   0.554 -0.8395  0.4022 -0.6512
 6236TIP3   OH240266   1.436   0.870   8.275 -0.0816 -0.0965  0.0245
 6236TIP3    H140267   1.531   0.861   8.274 -0.1888 -1.6989  0.8445
 6236TIP3    H240268   1.413   0.875   8.368 -0.7278  1.5005 -0.1854
 6237TIP3   OH240269   3.878   6.795   7.225  0.9442  0.0318  0.4094
 6237TIP3    H140270   3.940   6.727   7.250  0.8109 -0.8183 -1.4005
 6237TIP3    H240271   3.830   6.758   7.150 -1.5430  0.7722  1.5173
 6238TIP3   OH240272   4.529   0.123   7.351  0.1505 -0.2532  0.6021
 6238TIP3    H140273   4.541   0.045   7.296 -1.8864  0.0748 -0.4095
 6238TIP3    H240274   4.520   0.088   7.440 -1.2866 -1.2916  0.1010
 6239TIP3   OH240275   1.315   0.295   0.971  0.1681 -0.0110 -0.3989
 6239TIP3    H140276   1.283   0.263   0.886  0.6943 -0.0494 -0.5877
 6239TIP3    H240277   1.277   0.382   0.980  0.4868  0.1864 -0.8987
 6240TIP3   OH240278   6.244   4.187   2.692  0.0709 -0.3280 -0.4137
 6240TIP3    H140279   6.220   4.134   2.616  1.8389 -0.8414 -0.6704
 6240TIP3    H240280   6.330   4.154   2.718  0.5984  1.4888  0.2912
 6241TIP3   OH240281   5.973   2.403   1.760 -0.2305 -0.1300  0.4389
 6241TIP3    H140282   6.025   2.440   1.689 -0.9133 -0.0323 -0.0256
 6241TIP3    H240283   6.015   2.320   1.780  0.2621  0.0696  0.2611
 6242TIP3   OH240284   4.170   3.724   8.542 -0.8915  0.0008  0.0004
 6242TIP3    H140285   4.197   3.811   8.574  0.1279 -0.2932 -0.0043
 6242TIP3    H240286   4.096   3.741   8.484  0.6876  1.1374 -1.7968
 6243TIP3   OH240287   2.477   0.599   2.480 -0.2048  0.1748  0.1742
 6243TIP3    H140288   2.489   0.556   2.565  0.1152 -0.8493 -0.3737
 6243TIP3    H240289   2.559   0.645   2.464  0.0658 -0.3522  0.0260
 6244TIP3   OH240290   1.022   0.923   1.381  0.1046 -0.1643  0.1434
 6244TIP3    H140291   1.063   0.972   1.310  0.5148  0.8434  1.0333
 6244TIP3    H240292   0.937   0.965   1.393  0.5350  0.5042  1.0355
 6245TIP3   OH240293   4.925   3.101   0.542 -0.3027 -0.1768 -0.2391
 6245TIP3    H140294   4.864   3.089   0.469 -1.9034  1.0432  0.8313
 6245TIP3    H240295   5.011   3.107   0.501 -1.2040  0.9241 -2.1048
 6246TIP3   OH240296   4.208   2.526   0.254  0.3807  1.0172  0.1805
 6246TIP3    H140297   4.146   2.516   0.327 -1.8502  0.4644 -1.6550
 6246TIP3    H240298   4.176   2.466   0.187  2.3429  1.4937 -1.2806
 6247TIP3   OH240299   4.714   1.286   2.793  0.1544 -0.5265 -0.1901
 6247TIP3    H140300   4.730   1.275   2.699 -1.1068 -0.0655 -0.4804
 6247TIP3    H240301   4.796   1.319   2.827  1.2872 -2.5600 -0.7703
 6248TIP3   OH240302   0.898   5.423   1.828 -0.0266  0.1851 -0.4400
 6248TIP3    H140303   0.842   5.423   1.905  1.8159  1.8564  0.9901
 6248TIP3    H240304   0.853   5.480   1.766  0.1437  1.6951  0.7687
 6249TIP3   OH240305   2.381   3.883   7.310 -0.5750 -0.2634 -0.0820
 6249TIP3    H140306   2.435   3.809   7.338  0.1223 -0.0080 -0.7415
 6249TIP3    H240307   2.349   3.921   7.392  1.2913  0.3642  0.4131
 6250TIP3   OH240308   3.105   1.602   7.232 -0.0774  0.4205  0.1854
 6250TIP3    H140309   3.139   1.680   7.188  0.3255 -0.2459 -0.7397
 6250TIP3    H240310   3.028   1.577   7.180 -1.5621  1.4536  1.7913
 6251TIP3   OH240311   5.896   1.582   1.603 -0.4513 -0.1052 -0.0279
 6251TIP3    H140312   5.965   1.563   1.540  1.2095  0.9060  1.3858
 6251TIP3    H240313   5.851   1.658   1.568  0.5525  0.5390  0.0363
 6252TIP3   OH240314   5.490   6.616   0.683 -0.4454 -0.0339  0.0974
 6252TIP3    H140315   5.485   6.692   0.625 -0.4941  0.3699  0.6231
 6252TIP3    H240316   5.400   6.583   0.687 -0.6926  0.6861  0.9122
 6253TIP3   OH240317   6.364   2.366   0.182 -0.4005 -0.1710  0.1711
 6253TIP3    H140318   6.306   2.435   0.214  0.2730 -0.3181  1.8200
 6253TIP3    H240319   6.432   2.412   0.135 -0.2535  0.2596  0.7902
 6254TIP3   OH240320   1.247   0.740   8.105  0.2033 -0.2235  0.0320
 6254TIP3    H140321   1.323   0.717   8.051 -0.7463  2.7334 -2.9665
 6254TIP3    H240322   1.279   0.810   8.163  0.2651 -0.4815  0.3084
 6255TIP3   OH240323   3.197   5.933   1.289  0.1773 -0.8298  0.4611
 6255TIP3    H140324   3.196   5.882   1.208 -1.4854 -1.9555  1.1378
 6255TIP3    H240325   3.215   5.869   1.357  1.7957  0.1446  1.0119
 6256TIP3   OH240326   1.094   6.574   6.803 -0.4802  0.2322 -0.3269
 6256TIP3    H140327   1.052   6.497   6.765  1.5717 -0.4289 -1.3805
 6256TIP3    H240328   1.179   6.543   6.834  0.0181  1.8908  0.0855
 6257TIP3   OH240329   4.816   3.933   7.176  0.8361 -0.4158 -0.4314
 6257TIP3    H140330   4.732   3.891   7.156  0.5583  0.4596 -1.1241
 6257TIP3    H240331   4.828   3.916   7.270 -0.5527  0.2144 -0.1105
 6258TIP3   OH240332   6.025   0.866   0.256  0.0908 -0.7771 -0.2263
 6258TIP3    H140333   6.107   0.893   0.297  0.5489 -1.3461 -0.7396
 6258TIP3    H240334   5.978   0.819   0.325  0.6877 -1.4033 -0.2381
 6259TIP3   OH240335   3.048   1.737   2.572  0.3995 -0.2997 -0.5102
 6259TIP3    H140336   2.968   1.788   2.559  0.2391  0.3242  2.2227
 6259TIP3    H240337   3.044   1.709   2.664  2.7188 -1.3283 -0.6485
 6260TIP3   OH240338   2.486   5.716   0.921 -0.2197 -0.0886  0.3678
 6260TIP3    H140339   2.514   5.637   0.875  1.6738  0.6598  0.1723
 6260TIP3    H240340   2.473   5.687   1.012  0.0607 -0.7005  0.2214
 6261TIP3   OH240341   4.242   1.897   7.869 -0.5427 -0.5292 -0.0852
 6261TIP3    H140342   4.317   1.953   7.890  0.4032 -1.1744 -1.5492
 6261TIP3    H240343   4.165   1.953   7.882  0.2889  0.6446 -0.1067
 6262TIP3   OH240344   6.297   4.684   0.510 -0.3129  0.2747  0.1934
 6262TIP3    H140345   6.307   4.671   0.416  2.7866 -1.2374  0.5887
 6262TIP3    H240346   6.204   4.674   0.526 -0.5782 -2.9077 -2.3075
 6263TIP3   OH240347   6.497   6.295   8.005 -0.5023 -0.7273 -0.1252
 6263TIP3    H140348   6.562   6.309   8.075 -0.1682  1.4742 -0.7856
 6263TIP3    H240349   6.522   6.212   7.965  1.4171 -0.3595  0.2000
 6264TIP3   OH240350   2.149   6.840   2.677  0.0306 -0.4573 -0.0183
 6264TIP3    H140351   2.233   6.805   2.707  0.6304  0.1243 -0.9865
 6264TIP3    H240352   2.125   6.784   2.603  0.2459  0.2061 -0.6038
 6265TIP3   OH240353   4.777   2.763   7.045  0.2411  0.0324  0.1736
 6265TIP3    H140354   4.858   2.763   6.995 -0.4202 -3.4760 -1.1792
 6265TIP3    H240355   4.791   2.697   7.113 -0.8704  0.7078  1.0945
 6266TIP3   OH240356   2.367   4.243   7.483 -0.3162 -0.1474  0.6982
 6266TIP3    H140357   2.343   4.159   7.523 -0.4936  0.7862  2.6387
 6266TIP3    H240358   2.383   4.301   7.557  2.8054  0.7470 -0.4930
 6267TIP3   OH240359   2.025   5.068   8.387 -0.5464  0.2126  0.1102
 6267TIP3    H140360   2.081   5.101   8.458  0.0946  0.0025 -0.2828
 6267TIP3    H240361   2.014   4.975   8.408 -1.2717  0.3864  0.5205
 6268TIP3   OH240362   2.589   4.387   0.097  0.0601  0.3085 -0.2982
 6268TIP3    H140363   2.549   4.308   0.060 -1.7289  0.5974  0.8655
 6268TIP3    H240364   2.548   4.459   0.050  1.1606  0.5890 -0.8636
 6269TIP3   OH240365   3.637   6.631   1.174 -0.3129 -0.0157 -0.1796
 6269TIP3    H140366   3.577   6.584   1.232  0.0544  0.0704  0.2777
 6269TIP3    H240367   3.619   6.596   1.086 -0.5761 -0.4552  0.0479
 6270TIP3   OH240368   3.260   5.315   0.043  0.4874 -0.2151 -0.3258
 6270TIP3    H140369   3.227   5.281  -0.041 -1.1745  1.4820 -0.4496
 6270TIP3    H240370   3.189   5.298   0.105  0.8632  0.3172  0.2649
 6271TIP3   OH240371   1.469   4.119   7.361  0.9470  0.0220  0.2987
 6271TIP3    H140372   1.538   4.058   7.334  1.6055  0.5798  0.6954
 6271TIP3    H240373   1.451   4.094   7.452  2.4388  1.5012  1.0406
 6272TIP3   OH240374   1.017   6.060   1.359  0.5448 -0.3183  0.2208
 6272TIP3    H140375   0.951   6.129   1.361 -0.5825 -1.1796 -2.5170
 6272TIP3    H240376   1.062   6.072   1.275  1.0480 -2.2417  0.1644
 6273TIP3   OH240377   2.900   5.786   2.563 -0.1949 -0.0883 -0.0741
 6273TIP3    H140378   2.918   5.880   2.558  1.3236 -0.3783 -0.6155
 6273TIP3    H240379   2.821   5.774   2.509  0.4497  0.6862 -1.2288
 6274TIP3   OH240380   2.806   0.930   2.103  0.0993  0.2711 -0.0518
 6274TIP3    H140381   2.744   0.922   2.030 -1.4554 -0.5008  1.2781
 6274TIP3    H240382   2.793   0.851   2.155  0.0756  1.4350  1.8421
 6275TIP3   OH240383   6.053   4.273   7.782  0.3979  0.2308  0.2481
 6275TIP3    H140384   6.057   4.368   7.772  1.5366  0.0426 -1.3888
 6275TIP3    H240385   6.121   4.239   7.724 -1.6533 -1.7334 -1.1777
 6276TIP3   OH240386   3.028   3.281   2.820  0.6028  0.1691 -0.8104
 6276TIP3    H140387   3.058   3.197   2.855  1.5358  0.1913 -1.5072
 6276TIP3    H240388   3.074   3.347   2.871 -1.1870  0.3313  0.6873
 6277TIP3   OH240389   0.971   4.127   2.402 -0.5343  0.1177 -0.0317
 6277TIP3    H140390   0.929   4.106   2.319  0.0053 -2.1464  0.1832
 6277TIP3    H240391   0.974   4.222   2.405  0.4287  0.2949 -3.1097
 6278TIP3   OH240392   2.824   4.280   3.049 -0.1336 -0.1203 -0.3646
 6278TIP3    H140393   2.835   4.204   3.106 -2.4173 -0.3670 -0.1742
 6278TIP3    H240394   2.809   4.353   3.109  2.8090  0.7560 -0.4987
 6279TIP3   OH240395   4.335   1.272   2.490 -0.6101 -0.1427 -0.0007
 6279TIP3    H140396   4.286   1.344   2.451  0.3713  0.4498 -0.1724
 6279TIP3    H240397   4.384   1.313   2.562  0.5848 -0.4672 -0.6177
 6280TIP3   OH240398   5.582   5.357   7.386 -0.6486 -0.0066 -0.1894
 6280TIP3    H140399   5.501   5.377   7.433 -0.3808  0.0742  0.2343
 6280TIP3    H240400   5.616   5.441   7.358 -0.7928 -0.0515 -0.5158
 6281TIP3   OH240401   3.477   6.354   1.742 -0.1430  0.7389  0.4891
 6281TIP3    H140402   3.483   6.389   1.831 -0.4348  0.1923  0.7305
 6281TIP3    H240403   3.478   6.431   1.685 -1.5569  1.2013  1.0490
 6282TIP3   OH240404   0.005   6.349   0.519 -0.2630  0.5338  0.2695
 6282TIP3    H140405   0.009   6.410   0.446 -0.6087  1.7802  1.2488
 6282TIP3    H240406   0.075   6.378   0.578 -0.1765 -0.2657  0.5777
 6283TIP3   OH240407   4.500   3.713   2.597  0.4236  0.1429  0.2180
 6283TIP3    H140408   4.497   3.808   2.588  0.0253  0.0295 -0.9794
 6283TIP3    H240409   4.457   3.696   2.681  1.2167  1.0572  0.8298
 6284TIP3   OH240410   1.822   2.424   1.215 -0.1147 -0.1632  0.5643
 6284TIP3    H140411   1.825   2.377   1.299 -0.6227  1.0080  1.2547
 6284TIP3    H240412   1.786   2.360   1.154  0.2180 -1.0245  1.2438
 6285TIP3   OH240413   0.779   6.739   7.898  0.2553 -0.3052 -0.0684
 6285TIP3    H140414   0.801   6.646   7.892  0.6982 -0.1565 -1.0562
 6285TIP3    H240415   0.730   6.757   7.817 -1.0325  0.0257  0.7507
 6286TIP3   OH240416   0.524   4.206   6.643 -0.2183  0.4410 -0.1417
 6286TIP3    H140417   0.464   4.133   6.658  0.1890  0.3614  1.2922
 6286TIP3    H240418   0.574   4.212   6.724  1.1033  1.0709 -0.9779
 6287TIP3   OH240419   3.943   0.915   8.627  0.1617  0.0780 -0.0691
 6287TIP3    H140420   3.990   0.868   8.558 -0.8188 -1.1886  0.0660
 6287TIP3    H240421   3.851   0.894   8.610 -0.3571  2.2164 -0.1414
 6288TIP3   OH240422   1.696   6.302   8.578  0.3662  0.4836 -0.5886
 6288TIP3    H140423   1.622   6.262   8.624  0.3110 -0.6825 -1.6365
 6288TIP3    H240424   1.772   6.277   8.630  0.5090 -2.3720 -2.0079
 6289TIP3   OH240425   4.279   1.592   1.149 -0.0014  0.2837  0.2846
 6289TIP3    H140426   4.316   1.548   1.072 -1.2342  1.0928 -0.8113
 6289TIP3    H240427   4.340   1.663   1.168 -0.3483  0.9135 -0.8111
 6290TIP3   OH240428   6.640   0.708   1.183 -0.1100  0.1035  0.2033
 6290TIP3    H140429   6.569   0.718   1.120  0.9106  0.0611 -0.9798
 6290TIP3    H240430   6.668   0.617   1.175  0.5975  0.3266  0.0979
 6291TIP3   OH240431   3.328   0.758   2.209  0.1994  1.1393  0.3976
 6291TIP3    H140432   3.236   0.772   2.188 -0.5132 -1.1643  1.6044
 6291TIP3    H240433   3.369   0.739   2.125 -1.2480 -1.4197  0.1479
 6292TIP3   OH240434   4.909   0.374   0.333 -0.1461 -0.1915  0.9069
 6292TIP3    H140435   4.860   0.340   0.259  0.2608  0.5889  0.2693
 6292TIP3    H240436   4.887   0.315   0.405 -0.5409 -0.9636  0.1719
 6293TIP3   OH240437   4.903   4.923   0.715 -0.5054 -0.0305  0.3417
 6293TIP3    H140438   4.815   4.936   0.750 -0.1104  0.1848  1.2850
 6293TIP3    H240439   4.902   4.967   0.631 -1.5068 -0.6407  0.0169
 6294TIP3   OH240440   1.031   3.077   0.221 -0.0762 -0.0091  0.0129
 6294TIP3    H140441   1.018   3.158   0.173 -0.1702  0.3379  0.6103
 6294TIP3    H240442   1.122   3.052   0.203  0.5150  1.1779  1.2333
 6295TIP3   OH240443   0.936   1.832   1.367 -0.1569  0.4882  0.2191
 6295TIP3    H140444   0.900   1.865   1.285 -0.5259 -2.0005 -0.7065
 6295TIP3    H240445   0.876   1.863   1.434 -2.1720 -0.7211 -0.9261
 6296TIP3   OH240446   4.888   5.778   7.616  0.1632  0.1250 -0.7120
 6296TIP3    H140447   4.816   5.721   7.588  0.3527 -0.9542  0.8452
 6296TIP3    H240448   4.965   5.740   7.574  0.1805 -0.3674 -0.2606
 6297TIP3   OH240449   4.587   3.222   7.519 -0.1467  0.1977 -0.2170
 6297TIP3    H140450   4.613   3.301   7.470 -0.3682  0.5774  0.2712
 6297TIP3    H240451   4.618   3.149   7.465 -0.3571  0.6145 -0.9110
 6298TIP3   OH240452   1.575   3.348   8.073 -0.6209  0.3515  0.1406
 6298TIP3    H140453   1.559   3.316   7.984 -2.7523 -0.2346  0.6793
 6298TIP3    H240454   1.636   3.284   8.110 -0.5355  0.0107 -0.5710
 6299TIP3   OH240455   0.695   4.975   8.542  0.2938 -0.3118 -0.1476
 6299TIP3    H140456   0.725   4.988   8.452 -0.4544 -1.3579 -0.5680
 6299TIP3    H240457   0.676   4.881   8.548 -0.4028 -0.1250  0.8729
 6300TIP3   OH240458   0.717   2.301   7.889  0.1140 -0.2163 -0.4148
 6300TIP3    H140459   0.749   2.320   7.801  2.0523  1.5332  0.6069
 6300TIP3    H240460   0.632   2.345   7.893  0.7913  1.2040 -0.8771
 6301TIP3   OH240461   1.355   0.863   3.056  0.1731 -0.2371 -0.3579
 6301TIP3    H140462   1.448   0.850   3.076  0.0859  0.0422  0.2659
 6301TIP3    H240463   1.327   0.779   3.019  0.4478 -0.6599  0.3500
 6302TIP3   OH240464   0.904   0.939   2.336  0.6756  0.3182  0.0217
 6302TIP3    H140465   0.941   0.963   2.251 -0.3981  0.9835 -0.2909
 6302TIP3    H240466   0.902   1.021   2.385 -0.3088  0.3013  0.0386
 6303TIP3   OH240467   6.526   3.764   2.252 -0.8473 -0.0489  0.2063
 6303TIP3    H140468   6.524   3.748   2.158  0.3852 -0.4310  0.2177
 6303TIP3    H240469   6.471   3.695   2.289 -0.9009 -0.2293 -0.2069
 6304TIP3   OH240470   4.560   4.070   0.314  0.4160  0.5664 -0.3910
 6304TIP3    H140471   4.588   4.124   0.388 -0.4218  1.0911 -0.4503
 6304TIP3    H240472   4.468   4.092   0.301  0.5508  0.4867 -1.5988
 6305TIP3   OH240473   2.822   3.874   7.585 -0.3923  0.2200 -0.5005
 6305TIP3    H140474   2.799   3.847   7.673 -0.2763  2.4393  0.2916
 6305TIP3    H240475   2.856   3.963   7.596 -0.7893  0.7193 -2.8339
 6306TIP3   OH240476   4.801   2.959   1.910  0.4594  0.1433  0.2258
 6306TIP3    H140477   4.857   2.902   1.962  0.3830  0.3754  0.5623
 6306TIP3    H240478   4.712   2.940   1.941  0.3735 -0.0174 -0.1090
 6307TIP3   OH240479   0.743   1.627   6.593 -0.2956 -0.1533 -0.1461
 6307TIP3    H140480   0.687   1.685   6.541 -1.0266 -0.7481 -0.0438
 6307TIP3    H240481   0.832   1.662   6.580 -0.6016  0.4094 -0.8453
 6308TIP3   OH240482   4.713   5.183   1.558  0.0139 -0.1472 -0.0340
 6308TIP3    H140483   4.753   5.096   1.559 -1.1478 -0.6963 -0.2662
 6308TIP3    H240484   4.619   5.167   1.549 -0.2715  1.1199  0.4221
 6309TIP3   OH240485   2.646   6.159   3.160  0.0357 -0.2136 -0.5116
 6309TIP3    H140486   2.621   6.116   3.242  0.6578  0.1722 -0.0991
 6309TIP3    H240487   2.564   6.182   3.118 -0.3267  1.1121  0.8412
 6310TIP3   OH240488   1.618   0.833   0.770 -0.1487  0.2095 -0.3141
 6310TIP3    H140489   1.545   0.892   0.791 -0.2033  0.2954 -0.7315
 6310TIP3    H240490   1.599   0.803   0.681 -1.0766 -1.8568  0.5207
 6311TIP3   OH240491   2.573   5.341   7.904  0.4137 -0.8372  0.0750
 6311TIP3    H140492   2.591   5.367   7.995  1.3355 -1.2934  0.0380
 6311TIP3    H240493   2.561   5.423   7.858  1.4177 -0.5332  0.3306
 6312TIP3   OH240494   5.956   0.139   1.568  0.5482  0.2567  0.1034
 6312TIP3    H140495   5.860   0.132   1.572  0.5018  1.1736  1.8801
 6312TIP3    H240496   5.987   0.064   1.619  0.6299  1.5079  2.0211
 6313TIP3   OH240497   3.032   3.040   8.227  0.1516 -0.1007  0.9062
 6313TIP3    H140498   2.995   2.963   8.269 -1.3576 -0.5860 -1.1693
 6313TIP3    H240499   3.045   3.102   8.299  0.5462 -1.9213  2.4937
 6314TIP3   OH240500   4.604   1.983   0.325  0.1843  0.4956  0.0939
 6314TIP3    H140501   4.666   1.973   0.253 -2.3229 -0.5748 -2.0936
 6314TIP3    H240502   4.572   2.072   0.318 -0.2792  0.2980 -0.3159
 6315TIP3   OH240503   2.178   0.600   6.859  0.0142  0.0692 -0.4198
 6315TIP3    H140504   2.099   0.547   6.870  0.4638 -0.3464  0.8977
 6315TIP3    H240505   2.248   0.536   6.850  0.2580  0.4400 -1.2484
 6316TIP3   OH240506   5.252   4.276   7.018 -0.5685 -0.2617 -0.1627
 6316TIP3    H140507   5.290   4.339   6.957 -1.7537  0.3330 -0.3067
 6316TIP3    H240508   5.281   4.191   6.985  1.0698  0.1775  0.0527
 6317TIP3   OH240509   5.942   4.774   8.271 -0.0107  0.5862  0.1225
 6317TIP3    H140510   6.038   4.768   8.279  0.1044 -0.2240 -1.4151
 6317TIP3    H240511   5.909   4.732   8.350  0.9278 -0.7023 -0.1245
 6318TIP3   OH240512   5.827   1.279   0.363  0.9568 -0.8356 -0.4346
 6318TIP3    H140513   5.790   1.331   0.291 -1.0088  0.1176  1.1593
 6318TIP3    H240514   5.887   1.340   0.407  1.3170 -1.0582 -0.6179
 6319TIP3   OH240515   1.322   4.636   0.775  0.4074  0.5246 -0.3749
 6319TIP3    H140516   1.407   4.597   0.753  0.8593  0.8226  0.7792
 6319TIP3    H240517   1.320   4.719   0.726  1.1094  0.8710  0.1705
 6320TIP3   OH240518   1.580   6.540   0.868  0.3357 -0.1951 -0.0412
 6320TIP3    H140519   1.634   6.503   0.938 -0.9704  0.0808  1.1491
 6320TIP3    H240520   1.493   6.504   0.884  0.0801 -0.3989 -1.7497
 6321TIP3   OH240521   5.261   1.490   0.801  0.2430 -0.3843  0.3634
 6321TIP3    H140522   5.255   1.506   0.896 -2.4530  0.7467  0.0983
 6321TIP3    H240523   5.347   1.524   0.777  0.2008  1.1666  2.1245
 6322TIP3   OH240524   5.292   2.507   1.080  0.1509  0.5927  0.0253
 6322TIP3    H140525   5.376   2.494   1.123 -0.6194  0.4608  1.5294
 6322TIP3    H240526   5.261   2.592   1.112 -0.3256  0.6207 -0.4837
 6323TIP3   OH240527   5.321   0.890   7.663  0.9111  0.3979  0.0087
 6323TIP3    H140528   5.255   0.836   7.707  0.5074  0.6352 -0.2997
 6323TIP3    H240529   5.404   0.860   7.700  0.7691 -0.9431 -0.6760
 6324TIP3   OH240530   6.530   5.971   0.289 -0.1832  0.3329 -0.2115
 6324TIP3    H140531   6.580   6.041   0.331 -0.9343  1.0075 -0.4183
 6324TIP3    H240532   6.503   5.914   0.360  0.6491  0.1011 -0.0673
 6325TIP3   OH240533   2.118   5.232   1.885  0.2767  0.0304 -0.1108
 6325TIP3    H140534   2.059   5.179   1.832  0.4056 -1.2765  0.9662
 6325TIP3    H240535   2.199   5.180   1.889  0.3448  0.2025  1.1197
 6326TIP3   OH240536   5.388   3.992   7.847 -0.3434 -0.3891  0.2727
 6326TIP3    H140537   5.435   3.999   7.930 -0.2751 -1.3470  0.3270
 6326TIP3    H240538   5.360   3.900   7.843  0.3503 -0.5629 -1.1332
 6327TIP3   OH240539   1.315   0.297   1.859 -0.2981 -0.1403 -0.1870
 6327TIP3    H140540   1.322   0.339   1.774  3.7727 -0.6486 -0.2960
 6327TIP3    H240541   1.336   0.205   1.843 -0.8549 -0.5318  1.1741
 6328TIP3   OH240542   4.751   5.737   2.716  0.7400  0.6651 -0.6550
 6328TIP3    H140543   4.729   5.781   2.798  0.8945 -1.1779  0.4305
 6328TIP3    H240544   4.677   5.757   2.658 -0.6650 -0.1004  0.7904
 6329TIP3   OH240545   0.771   5.831   2.103  0.1794 -0.2572  0.2993
 6329TIP3    H140546   0.687   5.823   2.148 -0.5814 -0.1654 -1.0371
 6329TIP3    H240547   0.792   5.924   2.108  0.4580 -0.3526  1.0498
 6330TIP3   OH240548   1.165   1.006   0.807  0.5002  0.0564 -0.2533
 6330TIP3    H140549   1.219   0.964   0.874  3.2890 -2.3008 -3.6260
 6330TIP3    H240550   1.091   0.945   0.795  1.7147 -1.2678 -1.4189
 6331TIP3   OH240551   2.172   5.491   8.577 -0.2495 -0.5473 -0.5750
 6331TIP3    H140552   2.140   5.511   8.489 -1.0563  0.0902 -0.1458
 6331TIP3    H240553   2.263   5.521   8.576 -0.1021 -0.9843 -1.3300
 6332TIP3   OH240554   4.383   2.386   1.003 -0.0005  0.0132  0.0407
 6332TIP3    H140555   4.461   2.331   0.994  1.0204  1.3644  0.4574
 6332TIP3    H240556   4.326   2.337   1.063 -0.2474 -1.7736 -1.5347
 6333TIP3   OH240557   2.396   0.504   7.659  0.1681  0.6598  0.0938
 6333TIP3    H140558   2.464   0.475   7.598  0.4530  0.2749  0.5953
 6333TIP3    H240559   2.389   0.598   7.644 -0.5886  0.4008 -1.3655
 6334TIP3   OH240560   5.724   1.857   0.150 -0.4104 -0.0982  0.4834
 6334TIP3    H140561   5.650   1.905   0.185 -0.4846 -0.3517  0.6763
 6334TIP3    H240562   5.790   1.924   0.132  0.4915 -0.1517  3.1944
 6335TIP3   OH240563   1.762   1.027   1.477  0.2108 -0.2826  0.0761
 6335TIP3    H140564   1.854   1.002   1.479  0.1244 -0.8125 -1.4824
 6335TIP3    H240565   1.728   0.988   1.396 -0.8030  1.8454 -0.5956
 6336TIP3   OH240566   5.055   2.016   7.285 -0.1964  0.0734 -0.0239
 6336TIP3    H140567   5.107   1.939   7.262 -0.1056  0.4671 -1.2325
 6336TIP3    H240568   4.991   2.023   7.214  0.1520  1.4229 -0.2228
 6337TIP3   OH240569   0.441   2.899   1.983  0.1604 -0.3597 -0.2925
 6337TIP3    H140570   0.362   2.845   1.983 -0.5861  0.6948 -0.9585
 6337TIP3    H240571   0.480   2.885   2.069 -0.9856 -0.5614  0.2094
 6338TIP3   OH240572   4.419   6.040   2.392  0.1615 -0.6375 -0.4813
 6338TIP3    H140573   4.507   6.066   2.367  0.6981 -2.1235 -0.2638
 6338TIP3    H240574   4.422   5.944   2.394 -0.3995 -0.7200  3.2024
 6339TIP3   OH240575   2.966   4.496   8.691  0.1852  0.4045 -0.4551
 6339TIP3    H140576   3.027   4.527   8.758 -0.5562 -0.0020  0.4190
 6339TIP3    H240577   2.887   4.547   8.706 -0.1822 -0.1065 -0.6516
 6340TIP3   OH240578   3.220   3.750   2.770  0.3920  0.0892  0.1389
 6340TIP3    H140579   3.256   3.749   2.682  1.4421 -2.0078  0.5071
 6340TIP3    H240580   3.132   3.715   2.761 -0.5992  2.5232 -0.3848
 6341TIP3   OH240581   6.247   3.990   1.208  0.3683 -0.1944  0.2223
 6341TIP3    H140582   6.208   4.020   1.289 -0.7184  0.1976 -0.4232
 6341TIP3    H240583   6.290   3.907   1.231  0.1203 -0.0596  1.1964
 6342TIP3   OH240584   3.833   1.376   8.083  0.2523 -0.5885 -0.6082
 6342TIP3    H140585   3.789   1.291   8.080 -2.3761  0.6880 -0.6200
 6342TIP3    H240586   3.829   1.409   7.994  1.1302 -0.3499 -0.5747
 6343TIP3   OH240587   3.862   0.300   2.473  0.0605  0.3819  0.1294
 6343TIP3    H140588   3.866   0.317   2.379 -0.7307 -0.1934 -0.0159
 6343TIP3    H240589   3.941   0.342   2.508  0.1314  0.9932 -0.7242
 6344TIP3   OH240590   5.355   3.135   8.129  0.0337 -0.1136 -0.4605
 6344TIP3    H140591   5.319   3.048   8.111 -0.9062  0.5190 -1.8596
 6344TIP3    H240592   5.278   3.191   8.141  0.6249  0.5830  0.1833
 6345TIP3   OH240593   0.795   6.329   0.784 -0.1905  0.0234  0.1969
 6345TIP3    H140594   0.841   6.331   0.700 -0.9585 -1.5257 -0.3049
 6345TIP3    H240595   0.812   6.415   0.823  2.5894 -0.2247 -0.2346
 6346TIP3   OH240596   0.465   4.199   7.160 -0.2899 -0.1959 -0.5283
 6346TIP3    H140597   0.421   4.271   7.115 -0.3010 -2.0938 -3.8332
 6346TIP3    H240598   0.408   4.123   7.146  0.9750 -1.4068  0.5979
 6347TIP3   OH240599   0.282   4.647   0.880 -0.8975 -0.9014  0.1350
 6347TIP3    H140600   0.187   4.640   0.894 -1.0403 -1.2631 -0.9186
 6347TIP3    H240601   0.316   4.561   0.904 -1.1400 -1.5163 -1.5910
 6348TIP3   OH240602   3.596   4.777   8.517  0.6352 -0.6854  0.1224
 6348TIP3    H140603   3.511   4.794   8.556  1.0925  0.8971  0.5019
 6348TIP3    H240604   3.579   4.776   8.422  0.0954 -1.0984  0.2187
 6349TIP3   OH240605   6.808   4.186   0.885 -0.2253  0.2277  0.4914
 6349TIP3    H140606   6.880   4.126   0.867 -0.2226  0.3366  0.1307
 6349TIP3    H240607   6.821   4.212   0.976  0.6633  0.8639  0.1997
 6350TIP3   OH240608   6.159   1.728   2.429 -0.1154 -0.4111 -0.2924
 6350TIP3    H140609   6.084   1.711   2.486  1.6971 -0.9495  2.1412
 6350TIP3    H240610   6.171   1.823   2.433 -0.9706 -0.2496 -1.1765
 6351TIP3   OH240611   5.760   3.490   2.584  0.1665  0.3342  0.4073
 6351TIP3    H140612   5.823   3.446   2.528  2.3504  1.2487  2.0127
 6351TIP3    H240613   5.723   3.560   2.529  0.9667  0.1465 -0.3869
 6352TIP3   OH240614   2.381   3.013   2.072  0.1098  0.0016  0.1002
 6352TIP3    H140615   2.447   3.058   2.124 -2.1602  2.2311  1.2869
 6352TIP3    H240616   2.373   3.066   1.992 -0.0995 -0.3802 -0.1376
 6353TIP3   OH240617   0.280   3.284   2.210  0.0979 -0.3088 -0.4818
 6353TIP3    H140618   0.256   3.367   2.168  0.1937  0.9449  1.7983
 6353TIP3    H240619   0.197   3.248   2.241  0.3187  0.4137  1.0428
 6354TIP3   OH240620   4.444   5.103   1.059 -0.2653 -0.2772 -0.4498
 6354TIP3    H140621   4.385   5.058   0.998  1.1280  0.2727 -2.2851
 6354TIP3    H240622   4.388   5.166   1.104 -1.3360 -0.6940 -1.1553
 6355TIP3   OH240623   4.165   4.737   7.526  0.3003 -0.3020  0.2494
 6355TIP3    H140624   4.120   4.679   7.588 -1.6829  0.7158 -0.1715
 6355TIP3    H240625   4.199   4.678   7.459 -0.4277 -1.1025  0.5728
 6356TIP3   OH240626   2.864   2.106   0.659 -1.1246 -0.4614 -0.5701
 6356TIP3    H140627   2.864   2.011   0.671  1.6326 -0.4577  0.1408
 6356TIP3    H240628   2.838   2.119   0.568  0.2120 -2.0573 -1.2259
 6357TIP3   OH240629   4.384   3.391   0.085  0.7326  0.1274 -0.4851
 6357TIP3    H140630   4.356   3.474   0.125 -0.0968 -0.3090 -0.1334
 6357TIP3    H240631   4.408   3.415  -0.004  0.4681  0.7487 -0.3973
 6358TIP3   OH240632   3.341   2.542   7.642  0.3871  0.4187 -0.2788
 6358TIP3    H140633   3.260   2.546   7.692  0.0611 -0.1659 -0.7419
 6358TIP3    H240634   3.367   2.633   7.630  0.2312  0.5849  0.5481
 6359TIP3   OH240635   0.109   1.400   2.143 -0.0030 -0.5809 -0.3543
 6359TIP3    H140636   0.195   1.441   2.142  0.7429 -2.0519 -0.2873
 6359TIP3    H240637   0.057   1.455   2.202  1.2535 -0.3233  0.5710
 6360TIP3   OH240638   4.432   4.063   1.418 -0.2753  0.1618  0.4900
 6360TIP3    H140639   4.438   4.144   1.368  1.8776  0.2827  0.8367
 6360TIP3    H240640   4.398   4.090   1.504 -0.1080  0.6147  0.4135
 6361TIP3   OH240641   5.170   5.057   1.069  0.3271  0.2604  0.3897
 6361TIP3    H140642   5.124   5.082   0.989  2.2973  1.8053 -0.3330
 6361TIP3    H240643   5.262   5.068   1.048  0.9044  1.0597  2.9741
 6362TIP3   OH240644   0.651   2.946   7.531 -0.0175 -0.1090  0.3701
 6362TIP3    H140645   0.654   2.919   7.623  1.1863 -0.6442  0.1869
 6362TIP3    H240646   0.635   3.040   7.534  0.9986  0.0560  1.1634
 6363TIP3   OH240647   0.556   0.685   6.792  0.1572 -0.2397  0.2856
 6363TIP3    H140648   0.526   0.760   6.842  1.1518 -0.2824  0.9787
 6363TIP3    H240649   0.650   0.679   6.811  0.0766 -1.7350  0.3661
 6364TIP3   OH240650   0.078   6.559   1.912 -0.5968  0.1153  0.1772
 6364TIP3    H140651   0.054   6.532   2.001  0.9846  0.9117  0.8898
 6364TIP3    H240652   0.078   6.478   1.861 -1.9818 -0.2900  0.7655
 6365TIP3   OH240653   1.858   5.457   0.497  0.4443 -0.6800  0.0210
 6365TIP3    H140654   1.763   5.465   0.502  0.5244  0.5279 -0.0880
 6365TIP3    H240655   1.891   5.530   0.549  1.3142 -0.8680 -0.2489
 6366TIP3   OH240656   1.300   1.916   2.085  0.1524  0.5695 -0.3760
 6366TIP3    H140657   1.359   1.853   2.125  1.2222  0.7687 -1.5486
 6366TIP3    H240658   1.352   1.957   2.016 -1.4730  0.4684 -1.7389
 6367TIP3   OH240659   3.305   3.987   1.404  0.5285  0.0370  0.1573
 6367TIP3    H140660   3.305   4.081   1.423 -1.1541  0.7677 -2.7549
 6367TIP3    H240661   3.288   3.945   1.488 -1.9799  2.5555  1.0548
 6368TIP3   OH240662   4.617   1.275   1.188 -0.4012  0.0966  0.0665
 6368TIP3    H140663   4.564   1.254   1.264 -1.0292  0.0171 -0.3898
 6368TIP3    H240664   4.636   1.369   1.197 -0.7508  0.1596  0.1428
 6369TIP3   OH240665   5.764   3.408   2.206 -0.4534 -0.7968 -0.6433
 6369TIP3    H140666   5.828   3.340   2.184 -0.7709 -1.1790 -0.3986
 6369TIP3    H240667   5.804   3.490   2.174 -0.1892 -1.1275 -1.1785
 6370TIP3   OH240668   4.693   4.502   2.073  0.0221 -0.1709 -0.4563
 6370TIP3    H140669   4.749   4.577   2.052  0.8487 -0.7401 -0.3335
 6370TIP3    H240670   4.622   4.507   2.010 -0.6171  1.4309  0.3349
 6371TIP3   OH240671   6.471   4.261   6.863 -0.0831  0.2107  0.1895
 6371TIP3    H140672   6.408   4.324   6.897  0.1714  1.3031 -1.3063
 6371TIP3    H240673   6.469   4.189   6.927 -1.6235  0.9472  1.0237
 6372TIP3   OH240674   3.248   2.395   1.277 -0.3264 -0.1496  0.0151
 6372TIP3    H140675   3.283   2.407   1.365  1.1894  0.1764 -0.5863
 6372TIP3    H240676   3.250   2.300   1.262 -2.0177 -0.3409  0.8533
 6373TIP3   OH240677   0.103   5.964   1.480  0.5603  0.5271  0.3078
 6373TIP3    H140678   0.141   5.920   1.556  1.4388 -2.8196 -1.8847
 6373TIP3    H240679   0.178   6.007   1.437  0.4536  0.5612  0.1546
 6374TIP3   OH240680   5.642   3.127   2.206  0.4041  0.0880  0.4692
 6374TIP3    H140681   5.728   3.109   2.169 -0.7863 -0.3073 -2.3568
 6374TIP3    H240682   5.614   3.044   2.244  0.2813 -0.5048 -0.8595
 6375TIP3   OH240683   1.712   3.535   8.249 -0.1784  0.0556 -0.2624
 6375TIP3    H140684   1.807   3.525   8.238 -0.1644 -0.1002 -0.0109
 6375TIP3    H240685   1.674   3.480   8.181 -0.0917 -0.5497  0.1744
 6376TIP3   OH240686   2.674   3.383   1.771  0.4058 -0.0313  0.2732
 6376TIP3    H140687   2.644   3.437   1.697 -0.2320  0.2146  0.7042
 6376TIP3    H240688   2.760   3.418   1.793 -0.4872  1.6071  1.3079
 6377TIP3   OH240689   0.848   5.573   2.069 -0.1334 -0.1612 -0.1159
 6377TIP3    H140690   0.815   5.513   2.136 -0.5764 -0.6851 -0.7938
 6377TIP3    H240691   0.799   5.654   2.084 -1.1362 -0.6666 -0.5708
 6378TIP3   OH240692   2.126   6.541   0.835 -0.3649 -0.3530 -0.6073
 6378TIP3    H140693   2.042   6.584   0.819 -0.0382  0.8137  0.5994
 6378TIP3    H240694   2.178   6.606   0.882  1.4464 -0.8392 -1.8214
 6379TIP3   OH240695   5.391   2.571   2.347  0.1185  0.1040  0.1970
 6379TIP3    H140696   5.365   2.607   2.432 -2.4484 -0.7433 -0.1554
 6379TIP3    H240697   5.389   2.645   2.288 -0.3952  0.2794  0.4278
 6380TIP3   OH240698   2.921   5.440   8.077  0.3264  0.6758 -0.8201
 6380TIP3    H140699   2.835   5.433   8.120  0.0604 -2.1919 -1.5853
 6380TIP3    H240700   2.936   5.353   8.040  4.3642  0.4936  0.7375
 6381TIP3   OH240701   0.174   1.517   7.010 -0.1017 -0.1666 -0.0669
 6381TIP3    H140702   0.260   1.476   6.994 -1.0739 -1.9647 -1.0221
 6381TIP3    H240703   0.191   1.611   7.003  1.8859 -0.4434  0.2977
 6382TIP3   OH240704   6.382   2.359   6.750  0.9896 -0.1922  0.3333
 6382TIP3    H140705   6.426   2.331   6.670  1.3693 -1.1684  0.8592
 6382TIP3    H240706   6.453   2.385   6.809  0.7406  0.0933  0.5134
 6383TIP3   OH240707   0.056   5.326   2.353  0.2696  0.2909 -0.6379
 6383TIP3    H140708   0.102   5.334   2.270 -0.4268 -0.7206 -1.1410
 6383TIP3    H240709   0.040   5.416   2.381 -0.2797  0.6576 -2.0571
 6384TIP3   OH240710   4.998   1.337   2.807 -0.2732  0.1839  0.0581
 6384TIP3    H140711   4.951   1.396   2.747 -0.1927  0.3429  0.1491
 6384TIP3    H240712   5.010   1.389   2.886 -1.2440 -0.3596  0.5742
 6385TIP3   OH240713   5.448   1.243   1.901  0.4231  0.2136  0.1624
 6385TIP3    H140714   5.373   1.183   1.896  1.3561 -0.9157 -1.0502
 6385TIP3    H240715   5.432   1.306   1.830 -0.3984  1.2613  1.2374
 6386TIP3   OH240716   5.886   4.793   1.492  1.0537  0.2801  0.1632
 6386TIP3    H140717   5.882   4.834   1.579  0.4079 -0.2525  0.3914
 6386TIP3    H240718   5.975   4.811   1.461  1.5024 -0.0767  1.2075
 6387TIP3   OH240719   0.797   4.639   1.592  0.5080 -0.1397 -0.5437
 6387TIP3    H140720   0.848   4.696   1.536  3.2972  0.0438  1.9418
 6387TIP3    H240721   0.850   4.559   1.601  0.3052 -0.0999  1.8695
 6388TIP3   OH240722   4.418   0.050   2.487  0.7529  0.6321 -0.0189
 6388TIP3    H140723   4.327   0.062   2.512 -0.0536 -2.0255 -1.3051
 6388TIP3    H240724   4.420   0.068   2.393  0.7868 -2.2608 -0.6698
 6389TIP3   OH240725   5.347   1.477   1.114 -0.1084  0.2203  0.3219
 6389TIP3    H140726   5.289   1.550   1.139  0.5412  0.4800  1.1354
 6389TIP3    H240727   5.371   1.437   1.198  0.8667  0.1062 -0.0062
 6390TIP3   OH240728   6.557   2.303   8.615  0.1365  0.3148  0.4031
 6390TIP3    H140729   6.543   2.389   8.653  4.1811  1.6885 -0.7673
 6390TIP3    H240730   6.647   2.279   8.640 -0.2439 -2.8250 -0.7199
 6391TIP3   OH240731   1.542   5.630   8.176  0.0327  0.0378 -0.4522
 6391TIP3    H140732   1.476   5.563   8.193 -1.0893  0.5974 -2.3075
 6391TIP3    H240733   1.625   5.589   8.200 -0.7400 -1.6081 -0.4859
 6392TIP3   OH240734   5.609   0.364   1.580 -0.2749 -0.2565 -0.6075
 6392TIP3    H140735   5.536   0.303   1.591 -0.9629  0.5842 -0.4752
 6392TIP3    H240736   5.568   0.450   1.573  0.5390  0.0428 -2.6000
 6393TIP3   OH240737   6.174   1.532   0.097  0.0291  0.1653 -0.1473
 6393TIP3    H140738   6.134   1.570   0.019 -1.3641 -1.8155 -0.4808
 6393TIP3    H240739   6.240   1.471   0.062  0.3879  0.3190  0.2641
 6394TIP3   OH240740   1.636   5.788   7.434 -0.0622 -0.2466 -0.3852
 6394TIP3    H140741   1.622   5.735   7.513  0.8299 -0.9968 -0.7094
 6394TIP3    H240742   1.549   5.796   7.394 -0.0365 -2.6197 -1.0423
 6395TIP3   OH240743   4.933   6.255   7.090  0.0994 -0.1525  0.6181
 6395TIP3    H140744   4.859   6.297   7.134 -1.5614 -1.2166 -0.9879
 6395TIP3    H240745   4.955   6.314   7.018 -1.6134 -1.4295 -1.0618
 6396TIP3   OH240746   1.783   5.429   2.713 -0.2528 -0.3713  0.0104
 6396TIP3    H140747   1.843   5.384   2.653  1.1988  0.9402  0.3948
 6396TIP3    H240748   1.716   5.364   2.734  1.1996 -2.0133 -0.2116
 6397TIP3   OH240749   2.217   0.143   7.361  0.2970  0.4532  0.2338
 6397TIP3    H140750   2.220   0.171   7.452  0.4161  0.8198  0.1194
 6397TIP3    H240751   2.183   0.219   7.313 -1.0626 -0.1922  0.1406
 6398TIP3   OH240752   4.355   1.826   7.640  0.6271 -0.3163 -0.0882
 6398TIP3    H140753   4.445   1.855   7.653  0.0496  0.6036  2.2769
 6398TIP3    H240754   4.310   1.850   7.721 -2.1063  0.6180 -1.7537
 6399TIP3   OH240755   2.286   5.332   8.081 -0.2511  0.2354  0.0923
 6399TIP3    H140756   2.379   5.349   8.098 -0.7541  2.4848  0.9432
 6399TIP3    H240757   2.261   5.267   8.146  0.2979  1.0702  1.1669
 6400TIP3   OH240758   4.460   5.230   0.747  0.0499  0.0956 -0.1298
 6400TIP3    H140759   4.409   5.309   0.731 -0.8762 -0.7341 -1.3880
 6400TIP3    H240760   4.429   5.199   0.833  0.0467  0.7994  0.1313
 6401TIP3   OH240761   0.166   0.438   2.074  0.2402 -0.7402  0.3369
 6401TIP3    H140762   0.119   0.501   2.019  1.3604 -0.3162 -0.1714
 6401TIP3    H240763   0.106   0.365   2.083  0.0566 -0.8737 -1.5830
 6402TIP3   OH240764   6.419   5.733   7.114  0.2356 -0.4435  0.0002
 6402TIP3    H140765   6.369   5.810   7.140  1.2329  1.9909 -4.2829
 6402TIP3    H240766   6.509   5.753   7.140  0.1534 -1.3999  1.1003
 6403TIP3   OH240767   4.036   1.769   0.639 -0.1301  0.1155  0.4338
 6403TIP3    H140768   4.101   1.802   0.700 -0.9283 -0.1727  1.4698
 6403TIP3    H240769   3.952   1.796   0.676 -0.5945  1.2550 -1.3345
 6404TIP3   OH240770   3.443   3.721   7.906  0.2889  0.3773  0.2246
 6404TIP3    H140771   3.433   3.630   7.877  1.0253  0.7729 -1.4252
 6404TIP3    H240772   3.535   3.741   7.890 -0.0291  1.6422 -0.1510
 6405TIP3   OH240773   6.282   5.908   7.278 -0.0003 -0.2248  0.1042
 6405TIP3    H140774   6.237   5.845   7.334  0.6718  0.5828  1.6234
 6405TIP3    H240775   6.220   5.928   7.208 -1.2116 -0.6092  1.0507
 6406TIP3   OH240776   1.100   1.105   1.819 -0.2637 -0.0059 -0.3382
 6406TIP3    H140777   1.093   1.187   1.866 -0.8837  0.1082 -0.6171
 6406TIP3    H240778   1.188   1.072   1.840 -0.0115  0.7247 -0.2327
 6407TIP3   OH240779   1.304   2.020   8.271  0.6861 -0.0424 -0.2501
 6407TIP3    H140780   1.323   2.089   8.335 -1.6138 -1.4863  2.1359
 6407TIP3    H240781   1.224   2.049   8.228 -0.4391 -1.2852  0.9483
 6408TIP3   OH240782   3.615   1.935   8.396 -0.3474  0.2649 -0.3244
 6408TIP3    H140783   3.677   2.006   8.380 -0.8137  0.8986  0.6089
 6408TIP3    H240784   3.653   1.885   8.467 -0.4797  0.1374 -0.3432
 6409TIP3   OH240785   4.933   2.655   0.681 -0.6038 -0.0108  0.1693
 6409TIP3    H140786   4.881   2.712   0.625 -1.1572 -0.8971 -0.2386
 6409TIP3    H240787   4.881   2.645   0.761 -0.4265  0.1801  0.3118
 6410TIP3   OH240788   2.437   5.467   8.435  0.3065  0.2052 -0.2607
 6410TIP3    H140789   2.353   5.462   8.389  0.2501  0.5373 -0.1913
 6410TIP3    H240790   2.502   5.451   8.366  0.2828  1.8760 -0.7033
 6411TIP3   OH240791   4.686   5.882   2.937 -0.2554  0.0165  0.0733
 6411TIP3    H140792   4.590   5.884   2.945 -0.2078  0.1797  0.6362
 6411TIP3    H240793   4.717   5.935   3.010  0.3350 -1.6201  1.0747
 6412TIP3   OH240794   3.573   2.486   2.532  0.1188 -0.6764 -0.3521
 6412TIP3    H140795   3.549   2.571   2.494  2.0541  0.1957  0.2604
 6412TIP3    H240796   3.524   2.422   2.481 -1.5744  0.8117 -0.6859
 6413TIP3   OH240797   4.701   0.512   1.441 -0.0516  0.5040 -0.1757
 6413TIP3    H140798   4.667   0.439   1.492  0.3037  0.0385 -0.5951
 6413TIP3    H240799   4.787   0.531   1.480  1.2572 -1.3377 -1.9648
 6414TIP3   OH240800   4.608   5.182   8.085 -0.3477 -0.2020  0.0728
 6414TIP3    H140801   4.528   5.229   8.062  0.3278  0.4018 -1.1713
 6414TIP3    H240802   4.584   5.089   8.077 -1.5069 -0.1158  1.9066
 6415TIP3   OH240803   3.889   2.779   6.947 -0.0633  0.2712 -0.1665
 6415TIP3    H140804   3.983   2.768   6.933 -0.1032  0.3936 -0.5487
 6415TIP3    H240805   3.853   2.691   6.942 -0.1963  0.3958 -1.7833
 6416TIP3   OH240806   5.031   5.944   8.367  0.0659  0.6016 -0.4033
 6416TIP3    H140807   4.948   5.898   8.380 -0.0735  0.7358 -0.8173
 6416TIP3    H240808   5.017   6.030   8.405 -0.1368  0.7812 -0.8808
 6417TIP3   OH240809   0.812   3.843   1.926  0.2235  0.4305  0.1618
 6417TIP3    H140810   0.809   3.919   1.985 -1.3781 -0.7420  1.7268
 6417TIP3    H240811   0.720   3.821   1.911  0.5430 -2.4838  1.6268
 6418TIP3   OH240812   6.526   3.799   0.481  0.1712 -0.0514  0.6446
 6418TIP3    H140813   6.493   3.763   0.398  1.4200  1.9988 -0.8474
 6418TIP3    H240814   6.551   3.722   0.532 -1.3803 -1.4079 -0.5327
 6419TIP3   OH240815   4.818   4.943   8.373  0.1340  0.4237 -0.1830
 6419TIP3    H140816   4.781   4.872   8.320 -0.3374  0.6714 -0.1963
 6419TIP3    H240817   4.874   4.899   8.437  0.2750  0.0814 -0.5351
 6420TIP3   OH240818   4.668   0.322   1.650 -0.1366 -0.1434 -0.0442
 6420TIP3    H140819   4.689   0.323   1.743 -1.0481  0.7245  0.1699
 6420TIP3    H240820   4.662   0.229   1.627  1.1710 -0.3754  0.4968
 6421TIP3   OH240821   5.334   6.342   8.173  0.4604  0.3714 -0.6178
 6421TIP3    H140822   5.398   6.369   8.107  0.6898 -0.2869 -0.6713
 6421TIP3    H240823   5.251   6.342   8.127  0.6331 -0.1801 -0.9443
 6422TIP3   OH240824   1.976   1.429   0.627  0.3375  0.2169  0.1090
 6422TIP3    H140825   1.931   1.466   0.704 -0.2639  0.4173 -0.3318
 6422TIP3    H240826   1.944   1.340   0.621 -0.1194  0.4050 -0.2911
 6423TIP3   OH240827   0.239   1.787   0.933 -0.1219 -0.1253 -0.1922
 6423TIP3    H140828   0.242   1.710   0.875 -1.5528 -0.0822 -0.3632
 6423TIP3    H240829   0.319   1.781   0.985 -0.5433 -2.1524  0.3166
 6424TIP3   OH240830   1.401   2.385   8.154  0.2525 -1.0222  0.1438
 6424TIP3    H140831   1.451   2.323   8.101  1.3100 -1.2709  1.3747
 6424TIP3    H240832   1.337   2.331   8.200  0.0083 -0.9516 -0.1140
 6425TIP3   OH240833   1.010   0.216   6.926  0.1371 -0.1345 -0.4061
 6425TIP3    H140834   0.977   0.130   6.951 -0.7641  0.6889  1.5185
 6425TIP3    H240835   1.098   0.220   6.963 -0.3283  0.2178  0.7361
 6426TIP3   OH240836   4.955   0.216   0.877  0.1720 -0.1272 -0.4061
 6426TIP3    H140837   4.976   0.137   0.828 -0.4163 -0.6829  0.2162
 6426TIP3    H240838   5.034   0.269   0.872  0.7222 -0.9338 -0.4824
 6427TIP3   OH240839   1.436   6.495   1.132 -0.0457  0.0257 -0.3597
 6427TIP3    H140840   1.412   6.407   1.160 -0.6361  0.4645  0.5451
 6427TIP3    H240841   1.353   6.538   1.111  0.0559  0.9666  1.0467
 6428TIP3   OH240842   3.780   3.809   0.643 -0.3103 -0.1873  0.0975
 6428TIP3    H140843   3.874   3.822   0.648 -0.4432  0.5038  1.6474
 6428TIP3    H240844   3.744   3.896   0.628 -0.7408 -0.2129  0.8745
 6429TIP3   OH240845   1.515   0.402   2.055 -0.3706 -0.1544 -0.5780
 6429TIP3    H140846   1.450   0.364   1.996 -1.1320  1.1813 -0.6450
 6429TIP3    H240847   1.596   0.404   2.004  0.1918 -3.2699  0.0246
 6430TIP3   OH240848   4.366   0.271   2.854  0.1595  0.1277 -0.4880
 6430TIP3    H140849   4.297   0.266   2.920  0.6003 -2.3432 -0.1039
 6430TIP3    H240850   4.344   0.202   2.791  1.4869  0.2801 -1.1557
 6431TIP3   OH240851   3.859   0.825   2.327  0.0168 -0.0199  0.4853
 6431TIP3    H140852   3.852   0.816   2.422 -0.5416 -0.7113  0.3873
 6431TIP3    H240853   3.936   0.773   2.304 -0.5361 -0.8440  0.4396
 6432TIP3   OH240854   1.332   4.159   0.976 -0.1141 -0.3559 -0.1537
 6432TIP3    H140855   1.247   4.117   0.968 -0.0413 -0.6594  0.6184
 6432TIP3    H240856   1.374   4.115   1.050  0.3010  0.5041  0.1345
 6433TIP3   OH240857   3.036   4.258   0.778 -0.6262 -0.5870 -0.0385
 6433TIP3    H140858   2.978   4.193   0.817 -1.0264 -0.3173 -0.1805
 6433TIP3    H240859   2.978   4.316   0.729 -0.1569 -0.7993 -0.8739
 6434TIP3   OH240860   4.374   0.039   1.474 -0.3537  0.3972  0.1953
 6434TIP3    H140861   4.469   0.044   1.483 -0.4757  0.8314  1.5714
 6434TIP3    H240862   4.359   0.005   1.386  1.0578  1.1731 -0.3717
 6435TIP3   OH240863   2.520   3.020   1.662  0.2116 -0.0896 -0.5192
 6435TIP3    H140864   2.506   2.930   1.633 -2.6159 -0.7336  2.2690
 6435TIP3    H240865   2.598   3.015   1.718 -0.8135 -1.1884  0.8573
 6436TIP3   OH240866   4.859   0.859   2.063  0.2383 -0.1523  0.2410
 6436TIP3    H140867   4.845   0.895   2.151  1.4666  1.4205 -0.1482
 6436TIP3    H240868   4.951   0.835   2.062  1.8042  4.6449 -2.0524
 6437TIP3   OH240869   6.283   4.064   2.099  0.1189  0.7127  0.1671
 6437TIP3    H140870   6.271   3.979   2.141  2.0616  0.5262  0.4235
 6437TIP3    H240871   6.271   4.127   2.170  0.8304  0.5304  0.4558
 6438TIP3   OH240872   5.372   3.835   1.307  0.3171 -0.1828  0.1017
 6438TIP3    H140873   5.310   3.905   1.288 -0.0378 -0.5954 -0.2583
 6438TIP3    H240874   5.320   3.766   1.348  0.4091 -0.7850 -0.7655
 6439TIP3   OH240875   3.863   2.354   1.931 -0.3192  0.0621 -0.2018
 6439TIP3    H140876   3.869   2.407   2.011  2.8189  1.9170 -1.4631
 6439TIP3    H240877   3.874   2.264   1.960  0.1400  0.6407  1.5065
 6440TIP3   OH240878   1.383   2.594   7.735 -0.1353  0.7267  0.7865
 6440TIP3    H140879   1.416   2.621   7.821  1.0868  2.7544 -0.2597
 6440TIP3    H240880   1.420   2.506   7.723  0.1464  0.6437  2.0686
 6441TIP3   OH240881   2.446   0.004   7.949 -0.8382  0.0144 -0.1910
 6441TIP3    H140882   2.484  -0.083   7.959 -1.1504 -0.0831  0.1563
 6441TIP3    H240883   2.396   0.018   8.029  2.4000  2.1404  1.6885
 6442TIP3   OH240884   2.795   1.935   0.142 -0.0397  0.0512  0.3050
 6442TIP3    H140885   2.722   1.874   0.151 -0.9347  1.0091 -0.2923
 6442TIP3    H240886   2.861   1.885   0.093 -0.0278 -1.0252  1.3691
 6443TIP3   OH240887   3.953   5.312   7.510  0.0046 -0.0205 -0.6826
 6443TIP3    H140888   3.923   5.236   7.460  0.6405 -2.1704  1.9063
 6443TIP3    H240889   4.021   5.351   7.456 -0.6416 -1.0324 -2.2992
 6444TIP3   OH240890   6.818   2.127   8.424  0.6211 -0.5079 -0.7487
 6444TIP3    H140891   6.763   2.205   8.430  1.1759 -0.2322  2.3265
 6444TIP3    H240892   6.906   2.160   8.407  0.5758 -0.5892 -1.1385
 6445TIP3   OH240893   1.753   0.424   1.151 -0.1415  0.5169 -0.1845
 6445TIP3    H140894   1.683   0.372   1.114 -0.5419  0.8176  0.1388
 6445TIP3    H240895   1.719   0.453   1.236  0.5752  0.2262  0.2135
 6446TIP3   OH240896   0.537   5.747   1.932 -0.1065 -0.5479  0.0332
 6446TIP3    H140897   0.633   5.743   1.935  0.0166 -0.6190 -2.0872
 6446TIP3    H240898   0.518   5.832   1.894 -0.7830 -1.3112 -1.4113
 6447TIP3   OH240899   3.104   3.760   0.038  0.1350  1.1326 -0.8251
 6447TIP3    H140900   3.183   3.710   0.055 -1.3906 -1.2087 -0.2086
 6447TIP3    H240901   3.072   3.726  -0.046 -1.5365  0.1735  0.1565
 6448TIP3   OH240902   5.910   6.623   7.487 -0.6119  0.1473 -0.3905
 6448TIP3    H140903   5.871   6.548   7.443 -0.5564  0.2334 -0.5851
 6448TIP3    H240904   5.835   6.675   7.517 -0.7703 -1.5221  2.4607
 6449TIP3   OH240905   2.762   2.372   8.521  0.5795  0.2024  0.2074
 6449TIP3    H140906   2.815   2.324   8.584  1.5239  1.4680  0.4322
 6449TIP3    H240907   2.687   2.315   8.504  1.1274 -0.8720  1.2243
 6450TIP3   OH240908   0.732   0.080   2.541 -0.0008  0.3180 -0.1934
 6450TIP3    H140909   0.732   0.174   2.560  0.9420  0.1302  0.8748
 6450TIP3    H240910   0.749   0.039   2.626 -0.8261 -0.8471 -0.5657
 6451TIP3   OH240911   0.064   1.704   0.141  0.1241  0.0725  1.3161
 6451TIP3    H140912   0.121   1.651   0.197 -0.0245 -1.3397  0.1875
 6451TIP3    H240913   0.008   1.640   0.097  1.2113  0.9667 -1.5386
 6452TIP3   OH240914   6.715   4.582   1.304 -0.7468  0.0289  0.8358
 6452TIP3    H140915   6.789   4.632   1.271 -0.5475 -0.7448  0.0883
 6452TIP3    H240916   6.646   4.596   1.239 -1.2547  0.7082  1.5049
 6453TIP3   OH240917   1.126   4.472   1.331 -0.4426 -0.8609  0.7644
 6453TIP3    H140918   1.210   4.443   1.366  0.1581 -1.7735 -1.3153
 6453TIP3    H240919   1.140   4.564   1.309 -0.1923 -0.8412  0.9996
 6454TIP3   OH240920   6.123   4.028   0.549  0.0824  0.1114 -0.0211
 6454TIP3    H140921   6.073   4.084   0.490 -0.6026 -0.4710 -0.0108
 6454TIP3    H240922   6.110   4.067   0.635 -1.8479 -1.0162  0.2520
 6455TIP3   OH240923   0.621   3.176   6.700  0.2302 -0.0922  0.5815
 6455TIP3    H140924   0.629   3.133   6.615 -2.3594 -0.6449  0.5120
 6455TIP3    H240925   0.680   3.251   6.695 -0.6799  0.5648 -2.1936
 6456TIP3   OH240926   2.590   0.034   0.616 -0.5389 -0.0950 -0.0985
 6456TIP3    H140927   2.524   0.103   0.617 -0.9796 -0.5076 -0.5999
 6456TIP3    H240928   2.558  -0.032   0.677 -0.2641 -0.0013  0.1520
 6457TIP3   OH240929   4.283   3.043   8.230 -0.0896 -0.7569 -0.3109
 6457TIP3    H140930   4.280   2.994   8.147 -0.3662 -0.6993 -0.3362
 6457TIP3    H240931   4.308   3.132   8.204 -1.2721 -0.4532 -0.4720
 6458TIP3   OH240932   0.215   2.009   7.879 -0.1410  0.2470 -0.3793
 6458TIP3    H140933   0.210   2.050   7.793 -1.2586  0.0671 -0.4077
 6458TIP3    H240934   0.135   1.957   7.886  0.7671 -1.1421  0.0659
 6459TIP3   OH240935   6.075   4.924   2.035 -0.1771 -0.1518  0.0627
 6459TIP3    H140936   6.071   4.905   2.129 -1.0615  1.3773  0.3702
 6459TIP3    H240937   6.012   4.995   2.022  0.5621  0.2632 -1.5419
 6460TIP3   OH240938   2.228   6.188   1.853 -0.5336  0.3061  0.3382
 6460TIP3    H140939   2.205   6.280   1.862  3.0467  1.4173 -0.1063
 6460TIP3    H240940   2.183   6.144   1.925 -2.4570  2.3122  0.4588
 6461TIP3   OH240941   3.622   6.154   3.288 -0.0508  0.0309 -0.1363
 6461TIP3    H140942   3.577   6.070   3.289 -1.6429  0.7760 -2.2406
 6461TIP3    H240943   3.568   6.210   3.232  1.6331  2.0851  0.1483
 6462TIP3   OH240944   3.668   0.688   7.336 -0.1680  0.1019  0.1416
 6462TIP3    H140945   3.752   0.651   7.364  0.3532  0.6784 -0.6108
 6462TIP3    H240946   3.611   0.612   7.322 -0.4742 -0.2261  2.7371
 6463TIP3   OH240947   5.220   1.980   1.915  0.3172 -0.2166  0.0612
 6463TIP3    H140948   5.191   2.069   1.894 -0.6265  0.0744  2.3044
 6463TIP3    H240949   5.303   1.971   1.869  0.3662  1.7831 -0.3488
 6464TIP3   OH240950   1.199   0.303   2.332 -0.5514  0.4234 -0.2543
 6464TIP3    H140951   1.185   0.332   2.242  1.4980  0.2871 -0.6707
 6464TIP3    H240952   1.120   0.330   2.379 -0.5507  2.8729 -1.5151
 6465TIP3   OH240953   2.801   1.405   7.698  0.4776 -0.9674 -0.3358
 6465TIP3    H140954   2.728   1.454   7.736  0.0377 -0.8669 -1.2581
 6465TIP3    H240955   2.879   1.438   7.742 -0.1927 -2.9376  2.6271
 6466TIP3   OH240956   1.173   5.008   0.347 -0.0391  0.0310 -0.2285
 6466TIP3    H140957   1.103   5.054   0.301 -0.3480 -0.3732 -0.1678
 6466TIP3    H240958   1.140   4.919   0.358 -0.0177  0.1557  0.8951
 6467TIP3   OH240959   4.064   0.649   7.902 -0.3141  0.2867 -0.7491
 6467TIP3    H140960   4.131   0.715   7.885  0.3535 -0.1768 -0.0268
 6467TIP3    H240961   4.000   0.660   7.833  0.6250  0.6004 -1.5883
 6468TIP3   OH240962   5.193   5.348   0.745 -0.4815 -0.2853  0.7168
 6468TIP3    H140963   5.120   5.376   0.691 -0.9477 -1.2382  0.8425
 6468TIP3    H240964   5.270   5.387   0.704 -0.8462 -0.8358 -0.5229
 6469TIP3   OH240965   0.117   1.359   7.344 -0.0101 -0.1053 -0.0557
 6469TIP3    H140966   0.167   1.429   7.386 -1.0713  1.5343 -1.3901
 6469TIP3    H240967   0.158   1.350   7.258 -0.9836  0.1402 -0.5560
 6470TIP3   OH240968   3.471   3.120   1.459 -0.4390  0.4743 -0.2359
 6470TIP3    H140969   3.419   3.083   1.531 -0.3019  1.9174  0.6399
 6470TIP3    H240970   3.408   3.130   1.387 -0.6409 -0.7093 -0.2501
 6471TIP3   OH240971   6.610   1.083   8.152  0.1529 -0.1297  0.0054
 6471TIP3    H140972   6.705   1.081   8.139  0.5013  0.9015  2.0010
 6471TIP3    H240973   6.577   1.130   8.076  0.9858 -2.0475 -1.6522
 6472TIP3   OH240974   4.310   5.309   1.206  0.1184 -0.4380 -0.5305
 6472TIP3    H140975   4.216   5.329   1.201  0.4909  1.2739 -1.8682
 6472TIP3    H240976   4.330   5.312   1.299 -1.1539 -0.9111 -0.2109
 6473TIP3   OH240977   0.507   0.748   7.909 -0.5544 -0.0056  0.6211
 6473TIP3    H140978   0.528   0.831   7.866 -1.2630 -0.7662 -1.3022
 6473TIP3    H240979   0.590   0.701   7.912 -0.3179  0.4245  0.9361
 6474TIP3   OH240980   1.723   6.767   7.649 -0.3261  0.3002 -0.3314
 6474TIP3    H140981   1.811   6.750   7.682 -0.9021 -0.4029  0.8943
 6474TIP3    H240982   1.665   6.719   7.708 -1.6643  2.2312  0.0297
 6475TIP3   OH240983   4.395   4.463   0.377 -0.4957 -0.5290  0.3335
 6475TIP3    H140984   4.382   4.477   0.283 -0.5640 -1.0701  0.2624
 6475TIP3    H240985   4.362   4.375   0.394  0.9822 -1.0797  0.5615
 6476TIP3   OH240986   4.022   5.693   1.513 -0.3670 -0.6391  0.1034
 6476TIP3    H140987   4.044   5.781   1.542  0.3490 -0.7468 -0.0857
 6476TIP3    H240988   3.980   5.652   1.588  1.0980 -0.7815  0.8734
 6477TIP3   OH240989   4.240   5.873   7.594 -0.1615  0.0077 -0.2666
 6477TIP3    H140990   4.151   5.850   7.622 -1.2132  0.3566 -2.9884
 6477TIP3    H240991   4.270   5.796   7.546  1.6511 -0.6782  1.8565
 6478TIP3   OH240992   6.141   2.171   1.853 -0.3042  0.3938  0.3089
 6478TIP3    H140993   6.219   2.224   1.835  0.2817 -0.7603 -0.7647
 6478TIP3    H240994   6.172   2.104   1.914 -0.5807  0.2321  0.2718
 6479TIP3   OH240995   0.766   4.059   1.710  0.2283 -0.0892 -0.2987
 6479TIP3    H140996   0.781   3.973   1.748 -0.1488 -0.6861 -1.4784
 6479TIP3    H240997   0.799   4.053   1.621 -2.7067 -0.0570 -1.4876
 6480TIP3   OH240998   2.892   0.714   0.913  0.0739 -0.0129 -0.2644
 6480TIP3    H140999   2.889   0.779   0.843 -1.7405  0.1915 -0.0428
 6480TIP3    H241000   2.810   0.726   0.961  1.4463  0.1868  2.2279
 6481TIP3   OH241001   0.464   5.619   8.360 -0.1805 -0.1652  0.1662
 6481TIP3    H141002   0.423   5.677   8.425  0.0761 -0.4639  0.6000
 6481TIP3    H241003   0.526   5.566   8.410  0.7898  0.3147 -0.4950
 6482TIP3   OH241004   5.968   3.828   2.740 -0.6629 -0.4486 -0.0617
 6482TIP3    H141005   5.951   3.836   2.834 -0.4876  1.4173 -0.1448
 6482TIP3    H241006   6.049   3.777   2.735 -0.8963 -0.9229  0.7687
 6483TIP3   OH241007   4.101   6.474   8.563 -0.2827  0.6128  0.5619
 6483TIP3    H141008   4.114   6.552   8.617  0.3603  0.8461  0.0757
 6483TIP3    H241009   4.053   6.414   8.620  0.2291  0.9221  1.3334
 6484TIP3   OH241010   6.058   3.610   1.752  0.0999 -1.0165 -0.1531
 6484TIP3    H141011   6.107   3.692   1.742 -0.9935 -0.3164  0.1372
 6484TIP3    H241012   6.096   3.570   1.830 -1.0162  0.4366  1.1926
 6485TIP3   OH241013   5.081   2.466   0.905 -0.3924 -0.0226 -0.0040
 6485TIP3    H141014   5.148   2.492   0.968  0.7732 -1.2429 -0.6939
 6485TIP3    H241015   5.118   2.488   0.820 -1.0927 -0.2655 -0.3794
 6486TIP3   OH241016   1.245   2.907   8.603 -0.1052  0.0507  0.2969
 6486TIP3    H141017   1.288   2.822   8.616 -0.9896 -0.5762 -0.6834
 6486TIP3    H241018   1.310   2.961   8.558  1.2566  0.6607  2.8046
 6487TIP3   OH241019   6.578   6.736   8.509 -0.0706  0.3884  1.4716
 6487TIP3    H141020   6.614   6.655   8.473 -2.3880  0.3686 -1.0684
 6487TIP3    H241021   6.641   6.804   8.484  1.0309 -0.3354  2.1555
 6488TIP3   OH241022   1.227   1.734   2.333  0.1734  0.5304 -0.4750
 6488TIP3    H141023   1.222   1.825   2.361 -1.3362  0.6191 -0.9142
 6488TIP3    H241024   1.168   1.729   2.257 -1.2272 -1.1587  0.6299
 6489TIP3   OH241025   4.463   5.851   0.150 -0.5264 -0.1675 -0.0353
 6489TIP3    H141026   4.531   5.854   0.216 -1.5201  0.3627  1.0068
 6489TIP3    H241027   4.413   5.932   0.162  0.3740  0.9011 -2.6949
 6490TIP3   OH241028   2.948   2.144   8.295  0.0176  0.3957 -0.7194
 6490TIP3    H141029   2.978   2.067   8.343 -1.5572  0.1205 -0.1206
 6490TIP3    H241030   2.884   2.185   8.352 -0.1891  1.3880 -1.6189
 6491TIP3   OH241031   2.465   2.892   6.979  0.0168  0.4914 -0.2398
 6491TIP3    H141032   2.382   2.937   6.991 -0.6925 -1.2273  2.1511
 6491TIP3    H241033   2.526   2.938   7.036  0.7078  1.6093 -1.8193
 6492TIP3   OH241034   0.273   3.958   7.460 -0.3053 -0.0932 -0.1366
 6492TIP3    H141035   0.220   3.879   7.445 -0.0503 -0.0019 -1.6700
 6492TIP3    H241036   0.324   3.938   7.539 -1.3836 -0.8417  0.3971
 6493TIP3   OH241037   1.545   3.062   8.601 -0.0065  0.1223 -0.7433
 6493TIP3    H141038   1.558   2.981   8.650  0.0510  1.0892  0.9167
 6493TIP3    H241039   1.634   3.095   8.586  0.0396 -0.6750 -2.4724
 6494TIP3   OH241040   2.437   2.206   2.857  0.3575 -0.6141  0.1062
 6494TIP3    H141041   2.490   2.174   2.784 -0.2757 -0.5209 -0.4022
 6494TIP3    H241042   2.434   2.132   2.919  1.0598 -0.6238  0.1373
 6495TIP3   OH241043   1.277   3.568   2.135 -0.1995  0.4694 -0.1986
 6495TIP3    H141044   1.244   3.651   2.170 -1.2110  0.4944 -1.1631
 6495TIP3    H241045   1.354   3.593   2.084 -0.7080  0.8844 -0.7883
 6496TIP3   OH241046   0.576   2.137   0.059 -0.4557 -0.1631  0.4749
 6496TIP3    H141047   0.616   2.113   0.142  2.2757  1.5666 -0.2071
 6496TIP3    H241048   0.643   2.119  -0.007 -2.1370 -0.4588 -1.2548
 6497TIP3   OH241049   2.163   4.161   3.082 -0.0487 -0.3244 -0.2148
 6497TIP3    H141050   2.161   4.089   3.019  1.2447  0.3646 -1.0954
 6497TIP3    H241051   2.083   4.212   3.063  0.0118 -0.4725 -0.8855
 6498TIP3   OH241052   6.536   0.781   8.140  0.2955 -0.0217  0.0513
 6498TIP3    H141053   6.594   0.854   8.161 -0.0176 -0.0888  1.2244
 6498TIP3    H241054   6.452   0.822   8.120  0.1549 -0.0535  0.5783
 6499TIP3   OH241055   4.607   2.474   1.677 -0.0043  0.4743 -0.5011
 6499TIP3    H141056   4.662   2.528   1.619 -0.9272  1.4234 -0.5346
 6499TIP3    H241057   4.641   2.491   1.764 -0.0779  0.8750 -0.5456
 6500TIP3   OH241058   0.234   1.198   8.304  0.3712 -0.3884 -0.5239
 6500TIP3    H141059   0.267   1.115   8.269  3.3749  0.9426 -1.1329
 6500TIP3    H241060   0.296   1.264   8.273  0.4448  1.5711  3.2816
 6501TIP3   OH241061   4.211   6.788   1.711  0.0093 -0.1646 -0.1693
 6501TIP3    H141062   4.212   6.721   1.643  0.6409 -0.1839 -0.1468
 6501TIP3    H241063   4.278   6.760   1.774  0.4805  0.6249 -0.3023
 6502TIP3   OH241064   2.281   4.006   2.428 -0.2723  0.5710  0.1068
 6502TIP3    H141065   2.255   4.098   2.424 -0.9508  0.3759  0.0063
 6502TIP3    H241066   2.307   3.992   2.519 -1.9562  0.3850  0.5792
 6503TIP3   OH241067   1.988   1.077   2.898 -0.0329  0.0943  0.3162
 6503TIP3    H141068   2.054   1.136   2.935  0.8061 -0.8114  0.3201
 6503TIP3    H241069   1.950   1.126   2.825  0.0148  0.9673  0.8627
 6504TIP3   OH241070   4.362   0.924   8.090 -0.5288  0.1826  0.1303
 6504TIP3    H141071   4.386   0.983   8.019 -0.6910 -0.9581 -0.9129
 6504TIP3    H241072   4.316   0.852   8.047 -2.1425  0.2720  1.6061
 6505TIP3   OH241073   0.089   4.440   0.720  0.2483 -0.2728 -0.2371
 6505TIP3    H141074   0.161   4.451   0.658  1.1272  0.2995  0.8532
 6505TIP3    H241075   0.020   4.397   0.669  1.4616 -1.1192 -1.2302
 6506TIP3   OH241076   4.677   3.533   1.210  0.0783 -0.3376  0.4672
 6506TIP3    H141077   4.752   3.528   1.150 -0.2514 -1.1393  0.1089
 6506TIP3    H241078   4.716   3.538   1.297  0.6232  2.6822  0.1545
 6507TIP3   OH241079   1.180   4.899   8.359 -0.6300  0.1279  0.3892
 6507TIP3    H141080   1.141   4.829   8.412  1.0200 -0.2181  1.2001
 6507TIP3    H241081   1.133   4.894   8.275 -0.9001 -1.6183  0.5974
 6508TIP3   OH241082   3.095   6.609   1.662 -0.6337  0.2685  0.0001
 6508TIP3    H141083   3.019   6.573   1.615  0.4271 -0.4614 -1.2231
 6508TIP3    H241084   3.083   6.704   1.658 -0.1242  0.2875 -2.6454
 6509TIP3   OH241085   0.109   2.041   0.859  0.0872 -0.5901 -0.2582
 6509TIP3    H141086   0.020   2.029   0.891 -0.4988  0.4323 -1.4121
 6509TIP3    H241087   0.148   1.954   0.863 -1.0347 -1.0975  0.0447
 6510TIP3   OH241088   2.296   0.711   7.914  0.8842 -0.8592  0.0953
 6510TIP3    H141089   2.345   0.675   7.988  2.6676 -1.6315 -1.3615
 6510TIP3    H241090   2.206   0.681   7.927  1.1402 -0.9294  1.9442
 6511TIP3   OH241091   1.318   5.437   2.053  0.3781 -0.0429 -0.0934
 6511TIP3    H141092   1.225   5.458   2.058  0.1302 -0.6122 -1.6976
 6511TIP3    H241093   1.326   5.351   2.093  0.0753 -0.3080 -0.5869
 6512TIP3   OH241094   3.503   2.045   0.894 -0.3487  0.1407 -0.0097
 6512TIP3    H141095   3.531   2.057   0.985  1.9823 -2.5206 -0.2150
 6512TIP3    H241096   3.454   1.963   0.894  1.3061 -0.9357 -1.3326
 6513TIP3   OH241097   1.121   3.717   0.183  0.1176  0.7653  0.0346
 6513TIP3    H141098   1.054   3.733   0.117 -0.0715  0.7001  0.2102
 6513TIP3    H241099   1.089   3.763   0.261  0.8315  1.7091 -0.2082
 6514TIP3   OH241100   4.966   2.317   8.489  0.4320 -0.2704  0.4193
 6514TIP3    H141101   4.890   2.259   8.501 -0.0079 -0.4037 -2.2921
 6514TIP3    H241102   4.932   2.405   8.508 -0.1253 -0.4436  0.2424
 6515TIP3   OH241103   2.931   5.093   0.526 -0.0863  0.4970  0.3654
 6515TIP3    H141104   2.844   5.116   0.492 -1.0299 -1.0288  1.5494
 6515TIP3    H241105   2.939   5.142   0.607  0.2131  0.7272  0.1973
 6516TIP3   OH241106   0.202   1.467   0.294 -0.1350  0.1795 -0.1432
 6516TIP3    H141107   0.282   1.439   0.250  0.9913 -0.0866  1.9494
 6516TIP3    H241108   0.232   1.524   0.365 -1.8652  0.6713  0.2385
 6517TIP3   OH241109   5.845   2.716   7.784  0.0456 -0.1472 -0.5324
 6517TIP3    H141110   5.848   2.793   7.727 -1.6000  0.5260  0.1995
 6517TIP3    H241111   5.863   2.751   7.872 -1.1104 -0.5019 -0.1333
 6518TIP3   OH241112   3.467   1.540   0.237  0.0879 -0.4020 -0.6310
 6518TIP3    H141113   3.488   1.447   0.228  1.4647 -0.0455 -1.4475
 6518TIP3    H241114   3.504   1.565   0.322 -1.6212 -0.9131  0.2991
 6519TIP3   OH241115   3.763   3.063   2.355  0.0032 -0.2630 -0.0195
 6519TIP3    H141116   3.842   3.058   2.301  1.9307 -1.8621  2.7040
 6519TIP3    H241117   3.785   3.127   2.423 -0.6866 -1.3875  1.2856
 6520TIP3   OH241118   0.001   4.990   8.611 -0.0560  0.1842  0.4153
 6520TIP3    H141119  -0.073   5.018   8.665 -1.2729 -0.0134 -1.0754
 6520TIP3    H241120   0.002   4.894   8.620  0.7868  0.2660  1.3589
 6521TIP3   OH241121   5.289   2.485   1.442 -0.0715  0.1885 -0.4957
 6521TIP3    H141122   5.330   2.566   1.473 -1.3793  0.6783  0.0251
 6521TIP3    H241123   5.337   2.462   1.362  0.9879  0.9005 -0.0882
 6522TIP3   OH241124   3.201   6.778   8.501 -0.5598  0.1389  0.0270
 6522TIP3    H141125   3.136   6.727   8.548  0.8507 -0.1426  1.7794
 6522TIP3    H241126   3.267   6.799   8.567  3.0300 -2.6463 -2.2918
 6523TIP3   OH241127   1.854   0.939   1.788  0.5055 -0.0475 -0.1126
 6523TIP3    H141128   1.894   1.012   1.740  2.8810 -1.5329 -0.5769
 6523TIP3    H241129   1.912   0.925   1.863 -0.4096 -0.9260  0.4561
 6524TIP3   OH241130   0.935   4.784   7.650 -0.5568 -0.0558 -0.5067
 6524TIP3    H141131   0.981   4.736   7.581  0.1923  0.7809 -0.6120
 6524TIP3    H241132   0.876   4.720   7.689 -0.0677 -0.8755 -1.0838
 6525TIP3   OH241133   3.233   6.782   7.337  0.6677 -0.0348  0.0566
 6525TIP3    H141134   3.226   6.872   7.368  0.2943  0.3825 -1.1715
 6525TIP3    H241135   3.309   6.783   7.278 -0.4892 -0.0311 -1.4858
 6526TIP3   OH241136   3.484   6.023   0.855 -0.2637  0.7739  0.4769
 6526TIP3    H141137   3.480   6.082   0.780  0.6439  0.1454 -0.0803
 6526TIP3    H241138   3.503   6.080   0.929  1.9492  1.0729 -0.2472
 6527TIP3   OH241139   3.931   5.089   0.841 -0.4960  0.5780  0.0527
 6527TIP3    H141140   3.849   5.117   0.799  0.0626  2.3767  0.0835
 6527TIP3    H241141   3.927   5.128   0.928 -0.6807 -1.3780  0.9612
 6528TIP3   OH241142   1.227   3.802   7.869 -0.0432  0.0257  0.2604
 6528TIP3    H141143   1.316   3.768   7.876 -0.0669  0.0245  0.5406
 6528TIP3    H241144   1.192   3.797   7.957  0.8122  3.1315  0.9009
 6529TIP3   OH241145   5.908   6.655   8.614  0.8368  0.0982  0.4938
 6529TIP3    H141146   5.912   6.601   8.536 -1.8569 -0.7376  0.8412
 6529TIP3    H241147   5.881   6.741   8.582 -1.3164 -0.5114  0.5238
 6530TIP3   OH241148   6.074   5.046   1.476  0.1426  0.5816 -0.0528
 6530TIP3    H141149   6.076   5.023   1.568  0.7696  0.6181 -0.0553
 6530TIP3    H241150   6.124   5.127   1.470 -0.8221  1.1768 -0.2614
 6531TIP3   OH241151   3.177   3.117   0.969  0.3715  0.0213 -0.4626
 6531TIP3    H141152   3.182   3.202   1.012  1.0076 -1.1051  1.8698
 6531TIP3    H241153   3.084   3.102   0.956  0.2826  1.3888 -1.6786
 6532TIP3   OH241154   4.625   0.939   0.152  0.2317  0.1062  0.2278
 6532TIP3    H141155   4.605   1.002   0.082  0.2081  0.5158  0.6022
 6532TIP3    H241156   4.703   0.893   0.121  0.4171  0.5178  0.0785
 6533TIP3   OH241157   1.806   1.094   8.133  0.6434  0.1464 -0.5352
 6533TIP3    H141158   1.726   1.076   8.084  0.3089 -0.3501  0.1799
 6533TIP3    H241159   1.829   1.184   8.110 -1.8374  1.4445  1.5611
 6534TIP3   OH241160   3.657   0.186   8.513 -0.3269  0.4248 -0.7971
 6534TIP3    H141161   3.566   0.205   8.490 -0.1664  0.6352 -1.2582
 6534TIP3    H241162   3.709   0.219   8.439  0.2890  2.2421  0.3626
 6535TIP3   OH241163   3.654   5.925   8.426  0.3019 -0.2853  0.0872
 6535TIP3    H141164   3.650   6.018   8.448  0.5119 -0.0838 -0.6967
 6535TIP3    H241165   3.578   5.910   8.369 -0.1109 -0.7454  0.7505
 6536TIP3   OH241166   6.252   6.646   8.299  0.4906  0.5043  0.3308
 6536TIP3    H141167   6.265   6.720   8.358 -1.8697  0.8407  0.5245
 6536TIP3    H241168   6.308   6.665   8.223 -1.0591  3.2382 -0.2521
 6537TIP3   OH241169   3.175   1.344   1.256 -0.3043 -0.3530 -0.5285
 6537TIP3    H141170   3.270   1.333   1.248 -0.3846 -1.5657  0.0107
 6537TIP3    H241171   3.139   1.258   1.236 -1.4101  0.4212 -2.1596
 6538TIP3   OH241172   2.910   2.576   8.452 -0.2948  0.0742  0.3317
 6538TIP3    H141173   3.000   2.558   8.479  0.4250  0.5985 -1.5091
 6538TIP3    H241174   2.860   2.499   8.479  1.1023 -1.0915 -0.2789
 6539TIP3   OH241175   2.329   3.435   3.054 -0.2288 -0.2933  0.2059
 6539TIP3    H141176   2.342   3.344   3.027  2.0166  0.3389 -1.1745
 6539TIP3    H241177   2.280   3.474   2.981  1.4289  0.2393 -0.6817
 6540TIP3   OH241178   1.711   0.115   8.502  0.0086  0.2482 -0.3014
 6540TIP3    H141179   1.658   0.143   8.427 -0.7974  0.2435  0.2556
 6540TIP3    H241180   1.707   0.019   8.501 -0.0017  0.2478 -0.2499
 6541TIP3   OH241181   4.267   6.618   8.118  0.3870 -0.3622  0.3989
 6541TIP3    H141182   4.269   6.706   8.156 -0.4080 -0.4467  0.6625
 6541TIP3    H241183   4.213   6.567   8.178 -0.8729 -0.5012 -0.7907
 6542TIP3   OH241184   3.608   5.313   1.566  0.3463 -0.0205 -0.1754
 6542TIP3    H141185   3.632   5.241   1.507  0.6187 -0.6428  0.6833
 6542TIP3    H241186   3.514   5.302   1.581  0.1385  0.5423 -1.0254
 6543TIP3   OH241187   5.156   3.211   0.786  0.4129  0.1528 -0.4686
 6543TIP3    H141188   5.136   3.139   0.727  1.2886 -1.1159  0.7238
 6543TIP3    H241189   5.222   3.262   0.739  0.6268 -0.4727 -0.8664
 6544TIP3   OH241190   0.359   1.493   2.182 -0.4283  0.4064  0.2289
 6544TIP3    H141191   0.433   1.453   2.228  0.8126  2.2424 -0.0592
 6544TIP3    H241192   0.363   1.586   2.206 -2.2730  0.6673 -0.3007
 6545TIP3   OH241193   0.065   1.955   2.267 -0.1544  0.2204 -0.5473
 6545TIP3    H141194  -0.014   1.970   2.318  0.3479  0.8797  0.0603
 6545TIP3    H241195   0.136   1.990   2.321  0.3325  1.5898 -1.9783
 6546TIP3   OH241196   3.342   0.292   2.057  0.5981 -0.0164 -0.8726
 6546TIP3    H141197   3.367   0.301   2.150 -1.0079 -1.6086 -0.2358
 6546TIP3    H241198   3.390   0.363   2.013 -0.3237  2.2500  1.4774
 6547TIP3   OH241199   1.106   5.402   0.664  0.4934 -0.1087 -0.6947
 6547TIP3    H141200   1.031   5.437   0.616 -0.1642 -0.8815 -0.2506
 6547TIP3    H241201   1.173   5.470   0.656 -0.0276  0.3121 -1.6449
 6548TIP3   OH241202   1.611   5.002   8.292  0.0460 -0.3764 -0.0166
 6548TIP3    H141203   1.519   4.977   8.283 -1.0155  3.0971 -0.3405
 6548TIP3    H241204   1.650   4.985   8.206 -0.2397 -1.9344  0.1449
 6549TIP3   OH241205   0.247   4.426   1.832 -0.5982  0.1286 -0.0566
 6549TIP3    H141206   0.282   4.490   1.770  0.1341 -1.8104 -1.7698
 6549TIP3    H241207   0.160   4.459   1.853 -0.2494  1.6779 -0.8800
 6550TIP3   OH241208   4.432   0.701   0.466 -0.2070  0.2840 -0.6391
 6550TIP3    H141209   4.389   0.652   0.396 -0.0082 -0.2073 -0.4171
 6550TIP3    H241210   4.364   0.711   0.533  0.7147 -2.9752  0.9933
 6551TIP3   OH241211   6.103   1.753   1.053  0.0865 -0.3940  0.1765
 6551TIP3    H141212   6.181   1.749   1.107  1.1714  1.8979 -1.0345
 6551TIP3    H241213   6.030   1.761   1.115  0.8602 -1.7235  1.2999
 6552TIP3   OH241214   4.391   0.936   2.856  0.0812  0.1877 -0.2207
 6552TIP3    H141215   4.328   1.006   2.872  0.4466  0.3833  0.4038
 6552TIP3    H241216   4.442   0.966   2.780  0.9431  1.1138  0.6923
 6553TIP3   OH241217   0.633   3.111   0.555 -0.3873 -0.2200 -0.3343
 6553TIP3    H141218   0.676   3.129   0.638 -1.4570 -2.0389  0.6824
 6553TIP3    H241219   0.635   3.016   0.547 -0.3704 -0.0925 -2.3770
 6554TIP3   OH241220   5.017   1.284   8.110 -0.0065 -0.4688 -0.8577
 6554TIP3    H141221   5.083   1.227   8.150 -0.5083 -0.6461 -0.2610
 6554TIP3    H241222   5.037   1.282   8.017 -0.3710 -2.1257 -0.9385
 6555TIP3   OH241223   6.555   5.716   8.326 -0.0601 -0.0360  0.5120
 6555TIP3    H141224   6.561   5.807   8.354  1.0153 -0.4527  1.6815
 6555TIP3    H241225   6.461   5.701   8.314 -0.3228  0.9392  1.2667
 6556TIP3   OH241226   3.475   5.533   2.091  0.0967  0.3451  0.1548
 6556TIP3    H141227   3.457   5.442   2.065 -0.0929 -0.6578  3.3701
 6556TIP3    H241228   3.406   5.584   2.049 -2.3086 -1.6042  1.4797
 6557TIP3   OH241229   3.994   6.788   2.144 -0.0872  0.1152  0.0712
 6557TIP3    H141230   4.071   6.823   2.189 -0.8404  2.2256 -0.1554
 6557TIP3    H241231   4.019   6.789   2.051  0.1095 -0.6140  0.1075
 6558TIP3   OH241232   2.393   3.806   7.778 -0.1732 -0.1074 -0.1065
 6558TIP3    H141233   2.327   3.738   7.766 -0.9505 -0.1343  3.2429
 6558TIP3    H241234   2.471   3.759   7.808  0.6368  0.1448 -1.7546
 6559TIP3   OH241235   1.384   6.387   0.622  0.3902 -0.2906  0.2707
 6559TIP3    H141236   1.480   6.388   0.613  0.4141 -2.6622 -0.3835
 6559TIP3    H241237   1.369   6.354   0.710  0.1222  1.5825  0.9728
 6560TIP3   OH241238   0.725   4.909   2.374 -0.0446 -0.7065  0.4008
 6560TIP3    H141239   0.765   4.825   2.351 -0.8458 -1.1000  0.4225
 6560TIP3    H241240   0.670   4.930   2.298  1.3114  0.5664 -0.2945
 6561TIP3   OH241241   4.495   2.781   8.485  0.2320  0.1438  0.1493
 6561TIP3    H141242   4.553   2.705   8.474 -0.9861 -1.3624  2.9701
 6561TIP3    H241243   4.440   2.758   8.560 -1.5855  3.0193 -0.1547
 6562TIP3   OH241244   0.006   3.027   6.878  0.1618 -0.4723 -0.2791
 6562TIP3    H141245   0.056   3.108   6.877 -1.2313  0.4227 -1.0342
 6562TIP3    H241246   0.072   2.958   6.882  1.3993  0.6752 -0.2565
 6563TIP3   OH241247   4.191   6.507   7.580  0.2638 -0.5823 -0.0831
 6563TIP3    H141248   4.198   6.534   7.672 -0.7160  3.0000 -0.8864
 6563TIP3    H241249   4.280   6.511   7.547  0.2552  1.4805 -0.0010
 6564TIP3   OH241250   5.442   1.581   7.947  0.7649 -0.4694  0.2317
 6564TIP3    H141251   5.426   1.672   7.974  1.3867  0.1741 -1.4173
 6564TIP3    H241252   5.403   1.528   8.017  0.8335  1.0555  1.4924
 6565TIP3   OH241253   4.986   5.201   0.010  0.5859 -0.2771 -0.3483
 6565TIP3    H141254   4.983   5.174  -0.082  1.6189 -0.6655 -0.2761
 6565TIP3    H241255   4.946   5.288   0.011  1.3925  0.1157 -1.3022
 6566TIP3   OH241256   4.045   3.838   2.177  0.6366 -0.3254  0.1795
 6566TIP3    H141257   4.094   3.776   2.232  0.2968  0.2585  1.1756
 6566TIP3    H241258   4.015   3.905   2.239  0.6471  0.6077 -0.8129
 6567TIP3   OH241259   2.131   0.570   1.202 -0.0898 -0.6401 -0.2962
 6567TIP3    H141260   2.123   0.488   1.252 -0.8640  0.9157  2.3500
 6567TIP3    H241261   2.215   0.607   1.230 -1.3309  1.1120  1.4321
 6568TIP3   OH241262   2.851   0.191   0.285  0.0178  0.2247 -0.0282
 6568TIP3    H141263   2.796   0.122   0.323  0.5259 -0.3572 -0.3391
 6568TIP3    H241264   2.894   0.149   0.211  0.0395  0.9912 -0.4491
 6569TIP3   OH241265   3.402   1.577   1.439  0.0838 -0.7726 -0.3592
 6569TIP3    H141266   3.395   1.565   1.345 -2.2640 -2.3243 -0.0664
 6569TIP3    H241267   3.434   1.493   1.472  3.7314  0.6118  0.0964
 6570TIP3   OH241268   6.664   4.602   7.237  0.4341  0.8498  0.1229
 6570TIP3    H141269   6.611   4.567   7.308  1.3667  0.1658  0.5073
 6570TIP3    H241270   6.618   4.576   7.157  1.6371 -2.3696  0.3382
 6571TIP3   OH241271   4.902   0.201   2.253  0.3102  0.3204 -0.6071
 6571TIP3    H141272   4.922   0.160   2.169 -0.6879 -1.8526  0.1428
 6571TIP3    H241273   4.973   0.264   2.266  1.7147 -0.8691 -2.0368
 6572TIP3   OH241274   1.904   0.955   0.985  0.7141  0.3459 -0.0860
 6572TIP3    H141275   1.925   0.885   1.047 -0.2700 -1.0841 -1.2769
 6572TIP3    H241276   1.835   1.005   1.027 -0.4805 -1.0700 -0.2698
 6573TIP3   OH241277   6.480   5.031   6.737 -0.5451 -0.6345  0.0435
 6573TIP3    H141278   6.572   5.027   6.710 -0.5968 -0.6142 -0.1422
 6573TIP3    H241279   6.476   5.104   6.799 -0.4441 -0.6058  0.0160
 6574TIP3   OH241280   0.076   3.114   8.127  0.0523  0.0779 -0.1752
 6574TIP3    H141281   0.094   3.053   8.198 -1.9557  1.2996  1.5316
 6574TIP3    H241282  -0.010   3.151   8.149  1.7585  4.7379 -0.0931
 6575TIP3   OH241283   1.290   3.826   1.822  0.7344 -0.2254 -0.1028
 6575TIP3    H141284   1.224   3.759   1.842  0.6685 -0.1925 -0.2083
 6575TIP3    H241285   1.240   3.898   1.783  1.0184 -0.8160 -1.6457
 6576TIP3   OH241286   3.454   5.041   0.060 -0.2800  0.1068 -0.3652
 6576TIP3    H141287   3.379   5.091   0.093  0.5459 -0.6277  2.9890
 6576TIP3    H241288   3.509   5.107   0.017 -1.1506  1.3201  0.3026
 6577TIP3   OH241289   4.456   5.649   1.446 -0.4644  0.0771 -0.3137
 6577TIP3    H141290   4.477   5.739   1.469  0.3828  0.0772 -1.0546
 6577TIP3    H241291   4.360   5.645   1.450 -0.4452  0.5253  1.4569
 6578TIP3   OH241292   2.153   1.148   0.332  0.2272 -0.1572  0.1606
 6578TIP3    H141293   2.075   1.172   0.381 -0.7265 -1.1048 -0.8423
 6578TIP3    H241294   2.183   1.066   0.371  0.6604  0.1426  0.4670
 6579TIP3   OH241295   2.469   2.908   1.291  0.5747  0.2926 -0.4882
 6579TIP3    H141296   2.540   2.858   1.332 -0.6570 -1.8814 -0.8104
 6579TIP3    H241297   2.404   2.916   1.360  0.2289  0.3136 -0.8144
 6580TIP3   OH241298   1.996   4.135   8.395 -0.0234  0.4920  0.1781
 6580TIP3    H141299   2.002   4.069   8.463  0.9695  0.6460  0.2602
 6580TIP3    H241300   1.916   4.113   8.347  1.0534 -1.6911 -0.7539
 6581TIP3   OH241301   5.060   1.729   0.076 -0.4131 -0.3078 -0.1183
 6581TIP3    H141302   5.047   1.668   0.003  0.0263  1.5186 -1.8398
 6581TIP3    H241303   5.146   1.707   0.111 -0.1656 -0.5502 -0.8591
 6582TIP3   OH241304   6.575   2.528   0.063  0.4006 -0.2189  0.3072
 6582TIP3    H141305   6.580   2.540   0.158 -0.4076  1.0219  0.2223
 6582TIP3    H241306   6.660   2.557   0.030  0.5689 -0.3504  0.6262
 6583TIP3   OH241307   5.945   5.425   1.678  0.2738  0.3801  0.2123
 6583TIP3    H141308   5.911   5.507   1.642 -0.0960 -0.4456 -1.3835
 6583TIP3    H241309   6.038   5.424   1.652  0.4509  0.6107  0.8284
 6584TIP3   OH241310   1.543   1.466   8.138 -0.0579 -0.5996 -0.0363
 6584TIP3    H141311   1.576   1.458   8.048 -1.6691  0.6814 -0.8080
 6584TIP3    H241312   1.487   1.390   8.151 -1.5085  0.2438 -0.9578
 6585TIP3   OH241313   6.709   5.270   8.320  0.4049  0.6381 -0.2422
 6585TIP3    H141314   6.670   5.342   8.270  0.1810 -0.6386 -2.0109
 6585TIP3    H241315   6.803   5.276   8.301  0.4698  0.8372  0.1331
 6586TIP3   OH241316   6.141   4.326   0.964  0.4236  0.5587  0.2126
 6586TIP3    H141317   6.057   4.310   1.007  0.7877 -0.5717  0.5337
 6586TIP3    H241318   6.144   4.421   0.951 -1.1458  0.5522 -0.3217
 6587TIP3   OH241319   0.657   2.539   0.218 -0.1141 -0.0501 -0.0591
 6587TIP3    H141320   0.582   2.593   0.244  1.6562  1.6962  1.8089
 6587TIP3    H241321   0.678   2.487   0.296  0.9815 -0.0395 -0.3314
 6588TIP3   OH241322   3.612   4.780   0.850 -0.0607 -0.0654  0.8810
 6588TIP3    H141323   3.554   4.783   0.774  0.0188 -0.7713  0.7906
 6588TIP3    H241324   3.563   4.733   0.917  0.3393 -0.5215  0.8608
 6589TIP3   OH241325   3.922   3.888   7.687 -0.0133  0.1144  0.0932
 6589TIP3    H141326   3.916   3.966   7.742  0.6072 -0.4827  1.0202
 6589TIP3    H241327   3.889   3.917   7.602  0.7348  1.5311  0.2625
 6590TIP3   OH241328   1.218   0.835   8.642 -0.0474 -0.5902  0.1383
 6590TIP3    H141329   1.280   0.796   8.703 -1.3121 -1.1806  1.0857
 6590TIP3    H241330   1.219   0.777   8.566 -0.3567 -1.2806  0.6623
 6591TIP3   OH241331   0.098   4.820   0.537 -0.2858 -0.0178  0.2039
 6591TIP3    H141332   0.060   4.744   0.492  1.0246  0.4286 -1.7793
 6591TIP3    H241333   0.053   4.822   0.621 -0.6100 -2.7863  0.2013
 6592TIP3   OH241334   2.087   2.432   0.268 -0.1593 -0.5576 -0.0547
 6592TIP3    H141335   2.162   2.396   0.221 -0.8200  0.6036 -2.1255
 6592TIP3    H241336   2.115   2.518   0.298 -0.6531 -0.0778 -0.9207
 6593TIP3   OH241337   1.600   1.000   1.237 -0.2529 -0.2588  0.0817
 6593TIP3    H141338   1.539   1.064   1.273  0.2730 -0.8616  2.2014
 6593TIP3    H241339   1.666   1.053   1.191 -0.3800  0.6606  0.9265
 6594TIP3   OH241340   0.634   3.448   1.991  0.1205 -0.5652  0.3307
 6594TIP3    H141341   0.582   3.370   2.010  0.0014 -0.5305  0.1495
 6594TIP3    H241342   0.600   3.480   1.907 -2.2189  1.7065  1.9984
 6595TIP3   OH241343   2.776   4.044   1.776 -0.4028  0.2670  0.3985
 6595TIP3    H141344   2.804   4.115   1.833 -2.3912  1.1219  0.3890
 6595TIP3    H241345   2.701   4.079   1.728  0.3813 -0.8618 -1.8127
 6596TIP3   OH241346   3.316   6.041   7.284 -0.0205  0.3438 -0.5062
 6596TIP3    H141347   3.386   5.975   7.279 -1.1477 -0.8745 -1.0100
 6596TIP3    H241348   3.352   6.117   7.239  2.1146  0.8940  1.8752
 6597TIP3   OH241349   5.157   4.733   0.925 -0.3972  0.1381  0.2927
 6597TIP3    H141350   5.078   4.765   0.881 -0.4304 -0.7304 -0.3194
 6597TIP3    H241351   5.146   4.759   1.016 -0.7136  1.2797 -0.0537
 6598TIP3   OH241352   5.972   3.144   8.055  0.1307 -0.1978 -0.2475
 6598TIP3    H141353   5.968   3.106   8.143 -0.9639 -1.4549 -0.8085
 6598TIP3    H241354   5.938   3.233   8.066  0.5649 -0.1308  0.6832
 6599TIP3   OH241355   5.616   2.626   0.731 -0.3093 -0.5434 -0.5196
 6599TIP3    H141356   5.602   2.643   0.825  0.5909 -2.8595  0.1157
 6599TIP3    H241357   5.530   2.598   0.699 -0.6214  0.2560 -0.4001
 6600TIP3   OH241358   0.206   3.819   1.301 -0.5918  0.0189 -0.1322
 6600TIP3    H141359   0.116   3.839   1.272 -0.7948  0.3606  0.7088
 6600TIP3    H241360   0.216   3.868   1.383 -0.3080 -1.5940  0.8232
 6601TIP3   OH241361   2.957   0.709   8.376 -0.6702  0.5246 -0.0702
 6601TIP3    H141362   2.872   0.665   8.367  0.6883 -2.1027 -1.5107
 6601TIP3    H241363   2.977   0.739   8.288  0.6424 -0.5460 -0.1691
 6602TIP3   OH241364   0.553   1.254   0.892  0.4536  0.0773 -0.1096
 6602TIP3    H141365   0.528   1.163   0.906 -0.7791  0.5402  0.8641
 6602TIP3    H241366   0.573   1.287   0.979  1.2025  0.6779 -0.4917
 6603TIP3   OH241367   5.701   4.355   8.476  0.4585 -0.5075 -0.1753
 6603TIP3    H141368   5.633   4.363   8.543  0.2419  0.4859 -0.5000
 6603TIP3    H241369   5.690   4.265   8.442  1.0221 -1.2690  1.5662
 6604TIP3   OH241370   4.573   0.334   8.087  0.0300  0.2368  0.2753
 6604TIP3    H141371   4.511   0.376   8.148 -1.4569  1.5222 -1.9861
 6604TIP3    H241372   4.644   0.396   8.078 -0.6303  0.8841 -0.6337
 6605TIP3   OH241373   6.364   1.406   0.965  0.2944 -0.3209 -0.0734
 6605TIP3    H141374   6.318   1.323   0.950  1.0159 -0.7329 -0.0201
 6605TIP3    H241375   6.298   1.473   0.946 -0.0148 -0.8852 -1.0883
 6606TIP3   OH241376   1.953   4.392   0.642 -0.3830  0.1734 -0.1944
 6606TIP3    H141377   1.932   4.447   0.566  0.3686  0.0128 -0.5239
 6606TIP3    H241378   2.022   4.333   0.611 -0.6844 -0.4915  0.3602
 6607TIP3   OH241379   3.088   4.467   2.710  0.4859 -0.1934  0.0934
 6607TIP3    H141380   3.128   4.420   2.637  2.6232  1.9048 -0.2277
 6607TIP3    H241381   3.086   4.404   2.782  1.3460 -1.3441 -0.8647
 6608TIP3   OH241382   1.148   3.401   7.440 -0.0429  0.0001 -0.2773
 6608TIP3    H141383   1.140   3.387   7.535 -0.2652 -0.3285 -0.3402
 6608TIP3    H241384   1.077   3.349   7.403  0.3536 -0.2800 -0.6552
 6609TIP3   OH241385   0.900   2.710   1.077 -0.1003  0.3241 -0.3864
 6609TIP3    H141386   0.960   2.772   1.118  0.3434  0.1355 -0.7452
 6609TIP3    H241387   0.877   2.649   1.146 -0.3068  0.7147 -0.1070
 6610TIP3   OH241388   4.202   0.736   1.074 -0.4245  0.0591 -0.4261
 6610TIP3    H141389   4.205   0.645   1.045 -0.8333  0.4639 -1.7971
 6610TIP3    H241390   4.270   0.780   1.023  0.5951  0.3205  1.0821
 6611TIP3   OH241391   2.760   4.686   0.042 -0.7055  0.3854 -0.1754
 6611TIP3    H141392   2.717   4.714   0.123  2.0565 -0.8610  1.8580
 6611TIP3    H241393   2.816   4.760   0.018 -0.2057  0.0784  0.0479
 6612TIP3   OH241394   2.666   5.547   2.087 -0.5851  0.3939 -0.5852
 6612TIP3    H141395   2.757   5.577   2.089 -0.7883  0.9995 -0.3966
 6612TIP3    H241396   2.672   5.456   2.057  0.0219  0.6409 -1.2284
 6613TIP3   OH241397   2.501   1.000   0.672 -0.5062  0.1805 -0.0875
 6613TIP3    H141398   2.479   1.081   0.717 -1.2130  0.2257 -0.5029
 6613TIP3    H241399   2.438   0.994   0.600  0.1011 -0.2875 -0.5971
 6614TIP3   OH241400   1.504   5.351   1.853 -0.2813 -0.2838  0.6441
 6614TIP3    H141401   1.435   5.377   1.914 -0.8769  0.3216 -0.2516
 6614TIP3    H241402   1.584   5.385   1.892 -0.8360  1.4517  0.3685
 6615TIP3   OH241403   3.617   5.203   2.609  0.0545  0.0643  0.4809
 6615TIP3    H141404   3.646   5.272   2.669  0.0684 -0.7476  1.4278
 6615TIP3    H241405   3.659   5.124   2.641 -1.2363 -0.6894  0.3939
 6616TIP3   OH241406   0.141   0.309   7.497  1.1395 -0.6496  0.4437
 6616TIP3    H141407   0.111   0.232   7.447 -0.7666  2.4021 -3.7182
 6616TIP3    H241408   0.236   0.304   7.493  1.0999 -1.3338 -2.6206
 6617TIP3   OH241409   1.440   0.521   8.347 -0.0887  0.1114 -0.7127
 6617TIP3    H141410   1.362   0.569   8.376 -0.2238 -0.1408 -0.6537
 6617TIP3    H241411   1.463   0.561   8.264 -0.6344 -0.2001 -1.0239
 6618TIP3   OH241412   0.164   6.283   6.973 -0.1106 -0.0212 -0.3510
 6618TIP3    H141413   0.218   6.314   6.901  0.3732 -2.1583 -0.9872
 6618TIP3    H241414   0.082   6.256   6.932  0.1305 -1.1571 -0.1331
 6619TIP3   OH241415   1.454   0.214   2.300 -0.4504 -0.4030 -0.0686
 6619TIP3    H141416   1.367   0.253   2.299 -0.3947 -0.2517  0.7273
 6619TIP3    H241417   1.507   0.270   2.242 -1.0433 -0.9023 -1.1205
 6620TIP3   OH241418   0.542   3.048   2.245  0.0714 -0.1974  0.2095
 6620TIP3    H141419   0.473   3.042   2.311  0.5864 -0.0051  0.7750
 6620TIP3    H241420   0.616   3.001   2.284  1.1311  1.8348  0.7624
 6621TIP3   OH241421   6.702   0.582   0.780  0.3712 -0.2637 -0.0798
 6621TIP3    H141422   6.665   0.494   0.781  2.0210 -1.0264 -1.4028
 6621TIP3    H241423   6.627   0.640   0.791 -0.4560 -1.8089  4.9350
 6622TIP3   OH241424   6.826   5.909   3.063 -0.2126 -0.0736 -0.1397
 6622TIP3    H141425   6.738   5.939   3.041 -0.4040 -0.7367 -0.3060
 6622TIP3    H241426   6.822   5.814   3.052  0.6329 -0.0736 -0.5470
 6623TIP3   OH241427   3.465   2.200   0.400  0.3980 -0.0614  0.0717
 6623TIP3    H141428   3.402   2.258   0.356  1.2279 -0.9969 -2.5457
 6623TIP3    H241429   3.548   2.247   0.394  0.2944  0.4429  2.0514
 6624TIP3   OH241430   1.274   3.839   3.220 -0.1336 -0.1852  0.9334
 6624TIP3    H141431   1.325   3.826   3.140 -0.6908 -1.1642  0.7127
 6624TIP3    H241432   1.232   3.924   3.209  2.1543  1.1282  1.5464
 6625TIP3   OH241433   2.867   0.038   8.417 -0.3181  0.2576  0.1536
 6625TIP3    H141434   2.861   0.092   8.339 -1.0067  0.5244  0.3856
 6625TIP3    H241435   2.901   0.097   8.484 -3.1761  1.0831  0.9994
 6626TIP3   OH241436   1.495   3.035   8.180 -0.1957 -0.1183  0.1835
 6626TIP3    H141437   1.469   3.050   8.271 -0.1597  1.9360 -0.1087
 6626TIP3    H241438   1.568   3.095   8.165 -0.2889 -0.3283 -1.2437
 6627TIP3   OH241439   0.727   1.137   0.679 -0.5117  0.3302  0.3471
 6627TIP3    H141440   0.674   1.200   0.728 -1.9438 -0.6374  0.1165
 6627TIP3    H241441   0.720   1.056   0.729  0.0745 -0.0241 -0.1362
 6628TIP3   OH241442   6.233   1.035   8.125 -0.5349  0.1699 -0.2815
 6628TIP3    H141443   6.221   1.115   8.175 -2.2849  0.1605 -0.6193
 6628TIP3    H241444   6.243   0.966   8.190  0.5691  0.5826  0.0083
 6629TIP3   OH241445   4.619   0.432   2.895  0.1788  0.2128  0.3544
 6629TIP3    H141446   4.578   0.515   2.920 -0.3267 -0.3683  1.5791
 6629TIP3    H241447   4.546   0.371   2.889  0.4687  0.0011 -1.2564
 6630TIP3   OH241448   1.917   3.317   0.561  0.0248 -0.6028  0.6353
 6630TIP3    H141449   1.919   3.275   0.475 -2.9446  0.6859 -0.1751
 6630TIP3    H241450   1.890   3.248   0.622 -0.7426 -0.8441  0.0269
 6631TIP3   OH241451   0.987   0.687   7.990 -0.2634 -0.5867  0.8350
 6631TIP3    H141452   1.017   0.646   7.908  0.1788  0.4386  0.4685
 6631TIP3    H241453   1.066   0.696   8.043 -0.0369  1.2438  0.2534
 6632TIP3   OH241454   2.143   3.490   0.412 -0.0992 -0.3555  0.4076
 6632TIP3    H141455   2.136   3.513   0.504 -1.3756 -3.7996  1.3118
 6632TIP3    H241456   2.238   3.479   0.397  0.1409  0.5979  1.1845
 6633TIP3   OH241457   6.252   3.478   1.927 -0.6621 -0.1008 -0.4233
 6633TIP3    H141458   6.332   3.428   1.907 -1.5186 -1.3596 -0.8024
 6633TIP3    H241459   6.214   3.434   2.003 -0.7702  0.7840  0.0527
 6634TIP3   OH241460   3.354   1.946   0.044 -0.8048 -0.3389  0.4191
 6634TIP3    H141461   3.397   1.861   0.038 -0.0969  0.0686 -0.4343
 6634TIP3    H241462   3.355   1.980  -0.045 -0.9695  0.6167  0.7754
 6635TIP3   OH241463   5.356   0.887   1.045  0.4374 -0.2325  0.5718
 6635TIP3    H141464   5.366   0.979   1.022 -0.7611 -0.5488 -1.4615
 6635TIP3    H241465   5.284   0.885   1.108 -0.7827  0.1135 -0.7535
 6636TIP3   OH241466   6.813   0.943   0.489 -0.2509 -1.2576 -0.2688
 6636TIP3    H141467   6.895   0.922   0.444  0.9464 -1.0216  1.6612
 6636TIP3    H241468   6.756   0.868   0.470  1.3536 -2.7570  0.4833
 6637TIP3   OH241469   0.932   4.886   1.806  0.1105  0.4150  0.2017
 6637TIP3    H141470   0.885   4.807   1.834 -0.1804  0.2103 -0.8110
 6637TIP3    H241471   0.982   4.858   1.729  0.2647  1.1440  0.0270
 6638TIP3   OH241472   4.716   3.911   1.833  0.3817 -0.7212  0.2985
 6638TIP3    H141473   4.761   3.902   1.749 -0.8772  0.7374 -0.5848
 6638TIP3    H241474   4.654   3.839   1.835 -0.2943 -0.1747 -0.5125
 6639TIP3   OH241475   3.905   1.585   0.251 -0.1155  0.2903  0.5512
 6639TIP3    H141476   3.833   1.591   0.314 -0.1227 -0.4298  0.6214
 6639TIP3    H241477   3.954   1.507   0.278 -0.6450 -0.5612 -0.8840
 6640TIP3   OH241478   1.959   5.951   7.770 -0.1654  0.0712  0.8274
 6640TIP3    H141479   2.022   5.983   7.835 -0.9149 -0.1045  1.6602
 6640TIP3    H241480   1.941   5.861   7.797 -1.2430  0.3232  0.9871
 6641TIP3   OH241481   2.550   2.233   0.922  0.1092  0.1040  0.0049
 6641TIP3    H141482   2.636   2.231   0.881 -0.5625 -0.2083 -1.4388
 6641TIP3    H241483   2.568   2.260   1.012  1.8673 -1.3186  0.1490
 6642TIP3   OH241484   2.168   2.106   8.041 -0.1660  0.5134 -0.6868
 6642TIP3    H141485   2.259   2.076   8.042 -0.1488  0.5309 -1.2625
 6642TIP3    H241486   2.165   2.177   8.105 -0.3694 -1.1538  1.2469
 6643TIP3   OH241487   3.862   1.543   8.372 -0.3251 -0.3157 -0.0593
 6643TIP3    H141488   3.955   1.562   8.372 -0.1142 -1.2939  0.7340
 6643TIP3    H241489   3.854   1.464   8.318 -0.6143 -0.5747  0.3576
 6644TIP3   OH241490   1.224   3.093   7.755 -0.4770 -0.2278 -0.0540
 6644TIP3    H141491   1.164   3.019   7.750  0.3465 -0.8294 -2.6906
 6644TIP3    H241492   1.245   3.101   7.849 -0.8422 -3.1213  0.3596
 6645TIP3   OH241493   2.704   6.746   7.239  0.6132  0.1658  0.2717
 6645TIP3    H141494   2.700   6.758   7.144  1.5523 -0.3053  0.1598
 6645TIP3    H241495   2.627   6.793   7.273  0.2900  0.3675 -0.7120
 6646TIP3   OH241496   4.492   4.784   7.567  0.4144  0.2433 -0.1265
 6646TIP3    H141497   4.572   4.835   7.559 -0.8638  2.1570 -1.5710
 6646TIP3    H241498   4.488   4.732   7.487  1.2635 -1.6225  0.9468
 6647TIP3   OH241499   1.247   3.678   6.873  0.1723 -0.0192 -0.1230
 6647TIP3    H141500   1.335   3.657   6.841  0.1439  0.8410 -0.8022
 6647TIP3    H241501   1.257   3.686   6.968  0.5796 -1.0865 -0.0714
 6648TIP3   OH241502   6.214   2.978   8.027 -0.0583  0.1875  0.0198
 6648TIP3    H141503   6.166   3.061   8.020 -2.5280 -1.0969  0.7878
 6648TIP3    H241504   6.186   2.928   7.950 -0.5047 -0.8494  0.8415
 6649TIP3   OH241505   1.442   6.677   0.012  0.5024 -0.7315  0.0126
 6649TIP3    H141506   1.399   6.734   0.076  0.4125 -0.9427  0.1399
 6649TIP3    H241507   1.524   6.652   0.054  0.9046 -0.0759 -0.3575
 6650TIP3   OH241508   4.245   3.363   1.070 -0.1752  0.0957 -0.2057
 6650TIP3    H141509   4.323   3.417   1.076  0.1284 -0.3257 -0.3108
 6650TIP3    H241510   4.277   3.277   1.043 -0.4458 -0.6052  1.5760
 6651TIP3   OH241511   2.993   0.276   1.323  0.6068  0.2928 -0.0163
 6651TIP3    H141512   2.960   0.189   1.345 -0.0934  0.3587 -0.7744
 6651TIP3    H241513   3.074   0.260   1.276  1.3519  0.1110  1.2713
 6652TIP3   OH241514   1.754   3.623   0.010  0.4765  0.1280 -0.5519
 6652TIP3    H141515   1.735   3.674  -0.069  2.6796  0.6010 -0.8465
 6652TIP3    H241516   1.849   3.609   0.008  0.3177 -1.6434  0.9619
 6653TIP3   OH241517   4.612   4.849   2.535 -0.3360  0.0842 -0.5114
 6653TIP3    H141518   4.666   4.924   2.560 -0.3863  0.2604 -0.9251
 6653TIP3    H241519   4.675   4.781   2.510 -0.2029 -0.7707  1.8717
 6654TIP3   OH241520   3.414   4.801   0.646  0.1112  0.5247 -0.1986
 6654TIP3    H141521   3.408   4.710   0.617  0.8135  0.6767 -0.8445
 6654TIP3    H241522   3.332   4.816   0.695  0.5408 -0.8135  1.0082
 6655TIP3   OH241523   4.248   6.131   1.839 -0.1235 -0.2440  0.7502
 6655TIP3    H141524   4.279   6.143   1.929  0.1597 -1.0781  0.7716
 6655TIP3    H241525   4.213   6.217   1.814 -1.0504 -0.2368  1.9749
 6656TIP3   OH241526   5.733   3.682   8.268 -0.0510  0.1081 -0.4024
 6656TIP3    H141527   5.754   3.595   8.234  1.6220  0.6908 -0.9491
 6656TIP3    H241528   5.727   3.737   8.190  0.8384  0.8570  0.0389
 6657TIP3   OH241529   2.549   2.509   0.011  0.0229  0.3536  0.7645
 6657TIP3    H141530   2.524   2.485  -0.078  1.6598 -0.4682  0.4848
 6657TIP3    H241531   2.626   2.564   0.000  0.2004  0.3080  1.6750
 6658TIP3   OH241532   2.833   5.475   2.574  0.5292 -0.8628  0.3318
 6658TIP3    H141533   2.784   5.533   2.515  1.7769 -0.3108 -0.1900
 6658TIP3    H241534   2.868   5.533   2.642 -0.4377 -1.4191  1.3385
 6659TIP3   OH241535   3.337   5.611   1.555 -0.4236 -0.0570 -0.0359
 6659TIP3    H141536   3.353   5.650   1.641 -0.0357  0.6993 -0.4484
 6659TIP3    H241537   3.389   5.663   1.494  0.1756 -1.2680 -0.5889
 6660TIP3   OH241538   2.263   0.809   8.392 -0.4456 -0.2169  0.4816
 6660TIP3    H141539   2.347   0.764   8.401 -1.0223 -1.6372 -0.7893
 6660TIP3    H241540   2.216   0.789   8.474 -0.2963 -1.0915  0.3621
 6661TIP3   OH241541   1.685   6.341   7.666  0.1374 -0.4474 -0.1500
 6661TIP3    H141542   1.715   6.342   7.757  1.3793 -2.7252 -0.4753
 6661TIP3    H241543   1.646   6.254   7.654 -1.2029  0.2779 -1.4632
 6662TIP3   OH241544   0.151   2.413   8.532  0.1837 -0.0827 -0.0432
 6662TIP3    H141545   0.145   2.346   8.465 -0.3418 -0.8165  0.7232
 6662TIP3    H241546   0.228   2.390   8.583 -0.2598 -0.3860  0.5053
 6663TIP3   OH241547   6.241   2.186   8.211 -0.4619 -0.7433 -0.0748
 6663TIP3    H141548   6.178   2.231   8.155 -1.3419 -0.8652  0.7891
 6663TIP3    H241549   6.276   2.256   8.267 -1.5815 -1.0314  1.0373
 6664TIP3   OH241550   3.347   5.505   2.950  0.5571 -0.2540 -0.1745
 6664TIP3    H141551   3.368   5.462   3.033  0.5045 -2.0012 -1.0425
 6664TIP3    H241552   3.265   5.551   2.967 -0.0502 -1.5270  0.4345
 6665TIP3   OH241553   3.175   2.814   7.258  0.6544 -0.0879  0.0588
 6665TIP3    H141554   3.268   2.834   7.267  1.2580 -1.3096 -2.5251
 6665TIP3    H241555   3.168   2.720   7.277 -0.1533  0.0777  0.6494
 6666TIP3   OH241556   2.034   0.906   3.176  0.2931  0.3806  0.2939
 6666TIP3    H141557   2.002   0.951   3.098  0.6180  0.8916  0.4483
 6666TIP3    H241558   1.960   0.853   3.206 -0.3765  1.4626  0.5978
 6667TIP3   OH241559   1.275   1.042   8.010 -0.0838  0.2753  0.2514
 6667TIP3    H141560   1.233   0.956   8.007  2.9455 -1.3372 -0.9323
 6667TIP3    H241561   1.264   1.077   7.921 -0.2767  0.5748  0.3917
 6668TIP3   OH241562   4.241   2.032   0.870  0.0468 -0.4757  0.7479
 6668TIP3    H141563   4.267   1.947   0.833 -1.1770 -1.0343  1.1219
 6668TIP3    H241564   4.173   2.010   0.933  0.8415  0.6357  2.0508
 6669TIP3   OH241565   6.760   0.822   0.151 -0.2824 -0.2044  0.0129
 6669TIP3    H141566   6.707   0.785   0.221 -1.6496 -0.6651 -1.2048
 6669TIP3    H241567   6.728   0.912   0.141 -0.1773 -0.1793 -0.1042
 6670TIP3   OH241568   0.092   6.564   8.546  0.1307  0.1571 -0.1590
 6670TIP3    H141569   0.032   6.589   8.476 -0.7122  0.6559  0.7327
 6670TIP3    H241570   0.080   6.630   8.614  0.0718 -0.9655  0.9632
 6671TIP3   OH241571   3.271   1.777   1.555 -0.7830 -0.3010  0.5812
 6671TIP3    H141572   3.300   1.696   1.513 -0.9357 -1.9964  3.4745
 6671TIP3    H241573   3.176   1.773   1.553 -0.7918 -0.1487  0.6548
 6672TIP3   OH241574   1.502   6.731   1.434  0.3527  0.1822 -0.0024
 6672TIP3    H141575   1.460   6.817   1.445  1.0406  0.5475 -0.1617
 6672TIP3    H241576   1.584   6.750   1.390 -0.1285 -0.7284 -1.3651
 6673TIP3   OH241577   3.045   5.082   8.093  0.6043 -0.7725 -0.2660
 6673TIP3    H141578   3.031   5.034   8.011  1.1339 -2.6515  0.6900
 6673TIP3    H241579   2.957   5.109   8.120  0.3427 -0.8352 -1.0346
 6674TIP3   OH241580   1.624   4.074   0.539  0.1756  0.2190  0.1064
 6674TIP3    H141581   1.575   4.011   0.487  1.0798 -2.6809  2.5004
 6674TIP3    H241582   1.712   4.073   0.500  0.1686  0.0523  0.0933
 6675TIP3   OH241583   6.787   0.238   0.590 -0.4063  0.1131 -0.4762
 6675TIP3    H141584   6.852   0.294   0.633 -2.4538  1.8466  0.5393
 6675TIP3    H241585   6.809   0.243   0.497 -0.0268  2.0012 -0.3301
 6676TIP3   OH241586   6.164   4.855   2.301  0.4556 -0.5292 -0.0825
 6676TIP3    H141587   6.133   4.770   2.331 -3.4587  0.6372 -0.2297
 6676TIP3    H241588   6.201   4.896   2.379  2.2365 -2.2235  0.0264
 6677TIP3   OH241589   6.189   3.640   8.686 -0.4628  0.1454  0.2878
 6677TIP3    H141590   6.243   3.569   8.652 -0.1765  0.1294  0.7606
 6677TIP3    H241591   6.171   3.615   8.776 -1.6116 -0.0450  0.0192
 6678TIP3   OH241592   1.538   0.620   8.124  0.2405 -0.1591 -0.1174
 6678TIP3    H141593   1.579   0.576   8.049 -0.1177  0.1552 -0.5028
 6678TIP3    H241594   1.569   0.710   8.118  0.0275 -0.0806 -0.0174
 6679TIP3   OH241595   4.147   4.168   1.444 -0.1888 -0.3948 -0.3871
 6679TIP3    H141596   4.129   4.074   1.436  1.9656 -0.8905  0.0431
 6679TIP3    H241597   4.138   4.187   1.537  1.6843 -0.7532 -0.0863
 6680TIP3   OH241598   6.718   6.660   1.639  0.6841 -0.3235 -0.2904
 6680TIP3    H141599   6.683   6.573   1.654 -4.1995  1.3933 -0.0736
 6680TIP3    H241600   6.725   6.668   1.543 -0.4431 -0.4508 -0.3893
 6681TIP3   OH241601   5.590   2.374   2.376 -0.4637  0.1941 -0.0489
 6681TIP3    H141602   5.502   2.405   2.396 -0.1008 -0.4305  3.0729
 6681TIP3    H241603   5.646   2.451   2.385 -0.3505 -0.0099  1.1311
 6682TIP3   OH241604   3.921   0.318   1.538  0.2334  0.4124 -0.0378
 6682TIP3    H141605   3.946   0.398   1.583  0.2186 -0.0354  0.7839
 6682TIP3    H241606   3.990   0.255   1.559  0.0670  0.1083 -0.3867
 6683TIP3   OH241607   4.250   1.365   1.330 -0.0400 -0.5446 -0.1085
 6683TIP3    H141608   4.297   1.449   1.334  0.8202 -0.9767 -0.7483
 6683TIP3    H241609   4.208   1.366   1.244  2.1102 -1.8345 -1.2595
 6684TIP3   OH241610   5.076   3.682   0.737 -0.3339 -0.3499  0.3026
 6684TIP3    H141611   5.063   3.592   0.769 -0.2968 -0.9427 -1.2917
 6684TIP3    H241612   5.076   3.674   0.642 -0.0479  1.3160  0.1402
 6685TIP3   OH241613   1.108   6.022   7.802  0.0757 -0.1776  0.1583
 6685TIP3    H141614   1.179   5.977   7.755  1.3920 -0.1176  1.9589
 6685TIP3    H241615   1.125   6.115   7.787 -0.0635 -0.1827 -0.0267
 6686TIP3   OH241616   1.611   6.286   2.857 -0.5268  0.4548 -0.5607
 6686TIP3    H141617   1.543   6.234   2.815  0.9989 -1.4355 -0.8397
 6686TIP3    H241618   1.692   6.259   2.814  0.8338  0.1197  1.9987
 6687TIP3   OH241619   2.139   1.880   1.352  0.0371  0.6501 -0.1941
 6687TIP3    H141620   2.105   1.962   1.315 -0.6946 -0.3888 -1.9474
 6687TIP3    H241621   2.178   1.834   1.277  0.4478 -0.6186  0.7543
 6688TIP3   OH241622   6.485   5.679   1.512 -0.2586 -0.2970  0.6691
 6688TIP3    H141623   6.574   5.645   1.521  0.6043  2.1466  2.4403
 6688TIP3    H241624   6.480   5.752   1.574 -2.9641  0.7734 -0.6150
 6689TIP3   OH241625   6.332   5.905   0.553  0.7659 -0.0669  0.3027
 6689TIP3    H141626   6.366   5.816   0.552  0.8713 -0.0444  1.0766
 6689TIP3    H241627   6.410   5.960   0.565  0.6712  0.1103  0.1118
 6690TIP3   OH241628   0.830   2.331   0.951  0.1060 -0.3300 -0.1649
 6690TIP3    H141629   0.790   2.353   0.867 -1.7714 -1.7446  0.2963
 6690TIP3    H241630   0.906   2.278   0.927 -0.4678 -0.8131 -0.9864
 6691TIP3   OH241631   4.306   1.259   7.370  0.7917 -0.0341 -0.3503
 6691TIP3    H141632   4.398   1.285   7.360  1.5904 -1.7949  1.5517
 6691TIP3    H241633   4.296   1.244   7.464 -0.6206 -2.6374 -0.8245
 6692TIP3   OH241634   4.631   4.942   0.857  0.8210  0.0984 -0.6023
 6692TIP3    H141635   4.543   4.908   0.848  0.4729  1.2142 -1.7183
 6692TIP3    H241636   4.633   4.984   0.943  0.9841 -1.8646  0.3901
 6693TIP3   OH241637   6.520   1.005   2.699  0.0769  0.4191 -0.1393
 6693TIP3    H141638   6.581   1.072   2.668  0.6233  0.8252  1.6997
 6693TIP3    H241639   6.443   1.054   2.727 -0.1274  0.1251 -0.1830
 6694TIP3   OH241640   3.077   5.118   1.974  0.2702 -0.2261 -0.7303
 6694TIP3    H141641   2.986   5.144   1.959 -0.0656 -0.9166  0.0061
 6694TIP3    H241642   3.106   5.174   2.046  0.4008 -0.0566 -0.9159
 6695TIP3   OH241643   1.134   5.643   7.643 -0.8185 -0.2674  0.1044
 6695TIP3    H141644   1.184   5.721   7.669 -1.3821 -0.9072  3.6783
 6695TIP3    H241645   1.188   5.570   7.673 -1.2145 -1.2352 -1.4229
 6696TIP3   OH241646   3.542   1.306   7.571 -0.2202  0.0187 -0.6848
 6696TIP3    H141647   3.510   1.320   7.482 -1.2669 -1.0674 -0.5149
 6696TIP3    H241648   3.625   1.260   7.560 -0.9503 -1.2615 -1.1318
 6697TIP3   OH241649   0.750   0.205   6.847 -0.2136 -0.5576  0.1662
 6697TIP3    H141650   0.842   0.209   6.872 -0.1638 -0.9436  0.0435
 6697TIP3    H241651   0.731   0.112   6.836 -0.8907 -0.5491  1.1571
 6698TIP3   OH241652   5.948   3.552   8.579 -0.0549  0.1035 -0.0851
 6698TIP3    H141653   6.009   3.579   8.648  2.1751 -0.5320 -1.6848
 6698TIP3    H241654   5.893   3.628   8.563  0.6168  0.8662  1.1004
 6699TIP3   OH241655   3.649   5.655   8.469 -0.0073 -0.2088 -0.0180
 6699TIP3    H141656   3.692   5.618   8.391  0.5130  0.2448  0.0506
 6699TIP3    H241657   3.679   5.746   8.472 -1.3714  0.2656 -0.2518
 6700TIP3   OH241658   1.560   3.386   0.637  0.0540  0.5050 -0.4375
 6700TIP3    H141659   1.565   3.335   0.557  1.2460 -0.8414  0.4297
 6700TIP3    H241660   1.487   3.446   0.624  0.4276  0.5439 -2.6300
 6701TIP3   OH241661   3.604   6.034   2.377  0.4046  0.3414 -0.3270
 6701TIP3    H141662   3.537   6.044   2.445  0.8375  1.3082 -0.0181
 6701TIP3    H241663   3.642   5.948   2.393  0.4949  0.5568  0.6666
 6702TIP3   OH241664   6.773   2.814   7.091  0.0636  0.3792  0.1822
 6702TIP3    H141665   6.773   2.861   7.008 -0.0865 -0.1961 -0.1550
 6702TIP3    H241666   6.853   2.762   7.090 -1.6679 -2.5479 -1.3532
 6703TIP3   OH241667   0.371   3.195   0.323 -0.1675 -1.0179  0.0573
 6703TIP3    H141668   0.442   3.259   0.316 -1.4896  0.3421 -1.4481
 6703TIP3    H241669   0.322   3.223   0.401  0.3118 -1.3229  0.4756
 6704TIP3   OH241670   5.294   2.788   0.786 -0.5600 -0.3437 -0.2885
 6704TIP3    H141671   5.217   2.820   0.834 -1.2523  0.6991 -1.9977
 6704TIP3    H241672   5.271   2.800   0.694  0.7332 -2.2608 -0.9068
 6705TIP3   OH241673   1.383   3.315   2.603 -0.5528 -0.1054 -0.5588
 6705TIP3    H141674   1.374   3.251   2.673  1.5501  0.4963  0.3083
 6705TIP3    H241675   1.358   3.399   2.643 -2.1244 -0.1561 -1.3577
 6706TIP3   OH241676   1.759   0.615   2.277 -0.4203 -0.7633 -0.3017
 6706TIP3    H141677   1.791   0.665   2.352 -1.3810 -1.2063  0.4262
 6706TIP3    H241678   1.665   0.630   2.277 -0.1345  2.2043 -3.6152
 6707TIP3   OH241679   5.408   2.768   2.141  0.4830  0.1471  0.1912
 6707TIP3    H141680   5.379   2.744   2.054  1.4607  0.8136 -0.3410
 6707TIP3    H241681   5.501   2.744   2.143  0.4652  0.1101  1.0523
 6708TIP3   OH241682   6.069   0.330   1.732 -0.1600 -0.2196 -0.3230
 6708TIP3    H141683   6.070   0.262   1.665  0.7493 -0.8587  0.3212
 6708TIP3    H241684   6.021   0.402   1.692 -0.1154 -0.7975 -1.4533
 6709TIP3   OH241685   2.399   0.549   8.595  1.1398 -0.1659  0.7415
 6709TIP3    H141686   2.462   0.485   8.629  0.6867 -0.8186  0.3785
 6709TIP3    H241687   2.336   0.560   8.666  0.1449 -1.5955  0.1215
 6710TIP3   OH241688   6.447   0.326   8.253  0.1336 -0.8280 -0.1505
 6710TIP3    H141689   6.454   0.409   8.205  0.9204 -0.9960 -0.3369
 6710TIP3    H241690   6.410   0.264   8.191 -1.1647 -0.4427  0.2135
 6711TIP3   OH241691   3.191   4.924   0.400 -0.1802 -0.1893  0.3725
 6711TIP3    H141692   3.104   4.920   0.440 -0.2126 -0.2922  0.2948
 6711TIP3    H241693   3.196   4.844   0.348 -0.4377  0.3076 -0.4337
 6712TIP3   OH241694   1.374   5.112   2.349  0.1533  0.0024 -0.7458
 6712TIP3    H141695   1.316   5.054   2.299 -1.8392  0.8216  0.4946
 6712TIP3    H241696   1.392   5.064   2.430 -1.0370  0.8062  0.0350
 6713TIP3   OH241697   5.513   0.538   1.863  0.5314  0.4055  0.4347
 6713TIP3    H141698   5.500   0.443   1.857 -0.7757  0.5988  0.0078
 6713TIP3    H241699   5.548   0.564   1.778 -1.2201  0.6067 -0.2527
 6714TIP3   OH241700   2.394   2.357   7.730 -0.4708  0.0398  0.1628
 6714TIP3    H141701   2.347   2.274   7.733  0.1720 -0.3392 -0.1928
 6714TIP3    H241702   2.396   2.381   7.637 -1.9873  1.2345  0.3858
 6715TIP3   OH241703   5.106   2.918   0.934 -0.5272  0.2986 -0.6066
 6715TIP3    H141704   5.030   2.948   0.883  0.0758  1.5874 -0.7785
 6715TIP3    H241705   5.127   2.992   0.991  1.5589  0.5774 -1.6679
 6716TIP3   OH241706   3.760   2.827   8.280 -0.5796  0.3375 -0.1435
 6716TIP3    H141707   3.747   2.757   8.216  1.6203  0.9988 -1.4670
 6716TIP3    H241708   3.690   2.816   8.343 -1.6004 -1.6866 -1.5127
 6717TIP3   OH241709   1.449   5.221   1.423  0.3112  0.7749  0.2797
 6717TIP3    H141710   1.531   5.200   1.377  0.0435 -0.4324  0.3184
 6717TIP3    H241711   1.476   5.237   1.513  0.4849  0.1489  0.3425
 6718TIP3   OH241712   5.354   5.057   2.121  0.0428 -0.1792  0.6136
 6718TIP3    H141713   5.294   5.055   2.196 -2.9153  1.6834 -1.4805
 6718TIP3    H241714   5.388   4.968   2.116 -0.9140 -0.7904  3.1532
 6719TIP3   OH241715   2.731   4.591   0.473 -0.3040  0.1339  0.2365
 6719TIP3    H141716   2.650   4.577   0.423 -1.0880 -0.1278  1.5195
 6719TIP3    H241717   2.715   4.671   0.523  0.1751  0.0108  0.5925
 6720TIP3   OH241718   0.199   2.386   1.004 -0.3295 -0.0919  0.7631
 6720TIP3    H141719   0.272   2.423   0.952  0.2677 -0.3478  1.4094
 6720TIP3    H241720   0.203   2.434   1.087 -1.4557  0.5065  0.4900
 6721TIP3   OH241721   0.803   0.432   0.294 -0.2040  0.1393  0.5257
 6721TIP3    H141722   0.838   0.386   0.371 -2.2640  0.9649  2.0325
 6721TIP3    H241723   0.771   0.362   0.237  2.1727 -0.5412 -0.0915
 6722TIP3   OH241724   6.832   2.108   8.143  0.2874  0.0137  0.4260
 6722TIP3    H141725   6.912   2.159   8.140  0.0294  0.4440  0.7458
 6722TIP3    H241726   6.807   2.109   8.236  1.3716 -2.3920  0.8346
 6723TIP3   OH241727   1.907   4.888   2.523  0.6242 -0.7351 -0.2410
 6723TIP3    H141728   1.857   4.839   2.587  0.4953  0.1717  0.3558
 6723TIP3    H241729   1.974   4.826   2.493  0.8684 -1.0750  0.9771
 6724TIP3   OH241730   0.513   5.239   0.148  0.0960  0.4970 -0.5562
 6724TIP3    H141731   0.422   5.212   0.153  0.2206 -0.2484 -2.0277
 6724TIP3    H241732   0.518   5.317   0.204 -1.0980 -0.3018  0.7091
 6725TIP3   OH241733   2.447   2.552   8.464 -0.0417  0.3739 -0.3708
 6725TIP3    H141734   2.500   2.530   8.388 -0.9426  0.8525 -1.1503
 6725TIP3    H241735   2.460   2.646   8.476 -1.0131  0.5822 -0.8247
 6726TIP3   OH241736   5.446   4.956   8.016  0.1289  0.0657  0.1377
 6726TIP3    H141737   5.487   4.963   7.930  1.2262  0.8404  0.6976
 6726TIP3    H241738   5.357   4.926   7.997  0.0905  0.9748 -1.3382
 6727TIP3   OH241739   1.679   1.535   1.919 -0.1676 -0.0357  0.7986
 6727TIP3    H141740   1.725   1.452   1.929 -2.0487 -1.0688  1.3408
 6727TIP3    H241741   1.688   1.557   1.826  0.4054 -0.7868  0.6693
 6728TIP3   OH241742   0.550   5.643   8.087 -0.0333 -0.1571  0.3724
 6728TIP3    H141743   0.587   5.555   8.082 -0.2133 -0.2215  0.1479
 6728TIP3    H241744   0.502   5.644   8.170 -0.4200 -0.4252  0.1547
 6729TIP3   OH241745   6.148   2.481   8.672 -0.1856  0.0766  0.3333
 6729TIP3    H141746   6.149   2.490   8.768 -0.1358  0.3892  0.3042
 6729TIP3    H241747   6.055   2.487   8.649 -0.1451  0.6699  0.3037
 6730TIP3   OH241748   4.447   5.554   8.074 -0.0779 -0.4221 -0.0702
 6730TIP3    H141749   4.429   5.583   8.164 -0.7992 -1.7840  0.2569
 6730TIP3    H241750   4.390   5.478   8.062  0.2916 -0.4928 -1.5618
 6731TIP3   OH241751   4.824   3.025   3.100 -0.1768  0.2393  0.3179
 6731TIP3    H141752   4.811   3.081   3.023 -0.2140 -0.3035 -0.0797
 6731TIP3    H241753   4.918   3.007   3.100 -0.1096  0.5981  0.6529
 6732TIP3   OH241754   5.972   3.740   2.349 -0.2360 -0.1886  0.0319
 6732TIP3    H141755   6.048   3.727   2.405 -0.4994 -0.7053  0.2730
 6732TIP3    H241756   5.917   3.802   2.397 -1.3039 -1.9717  1.2099
 6733TIP3   OH241757   1.756   0.749   2.933  0.3160 -0.2729  0.1675
 6733TIP3    H141758   1.843   0.772   2.899  0.0609 -0.3863 -0.5857
 6733TIP3    H241759   1.736   0.665   2.892 -0.2183 -0.1669  0.2042
 6734TIP3   OH241760   1.341   2.150   1.784  0.5429 -0.4606  0.9063
 6734TIP3    H141761   1.356   2.155   1.689 -3.0123 -2.7006  0.0509
 6734TIP3    H241762   1.420   2.107   1.817  1.2701 -0.9520 -1.2572
 6735TIP3   OH241763   5.358   4.355   2.772  0.0698 -0.7497 -0.0945
 6735TIP3    H141764   5.335   4.397   2.855 -0.0361 -0.5092 -0.2452
 6735TIP3    H241765   5.449   4.379   2.757 -0.5942  1.2987 -1.2835
 6736TIP3   OH241766   5.651   4.185   8.026 -0.0472 -0.2083  0.6782
 6736TIP3    H141767   5.689   4.249   8.086  1.6284  0.3297 -0.8778
 6736TIP3    H241768   5.563   4.218   8.009  0.4954  1.2375  0.5575
 6737TIP3   OH241769   6.143   5.851   2.573 -0.2361 -0.6950 -0.1224
 6737TIP3    H141770   6.129   5.882   2.663 -0.8898  0.8313 -0.7157
 6737TIP3    H241771   6.168   5.930   2.524  1.2599 -1.7044 -1.0690
 6738TIP3   OH241772   0.426   3.195   8.428 -0.1996  0.1351 -0.2167
 6738TIP3    H141773   0.470   3.176   8.511 -0.6385  1.3013  0.2965
 6738TIP3    H241774   0.350   3.137   8.427 -0.4895  0.4924  0.4564
 6739TIP3   OH241775   0.804   0.871   8.089 -0.0649 -0.3547 -0.4619
 6739TIP3    H141776   0.888   0.825   8.090  1.2170  1.8441  0.5884
 6739TIP3    H241777   0.813   0.935   8.018 -1.9260 -1.8207 -2.1051
 6740TIP3   OH241778   6.417   5.392   0.866 -0.3860 -0.1139  0.1439
 6740TIP3    H141779   6.388   5.387   0.775  1.7564 -0.3879 -0.5920
 6740TIP3    H241780   6.336   5.390   0.917 -1.7447  1.2425 -1.7663
 6741TIP3   OH241781   3.509   3.393   8.335  0.0401 -0.1324 -0.4525
 6741TIP3    H141782   3.595   3.428   8.311  0.2892 -1.1974 -1.1775
 6741TIP3    H241783   3.467   3.371   8.251 -0.1423 -1.4391 -0.0468
 6742TIP3   OH241784   5.995   1.674   7.636  0.3414 -0.4248 -0.1852
 6742TIP3    H141785   5.997   1.611   7.563 -1.0444 -1.9687  1.0176
 6742TIP3    H241786   6.025   1.623   7.712 -0.3334  0.5080  0.7324
 6743TIP3   OH241787   0.322   5.861   7.462 -0.3329 -0.1000  0.5788
 6743TIP3    H141788   0.391   5.826   7.405 -1.3320 -0.5658 -0.3695
 6743TIP3    H241789   0.337   5.956   7.463 -0.1225 -0.1196 -0.2242
 6744TIP3   OH241790   2.064   1.816   2.823 -0.1118  0.4825 -0.2264
 6744TIP3    H141791   1.994   1.862   2.776 -0.6081 -2.0106 -2.1199
 6744TIP3    H241792   2.124   1.788   2.754  1.7311  0.8028  1.1769
 6745TIP3   OH241793   1.767   2.065   0.352  0.0280 -0.5741 -0.2592
 6745TIP3    H141794   1.807   2.152   0.354 -0.6967 -0.2408  0.3604
 6745TIP3    H241795   1.837   2.005   0.378  1.6580 -0.6898 -4.3063
 6746TIP3   OH241796   0.807   5.632   1.644  0.1824 -0.3398  0.1638
 6746TIP3    H141797   0.798   5.722   1.676 -0.4159 -0.4769  0.3882
 6746TIP3    H241798   0.862   5.641   1.565  0.0569  0.2300  0.1338
 6747TIP3   OH241799   4.746   1.901   8.181 -0.2360 -0.3506 -0.2927
 6747TIP3    H141800   4.728   1.811   8.208 -1.4996 -0.3555 -1.0630
 6747TIP3    H241801   4.760   1.895   8.086  1.2330  0.0610 -0.1276
 6748TIP3   OH241802   0.395   4.785   8.628  0.3155  0.5026  0.5803
 6748TIP3    H141803   0.320   4.786   8.687 -0.2854 -0.7678 -0.1251
 6748TIP3    H241804   0.358   4.799   8.541  0.6851 -1.5191  0.0553
 6749TIP3   OH241805   5.397   0.924   8.466  0.3083  0.3905 -0.0429
 6749TIP3    H141806   5.324   0.865   8.444 -0.6889  0.7940  1.9739
 6749TIP3    H241807   5.462   0.908   8.397 -0.1260 -2.6812  0.1182
 6750TIP3   OH241808   1.467   5.122   1.708 -0.0054 -0.3416  0.0672
 6750TIP3    H141809   1.454   5.049   1.769 -0.6550 -0.3913 -0.1186
 6750TIP3    H241810   1.489   5.197   1.763 -0.9289 -0.3003  0.4062
 6751TIP3   OH241811   1.710   1.676   7.469 -0.0142 -0.1369  0.3394
 6751TIP3    H141812   1.750   1.591   7.451  1.9738  0.7845  0.1382
 6751TIP3    H241813   1.655   1.693   7.393 -0.4739 -1.2344  0.3996
 6752TIP3   OH241814   6.529   4.251   0.413  0.0218 -0.3313 -0.1830
 6752TIP3    H141815   6.453   4.195   0.399 -1.0802  0.8007  1.0422
 6752TIP3    H241816   6.601   4.203   0.372 -1.1665 -1.8639 -0.5893
 6753TIP3   OH241817   0.528   2.332   7.333  0.3549 -0.6789  0.1812
 6753TIP3    H141818   0.614   2.358   7.366  1.1076 -0.2535 -1.9082
 6753TIP3    H241819   0.481   2.414   7.322  0.1889 -0.7878  0.0693
 6754TIP3   OH241820   3.209   6.466   1.864  0.2753  0.0590 -0.1527
 6754TIP3    H141821   3.176   6.486   1.776  0.9331  0.4305 -0.3169
 6754TIP3    H241822   3.304   6.468   1.856  0.3438 -0.1653  0.5124
 6755TIP3   OH241823   2.221   4.223   1.799 -0.2405 -0.2514 -0.1102
 6755TIP3    H141824   2.144   4.281   1.795 -0.3123 -0.3745 -0.6034
 6755TIP3    H241825   2.195   4.145   1.750 -0.4180 -1.0374  1.1906
 6756TIP3   OH241826   4.417   0.398   2.054 -0.1895  0.6560 -0.6940
 6756TIP3    H141827   4.437   0.490   2.072 -0.3472  0.3150  1.4254
 6756TIP3    H241828   4.495   0.365   2.009  0.8293  1.2707  0.5634
 6757TIP3   OH241829   2.757   3.358   7.913  0.2121 -0.2003  0.1949
 6757TIP3    H141830   2.845   3.392   7.901  0.6504 -0.6841  1.7500
 6757TIP3    H241831   2.741   3.303   7.836  0.7512  0.8872 -0.7141
 6758TIP3   OH241832   1.753   1.185   1.081 -0.2016 -0.1937  0.2429
 6758TIP3    H141833   1.811   1.257   1.059 -0.7074 -0.3630 -1.8099
 6758TIP3    H241834   1.668   1.212   1.046 -0.5062 -1.5642 -0.1018
 6759TIP3   OH241835   1.155   1.687   1.388 -0.0423  0.3630 -0.3157
 6759TIP3    H141836   1.187   1.715   1.474 -0.2772 -1.6482  0.4848
 6759TIP3    H241837   1.079   1.743   1.371 -1.2507 -0.5594  1.7685
 6760TIP3   OH241838   0.088   2.209   3.234 -0.0415 -0.0904  0.1349
 6760TIP3    H141839   0.095   2.226   3.140  2.0186 -1.4812 -0.0261
 6760TIP3    H241840   0.161   2.258   3.273 -0.1465 -0.4986  0.8616
 6761TIP3   OH241841   0.230   3.521   2.067  0.4016  0.7001  0.2134
 6761TIP3    H141842   0.195   3.471   1.993  2.4521 -2.7440  1.3052
 6761TIP3    H241843   0.297   3.577   2.029  1.3053 -0.8924 -0.6600
 6762TIP3   OH241844   2.660   5.037   1.894 -0.2420  0.3343 -0.4665
 6762TIP3    H141845   2.599   5.083   1.952 -0.4969 -0.1463 -0.3487
 6762TIP3    H241846   2.604   4.982   1.840 -0.0199  0.8449 -1.2472
 6763TIP3   OH241847   3.729   4.883   7.243 -0.0935  0.3871 -0.4907
 6763TIP3    H141848   3.684   4.815   7.292 -0.8697  2.4063  1.7279
 6763TIP3    H241849   3.800   4.836   7.198 -0.4268 -1.8304  1.1330
 6764TIP3   OH241850   5.471   6.431   7.946 -0.7576 -0.2346  0.3310
 6764TIP3    H141851   5.512   6.506   7.989 -1.0577  0.5778 -0.7855
 6764TIP3    H241852   5.399   6.467   7.896 -0.4480 -1.1718 -0.8338
 6765TIP3   OH241853   1.721   3.980   1.135  0.5251 -0.4477 -0.0551
 6765TIP3    H141854   1.816   3.968   1.142  0.6533 -1.8581 -2.7059
 6765TIP3    H241855   1.705   4.068   1.169  2.5613 -0.6958  1.7351
 6766TIP3   OH241856   3.204   4.175   2.682  0.2677 -0.0711  0.4449
 6766TIP3    H141857   3.135   4.204   2.743 -0.3353 -0.2488 -0.1413
 6766TIP3    H241858   3.157   4.129   2.613  0.5911  2.5142 -1.6580
 6767TIP3   OH241859   4.939   6.076   1.574  0.2856  0.3741 -0.3958
 6767TIP3    H141860   4.990   5.996   1.577 -0.0462 -0.0945 -3.8680
 6767TIP3    H241861   4.860   6.056   1.626 -0.6532 -2.3092 -2.6317
 6768TIP3   OH241862   1.852   2.190   7.774 -0.0720  0.0599  0.0568
 6768TIP3    H141863   1.768   2.146   7.788 -0.3229 -0.2183 -1.9895
 6768TIP3    H241864   1.831   2.264   7.717  1.1516 -0.4052 -1.0438
 6769TIP3   OH241865   6.076   5.289   7.746  0.6827  0.4363 -0.2631
 6769TIP3    H141866   6.124   5.367   7.719  0.2479  0.8194  0.0443
 6769TIP3    H241867   6.140   5.218   7.741  1.5083  1.0609  0.8853
 6770TIP3   OH241868   4.166   3.056   7.610  1.2155  0.2150  0.1924
 6770TIP3    H141869   4.143   3.145   7.582 -3.7842 -0.6759  0.6807
 6770TIP3    H241870   4.229   3.026   7.544  1.4993  3.3540 -1.1319
 6771TIP3   OH241871   4.869   3.203   2.033 -0.4310 -0.3561  0.2821
 6771TIP3    H141872   4.843   3.141   2.101  0.9291 -2.1938 -0.7981
 6771TIP3    H241873   4.887   3.149   1.956  0.9077  1.3674 -0.6897
 6772TIP3   OH241874   1.117   2.660   1.880  0.3704 -0.2493 -0.0560
 6772TIP3    H141875   1.205   2.641   1.849  0.5503 -0.1530  0.3844
 6772TIP3    H241876   1.061   2.647   1.804  0.9661  1.4191 -0.8194
 6773TIP3   OH241877   1.728   4.239   0.767  0.7798 -0.7712  0.4070
 6773TIP3    H141878   1.786   4.306   0.730 -0.8182  0.1850 -0.4703
 6773TIP3    H241879   1.772   4.157   0.746  1.3404 -0.1235 -1.1684
 6774TIP3   OH241880   4.165   4.626   0.421 -0.1129  0.0306  0.0861
 6774TIP3    H141881   4.211   4.681   0.484  1.2984 -0.3651 -0.5598
 6774TIP3    H241882   4.231   4.563   0.391  0.7309  2.7933 -5.0444
 6775TIP3   OH241883   0.813   6.212   7.763 -0.1420 -0.0227 -0.0068
 6775TIP3    H141884   0.785   6.137   7.816  1.0381  0.9082  2.0266
 6775TIP3    H241885   0.900   6.234   7.796  0.0480  1.4793 -1.4051
 6776TIP3   OH241886   4.118   4.127   8.588  0.3968  0.0915  0.9325
 6776TIP3    H141887   4.091   4.093   8.503  0.8484  2.2050 -0.0939
 6776TIP3    H241888   4.037   4.128   8.640 -0.0223 -0.5020  0.3083
 6777TIP3   OH241889   1.324   5.201   0.526 -0.0732 -0.1547  0.2296
 6777TIP3    H141890   1.342   5.108   0.514  1.6847  0.3339 -1.3648
 6777TIP3    H241891   1.239   5.215   0.483 -0.2866 -0.9739  0.3694
 6778TIP3   OH241892   3.476   3.083   1.010  0.1767  0.2738  0.1790
 6778TIP3    H141893   3.382   3.076   1.030  0.0199  0.1041 -0.5841
 6778TIP3    H241894   3.519   3.044   1.085 -0.3628  0.3641  0.5483
 6779TIP3   OH241895   4.189   2.755   1.391  0.1589 -0.2111  0.2642
 6779TIP3    H141896   4.265   2.798   1.431  0.4046  1.4738 -1.7914
 6779TIP3    H241897   4.173   2.806   1.311 -2.6619 -1.0002  0.2195
 6780TIP3   OH241898   5.192   3.161   0.494  0.3465  0.6441 -0.4933
 6780TIP3    H141899   5.221   3.245   0.529 -1.1953  1.2764 -0.6415
 6780TIP3    H241900   5.244   3.148   0.415 -0.3076  2.1263 -1.2090
 6781TIP3   OH241901   2.021   2.887   2.019 -0.3623 -0.7383  0.1244
 6781TIP3    H141902   2.041   2.844   2.102  1.8035  0.3862  0.2608
 6781TIP3    H241903   2.037   2.980   2.036  2.3346 -0.6732 -2.0854
 6782TIP3   OH241904   4.596   1.722   0.807  0.0020 -0.1646  0.4321
 6782TIP3    H141905   4.649   1.765   0.874  0.2711 -0.4562  0.4103
 6782TIP3    H241906   4.607   1.777   0.729  1.0059 -0.7093  0.1742
 6783TIP3   OH241907   5.741   2.477   8.039 -0.1948  0.0848  0.4389
 6783TIP3    H141908   5.808   2.471   8.107  0.8288  1.1359 -0.4246
 6783TIP3    H241909   5.789   2.464   7.957 -1.1571  0.2600 -0.1680
 6784TIP3   OH241910   1.751   6.767   0.943  0.0517  0.1883 -0.0607
 6784TIP3    H141911   1.667   6.728   0.967  0.3568 -0.3699  0.1091
 6784TIP3    H241912   1.771   6.828   1.015 -0.2581  0.4047 -0.1576
 6785TIP3   OH241913   0.748   1.613   1.204 -0.5883 -0.2907 -0.2790
 6785TIP3    H141914   0.828   1.573   1.238  0.0257 -0.0133 -1.3696
 6785TIP3    H241915   0.778   1.677   1.140 -1.6013  1.0902  0.5700
 6786TIP3   OH241916   3.883   2.481   0.745  0.4938 -0.0174 -0.9443
 6786TIP3    H141917   3.942   2.434   0.803 -1.0557 -0.2675  0.5405
 6786TIP3    H241918   3.879   2.428   0.665  1.0160 -0.8364 -0.4359
 6787TIP3   OH241919   5.579   4.196   7.039  0.4612 -0.4401  0.3602
 6787TIP3    H141920   5.561   4.154   7.123 -3.1850  1.1753  0.5545
 6787TIP3    H241921   5.511   4.165   6.980  1.1692  0.7210 -1.1654
 6788TIP3   OH241922   6.303   5.867   0.167  0.0406  0.1379 -0.1094
 6788TIP3    H141923   6.389   5.901   0.191  0.9898 -1.1839 -1.4513
 6788TIP3    H241924   6.290   5.792   0.226 -0.4215  0.6228  0.4145
 6789TIP3   OH241925   6.321   6.414   0.734 -0.3997  0.3053  0.2270
 6789TIP3    H141926   6.338   6.342   0.795 -1.6791  0.5988  0.9908
 6789TIP3    H241927   6.407   6.446   0.709  0.1734 -0.8180  0.6899
 6790TIP3   OH241928   3.552   1.050   7.384  0.1434  0.5827 -0.2413
 6790TIP3    H141929   3.482   1.058   7.319 -0.2354 -2.3695 -0.3613
 6790TIP3    H241930   3.629   1.022   7.333 -0.0600 -1.4089  0.4329
 6791TIP3   OH241931   4.266   1.217   7.894 -0.4652 -0.5588  0.3825
 6791TIP3    H141932   4.347   1.175   7.922  0.6143  1.3068  0.1890
 6791TIP3    H241933   4.221   1.240   7.976  0.9511  1.6063  0.6272
 6792TIP3   OH241934   0.239   0.399   6.791  0.3564  0.0585  0.0416
 6792TIP3    H141935   0.331   0.378   6.777  0.3624  0.0432  0.1015
 6792TIP3    H241936   0.237   0.439   6.879  0.2802 -0.1028  0.1133
 6793TIP3   OH241937   3.657   1.291   0.785 -0.2265 -0.0159  0.5670
 6793TIP3    H141938   3.698   1.376   0.765  0.2825 -0.1063  1.1769
 6793TIP3    H241939   3.716   1.226   0.746 -0.4248 -0.1047  0.4143
 6794TIP3   OH241940   2.693   6.728   7.961 -0.1629 -0.3102  0.7859
 6794TIP3    H141941   2.722   6.786   7.891 -0.1371 -0.1931  0.8922
 6794TIP3    H241942   2.667   6.788   8.032  0.0052 -0.4312  0.9516
 6795TIP3   OH241943   6.798   6.172   7.564  0.1660  0.6478 -1.1650
 6795TIP3    H141944   6.709   6.148   7.591  0.0169  1.1352 -1.2049
 6795TIP3    H241945   6.824   6.103   7.503 -0.6960  1.1790 -2.1752
 6796TIP3   OH241946   3.383   4.518   0.122  0.0009  0.5560  0.0469
 6796TIP3    H141947   3.478   4.522   0.127  0.0454 -0.2229  0.0009
 6796TIP3    H241948   3.361   4.431   0.156 -0.7020  0.7798  0.1804
 6797TIP3   OH241949   3.355   5.195   1.230  0.0481 -0.3578 -0.1255
 6797TIP3    H141950   3.319   5.133   1.293  1.4450 -0.3437  0.7209
 6797TIP3    H241951   3.406   5.257   1.283 -1.0127  1.3320 -0.9761
 6798TIP3   OH241952   5.707   6.678   1.151 -0.0739 -0.3247  0.5802
 6798TIP3    H141953   5.773   6.635   1.205 -0.6354  0.8868  2.3304
 6798TIP3    H241954   5.715   6.771   1.174 -1.9718 -0.0781  0.4086
 6799TIP3   OH241955   4.278   5.815   2.085  0.0539  0.3138  0.6896
 6799TIP3    H141956   4.208   5.880   2.080 -0.8413 -0.6975 -0.3403
 6799TIP3    H241957   4.254   5.748   2.022  0.9562 -1.0380  1.7217
 6800TIP3   OH241958   6.538   6.562   0.653  0.3135  0.2974 -0.0415
 6800TIP3    H141959   6.530   6.572   0.558  1.2391  1.4542 -0.0286
 6800TIP3    H241960   6.545   6.652   0.686  1.7580 -0.1397  0.9439
 6801TIP3   OH241961   3.620   0.606   1.358 -0.2761  0.4625  0.3260
 6801TIP3    H141962   3.672   0.684   1.342 -1.8914  2.0106  2.0801
 6801TIP3    H241963   3.530   0.634   1.341 -0.6826 -2.0734 -2.4784
 6802TIP3   OH241964   3.154   2.735   2.108  0.1752  0.0160  0.0225
 6802TIP3    H141965   3.147   2.783   2.190  1.4221 -0.2558  0.3140
 6802TIP3    H241966   3.199   2.653   2.132 -0.7174 -0.7064 -0.6888
 6803TIP3   OH241967   0.510   6.416   7.868  0.6921  0.7292  0.1540
 6803TIP3    H141968   0.496   6.328   7.905  0.1726  0.4330 -0.7204
 6803TIP3    H241969   0.584   6.406   7.809  0.0161  0.6375 -0.7001
 6804TIP3   OH241970   0.436   6.354   2.466  0.1133  0.6903 -0.2263
 6804TIP3    H141971   0.518   6.365   2.515 -0.4094  2.0982  0.3854
 6804TIP3    H241972   0.367   6.370   2.531 -0.6159  1.3656 -1.1340
 6805TIP3   OH241973   0.514   6.464   8.542  0.2306  0.2058  0.0480
 6805TIP3    H141974   0.539   6.374   8.561  1.4731  0.5629  0.1982
 6805TIP3    H241975   0.421   6.460   8.523 -0.3325 -0.7496  2.6041
 6806TIP3   OH241976   6.743   3.392   8.061  0.0905 -0.4134  0.2109
 6806TIP3    H141977   6.767   3.481   8.037  1.1865 -0.2156  1.8363
 6806TIP3    H241978   6.687   3.361   7.990  0.3890  1.2637 -0.7908
 6807TIP3   OH241979   2.651   6.467   7.717 -0.0530  0.4760  0.0646
 6807TIP3    H141980   2.645   6.378   7.682  0.4756 -0.3186  1.8810
 6807TIP3    H241981   2.745   6.484   7.721 -0.1369  0.8777  0.3316
 6808TIP3   OH241982   6.350   6.336   1.256  0.3196 -0.0369 -0.2231
 6808TIP3    H141983   6.369   6.334   1.162  2.2876 -0.7937  0.1479
 6808TIP3    H241984   6.257   6.361   1.261  0.6584  2.0272 -2.2773
 6809TIP3   OH241985   6.509   3.132   0.882 -0.6496 -1.1162  0.0489
 6809TIP3    H141986   6.518   3.037   0.873 -0.0562 -1.1577  0.9093
 6809TIP3    H241987   6.597   3.165   0.868 -1.1992 -0.4725 -2.3177
 6810TIP3   OH241988   2.493   5.270   0.651 -0.6279 -0.6270 -0.2615
 6810TIP3    H141989   2.402   5.243   0.668 -1.3126  1.8232  0.3843
 6810TIP3    H241990   2.487   5.324   0.572  0.5205 -1.6026 -1.0293
 6811TIP3   OH241991   1.545   4.528   0.689  0.1869 -0.0042  0.1794
 6811TIP3    H141992   1.522   4.436   0.705  3.0568 -1.2401 -1.9581
 6811TIP3    H241993   1.606   4.549   0.759  1.0396 -0.4110 -0.4261
 6812TIP3   OH241994   3.591   2.949   3.117  0.3211 -0.4294 -0.5089
 6812TIP3    H141995   3.581   2.997   3.035 -2.2639  0.3299  0.1725
 6812TIP3    H241996   3.656   2.999   3.166 -0.5083  0.9886 -0.8107
 6813TIP3   OH241997   3.544   2.427   2.109 -0.7480 -0.0269  0.3074
 6813TIP3    H141998   3.463   2.475   2.128 -1.4115 -1.2293  0.7053
 6813TIP3    H241999   3.558   2.373   2.187 -1.1133 -1.8584 -0.8360
 6814TIP3   OH242000   0.208   2.558   0.302  0.1088  0.2085 -0.3888
 6814TIP3    H142001   0.137   2.546   0.365  1.3550 -0.6886  0.9008
 6814TIP3    H242002   0.244   2.471   0.289  0.4046  0.5128 -1.7394
 6815TIP3   OH242003   6.421   1.651   7.462 -0.7447 -0.3731 -0.8085
 6815TIP3    H142004   6.422   1.699   7.544 -1.2287  0.1309 -1.0900
 6815TIP3    H242005   6.355   1.582   7.475 -0.6807 -0.4148 -0.7068
 6816TIP3   OH242006   6.101   2.297   7.999  0.6448 -0.0286  0.3610
 6816TIP3    H142007   6.036   2.325   7.935  1.3089  0.4076 -0.1336
 6816TIP3    H242008   6.105   2.202   7.988 -0.7154 -0.2000  1.1852
 6817TIP3   OH242009   4.657   5.774   0.366 -0.6237  0.4154  0.2966
 6817TIP3    H142010   4.569   5.747   0.393 -1.1807  0.4086 -1.4195
 6817TIP3    H242011   4.711   5.760   0.444 -2.0908  0.2298  1.3312
 6818TIP3   OH242012   3.258   0.536   0.230  0.0713 -0.3071  0.2679
 6818TIP3    H142013   3.195   0.604   0.209 -0.2260 -0.4483  0.7004
 6818TIP3    H242014   3.205   0.459   0.252  0.3366  0.0657  2.4030
 6819TIP3   OH242015   4.974   1.480   3.045  0.1670 -0.2831 -0.2679
 6819TIP3    H142016   4.880   1.480   3.031  0.2245 -0.0451 -0.6718
 6819TIP3    H242017   4.995   1.571   3.067  0.2504 -0.4100  0.1972
 6820TIP3   OH242018   0.392   3.449   8.615  0.4689 -0.1103 -0.0431
 6820TIP3    H142019   0.410   3.379   8.552  2.7697 -0.8283  1.2745
 6820TIP3    H242020   0.479   3.479   8.642 -0.4566  2.1761  0.6360
 6821TIP3   OH242021   0.542   4.102   7.729  0.5141 -0.0288  0.0375
 6821TIP3    H142022   0.606   4.149   7.782 -1.2605  1.3033  1.1256
 6821TIP3    H242023   0.590   4.028   7.693  3.1466  1.9056 -0.7662
 6822TIP3   OH242024   1.654   1.288   0.459 -0.1131  0.2882 -0.0675
 6822TIP3    H142025   1.650   1.291   0.555  0.3477  2.3684 -0.0650
 6822TIP3    H242026   1.564   1.304   0.431  0.1293  2.0155  0.0464
 6823TIP3   OH242027   3.814   0.794   1.649  0.2112 -0.3231 -0.2401
 6823TIP3    H142028   3.884   0.825   1.707  0.6017 -2.4622  0.5281
 6823TIP3    H242029   3.765   0.873   1.626  2.6770  1.2300 -0.5730
 6824TIP3   OH242030   1.114   3.341   7.709 -0.2860 -0.0904 -0.2439
 6824TIP3    H142031   1.153   3.259   7.740 -0.0914 -0.1443 -0.6348
 6824TIP3    H242032   1.130   3.403   7.781 -0.0367 -0.2752 -0.1379
 6825TIP3   OH242033   0.352   1.080   1.030 -0.3097  0.1807  0.0908
 6825TIP3    H142034   0.347   1.174   1.047  1.0253  0.3401 -0.3044
 6825TIP3    H242035   0.361   1.041   1.117 -2.1281  0.2772  0.3762
 6826TIP3   OH242036   0.294   6.027   8.273  0.2640  0.2882  0.4557
 6826TIP3    H142037   0.231   6.023   8.345 -1.0962 -3.1925 -0.7061
 6826TIP3    H242038   0.371   5.979   8.306  0.0669 -0.3506  0.0132
 6827TIP3   OH242039   5.099   4.649   2.211 -0.0272  0.5183 -0.2171
 6827TIP3    H142040   5.033   4.585   2.184  0.6041 -0.2016 -0.1164
 6827TIP3    H242041   5.094   4.649   2.307  2.0760 -1.7840  0.0103
 6828TIP3   OH242042   4.298   1.396   1.935  0.6690  0.3162  0.1099
 6828TIP3    H142043   4.257   1.481   1.918  0.5340 -0.0019 -1.2659
 6828TIP3    H242044   4.327   1.401   2.026 -0.1813  1.4822  0.3370
 6829TIP3   OH242045   2.554   4.474   0.823  0.2785  0.2251  0.0865
 6829TIP3    H142046   2.565   4.509   0.912 -0.9637 -0.6537  0.6237
 6829TIP3    H242047   2.489   4.404   0.833  2.2113 -1.8372 -1.0401
 6830TIP3   OH242048   2.988   0.676   2.571 -0.0654  0.4258 -0.1973
 6830TIP3    H142049   3.006   0.593   2.615 -1.2386  0.2841  0.0423
 6830TIP3    H242050   2.993   0.655   2.478 -0.4888  0.0594 -0.1368
 6831TIP3   OH242051   5.959   1.894   0.839 -0.0824  0.3685  0.1354
 6831TIP3    H142052   6.038   1.862   0.882 -0.3336 -0.7527 -0.2060
 6831TIP3    H242053   5.889   1.839   0.873 -0.5355  0.5562 -0.4721
 6832TIP3   OH242054   3.066   2.042   0.107 -0.3005 -0.1190  0.2932
 6832TIP3    H142055   3.141   2.081   0.063  0.1919  0.5112  1.6401
 6832TIP3    H242056   3.087   1.948   0.112  0.3172  0.0279  0.5035
 6833TIP3   OH242057   6.202   3.844   1.735 -0.3024  0.7063  0.2607
 6833TIP3    H142058   6.285   3.878   1.768 -0.5020  0.2356  1.2758
 6833TIP3    H242059   6.166   3.916   1.682  1.9397  0.0159 -2.4240
 6834TIP3   OH242060   2.487   4.563   0.316 -0.6077 -0.1467  0.1080
 6834TIP3    H142061   2.512   4.499   0.250 -1.3879 -1.0365  0.6428
 6834TIP3    H242062   2.482   4.646   0.269  0.9128 -0.3684 -0.4933
 6835TIP3   OH242063   1.548   5.318   0.630  0.0880  0.0669 -0.5865
 6835TIP3    H142064   1.458   5.297   0.608  0.2802 -1.2602 -0.1587
 6835TIP3    H242065   1.557   5.411   0.608 -2.1148  0.9359  1.7353
 6836TIP3   OH242066   0.433   6.121   0.880  0.2507 -0.2721  0.1275
 6836TIP3    H142067   0.443   6.165   0.796 -0.8219 -2.3356 -1.1676
 6836TIP3    H242068   0.503   6.055   0.881  0.8290  0.3274  1.2961
 6837TIP3   OH242069   4.268   3.599   2.098  0.2308 -0.4309 -0.0124
 6837TIP3    H142070   4.342   3.539   2.097 -0.6288 -1.5695 -2.3029
 6837TIP3    H242071   4.302   3.681   2.063  0.8125 -0.3329  0.7509
 6838TIP3   OH242072   2.654   2.122   8.436 -0.2997  0.7089 -0.5845
 6838TIP3    H142073   2.625   2.161   8.354  0.4060  0.5407 -0.9169
 6838TIP3    H242074   2.608   2.037   8.439 -1.5395  1.3731 -0.0378
 6839TIP3   OH242075   6.650   6.185   0.448 -0.3047  0.2336 -0.6000
 6839TIP3    H142076   6.735   6.228   0.453  0.0295 -0.5512  1.7210
 6839TIP3    H242077   6.595   6.235   0.509 -0.8697 -0.5547 -0.4513
 6840TIP3   OH242078   2.769   3.737   2.788  0.2009 -0.2499 -0.1029
 6840TIP3    H142079   2.701   3.801   2.766  1.0457  0.8998  0.5177
 6840TIP3    H242080   2.721   3.663   2.826 -0.8625 -0.3634 -1.5729
 6841TIP3   OH242081   1.583   1.130   2.979 -0.4830  0.1195  0.2293
 6841TIP3    H142082   1.619   1.050   3.017 -0.6877  0.4665  1.1745
 6841TIP3    H242083   1.651   1.196   2.993 -0.9703  0.4829  0.8889
 6842TIP3   OH242084   2.791   6.711   0.827 -0.0768  0.3081  0.1406
 6842TIP3    H142085   2.787   6.798   0.787  0.7509  1.2440  1.9788
 6842TIP3    H242086   2.825   6.727   0.915 -0.2526 -1.8515  0.6430
 6843TIP3   OH242087   6.472   2.323   7.350  0.6717 -0.0649  0.5384
 6843TIP3    H142088   6.451   2.343   7.441 -0.3292 -1.7377  0.7249
 6843TIP3    H242089   6.560   2.358   7.337  0.9029  0.0465  2.2045
 6844TIP3   OH242090   2.680   5.381   0.293  0.2780  0.8571  0.2473
 6844TIP3    H142091   2.684   5.451   0.359  3.6711 -0.2417  1.4374
 6844TIP3    H242092   2.756   5.397   0.237 -0.2217 -0.5586 -0.8792
 6845TIP3   OH242093   4.241   2.177   7.716  0.0187 -0.7209 -0.4964
 6845TIP3    H142094   4.210   2.267   7.727 -1.8006 -1.4451  0.7869
 6845TIP3    H242095   4.333   2.186   7.694 -0.1211  1.4605 -0.3842
 6846TIP3   OH242096   6.660   2.326   7.883 -0.4270  0.0358  0.3499
 6846TIP3    H142097   6.624   2.266   7.949 -0.9211 -0.5391 -0.4109
 6846TIP3    H242098   6.632   2.413   7.911 -1.5966 -0.3099  0.3044
 6847TIP3   OH242099   2.394   5.624   8.159 -0.0265  0.2373  0.0851
 6847TIP3    H142100   2.426   5.714   8.153  0.0370  0.3161  1.3551
 6847TIP3    H242101   2.473   5.570   8.157 -0.1305 -0.0374 -3.3787
 6848TIP3   OH242102   5.877   5.126   7.692  0.4649  0.4555 -0.1528
 6848TIP3    H142103   5.948   5.190   7.702  0.1972  0.7794 -0.2927
 6848TIP3    H242104   5.921   5.042   7.690  0.7308  0.5369  1.2525
 6849TIP3   OH242105   3.190   2.899   1.453  0.0586 -0.2101  0.3318
 6849TIP3    H142106   3.224   2.936   1.372 -0.5573  0.3333  0.3149
 6849TIP3    H242107   3.222   2.957   1.522  0.5800 -0.6706  0.4910
 6850TIP3   OH242108   3.532   5.019   2.089 -0.4143 -0.5727  0.3752
 6850TIP3    H142109   3.483   4.946   2.053  0.1989 -0.1823 -1.3397
 6850TIP3    H242110   3.544   4.997   2.182 -0.0710 -2.7295 -0.1323
 6851TIP3   OH242111   0.632   2.528   1.416  0.1790 -0.1003 -0.8601
 6851TIP3    H142112   0.669   2.486   1.339  1.5680  0.9350 -0.7984
 6851TIP3    H242113   0.689   2.500   1.488  0.4354  0.9459 -0.6384
 6852TIP3   OH242114   2.906   2.595   7.282  0.7557 -0.0193  0.0333
 6852TIP3    H142115   2.899   2.687   7.258 -0.7850  0.0960  0.8273
 6852TIP3    H242116   3.000   2.576   7.276  1.4679  2.2823  2.2775
 6853TIP3   OH242117   3.662   2.726   7.661  0.0669  0.2391  0.2556
 6853TIP3    H142118   3.628   2.642   7.692 -0.4196  0.4256  0.2289
 6853TIP3    H242119   3.624   2.737   7.574 -1.1857  1.2451  0.9061
 6854TIP3   OH242120   5.511   1.412   7.756 -0.3411  0.0405 -0.2375
 6854TIP3    H142121   5.480   1.469   7.826  0.4459 -0.3090  0.4055
 6854TIP3    H242122   5.501   1.323   7.792  0.6838 -0.1097 -0.3061
 6855TIP3   OH242123   3.010   1.103   1.265 -0.1285 -0.2556  0.1599
 6855TIP3    H142124   3.005   1.083   1.359 -0.7638 -0.0834  0.1629
 6855TIP3    H242125   3.034   1.019   1.224 -0.4190 -0.4676  0.4171
 6856TIP3   OH242126   4.931   3.617   2.231 -0.0655 -0.7053  0.4125
 6856TIP3    H142127   5.025   3.635   2.228 -0.0546 -0.8398 -0.1854
 6856TIP3    H242128   4.892   3.698   2.261 -0.0650  0.6117 -2.7276
 6857TIP3   OH242129   4.386   5.977   2.970 -0.2148 -0.4966  0.4831
 6857TIP3    H142130   4.356   6.057   3.013  0.5755 -0.3519  0.7686
 6857TIP3    H242131   4.311   5.917   2.979 -1.2407  0.5421 -0.7130
 6858TIP3   OH242132   6.497   5.247   8.511 -0.7025 -0.0436 -0.1495
 6858TIP3    H142133   6.550   5.220   8.436 -1.0115  3.1247 -1.6692
 6858TIP3    H242134   6.528   5.334   8.533 -2.7702  0.4043  1.3384
 6859TIP3   OH242135   6.556   1.144   2.218 -0.3073 -0.1161  0.4747
 6859TIP3    H142136   6.470   1.157   2.257 -0.4063 -1.3110  0.7102
 6859TIP3    H242137   6.616   1.190   2.276 -0.6773 -0.1582  0.9000
 6860TIP3   OH242138   1.191   5.281   1.385  0.0325  0.2865 -0.0810
 6860TIP3    H142139   1.198   5.374   1.408 -0.4946  0.2336  0.3104
 6860TIP3    H242140   1.281   5.248   1.388  0.4611  1.1594 -1.8388
 6861TIP3   OH242141   0.401   1.602   0.458  0.8536 -0.4128  0.0769
 6861TIP3    H142142   0.471   1.542   0.484  0.1095 -1.0581  0.6401
 6861TIP3    H242143   0.433   1.643   0.377  2.5263  0.4545  1.1310
 6862TIP3   OH242144   4.165   6.425   3.255  0.2760  0.3927  0.2679
 6862TIP3    H142145   4.080   6.390   3.281 -0.6377  1.9716 -0.4827
 6862TIP3    H242146   4.181   6.497   3.317  1.3845 -0.2755  0.8001
 6863TIP3   OH242147   1.677   3.723   3.384  0.1660  0.0858 -0.0047
 6863TIP3    H142148   1.604   3.686   3.335  1.2549  1.0011 -2.5373
 6863TIP3    H242149   1.643   3.805   3.421 -0.5698 -0.4179  0.4590
 6864TIP3   OH242150   3.453   5.142   8.311  0.3984 -0.1868 -0.5552
 6864TIP3    H142151   3.369   5.164   8.273 -0.0958 -0.8196  0.1392
 6864TIP3    H242152   3.497   5.226   8.322 -0.3079  0.1864 -0.5422
 6865TIP3   OH242153   2.265   5.737   7.145 -0.2773 -0.5492 -0.0006
 6865TIP3    H142154   2.216   5.654   7.146 -0.5717 -0.4483 -1.9091
 6865TIP3    H242155   2.213   5.795   7.089  0.4709  0.5797  0.4348
 6866TIP3   OH242156   3.112   2.745   0.514 -0.1692  0.0448  0.0917
 6866TIP3    H142157   3.148   2.783   0.594  0.3334  0.3500 -0.2720
 6866TIP3    H242158   3.028   2.708   0.541  0.0443  0.0420  0.7812
 6867TIP3   OH242159   1.344   3.580   0.135  0.2081 -1.0440 -0.2711
 6867TIP3    H142160   1.278   3.640   0.169  0.0627 -0.8640 -0.8482
 6867TIP3    H242161   1.304   3.494   0.139  1.0249 -1.3741  2.1271
 6868TIP3   OH242162   2.370   1.602   0.410 -0.0089  0.1899 -0.1043
 6868TIP3    H142163   2.302   1.541   0.381 -0.0062 -0.3562  0.9899
 6868TIP3    H242164   2.393   1.651   0.331  0.6940 -1.8709 -1.2499
 6869TIP3   OH242165   6.051   5.600   2.737 -0.4290 -0.1534 -0.2725
 6869TIP3    H142166   5.956   5.608   2.744 -0.2892  0.5102  1.1908
 6869TIP3    H242167   6.085   5.669   2.793  0.8992 -1.4146  0.5360
 6870TIP3   OH242168   5.352   6.161   2.345  0.3575  0.0938 -0.0894
 6870TIP3    H142169   5.393   6.077   2.323 -0.5452  0.0894 -1.9243
 6870TIP3    H242170   5.337   6.156   2.440  1.1681 -1.4223 -0.0107
 6871TIP3   OH242171   1.419   2.203   1.520  0.3025  0.3961  0.1264
 6871TIP3    H142172   1.476   2.156   1.458  0.2000  0.8584 -0.3340
 6871TIP3    H242173   1.333   2.203   1.478  0.0267 -0.0433  0.6856
 6872TIP3   OH242174   5.567   1.093   8.045 -0.1642  0.3267  0.5392
 6872TIP3    H142175   5.657   1.113   8.021 -0.0652  0.0209  0.6556
 6872TIP3    H242176   5.537   1.031   7.979 -0.1198  0.0251  0.8004
 6873TIP3   OH242177   1.552   4.545   1.538  0.3982  0.1210  0.4362
 6873TIP3    H142178   1.483   4.589   1.489  1.6380  0.0324 -1.4836
 6873TIP3    H242179   1.633   4.577   1.499  1.4960  0.2649  2.6633
 6874TIP3   OH242180   0.631   4.023   1.015  0.6241 -0.1510  0.4793
 6874TIP3    H142181   0.620   4.104   1.065 -0.7571 -0.4660  0.7050
 6874TIP3    H242182   0.560   3.967   1.043  1.3407 -1.3198  0.0406
 6875TIP3   OH242183   6.219   0.086   8.208  0.1790  0.2815 -0.3674
 6875TIP3    H142184   6.269   0.060   8.285 -2.3133 -0.8703  1.0040
 6875TIP3    H242185   6.282   0.084   8.137  2.5789  1.2855  1.5827
 6876TIP3   OH242186   4.550   5.728   0.924 -0.4422 -1.0537  0.2582
 6876TIP3    H142187   4.482   5.664   0.946 -0.3933 -0.7341  1.4536
 6876TIP3    H242188   4.631   5.677   0.923 -0.1922 -0.8436  2.6446
 6877TIP3   OH242189   4.111   3.441   1.911  0.1566  0.1736  0.1606
 6877TIP3    H142190   4.134   3.480   1.996 -1.6294  2.8306 -0.4425
 6877TIP3    H242191   4.064   3.511   1.865 -1.2039 -2.0244 -2.0155
 6878TIP3   OH242192   2.847   4.763   0.941  0.6676 -0.2044  0.6598
 6878TIP3    H142193   2.840   4.761   0.845 -0.6444  1.5092  0.6572
 6878TIP3    H242194   2.887   4.848   0.960 -1.6203  0.7498  1.6486
 6879TIP3   OH242195   0.804   1.070   1.113 -0.1306 -0.3775 -0.4836
 6879TIP3    H142196   0.745   1.044   1.042  0.2884 -1.2092 -0.5412
 6879TIP3    H242197   0.749   1.072   1.191 -0.4809  0.0144 -0.7400
 6880TIP3   OH242198   1.009   5.861   0.547  0.5366 -0.1628 -0.3289
 6880TIP3    H142199   1.027   5.899   0.461  1.3035  0.5254  0.1205
 6880TIP3    H242200   0.948   5.922   0.588  1.8820  0.6982  0.4509
 6881TIP3   OH242201   4.536   1.716   0.274 -0.6224  0.1331 -0.2402
 6881TIP3    H142202   4.563   1.667   0.352 -1.5621 -1.2195 -0.7443
 6881TIP3    H242203   4.567   1.805   0.291  0.8821 -0.5463  0.8195
 6882TIP3   OH242204   3.269   6.661   0.420 -0.8082  0.4183 -0.1779
 6882TIP3    H142205   3.224   6.716   0.484 -2.1143  0.4810 -1.0844
 6882TIP3    H242206   3.346   6.712   0.394  0.2436 -0.0099  1.9515
 6883TIP3   OH242207   2.124   5.841   1.775 -0.8826 -0.3141  0.4397
 6883TIP3    H142208   2.172   5.873   1.699  0.1315 -0.9768  0.7841
 6883TIP3    H242209   2.185   5.851   1.849 -2.2572  1.4456  1.4156
 6884TIP3   OH242210   4.933   3.567   8.648  0.0450  0.0378 -0.7425
 6884TIP3    H142211   4.857   3.539   8.699  0.2368  1.4945  0.4201
 6884TIP3    H242212   4.932   3.511   8.571 -1.0168 -1.3684  0.2361
 6885TIP3   OH242213   5.553   0.090   8.414  0.4041  0.4029  0.2421
 6885TIP3    H142214   5.567   0.134   8.497  0.2388 -0.7302  0.8895
 6885TIP3    H242215   5.486   0.142   8.370  1.1373  1.5284  0.3987
 6886TIP3   OH242216   3.480   1.148   0.058  0.2033 -0.4860  0.3747
 6886TIP3    H142217   3.477   1.179   0.149  1.2244 -1.2948  0.7100
 6886TIP3    H242218   3.556   1.193   0.020  0.1998 -0.6865  0.1305
 6887TIP3   OH242219   5.850   3.921   2.506  0.2976 -0.6190 -0.4077
 6887TIP3    H142220   5.895   3.878   2.579 -0.2090  0.0617  0.3265
 6887TIP3    H242221   5.885   4.010   2.504 -1.9224  0.3890  1.0919
 6888TIP3   OH242222   2.786   5.726   7.983  0.3862 -0.2767  0.2520
 6888TIP3    H142223   2.866   5.728   8.036  0.3130 -0.1014  0.3585
 6888TIP3    H242224   2.771   5.633   7.965  1.4018 -0.2263 -0.9676
 6889TIP3   OH242225   6.414   4.471   7.795  1.1968  0.2934  0.0585
 6889TIP3    H142226   6.425   4.468   7.700  1.5177  2.6989 -0.0283
 6889TIP3    H242227   6.398   4.563   7.815 -1.0665 -0.4448  2.1396
 6890TIP3   OH242228   3.705   2.337   0.389 -0.4203 -0.3228 -0.0255
 6890TIP3    H142229   3.733   2.257   0.343  1.5997 -0.0820  0.6641
 6890TIP3    H242230   3.787   2.382   0.408 -1.4360  1.1241  1.0384
 6891TIP3   OH242231   2.510   4.714   1.961  0.2528 -0.6735  0.5361
 6891TIP3    H142232   2.455   4.638   1.940  0.3471 -0.1419 -2.0026
 6891TIP3    H242233   2.461   4.761   2.029 -1.3625 -1.3655 -0.0929
 6892TIP3   OH242234   5.434   4.799   2.063 -0.1373 -0.0384  0.5264
 6892TIP3    H142235   5.362   4.777   2.004  1.5556 -0.2271 -1.5837
 6892TIP3    H242236   5.488   4.720   2.066  0.5000  0.4071  1.3097
 6893TIP3   OH242237   3.091   5.222   3.236 -0.4564 -0.0329 -0.3859
 6893TIP3    H142238   3.051   5.183   3.159  0.4717  0.9167 -1.4002
 6893TIP3    H242239   3.022   5.276   3.276 -1.0504 -0.8373 -0.3169
 6894TIP3   OH242240   4.733   2.941   1.098  0.0955 -0.6358  0.1116
 6894TIP3    H142241   4.656   2.988   1.131 -0.4378 -0.4654 -1.3010
 6894TIP3    H242242   4.703   2.901   1.017  1.3196 -1.1657 -0.1021
 6895TIP3   OH242243   5.721   4.743   6.992  0.3653  0.5145 -0.4390
 6895TIP3    H142244   5.631   4.760   6.965  0.0781  0.1673  0.2948
 6895TIP3    H242245   5.771   4.815   6.953 -0.0782  0.2042 -1.6255
 6896TIP3   OH242246   1.061   1.286   2.604  0.2342 -0.3258  0.1372
 6896TIP3    H142247   1.143   1.239   2.619  0.7273  0.1570 -0.9242
 6896TIP3    H242248   1.064   1.360   2.665  2.3029  1.7274 -2.2038
 6897TIP3   OH242249   3.617   4.506   8.370  0.1353 -0.3564  0.2606
 6897TIP3    H142250   3.549   4.571   8.388 -0.9609 -1.4832  0.4089
 6897TIP3    H242251   3.568   4.425   8.356  1.3763 -0.8876 -1.2237
 6898TIP3   OH242252   1.240   4.330   2.480 -0.1534 -0.0553  0.0916
 6898TIP3    H142253   1.183   4.380   2.537 -0.4364 -0.6889  0.3803
 6898TIP3    H242254   1.193   4.323   2.397 -0.1927  0.0054  0.1096
 6899TIP3   OH242255   1.588   1.388   7.624 -0.2561  0.2971  0.6239
 6899TIP3    H142256   1.521   1.379   7.556 -0.7268 -0.6446  1.1998
 6899TIP3    H242257   1.655   1.324   7.600  0.1693  0.8240  0.3773
 6900TIP3   OH242258   2.342   3.665   0.572 -0.0024 -0.0597 -0.1810
 6900TIP3    H142259   2.353   3.760   0.565  0.1100 -0.1299 -1.2308
 6900TIP3    H242260   2.314   3.650   0.662 -0.4301  1.0076 -0.1254
 6901TIP3   OH242261   5.338   4.349   7.703  0.0732 -0.6852 -0.0538
 6901TIP3    H142262   5.300   4.426   7.661  0.9499 -0.1285  0.1308
 6901TIP3    H242263   5.277   4.278   7.685 -0.2176 -0.1738 -1.1543
 6902TIP3   OH242264   4.024   6.483   1.032  0.3057 -0.4960  0.5899
 6902TIP3    H142265   4.018   6.530   0.949  1.5272 -1.3562 -0.0155
 6902TIP3    H242266   4.091   6.529   1.082 -0.7487  0.2953  1.3090
 6903TIP3   OH242267   4.410   5.500   0.984  0.0687 -0.1095 -0.1386
 6903TIP3    H142268   4.325   5.543   0.970 -1.1148 -2.4368 -0.6726
 6903TIP3    H242269   4.391   5.428   1.044  1.9557  0.0506  0.7186
 6904TIP3   OH242270   0.017   0.525   8.436 -0.7396  0.2488 -0.4674
 6904TIP3    H142271  -0.032   0.552   8.358 -0.2061  0.1929 -0.8191
 6904TIP3    H242272  -0.012   0.587   8.504 -3.6000 -1.5967  0.1674
 6905TIP3   OH242273   0.480   3.516   1.137 -0.1898 -0.3292  0.3356
 6905TIP3    H142274   0.451   3.437   1.183 -0.0958 -1.6429 -1.7132
 6905TIP3    H242275   0.551   3.551   1.191 -0.5541 -1.3660  1.5411
 6906TIP3   OH242276   3.712   5.741   0.529  0.1409 -0.2366 -0.5630
 6906TIP3    H142277   3.694   5.721   0.438  0.5935  1.0064 -0.9449
 6906TIP3    H242278   3.691   5.660   0.576  1.8117 -1.5751 -1.9793
 6907TIP3   OH242279   0.134   3.075   1.067  0.3310 -0.3139 -0.2847
 6907TIP3    H142280   0.098   3.153   1.111  0.8789 -1.0788  1.6190
 6907TIP3    H242281   0.069   3.007   1.085  1.0124 -0.8563  0.1504
 6908TIP3   OH242282   1.503   6.715   0.650 -0.2070 -0.6701  0.0064
 6908TIP3    H142283   1.532   6.634   0.693  0.3507 -0.4942 -0.0314
 6908TIP3    H242284   1.462   6.685   0.569 -1.5651 -1.0310  0.7796
 6909TIP3   OH242285   2.973   2.793   7.724  0.1401  0.1298 -0.0042
 6909TIP3    H142286   3.066   2.792   7.749  0.1202 -0.7308  0.0475
 6909TIP3    H242287   2.963   2.874   7.674  1.1197 -0.2034 -0.7796
 6910TIP3   OH242288   4.224   1.879   8.213 -0.1716 -0.1410 -0.1713
 6910TIP3    H142289   4.160   1.913   8.275  0.1143 -0.4830  0.3121
 6910TIP3    H242290   4.271   1.956   8.182  0.4808 -0.0754  0.9266
 6911TIP3   OH242291   5.848   2.235   7.610  0.2313 -0.4375  0.0933
 6911TIP3    H142292   5.789   2.178   7.560 -1.0579  0.4479  0.5581
 6911TIP3    H242293   5.825   2.323   7.583  1.8781 -0.0889 -0.2534
 6912TIP3   OH242294   3.854   3.291   0.904  0.3438 -0.1281  0.1702
 6912TIP3    H142295   3.794   3.222   0.877  0.1585 -0.1968  0.7543
 6912TIP3    H242296   3.940   3.249   0.904  0.2776 -0.2628  0.1859
 6913TIP3   OH242297   3.706   3.040   7.653  0.2668 -0.4294  0.5082
 6913TIP3    H142298   3.657   2.959   7.668 -0.9719  0.6981  3.0620
 6913TIP3    H242299   3.749   3.026   7.569 -1.7876 -2.8022 -0.2795
 6914TIP3   OH242300   2.048   3.456   1.122  0.3776  0.6214 -0.2208
 6914TIP3    H142301   2.017   3.365   1.113  0.1561  0.7797 -1.2049
 6914TIP3    H242302   1.969   3.509   1.108  0.5220  0.9760  0.2812
 6915TIP3   OH242303   3.996   3.256   8.539 -0.1905  0.1512  0.1127
 6915TIP3    H142304   4.026   3.324   8.599  1.4839 -0.1058 -0.3806
 6915TIP3    H242305   3.986   3.301   8.455 -1.6118  0.3089  0.3396
 6916TIP3   OH242306   2.709   0.600   7.505 -0.1061  0.1671  0.1959
 6916TIP3    H142307   2.638   0.538   7.485 -0.9706  1.0701  0.4175
 6916TIP3    H242308   2.665   0.676   7.543  0.8645  1.2006 -0.6676
 6917TIP3   OH242309   0.420   1.550   1.854  0.3849 -0.7478  0.3644
 6917TIP3    H142310   0.456   1.622   1.803 -1.4242  0.3285  0.5017
 6917TIP3    H242311   0.381   1.592   1.930 -0.4327 -1.9023  0.6148
 6918TIP3   OH242312   0.514   6.138   2.316 -0.3243 -0.7064  0.4939
 6918TIP3    H142313   0.471   6.166   2.235  0.1219  0.5425  0.6700
 6918TIP3    H242314   0.520   6.217   2.369  1.7226 -0.9440  0.6782
 6919TIP3   OH242315   6.486   5.267   2.230  0.1670 -0.5617  0.6691
 6919TIP3    H142316   6.521   5.344   2.276  0.8027 -0.7901  0.5777
 6919TIP3    H242317   6.394   5.289   2.215  0.8792  1.2831 -1.5699
 6920TIP3   OH242318   2.160   4.339   2.739 -0.0394 -0.0334  0.0978
 6920TIP3    H142319   2.208   4.373   2.815 -0.6194  2.5892 -0.5889
 6920TIP3    H242320   2.079   4.389   2.738 -0.4346 -0.6401 -1.7418
 6921TIP3   OH242321   4.456   6.161   0.788  0.1687  0.3065  0.2751
 6921TIP3    H142322   4.514   6.171   0.864 -0.2839  2.1000  0.4180
 6921TIP3    H242323   4.477   6.074   0.753  1.5653  0.1374  1.4562
 6922TIP3   OH242324   2.012   1.116   7.117  0.0296  0.0170 -0.1672
 6922TIP3    H142325   1.984   1.137   7.027 -0.2471  1.1329  0.1635
 6922TIP3    H242326   2.079   1.183   7.137  1.8900 -1.6751 -0.3951
 6923TIP3   OH242327   4.539   0.495   7.199  0.4266  0.5717  0.5832
 6923TIP3    H142328   4.501   0.541   7.124  0.4529  0.1201  0.2914
 6923TIP3    H242329   4.514   0.549   7.275  0.0417  0.8059  0.2954
 6924TIP3   OH242330   4.065   2.494   1.167  0.5727 -0.3181  0.0058
 6924TIP3    H142331   4.157   2.486   1.190  0.3816 -0.8785  0.6051
 6924TIP3    H242332   4.062   2.566   1.104  1.6806 -1.5661 -1.5385
 6925TIP3   OH242333   5.268   5.427   2.004 -0.5897 -0.2540  0.1686
 6925TIP3    H142334   5.230   5.443   1.918 -0.0151 -2.4903 -0.5606
 6925TIP3    H242335   5.223   5.349   2.037  0.8788 -0.8897  0.7983
 6926TIP3   OH242336   4.364   0.984   0.774 -0.4206  0.3068 -0.2514
 6926TIP3    H142337   4.314   1.063   0.754 -1.6839 -0.4406 -0.1697
 6926TIP3    H242338   4.379   0.988   0.869 -1.9999 -0.3741  0.0524
 6927TIP3   OH242339   5.575   3.256   2.874  0.3610 -0.4086  0.0788
 6927TIP3    H142340   5.604   3.328   2.930 -1.6555  0.6050 -0.0647
 6927TIP3    H242341   5.495   3.224   2.916  0.9675 -2.3081 -0.1147
 6928TIP3   OH242342   3.493   2.560   7.889 -0.7591  0.5689 -0.4010
 6928TIP3    H142343   3.495   2.508   7.808  0.0276 -3.0028  1.7055
 6928TIP3    H242344   3.424   2.520   7.941 -0.1739  1.7252  1.3379
 6929TIP3   OH242345   1.473   3.705   7.847  0.4896  0.4902 -0.5085
 6929TIP3    H142346   1.488   3.668   7.760 -0.2382 -2.1296  0.3891
 6929TIP3    H242347   1.560   3.736   7.874  1.4914 -1.7354 -0.8924
 6930TIP3   OH242348   2.954   2.061   1.498  0.5401 -0.4106 -0.3982
 6930TIP3    H142349   2.891   2.117   1.453  0.4006 -0.7661 -0.6409
 6930TIP3    H242350   2.905   2.025   1.572  1.1859  1.4183  1.0160
 6931TIP3   OH242351   3.476   5.372   0.753  0.3246  0.3110 -0.1015
 6931TIP3    H142352   3.492   5.341   0.664 -2.2473  0.2550 -0.6032
 6931TIP3    H242353   3.446   5.462   0.743  0.9475  0.6443  0.8144
 6932TIP3   OH242354   1.156   6.704   2.873  0.5308 -0.1147  0.3303
 6932TIP3    H142355   1.068   6.707   2.836  1.1814 -0.5276 -1.3736
 6932TIP3    H242356   1.166   6.614   2.906  0.0467  0.1651  1.2417
 6933TIP3   OH242357   4.662   3.470   8.224 -0.4011 -0.0286  0.1356
 6933TIP3    H142358   4.566   3.477   8.226 -0.3483  1.0784 -0.2082
 6933TIP3    H242359   4.679   3.385   8.183 -1.2483  0.2618 -0.8772
 6934TIP3   OH242360   5.317   0.056   1.041 -0.3657 -0.0563 -0.5885
 6934TIP3    H142361   5.259   0.060   1.117 -0.9917  1.3491 -1.0892
 6934TIP3    H242362   5.342  -0.036   1.033 -1.3531 -0.4368  0.5196
 6935TIP3   OH242363   2.263   0.880   0.866 -0.2636  0.0725 -0.5374
 6935TIP3    H142364   2.216   0.798   0.848  0.3587 -1.1121  2.7065
 6935TIP3    H242365   2.355   0.859   0.848 -0.1234  0.1031  0.1354
 6936TIP3   OH242366   3.565   4.092   8.456 -0.2544 -0.3547  0.2697
 6936TIP3    H142367   3.514   4.163   8.418 -0.0558 -0.3255  0.0554
 6936TIP3    H242368   3.532   4.013   8.413 -0.2043 -0.3488  0.2204
 6937TIP3   OH242369   5.864   2.478   7.180  0.4476 -0.1531  0.2183
 6937TIP3    H142370   5.932   2.542   7.159 -2.3985  3.1613  0.0398
 6937TIP3    H242371   5.831   2.450   7.095  0.9056 -1.0118  0.3110
 6938TIP3   OH242372   0.845   0.858   1.993 -0.7004  0.8206  1.0013
 6938TIP3    H142373   0.880   0.769   1.995 -2.0189  0.2050 -0.8662
 6938TIP3    H242374   0.918   0.913   2.021 -0.0027 -0.8477  2.7092
 6939TIP3   OH242375   5.191   3.913   1.830 -0.2776  0.3333  0.2313
 6939TIP3    H142376   5.159   3.992   1.787  0.2399  0.7030  0.5197
 6939TIP3    H242377   5.112   3.870   1.864 -0.7538 -0.2293 -1.5070
 6940TIP3   OH242378   6.151   6.112   2.456  0.2097  0.3458  0.1963
 6940TIP3    H142379   6.201   6.193   2.444 -0.5270  0.6331 -1.0716
 6940TIP3    H242380   6.094   6.129   2.531 -0.6759  1.3823 -0.6953
 6941TIP3   OH242381   5.680   0.194   7.712  1.0150  0.3458 -0.6893
 6941TIP3    H142382   5.601   0.208   7.659 -0.2051 -1.4409  0.5385
 6941TIP3    H242383   5.666   0.250   7.789  1.5491  0.9565 -1.0278
 6942TIP3   OH242384   5.920   2.771   1.532 -0.5031  0.6264  0.1346
 6942TIP3    H142385   5.895   2.844   1.475 -1.3635 -0.4890 -0.9714
 6942TIP3    H242386   6.010   2.750   1.507 -1.4919 -1.1499 -2.3568
 6943TIP3   OH242387   1.031   3.612   2.407  0.3247 -0.0314 -0.1078
 6943TIP3    H142388   1.126   3.613   2.413  0.3668  0.6196 -0.7965
 6943TIP3    H242389   1.013   3.613   2.313 -0.3602 -0.6704  0.0036
 6944TIP3   OH242390   1.117   1.085   8.692  1.1084  0.1743  0.5969
 6944TIP3    H142391   1.147   0.995   8.696  0.2642 -0.2937 -1.6922
 6944TIP3    H242392   1.021   1.078   8.700  0.9639  0.7500 -0.4986
 6945TIP3   OH242393   0.961   2.630   1.665  0.3966  0.1302  0.5840
 6945TIP3    H142394   0.952   2.672   1.579  0.4188  2.0889  1.4937
 6945TIP3    H242395   0.913   2.548   1.657 -0.7367  0.8946 -0.8997
 6946TIP3   OH242396   6.664   5.476   1.543  0.3963 -0.1353  0.9408
 6946TIP3    H142397   6.614   5.440   1.470 -0.6067  2.0600  0.4774
 6946TIP3    H242398   6.751   5.493   1.506 -0.6086  2.6485 -0.3570
 6947TIP3   OH242399   3.784   5.424   7.693 -0.3499  0.0044  0.1491
 6947TIP3    H142400   3.721   5.363   7.732 -1.2831  0.6799 -0.2568
 6947TIP3    H242401   3.829   5.371   7.626 -1.7309 -0.0644 -0.7824
 6948TIP3   OH242402   5.043   0.153   8.202 -0.4015 -0.3142  0.0794
 6948TIP3    H142403   4.978   0.097   8.245 -0.3916 -0.1832  0.2664
 6948TIP3    H242404   5.104   0.092   8.160 -0.3920 -0.4424  0.2796
 6949TIP3   OH242405   2.004   3.301   2.823 -0.3267  0.1050 -0.4338
 6949TIP3    H142406   2.055   3.233   2.779 -1.2791 -0.7500 -0.2687
 6949TIP3    H242407   1.913   3.270   2.818 -0.5948  0.5397  1.1073
 6950TIP3   OH242408   4.950   0.468   1.884  0.2808  0.2058  0.5739
 6950TIP3    H142409   4.977   0.424   1.965  1.3462 -1.3043 -0.5355
 6950TIP3    H242410   5.030   0.511   1.852 -0.1922  1.0060  0.4390
 6951TIP3   OH242411   5.127   0.548   8.222 -0.3377 -0.2736  0.6358
 6951TIP3    H142412   5.203   0.566   8.167 -1.3935  2.9612  0.0215
 6951TIP3    H242413   5.152   0.582   8.308 -0.5144 -0.6902  0.8511
 6952TIP3   OH242414   0.596   6.699   0.199 -0.1955  0.3089  0.2328
 6952TIP3    H142415   0.536   6.625   0.211  1.1887 -0.7515  0.9315
 6952TIP3    H242416   0.613   6.730   0.288 -0.3834  1.1654 -0.0258
 6953TIP3   OH242417   3.654   2.118   7.489  0.3709  0.7521 -0.8734
 6953TIP3    H142418   3.606   2.083   7.414 -0.5488 -1.2393  0.5581
 6953TIP3    H242419   3.617   2.205   7.503 -0.9561  0.3027 -1.4298
 6954TIP3   OH242420   3.770   1.111   8.016 -0.5089 -0.7054 -0.6045
 6954TIP3    H142421   3.678   1.098   7.992  0.0652 -2.7411 -2.0047
 6954TIP3    H242422   3.807   1.161   7.943 -0.9519  2.3811  1.1110
 6955TIP3   OH242423   4.378   4.238   0.552  0.5001 -0.2686  0.3525
 6955TIP3    H142424   4.369   4.309   0.615  2.1478  0.7974 -0.5394
 6955TIP3    H242425   4.467   4.205   0.566  0.3423 -1.0356 -0.3739
 6956TIP3   OH242426   5.790   3.788   8.496 -0.2207  0.6278  0.1887
 6956TIP3    H142427   5.708   3.788   8.545 -0.5085 -0.2764 -0.2780
 6956TIP3    H242428   5.768   3.748   8.412  0.5047  1.1808 -0.2874
 6957TIP3   OH242429   2.751   3.222   1.465 -0.4052 -0.0337 -0.0282
 6957TIP3    H142430   2.766   3.193   1.555 -0.7818  1.7624  0.6519
 6957TIP3    H242431   2.666   3.185   1.441 -1.8072  1.9508  1.5113
 6958TIP3   OH242432   5.784   5.057   1.340  0.6322  0.2015 -0.1512
 6958TIP3    H142433   5.784   5.034   1.247  0.9126  0.3438 -0.1901
 6958TIP3    H242434   5.801   4.975   1.385  0.2160  0.0826 -0.2118
 6959TIP3   OH242435   3.571   2.747   7.412 -0.7589  0.2894 -0.3191
 6959TIP3    H142436   3.586   2.681   7.345 -0.4441  0.5177 -0.4767
 6959TIP3    H242437   3.551   2.827   7.362 -0.6686  0.4245 -0.1399
 6960TIP3   OH242438   2.924   1.224   8.559  0.1375  0.5699  0.1999
 6960TIP3    H142439   2.964   1.160   8.617 -0.5783  1.8920  2.2619
 6960TIP3    H242440   2.995   1.284   8.537  0.7877 -0.7862 -1.6638
 6961TIP3   OH242441   4.433   2.819   1.498 -0.5219  0.3439  0.4689
 6961TIP3    H142442   4.486   2.899   1.496 -0.6294  0.4241 -1.9685
 6961TIP3    H242443   4.480   2.757   1.441 -2.0752 -0.2072 -0.2721
 6962TIP3   OH242444   5.285   0.155   0.119 -0.2951  0.2713 -0.5221
 6962TIP3    H142445   5.247   0.243   0.120  0.5196  0.6243  0.6350
 6962TIP3    H242446   5.367   0.163   0.168 -0.3027 -1.1773 -0.2249
 6963TIP3   OH242447   2.033   4.132   7.666  0.0261  0.6553  0.1890
 6963TIP3    H142448   2.116   4.138   7.713 -0.4511  0.5768  1.0647
 6963TIP3    H242449   2.038   4.049   7.619  0.5848  0.8215 -0.0591
 6964TIP3   OH242450   6.438   1.877   1.478  0.0449 -0.0297  0.1002
 6964TIP3    H142451   6.466   1.939   1.545 -2.2846 -0.7106  1.8424
 6964TIP3    H242452   6.345   1.863   1.496 -1.0827  0.7080 -4.0806
 6965TIP3   OH242453   1.967   6.068   0.731 -0.2804  0.5634  0.0277
 6965TIP3    H142454   1.935   5.978   0.745 -0.0857  0.5986  0.7309
 6965TIP3    H242455   1.972   6.077   0.636  2.4406 -1.1564 -0.0971
 6966TIP3   OH242456   0.023   0.557   0.223 -0.7711 -0.1912 -0.6497
 6966TIP3    H142457   0.041   0.586   0.134 -1.5090 -0.1500 -0.7961
 6966TIP3    H242458  -0.039   0.484   0.212  1.5282 -2.3280 -0.3314
 6967TIP3   OH242459   2.049   0.291   8.672 -0.1597 -0.6569  0.3012
 6967TIP3    H142460   1.986   0.362   8.677  1.3414  0.6918  1.1385
 6967TIP3    H242461   2.006   0.224   8.619 -1.0403  1.4807 -1.8347
 6968TIP3   OH242462   5.193   2.832   1.386  0.3517  0.2044 -0.2865
 6968TIP3    H142463   5.124   2.855   1.448  0.4768  0.5134 -0.2617
 6968TIP3    H242464   5.265   2.801   1.440 -0.1787 -1.2410 -0.3629
 6969TIP3   OH242465   3.603   3.495   7.608 -0.3964 -0.3461 -0.5934
 6969TIP3    H142466   3.631   3.435   7.677 -0.5338 -2.1526 -2.0250
 6969TIP3    H242467   3.630   3.582   7.638  0.9382 -1.2615  0.9791
 6970TIP3   OH242468   0.245   1.903   0.364 -0.2549 -0.4311  0.6319
 6970TIP3    H142469   0.305   1.828   0.366  1.3949  0.8252  2.4314
 6970TIP3    H242470   0.274   1.955   0.289  0.8658  0.0479  1.3525
 6971TIP3   OH242471   4.907   1.286   0.576 -0.3819  0.2523  0.2264
 6971TIP3    H142472   4.858   1.284   0.658  0.3520  1.9835  0.7637
 6971TIP3    H242473   4.984   1.231   0.592 -0.9259 -0.5185  0.2170
 6972TIP3   OH242474   4.809   5.627   7.044  0.1398  0.3905 -0.3643
 6972TIP3    H142475   4.753   5.584   6.979  0.0825  2.0451 -1.4904
 6972TIP3    H242476   4.898   5.612   7.012  0.1536  0.5053 -0.3821
 6973TIP3   OH242477   4.138   3.085   0.434  0.0747 -0.0030  0.0789
 6973TIP3    H142478   4.072   3.149   0.460 -0.5848 -1.0036  0.9434
 6973TIP3    H242479   4.130   3.080   0.338 -1.6301 -0.6296  0.2165
 6974TIP3   OH242480   1.977   1.504   2.895 -0.3229 -0.0947  0.2420
 6974TIP3    H142481   2.051   1.443   2.903  0.0903  0.5478  1.7376
 6974TIP3    H242482   2.016   1.585   2.863 -0.5239 -0.0043  0.2245
 6975TIP3   OH242483   3.815   5.644   8.255 -0.1777  0.1782  0.5272
 6975TIP3    H142484   3.778   5.565   8.215 -1.7743  0.4111  1.4604
 6975TIP3    H242485   3.883   5.612   8.314 -0.0398 -0.4084  0.0581
 6976TIP3   OH242486   6.089   5.061   0.422 -0.0299 -0.5698 -0.1903
 6976TIP3    H142487   6.132   5.090   0.342 -0.3951 -0.2267 -0.2643
 6976TIP3    H242488   6.011   5.014   0.392  0.5460 -1.6197 -0.0700
 6977TIP3   OH242489   6.342   2.631   2.495 -0.0216  0.2046  0.0318
 6977TIP3    H142490   6.267   2.584   2.531  0.7995 -1.9303 -0.8619
 6977TIP3    H242491   6.373   2.686   2.567 -2.4647  1.2604  0.3859
 6978TIP3   OH242492   1.461   1.797   0.725  0.5051 -0.4556  0.4380
 6978TIP3    H142493   1.517   1.843   0.663 -0.0736 -1.8364 -1.2253
 6978TIP3    H242494   1.501   1.811   0.810  2.2533  0.2106 -0.4538
 6979TIP3   OH242495   3.839   4.449   0.334  0.2535  0.0210 -0.1219
 6979TIP3    H142496   3.878   4.536   0.328 -3.2910  1.8385  0.7300
 6979TIP3    H242497   3.762   4.460   0.390  0.5826 -4.0913  1.5368
 6980TIP3   OH242498   6.768   0.213   8.233 -0.1554  0.0942 -0.2769
 6980TIP3    H142499   6.726   0.177   8.311  2.1058 -0.8874  0.5670
 6980TIP3    H242500   6.721   0.295   8.216 -1.7341 -0.4699  1.1294
 6981TIP3   OH242501   2.101   6.707   6.945  0.0559  0.4612 -0.3111
 6981TIP3    H142502   2.164   6.767   6.905  0.2088 -0.6186 -1.7680
 6981TIP3    H242503   2.126   6.621   6.912  0.8808 -0.7211  3.0183
 6982TIP3   OH242504   0.099   4.366   8.475 -0.0375  0.8448  0.2259
 6982TIP3    H142505   0.171   4.302   8.479 -2.0213 -1.5114  0.7668
 6982TIP3    H242506   0.087   4.394   8.566 -1.5299 -0.9686  0.6687
 6983TIP3   OH242507   1.255   5.543   1.043 -0.2631 -0.8081  0.6971
 6983TIP3    H142508   1.196   5.472   1.068  0.6676 -1.3825  1.3525
 6983TIP3    H242509   1.308   5.506   0.972  0.6640 -1.0156  1.4773
 6984TIP3   OH242510   1.743   1.265   1.909  0.1148  0.1056 -0.2734
 6984TIP3    H142511   1.686   1.194   1.938 -0.8653  0.9611 -0.0591
 6984TIP3    H242512   1.832   1.234   1.928 -0.3214 -0.8659  0.2391
 6985TIP3   OH242513   4.581   0.968   1.656 -0.0292  0.9032 -1.0543
 6985TIP3    H142514   4.526   0.894   1.680 -0.6386  1.4840 -0.6415
 6985TIP3    H242515   4.657   0.961   1.715  0.7761 -0.3739 -2.1853
 6986TIP3   OH242516   1.106   6.762   7.844 -0.6138  0.2249 -0.0964
 6986TIP3    H142517   1.170   6.825   7.810 -0.8083 -0.2029 -1.3181
 6986TIP3    H242518   1.027   6.814   7.858 -1.2407  0.0379 -2.5279
 6987TIP3   OH242519   0.410   1.660   8.183 -0.5089 -0.0947 -0.3988
 6987TIP3    H142520   0.448   1.699   8.105 -0.7139  0.5487 -0.1791
 6987TIP3    H242521   0.437   1.568   8.179  1.9756  0.5474  0.3200
 6988TIP3   OH242522   2.953   3.010   1.956 -0.1730 -0.1152 -0.3906
 6988TIP3    H142523   2.867   3.016   1.998  0.4829 -1.6027  1.2781
 6988TIP3    H242524   3.014   3.045   2.021  0.7472 -1.4031 -0.5201
 6989TIP3   OH242525   0.520   0.379   1.427 -0.0093  0.4585  0.4184
 6989TIP3    H142526   0.505   0.456   1.483 -0.9908  0.8170 -0.2950
 6989TIP3    H242527   0.604   0.345   1.456 -0.9898 -0.0863  2.9272
 6990TIP3   OH242528   3.170   4.829   1.963  0.4888  0.1692 -0.7254
 6990TIP3    H142529   3.081   4.862   1.961 -0.1485 -1.2182  1.6647
 6990TIP3    H242530   3.199   4.841   2.053  1.9403 -1.3169 -0.9340
 6991TIP3   OH242531   1.561   5.024   0.035 -0.0383 -0.1632 -0.2125
 6991TIP3    H142532   1.611   5.015  -0.047 -0.9490 -1.4261 -0.6538
 6991TIP3    H242533   1.472   5.046   0.007 -0.8467 -2.5051  0.2745
 6992TIP3   OH242534   1.782   3.293   1.941  0.0790 -0.0320  0.0806
 6992TIP3    H142535   1.696   3.256   1.960  0.1104 -0.4777 -0.6344
 6992TIP3    H242536   1.844   3.233   1.981  0.0361  1.1359  2.0259
 6993TIP3   OH242537   3.949   4.059   7.977  0.2318 -0.0689 -0.0797
 6993TIP3    H142538   3.853   4.061   7.985  0.0705  0.1241 -1.7145
 6993TIP3    H242539   3.979   4.024   8.060 -1.3031 -0.7633  0.2159
 6994TIP3   OH242540   5.263   6.779   7.171 -0.1311 -0.0519  0.2735
 6994TIP3    H142541   5.218   6.863   7.161 -0.3651 -0.2229 -0.1287
 6994TIP3    H242542   5.283   6.751   7.081  1.0955  0.1869  0.4596
 6995TIP3   OH242543   2.469   4.872   0.409 -0.0915 -0.4979 -0.2150
 6995TIP3    H142544   2.456   4.781   0.382  0.7413 -0.5320 -0.5401
 6995TIP3    H242545   2.452   4.923   0.330 -1.5735 -0.2671  0.2144
 6996TIP3   OH242546   0.512   2.590   7.285 -0.0864 -0.4582  0.2519
 6996TIP3    H142547   0.471   2.656   7.342 -2.2789 -1.5983  0.1063
 6996TIP3    H242548   0.477   2.609   7.198  1.3940 -0.1909 -0.3116
 6997TIP3   OH242549   4.649   2.022   1.807 -0.7363 -0.1490 -0.7796
 6997TIP3    H142550   4.593   1.952   1.772 -1.4294  0.4552 -0.8996
 6997TIP3    H242551   4.590   2.095   1.821 -0.1779  0.1335  0.1841
 6998TIP3   OH242552   1.472   4.204   2.567 -0.6062 -0.4337 -0.1110
 6998TIP3    H142553   1.459   4.190   2.660  1.3754  2.4822  0.7452
 6998TIP3    H242554   1.397   4.256   2.540  0.2754  1.2886  0.6285
 6999TIP3   OH242555   1.666   1.533   2.787  0.4686  0.0751 -0.0210
 6999TIP3    H142556   1.756   1.504   2.801 -0.0058 -1.6882 -0.3902
 6999TIP3    H242557   1.664   1.622   2.821  1.8150 -0.5913  1.9785
 7000TIP3   OH242558   4.164   2.789   7.160 -0.3210 -0.3011 -0.3146
 7000TIP3    H142559   4.168   2.736   7.080 -1.8739 -0.7906 -0.1004
 7000TIP3    H242560   4.083   2.762   7.202 -1.6463  2.8207 -0.5982
 7001TIP3   OH242561   6.386   4.045   1.843  0.1784 -0.4967  0.2893
 7001TIP3    H142562   6.460   4.105   1.833  0.6375 -1.1180 -0.1149
 7001TIP3    H242563   6.367   4.046   1.937 -1.2163  1.9161  0.0573
 7002TIP3   OH242564   0.691   5.345   8.054  0.8777  0.0861 -0.5069
 7002TIP3    H142565   0.632   5.363   7.981  0.2730  1.2483  0.2458
 7002TIP3    H242566   0.632   5.320   8.126  1.4070 -0.1310 -0.1449
 7003TIP3   OH242567   2.733   1.911   7.647  0.3314  0.0621  0.2660
 7003TIP3    H142568   2.693   1.998   7.644 -1.0301 -0.5516 -0.8795
 7003TIP3    H242569   2.814   1.920   7.597 -0.6686  0.2997 -1.3941
 7004TIP3   OH242570   1.361   1.430   1.062  0.7917 -0.5670  0.2548
 7004TIP3    H142571   1.268   1.410   1.069  0.7265 -0.3904 -0.0714
 7004TIP3    H242572   1.373   1.509   1.115  1.0572 -1.4538  1.5771
 7005TIP3   OH242573   2.242   3.600   1.632 -0.1586  0.5937 -0.3162
 7005TIP3    H142574   2.322   3.549   1.640  0.0051  0.9867  0.7706
 7005TIP3    H242575   2.190   3.554   1.566  0.5969 -0.1455 -0.4037
 7006TIP3   OH242576   4.776   5.867   2.443 -0.0027 -0.0045  0.4849
 7006TIP3    H142577   4.725   5.931   2.494  0.0776 -0.2689  0.9030
 7006TIP3    H242578   4.710   5.809   2.406 -0.1348  0.7368 -0.5036
 7007TIP3   OH242579   6.834   4.293   1.184 -0.0494 -0.0378  0.0855
 7007TIP3    H142580   6.750   4.336   1.168  0.2723  0.3382 -0.6010
 7007TIP3    H242581   6.894   4.365   1.207  0.1572 -0.2738  0.2957
 7008TIP3   OH242582   0.189   3.436   1.815  0.1235 -0.4454 -0.1499
 7008TIP3    H142583   0.195   3.349   1.776  0.6577 -0.2740 -0.4577
 7008TIP3    H242584   0.161   3.493   1.744  0.4497 -0.2509 -0.1284
 7009TIP3   OH242585   0.889   4.285   1.768  0.1147  0.0006  0.4843
 7009TIP3    H142586   0.833   4.209   1.752 -2.6558  2.1277 -0.7413
 7009TIP3    H242587   0.891   4.332   1.685 -0.2461  2.4649  1.7784
 7010TIP3   OH242588   1.051   4.384   8.357 -0.1623  0.8471 -0.0248
 7010TIP3    H142589   1.016   4.456   8.410 -0.4395  1.9102 -1.5613
 7010TIP3    H242590   1.010   4.396   8.271 -0.8517 -1.6837 -0.1160
 7011TIP3   OH242591   6.249   1.085   2.021 -0.2481 -0.1574  0.3129
 7011TIP3    H142592   6.180   1.145   1.991  1.3170  0.7174 -1.8179
 7011TIP3    H242593   6.313   1.142   2.065  0.8116 -0.3194 -0.9366
 7012TIP3   OH242594   3.649   6.352   2.560  0.6104 -0.3354 -0.1320
 7012TIP3    H142595   3.705   6.275   2.545 -0.3777 -1.1475  0.2734
 7012TIP3    H242596   3.562   6.316   2.572 -0.2068  0.9864 -1.7269
 7013TIP3   OH242597   4.630   5.975   7.763 -0.4462  0.0176  0.0442
 7013TIP3    H142598   4.593   5.917   7.829 -2.4608  0.2518 -0.8327
 7013TIP3    H242599   4.679   5.917   7.705  2.9874 -0.0225  2.6145
 7014TIP3   OH242600   3.271   6.039   2.371  0.1309  0.1223  0.0370
 7014TIP3    H142601   3.311   6.021   2.456 -0.7115 -0.7045  0.2828
 7014TIP3    H242602   3.262   6.134   2.368  2.8414  0.4488 -0.3923
 7015TIP3   OH242603   3.753   4.626   8.114  0.2478 -0.4436 -0.7850
 7015TIP3    H142604   3.715   4.563   8.176 -0.0910  0.2179 -0.2947
 7015TIP3    H242605   3.682   4.689   8.099  1.1733  0.9287  0.2917
 7016TIP3   OH242606   5.297   0.043   1.933  0.1822 -0.3402 -0.1891
 7016TIP3    H142607   5.361  -0.018   1.970  0.8369 -0.2210 -1.0943
 7016TIP3    H242608   5.243  -0.011   1.875 -0.3278 -0.3760  0.3141
 7017TIP3   OH242609   4.696   4.713   8.290  0.5224 -0.3665  0.1829
 7017TIP3    H142610   4.711   4.656   8.365 -0.5822 -0.4219  0.3724
 7017TIP3    H242611   4.612   4.685   8.254 -0.8003  2.0196  1.1294
 7018TIP3   OH242612   2.545   0.320   1.559 -0.2756 -0.1098  0.0485
 7018TIP3    H142613   2.632   0.324   1.518 -0.5746 -0.3027 -0.6242
 7018TIP3    H242614   2.549   0.244   1.617 -0.3968 -0.9021 -0.9565
 7019TIP3   OH242615   4.780   1.256   2.227  0.1437  0.2017 -0.0884
 7019TIP3    H142616   4.842   1.313   2.181 -0.4257  0.8841 -0.0419
 7019TIP3    H242617   4.830   1.221   2.301  0.8711 -0.3776 -0.8429
 7020TIP3   OH242618   5.601   4.347   0.301 -0.1597  0.0926 -0.6200
 7020TIP3    H142619   5.592   4.312   0.390  1.8788  0.6617 -0.1290
 7020TIP3    H242620   5.542   4.293   0.248 -1.5976 -0.1142  1.0910
 7021TIP3   OH242621   1.319   1.158   7.719  0.3104 -0.0086 -0.2147
 7021TIP3    H142622   1.310   1.233   7.660 -2.2656 -0.5186 -0.5941
 7021TIP3    H242623   1.258   1.093   7.685  0.1096 -1.0460  1.9324
 7022TIP3   OH242624   3.791   0.806   1.290 -0.8961  0.5005 -0.0764
 7022TIP3    H142625   3.881   0.837   1.298 -0.8921  0.2903  0.7796
 7022TIP3    H242626   3.771   0.814   1.197  0.0266  0.4952 -0.2821
 7023TIP3   OH242627   3.097   1.086   0.351  0.1291 -0.1906  0.2404
 7023TIP3    H142628   3.059   1.137   0.279 -1.2979 -0.9723  0.4140
 7023TIP3    H242629   3.158   1.026   0.309 -1.2458 -1.1650 -0.4526
 7024TIP3   OH242630   6.090   5.471   0.660  0.0888  0.3175 -0.0792
 7024TIP3    H142631   6.016   5.479   0.720 -2.0910  0.8037 -2.6073
 7024TIP3    H242632   6.052   5.488   0.573  2.7776 -1.4307 -1.7618
 7025TIP3   OH242633   5.659   3.183   0.664  0.3999 -0.1657  0.0881
 7025TIP3    H142634   5.645   3.266   0.711  1.6946  0.0735  0.0875
 7025TIP3    H242635   5.605   3.120   0.711  0.1744  0.4715  0.7075
 7026TIP3   OH242636   5.795   4.875   1.757  0.6366  0.1096 -0.8527
 7026TIP3    H142637   5.718   4.929   1.738 -0.4976 -1.2498 -0.2833
 7026TIP3    H242638   5.760   4.797   1.800  2.4329 -0.1494  0.2420
 7027TIP3   OH242639   0.128   6.824   7.575 -0.3442 -0.9126 -0.1317
 7027TIP3    H142640   0.212   6.842   7.617 -0.6728  0.4435 -0.0148
 7027TIP3    H242641   0.140   6.852   7.484 -1.2256  1.1054  0.3291
 7028TIP3   OH242642   3.451   1.629   0.814 -0.4838  0.2092  0.0258
 7028TIP3    H142643   3.533   1.678   0.819 -0.7147  0.5669  0.3658
 7028TIP3    H242644   3.394   1.671   0.879 -0.0808 -1.6854  1.7077
 7029TIP3   OH242645   1.526   3.704   0.466 -0.0038  0.0800 -0.1783
 7029TIP3    H142646   1.480   3.632   0.508  0.4302 -0.4413 -0.5657
 7029TIP3    H242647   1.617   3.674   0.461 -0.4006 -0.9467 -3.6149
 7030TIP3   OH242648   3.466   1.713   8.262  0.4958 -0.0433 -0.1816
 7030TIP3    H142649   3.543   1.680   8.216  1.8565 -1.6498  2.9698
 7030TIP3    H242650   3.493   1.799   8.295 -0.4573  1.0750 -2.0605
 7031TIP3   OH242651   1.628   0.157   1.113  0.4976 -0.2520 -0.0848
 7031TIP3    H142652   1.635   0.203   1.029  0.8327  1.1628  0.6794
 7031TIP3    H242653   1.573   0.081   1.095 -0.7749  0.9079 -1.2408
 7032TIP3   OH242654   6.443   2.805   7.951 -0.2701 -0.0854 -0.5180
 7032TIP3    H142655   6.406   2.888   7.922 -1.4921 -0.0775  0.9536
 7032TIP3    H242656   6.485   2.825   8.035  1.1415 -0.5750 -1.0671
 7033TIP3   OH242657   4.931   5.379   0.611 -0.2209 -0.4339 -0.0039
 7033TIP3    H142658   4.891   5.437   0.547 -0.4419  1.7748  2.0067
 7033TIP3    H242659   4.858   5.327   0.644 -0.5456  0.1138  0.1538
 7034TIP3   OH242660   1.568   0.679   7.338  0.0185  0.0196  0.2167
 7034TIP3    H142661   1.601   0.626   7.265 -1.1001 -0.9727  0.4059
 7034TIP3    H242662   1.475   0.657   7.343 -0.2516  1.2609  0.9569
 7035TIP3   OH242663   3.259   1.634   0.439 -0.1442 -0.1990 -0.0947
 7035TIP3    H142664   3.333   1.672   0.391  0.4902 -0.2131  0.8338
 7035TIP3    H242665   3.214   1.710   0.476  0.2193 -0.2566  0.4788
 7036TIP3   OH242666   6.064   3.390   0.485  0.4389  0.0688 -0.0129
 7036TIP3    H142667   5.977   3.386   0.447 -0.1998 -3.8589  1.3253
 7036TIP3    H242668   6.049   3.408   0.578  0.8947 -1.4829  0.3933
 7037TIP3   OH242669   1.946   4.124   0.201  0.3816 -0.0618  0.6659
 7037TIP3    H142670   1.975   4.190   0.138 -0.7408  1.0401  1.2565
 7037TIP3    H242671   1.881   4.072   0.153 -2.6390  2.5539  1.5951
 7038TIP3   OH242672   2.694   0.902   3.225  0.1239  0.3158 -0.0918
 7038TIP3    H142673   2.631   0.938   3.288 -0.3754  0.8565 -0.8766
 7038TIP3    H242674   2.704   0.811   3.250 -1.2526  0.1291 -0.1466
 7039TIP3   OH242675   3.776   3.924   8.560  0.1125 -0.3582 -0.0181
 7039TIP3    H142676   3.689   3.887   8.575  0.1846 -1.2066 -1.4473
 7039TIP3    H242677   3.763   4.019   8.563 -0.7158 -0.4800  0.5005
 7040TIP3   OH242678   6.141   2.122   1.566 -0.0233  0.3793  0.3272
 7040TIP3    H142679   6.178   2.175   1.496  0.4398 -1.2397 -0.6997
 7040TIP3    H242680   6.166   2.168   1.646  0.6444  1.5192 -0.5058
 7041TIP3   OH242681   2.943   3.954   8.533  0.0957  0.2857 -0.0977
 7041TIP3    H142682   3.020   4.006   8.508 -0.1932  1.0217  0.5078
 7041TIP3    H242683   2.967   3.864   8.511  0.3247  0.7447 -1.8749
 7042TIP3   OH242684   5.946   4.191   0.340  0.6563  0.7764 -0.0112
 7042TIP3    H142685   5.903   4.206   0.256  2.5040  0.8310 -0.9934
 7042TIP3    H242686   5.914   4.261   0.396  0.9735  2.0224 -1.3167
 7043TIP3   OH242687   3.407   2.026   1.867 -0.2934 -0.4568  0.1093
 7043TIP3    H142688   3.339   2.081   1.905 -0.2051  0.2137 -0.6929
 7043TIP3    H242689   3.361   1.946   1.841 -0.6618 -0.2373  0.0794
 7044TIP3   OH242690   2.963   0.655   3.042 -0.4591  0.1430  0.0860
 7044TIP3    H142691   2.894   0.629   3.102  0.0714  1.5863  1.4044
 7044TIP3    H242692   3.034   0.593   3.057 -0.8826 -0.4109 -0.1669
 7045TIP3   OH242693   2.308   5.891   0.299  0.3369  0.6260  0.0647
 7045TIP3    H142694   2.269   5.976   0.319  0.7473  1.0775 -0.9835
 7045TIP3    H242695   2.402   5.902   0.316  0.5192  0.6590 -0.8976
 7046TIP3   OH242696   1.628   0.044   7.915 -0.3222 -0.1329  0.6711
 7046TIP3    H142697   1.578   0.120   7.944 -2.2567 -0.3862 -1.6294
 7046TIP3    H242698   1.655   0.066   7.826  0.4430 -1.5094  0.5304
 7047TIP3   OH242699   3.537   5.982   7.683 -0.2470 -0.4309 -0.4603
 7047TIP3    H142700   3.586   5.977   7.765 -0.2652 -1.5893 -0.5086
 7047TIP3    H242701   3.594   5.941   7.618 -0.4921 -0.0856 -0.9026
 7048TIP3   OH242702   4.795   3.428   7.527  0.1008 -0.2176  0.5486
 7048TIP3    H142703   4.752   3.460   7.447  0.5254  2.6058  1.3599
 7048TIP3    H242704   4.884   3.463   7.522 -0.0298  0.4858  2.4880
 7049TIP3   OH242705   5.657   5.306   7.087 -0.0042  0.4187 -0.1751
 7049TIP3    H142706   5.627   5.346   7.006  0.5080  0.8823 -0.1430
 7049TIP3    H242707   5.632   5.369   7.155  0.4435  0.5032 -0.0834
 7050TIP3   OH242708   3.346   5.283   1.976 -0.2882 -0.0313 -0.8831
 7050TIP3    H142709   3.312   5.213   2.032  0.4827  0.2523 -0.0229
 7050TIP3    H242710   3.269   5.332   1.948 -0.7144 -0.3812 -0.3309
 7051TIP3   OH242711   2.946   3.537   7.807  0.3455 -0.2415  0.2492
 7051TIP3    H142712   3.024   3.586   7.783  0.5661 -0.3682  0.6875
 7051TIP3    H242713   2.874   3.586   7.768  0.3574  1.5664  2.2675
 7052TIP3   OH242714   2.398   4.779   8.134  0.6336  0.2280  0.3617
 7052TIP3    H142715   2.387   4.779   8.229 -1.6219 -3.6092  0.2854
 7052TIP3    H242716   2.405   4.686   8.110  1.4487  1.0516 -3.2287
 7053TIP3   OH242717   5.940   4.078   8.311  0.2526 -0.3264  0.4460
 7053TIP3    H142718   6.002   4.015   8.347 -0.2170 -0.9697  0.1598
 7053TIP3    H242719   5.969   4.163   8.344  0.5222 -0.7672  1.3708
 7054TIP3   OH242720   4.811   2.174   7.433 -0.0214  0.5079  0.5019
 7054TIP3    H142721   4.884   2.170   7.371 -2.1578 -0.6445 -2.1492
 7054TIP3    H242722   4.747   2.231   7.391 -2.1576 -1.4981  0.8741
 7055TIP3   OH242723   1.066   4.591   0.895 -0.8587 -0.4439  0.3013
 7055TIP3    H142724   1.146   4.617   0.850 -1.0910 -0.4299 -0.1123
 7055TIP3    H242725   1.020   4.673   0.913 -1.7617 -0.5567 -1.3224
 7056TIP3   OH242726   3.014   1.636   2.816  0.1187  0.1566  0.0431
 7056TIP3    H142727   2.947   1.662   2.879 -0.5101 -0.7753 -0.2152
 7056TIP3    H242728   3.043   1.550   2.847  1.3752  0.6380  0.2783
 7057TIP3   OH242729   4.044   1.676   8.064 -0.1584 -0.4710 -0.0663
 7057TIP3    H142730   4.015   1.704   7.977 -1.8255 -0.2651  0.5363
 7057TIP3    H242731   4.091   1.752   8.099 -0.5405 -0.1290 -0.2954
 7058TIP3   OH242732   0.679   2.794   0.442  0.2424  0.6722  0.2931
 7058TIP3    H142733   0.601   2.747   0.412  0.8415  0.5099 -1.0780
 7058TIP3    H242734   0.685   2.773   0.535 -0.3544 -0.7505  0.0336
 7059TIP3   OH242735   6.215   3.685   7.251  0.0133 -0.4068  0.1371
 7059TIP3    H142736   6.231   3.762   7.197  0.6396 -2.1462 -2.3102
 7059TIP3    H242737   6.290   3.628   7.234  0.5436 -0.8368  3.3428
 7060TIP3   OH242738   0.753   5.612   8.434  0.0060  0.5827 -0.6349
 7060TIP3    H142739   0.745   5.685   8.496  0.6602  0.4185 -0.3530
 7060TIP3    H242740   0.705   5.540   8.476 -0.3473  0.7411 -0.7563
 7061TIP3   OH242741   4.227   6.586   1.510 -0.5300  0.2350 -0.0168
 7061TIP3    H142742   4.149   6.531   1.510  1.4256 -2.7591  0.8657
 7061TIP3    H242743   4.263   6.577   1.422 -0.9684  1.3323 -0.3191
 7062TIP3   OH242744   4.581   5.956   8.163 -0.4972  0.3563  0.2108
 7062TIP3    H142745   4.651   5.917   8.214 -0.2283  0.9870  0.3417
 7062TIP3    H242746   4.535   6.013   8.224 -0.4302  0.7964 -0.1408
 7063TIP3   OH242747   3.275   1.182   0.542 -0.0752  0.6066 -0.4296
 7063TIP3    H142748   3.327   1.262   0.553  3.3353 -1.0668 -2.6453
 7063TIP3    H242749   3.251   1.183   0.449 -0.5924 -0.6216 -0.3156
 7064LIG     O142750   2.644   1.146   3.825  0.3586  0.3647 -0.5411
 7064LIG     O242751   2.685   1.236   4.275  0.6376  0.2455 -0.0573
 7064LIG     N142752   2.542   1.062   4.217 -0.6889 -1.3300  0.4216
 7064LIG     N242753   2.451   0.930   3.901  0.6698  0.3596  0.0982
 7064LIG     N342754   2.669   1.189   4.046 -0.1495 -0.0073  0.0491
 7064LIG     N442755   2.396   0.893   4.116 -0.4580 -0.0422  0.1506
 7064LIG     C142756   2.519   1.025   3.975 -0.1401 -0.3210 -0.0479
 7064LIG     C242757   2.489   0.996   4.108 -0.6072 -0.0471  1.0981
 7064LIG     C342758   2.611   1.120   3.940 -0.1271 -0.1934  0.1002
 7064LIG     C442759   2.633   1.167   4.185  0.2948 -0.2050  0.3368
 7064LIG     C542760   2.371   0.863   3.989  0.1848  0.7485  0.4315
 7064LIG     C642761   2.502   1.055   4.355  0.8558 -0.6444 -0.7760
 7064LIG     C742762   2.460   0.931   3.754 -0.3962 -0.0055 -0.7630
 7064LIG     C842763   2.772   1.292   4.020  0.5748  0.5254 -0.1166
 7064LIG     H142764   2.308   0.784   3.948  0.5528  1.2357 -1.1151
 7064LIG     H242765   2.421   0.980   4.371  1.9250 -1.2947  2.4099
 7064LIG     H342766   2.450   1.144   4.397 -1.0305 -2.6812  1.5455
 7064LIG     H442767   2.585   1.031   4.424  0.1677  2.5134  1.3775
 7064LIG     H542768   2.563   0.895   3.732 -1.3862 -3.4885 -0.3330
 7064LIG     H642769   2.443   1.030   3.708 -1.8467  0.8719  1.5257
 7064LIG     H742770   2.393   0.855   3.708 -1.7747  1.6304 -1.5389
 7064LIG     H842771   2.863   1.246   4.063 -1.3254 -2.0972  1.3630
 7064LIG     H942772   2.763   1.390   4.071 -0.5853  1.5941 -2.2511
 7064LIG    H1042773   2.797   1.311   3.913  0.1930 -1.4290 -0.6099
   6.84171   6.84171   8.69870
