Title
42782
    1SAPS     N    1   3.359   5.106   7.024 -0.4315 -0.3765 -0.4202
    1SAPS   HN1    2   3.408   5.030   6.972 -0.6907 -1.4256  0.8190
    1SAPS   HN2    3   3.401   5.109   7.120 -0.0575  2.0939 -0.5968
    1SAPS   HN3    4   3.260   5.075   7.037 -1.3052  1.6626 -1.8212
    1SAPS   C12    5   3.352   5.237   6.948 -0.7660 -0.7748 -0.2178
    1SAPS  H12A    6   3.293   5.308   7.005  2.9257  1.1511  1.6156
    1SAPS   C13    7   3.480   5.310   6.940 -0.6107 -0.5262 -0.0728
    1SAPS  O13A    8   3.589   5.257   6.972 -0.3242  0.3677 -0.1456
    1SAPS  O13B    9   3.477   5.424   6.889 -0.2945 -0.5764  0.5698
    1SAPS   C11   10   3.299   5.205   6.801  0.8451 -0.4076 -0.5979
    1SAPS  H11A   11   3.383   5.145   6.760  2.6830  1.2294  0.5931
    1SAPS  H11B   12   3.286   5.293   6.733 -2.6998 -0.2750  0.0381
    1SAPS     P   13   3.032   5.216   6.812  0.2123  0.1399 -0.1157
    1SAPS   O13   14   2.922   5.120   6.822 -0.0475  0.0045 -0.5033
    1SAPS   O14   15   3.029   5.323   6.920 -0.3499 -0.0818 -0.4829
    1SAPS   O12   16   3.176   5.136   6.813  0.3886  0.4700 -0.0948
    1SAPS   O11   17   3.028   5.287   6.669 -0.1200 -0.2653 -0.2012
    1SAPS    C1   18   3.030   5.209   6.548 -0.6910  0.6235  0.0602
    1SAPS    HA   19   3.120   5.143   6.550 -1.0554  0.0739 -1.0767
    1SAPS    HB   20   2.936   5.150   6.541 -0.8704  0.3904  3.0115
    1SAPS    C2   21   3.042   5.284   6.416 -0.7163  0.0364  0.3662
    1SAPS    HS   22   2.948   5.342   6.408  1.2382  3.6361  1.2950
    1SAPS   O21   23   3.072   5.199   6.296  0.0239  0.1487 -0.3169
    1SAPS   C21   24   2.957   5.139   6.247 -0.2348  0.1647 -0.3260
    1SAPS   O22   25   2.847   5.166   6.285 -0.0609  0.1989  0.7341
    1SAPS   C22   26   2.988   5.031   6.147  0.7277 -0.1483 -0.2966
    1SAPS   H2R   27   2.993   5.077   6.046  3.2988 -2.9430 -1.6056
    1SAPS   H2S   28   3.083   4.985   6.184  0.7519  0.8157  0.8877
    1SAPS    C3   29   3.151   5.386   6.422 -0.2355 -0.1309  0.0398
    1SAPS    HX   30   3.247   5.332   6.436  0.0345  0.6543  1.4691
    1SAPS    HY   31   3.138   5.442   6.517 -1.5978 -0.7159  0.2290
    1SAPS   O31   32   3.152   5.473   6.304 -0.4934  0.4539 -0.6701
    1SAPS   C31   33   3.056   5.562   6.290 -0.1736 -0.1298  0.0434
    1SAPS   O32   34   2.989   5.606   6.382  0.3331 -0.0521 -0.1364
    1SAPS   C32   35   3.055   5.611   6.140 -0.3412  0.2297 -0.6639
    1SAPS   H2X   36   3.156   5.655   6.126 -1.9457  4.2397 -0.6730
    1SAPS   H2Y   37   2.963   5.672   6.130 -0.0033  0.5397 -2.1141
    1SAPS   C23   38   2.888   4.905   6.152 -0.2783  0.0956  0.0347
    1SAPS   H3R   39   2.890   4.832   6.069 -4.2974 -0.7017  0.4414
    1SAPS   H3S   40   2.788   4.949   6.137 -0.9668 -1.3315  0.2921
    1SAPS   C24   41   2.887   4.832   6.281  0.7563  0.1644  0.6114
    1SAPS   H4R   42   2.807   4.761   6.251 -0.7709  1.9027  0.3709
    1SAPS   H4S   43   2.838   4.891   6.362 -1.4868 -1.1838  0.3441
    1SAPS   C25   44   3.020   4.767   6.315 -0.4210  0.0373 -0.3713
    1SAPS   H5R   45   3.083   4.828   6.381  0.7550 -1.9178  0.3974
    1SAPS   C26   46   3.054   4.641   6.280 -0.5315 -0.1226  0.3002
    1SAPS   H6R   47   3.145   4.595   6.321 -0.0726 -0.9289 -1.5284
    1SAPS   C27   48   2.963   4.545   6.199  0.1156 -0.1351 -0.4609
    1SAPS   H7R   49   3.021   4.472   6.139 -0.8017 -0.4300 -1.0034
    1SAPS   H7S   50   2.910   4.609   6.126 -0.8642 -2.5243 -1.9546
    1SAPS   C28   51   2.859   4.470   6.279 -0.0072 -0.4286 -0.3551
    1SAPS   H8R   52   2.876   4.455   6.386  0.9554 -3.6056 -0.8484
    1SAPS   C29   53   2.739   4.427   6.217 -0.0970 -0.2721 -0.2337
    1SAPS   H9R   54   2.665   4.368   6.273  1.6313 -2.2430  0.0807
    1SAPS  C210   55   2.711   4.442   6.067  0.3384  0.7658 -0.2534
    1SAPS  H10R   56   2.796   4.491   6.015  0.9059 -1.6605 -1.7891
    1SAPS  H10S   57   2.618   4.500   6.052  0.1869  0.5665 -0.0929
    1SAPS  C211   58   2.690   4.309   5.999 -0.0144  0.1859 -0.9530
    1SAPS  H11R   59   2.595   4.259   6.027 -1.7244  2.0772 -3.0441
    1SAPS  C212   60   2.768   4.241   5.915  0.4137 -0.0615  0.2167
    1SAPS  H12R   61   2.734   4.153   5.859  0.7752  2.3336 -4.2673
    1SAPS  C213   62   2.899   4.292   5.844  0.4128  0.3608  0.2728
    1SAPS  H13R   63   2.900   4.403   5.842 -0.1620  0.4292 -3.3627
    1SAPS  H13S   64   2.891   4.263   5.737  1.5470  0.4457  0.1621
    1SAPS  C214   65   3.012   4.230   5.926 -0.0696 -0.6370 -0.3081
    1SAPS  H14R   66   3.018   4.275   6.027 -3.0880 -1.6378  0.4302
    1SAPS  C215   67   3.117   4.162   5.869 -0.0445 -0.1779 -0.6193
    1SAPS  H15R   68   3.180   4.115   5.946 -2.2122  0.2060  1.5076
    1SAPS  C216   69   3.123   4.114   5.728 -0.0224 -0.2166 -0.1371
    1SAPS  H16R   70   3.027   4.103   5.674 -0.0584  0.5868 -0.2539
    1SAPS  H16S   71   3.169   4.013   5.724 -0.9354 -0.6675  0.3887
    1SAPS  C217   72   3.218   4.202   5.636  0.4752 -0.6266  0.7506
    1SAPS  H17R   73   3.310   4.229   5.692  0.6609 -0.0810  0.1945
    1SAPS  H17S   74   3.162   4.297   5.617  0.6640 -0.5352  0.6513
    1SAPS  C218   75   3.256   4.135   5.503 -0.0381  0.2129  0.4176
    1SAPS  H18R   76   3.341   4.063   5.515 -0.8390 -0.9947 -0.8905
    1SAPS  H18S   77   3.292   4.215   5.435 -1.3407  2.4417  2.2173
    1SAPS  C219   78   3.139   4.056   5.438 -0.1994  0.6959  0.2925
    1SAPS  H19R   79   3.045   4.109   5.464  0.4475  2.3897 -0.6388
    1SAPS  H19S   80   3.148   3.953   5.479 -0.6167 -0.3947 -2.1916
    1SAPS  C220   81   3.145   4.027   5.290 -0.5132  0.8268 -0.1118
    1SAPS  H20R   82   3.051   3.987   5.246  0.6468 -1.5358 -0.6145
    1SAPS  H20S   83   3.225   3.951   5.279 -2.0015 -1.1091  1.4751
    1SAPS  H20T   84   3.173   4.119   5.234 -0.6023  0.7140 -0.3419
    1SAPS   C33   85   3.035   5.504   6.032 -1.3014  0.0860  0.1116
    1SAPS   H3X   86   2.931   5.466   6.039 -1.4918  0.4897 -0.4190
    1SAPS   H3Y   87   3.104   5.418   6.043  0.2286  1.4414  1.7202
    1SAPS   C34   88   3.076   5.553   5.886  0.0454  0.5980 -0.6021
    1SAPS   H4X   89   3.051   5.470   5.816  2.5898  0.5367 -1.5452
    1SAPS   H4Y   90   3.186   5.566   5.884  0.0690  0.5688  0.1662
    1SAPS   C35   91   3.003   5.676   5.831  0.6756 -0.3794 -0.4141
    1SAPS   H5X   92   3.061   5.761   5.873  0.6265 -0.7872  0.4953
    1SAPS   H5Y   93   2.898   5.677   5.867  1.3228 -1.5255  1.6784
    1SAPS   C36   94   3.014   5.683   5.680 -0.1478  0.4223 -0.1182
    1SAPS   H6X   95   3.003   5.584   5.631  1.1023 -0.2323  0.8632
    1SAPS   H6Y   96   3.122   5.707   5.667  0.5335 -1.5053  1.4555
    1SAPS   C37   97   2.929   5.790   5.614 -0.2115  0.1832 -0.1838
    1SAPS   H7X   98   2.974   5.888   5.639 -0.9998  0.5884 -0.3247
    1SAPS   H7Y   99   2.825   5.782   5.654 -0.6811 -1.7669 -1.6289
    1SAPS   C38  100   2.921   5.772   5.461 -0.1779 -0.7106  0.3631
    1SAPS   H8X  101   2.857   5.852   5.417 -0.1440 -1.7260 -1.6081
    1SAPS   H8Y  102   2.872   5.677   5.433 -2.2993  0.4449 -0.1077
    1SAPS   C39  103   3.048   5.796   5.386 -0.3844  0.0221  0.5784
    1SAPS   H9X  104   3.137   5.765   5.446 -1.1045 -0.1502  1.5695
    1SAPS   H9Y  105   3.061   5.903   5.360 -2.2267 -0.1251 -1.2338
    1SAPS  C310  106   3.065   5.715   5.259  0.2475  0.7419  0.5543
    1SAPS  H10X  107   3.041   5.609   5.285  1.3438 -0.6083 -3.2981
    1SAPS  H10Y  108   3.171   5.721   5.229  0.0702  0.3904 -0.1750
    1SAPS  C311  109   2.975   5.742   5.138 -0.2477  0.2123  0.4752
    1SAPS  H11X  110   3.002   5.841   5.096 -1.4876  1.1057  1.6785
    1SAPS  H11Y  111   2.869   5.757   5.165  0.1675  0.4814  2.1172
    1SAPS  C312  112   2.999   5.630   5.035 -0.0408 -0.6158 -0.1965
    1SAPS  H12X  113   3.001   5.531   5.084 -2.0080 -0.1347  0.9429
    1SAPS  H12Y  114   3.100   5.651   4.992 -0.5159  2.1633 -0.1275
    1SAPS  C313  115   2.894   5.609   4.926  0.8174 -0.6132  0.3802
    1SAPS  H13X  116   2.864   5.708   4.886 -0.2929 -1.7384 -1.7285
    1SAPS  H13Y  117   2.798   5.581   4.975  1.0060 -0.1865  0.9976
    1SAPS  C314  118   2.938   5.505   4.820 -0.0190 -0.8424  0.0707
    1SAPS  H14X  119   2.969   5.407   4.861 -0.4035 -0.5972  0.9752
    1SAPS  H14Y  120   3.032   5.544   4.775 -0.8815  0.1680 -0.9360
    1SAPS  C315  121   2.829   5.482   4.713 -0.5340  0.0711  0.1459
    1SAPS  H15X  122   2.816   5.584   4.669 -0.5813  1.0683  2.3243
    1SAPS  H15Y  123   2.741   5.439   4.767  1.4257 -0.7285  2.9012
    1SAPS  C316  124   2.871   5.389   4.599  0.4386 -1.0808  0.1242
    1SAPS  H16X  125   2.877   5.283   4.631  1.1480 -0.8050  0.9265
    1SAPS  H16Y  126   2.971   5.421   4.564  0.2367 -0.0114  0.5065
    1SAPS  C317  127   2.772   5.378   4.483  0.8023 -1.0457 -0.2156
    1SAPS  H17X  128   2.743   5.482   4.457  3.7089 -0.3003 -0.8055
    1SAPS  H17Y  129   2.685   5.322   4.524  0.5209  1.0470  2.3258
    1SAPS  C318  130   2.823   5.301   4.368 -0.2562 -0.4402  0.6805
    1SAPS  H18X  131   2.821   5.190   4.376 -3.9987 -0.5271  0.3355
    1SAPS  H18Y  132   2.916   5.348   4.331 -0.3279  0.6951  1.8705
    1SAPS  H18Z  133   2.749   5.320   4.288 -0.4439  1.1309  1.2015
    2SAPS     N  134   6.196   1.183   7.036  0.2288 -0.4927  0.6974
    2SAPS   HN1  135   6.204   1.186   7.139 -1.8006  1.9284  0.8598
    2SAPS   HN2  136   6.219   1.088   6.998  0.1691 -1.2602  2.4723
    2SAPS   HN3  137   6.260   1.252   6.993 -0.6565  0.2155  0.5021
    2SAPS   C12  138   6.057   1.226   6.984  0.3996 -0.2875  0.1892
    2SAPS  H12A  139   6.059   1.240   6.877  0.9418  2.1762  0.4556
    2SAPS   C13  140   5.938   1.137   7.023 -0.7310  0.0606  0.8490
    2SAPS  O13A  141   5.958   1.044   7.107  0.4102  0.1594  0.8626
    2SAPS  O13B  142   5.828   1.140   6.964 -0.5954 -0.0921  0.7665
    2SAPS   C11  143   6.027   1.367   7.042  0.0271 -0.0398 -0.2821
    2SAPS  H11A  144   6.036   1.381   7.152 -0.4773  0.8360 -0.3431
    2SAPS  H11B  145   5.920   1.388   7.024  0.4080  3.2813  0.5864
    2SAPS     P  146   6.035   1.599   6.922 -0.0659  0.1929  0.6054
    2SAPS   O13  147   6.001   1.695   7.029  0.4221  0.6206  0.4510
    2SAPS   O14  148   6.127   1.656   6.819 -0.2311  0.0775  0.1011
    2SAPS   O12  149   6.107   1.466   6.986  0.4558 -0.3453  0.7965
    2SAPS   O11  150   5.902   1.545   6.854  0.5719 -0.2499 -0.3031
    2SAPS    C1  151   5.771   1.603   6.877 -0.2226  0.6735  0.7524
    2SAPS    HA  152   5.715   1.559   6.962 -1.0094  1.2191  0.5306
    2SAPS    HB  153   5.785   1.706   6.916 -1.2673  0.7602  0.9389
    2SAPS    C2  154   5.698   1.607   6.742 -0.1651  0.9646 -0.1127
    2SAPS    HS  155   5.597   1.651   6.748  0.1048  1.4097  1.8325
    2SAPS   O21  156   5.695   1.467   6.688  0.4901  0.3578  0.0107
    2SAPS   C21  157   5.638   1.378   6.764 -0.5907  0.2603 -0.3014
    2SAPS   O22  158   5.590   1.392   6.878  0.4454  0.4322  0.5101
    2SAPS   C22  159   5.639   1.243   6.690  0.1417 -0.0342  0.4517
    2SAPS   H2R  160   5.743   1.215   6.664 -0.3105  0.3110 -1.9625
    2SAPS   H2S  161   5.603   1.166   6.761  0.5063  1.0646  1.8685
    2SAPS    C3  162   5.775   1.701   6.649  0.1147 -0.4246  0.2564
    2SAPS    HX  163   5.880   1.664   6.652  0.5771  0.7210 -0.7784
    2SAPS    HY  164   5.773   1.803   6.693  0.5692 -1.0304  1.7166
    2SAPS   O31  165   5.734   1.699   6.510 -0.5382 -0.6261  0.2932
    2SAPS   C31  166   5.827   1.734   6.414  0.2476 -0.5026  0.6129
    2SAPS   O32  167   5.943   1.765   6.431  0.0100 -0.1903  0.2818
    2SAPS   C32  168   5.752   1.721   6.282 -0.3973 -0.4247  0.2846
    2SAPS   H2X  169   5.682   1.808   6.282 -0.8640 -0.5948 -3.7124
    2SAPS   H2Y  170   5.681   1.636   6.274 -0.3762 -0.3227 -1.4243
    2SAPS   C23  171   5.558   1.258   6.567 -0.6139  0.0973 -0.4561
    2SAPS   H3R  172   5.605   1.320   6.488 -1.9397  0.6246 -0.8599
    2SAPS   H3S  173   5.457   1.301   6.584 -0.3034  0.5538  0.2968
    2SAPS   C24  174   5.531   1.113   6.502  0.0157  0.1743  0.4010
    2SAPS   H4R  175   5.461   1.124   6.416  0.2727 -0.7823  0.0556
    2SAPS   H4S  176   5.483   1.052   6.581 -0.1244  0.2600  0.3826
    2SAPS   C25  177   5.657   1.054   6.450 -0.3751  0.3824 -0.2944
    2SAPS   H5R  178   5.725   1.031   6.533 -0.1083  1.0188 -0.3274
    2SAPS   C26  179   5.698   1.038   6.320 -0.3213 -0.6016 -0.1249
    2SAPS   H6R  180   5.800   1.007   6.295 -0.1535 -1.4811  1.5033
    2SAPS   C27  181   5.618   1.082   6.201 -0.2693  0.0806 -0.2094
    2SAPS   H7R  182   5.518   1.034   6.208  1.0606 -2.7263  1.7118
    2SAPS   H7S  183   5.664   1.022   6.119  1.0263 -1.7432  1.7269
    2SAPS   C28  184   5.619   1.231   6.167 -0.8446  0.0445 -0.2778
    2SAPS   H8R  185   5.624   1.299   6.253  1.4269  1.0410 -1.1260
    2SAPS   C29  186   5.643   1.279   6.042  0.1506  0.0676  0.2207
    2SAPS   H9R  187   5.637   1.387   6.021  2.8618 -0.0663 -1.7795
    2SAPS  C210  188   5.680   1.201   5.920 -0.3266 -0.3394 -0.1097
    2SAPS  H10R  189   5.591   1.191   5.855  0.3287 -0.9891 -0.9316
    2SAPS  H10S  190   5.701   1.094   5.940 -0.7140 -0.5287 -0.7108
    2SAPS  C211  191   5.794   1.264   5.842 -0.8548 -0.3125 -0.3258
    2SAPS  H11R  192   5.872   1.322   5.893  0.3334  0.8108 -3.1783
    2SAPS  C212  193   5.819   1.252   5.712  0.6811  0.2317  0.2017
    2SAPS  H12R  194   5.914   1.288   5.670  0.7911 -0.4867 -0.1855
    2SAPS  C213  195   5.729   1.169   5.622  0.0787 -0.1494 -0.2537
    2SAPS  H13R  196   5.656   1.104   5.673 -0.6290  1.6674  1.1716
    2SAPS  H13S  197   5.806   1.098   5.583  1.0276 -1.1623  3.1412
    2SAPS  C214  198   5.658   1.236   5.501  0.3483 -0.0542 -0.1836
    2SAPS  H14R  199   5.548   1.237   5.503  0.3231  1.9073  2.1229
    2SAPS  C215  200   5.718   1.284   5.396 -0.3044  0.3441  0.1671
    2SAPS  H15R  201   5.648   1.322   5.319 -0.2193  0.6487  0.2392
    2SAPS  C216  202   5.867   1.289   5.365 -0.9959  0.1804  0.2511
    2SAPS  H16R  203   5.927   1.234   5.440 -1.5673 -0.9681 -0.1125
    2SAPS  H16S  204   5.904   1.394   5.374  2.5782 -0.9142 -0.4308
    2SAPS  C217  205   5.896   1.226   5.230  0.3645 -0.0770  0.0422
    2SAPS  H17R  206   5.852   1.124   5.232  2.5145 -1.0605  0.7946
    2SAPS  H17S  207   6.005   1.205   5.217  1.0059  1.0335  2.8835
    2SAPS  C218  208   5.850   1.320   5.110  0.0185 -0.1034 -0.5813
    2SAPS  H18R  209   5.927   1.399   5.097 -1.3245  1.5991  1.2639
    2SAPS  H18S  210   5.754   1.372   5.129 -0.6292  0.7697 -5.0736
    2SAPS  C219  211   5.821   1.238   4.988  1.0601  0.1467 -0.0839
    2SAPS  H19R  212   5.733   1.177   5.017  1.9610  0.3077  3.5116
    2SAPS  H19S  213   5.907   1.172   4.962  2.0365  1.1106  0.5809
    2SAPS  C220  214   5.783   1.327   4.865 -0.5199  0.7683 -0.3533
    2SAPS  H20R  215   5.696   1.394   4.884 -0.1989  1.5617 -1.5716
    2SAPS  H20S  216   5.759   1.267   4.774  1.3856  0.8135 -0.9253
    2SAPS  H20T  217   5.865   1.397   4.839 -1.3366  1.4639 -1.1447
    2SAPS   C33  218   5.847   1.729   6.161 -0.1113  0.4719 -0.1771
    2SAPS   H3X  219   5.903   1.633   6.156 -0.3440  0.3719 -0.8466
    2SAPS   H3Y  220   5.923   1.807   6.183 -1.1300  1.2728  0.5949
    2SAPS   C34  221   5.783   1.761   6.025  0.4430 -0.2870 -0.3210
    2SAPS   H4X  222   5.734   1.861   6.022 -1.3705 -1.1856 -1.7893
    2SAPS   H4Y  223   5.701   1.689   6.009 -1.9145  1.9468  1.0044
    2SAPS   C35  224   5.871   1.740   5.894 -0.2717  0.7366 -0.8340
    2SAPS   H5X  225   5.949   1.663   5.913  0.7260  1.6133 -1.3094
    2SAPS   H5Y  226   5.937   1.829   5.887 -1.1950  1.6502  1.2075
    2SAPS   C36  227   5.785   1.699   5.772 -0.2028  0.2115 -0.4505
    2SAPS   H6X  228   5.711   1.780   5.754  0.4835  0.8323 -0.5181
    2SAPS   H6Y  229   5.739   1.599   5.783  0.5254 -0.1709 -0.8090
    2SAPS   C37  230   5.868   1.706   5.635 -0.2428  0.5171 -0.4048
    2SAPS   H7X  231   5.950   1.632   5.646 -1.6862 -0.9830  0.6350
    2SAPS   H7Y  232   5.895   1.813   5.628 -3.3622  1.3932 -0.6206
    2SAPS   C38  233   5.781   1.676   5.513 -0.2567  0.0524 -0.7335
    2SAPS   H8X  234   5.689   1.738   5.501 -0.0596  0.3165 -0.9067
    2SAPS   H8Y  235   5.756   1.568   5.516  1.6882 -0.4130  0.9897
    2SAPS   C39  236   5.870   1.696   5.387 -0.1597  0.1306  0.0822
    2SAPS   H9X  237   5.964   1.638   5.399 -0.5930 -0.5160  0.4407
    2SAPS   H9Y  238   5.896   1.804   5.377  1.0688 -0.1507  0.1398
    2SAPS  C310  239   5.800   1.643   5.255  0.5555 -0.4139 -0.0242
    2SAPS  H10X  240   5.720   1.570   5.278 -0.1319  0.6482  1.1178
    2SAPS  H10Y  241   5.877   1.594   5.192  1.0372  0.8328 -0.4483
    2SAPS  C311  242   5.738   1.758   5.175 -0.1687  0.3024 -0.6261
    2SAPS  H11X  243   5.812   1.824   5.125 -0.9879  1.9180  0.2093
    2SAPS  H11Y  244   5.673   1.825   5.235 -1.6637 -3.1829  2.0127
    2SAPS  C312  245   5.641   1.716   5.063 -0.2655  0.5316 -0.8906
    2SAPS  H12X  246   5.554   1.655   5.098 -0.7197  1.4619 -0.3428
    2SAPS  H12Y  247   5.692   1.660   4.983 -2.3980 -0.6009 -1.5386
    2SAPS  C313  248   5.576   1.850   5.004 -0.1813  0.1401  0.2949
    2SAPS  H13X  249   5.657   1.920   4.974 -0.1672 -0.0654 -0.1473
    2SAPS  H13Y  250   5.500   1.893   5.073 -1.1703 -0.0077 -0.6788
    2SAPS  C314  251   5.489   1.820   4.879  0.3009  0.4595  0.1576
    2SAPS  H14X  252   5.544   1.751   4.812  0.3516  0.3765  0.2860
    2SAPS  H14Y  253   5.476   1.916   4.824  0.9914 -0.0081 -0.8579
    2SAPS  C315  254   5.355   1.757   4.915  0.1598 -0.8615  0.5579
    2SAPS  H15X  255   5.302   1.811   4.997 -0.5480  0.9279 -1.0186
    2SAPS  H15Y  256   5.380   1.655   4.952  2.2725 -1.2827 -1.7743
    2SAPS  C316  257   5.253   1.746   4.794 -0.5330  0.4210 -1.0127
    2SAPS  H16X  258   5.218   1.847   4.764 -0.6976  0.8609  0.6106
    2SAPS  H16Y  259   5.164   1.691   4.832 -0.0083  0.9323  1.0524
    2SAPS  C317  260   5.310   1.669   4.669 -0.1339 -0.8292 -0.0624
    2SAPS  H17X  261   5.393   1.731   4.630 -1.6295  1.9618  0.9775
    2SAPS  H17Y  262   5.223   1.666   4.599 -0.3581  1.4289  0.0536
    2SAPS  C318  263   5.363   1.530   4.701  0.4569 -0.0135 -0.1762
    2SAPS  H18X  264   5.408   1.490   4.608  0.6651 -1.7547  0.6430
    2SAPS  H18Y  265   5.285   1.452   4.719  0.8942  0.0402  2.3061
    2SAPS  H18Z  266   5.424   1.524   4.794  0.1334 -2.9755 -0.0599
    3SAPS     N  267   3.799   6.277   7.002  0.0426 -0.2833  0.0357
    3SAPS   HN1  268   3.851   6.334   6.933 -0.0881 -2.4837 -2.0023
    3SAPS   HN2  269   3.829   6.179   6.988 -4.0988 -1.8728  0.7273
    3SAPS   HN3  270   3.696   6.278   6.986 -0.3599 -0.1208  2.3092
    3SAPS   C12  271   3.829   6.310   7.143 -0.0045 -0.2408 -0.2329
    3SAPS  H12A  272   3.753   6.290   7.217  1.2829 -1.4152  0.8387
    3SAPS   C13  273   3.960   6.249   7.199  0.2118 -0.7098 -0.0108
    3SAPS  O13A  274   4.017   6.152   7.144  0.0729 -0.1977 -0.6222
    3SAPS  O13B  275   3.995   6.280   7.316 -0.1641 -0.1673 -0.0054
    3SAPS   C11  276   3.830   6.461   7.164 -0.0959 -0.3667  0.0439
    3SAPS  H11A  277   3.917   6.504   7.110 -0.9242 -0.4951 -1.4721
    3SAPS  H11B  278   3.868   6.494   7.263 -2.2820  2.8033 -0.0395
    3SAPS     P  279   3.704   6.678   7.130  0.3280  0.4496  0.2400
    3SAPS   O13  280   3.602   6.724   7.032 -0.2792 -0.1570 -0.1743
    3SAPS   O14  281   3.687   6.729   7.272 -0.0578  0.5374 -0.3197
    3SAPS   O12  282   3.709   6.522   7.142  0.1630  0.1615 -0.1635
    3SAPS   O11  283   3.850   6.723   7.083  0.0988  0.1693  0.1534
    3SAPS    C1  284   3.890   6.854   7.054 -0.1591 -0.5651 -0.3870
    3SAPS    HA  285   3.801   6.922   7.055  0.6307  0.4887  0.1561
    3SAPS    HB  286   3.970   6.890   7.122  1.0094  1.0666 -2.5012
    3SAPS    C2  287   3.937   6.868   6.909 -0.9415 -0.1083 -0.7902
    3SAPS    HS  288   3.991   6.964   6.892 -1.0034  0.0885  0.0602
    3SAPS   O21  289   3.833   6.850   6.814  0.0500  0.0730 -0.0221
    3SAPS   C21  290   3.779   6.956   6.755 -0.0691  0.2468  0.6635
    3SAPS   O22  291   3.814   7.071   6.772 -0.3546  0.1396  0.3097
    3SAPS   C22  292   3.659   6.913   6.679  0.0811  0.0185  0.0438
    3SAPS   H2R  293   3.660   6.804   6.660 -1.5932 -0.9677  4.4527
    3SAPS   H2S  294   3.574   6.941   6.745  0.0966  0.8457 -0.2730
    3SAPS    C3  295   4.027   6.752   6.875 -0.3253 -0.6435 -0.5713
    3SAPS    HX  296   3.988   6.649   6.889  2.3606 -1.8325 -1.1370
    3SAPS    HY  297   4.105   6.736   6.952 -1.7258  0.1278  1.0663
    3SAPS   O31  298   4.085   6.783   6.750 -0.2907  0.0920  0.2890
    3SAPS   C31  299   4.049   6.712   6.647 -0.4388  0.2091 -0.1161
    3SAPS   O32  300   3.960   6.631   6.652  0.2123  0.2814 -0.3023
    3SAPS   C32  301   4.138   6.749   6.526  0.4662  0.1645  0.2052
    3SAPS   H2X  302   4.127   6.657   6.465 -1.4297 -0.4189  1.3332
    3SAPS   H2Y  303   4.245   6.760   6.554  0.6259 -0.5540 -0.1045
    3SAPS   C23  304   3.647   6.980   6.540 -0.1154 -0.2750 -0.2193
    3SAPS   H3R  305   3.737   6.986   6.476 -0.6144  2.3533 -0.7939
    3SAPS   H3S  306   3.612   7.085   6.558  1.4351  0.2440 -0.1196
    3SAPS   C24  307   3.524   6.929   6.462 -0.4937  0.2134  0.2772
    3SAPS   H4R  308   3.507   7.000   6.379 -1.7691  1.0218  1.1906
    3SAPS   H4S  309   3.425   6.930   6.513 -0.6782 -3.0537  0.1916
    3SAPS   C25  310   3.548   6.794   6.407 -0.1317 -0.0471 -0.5123
    3SAPS   H5R  311   3.538   6.714   6.482  0.6290 -0.8196 -1.2153
    3SAPS   C26  312   3.546   6.761   6.273 -0.5225 -0.1036 -0.6661
    3SAPS   H6R  313   3.558   6.655   6.246 -2.1118 -0.6576  0.6390
    3SAPS   C27  314   3.547   6.860   6.154  0.9295  0.1827 -0.0542
    3SAPS   H7R  315   3.596   6.959   6.164  0.0674  0.9341 -2.6043
    3SAPS   H7S  316   3.443   6.889   6.129  1.7724  1.4807 -2.3798
    3SAPS   C28  317   3.609   6.808   6.027 -0.4041  0.6739  0.5342
    3SAPS   H8R  318   3.634   6.701   6.028 -0.9876  0.5364  1.1154
    3SAPS   C29  319   3.627   6.882   5.916 -0.3661 -0.8621  0.4228
    3SAPS   H9R  320   3.659   6.829   5.825  0.2865 -1.9775  1.2872
    3SAPS  C210  321   3.603   7.027   5.886  0.2018  0.2017 -0.1732
    3SAPS  H10R  322   3.530   7.071   5.957  1.1724  0.4943  0.6781
    3SAPS  H10S  323   3.561   7.043   5.785 -0.1391  1.3558  0.1311
    3SAPS  C211  324   3.734   7.092   5.907 -0.4302 -0.7701 -0.4638
    3SAPS  H11R  325   3.736   7.158   5.995  0.9571  0.1827 -1.1661
    3SAPS  C212  326   3.838   7.117   5.818  0.9024 -0.2924 -0.4471
    3SAPS  H12R  327   3.922   7.177   5.856  0.4358  0.4034 -0.4873
    3SAPS  C213  328   3.845   7.080   5.676  0.4893 -0.3441  0.4845
    3SAPS  H13R  329   3.816   7.169   5.616 -0.7525 -1.0479  0.0250
    3SAPS  H13S  330   3.762   7.011   5.648 -0.0798  0.5498 -0.0825
    3SAPS  C214  331   3.969   7.001   5.650 -0.1427 -0.8707  0.1124
    3SAPS  H14R  332   3.990   6.914   5.714  1.4159 -0.2342  0.5034
    3SAPS  C215  333   4.060   7.027   5.551 -0.0374  0.0237  0.1936
    3SAPS  H15R  334   4.149   6.966   5.529 -0.4367  0.4527 -3.2713
    3SAPS  C216  335   4.045   7.136   5.443 -0.0291 -1.0733  0.4471
    3SAPS  H16R  336   4.081   7.236   5.474  0.5416 -1.3852  0.7938
    3SAPS  H16S  337   3.937   7.155   5.426  0.1407  0.6607  1.0571
    3SAPS  C217  338   4.116   7.101   5.314  0.1755 -0.5909 -0.2942
    3SAPS  H17R  339   4.092   6.995   5.289 -0.3947  0.3390 -4.4355
    3SAPS  H17S  340   4.223   7.128   5.318  0.3342 -0.7688 -2.3221
    3SAPS  C218  341   4.061   7.191   5.200 -0.4556  0.3830  0.6324
    3SAPS  H18R  342   4.132   7.180   5.115 -0.4722  1.1961  0.5040
    3SAPS  H18S  343   4.039   7.293   5.238  1.1700  0.6423  0.9389
    3SAPS  C219  344   3.925   7.136   5.148  0.1207  0.3118 -0.4262
    3SAPS  H19R  345   3.940   7.026   5.140  1.5321  0.6110 -4.0027
    3SAPS  H19S  346   3.851   7.166   5.225 -0.0979 -0.7689 -0.2038
    3SAPS  C220  347   3.881   7.193   5.015 -0.6201 -0.5054 -0.2928
    3SAPS  H20R  348   3.797   7.138   4.968  0.4436 -0.1783 -2.7425
    3SAPS  H20S  349   3.968   7.184   4.947  1.1186  0.9557  1.6095
    3SAPS  H20T  350   3.864   7.300   5.036  2.3523 -0.1705  0.9206
    3SAPS   C33  351   4.086   6.868   6.443 -0.2515 -0.3046 -0.0556
    3SAPS   H3X  352   4.123   6.963   6.487  1.8420 -2.0340  2.1947
    3SAPS   H3Y  353   3.975   6.873   6.448 -0.1577  1.9951  1.9080
    3SAPS   C34  354   4.138   6.866   6.307  0.2832  0.4152  0.4144
    3SAPS   H4X  355   4.236   6.815   6.304  0.8370  1.4834 -0.9964
    3SAPS   H4Y  356   4.154   6.973   6.281  0.2201  0.2506 -0.3417
    3SAPS   C35  357   4.054   6.798   6.192  0.0506 -0.5837 -0.6842
    3SAPS   H5X  358   4.057   6.688   6.208 -1.0613 -0.3006  1.9552
    3SAPS   H5Y  359   3.949   6.834   6.200  0.3913  1.1542 -2.9337
    3SAPS   C36  360   4.095   6.840   6.048 -0.5585  0.0745 -0.1238
    3SAPS   H6X  361   4.072   6.949   6.041  0.1860  0.1566 -1.9433
    3SAPS   H6Y  362   4.042   6.773   5.976  0.4329  0.7679 -1.5349
    3SAPS   C37  363   4.245   6.842   6.023 -1.1086 -0.3058  0.3765
    3SAPS   H7X  364   4.276   6.741   6.058  0.6405  0.3683  0.8768
    3SAPS   H7Y  365   4.294   6.914   6.092  0.9957 -0.2715 -1.0455
    3SAPS   C38  366   4.284   6.860   5.872  0.3274  0.0065 -0.3687
    3SAPS   H8X  367   4.393   6.881   5.870  0.1762  0.7808 -1.3620
    3SAPS   H8Y  368   4.246   6.958   5.835  0.2656 -0.2434 -0.9908
    3SAPS   C39  369   4.246   6.744   5.772  0.4338 -1.1360 -0.3536
    3SAPS   H9X  370   4.141   6.767   5.743  0.5156  0.3875  0.4556
    3SAPS   H9Y  371   4.273   6.648   5.821 -1.3157 -1.7096 -0.4463
    3SAPS  C310  372   4.335   6.762   5.646  0.1869  0.6079  0.2044
    3SAPS  H10X  373   4.434   6.713   5.658 -0.1581  0.2339  1.7690
    3SAPS  H10Y  374   4.347   6.872   5.630 -0.2388  0.7577  0.8619
    3SAPS  C311  375   4.262   6.699   5.529  0.5016 -0.3551  0.7771
    3SAPS  H11X  376   4.170   6.758   5.513  0.4561 -0.6085  0.1004
    3SAPS  H11Y  377   4.235   6.592   5.537  0.9260 -0.5327 -0.0136
    3SAPS  C312  378   4.339   6.714   5.396  0.3663  0.4086  0.0867
    3SAPS  H12X  379   4.405   6.625   5.395 -0.3998 -0.2202  1.6265
    3SAPS  H12Y  380   4.408   6.802   5.393  2.3138 -1.0385  0.3480
    3SAPS  C313  381   4.265   6.707   5.259  0.4751  0.1476  0.1571
    3SAPS  H13X  382   4.204   6.799   5.255  0.3107 -0.0025 -1.5838
    3SAPS  H13Y  383   4.204   6.615   5.252  1.5066 -0.5141 -0.4181
    3SAPS  C314  384   4.366   6.717   5.145 -0.5323  0.3577  0.8075
    3SAPS  H14X  385   4.435   6.630   5.137 -2.7520 -1.2515 -4.0479
    3SAPS  H14Y  386   4.425   6.811   5.152 -0.1268  0.1460  0.2370
    3SAPS  C315  387   4.287   6.702   5.012  0.7844 -0.1791  0.2512
    3SAPS  H15X  388   4.237   6.603   5.015 -1.8236  1.0243 -0.8549
    3SAPS  H15Y  389   4.365   6.698   4.932  1.1599 -1.8776  0.6457
    3SAPS  C316  390   4.183   6.806   4.984 -0.2347 -0.3663  0.1413
    3SAPS  H16X  391   4.216   6.911   4.998 -2.0056  0.2880 -0.2538
    3SAPS  H16Y  392   4.098   6.803   5.055 -0.4053  1.7228  0.0880
    3SAPS  C317  393   4.113   6.818   4.848  0.1417  0.0705 -0.2256
    3SAPS  H17X  394   4.194   6.826   4.772  1.2051 -0.2666  0.8461
    3SAPS  H17Y  395   4.058   6.915   4.842  0.7996  0.7214  2.7070
    3SAPS  C318  396   4.019   6.702   4.817  0.4163 -0.1589  0.1249
    3SAPS  H18X  397   4.066   6.601   4.821  1.4461  0.3055  0.2379
    3SAPS  H18Y  398   3.972   6.725   4.719 -0.4782  2.0308  0.9892
    3SAPS  H18Z  399   3.946   6.703   4.900  0.5722 -0.5506  0.2689
    4SAPS     N  400   1.126   5.911   7.313 -0.2286 -0.1713  0.4147
    4SAPS   HN1  401   1.137   5.887   7.414  1.9761  0.7183  0.4552
    4SAPS   HN2  402   1.027   5.941   7.301  0.1299  0.1112 -2.6076
    4SAPS   HN3  403   1.138   5.822   7.262  3.1385  0.1340  0.4677
    4SAPS   C12  404   1.204   6.014   7.245 -0.3809  0.4239 -0.3632
    4SAPS  H12A  405   1.246   6.079   7.320  2.0329 -0.4761 -0.8548
    4SAPS   C13  406   1.323   5.938   7.169 -0.0439  0.2146  0.2514
    4SAPS  O13A  407   1.340   5.813   7.184 -0.1323  0.1339 -0.4385
    4SAPS  O13B  408   1.421   6.009   7.125  0.3396  0.1981  0.0931
    4SAPS   C11  409   1.121   6.099   7.138  0.1539 -0.0238  0.2149
    4SAPS  H11A  410   1.097   6.027   7.056  0.7947 -0.5152  0.4490
    4SAPS  H11B  411   1.189   6.181   7.108 -0.3659  0.9428  1.5747
    4SAPS     P  412   0.944   6.298   7.199  0.1443  0.2910  0.0676
    4SAPS   O13  413   0.803   6.298   7.247  0.3372  0.3621  0.2684
    4SAPS   O14  414   1.038   6.384   7.275 -0.5902  0.7782 -0.3807
    4SAPS   O12  415   1.001   6.149   7.199 -0.6474  0.2970 -0.1465
    4SAPS   O11  416   0.954   6.335   7.047 -0.2317  0.0076 -0.4280
    4SAPS    C1  417   0.885   6.268   6.938 -0.6240 -0.8690 -0.1409
    4SAPS    HA  418   0.823   6.185   6.978 -1.6554 -0.0991 -0.0796
    4SAPS    HB  419   0.820   6.343   6.888 -2.4954 -2.4442 -0.1950
    4SAPS    C2  420   0.981   6.205   6.827  0.5252 -0.6108  0.5036
    4SAPS    HS  421   1.049   6.132   6.875  1.0737 -0.3301  0.1611
    4SAPS   O21  422   1.066   6.316   6.773  0.0711  0.3562 -0.4978
    4SAPS   C21  423   1.184   6.285   6.719 -0.3683 -0.9248  1.0064
    4SAPS   O22  424   1.246   6.182   6.735  0.2261 -0.3256  0.2335
    4SAPS   C22  425   1.221   6.388   6.624 -0.0164 -0.0197 -0.1643
    4SAPS   H2R  426   1.133   6.431   6.572 -0.8739 -1.0753  0.3649
    4SAPS   H2S  427   1.263   6.471   6.684  0.2884 -0.4872  0.2773
    4SAPS    C3  428   0.903   6.143   6.708  0.2416 -0.7144  0.0307
    4SAPS    HX  429   0.833   6.216   6.661 -0.2800  0.3368  2.2943
    4SAPS    HY  430   0.833   6.067   6.749 -2.6576  1.8146  0.1549
    4SAPS   O31  431   0.997   6.089   6.614  0.2477 -0.6293 -0.4013
    4SAPS   C31  432   1.034   5.966   6.646 -0.6561  0.2783  0.1570
    4SAPS   O32  433   0.995   5.907   6.745 -0.1680 -0.3496 -0.2403
    4SAPS   C32  434   1.147   5.924   6.544  0.1044 -0.5390 -0.2630
    4SAPS   H2X  435   1.225   6.002   6.532  0.8334 -1.5261 -2.4626
    4SAPS   H2Y  436   1.092   5.917   6.447 -0.8227 -0.1740  0.2173
    4SAPS   C23  437   1.343   6.360   6.536  0.0170 -0.1037 -0.0244
    4SAPS   H3R  438   1.420   6.296   6.584 -1.6175 -2.5986 -0.5398
    4SAPS   H3S  439   1.379   6.456   6.493  0.8775 -0.8588 -1.0307
    4SAPS   C24  440   1.305   6.266   6.422 -0.4302  0.5050 -0.3285
    4SAPS   H4R  441   1.261   6.173   6.462  0.9349 -0.1172 -0.2408
    4SAPS   H4S  442   1.400   6.235   6.375 -1.5710 -0.4724 -2.1001
    4SAPS   C25  443   1.215   6.349   6.325  0.4389 -0.0989 -1.0397
    4SAPS   H5R  444   1.236   6.458   6.325 -1.2027  0.4267  3.2625
    4SAPS   C26  445   1.097   6.311   6.271 -0.4806 -0.4794  0.2158
    4SAPS   H6R  446   1.048   6.390   6.213  0.5370  0.9748  1.2453
    4SAPS   C27  447   1.038   6.176   6.269 -0.3364 -0.2875 -0.1979
    4SAPS   H7R  448   1.014   6.145   6.373 -2.2042  1.6967  0.0479
    4SAPS   H7S  449   1.112   6.110   6.219  1.3474  1.3806 -0.0415
    4SAPS   C28  450   0.915   6.165   6.180 -0.0704 -0.6002  0.5559
    4SAPS   H8R  451   0.823   6.199   6.228 -0.0441 -1.7533  1.4674
    4SAPS   C29  452   0.908   6.137   6.055 -0.6663  0.0179  1.2427
    4SAPS   H9R  453   0.805   6.128   6.017 -0.0342 -0.3907 -0.4872
    4SAPS  C210  454   1.011   6.094   5.961 -0.2646  0.3327  0.0073
    4SAPS  H10R  455   0.962   6.067   5.865  1.0996  0.1408 -0.6625
    4SAPS  H10S  456   1.063   6.003   5.999  0.4748 -0.1878 -2.1305
    4SAPS  C211  457   1.115   6.198   5.937 -0.3637  0.4002 -0.6130
    4SAPS  H11R  458   1.181   6.221   6.022  1.3871 -2.5777 -1.0287
    4SAPS  C212  459   1.145   6.253   5.815 -0.7095 -0.2845 -0.5364
    4SAPS  H12R  460   1.229   6.324   5.815 -0.6104 -0.3327  1.6669
    4SAPS  C213  461   1.078   6.238   5.678 -0.3460 -0.3936 -0.7534
    4SAPS  H13R  462   1.058   6.128   5.674 -4.8343  0.1569  0.7395
    4SAPS  H13S  463   1.151   6.270   5.601 -1.0324  0.0961 -1.2043
    4SAPS  C214  464   0.948   6.303   5.650 -0.1985  0.2242 -0.1410
    4SAPS  H14R  465   0.878   6.288   5.733  0.8859 -0.5968  0.6683
    4SAPS  C215  466   0.926   6.387   5.548 -0.0759  0.0525  0.3979
    4SAPS  H15R  467   0.820   6.408   5.529  0.2212 -0.3221 -1.9489
    4SAPS  C216  468   1.017   6.435   5.441  0.3241  0.2758 -0.0921
    4SAPS  H16R  469   1.117   6.471   5.475  1.0801 -2.1283  0.4716
    4SAPS  H16S  470   0.960   6.509   5.382 -2.0069  1.4962  3.3788
    4SAPS  C217  471   1.062   6.313   5.350  0.7225  0.2529 -0.0525
    4SAPS  H17R  472   0.967   6.259   5.327  1.2103 -0.4852 -0.3963
    4SAPS  H17S  473   1.130   6.247   5.407  0.8695  1.6434  1.4480
    4SAPS  C218  474   1.127   6.355   5.213  0.5962 -0.1473 -0.3050
    4SAPS  H18R  475   1.228   6.395   5.237  0.6885 -0.0458 -0.8454
    4SAPS  H18S  476   1.066   6.435   5.164  0.2104  0.3313  0.9175
    4SAPS  C219  477   1.160   6.238   5.121  0.4036 -0.1155  0.6343
    4SAPS  H19R  478   1.063   6.200   5.083  1.4042 -0.8231 -1.3802
    4SAPS  H19S  479   1.211   6.166   5.189 -2.0833 -0.1402  2.6114
    4SAPS  C220  480   1.249   6.290   5.009 -0.0249  0.1396 -0.3482
    4SAPS  H20R  481   1.278   6.213   4.935 -0.6799  0.7227 -1.2364
    4SAPS  H20S  482   1.340   6.334   5.054 -1.1705  1.5749  0.6764
    4SAPS  H20T  483   1.198   6.378   4.964 -1.0618  0.3305  1.1285
    4SAPS   C33  484   1.226   5.799   6.600  0.2869 -0.5279  0.1205
    4SAPS   H3X  485   1.149   5.724   6.630 -0.2662 -0.0560 -0.0874
    4SAPS   H3Y  486   1.276   5.832   6.694 -1.1471  0.8359  0.4500
    4SAPS   C34  487   1.333   5.746   6.504  0.8833 -0.0253 -0.1558
    4SAPS   H4X  488   1.378   5.654   6.548 -2.4117 -1.3541  0.7529
    4SAPS   H4Y  489   1.418   5.817   6.504  1.1738 -0.3642  0.2006
    4SAPS   C35  490   1.273   5.730   6.365 -1.0883  0.5154  0.9638
    4SAPS   H5X  491   1.254   5.823   6.307  1.4532  0.7000  0.2985
    4SAPS   H5Y  492   1.172   5.684   6.367 -0.4134 -1.1676 -0.6382
    4SAPS   C36  493   1.363   5.645   6.280 -0.2360  0.1156 -0.3936
    4SAPS   H6X  494   1.382   5.554   6.341  1.1779 -1.9653 -3.6225
    4SAPS   H6Y  495   1.454   5.703   6.256 -0.5257 -0.0022 -1.9286
    4SAPS   C37  496   1.299   5.620   6.145 -1.0441  0.2430  0.6328
    4SAPS   H7X  497   1.287   5.722   6.103  0.7463 -0.2562 -1.2778
    4SAPS   H7Y  498   1.200   5.570   6.152 -1.3872  0.7801 -0.1470
    4SAPS   C38  499   1.392   5.529   6.065  0.1188 -0.0408  0.4676
    4SAPS   H8X  500   1.418   5.441   6.126  1.5142  0.2964  0.3873
    4SAPS   H8Y  501   1.487   5.582   6.041 -0.4635  1.3906  1.1580
    4SAPS   C39  502   1.333   5.478   5.927 -0.4196 -0.8044  0.0770
    4SAPS   H9X  503   1.226   5.471   5.955 -0.1605 -2.1582  0.8576
    4SAPS   H9Y  504   1.374   5.375   5.918  0.8408 -0.4760  1.5946
    4SAPS  C310  505   1.356   5.573   5.813  0.8411  0.7729 -0.4288
    4SAPS  H10X  506   1.463   5.602   5.810  0.7103  1.5208  1.0990
    4SAPS  H10Y  507   1.289   5.661   5.817 -0.4402 -0.1707 -0.3756
    4SAPS  C311  508   1.325   5.490   5.684  0.4967  0.2147  0.7215
    4SAPS  H11X  509   1.216   5.473   5.678  0.8296 -1.3868 -3.1145
    4SAPS  H11Y  510   1.380   5.393   5.686  1.5884  0.8000 -0.0922
    4SAPS  C312  511   1.367   5.574   5.559 -0.1348  0.0700  0.1243
    4SAPS  H12X  512   1.472   5.604   5.580  0.0274 -1.1352  1.1233
    4SAPS  H12Y  513   1.305   5.665   5.569 -0.4371 -0.0915 -0.2121
    4SAPS  C313  514   1.333   5.510   5.423  0.0953 -0.7651  0.6428
    4SAPS  H13X  515   1.360   5.584   5.345  1.4754 -1.1567  0.7241
    4SAPS  H13Y  516   1.228   5.478   5.408 -0.0865  0.5494 -1.1976
    4SAPS  C314  517   1.411   5.375   5.381 -0.1184 -0.0377  0.2744
    4SAPS  H14X  518   1.379   5.287   5.442 -1.5856  1.2852  1.5000
    4SAPS  H14Y  519   1.520   5.388   5.390  0.1146 -1.4275 -0.2086
    4SAPS  C315  520   1.368   5.325   5.243 -0.4399  0.8392  0.0068
    4SAPS  H15X  521   1.260   5.298   5.248 -0.9942  1.9078 -3.2452
    4SAPS  H15Y  522   1.413   5.230   5.208  0.1916  0.9371  0.5470
    4SAPS  C316  523   1.398   5.412   5.123  0.2335 -0.6290  0.1191
    4SAPS  H16X  524   1.347   5.504   5.157  1.3376  0.4926 -1.1449
    4SAPS  H16Y  525   1.358   5.387   5.023 -0.7501 -0.1510  0.3799
    4SAPS  C317  526   1.554   5.432   5.112 -0.6359  0.1878 -0.8927
    4SAPS  H17X  527   1.595   5.331   5.131  2.8548  1.1357 -2.5756
    4SAPS  H17Y  528   1.584   5.498   5.196 -1.8227 -0.6511  0.2128
    4SAPS  C318  529   1.591   5.471   4.973 -0.2019  0.7995  0.0108
    4SAPS  H18X  530   1.596   5.396   4.892  0.6994  0.9598 -0.0906
    4SAPS  H18Y  531   1.699   5.493   4.983  1.7111 -5.3786 -2.4342
    4SAPS  H18Z  532   1.542   5.568   4.948  1.1520  1.2631 -0.9233
    5SAPS     N  533   4.280   6.783   7.682 -0.3718  0.6916 -0.1141
    5SAPS   HN1  534   4.214   6.718   7.728 -1.8347  2.6984  0.7874
    5SAPS   HN2  535   4.364   6.734   7.645 -0.4614  1.0654 -0.8187
    5SAPS   HN3  536   4.318   6.852   7.751  0.5233  2.2441 -2.0536
    5SAPS   C12  537   4.211   6.877   7.588  0.1512 -0.4076  0.6755
    5SAPS  H12A  538   4.173   6.807   7.515  0.8078 -0.5582  0.4773
    5SAPS   C13  539   4.092   6.954   7.661 -0.9164 -0.8602 -0.1368
    5SAPS  O13A  540   4.094   6.955   7.785  0.4134 -0.5179 -0.6789
    5SAPS  O13B  541   4.034   7.044   7.595  0.2488  0.1894 -0.1623
    5SAPS   C11  542   4.311   6.977   7.525 -0.1401 -0.0741  0.1045
    5SAPS  H11A  543   4.338   7.048   7.606 -2.8042  0.6872  0.4270
    5SAPS  H11B  544   4.259   7.039   7.449  0.3192 -1.5134 -1.4454
    5SAPS     P  545   4.412   6.829   7.335 -0.1516 -0.0083  0.0107
    5SAPS   O13  546   4.463   6.688   7.360  0.7362  0.2327  0.0784
    5SAPS   O14  547   4.280   6.859   7.278  0.7497 -0.0732 -0.5431
    5SAPS   O12  548   4.429   6.917   7.459  0.7837  0.1275 -0.1725
    5SAPS   O11  549   4.528   6.907   7.253  0.7511  0.2503  0.3297
    5SAPS    C1  550   4.508   7.029   7.189  1.1713  0.1706 -0.9744
    5SAPS    HA  551   4.427   7.086   7.240  1.6098 -1.4741  1.7501
    5SAPS    HB  552   4.599   7.093   7.196  1.4617 -0.2079 -1.2713
    5SAPS    C2  553   4.474   7.009   7.039 -0.5508  0.7506 -0.2154
    5SAPS    HS  554   4.368   6.981   7.021 -0.0590  0.1920 -2.6159
    5SAPS   O21  555   4.572   6.912   6.990 -0.1806 -0.2597 -0.1144
    5SAPS   C21  556   4.514   6.816   6.917 -0.0156  0.8070 -0.0623
    5SAPS   O22  557   4.398   6.802   6.889  0.3383  0.0395  0.0161
    5SAPS   C22  558   4.625   6.728   6.850  0.3519 -0.3460  0.1351
    5SAPS   H2R  559   4.718   6.789   6.847 -0.3899  0.8057 -0.0204
    5SAPS   H2S  560   4.641   6.650   6.928 -0.2465  0.1155  0.7349
    5SAPS    C3  561   4.495   7.145   6.955  0.6910  0.2817 -0.1418
    5SAPS    HX  562   4.603   7.157   6.931  0.0378  0.1194 -3.7015
    5SAPS    HY  563   4.465   7.236   7.010  0.7905  0.4688 -0.3976
    5SAPS   O31  564   4.431   7.132   6.830  0.7769 -0.3921  0.4006
    5SAPS   C31  565   4.297   7.159   6.829  0.5634 -0.1251  0.2536
    5SAPS   O32  566   4.232   7.182   6.929 -0.0810  0.2636  0.0958
    5SAPS   C32  567   4.243   7.149   6.683  0.4896  0.2345  0.1209
    5SAPS   H2X  568   4.187   7.053   6.675  1.6997 -0.5744  0.9283
    5SAPS   H2Y  569   4.330   7.145   6.613  0.9109 -0.3690  0.6592
    5SAPS   C23  570   4.585   6.676   6.708 -0.1491 -0.0755  0.2193
    5SAPS   H3R  571   4.475   6.663   6.701 -0.6717  3.3658  0.4927
    5SAPS   H3S  572   4.645   6.585   6.688 -0.5695  0.1671 -2.7108
    5SAPS   C24  573   4.617   6.774   6.591 -0.6843 -0.7581  0.4062
    5SAPS   H4R  574   4.599   6.725   6.493  0.5913  0.2277 -0.3499
    5SAPS   H4S  575   4.727   6.789   6.596 -0.9210  0.6128  2.6531
    5SAPS   C25  576   4.539   6.906   6.591 -0.4743 -0.8133 -0.5236
    5SAPS   H5R  577   4.449   6.915   6.654 -1.8194 -0.4280 -2.4000
    5SAPS   C26  578   4.554   7.002   6.491  0.2633  0.0198  0.0028
    5SAPS   H6R  579   4.502   7.098   6.501  0.8862  0.2754  0.9684
    5SAPS   C27  580   4.649   6.994   6.371 -0.4263  0.0206 -0.6314
    5SAPS   H7R  581   4.715   6.904   6.370 -0.0128  0.2803  1.0933
    5SAPS   H7S  582   4.713   7.085   6.374  0.0815 -0.3360 -0.4635
    5SAPS   C28  583   4.568   6.998   6.244 -0.0244  1.1033  0.0041
    5SAPS   H8R  584   4.465   6.963   6.262  0.6789 -0.5748  0.9708
    5SAPS   C29  585   4.594   7.038   6.116 -0.2899  0.0521 -0.1804
    5SAPS   H9R  586   4.504   7.043   6.054 -1.8826 -0.9703  1.9163
    5SAPS  C210  587   4.721   7.102   6.065 -0.1448 -0.2655 -0.2283
    5SAPS  H10R  588   4.786   7.023   6.019  0.3620  0.3604 -0.6042
    5SAPS  H10S  589   4.778   7.155   6.144 -1.1119  0.1861  0.1774
    5SAPS  C211  590   4.687   7.195   5.952  0.3962 -0.5873 -0.9022
    5SAPS  H11R  591   4.681   7.299   5.987  1.3646 -0.4624 -1.0946
    5SAPS  C212  592   4.661   7.171   5.826 -0.9167 -0.0893 -0.0144
    5SAPS  H12R  593   4.640   7.248   5.750  0.6229  0.2833 -0.1089
    5SAPS  C213  594   4.640   7.037   5.772 -0.1475 -0.1858  0.5048
    5SAPS  H13R  595   4.534   7.032   5.739  0.0615  1.5619 -0.5868
    5SAPS  H13S  596   4.647   6.963   5.854 -0.1698 -0.2150  0.4802
    5SAPS  C214  597   4.730   7.008   5.650  0.4330  0.4732 -0.4198
    5SAPS  H14R  598   4.815   6.939   5.664  0.3989  0.3123 -0.9783
    5SAPS  C215  599   4.691   7.018   5.524 -0.1364  0.0858  0.1443
    5SAPS  H15R  600   4.767   6.990   5.449  0.1445 -4.2486  1.7906
    5SAPS  C216  601   4.559   7.074   5.479  0.1954  0.2916 -0.3988
    5SAPS  H16R  602   4.531   7.150   5.554 -2.5097 -1.6710  0.7559
    5SAPS  H16S  603   4.476   7.001   5.466  1.3748 -0.9679 -1.1611
    5SAPS  C217  604   4.575   7.144   5.343 -0.1058  0.1673 -0.0405
    5SAPS  H17R  605   4.654   7.222   5.353 -0.4947  0.5583  0.0031
    5SAPS  H17S  606   4.479   7.197   5.330 -0.9988 -1.6114 -1.0926
    5SAPS  C218  607   4.617   7.053   5.224 -0.0533 -0.2090  0.7100
    5SAPS  H18R  608   4.566   6.955   5.241 -2.3195  0.9209  0.7683
    5SAPS  H18S  609   4.722   7.018   5.238  0.2564  0.8214  1.0160
    5SAPS  C219  610   4.600   7.130   5.092  0.4575  0.0643  0.5915
    5SAPS  H19R  611   4.676   7.076   5.032  0.2309 -2.1481  2.1782
    5SAPS  H19S  612   4.641   7.233   5.099  0.2937  0.1148  0.8110
    5SAPS  C220  613   4.468   7.136   5.024  0.5158  0.3355 -0.3843
    5SAPS  H20R  614   4.435   7.034   4.996  1.8099 -0.6520  1.4270
    5SAPS  H20S  615   4.478   7.188   4.926 -2.3542 -0.1334 -1.0160
    5SAPS  H20T  616   4.395   7.200   5.079 -0.7003  1.1008 -2.7696
    5SAPS   C33  617   4.153   7.270   6.639  0.1175 -0.8591  0.2307
    5SAPS   H3X  618   4.212   7.364   6.641 -0.6315 -0.3498 -0.8089
    5SAPS   H3Y  619   4.070   7.289   6.709 -1.0386  2.2412 -1.7817
    5SAPS   C34  620   4.098   7.269   6.494 -0.1057 -0.3000 -0.1568
    5SAPS   H4X  621   4.158   7.208   6.424  0.4663 -0.6668  0.6322
    5SAPS   H4Y  622   4.110   7.374   6.458 -1.3964 -0.0142  0.1722
    5SAPS   C35  623   3.947   7.234   6.488 -1.7173  0.1033 -0.4012
    5SAPS   H5X  624   3.894   7.302   6.558 -0.6082 -0.0066  0.5765
    5SAPS   H5Y  625   3.947   7.131   6.530  2.6851  1.2705  3.2864
    5SAPS   C36  626   3.894   7.232   6.349  0.2017  0.3899 -0.4747
    5SAPS   H6X  627   3.787   7.204   6.346 -0.1227  1.5812 -0.5633
    5SAPS   H6Y  628   3.945   7.150   6.294  0.8642 -0.6718  1.6186
    5SAPS   C37  629   3.915   7.362   6.266 -0.0997  1.5372 -0.0124
    5SAPS   H7X  630   4.023   7.389   6.270  0.0762  1.2517 -1.7292
    5SAPS   H7Y  631   3.872   7.447   6.324 -1.3969 -0.0434  1.4131
    5SAPS   C38  632   3.868   7.355   6.121 -0.3889 -0.8165 -0.4865
    5SAPS   H8X  633   3.758   7.347   6.108 -0.7933  0.2427  1.7588
    5SAPS   H8Y  634   3.922   7.273   6.069  0.8983 -0.3243  0.0085
    5SAPS   C39  635   3.915   7.480   6.050 -0.3255 -0.7068  0.3084
    5SAPS   H9X  636   4.024   7.471   6.030 -0.4310 -0.9017 -0.1948
    5SAPS   H9Y  637   3.906   7.559   6.129  0.0366 -2.2501  1.9599
    5SAPS  C310  638   3.845   7.509   5.913  0.3329 -0.2723  0.2805
    5SAPS  H10X  639   3.744   7.550   5.932  1.0719  1.8455 -0.0464
    5SAPS  H10Y  640   3.830   7.414   5.857 -1.4707 -1.0283  1.9499
    5SAPS  C311  641   3.939   7.595   5.815 -0.4561 -0.5375 -0.4671
    5SAPS  H11X  642   4.045   7.569   5.837  0.4802 -0.7527 -4.5283
    5SAPS  H11Y  643   3.923   7.699   5.850  0.7167 -0.4200 -0.2537
    5SAPS  C312  644   3.900   7.565   5.665  0.1205  0.3365  0.4009
    5SAPS  H12X  645   3.793   7.587   5.649  0.0468 -0.8514 -0.9346
    5SAPS  H12Y  646   3.911   7.458   5.639  1.2094  1.2639 -3.5878
    5SAPS  C313  647   3.980   7.651   5.564  0.9169  0.4094 -0.8183
    5SAPS  H13X  648   4.088   7.658   5.593  1.0126 -0.3826 -0.9508
    5SAPS  H13Y  649   3.943   7.755   5.574  1.4509  0.6014 -0.7741
    5SAPS  C314  650   3.980   7.600   5.425  0.7738 -0.0955  0.1776
    5SAPS  H14X  651   3.886   7.583   5.370 -0.2596  1.6885  1.2617
    5SAPS  H14Y  652   4.042   7.509   5.412  0.0899 -0.3295 -1.6616
    5SAPS  C315  653   4.046   7.707   5.333  0.3686 -0.1084  0.1708
    5SAPS  H15X  654   4.141   7.748   5.373 -0.2698 -1.1264  2.9343
    5SAPS  H15Y  655   3.972   7.789   5.321 -0.1382 -0.8305 -2.0283
    5SAPS  C316  656   4.098   7.644   5.209  0.2571  0.5526  0.4374
    5SAPS  H16X  657   4.169   7.565   5.239  0.9295  0.0723 -2.1101
    5SAPS  H16Y  658   4.157   7.719   5.152  2.1233 -0.9721  0.2840
    5SAPS  C317  659   3.991   7.595   5.116 -0.0742 -0.4132  0.3673
    5SAPS  H17X  660   3.919   7.675   5.090 -2.4170 -1.2714  3.5995
    5SAPS  H17Y  661   3.933   7.513   5.163 -2.3995  0.4793 -0.7871
    5SAPS  C318  662   4.046   7.540   4.985  0.3564  0.0040  0.1939
    5SAPS  H18X  663   4.147   7.587   4.986  0.5220 -0.3410  0.2886
    5SAPS  H18Y  664   3.992   7.560   4.891 -0.6363 -1.9814  0.2841
    5SAPS  H18Z  665   4.062   7.431   5.003 -2.4813 -0.4099  0.6069
    6SAPS     N  666   2.538   0.632   6.753 -0.7699 -0.4966  0.0593
    6SAPS   HN1  667   2.519   0.533   6.728  1.9021 -1.2423  0.6440
    6SAPS   HN2  668   2.501   0.697   6.680 -1.6639 -1.3931 -0.3039
    6SAPS   HN3  669   2.642   0.639   6.756 -0.8863  3.8383  0.3095
    6SAPS   C12  670   2.488   0.663   6.885 -0.0823 -0.5461  0.0272
    6SAPS  H12A  671   2.419   0.746   6.878  0.9405  0.3956  0.7569
    6SAPS   C13  672   2.412   0.540   6.942  0.0236 -0.6867 -0.6875
    6SAPS  O13A  673   2.441   0.426   6.900  0.5074 -0.4549 -0.3197
    6SAPS  O13B  674   2.341   0.546   7.047  0.0603  0.1739  0.3330
    6SAPS   C11  675   2.603   0.701   6.982 -0.3668  0.7405  0.1522
    6SAPS  H11A  676   2.675   0.616   6.984 -0.1083  0.9467 -0.3591
    6SAPS  H11B  677   2.548   0.737   7.072 -0.3059  1.9244 -0.2707
    6SAPS     P  678   2.817   0.824   6.882 -0.2224  0.0732  0.2027
    6SAPS   O13  679   2.839   0.962   6.837  0.1469  0.2015  0.7285
    6SAPS   O14  680   2.898   0.782   6.997 -0.4435  0.3626  0.0439
    6SAPS   O12  681   2.665   0.819   6.925  0.2968  0.5152 -0.1197
    6SAPS   O11  682   2.819   0.723   6.759  0.1334  0.1579 -0.8951
    6SAPS    C1  683   2.912   0.738   6.654 -0.1661 -0.3882 -0.8323
    6SAPS    HA  684   2.860   0.708   6.561  0.6915  0.1575 -1.5076
    6SAPS    HB  685   2.955   0.840   6.645 -0.3536 -0.1541  0.6180
    6SAPS    C2  686   3.025   0.635   6.673  0.6115 -0.6819  0.1793
    6SAPS    HS  687   2.982   0.533   6.662  0.5916 -0.5608 -0.9565
    6SAPS   O21  688   3.101   0.650   6.794  0.2168  0.1704  0.2179
    6SAPS   C21  689   3.097   0.552   6.892 -0.0240 -0.2611  0.5193
    6SAPS   O22  690   3.028   0.454   6.890 -0.4941  0.5438  0.3428
    6SAPS   C22  691   3.208   0.578   6.995 -0.4506  0.6820 -0.4347
    6SAPS   H2R  692   3.195   0.666   7.062  1.3155  0.2087  0.6075
    6SAPS   H2S  693   3.195   0.487   7.057 -1.3567  1.7181  0.9548
    6SAPS    C3  694   3.132   0.652   6.566  0.5547  0.0067  0.7347
    6SAPS    HX  695   3.204   0.568   6.565  1.1753  0.4925 -1.3648
    6SAPS    HY  696   3.174   0.751   6.595  2.0429 -0.4806  0.3354
    6SAPS   O31  697   3.070   0.648   6.437 -0.1702  0.1086  0.1575
    6SAPS   C31  698   3.097   0.734   6.342  0.0426  0.0968 -0.1306
    6SAPS   O32  699   3.159   0.834   6.358 -0.5783 -0.0616  0.0176
    6SAPS   C32  700   3.023   0.696   6.215  0.1077  0.2227  0.4644
    6SAPS   H2X  701   2.914   0.720   6.221  0.0806  0.3268 -0.3331
    6SAPS   H2Y  702   3.034   0.586   6.203 -0.5685  0.3964 -2.5327
    6SAPS   C23  703   3.344   0.597   6.929  0.8902 -0.0354  0.0611
    6SAPS   H3R  704   3.422   0.611   7.007  1.1051 -0.4308 -0.0841
    6SAPS   H3S  705   3.336   0.690   6.869  2.5897  0.9133  1.2245
    6SAPS   C24  706   3.389   0.466   6.850 -0.1442 -0.3030 -0.1199
    6SAPS   H4R  707   3.328   0.458   6.758 -0.2216 -1.4754  0.0140
    6SAPS   H4S  708   3.359   0.375   6.906  0.2300  0.3463  1.1739
    6SAPS   C25  709   3.535   0.455   6.823 -0.0530 -0.6868  0.0905
    6SAPS   H5R  710   3.594   0.414   6.906 -0.7398  1.2922  1.6356
    6SAPS   C26  711   3.590   0.493   6.705 -0.5663  0.5195 -0.0565
    6SAPS   H6R  712   3.700   0.487   6.697 -0.4649  0.2322  1.3313
    6SAPS   C27  713   3.511   0.563   6.598  0.5605 -0.3047  0.2233
    6SAPS   H7R  714   3.476   0.662   6.636 -0.5082 -0.4390 -0.3741
    6SAPS   H7S  715   3.423   0.502   6.568 -0.5455  1.6482 -0.7603
    6SAPS   C28  716   3.591   0.578   6.477  0.4854 -0.6004  0.3650
    6SAPS   H8R  717   3.700   0.582   6.492  0.3774  1.1834  0.9315
    6SAPS   C29  718   3.547   0.595   6.349  0.4883 -0.0840 -0.5070
    6SAPS   H9R  719   3.616   0.615   6.265 -1.2440 -0.4584 -2.1026
    6SAPS  C210  720   3.403   0.603   6.308 -0.1765 -0.3034  0.7776
    6SAPS  H10R  721   3.375   0.688   6.241 -1.0630 -0.9563  0.2930
    6SAPS  H10S  722   3.344   0.622   6.400 -0.5666 -1.3726  0.7591
    6SAPS  C211  723   3.367   0.476   6.236  0.6998 -0.3294 -0.1564
    6SAPS  H11R  724   3.337   0.403   6.314  1.1830 -0.2211  0.1368
    6SAPS  C212  725   3.374   0.452   6.102  0.5659  0.2535  0.3202
    6SAPS  H12R  726   3.339   0.356   6.062  3.1631 -0.8050  0.3882
    6SAPS  C213  727   3.431   0.551   6.001  0.6902  0.0661  0.1476
    6SAPS  H13R  728   3.537   0.519   5.994  0.3858 -0.8728 -0.3742
    6SAPS  H13S  729   3.430   0.658   6.031  4.9097  0.3820 -0.1593
    6SAPS  C214  730   3.362   0.546   5.864  0.9148 -0.1943 -0.0914
    6SAPS  H14R  731   3.253   0.535   5.871  0.8612  1.1459  2.5386
    6SAPS  C215  732   3.422   0.543   5.740 -0.4180 -0.0142 -0.0149
    6SAPS  H15R  733   3.356   0.528   5.654 -0.6051  0.7265 -0.0065
    6SAPS  C216  734   3.568   0.549   5.712  0.5558 -0.2432  0.5241
    6SAPS  H16R  735   3.623   0.497   5.793 -2.0344 -2.1979  1.1668
    6SAPS  H16S  736   3.598   0.655   5.701  0.5701 -0.1001  1.7940
    6SAPS  C217  737   3.623   0.472   5.591 -0.3267  1.0307  0.1701
    6SAPS  H17R  738   3.606   0.362   5.599  2.3939  0.5877  1.2425
    6SAPS  H17S  739   3.733   0.483   5.606 -0.1815 -1.7100  2.0179
    6SAPS  C218  740   3.571   0.535   5.459  0.3509 -0.5896 -0.1002
    6SAPS  H18R  741   3.595   0.643   5.463 -0.1806 -0.4707  0.0616
    6SAPS  H18S  742   3.462   0.515   5.451  0.2218 -0.6351  1.4332
    6SAPS  C219  743   3.634   0.488   5.330 -0.3093 -0.1182  0.1662
    6SAPS  H19R  744   3.743   0.470   5.337 -0.2920 -0.8084 -1.4167
    6SAPS  H19S  745   3.629   0.561   5.246  1.1883 -0.9732 -0.6967
    6SAPS  C220  746   3.568   0.355   5.290 -0.5349  0.1125 -0.2065
    6SAPS  H20R  747   3.595   0.280   5.368  2.6322  0.9845 -0.3336
    6SAPS  H20S  748   3.600   0.310   5.194  0.3138 -1.8080  0.9080
    6SAPS  H20T  749   3.459   0.374   5.275 -1.0106  0.1503  2.7264
    6SAPS   C33  750   3.085   0.775   6.092  0.7866 -0.0525 -0.1420
    6SAPS   H3X  751   3.196   0.786   6.095  0.7468  1.2352 -1.8515
    6SAPS   H3Y  752   3.035   0.873   6.088  0.1319 -0.4102 -1.4203
    6SAPS   C34  753   3.040   0.705   5.961  0.2099  0.5720 -0.2928
    6SAPS   H4X  754   2.929   0.692   5.961  0.2240  0.4622 -0.0805
    6SAPS   H4Y  755   3.092   0.608   5.968  0.9510  1.0776  2.0819
    6SAPS   C35  756   3.095   0.774   5.836  0.0748  0.6954  0.7300
    6SAPS   H5X  757   3.200   0.810   5.846  0.6645 -0.9740  0.9231
    6SAPS   H5Y  758   3.039   0.869   5.823  1.1365  1.2304 -0.1852
    6SAPS   C36  759   3.081   0.707   5.699  0.2617 -0.5671 -0.6216
    6SAPS   H6X  760   2.976   0.699   5.665  0.2679 -2.3276 -0.3177
    6SAPS   H6Y  761   3.104   0.600   5.718  0.2891 -0.2950  1.0055
    6SAPS   C37  762   3.179   0.756   5.592  0.0793  0.2513 -0.5690
    6SAPS   H7X  763   3.286   0.744   5.621 -0.1527 -1.3443 -0.3095
    6SAPS   H7Y  764   3.156   0.861   5.564 -1.7918 -0.3967 -1.6469
    6SAPS   C38  765   3.162   0.687   5.458  0.0841 -0.1147 -0.7913
    6SAPS   H8X  766   3.059   0.706   5.421 -0.5045 -2.7059 -0.6296
    6SAPS   H8Y  767   3.181   0.579   5.470 -1.8183 -0.5432 -1.2370
    6SAPS   C39  768   3.245   0.741   5.335 -0.0700  0.4666  0.1335
    6SAPS   H9X  769   3.353   0.756   5.352 -0.3943  0.0282  3.0842
    6SAPS   H9Y  770   3.195   0.839   5.321 -0.9730 -0.1422 -1.0904
    6SAPS  C310  771   3.222   0.660   5.212  0.7484 -0.4984 -0.2272
    6SAPS  H10X  772   3.112   0.652   5.202  0.5078  0.1137  1.4943
    6SAPS  H10Y  773   3.264   0.558   5.226  0.0779 -1.3499 -3.5849
    6SAPS  C311  774   3.276   0.727   5.081 -0.1543  0.1285 -0.5015
    6SAPS  H11X  775   3.251   0.835   5.075 -1.7297 -0.2604 -1.6299
    6SAPS  H11Y  776   3.233   0.669   4.997  1.7487 -1.5567 -0.3849
    6SAPS  C312  777   3.425   0.716   5.078  0.6246  0.4434 -0.2613
    6SAPS  H12X  778   3.445   0.611   5.109 -1.1507 -0.3127 -1.5236
    6SAPS  H12Y  779   3.483   0.777   5.151  0.8051  0.7786 -0.6781
    6SAPS  C313  780   3.489   0.723   4.936  1.0361 -0.0092 -0.1216
    6SAPS  H13X  781   3.469   0.825   4.896 -0.3909  0.5842  1.9281
    6SAPS  H13Y  782   3.442   0.651   4.868 -0.7227 -0.3148  1.3431
    6SAPS  C314  783   3.640   0.697   4.937  0.6120  0.6161 -0.3288
    6SAPS  H14X  784   3.651   0.589   4.957  0.1900  0.5165 -0.6187
    6SAPS  H14Y  785   3.697   0.765   5.004 -1.8233  3.4407 -0.8975
    6SAPS  C315  786   3.690   0.711   4.787  0.3101 -0.6502 -0.8029
    6SAPS  H15X  787   3.611   0.658   4.728 -1.8745  0.5551  0.8863
    6SAPS  H15Y  788   3.789   0.662   4.778  0.5165 -0.5063  0.5524
    6SAPS  C316  789   3.716   0.864   4.758 -0.1655  0.3710 -0.2223
    6SAPS  H16X  790   3.768   0.914   4.843  1.4096 -0.1415 -0.8420
    6SAPS  H16Y  791   3.622   0.915   4.729  0.0215 -0.3421 -2.2926
    6SAPS  C317  792   3.810   0.890   4.640  0.0422  0.8434 -0.6467
    6SAPS  H17X  793   3.778   0.827   4.554  2.4959 -3.1904  1.1080
    6SAPS  H17Y  794   3.912   0.854   4.665 -0.6578 -2.0625 -1.4952
    6SAPS  C318  795   3.822   1.034   4.600  0.6186 -0.8405 -0.6121
    6SAPS  H18X  796   3.883   1.034   4.507  2.2188 -3.2799  0.3287
    6SAPS  H18Y  797   3.871   1.092   4.682 -2.7770  1.3267  0.0644
    6SAPS  H18Z  798   3.724   1.077   4.572  1.4675  1.6284 -0.0895
    7SAPS     N  799   4.612   1.256   7.272  0.4744  0.5684 -0.0428
    7SAPS   HN1  800   4.621   1.320   7.191 -0.3317  0.6761 -0.0500
    7SAPS   HN2  801   4.522   1.277   7.321  0.5601  1.4168 -0.2346
    7SAPS   HN3  802   4.690   1.273   7.339  1.7742  0.2049 -1.4219
    7SAPS   C12  803   4.626   1.114   7.227  0.3392 -0.0959 -0.4047
    7SAPS  H12A  804   4.728   1.092   7.202  0.1991 -1.0273 -0.2236
    7SAPS   C13  805   4.602   1.005   7.335 -1.0327  0.0332 -0.8385
    7SAPS  O13A  806   4.566   1.033   7.454  0.5751 -0.4007  0.3777
    7SAPS  O13B  807   4.665   0.898   7.319 -0.1554  0.1176 -0.3154
    7SAPS   C11  808   4.512   1.090   7.115  1.0319 -0.2629 -1.0322
    7SAPS  H11A  809   4.515   1.172   7.040  0.5225  0.0151 -0.7606
    7SAPS  H11B  810   4.415   1.110   7.165  1.7180 -2.0928  1.1937
    7SAPS     P  811   4.403   0.910   6.970 -0.1604  0.1509  0.2753
    7SAPS   O13  812   4.411   0.764   6.983  0.0220  0.3373  0.2049
    7SAPS   O14  813   4.277   0.967   7.010  0.0476  0.3083 -0.7388
    7SAPS   O12  814   4.519   0.964   7.057 -0.4592  0.1183  0.9113
    7SAPS   O11  815   4.424   0.966   6.827 -0.1125 -0.1923 -0.8627
    7SAPS    C1  816   4.419   0.875   6.720 -0.4886 -0.1670  0.1382
    7SAPS    HA  817   4.325   0.815   6.714 -1.2453  0.9063  0.8693
    7SAPS    HB  818   4.430   0.915   6.617 -0.6401 -0.3112  0.0658
    7SAPS    C2  819   4.540   0.773   6.717 -0.1206 -0.2578  0.1226
    7SAPS    HS  820   4.558   0.733   6.819  0.4359 -1.5330 -0.4576
    7SAPS   O21  821   4.654   0.847   6.665  0.8582 -0.0642 -0.0904
    7SAPS   C21  822   4.763   0.792   6.700 -0.1502  0.0998 -0.6675
    7SAPS   O22  823   4.779   0.688   6.759 -1.0313 -0.0841  0.1880
    7SAPS   C22  824   4.875   0.878   6.642  0.0858  0.1297 -0.5360
    7SAPS   H2R  825   4.883   0.862   6.532  2.0389 -0.7445 -0.3205
    7SAPS   H2S  826   4.837   0.981   6.658 -3.2695 -1.0443 -0.1242
    7SAPS    C3  827   4.511   0.645   6.631 -1.0857  0.2773 -0.0552
    7SAPS    HX  828   4.425   0.598   6.683 -1.2757 -1.4499 -1.8342
    7SAPS    HY  829   4.596   0.573   6.634 -0.8699  0.4012 -2.0762
    7SAPS   O31  830   4.468   0.677   6.498  0.3917  0.3592 -0.0487
    7SAPS   C31  831   4.440   0.579   6.416 -0.7323  0.3891  1.0019
    7SAPS   O32  832   4.449   0.465   6.444 -0.6686  0.1826  0.2144
    7SAPS   C32  833   4.389   0.644   6.289  0.5271  0.8275  0.0537
    7SAPS   H2X  834   4.473   0.711   6.261  0.7486  0.0153 -1.3155
    7SAPS   H2Y  835   4.305   0.713   6.316  0.3788  0.8181 -0.3797
    7SAPS   C23  836   5.017   0.843   6.708  0.2602 -0.5924  0.1806
    7SAPS   H3R  837   5.020   0.733   6.720 -0.8920 -0.6518  0.0320
    7SAPS   H3S  838   5.014   0.893   6.807 -2.0593  0.5461 -0.3935
    7SAPS   C24  839   5.139   0.882   6.623 -0.5008 -0.2191  0.6163
    7SAPS   H4R  840   5.122   0.831   6.526  1.7006  1.0019 -0.5124
    7SAPS   H4S  841   5.231   0.832   6.659  0.4153  0.9751  0.0313
    7SAPS   C25  842   5.151   1.035   6.618 -0.3660  0.1593  0.2003
    7SAPS   H5R  843   5.166   1.091   6.712  1.9362 -2.2375  1.3937
    7SAPS   C26  844   5.171   1.111   6.503  0.9624 -0.4512 -0.5066
    7SAPS   H6R  845   5.190   1.219   6.514  1.3139 -0.7146  2.2297
    7SAPS   C27  846   5.173   1.059   6.362  0.3745 -0.6094  0.2140
    7SAPS   H7R  847   5.175   0.948   6.356 -1.7997 -0.6107 -2.7157
    7SAPS   H7S  848   5.262   1.102   6.312 -0.3713  0.5258 -0.1625
    7SAPS   C28  849   5.040   1.110   6.302 -0.2178 -1.2088 -0.3444
    7SAPS   H8R  850   4.951   1.088   6.363 -1.7082  2.1775 -1.0587
    7SAPS   C29  851   5.027   1.187   6.191 -0.0323 -0.0754 -0.7677
    7SAPS   H9R  852   4.927   1.232   6.178 -0.8676 -0.5934  2.7677
    7SAPS  C210  853   5.127   1.232   6.097  0.8900 -0.1091 -0.2613
    7SAPS  H10R  854   5.228   1.194   6.122  0.6081 -0.2519  0.6734
    7SAPS  H10S  855   5.126   1.343   6.103 -1.5343  0.0233 -1.8229
    7SAPS  C211  856   5.093   1.189   5.959 -0.1504  0.3222 -0.0532
    7SAPS  H11R  857   5.141   1.092   5.936  0.4366  0.6593 -0.2890
    7SAPS  C212  858   5.024   1.256   5.871  0.0526 -0.2367 -0.5812
    7SAPS  H12R  859   5.015   1.212   5.771  2.1600  2.2864 -1.9996
    7SAPS  C213  860   4.943   1.387   5.886 -0.1449  0.1620 -0.6160
    7SAPS  H13R  861   5.002   1.476   5.857  0.1801  2.0259  4.5975
    7SAPS  H13S  862   4.938   1.408   5.995 -2.5318 -0.0467 -0.6399
    7SAPS  C214  863   4.808   1.390   5.819 -0.5769  0.4647 -0.0096
    7SAPS  H14R  864   4.825   1.414   5.712  0.2605  2.7189  0.5600
    7SAPS  C215  865   4.689   1.361   5.873  1.0507 -0.5049 -0.8268
    7SAPS  H15R  866   4.595   1.354   5.816  0.9701 -1.4682 -0.5820
    7SAPS  C216  867   4.668   1.320   6.020  0.6852  0.3645 -0.0356
    7SAPS  H16R  868   4.586   1.381   6.064 -0.9251 -0.5875 -1.5824
    7SAPS  H16S  869   4.757   1.351   6.079  0.0763  1.0721  0.5259
    7SAPS  C217  870   4.618   1.174   6.054 -0.1393 -0.6536 -0.1786
    7SAPS  H17R  871   4.701   1.103   6.033  1.9700  1.7529 -0.3373
    7SAPS  H17S  872   4.532   1.139   5.993 -0.5650 -0.6269  0.3981
    7SAPS  C218  873   4.592   1.166   6.210 -0.1018  0.2723  0.5111
    7SAPS  H18R  874   4.499   1.218   6.242  1.0675  1.5299  2.0137
    7SAPS  H18S  875   4.668   1.212   6.277 -1.2985  1.1902  1.2823
    7SAPS  C219  876   4.577   1.018   6.250  0.1783 -0.0657 -0.3980
    7SAPS  H19R  877   4.653   0.960   6.195 -0.5707 -1.5247  0.0479
    7SAPS  H19S  878   4.475   0.992   6.212  0.8543  0.5091 -2.7580
    7SAPS  C220  879   4.597   1.007   6.400  0.3605  0.2464  0.0452
    7SAPS  H20R  880   4.513   1.046   6.461  0.5250  2.6483 -1.1196
    7SAPS  H20S  881   4.687   1.063   6.433 -0.3826  0.2731  2.1763
    7SAPS  H20T  882   4.614   0.899   6.418 -0.9323 -0.0878 -0.6282
    7SAPS   C33  883   4.361   0.549   6.170 -0.1059  0.5093 -0.8248
    7SAPS   H3X  884   4.254   0.520   6.177 -0.5961  1.4618 -3.2941
    7SAPS   H3Y  885   4.419   0.454   6.181 -0.6781  0.3215  0.8297
    7SAPS   C34  886   4.365   0.607   6.029 -0.1688 -0.4638  0.4372
    7SAPS   H4X  887   4.473   0.614   6.003 -0.3056 -0.2206 -0.0655
    7SAPS   H4Y  888   4.323   0.710   6.032 -0.8197 -0.7438  1.4587
    7SAPS   C35  889   4.315   0.521   5.910 -0.2399 -0.5297 -0.6217
    7SAPS   H5X  890   4.217   0.490   5.951 -0.4847  0.5439 -0.3796
    7SAPS   H5Y  891   4.363   0.421   5.909  1.3817  0.2106 -0.3766
    7SAPS   C36  892   4.316   0.596   5.776  1.3179 -0.0423 -0.7434
    7SAPS   H6X  893   4.322   0.704   5.800  2.1685 -0.7956  3.1476
    7SAPS   H6Y  894   4.227   0.570   5.714 -0.1060 -0.0286  1.1978
    7SAPS   C37  895   4.441   0.560   5.696  0.8764 -0.9221  0.3947
    7SAPS   H7X  896   4.459   0.451   5.680 -0.9733 -1.1687 -0.1378
    7SAPS   H7Y  897   4.525   0.590   5.764  1.4448 -2.5950  0.4778
    7SAPS   C38  898   4.451   0.628   5.560  0.0200  0.1270  0.0455
    7SAPS   H8X  899   4.429   0.735   5.577 -0.1255  0.4261 -1.8321
    7SAPS   H8Y  900   4.373   0.588   5.492 -0.6169  2.4560 -0.6709
    7SAPS   C39  901   4.587   0.627   5.499  0.2026  1.0666 -0.4499
    7SAPS   H9X  902   4.636   0.530   5.476  0.6095  1.2140 -0.1957
    7SAPS   H9Y  903   4.652   0.682   5.570 -1.1662  1.7321  0.3270
    7SAPS  C310  904   4.579   0.721   5.377 -0.1221 -0.4772  0.2720
    7SAPS  H10X  905   4.685   0.738   5.350 -0.6382  0.4635 -1.3375
    7SAPS  H10Y  906   4.537   0.820   5.404  2.7755  0.6450  0.9906
    7SAPS  C311  907   4.493   0.671   5.257 -0.4062 -0.5623 -0.2173
    7SAPS  H11X  908   4.399   0.626   5.297  0.3307  0.3141  2.7603
    7SAPS  H11Y  909   4.544   0.598   5.190 -0.4065 -1.2640  0.5193
    7SAPS  C312  910   4.451   0.789   5.167  0.5155  0.4903 -0.6906
    7SAPS  H12X  911   4.391   0.858   5.230  1.3864  0.4688  0.1884
    7SAPS  H12Y  912   4.383   0.743   5.092  0.5423 -0.5553 -0.0843
    7SAPS  C313  913   4.570   0.855   5.088  0.7880  0.3375 -0.3991
    7SAPS  H13X  914   4.641   0.776   5.058 -0.1971 -0.9241  0.4717
    7SAPS  H13Y  915   4.627   0.923   5.156  0.2002 -0.5463  1.0308
    7SAPS  C314  916   4.527   0.920   4.954 -0.8902  0.4471  0.4937
    7SAPS  H14X  917   4.517   0.841   4.877  0.2911  1.5072 -0.8064
    7SAPS  H14Y  918   4.613   0.979   4.916  1.2752 -0.9312  2.9393
    7SAPS  C315  919   4.401   1.010   4.958 -0.3656  0.6784  0.1009
    7SAPS  H15X  920   4.431   1.098   5.019  1.4012  0.0818  0.1442
    7SAPS  H15Y  921   4.308   0.969   5.003 -1.2873 -0.4508 -2.6617
    7SAPS  C316  922   4.363   1.056   4.816  0.5572 -0.9502  0.4838
    7SAPS  H16X  923   4.342   0.967   4.753 -1.0708 -0.5769  0.4686
    7SAPS  H16Y  924   4.448   1.119   4.784 -0.8416  0.2765 -0.9419
    7SAPS  C317  925   4.232   1.133   4.812  0.0255 -0.0777  0.0152
    7SAPS  H17X  926   4.254   1.224   4.872 -1.5424  1.5003 -1.6386
    7SAPS  H17Y  927   4.151   1.077   4.863 -0.9037  0.3585 -0.9400
    7SAPS  C318  928   4.184   1.176   4.674  0.4584 -1.1342 -0.2169
    7SAPS  H18X  929   4.080   1.211   4.691  0.6307 -0.0958 -1.1786
    7SAPS  H18Y  930   4.174   1.089   4.605  0.2128 -0.7071 -0.7251
    7SAPS  H18Z  931   4.249   1.253   4.628  1.0543 -1.4021  0.1467
    8SAPS     N  932   0.579   1.713   6.334  0.5323 -0.2541  0.2246
    8SAPS   HN1  933   0.638   1.679   6.413  0.1869 -0.1393  0.5401
    8SAPS   HN2  934   0.532   1.633   6.287 -0.3152  0.1073  0.4425
    8SAPS   HN3  935   0.632   1.764   6.261 -1.3271  0.5920 -0.6107
    8SAPS   C12  936   0.481   1.796   6.402 -0.6699  0.1832  0.3482
    8SAPS  H12A  937   0.387   1.752   6.372 -0.0964 -1.1675  0.4699
    8SAPS   C13  938   0.496   1.762   6.553  0.4551 -0.4728  1.0666
    8SAPS  O13A  939   0.572   1.670   6.587 -0.2516  0.8829 -0.6163
    8SAPS  O13B  940   0.428   1.821   6.638 -0.2693  0.2311  0.4099
    8SAPS   C11  941   0.500   1.942   6.367  0.4276  0.3034 -0.1813
    8SAPS  H11A  942   0.423   1.989   6.432  1.4907  0.8771  0.6880
    8SAPS  H11B  943   0.464   1.955   6.263  1.5965 -1.0214 -0.7870
    8SAPS     P  944   0.660   2.156   6.396 -0.3426  0.2142  0.5623
    8SAPS   O13  945   0.602   2.217   6.513 -0.3093  0.0384 -0.5656
    8SAPS   O14  946   0.804   2.176   6.368 -0.0938  0.0642  0.3962
    8SAPS   O12  947   0.627   2.001   6.407  0.6346 -0.0131 -0.0793
    8SAPS   O11  948   0.581   2.213   6.269  0.3151  0.3992 -0.1011
    8SAPS    C1  949   0.491   2.322   6.284 -1.1611 -0.1690  1.0526
    8SAPS    HA  950   0.416   2.306   6.364 -0.0149 -0.9789  2.0134
    8SAPS    HB  951   0.545   2.414   6.316 -0.4579 -0.2841  0.2312
    8SAPS    C2  952   0.443   2.358   6.142  0.3002 -0.1158  0.0921
    8SAPS    HS  953   0.379   2.450   6.144  2.4910  1.4788  1.8792
    8SAPS   O21  954   0.372   2.248   6.087  0.1439  0.8075 -0.0854
    8SAPS   C21  955   0.257   2.219   6.134  0.4411 -0.1506 -0.6758
    8SAPS   O22  956   0.197   2.280   6.222 -0.8062  0.2914  0.1769
    8SAPS   C22  957   0.211   2.096   6.053  0.4942  0.3178 -0.0325
    8SAPS   H2R  958   0.192   2.137   5.951  1.2243 -0.0042 -0.3123
    8SAPS   H2S  959   0.298   2.027   6.050 -0.7778 -1.3266 -0.5571
    8SAPS    C3  960   0.562   2.384   6.043 -0.2802 -0.6570  0.7593
    8SAPS    HX  961   0.621   2.290   6.039  1.1918  0.2662 -1.9139
    8SAPS    HY  962   0.635   2.462   6.076  0.9951 -1.2935 -0.4659
    8SAPS   O31  963   0.527   2.425   5.913  0.2021 -1.0982 -0.2086
    8SAPS   C31  964   0.507   2.554   5.885 -0.9377 -0.5167  0.4280
    8SAPS   O32  965   0.526   2.647   5.959  0.0680  0.1286 -1.2116
    8SAPS   C32  966   0.463   2.586   5.744  0.3794 -0.0256  0.2595
    8SAPS   H2X  967   0.542   2.569   5.668 -3.3881 -0.4388 -4.0402
    8SAPS   H2Y  968   0.436   2.693   5.737 -1.3678 -0.5619 -3.1217
    8SAPS   C23  969   0.087   2.035   6.116 -0.4740 -0.1052 -0.2369
    8SAPS   H3R  970   0.016   2.117   6.138  1.3813  1.0020  1.9911
    8SAPS   H3S  971   0.125   1.987   6.208  1.7022 -0.9313 -1.4995
    8SAPS   C24  972   0.009   1.927   6.042  0.1918  0.1097  0.3517
    8SAPS   H4R  973   0.074   1.838   6.033  0.4972  0.3951 -0.3762
    8SAPS   H4S  974  -0.017   1.967   5.941 -0.5662  0.1449  0.5548
    8SAPS   C25  975  -0.125   1.895   6.106  0.2469  0.1410  0.3637
    8SAPS   H5R  976  -0.178   1.981   6.149  2.7066  3.1615 -2.1491
    8SAPS   C26  977  -0.174   1.777   6.117  0.9057  0.0122 -0.0353
    8SAPS   H6R  978  -0.271   1.763   6.167 -0.2063 -0.7138 -2.2493
    8SAPS   C27  979  -0.119   1.649   6.065 -0.0433 -0.1180  0.2061
    8SAPS   H7R  980  -0.083   1.588   6.151 -0.6437  0.1025  0.6172
    8SAPS   H7S  981  -0.026   1.669   6.008  0.9638  1.2386  2.1671
    8SAPS   C28  982  -0.220   1.574   5.986 -0.0015  0.4660 -0.0346
    8SAPS   H8R  983  -0.259   1.487   6.041 -1.4513  0.1763 -1.4474
    8SAPS   C29  984  -0.255   1.589   5.852 -0.3196  0.0446 -0.0028
    8SAPS   H9R  985  -0.329   1.523   5.806 -0.5660  2.3536 -3.2347
    8SAPS  C210  986  -0.193   1.685   5.755  0.1680  0.1632 -0.2790
    8SAPS  H10R  987  -0.084   1.663   5.754  0.2033  0.2931  0.3392
    8SAPS  H10S  988  -0.193   1.783   5.806  3.4383 -0.5387  1.3402
    8SAPS  C211  989  -0.261   1.707   5.620 -0.0502 -0.5586 -0.1973
    8SAPS  H11R  990  -0.351   1.771   5.626  0.0131 -0.5738  1.4079
    8SAPS  C212  991  -0.220   1.664   5.507  0.0931 -0.5847 -0.0254
    8SAPS  H12R  992  -0.282   1.692   5.421 -1.0369  1.4935  1.3896
    8SAPS  C213  993  -0.100   1.573   5.475 -0.1133 -0.0706  0.0909
    8SAPS  H13R  994  -0.018   1.596   5.546  1.6771 -1.5579 -1.3991
    8SAPS  H13S  995  -0.078   1.605   5.371  1.1219  4.6849  1.5649
    8SAPS  C214  996  -0.122   1.423   5.487 -0.2404 -0.2775 -0.5468
    8SAPS  H14R  997  -0.183   1.380   5.568  0.7126  0.9864  0.8865
    8SAPS  C215  998  -0.070   1.338   5.400 -0.3687 -0.5806  0.0033
    8SAPS  H15R  999  -0.088   1.231   5.415 -0.6182 -1.0500 -3.0306
    8SAPS  C216 1000   0.016   1.367   5.285  0.6932  0.2163  0.0973
    8SAPS  H16R 1001   0.109   1.306   5.292 -0.0779 -0.9425  0.6818
    8SAPS  H16S 1002   0.056   1.470   5.284  0.8513  0.1663  0.9628
    8SAPS  C217 1003  -0.062   1.332   5.150 -0.2089  0.0922 -0.0421
    8SAPS  H17R 1004  -0.166   1.371   5.147 -1.8102 -3.7074 -0.1141
    8SAPS  H17S 1005  -0.083   1.222   5.150 -1.8969  0.3652 -1.0209
    8SAPS  C218 1006   0.012   1.359   5.021 -0.2442  0.1298  0.7103
    8SAPS  H18R 1007   0.111   1.307   5.021 -0.7924 -1.0476 -1.4517
    8SAPS  H18S 1008   0.047   1.464   5.013 -0.7449  0.1633 -1.8344
    8SAPS  C219 1009  -0.062   1.318   4.889  0.2249  0.1394 -0.2813
    8SAPS  H19R 1010  -0.159   1.370   4.897  1.7677  2.9705  1.2643
    8SAPS  H19S 1011  -0.092   1.211   4.882 -0.6802  0.2523  1.5272
    8SAPS  C220 1012   0.019   1.353   4.770  0.5218 -0.6264 -0.1440
    8SAPS  H20R 1013   0.073   1.448   4.788 -1.0305  0.2477 -0.0423
    8SAPS  H20S 1014  -0.043   1.363   4.678  1.3530  0.2815 -0.6325
    8SAPS  H20T 1015   0.101   1.278   4.763 -0.2468 -1.6612  1.5017
    8SAPS   C33 1016   0.345   2.492   5.692 -0.7465 -0.0724  0.8451
    8SAPS   H3X 1017   0.301   2.549   5.608  2.0103 -1.6940 -1.8970
    8SAPS   H3Y 1018   0.275   2.498   5.778 -1.4511  1.4229  0.2015
    8SAPS   C34 1019   0.384   2.354   5.646 -0.9442  0.5668 -0.0457
    8SAPS   H4X 1020   0.295   2.289   5.656 -0.2912 -0.0116  3.1044
    8SAPS   H4Y 1021   0.450   2.318   5.727  0.0429 -1.6342 -1.7292
    8SAPS   C35 1022   0.445   2.343   5.511  0.8771 -0.0354  0.6095
    8SAPS   H5X 1023   0.471   2.236   5.496  0.1636  0.0728 -1.9026
    8SAPS   H5Y 1024   0.541   2.398   5.500  0.5668  0.0411 -3.1574
    8SAPS   C36 1025   0.353   2.372   5.391  0.4581 -0.0630 -0.3207
    8SAPS   H6X 1026   0.246   2.378   5.421  0.7636 -0.5303  0.9412
    8SAPS   H6Y 1027   0.350   2.294   5.312 -1.7323  0.1769 -0.5273
    8SAPS   C37 1028   0.393   2.507   5.329 -0.6011  0.2801 -0.4352
    8SAPS   H7X 1029   0.504   2.510   5.329 -0.4705 -0.5435  2.6856
    8SAPS   H7Y 1030   0.360   2.588   5.398 -0.2285 -0.4143  0.5826
    8SAPS   C38 1031   0.322   2.525   5.193  0.7372  0.3888 -0.1886
    8SAPS   H8X 1032   0.332   2.633   5.166  2.7915  0.7276  1.5956
    8SAPS   H8Y 1033   0.215   2.499   5.200 -0.7547  5.0506 -1.9650
    8SAPS   C39 1034   0.387   2.438   5.081  0.3555  0.0635  0.5217
    8SAPS   H9X 1035   0.402   2.335   5.120  1.2772  0.1757  0.4829
    8SAPS   H9Y 1036   0.484   2.485   5.056  1.5372 -1.2401  2.3943
    8SAPS  C310 1037   0.295   2.405   4.956 -0.0146  0.1052 -0.6022
    8SAPS  H10X 1038   0.277   2.505   4.911 -2.3163  0.4439  0.8916
    8SAPS  H10Y 1039   0.195   2.375   4.993  0.0828  1.6340  1.0173
    8SAPS  C311 1040   0.358   2.323   4.843  0.0431 -0.0520 -0.0299
    8SAPS  H11X 1041   0.459   2.365   4.827  0.2471  0.0640  1.4923
    8SAPS  H11Y 1042   0.293   2.324   4.752  1.1980 -0.8628 -0.8911
    8SAPS  C312 1043   0.372   2.171   4.868 -0.2984  0.6108  0.4859
    8SAPS  H12X 1044   0.280   2.108   4.864  0.8766 -1.2311  1.2799
    8SAPS  H12Y 1045   0.395   2.160   4.976  1.5924 -0.7504 -0.0003
    8SAPS  C313 1046   0.472   2.084   4.789 -0.1231  0.4958  0.9032
    8SAPS  H13X 1047   0.451   1.979   4.818 -1.0971  0.5494  0.4211
    8SAPS  H13Y 1048   0.577   2.099   4.823  0.1716  0.0196  0.2087
    8SAPS  C314 1049   0.473   2.114   4.637 -0.0090  0.7421 -0.3594
    8SAPS  H14X 1050   0.476   2.224   4.622  0.4864  0.8700  0.5606
    8SAPS  H14Y 1051   0.371   2.080   4.609 -0.3125 -2.1556  3.4880
    8SAPS  C315 1052   0.586   2.053   4.565  0.2440  0.0779  0.4621
    8SAPS  H15X 1053   0.607   1.950   4.601 -1.3267 -0.4064  0.0683
    8SAPS  H15Y 1054   0.674   2.117   4.586  1.2107 -0.5227 -1.5220
    8SAPS  C316 1055   0.561   2.044   4.414 -0.1632  0.4547  0.4325
    8SAPS  H16X 1056   0.553   2.146   4.371 -0.3004  0.1336 -0.3195
    8SAPS  H16Y 1057   0.469   1.989   4.386 -0.2203  1.7113 -2.1931
    8SAPS  C317 1058   0.681   1.972   4.334  0.2564 -0.5146 -0.0231
    8SAPS  H17X 1059   0.698   1.872   4.380  0.5025  0.6178  2.4732
    8SAPS  H17Y 1060   0.770   2.032   4.360 -0.4115  0.4091  0.1763
    8SAPS  C318 1061   0.657   1.968   4.181 -0.1021 -0.0757 -0.1983
    8SAPS  H18X 1062   0.740   1.927   4.120  1.1204  0.6864  0.9043
    8SAPS  H18Y 1063   0.647   2.075   4.155  0.4518  0.1446  0.4533
    8SAPS  H18Z 1064   0.566   1.905   4.168 -0.1891  0.0394 -0.1528
    9SAPS     N 1065   0.857   0.063   7.291  0.6449  0.0236 -0.0994
    9SAPS   HN1 1066   0.864   0.162   7.260  1.2045 -0.2375 -0.8186
    9SAPS   HN2 1067   0.938   0.041   7.351 -1.5956 -3.4137  2.0004
    9SAPS   HN3 1068   0.861   0.008   7.203 -0.4031 -0.3542  0.0736
    9SAPS   C12 1069   0.745   0.017   7.374  0.0529  0.5580  0.1045
    9SAPS  H12A 1070   0.764  -0.086   7.401  1.1991 -0.2302 -3.3125
    9SAPS   C13 1071   0.735   0.097   7.506  0.2557  0.1974 -0.3449
    9SAPS  O13A 1072   0.820   0.185   7.522  0.4027 -0.0842 -0.0489
    9SAPS  O13B 1073   0.683   0.046   7.608  0.2189 -0.6099 -0.4712
    9SAPS   C11 1074   0.617   0.016   7.285 -0.2533 -0.4491 -0.5543
    9SAPS  H11A 1075   0.544  -0.047   7.341  0.8041 -2.1452 -1.0236
    9SAPS  H11B 1076   0.636  -0.034   7.188  1.8377 -0.4079 -0.2037
    9SAPS     P 1077   0.562   0.205   7.121  0.4366  0.5030 -0.0344
    9SAPS   O13 1078   0.451   0.310   7.121 -0.3407 -0.2820 -0.0565
    9SAPS   O14 1079   0.702   0.254   7.080 -1.5433  0.2278 -0.4343
    9SAPS   O12 1080   0.561   0.144   7.263  0.2002  0.2631  0.0051
    9SAPS   O11 1081   0.505   0.095   7.016  0.0983  0.0448 -0.5421
    9SAPS    C1 1082   0.465   0.133   6.876  0.3764 -0.0357 -0.6372
    9SAPS    HA 1083   0.395   0.058   6.834 -0.0438 -0.2469  0.4107
    9SAPS    HB 1084   0.409   0.229   6.881  0.1690 -0.1836  2.8450
    9SAPS    C2 1085   0.588   0.158   6.787 -0.0900  0.2851 -0.4387
    9SAPS    HS 1086   0.627   0.252   6.832 -2.6779  0.4806  1.6329
    9SAPS   O21 1087   0.546   0.183   6.654  0.2829 -0.2604 -0.2629
    9SAPS   C21 1088   0.639   0.249   6.585 -0.2211  0.8379 -0.7020
    9SAPS   O22 1089   0.749   0.281   6.623  0.8400  0.4447 -0.0981
    9SAPS   C22 1090   0.584   0.279   6.441 -0.4440 -0.2930 -0.5969
    9SAPS   H2R 1091   0.568   0.183   6.387 -3.7041 -0.5477  0.5587
    9SAPS   H2S 1092   0.491   0.337   6.462  0.5632  0.7285  1.3160
    9SAPS    C3 1093   0.690   0.037   6.793  0.3136  0.3738  0.4154
    9SAPS    HX 1094   0.709   0.027   6.902  1.6511 -1.3872  0.0758
    9SAPS    HY 1095   0.774   0.054   6.723  0.1936  0.2866  0.2490
    9SAPS   O31 1096   0.617  -0.081   6.755  0.3509 -0.2103 -0.3307
    9SAPS   C31 1097   0.682  -0.179   6.704 -0.7421 -0.3505  0.1946
    9SAPS   O32 1098   0.802  -0.188   6.695  0.8830  0.3187  0.1683
    9SAPS   C32 1099   0.592  -0.291   6.661  0.1299  0.4461  0.4561
    9SAPS   H2X 1100   0.490  -0.254   6.636  0.4467  0.8926 -0.2122
    9SAPS   H2Y 1101   0.590  -0.364   6.744  0.7725 -0.0958 -0.0012
    9SAPS   C23 1102   0.695   0.357   6.365  0.5259  0.1463  0.8643
    9SAPS   H3R 1103   0.787   0.295   6.358 -0.6439 -1.4910 -1.5350
    9SAPS   H3S 1104   0.729   0.442   6.428 -1.0019  0.6057  1.1098
    9SAPS   C24 1105   0.647   0.385   6.215 -0.6016  0.1244  0.5811
    9SAPS   H4R 1106   0.625   0.286   6.169  0.8509 -0.8345  1.8469
    9SAPS   H4S 1107   0.734   0.432   6.165 -1.4463  0.7593 -0.3123
    9SAPS   C25 1108   0.529   0.482   6.205  0.2078  0.1522 -0.6424
    9SAPS   H5R 1109   0.518   0.561   6.280 -2.6656 -0.4254 -0.3401
    9SAPS   C26 1110   0.446   0.478   6.097  0.0233 -0.0345  0.7730
    9SAPS   H6R 1111   0.357   0.542   6.105 -0.4179 -0.8482  3.1089
    9SAPS   C27 1112   0.456   0.386   5.974  0.0347 -0.4490 -0.0741
    9SAPS   H7R 1113   0.435   0.280   6.002  4.0713 -1.3538  0.2178
    9SAPS   H7S 1114   0.563   0.378   5.945 -0.1692  0.6696 -1.1866
    9SAPS   C28 1115   0.366   0.430   5.870  0.0053 -0.6328  0.2686
    9SAPS   H8R 1116   0.268   0.438   5.918 -0.2695  0.5583 -0.4448
    9SAPS   C29 1117   0.400   0.462   5.744  0.6857  0.0465  0.7675
    9SAPS   H9R 1118   0.316   0.483   5.675  0.8116 -2.3105 -0.2099
    9SAPS  C210 1119   0.539   0.462   5.679 -0.2672 -0.7306 -0.3189
    9SAPS  H10R 1120   0.608   0.390   5.728 -0.7207 -0.1316  1.2422
    9SAPS  H10S 1121   0.585   0.563   5.686  2.4593 -1.7358 -2.0209
    9SAPS  C211 1122   0.533   0.406   5.538  0.3456 -1.0039 -0.0165
    9SAPS  H11R 1123   0.500   0.301   5.527  3.0911 -1.7765 -2.3391
    9SAPS  C212 1124   0.567   0.467   5.424 -0.0838 -0.0889  0.1596
    9SAPS  H12R 1125   0.549   0.419   5.327 -0.5421  0.3734  0.0164
    9SAPS  C213 1126   0.624   0.607   5.419 -0.2352 -0.3440 -0.1441
    9SAPS  H13R 1127   0.715   0.602   5.356 -2.3630 -3.0524 -3.4197
    9SAPS  H13S 1128   0.665   0.653   5.511  1.4747  1.0005 -1.5065
    9SAPS  C214 1129   0.523   0.704   5.366 -0.3359 -0.2894 -0.2990
    9SAPS  H14R 1130   0.457   0.742   5.445  1.5989  0.7617  0.8803
    9SAPS  C215 1131   0.514   0.744   5.241 -0.2359  0.3985  0.2804
    9SAPS  H15R 1132   0.437   0.820   5.219 -0.6208  0.2943  1.1935
    9SAPS  C216 1133   0.592   0.696   5.125 -0.4639 -0.3747  0.2934
    9SAPS  H16R 1134   0.688   0.649   5.157  0.0200  1.4990  1.8003
    9SAPS  H16S 1135   0.621   0.780   5.059  1.0346 -1.8098 -0.9514
    9SAPS  C217 1136   0.501   0.599   5.044  0.8162 -0.1182  0.5586
    9SAPS  H17R 1137   0.409   0.659   5.033  0.9978 -0.1082 -1.3650
    9SAPS  H17S 1138   0.462   0.510   5.098  0.9237 -0.8875 -0.5907
    9SAPS  C218 1139   0.565   0.567   4.915 -0.2907  0.5113 -0.0695
    9SAPS  H18R 1140   0.618   0.656   4.876 -1.3227  0.5031 -1.5415
    9SAPS  H18S 1141   0.502   0.540   4.829 -0.1396 -0.2008  0.0410
    9SAPS  C219 1142   0.656   0.444   4.919 -1.1550  0.4725  0.3123
    9SAPS  H19R 1143   0.585   0.362   4.944 -1.8536  1.4081  1.4942
    9SAPS  H19S 1144   0.736   0.445   4.996 -2.0468 -0.3664  1.2936
    9SAPS  C220 1145   0.711   0.417   4.779  0.5049 -0.2319 -0.1072
    9SAPS  H20R 1146   0.638   0.405   4.696  1.0689  1.0162 -0.8216
    9SAPS  H20S 1147   0.765   0.321   4.766  0.0965 -0.6588  1.2054
    9SAPS  H20T 1148   0.775   0.500   4.742  1.3152 -1.1092 -0.7394
    9SAPS   C33 1149   0.654  -0.349   6.544  0.6388  0.5468  0.9421
    9SAPS   H3X 1150   0.760  -0.378   6.558  0.9312  1.2252  0.2165
    9SAPS   H3Y 1151   0.645  -0.281   6.457 -0.2480 -0.6411  0.0773
    9SAPS   C34 1152   0.583  -0.488   6.510 -0.1848  0.1572 -0.9666
    9SAPS   H4X 1153   0.474  -0.469   6.511 -0.2972 -0.4493 -1.4553
    9SAPS   H4Y 1154   0.612  -0.557   6.592 -2.0266  0.3780 -0.0766
    9SAPS   C35 1155   0.616  -0.558   6.381 -0.3704 -0.2457  0.6490
    9SAPS   H5X 1156   0.571  -0.659   6.383  0.0194 -0.4764 -0.8546
    9SAPS   H5Y 1157   0.725  -0.572   6.365 -0.8518 -2.6891 -1.1040
    9SAPS   C36 1158   0.559  -0.481   6.255 -0.4280 -0.0252 -0.2145
    9SAPS   H6X 1159   0.615  -0.385   6.260  0.7059 -0.7350  1.7986
    9SAPS   H6Y 1160   0.454  -0.449   6.269 -0.6732 -0.5496 -0.7855
    9SAPS   C37 1161   0.574  -0.551   6.121  0.0645 -0.3871  0.4613
    9SAPS   H7X 1162   0.496  -0.621   6.082  0.9563  0.6576 -3.6579
    9SAPS   H7Y 1163   0.665  -0.614   6.119  0.1472 -0.2507 -0.0914
    9SAPS   C38 1164   0.584  -0.447   6.004 -0.3941 -0.2862  0.2081
    9SAPS   H8X 1165   0.686  -0.406   6.022  0.6382 -3.0781  1.2575
    9SAPS   H8Y 1166   0.514  -0.362   6.015 -1.1582 -1.0881  1.8705
    9SAPS   C39 1167   0.577  -0.504   5.857 -0.2947 -0.6435 -0.6667
    9SAPS   H9X 1168   0.476  -0.546   5.836 -1.3927  0.5650  1.8167
    9SAPS   H9Y 1169   0.656  -0.581   5.842 -1.3510 -1.8209 -0.3349
    9SAPS  C310 1170   0.604  -0.388   5.759  0.8627 -1.2591  0.0190
    9SAPS  H10X 1171   0.713  -0.381   5.741  1.2930  1.2353  2.8173
    9SAPS  H10Y 1172   0.560  -0.294   5.798 -0.2114 -1.3522 -0.8982
    9SAPS  C311 1173   0.539  -0.412   5.622  0.8197 -0.2432 -0.4060
    9SAPS  H11X 1174   0.434  -0.445   5.636  1.1399  0.1129  4.9704
    9SAPS  H11Y 1175   0.591  -0.491   5.564 -1.1510 -0.6049 -1.7851
    9SAPS  C312 1176   0.540  -0.282   5.533 -0.0872  0.2895  0.0915
    9SAPS  H12X 1177   0.648  -0.263   5.514 -0.0227 -0.4330 -0.3050
    9SAPS  H12Y 1178   0.500  -0.200   5.596  0.5643 -0.2722  1.2744
    9SAPS  C313 1179   0.453  -0.292   5.409  0.1124  0.3049 -0.3151
    9SAPS  H13X 1180   0.447  -0.197   5.351 -1.1742  1.5955  1.7742
    9SAPS  H13Y 1181   0.351  -0.315   5.447  0.2122 -0.4467 -0.4952
    9SAPS  C314 1182   0.496  -0.408   5.314  0.6169 -0.3569  0.3761
    9SAPS  H14X 1183   0.436  -0.409   5.220  1.3680  1.2139 -0.1399
    9SAPS  H14Y 1184   0.478  -0.504   5.367  2.3412  0.3096  2.2617
    9SAPS  C315 1185   0.636  -0.399   5.258 -0.0352 -0.1240 -0.6056
    9SAPS  H15X 1186   0.650  -0.483   5.187 -2.5122 -2.9691  1.9665
    9SAPS  H15Y 1187   0.716  -0.410   5.335 -1.2221  2.0275  1.0312
    9SAPS  C316 1188   0.657  -0.272   5.176 -0.7146 -0.0050  0.0372
    9SAPS  H16X 1189   0.662  -0.187   5.248 -0.5632 -0.9080  1.1129
    9SAPS  H16Y 1190   0.569  -0.253   5.112 -0.6214  2.0473  0.4206
    9SAPS  C317 1191   0.790  -0.267   5.100 -0.3499  0.7100  0.1242
    9SAPS  H17X 1192   0.776  -0.353   5.031 -1.7911 -0.2820  1.5703
    9SAPS  H17Y 1193   0.881  -0.279   5.164 -0.3187  1.4022  0.2136
    9SAPS  C318 1194   0.811  -0.142   5.020 -0.1248  0.1038  0.2384
    9SAPS  H18X 1195   0.798  -0.052   5.084  1.8276  0.3102  0.4120
    9SAPS  H18Y 1196   0.741  -0.139   4.935 -0.5294  0.4537  0.5827
    9SAPS  H18Z 1197   0.913  -0.138   4.976  0.4473 -0.8367  1.4021
   10SAPS     N 1198   0.831   5.489   6.843  0.7044  0.3878 -0.5808
   10SAPS   HN1 1199   0.877   5.436   6.766  1.7105  1.1761 -0.5499
   10SAPS   HN2 1200   0.744   5.529   6.803 -0.2851 -0.8961  0.2190
   10SAPS   HN3 1201   0.892   5.569   6.870 -1.1258  1.1022  1.7135
   10SAPS   C12 1202   0.793   5.394   6.954 -0.0649  0.4058 -0.2162
   10SAPS  H12A 1203   0.723   5.320   6.916  0.3981 -0.9285  1.4253
   10SAPS   C13 1204   0.912   5.313   7.007  0.3593  0.3641 -0.2684
   10SAPS  O13A 1205   1.031   5.343   6.966 -0.2489  0.3177 -0.3531
   10SAPS  O13B 1206   0.892   5.213   7.076 -0.2912 -0.3843 -0.0581
   10SAPS   C11 1207   0.727   5.485   7.069 -0.6552 -0.5483 -0.5447
   10SAPS  H11A 1208   0.813   5.533   7.119  1.0208 -2.4419 -1.4666
   10SAPS  H11B 1209   0.689   5.410   7.141 -0.2331  1.1959  1.5977
   10SAPS     P 1210   0.595   5.708   7.093  0.0662 -0.0807 -0.4482
   10SAPS   O13 1211   0.519   5.687   7.214  0.3511 -0.0899  0.3602
   10SAPS   O14 1212   0.722   5.781   7.102  0.6674  0.1312 -0.6103
   10SAPS   O12 1213   0.621   5.572   7.016  0.2528 -0.7307  0.8279
   10SAPS   O11 1214   0.513   5.796   6.989  0.3141  0.1233  0.0957
   10SAPS    C1 1215   0.392   5.742   6.936  0.0859  0.3971  0.1529
   10SAPS    HA 1216   0.340   5.682   7.013  0.3174 -0.8131 -0.5994
   10SAPS    HB 1217   0.324   5.827   6.913  0.0004  0.3696  0.3086
   10SAPS    C2 1218   0.414   5.654   6.804  0.4205  1.0654  0.3386
   10SAPS    HS 1219   0.483   5.568   6.815 -3.3849 -3.1197 -3.9749
   10SAPS   O21 1220   0.453   5.730   6.689  0.6008  0.1092 -0.2426
   10SAPS   C21 1221   0.570   5.695   6.644 -0.9047 -0.0146  0.5567
   10SAPS   O22 1222   0.656   5.628   6.701  0.0563  0.2955 -0.5598
   10SAPS   C22 1223   0.584   5.752   6.501 -0.3803 -0.2983 -0.1304
   10SAPS   H2R 1224   0.531   5.677   6.438  1.5806 -1.7656 -0.1415
   10SAPS   H2S 1225   0.527   5.847   6.490  0.5258  0.1897 -0.7847
   10SAPS    C3 1226   0.278   5.583   6.780  0.1697 -0.4949  0.0294
   10SAPS    HX 1227   0.263   5.525   6.874  0.4397 -0.1748  0.2740
   10SAPS    HY 1228   0.286   5.523   6.687  2.2799  2.3343 -1.7925
   10SAPS   O31 1229   0.174   5.682   6.778  0.0033 -0.7155  0.2587
   10SAPS   C31 1230   0.143   5.726   6.655 -0.4435  0.0159  0.2252
   10SAPS   O32 1231   0.150   5.649   6.562  0.1114 -0.1739 -0.0241
   10SAPS   C32 1232   0.097   5.869   6.638  0.0822 -0.1535 -0.7977
   10SAPS   H2X 1233   0.141   5.927   6.722  1.0590 -0.4429 -1.1019
   10SAPS   H2Y 1234  -0.015   5.871   6.637  0.0757 -0.1431 -0.3026
   10SAPS   C23 1235   0.731   5.767   6.450  0.2009 -0.2867  0.5352
   10SAPS   H3R 1236   0.768   5.664   6.468 -0.0585 -0.3271  0.8568
   10SAPS   H3S 1237   0.791   5.828   6.521  0.0407 -1.2897  1.5841
   10SAPS   C24 1238   0.735   5.810   6.302 -0.3676  0.2813 -0.4097
   10SAPS   H4R 1239   0.682   5.907   6.294 -0.9298 -0.1170 -1.9962
   10SAPS   H4S 1240   0.679   5.729   6.251  2.1369 -2.8736  1.4573
   10SAPS   C25 1241   0.879   5.819   6.248  0.3006 -0.0012 -0.4735
   10SAPS   H5R 1242   0.946   5.887   6.303 -1.5467  0.4195  1.3923
   10SAPS   C26 1243   0.922   5.752   6.141 -0.2105 -0.4136  0.4128
   10SAPS   H6R 1244   1.026   5.776   6.114  0.5862  1.3568  4.3982
   10SAPS   C27 1245   0.835   5.659   6.056 -0.5135  0.1209 -0.1528
   10SAPS   H7R 1246   0.757   5.715   6.001 -0.5715  2.6819  2.3193
   10SAPS   H7S 1247   0.782   5.594   6.130  0.5360 -0.0133  0.5093
   10SAPS   C28 1248   0.913   5.562   5.967  0.1548 -0.1627 -0.5818
   10SAPS   H8R 1249   0.951   5.473   6.019  1.1221 -1.2295 -2.9548
   10SAPS   C29 1250   0.939   5.577   5.837  0.5983  0.2249 -0.1552
   10SAPS   H9R 1251   1.001   5.510   5.777  0.8503  1.4079 -1.2613
   10SAPS  C210 1252   0.888   5.693   5.750  0.3847 -0.0616  0.0758
   10SAPS  H10R 1253   0.898   5.779   5.819 -1.3106 -1.7899  2.6323
   10SAPS  H10S 1254   0.781   5.688   5.718  1.0193 -0.0785 -2.2285
   10SAPS  C211 1255   0.964   5.723   5.625  0.1781 -0.3623 -0.4404
   10SAPS  H11R 1256   1.059   5.777   5.642 -0.0257  0.4669 -1.8127
   10SAPS  C212 1257   0.931   5.702   5.497  0.9279 -0.1099  0.1278
   10SAPS  H12R 1258   1.003   5.740   5.424 -0.7567 -1.7552 -2.5368
   10SAPS  C213 1259   0.806   5.638   5.439  0.1503  0.3591 -0.4721
   10SAPS  H13R 1260   0.803   5.669   5.332 -3.6803 -0.3875 -0.7351
   10SAPS  H13S 1261   0.713   5.674   5.489 -0.1544  0.2853 -0.9708
   10SAPS  C214 1262   0.811   5.490   5.463  0.3338  0.3222  0.3620
   10SAPS  H14R 1263   0.849   5.456   5.561  1.1697 -0.9891 -0.3878
   10SAPS  C215 1264   0.793   5.393   5.373  0.1047 -0.8144 -0.7677
   10SAPS  H15R 1265   0.781   5.291   5.412  0.2009  0.0083  1.5711
   10SAPS  C216 1266   0.756   5.405   5.230  0.5012 -0.4928  0.5174
   10SAPS  H16R 1267   0.691   5.491   5.202 -0.2841 -0.3500  2.5913
   10SAPS  H16S 1268   0.687   5.323   5.202  1.3465 -0.8800 -0.5079
   10SAPS  C217 1269   0.879   5.413   5.142 -0.8135  0.5153 -0.5094
   10SAPS  H17R 1270   0.895   5.325   5.076  1.4777 -0.9767  1.8467
   10SAPS  H17S 1271   0.970   5.418   5.205 -1.7030 -1.0678  0.9790
   10SAPS  C218 1272   0.882   5.535   5.048 -0.5739  0.5315 -0.3334
   10SAPS  H18R 1273   0.872   5.628   5.108  0.1642  0.2851  0.1878
   10SAPS  H18S 1274   0.800   5.523   4.974  0.2259 -1.9575 -0.9057
   10SAPS  C219 1275   1.012   5.563   4.978  0.3855 -0.2902  0.3654
   10SAPS  H19R 1276   1.036   5.489   4.899 -1.5695  0.3090 -0.8443
   10SAPS  H19S 1277   1.093   5.571   5.054  0.0209  1.2584  0.6311
   10SAPS  C220 1278   1.002   5.704   4.914 -0.5592 -0.2572  1.2278
   10SAPS  H20R 1279   0.913   5.710   4.848  1.1453  0.0525 -1.1659
   10SAPS  H20S 1280   1.094   5.722   4.853 -1.1424  0.4514  0.5303
   10SAPS  H20T 1281   0.986   5.778   4.996 -0.0572  2.1980 -0.7517
   10SAPS   C33 1282   0.140   5.934   6.512  0.5449  0.4245  0.9625
   10SAPS   H3X 1283   0.076   6.020   6.486  0.9076 -0.4092 -3.3512
   10SAPS   H3Y 1284   0.116   5.867   6.427  0.8374 -0.4778  1.5714
   10SAPS   C34 1285   0.279   5.987   6.511 -0.0443 -0.0701 -0.5128
   10SAPS   H4X 1286   0.338   5.901   6.551 -0.4032  0.3844  1.0944
   10SAPS   H4Y 1287   0.277   6.068   6.587  0.4432 -1.5103  1.1230
   10SAPS   C35 1288   0.328   6.020   6.371  0.0149  1.0386 -0.7021
   10SAPS   H5X 1289   0.435   6.049   6.379  1.0864 -2.4916 -0.6568
   10SAPS   H5Y 1290   0.265   6.095   6.319 -0.5376  0.6445 -0.6122
   10SAPS   C36 1291   0.333   5.905   6.267 -0.3547  0.1883 -0.5626
   10SAPS   H6X 1292   0.251   5.832   6.285  0.8530 -0.7968  1.3517
   10SAPS   H6Y 1293   0.428   5.848   6.277 -1.3189 -1.4472 -0.4344
   10SAPS   C37 1294   0.319   5.944   6.123  0.1134 -0.4866  0.3036
   10SAPS   H7X 1295   0.308   6.053   6.101 -1.6255 -1.2118 -3.1788
   10SAPS   H7Y 1296   0.229   5.902   6.073  0.4762  0.8124 -1.5646
   10SAPS   C38 1297   0.437   5.891   6.034 -0.3069 -0.3044  0.4576
   10SAPS   H8X 1298   0.425   5.781   6.021 -0.3382 -0.1070 -1.6523
   10SAPS   H8Y 1299   0.513   5.932   6.104 -1.3365  0.6720  1.0491
   10SAPS   C39 1300   0.430   5.964   5.896  0.3417  0.5596  0.5512
   10SAPS   H9X 1301   0.414   6.072   5.919 -0.9923  0.3005  0.9653
   10SAPS   H9Y 1302   0.344   5.910   5.849  0.5749  0.7590 -0.1133
   10SAPS  C310 1303   0.555   5.952   5.805  0.1102 -0.1674 -1.0192
   10SAPS  H10X 1304   0.605   5.854   5.824 -0.4520 -0.2300  0.2736
   10SAPS  H10Y 1305   0.627   6.028   5.842 -0.7359  1.1336 -1.9898
   10SAPS  C311 1306   0.512   5.976   5.658  0.0897  0.1042 -0.6743
   10SAPS  H11X 1307   0.459   6.073   5.661 -0.5712 -0.2396 -0.9342
   10SAPS  H11Y 1308   0.437   5.901   5.624  1.7892 -1.2909 -1.5208
   10SAPS  C312 1309   0.635   5.985   5.569  0.8340  0.5061  0.0099
   10SAPS  H12X 1310   0.693   5.891   5.583 -0.6142 -0.4524 -0.1402
   10SAPS  H12Y 1311   0.697   6.063   5.617  0.3425  0.7543  0.2558
   10SAPS  C313 1312   0.597   6.025   5.422  0.4472  0.5490 -0.3249
   10SAPS  H13X 1313   0.567   6.132   5.431 -2.5517 -0.2104 -0.1722
   10SAPS  H13Y 1314   0.511   5.962   5.389  1.4138  1.3284 -5.0358
   10SAPS  C314 1315   0.699   5.996   5.318 -0.2110 -0.7121  0.1411
   10SAPS  H14X 1316   0.725   5.888   5.312  1.2856 -0.5073  2.0683
   10SAPS  H14Y 1317   0.797   6.043   5.340 -0.6627 -0.0025  0.6687
   10SAPS  C315 1318   0.647   6.033   5.174  1.2113 -0.1061 -1.0869
   10SAPS  H15X 1319   0.636   6.143   5.183  1.4565 -0.2594  3.0994
   10SAPS  H15Y 1320   0.547   5.988   5.160  1.0907 -0.2161  0.0306
   10SAPS  C316 1321   0.740   6.011   5.058  0.1613 -0.3042 -0.1560
   10SAPS  H16X 1322   0.762   5.903   5.046  1.1916  0.0833 -2.2900
   10SAPS  H16Y 1323   0.832   6.072   5.073 -0.1900  0.0560  0.5961
   10SAPS  C317 1324   0.674   6.066   4.932 -0.2094  0.6424 -0.0223
   10SAPS  H17X 1325   0.649   6.173   4.940 -0.5824  0.7914 -2.4135
   10SAPS  H17Y 1326   0.575   6.016   4.927 -0.7411  1.5156  1.4452
   10SAPS  C318 1327   0.758   6.040   4.804  0.2779  0.2816  0.3369
   10SAPS  H18X 1328   0.790   5.934   4.795  0.3761  0.4207 -1.1342
   10SAPS  H18Y 1329   0.844   6.111   4.797  0.5176 -0.1713 -2.0136
   10SAPS  H18Z 1330   0.700   6.046   4.710  1.1774 -1.5215 -0.3762
   11SAPS     N 1331   0.278   5.230   2.375  0.2783 -0.9408  0.0788
   11SAPS   HN1 1332   0.350   5.188   2.436  0.5421 -3.0195 -1.5369
   11SAPS   HN2 1333   0.306   5.326   2.348 -1.7763 -0.2600  0.1892
   11SAPS   HN3 1334   0.192   5.238   2.433  2.1210  1.8699  2.7241
   11SAPS   C12 1335   0.270   5.154   2.250 -0.5596  0.0190  0.1288
   11SAPS  H12A 1336   0.228   5.211   2.168  1.4105  0.2535 -0.7840
   11SAPS   C13 1337   0.408   5.108   2.190 -0.3948 -0.3717  0.4728
   11SAPS  O13A 1338   0.515   5.158   2.237 -0.1411  0.0367  0.4283
   11SAPS  O13B 1339   0.415   5.037   2.082 -0.2729  0.4875 -0.6004
   11SAPS   C11 1340   0.185   5.019   2.271 -0.8444 -0.2745  0.1931
   11SAPS  H11A 1341   0.227   4.954   2.350  1.6254  0.5223 -0.3752
   11SAPS  H11B 1342   0.193   4.963   2.175  1.3459  0.8551 -0.3450
   11SAPS     P 1343  -0.034   5.035   2.421 -0.2224 -0.0734 -0.3582
   11SAPS   O13 1344  -0.120   5.152   2.445  0.1470  0.5955  0.3961
   11SAPS   O14 1345  -0.099   4.900   2.415 -0.0691  0.2666  0.0188
   11SAPS   O12 1346   0.053   5.052   2.287  0.2571  0.3844  0.3260
   11SAPS   O11 1347   0.079   5.037   2.533 -0.1191  0.3527 -0.3192
   11SAPS    C1 1348   0.070   4.957   2.644  0.2320  0.0588 -0.8583
   11SAPS    HA 1349  -0.010   4.880   2.648  1.0603 -0.9157 -2.2225
   11SAPS    HB 1350   0.162   4.897   2.658 -0.7125 -1.6600 -1.7984
   11SAPS    C2 1351   0.077   5.048   2.772  1.2098 -0.1920 -0.0115
   11SAPS    HS 1352   0.058   4.986   2.862 -1.3924  2.4310  1.4299
   11SAPS   O21 1353  -0.014   5.161   2.761  0.6773  0.1099  0.1869
   11SAPS   C21 1354  -0.147   5.125   2.783  0.2466  0.5611 -0.1512
   11SAPS   O22 1355  -0.180   5.010   2.790 -0.2772 -0.1498 -0.6239
   11SAPS   C22 1356  -0.237   5.250   2.805 -0.0496  0.2731 -0.1709
   11SAPS   H2R 1357  -0.261   5.280   2.701 -3.3251  0.0170  0.3939
   11SAPS   H2S 1358  -0.337   5.221   2.844  1.1160  0.7916  3.6234
   11SAPS    C3 1359   0.219   5.099   2.805  0.3935 -0.4919  0.0372
   11SAPS    HX 1360   0.240   5.174   2.726 -1.8403  0.3417  0.1532
   11SAPS    HY 1361   0.291   5.015   2.794 -0.2536 -0.8033 -2.9634
   11SAPS   O31 1362   0.217   5.153   2.941 -0.1781 -0.5280 -0.6027
   11SAPS   C31 1363   0.257   5.288   2.960  0.6645  0.5827 -0.2917
   11SAPS   O32 1364   0.288   5.360   2.867  0.0544  0.0759 -0.0461
   11SAPS   C32 1365   0.254   5.325   3.102  0.0341 -0.6328 -0.3465
   11SAPS   H2X 1366   0.246   5.230   3.159  1.7739  0.4768  1.8778
   11SAPS   H2Y 1367   0.170   5.394   3.125 -0.3437 -0.6268 -1.6579
   11SAPS   C23 1368  -0.188   5.366   2.888  0.5109 -0.4193 -0.4570
   11SAPS   H3R 1369  -0.243   5.453   2.845 -1.6760 -0.9210  1.1416
   11SAPS   H3S 1370  -0.081   5.390   2.874  0.0837  0.6819 -2.2810
   11SAPS   C24 1371  -0.230   5.341   3.033 -0.5746 -0.1230  0.4590
   11SAPS   H4R 1372  -0.186   5.243   3.060 -0.4870 -0.3299 -0.4250
   11SAPS   H4S 1373  -0.340   5.325   3.028 -0.2811 -1.9853 -1.2253
   11SAPS   C25 1374  -0.194   5.452   3.133  0.0242 -0.2249 -0.3775
   11SAPS   H5R 1375  -0.206   5.555   3.097  1.0831 -0.3491 -1.1367
   11SAPS   C26 1376  -0.141   5.436   3.256 -0.2810 -0.4878 -0.9940
   11SAPS   H6R 1377  -0.118   5.523   3.318  2.5289 -0.9545 -1.2595
   11SAPS   C27 1378  -0.126   5.306   3.323  0.9567  0.2214 -0.1527
   11SAPS   H7R 1379  -0.126   5.217   3.257  1.0181  1.2605 -1.6169
   11SAPS   H7S 1380  -0.216   5.294   3.388 -0.4735  1.0379 -1.8845
   11SAPS   C28 1381  -0.006   5.311   3.412  0.2567 -0.4736 -0.9887
   11SAPS   H8R 1382   0.089   5.294   3.359  2.6774  2.5030  1.9526
   11SAPS   C29 1383   0.003   5.316   3.546  1.0696  0.0641 -0.1832
   11SAPS   H9R 1384   0.102   5.301   3.592 -0.0500 -1.7432  1.8342
   11SAPS  C210 1385  -0.110   5.332   3.646  0.0272 -0.6002  0.0548
   11SAPS  H10R 1386  -0.107   5.253   3.724 -1.9492 -1.5949 -0.7779
   11SAPS  H10S 1387  -0.205   5.300   3.596  0.1792 -1.7324  0.4782
   11SAPS  C211 1388  -0.129   5.472   3.692 -0.9738  0.3552  0.3371
   11SAPS  H11R 1389  -0.157   5.548   3.617  1.5235  0.8985 -0.1491
   11SAPS  C212 1390  -0.115   5.513   3.825  0.5322 -0.0393  0.9771
   11SAPS  H12R 1391  -0.125   5.621   3.839  0.0290  0.2800 -1.4378
   11SAPS  C213 1392  -0.083   5.424   3.939  0.1383  0.4554  0.1889
   11SAPS  H13R 1393  -0.156   5.340   3.935 -1.8921  2.1956 -1.1568
   11SAPS  H13S 1394  -0.107   5.473   4.036  1.0809 -2.0055  1.7804
   11SAPS  C214 1395   0.054   5.359   3.942 -0.3575  0.4435  0.3163
   11SAPS  H14R 1396   0.086   5.320   3.844  1.7977  0.3393  1.0309
   11SAPS  C215 1397   0.134   5.353   4.049 -0.0258  0.6061 -0.0268
   11SAPS  H15R 1398   0.234   5.313   4.027  0.1774  0.9265  0.2955
   11SAPS  C216 1399   0.100   5.405   4.194  0.5372 -0.0062  0.2297
   11SAPS  H16R 1400  -0.006   5.415   4.228  1.6162  1.3094  3.7071
   11SAPS  H16S 1401   0.128   5.513   4.200  0.4811  0.0693 -0.6826
   11SAPS  C217 1402   0.154   5.318   4.303 -0.3407 -0.1957 -0.1517
   11SAPS  H17R 1403   0.261   5.294   4.285  0.1172  0.6848  1.2622
   11SAPS  H17S 1404   0.106   5.221   4.326 -1.2565  0.1870 -0.4148
   11SAPS  C218 1405   0.152   5.392   4.444 -0.4652 -0.3843 -0.4211
   11SAPS  H18R 1406   0.052   5.388   4.492  0.3082 -0.3818  1.2775
   11SAPS  H18S 1407   0.180   5.499   4.431  1.9408 -0.8077  0.7631
   11SAPS  C219 1408   0.257   5.349   4.548 -0.4106  0.1456  0.5510
   11SAPS  H19R 1409   0.244   5.425   4.628 -0.0650  0.9870 -0.1703
   11SAPS  H19S 1410   0.356   5.363   4.499  1.0400 -1.8207  2.7188
   11SAPS  C220 1411   0.252   5.210   4.601 -0.0730 -0.2028  0.0762
   11SAPS  H20R 1412   0.149   5.167   4.600 -0.7615  1.2210 -3.3722
   11SAPS  H20S 1413   0.302   5.199   4.700 -0.5069  0.0395  0.3240
   11SAPS  H20T 1414   0.314   5.138   4.543  1.0034 -0.0809  1.0435
   11SAPS   C33 1415   0.378   5.404   3.141 -0.3221  0.1452  0.1596
   11SAPS   H3X 1416   0.383   5.490   3.072  0.4131 -1.6202 -2.1363
   11SAPS   H3Y 1417   0.466   5.337   3.129 -0.2505  0.1275  0.7321
   11SAPS   C34 1418   0.373   5.442   3.293  0.2412  0.1463  0.1206
   11SAPS   H4X 1419   0.292   5.505   3.335  0.0429 -1.6071  2.5586
   11SAPS   H4Y 1420   0.455   5.516   3.309 -0.2221  0.3319  1.8580
   11SAPS   C35 1421   0.393   5.321   3.386 -0.8017  0.0216 -1.2017
   11SAPS   H5X 1422   0.485   5.266   3.356  0.0385  1.2039 -0.8321
   11SAPS   H5Y 1423   0.312   5.247   3.369 -0.7705 -0.1362 -0.6794
   11SAPS   C36 1424   0.387   5.350   3.541  0.0118 -0.3224  0.0151
   11SAPS   H6X 1425   0.382   5.253   3.595  1.0102 -1.6494 -2.1144
   11SAPS   H6Y 1426   0.291   5.394   3.575 -0.1335 -1.8250  1.6841
   11SAPS   C37 1427   0.515   5.431   3.579 -0.8899  0.2917  0.3964
   11SAPS   H7X 1428   0.517   5.523   3.516 -2.3109 -0.3072 -0.5905
   11SAPS   H7Y 1429   0.604   5.368   3.555 -1.0040  0.8045 -1.5391
   11SAPS   C38 1430   0.523   5.482   3.719  0.4617  0.3679 -0.3917
   11SAPS   H8X 1431   0.429   5.539   3.738  0.6177  0.2967  0.6426
   11SAPS   H8Y 1432   0.598   5.563   3.720 -1.0196  1.8013 -0.1723
   11SAPS   C39 1433   0.549   5.370   3.815  0.8499  0.3115  0.5321
   11SAPS   H9X 1434   0.649   5.330   3.788  0.2360 -2.3213  1.9007
   11SAPS   H9Y 1435   0.476   5.287   3.812  1.7218 -0.4561 -1.7052
   11SAPS  C310 1436   0.540   5.418   3.959  0.1930  0.1264  0.1447
   11SAPS  H10X 1437   0.443   5.468   3.977  0.8878  1.9271 -0.8128
   11SAPS  H10Y 1438   0.614   5.500   3.977 -1.4026  1.2973  1.7564
   11SAPS  C311 1439   0.577   5.307   4.060 -0.2484  0.2454 -0.2419
   11SAPS  H11X 1440   0.654   5.245   4.009  0.7328  1.0639  0.1993
   11SAPS  H11Y 1441   0.488   5.242   4.076 -0.6418  0.5993 -0.9402
   11SAPS  C312 1442   0.651   5.353   4.193  0.2337 -0.1159  0.7063
   11SAPS  H12X 1443   0.749   5.393   4.159 -0.0419  3.3618  3.4814
   11SAPS  H12Y 1444   0.667   5.265   4.258 -1.5606 -0.4079  0.7886
   11SAPS  C313 1445   0.580   5.456   4.280 -0.2983 -0.6794 -0.0663
   11SAPS  H13X 1446   0.503   5.410   4.346 -0.3849  0.3114  0.5482
   11SAPS  H13Y 1447   0.531   5.534   4.217  2.5099  0.8816 -0.4823
   11SAPS  C314 1448   0.679   5.541   4.361  0.5807 -0.6942 -0.4436
   11SAPS  H14X 1449   0.617   5.626   4.396  0.7015 -0.4792 -0.7467
   11SAPS  H14Y 1450   0.758   5.581   4.294  0.8317  2.5678  1.5775
   11SAPS  C315 1451   0.741   5.479   4.490 -0.5343  0.3326  0.0193
   11SAPS  H15X 1452   0.790   5.554   4.554 -1.1624  0.2416  0.6142
   11SAPS  H15Y 1453   0.806   5.391   4.468 -0.4038 -0.0045  1.6735
   11SAPS  C316 1454   0.635   5.423   4.589 -0.1752 -0.6537  0.7766
   11SAPS  H16X 1455   0.599   5.324   4.554 -2.3195 -0.8143  3.1648
   11SAPS  H16Y 1456   0.544   5.486   4.580  0.3514 -0.0899 -0.9697
   11SAPS  C317 1457   0.687   5.398   4.732  0.3518 -0.2469 -0.0561
   11SAPS  H17X 1458   0.704   5.498   4.776 -1.5719  1.3643 -2.7228
   11SAPS  H17Y 1459   0.786   5.347   4.735  0.9740  0.6627 -2.7692
   11SAPS  C318 1460   0.590   5.315   4.820  0.6226  0.6389 -0.0682
   11SAPS  H18X 1461   0.553   5.221   4.775 -0.6267 -0.9386  3.8731
   11SAPS  H18Y 1462   0.504   5.371   4.864  0.4202 -0.1351  0.5384
   11SAPS  H18Z 1463   0.645   5.270   4.905  0.1557  0.4657  0.1476
   12SAPS     N 1464   0.861   3.734   2.408  0.2719 -0.2821  0.1336
   12SAPS   HN1 1465   0.921   3.678   2.472  1.1198  0.5754  0.1099
   12SAPS   HN2 1466   0.844   3.826   2.453  0.5377 -0.9081  1.5526
   12SAPS   HN3 1467   0.771   3.693   2.377 -0.1409  2.3169 -2.6283
   12SAPS   C12 1468   0.938   3.756   2.284  0.5345 -0.5144 -0.2714
   12SAPS  H12A 1469   0.878   3.821   2.223  0.2775  2.4228  2.8287
   12SAPS   C13 1470   1.079   3.817   2.288  0.3426 -0.3504 -0.6063
   12SAPS  O13A 1471   1.128   3.852   2.400  0.6981 -0.5286  0.5697
   12SAPS  O13B 1472   1.147   3.818   2.181 -0.3805  0.0895 -0.1965
   12SAPS   C11 1473   0.943   3.623   2.210 -0.2830  0.0538 -0.1950
   12SAPS  H11A 1474   0.990   3.545   2.274 -0.0375 -0.2722 -0.7678
   12SAPS  H11B 1475   0.999   3.635   2.115 -1.1568  0.4719 -0.6673
   12SAPS     P 1476   0.783   3.497   2.050  0.0833  0.0445  0.1122
   12SAPS   O13 1477   0.705   3.580   1.957 -0.0956 -0.4683 -0.4406
   12SAPS   O14 1478   0.903   3.448   1.991  0.0110  0.1140  0.1709
   12SAPS   O12 1479   0.810   3.582   2.181 -0.1700 -0.2100  0.5215
   12SAPS   O11 1480   0.698   3.373   2.098 -0.0763 -0.1537  0.5809
   12SAPS    C1 1481   0.722   3.315   2.222  0.4016 -0.0363 -0.5884
   12SAPS    HA 1482   0.718   3.204   2.213  0.2262  0.0630 -1.8976
   12SAPS    HB 1483   0.818   3.329   2.276 -1.1041  1.4127  1.8835
   12SAPS    C2 1484   0.625   3.379   2.330  0.0291  0.3546 -0.2683
   12SAPS    HS 1485   0.661   3.484   2.335  3.9851 -0.8780  1.5131
   12SAPS   O21 1486   0.637   3.315   2.459 -1.2536 -0.3825 -0.2686
   12SAPS   C21 1487   0.717   3.380   2.536 -0.2553  0.9991 -0.0498
   12SAPS   O22 1488   0.810   3.454   2.506 -0.3766 -0.8961 -0.2161
   12SAPS   C22 1489   0.690   3.325   2.680 -0.0602  0.0457 -0.8850
   12SAPS   H2R 1490   0.592   3.274   2.676  0.1321 -0.4833  0.5984
   12SAPS   H2S 1491   0.757   3.240   2.703 -2.7179 -0.8403  5.6783
   12SAPS    C3 1492   0.480   3.382   2.286  0.3948  0.0455 -0.0869
   12SAPS    HX 1493   0.445   3.277   2.277 -0.3751  0.2653  0.2550
   12SAPS    HY 1494   0.483   3.432   2.187 -2.0823 -0.1688 -0.3136
   12SAPS   O31 1495   0.401   3.461   2.377 -0.1071 -0.0178  0.0279
   12SAPS   C31 1496   0.346   3.379   2.473  0.2827  0.5654  0.1837
   12SAPS   O32 1497   0.331   3.254   2.467  0.3696 -0.8689 -0.2172
   12SAPS   C32 1498   0.308   3.464   2.590  1.1530  0.0995  0.5779
   12SAPS   H2X 1499   0.221   3.527   2.564 -1.2916 -1.3143  4.4976
   12SAPS   H2Y 1500   0.397   3.528   2.610  1.3902 -0.3569  1.0162
   12SAPS   C23 1501   0.705   3.434   2.792  0.3235 -0.5222 -0.3840
   12SAPS   H3R 1502   0.660   3.390   2.883  0.2463  0.2751 -0.0239
   12SAPS   H3S 1503   0.658   3.531   2.765  2.4910  0.6397 -0.1854
   12SAPS   C24 1504   0.854   3.475   2.823 -0.5045  0.0116  0.0653
   12SAPS   H4R 1505   0.895   3.537   2.740  1.6974  0.5846  1.4941
   12SAPS   H4S 1506   0.905   3.377   2.833  0.1871  0.3843  0.2578
   12SAPS   C25 1507   0.877   3.555   2.951 -0.4558 -0.7038 -0.9873
   12SAPS   H5R 1508   0.907   3.660   2.942 -1.5319  0.1979  3.3043
   12SAPS   C26 1509   0.861   3.506   3.079  0.2491 -0.6079 -0.5434
   12SAPS   H6R 1510   0.873   3.578   3.162  0.2528  0.2558 -1.2793
   12SAPS   C27 1511   0.817   3.375   3.120 -0.2700 -0.1502 -0.0461
   12SAPS   H7R 1512   0.806   3.312   3.029  1.1640 -0.8102  0.2216
   12SAPS   H7S 1513   0.717   3.379   3.170 -0.6756 -4.0323 -0.2571
   12SAPS   C28 1514   0.917   3.312   3.215 -0.6243  0.0688 -0.4309
   12SAPS   H8R 1515   1.023   3.324   3.190  0.5678 -1.2490  3.4039
   12SAPS   C29 1516   0.888   3.243   3.327  0.0887 -0.5767 -0.0330
   12SAPS   H9R 1517   0.977   3.222   3.388  1.2258  2.0147 -0.6752
   12SAPS  C210 1518   0.748   3.218   3.375  0.0630 -0.6034  0.2136
   12SAPS  H10R 1519   0.668   3.245   3.303 -0.9921  1.2586  1.9915
   12SAPS  H10S 1520   0.716   3.275   3.465 -2.2595 -1.5942  0.0770
   12SAPS  C211 1521   0.740   3.071   3.416  0.3626 -0.1371  0.2249
   12SAPS  H11R 1522   0.700   3.014   3.331 -0.9722 -0.2448  0.8929
   12SAPS  C212 1523   0.768   3.016   3.538 -0.7553 -0.1405  0.6555
   12SAPS  H12R 1524   0.741   2.914   3.565 -1.5548  0.1104  0.8137
   12SAPS  C213 1525   0.822   3.096   3.652  0.5203 -0.7278 -0.1314
   12SAPS  H13R 1526   0.737   3.154   3.693  1.9634  1.6867 -0.3223
   12SAPS  H13S 1527   0.902   3.171   3.631  0.9331 -0.9199  0.7096
   12SAPS  C214 1528   0.877   3.018   3.765 -0.3379  0.4955 -0.0453
   12SAPS  H14R 1529   0.976   2.978   3.741 -0.6977 -0.1903 -0.4118
   12SAPS  C215 1530   0.826   2.982   3.889  0.2352 -0.2615  1.2229
   12SAPS  H15R 1531   0.896   2.935   3.959  2.0068 -0.4199 -0.5811
   12SAPS  C216 1532   0.687   3.020   3.944  0.8009  0.0187  0.3674
   12SAPS  H16R 1533   0.624   2.931   3.965  0.5240 -0.4407 -2.0822
   12SAPS  H16S 1534   0.626   3.083   3.876  0.4585  1.3003  1.8123
   12SAPS  C217 1535   0.693   3.107   4.060  0.1434 -0.4332 -0.5409
   12SAPS  H17R 1536   0.589   3.139   4.084  0.6350  1.0319 -0.2582
   12SAPS  H17S 1537   0.753   3.200   4.051 -1.6786  0.8556 -0.1091
   12SAPS  C218 1538   0.730   3.032   4.195  0.4389 -0.0187  0.0019
   12SAPS  H18R 1539   0.834   2.995   4.183 -0.1321 -1.7088 -0.0541
   12SAPS  H18S 1540   0.659   2.948   4.210 -1.0719  1.2517  0.1993
   12SAPS  C219 1541   0.709   3.121   4.320  0.3843 -0.6935 -0.7488
   12SAPS  H19R 1542   0.601   3.145   4.315  0.5412  0.1576 -0.1379
   12SAPS  H19S 1543   0.759   3.220   4.310  1.3135 -1.0962 -0.2391
   12SAPS  C220 1544   0.737   3.076   4.459 -0.8508  0.2878 -0.1561
   12SAPS  H20R 1545   0.717   3.150   4.539 -0.7173 -1.4940  1.5999
   12SAPS  H20S 1546   0.842   3.043   4.477 -0.6233  0.1143 -1.6893
   12SAPS  H20T 1547   0.688   2.980   4.486 -0.0336  0.1857  1.0982
   12SAPS   C33 1548   0.272   3.379   2.720 -0.1751 -0.1673  0.1269
   12SAPS   H3X 1549   0.345   3.297   2.739 -1.0956 -1.0657 -0.0794
   12SAPS   H3Y 1550   0.176   3.334   2.685 -0.3009 -1.0034  1.4627
   12SAPS   C34 1551   0.240   3.461   2.845 -0.2652 -0.1332  0.5524
   12SAPS   H4X 1552   0.147   3.519   2.823 -0.7927 -0.8288  0.8819
   12SAPS   H4Y 1553   0.327   3.526   2.863 -0.6575  1.0417 -1.4958
   12SAPS   C35 1554   0.235   3.364   2.967 -0.0078  0.0698  0.1082
   12SAPS   H5X 1555   0.324   3.298   2.978 -0.3458 -0.5400 -0.7350
   12SAPS   H5Y 1556   0.154   3.289   2.958 -1.5466  1.6855 -0.1132
   12SAPS   C36 1557   0.213   3.432   3.103  0.0053 -0.1670  0.2634
   12SAPS   H6X 1558   0.114   3.482   3.106 -0.1196 -0.4368  0.7720
   12SAPS   H6Y 1559   0.299   3.502   3.110 -0.1569  0.3047 -1.8677
   12SAPS   C37 1560   0.214   3.344   3.219  0.4904 -0.0196  0.1844
   12SAPS   H7X 1561   0.148   3.255   3.207 -1.2408  0.9872  1.7209
   12SAPS   H7Y 1562   0.161   3.405   3.295 -0.3613 -0.5678  0.0558
   12SAPS   C38 1563   0.348   3.291   3.273 -0.9435  0.0598 -0.4768
   12SAPS   H8X 1564   0.428   3.368   3.280 -1.2863  0.3923 -0.1803
   12SAPS   H8Y 1565   0.379   3.208   3.207  1.9614  0.3789  0.3518
   12SAPS   C39 1566   0.344   3.221   3.418  0.7065 -0.2347  0.1394
   12SAPS   H9X 1567   0.435   3.162   3.443 -0.0236 -1.2842  0.3866
   12SAPS   H9Y 1568   0.261   3.147   3.420  1.8665 -1.6465 -1.2936
   12SAPS  C310 1569   0.315   3.317   3.531  0.2777 -0.0014 -0.2675
   12SAPS  H10X 1570   0.216   3.366   3.516  1.0562  2.0071  0.7644
   12SAPS  H10Y 1571   0.392   3.395   3.550 -0.7245  0.6920  1.1617
   12SAPS  C311 1572   0.301   3.241   3.669 -0.1295 -0.8310  0.1461
   12SAPS  H11X 1573   0.385   3.176   3.701 -0.4328 -0.3567  2.0465
   12SAPS  H11Y 1574   0.209   3.179   3.669 -2.5959  2.4968  1.1490
   12SAPS  C312 1575   0.269   3.337   3.793 -0.0396  0.6468  0.3236
   12SAPS  H12X 1576   0.168   3.379   3.772  0.4550  1.2384 -1.0007
   12SAPS  H12Y 1577   0.346   3.418   3.791  0.1267  0.5072 -1.9753
   12SAPS  C313 1578   0.264   3.261   3.926 -0.0871 -0.4180 -0.5722
   12SAPS  H13X 1579   0.368   3.224   3.942 -0.0222  0.6326  1.9786
   12SAPS  H13Y 1580   0.202   3.169   3.920  1.3946 -1.7778  2.5410
   12SAPS  C314 1581   0.228   3.347   4.056 -0.7385  0.2705  0.3352
   12SAPS  H14X 1582   0.193   3.291   4.145 -0.4623  2.3430  1.7924
   12SAPS  H14Y 1583   0.140   3.406   4.022  0.1200  1.0115 -0.6604
   12SAPS  C315 1584   0.353   3.426   4.101  0.2347  1.5295 -0.0407
   12SAPS  H15X 1585   0.409   3.447   4.008  1.6316 -0.6222  0.2533
   12SAPS  H15Y 1586   0.419   3.360   4.160  0.8426 -0.4306 -2.7535
   12SAPS  C316 1587   0.307   3.558   4.173 -0.3445 -0.4823  0.3446
   12SAPS  H16X 1588   0.252   3.527   4.265  0.6204  2.0831  1.9000
   12SAPS  H16Y 1589   0.226   3.601   4.110  0.7979 -0.5436 -1.2362
   12SAPS  C317 1590   0.409   3.647   4.223 -0.6647 -0.6229 -0.4608
   12SAPS  H17X 1591   0.369   3.730   4.286  1.6166 -1.0232  1.6696
   12SAPS  H17Y 1592   0.467   3.698   4.143  0.1113 -0.8756 -0.0724
   12SAPS  C318 1593   0.524   3.586   4.298 -0.0998  0.2945  0.1077
   12SAPS  H18X 1594   0.498   3.553   4.401  0.5621 -1.0789 -0.1439
   12SAPS  H18Y 1595   0.602   3.664   4.306 -2.0167  2.5292 -1.3080
   12SAPS  H18Z 1596   0.567   3.496   4.250  2.3245  1.2878  0.3101
   13SAPS     N 1597   6.030   2.781   2.437 -0.0809  0.0502 -0.4685
   13SAPS   HN1 1598   5.962   2.730   2.376 -0.2001 -0.1503 -0.1701
   13SAPS   HN2 1599   6.119   2.795   2.384  0.0001 -0.9087 -0.6045
   13SAPS   HN3 1600   6.058   2.723   2.519 -0.8530 -1.4741 -1.2323
   13SAPS   C12 1601   5.967   2.912   2.472 -0.0540 -0.0041 -0.2148
   13SAPS  H12A 1602   5.929   2.957   2.382 -1.9534  2.7232  1.7702
   13SAPS   C13 1603   5.844   2.911   2.566  0.1559  0.1585 -0.1353
   13SAPS  O13A 1604   5.797   2.803   2.608  0.1686 -0.3037 -0.0692
   13SAPS  O13B 1605   5.776   3.017   2.574 -0.2998 -0.2489 -0.6824
   13SAPS   C11 1606   6.071   3.013   2.544  0.2234 -0.0329 -0.5094
   13SAPS  H11A 1607   6.107   2.962   2.636  2.5794 -0.6422 -1.6664
   13SAPS  H11B 1608   6.020   3.103   2.583 -1.8248 -0.9025 -1.0653
   13SAPS     P 1609   6.318   2.995   2.455 -0.1642 -0.2732  0.2198
   13SAPS   O13 1610   6.302   2.850   2.420 -0.3879 -0.4978  0.0649
   13SAPS   O14 1611   6.413   3.070   2.371  0.2465 -0.3955 -0.0700
   13SAPS   O12 1612   6.178   3.058   2.455  0.0489 -0.2274  0.1012
   13SAPS   O11 1613   6.360   3.020   2.602  0.2125  0.3422 -0.6291
   13SAPS    C1 1614   6.387   3.160   2.642  1.3005 -0.6625  0.3281
   13SAPS    HA 1615   6.452   3.216   2.572 -0.7249 -0.8682 -1.8763
   13SAPS    HB 1616   6.290   3.214   2.646  1.4240 -0.4633  0.6522
   13SAPS    C2 1617   6.451   3.161   2.784  0.4532 -0.8353 -0.6521
   13SAPS    HS 1618   6.554   3.119   2.787  0.4451 -0.8368 -0.3560
   13SAPS   O21 1619   6.348   3.108   2.872  0.5596  0.1930  0.1537
   13SAPS   C21 1620   6.387   3.039   2.977 -0.3768 -0.3753 -0.1578
   13SAPS   O22 1621   6.507   3.035   3.006 -0.0792  0.1916 -0.1992
   13SAPS   C22 1622   6.273   2.977   3.055 -0.0959  0.4567  0.8530
   13SAPS   H2R 1623   6.208   3.053   3.102 -0.6093  1.2415 -1.0492
   13SAPS   H2S 1624   6.209   2.919   2.984 -0.2430  2.0722 -0.3838
   13SAPS    C3 1625   6.476   3.307   2.822  0.3949  0.4973  0.1248
   13SAPS    HX 1626   6.384   3.366   2.805 -0.2972 -0.9432 -1.4296
   13SAPS    HY 1627   6.547   3.342   2.745  0.8619  0.8603  0.7114
   13SAPS   O31 1628   6.525   3.327   2.957 -0.5760 -0.4805 -0.2057
   13SAPS   C31 1629   6.659   3.308   2.975 -0.3084 -0.2340 -0.3439
   13SAPS   O32 1630   6.744   3.302   2.890 -0.4045 -0.0947  0.3783
   13SAPS   C32 1631   6.690   3.278   3.123 -0.0550  0.3021  0.4550
   13SAPS   H2X 1632   6.800   3.272   3.121 -0.0838 -0.4996  0.8670
   13SAPS   H2Y 1633   6.646   3.177   3.141  0.9859  0.0456  1.7092
   13SAPS   C23 1634   6.331   2.876   3.156  0.5246  0.5987 -0.6021
   13SAPS   H3R 1635   6.409   2.932   3.213  2.9139 -3.9767  1.1135
   13SAPS   H3S 1636   6.393   2.799   3.106  2.8496  1.9731 -0.0142
   13SAPS   C24 1637   6.219   2.827   3.256 -0.6228  0.6361  0.0565
   13SAPS   H4R 1638   6.264   2.753   3.326 -1.4360  0.4892  0.4445
   13SAPS   H4S 1639   6.146   2.769   3.197  2.4755 -2.8943 -0.6824
   13SAPS   C25 1640   6.136   2.930   3.323  0.1247  0.1152 -0.4276
   13SAPS   H5R 1641   6.115   3.021   3.266  0.9479  1.4044  1.2146
   13SAPS   C26 1642   6.075   2.916   3.439  0.2648 -0.8890 -0.7926
   13SAPS   H6R 1643   6.013   2.996   3.482  0.1795 -0.8086 -1.0611
   13SAPS   C27 1644   6.088   2.807   3.545 -0.5795 -0.0728  0.2453
   13SAPS   H7R 1645   6.118   2.863   3.635  0.6195 -0.0892 -0.1346
   13SAPS   H7S 1646   6.167   2.729   3.536 -1.2664 -0.9523  1.4993
   13SAPS   C28 1647   5.954   2.751   3.575  0.0845  0.7309 -0.1548
   13SAPS   H8R 1648   5.922   2.700   3.483 -3.0136  1.3710  0.4311
   13SAPS   C29 1649   5.878   2.744   3.692 -0.3457  0.3335 -0.0259
   13SAPS   H9R 1650   5.777   2.703   3.676  0.0249 -0.6321  0.0259
   13SAPS  C210 1651   5.899   2.809   3.829 -0.1412  0.6038  0.5708
   13SAPS  H10R 1652   5.811   2.856   3.878 -1.3920  0.4107 -1.3834
   13SAPS  H10S 1653   5.965   2.895   3.805 -2.4127  1.8467 -1.5927
   13SAPS  C211 1654   5.971   2.722   3.934  0.5828 -0.2627  0.1840
   13SAPS  H11R 1655   6.058   2.668   3.892 -0.0020 -1.8217  0.8763
   13SAPS  C212 1656   5.939   2.698   4.062 -0.6131  0.3126 -0.0094
   13SAPS  H12R 1657   6.016   2.651   4.126  0.2083  0.7947 -0.6127
   13SAPS  C213 1658   5.822   2.747   4.137 -0.2823  0.0845  0.5465
   13SAPS  H13R 1659   5.751   2.665   4.160  0.9587 -1.6336 -1.3716
   13SAPS  H13S 1660   5.765   2.819   4.074  2.1540  2.1918  0.5716
   13SAPS  C214 1661   5.862   2.824   4.260  0.0463  0.0709  0.4768
   13SAPS  H14R 1662   5.863   2.763   4.351 -0.0743 -0.4333  0.1441
   13SAPS  C215 1663   5.898   2.952   4.273 -0.1108 -0.3977 -0.3311
   13SAPS  H15R 1664   5.936   2.977   4.373 -2.0338 -2.3420  0.9635
   13SAPS  C216 1665   5.910   3.045   4.156 -0.7579 -0.6131 -0.1179
   13SAPS  H16R 1666   5.876   2.991   4.065  1.5722  0.8828 -2.0181
   13SAPS  H16S 1667   6.015   3.069   4.127 -0.6067 -1.0363  0.0649
   13SAPS  C217 1668   5.814   3.171   4.178 -0.4036  0.2366 -0.6534
   13SAPS  H17R 1669   5.831   3.224   4.274 -3.0110  1.4555 -0.7983
   13SAPS  H17S 1670   5.708   3.138   4.176  0.0278 -1.2837 -0.2500
   13SAPS  C218 1671   5.841   3.286   4.079  0.0301  0.8238 -0.1592
   13SAPS  H18R 1672   5.837   3.248   3.975  1.0747  0.3713 -0.0440
   13SAPS  H18S 1673   5.951   3.301   4.088  0.1026 -0.1209  0.7340
   13SAPS  C219 1674   5.769   3.420   4.094 -0.6360  0.5633  0.2941
   13SAPS  H19R 1675   5.661   3.403   4.071 -0.3399 -2.3678  0.6992
   13SAPS  H19S 1676   5.824   3.481   4.019  0.9941 -1.9032 -0.6070
   13SAPS  C220 1677   5.770   3.474   4.237 -0.4831 -0.5987  0.1305
   13SAPS  H20R 1678   5.860   3.449   4.297 -0.1085  0.2780 -0.0568
   13SAPS  H20S 1679   5.684   3.423   4.286 -0.6542  0.2347  0.7208
   13SAPS  H20T 1680   5.747   3.582   4.248 -0.2583 -0.5848  0.4792
   13SAPS   C33 1681   6.629   3.390   3.208  0.2547 -0.2398  0.2730
   13SAPS   H3X 1682   6.519   3.386   3.228  0.2033 -4.2306  0.0122
   13SAPS   H3Y 1683   6.665   3.480   3.154  3.8559 -2.0833 -0.6650
   13SAPS   C34 1684   6.711   3.394   3.343  0.3406  0.6172  0.0279
   13SAPS   H4X 1685   6.685   3.481   3.407  0.3607  1.3924 -0.9998
   13SAPS   H4Y 1686   6.821   3.402   3.328  0.3541 -2.1786 -2.2452
   13SAPS   C35 1687   6.676   3.269   3.436  0.8880  0.0532 -0.2572
   13SAPS   H5X 1688   6.721   3.179   3.389  3.8068  1.4057 -0.2796
   13SAPS   H5Y 1689   6.567   3.274   3.456  1.2960  0.6195  2.0420
   13SAPS   C36 1690   6.744   3.282   3.570 -0.7008 -0.4152 -0.3010
   13SAPS   H6X 1691   6.732   3.383   3.616 -1.2692 -2.1470  3.6988
   13SAPS   H6Y 1692   6.853   3.268   3.552 -0.3203  0.3982  1.2098
   13SAPS   C37 1693   6.694   3.173   3.672 -0.1402 -0.1396 -0.4747
   13SAPS   H7X 1694   6.715   3.072   3.629 -0.4720 -0.2200 -0.4553
   13SAPS   H7Y 1695   6.585   3.165   3.692 -0.4987 -2.3180 -2.7675
   13SAPS   C38 1696   6.769   3.185   3.807  0.3571 -0.2246  0.1799
   13SAPS   H8X 1697   6.746   3.284   3.853  1.2473 -0.0926  0.3595
   13SAPS   H8Y 1698   6.879   3.184   3.789  0.7384 -0.8072  2.2284
   13SAPS   C39 1699   6.723   3.073   3.903  0.4329 -0.0153 -0.7394
   13SAPS   H9X 1700   6.760   2.975   3.866 -0.5690 -0.3274 -0.9536
   13SAPS   H9Y 1701   6.613   3.069   3.918  0.5445 -0.8535 -0.0886
   13SAPS  C310 1702   6.765   3.099   4.049 -0.4347 -0.7932  0.0401
   13SAPS  H10X 1703   6.864   3.147   4.062 -0.6446 -0.2551 -0.3594
   13SAPS  H10Y 1704   6.751   2.995   4.087 -0.9907 -0.0696  1.9291
   13SAPS  C311 1705   6.680   3.199   4.139  0.8103 -0.7609  0.2455
   13SAPS  H11X 1706   6.666   3.288   4.073  2.1134 -1.8726 -1.6334
   13SAPS  H11Y 1707   6.738   3.219   4.231 -0.4337 -0.2131  0.9355
   13SAPS  C312 1708   6.533   3.149   4.173 -0.4347 -0.3390 -0.2690
   13SAPS  H12X 1709   6.472   3.144   4.080  2.4061  0.1536 -2.3041
   13SAPS  H12Y 1710   6.493   3.234   4.232  0.3203 -0.8889  1.0604
   13SAPS  C313 1711   6.519   3.010   4.231 -0.0927  0.6941 -0.1815
   13SAPS  H13X 1712   6.591   2.980   4.311 -3.1467 -2.7316  1.6141
   13SAPS  H13Y 1713   6.528   2.943   4.142 -2.5649  1.3964 -1.0310
   13SAPS  C314 1714   6.374   2.978   4.279  0.1453 -0.3443 -0.2797
   13SAPS  H14X 1715   6.366   2.871   4.309 -1.0466  0.3049  1.9489
   13SAPS  H14Y 1716   6.298   3.000   4.201 -1.7067 -0.1445  1.4818
   13SAPS  C315 1717   6.350   3.051   4.419 -0.6153  0.0095 -0.1361
   13SAPS  H15X 1718   6.347   3.162   4.412 -0.0636  0.1185  1.1409
   13SAPS  H15Y 1719   6.432   3.048   4.493  0.4724 -0.0217 -1.3062
   13SAPS  C316 1720   6.222   3.014   4.487 -0.1916  0.9274  0.0778
   13SAPS  H16X 1721   6.227   2.903   4.484 -0.0516  0.9429 -2.4842
   13SAPS  H16Y 1722   6.124   3.037   4.440 -0.8167 -2.7173 -0.7040
   13SAPS  C317 1723   6.219   3.056   4.637  0.1023 -0.2461 -1.1688
   13SAPS  H17X 1724   6.114   3.057   4.674  0.7136  0.2858  0.6541
   13SAPS  H17Y 1725   6.258   3.159   4.645  0.2815 -0.4486  1.4569
   13SAPS  C318 1726   6.290   2.965   4.742  0.3998  0.2537  0.1584
   13SAPS  H18X 1727   6.274   3.015   4.840 -0.9984  3.0234 -1.3508
   13SAPS  H18Y 1728   6.397   2.953   4.718  0.2355 -2.3775  0.5029
   13SAPS  H18Z 1729   6.236   2.868   4.744 -0.5305  0.7476 -0.1186
   14SAPS     N 1730   0.846   1.566   2.082  0.5030 -0.3037 -0.1233
   14SAPS   HN1 1731   0.821   1.465   2.087  0.1727 -0.1849  0.7238
   14SAPS   HN2 1732   0.922   1.571   2.011  0.5771 -0.2207 -0.0370
   14SAPS   HN3 1733   0.861   1.596   2.180 -3.4584  1.4420  0.1205
   14SAPS   C12 1734   0.727   1.642   2.043 -0.0353  0.5139  0.5547
   14SAPS  H12A 1735   0.754   1.745   2.062 -0.6343  1.1249 -1.6403
   14SAPS   C13 1736   0.664   1.615   1.903 -0.1567 -0.0086 -0.2625
   14SAPS  O13A 1737   0.719   1.531   1.830 -0.4028  0.7592  0.0642
   14SAPS  O13B 1738   0.569   1.676   1.861  0.1938 -0.5447 -0.2413
   14SAPS   C11 1739   0.614   1.613   2.155  0.4924 -0.9636  0.0931
   14SAPS  H11A 1740   0.602   1.503   2.165 -0.6179 -1.0020 -1.3509
   14SAPS  H11B 1741   0.525   1.660   2.107  2.3009  1.2353 -1.2900
   14SAPS     P 1742   0.586   1.816   2.321 -0.0761 -0.3642  0.0376
   14SAPS   O13 1743   0.642   1.910   2.224  0.5934 -0.2599  0.2889
   14SAPS   O14 1744   0.441   1.811   2.331 -0.2892 -0.4842  0.3074
   14SAPS   O12 1745   0.641   1.671   2.282 -0.6154  0.2272 -0.2351
   14SAPS   O11 1746   0.639   1.843   2.463  0.2514 -0.2106 -0.7553
   14SAPS    C1 1747   0.770   1.884   2.497 -0.5948 -0.0825 -0.3300
   14SAPS    HA 1748   0.844   1.801   2.498  0.6635  1.0036 -0.0230
   14SAPS    HB 1749   0.808   1.967   2.432  0.3959  1.7899  2.4740
   14SAPS    C2 1750   0.775   1.958   2.644 -0.2838 -0.1423  0.1777
   14SAPS    HS 1751   0.881   1.987   2.661 -0.3276 -0.1429  0.4420
   14SAPS   O21 1752   0.725   1.874   2.743 -0.3825  0.1607  0.2349
   14SAPS   C21 1753   0.795   1.762   2.758  0.1994 -0.1527 -0.5006
   14SAPS   O22 1754   0.906   1.733   2.714 -0.8721  0.5280 -0.2907
   14SAPS   C22 1755   0.711   1.685   2.856 -0.5228  0.0336  0.2474
   14SAPS   H2R 1756   0.630   1.749   2.898 -0.6834  0.5131 -0.7710
   14SAPS   H2S 1757   0.668   1.598   2.802  1.8049 -0.7734 -0.4313
   14SAPS    C3 1758   0.676   2.084   2.633  0.4861 -0.2083 -0.3550
   14SAPS    HX 1759   0.573   2.047   2.611  0.7449 -0.5808 -0.9732
   14SAPS    HY 1760   0.713   2.158   2.559  4.3142  0.4737  1.9860
   14SAPS   O31 1761   0.673   2.151   2.761 -0.1516  0.0138 -0.2827
   14SAPS   C31 1762   0.588   2.255   2.768 -0.8064  0.0415 -0.0055
   14SAPS   O32 1763   0.529   2.302   2.673 -0.3154  0.7105 -0.0779
   14SAPS   C32 1764   0.569   2.306   2.915  0.7368  0.0957  0.0068
   14SAPS   H2X 1765   0.602   2.226   2.985 -2.1963 -0.2407  1.1640
   14SAPS   H2Y 1766   0.458   2.299   2.923  0.8136 -0.0686  1.1630
   14SAPS   C23 1767   0.798   1.630   2.970 -0.4041 -0.0605  0.2559
   14SAPS   H3R 1768   0.849   1.719   3.013 -0.8318  0.2108  0.2140
   14SAPS   H3S 1769   0.884   1.581   2.920  0.8163  1.3706  0.8735
   14SAPS   C24 1770   0.719   1.544   3.067  0.4294  0.0888  0.5097
   14SAPS   H4R 1771   0.805   1.495   3.119  0.2386 -0.4264  0.3459
   14SAPS   H4S 1772   0.677   1.463   3.004  1.0552  0.2736 -0.1624
   14SAPS   C25 1773   0.611   1.617   3.148 -0.3235  0.3624 -0.1638
   14SAPS   H5R 1774   0.548   1.694   3.101 -1.1582 -0.3513 -0.2280
   14SAPS   C26 1775   0.592   1.594   3.283  0.8163 -0.0817 -0.5090
   14SAPS   H6R 1776   0.508   1.653   3.321  1.5113  0.3588  0.3685
   14SAPS   C27 1777   0.665   1.493   3.373  0.9129 -0.5558  0.0973
   14SAPS   H7R 1778   0.743   1.448   3.309  1.2022  0.2144 -0.1008
   14SAPS   H7S 1779   0.595   1.416   3.413 -3.5877  1.2635 -3.3745
   14SAPS   C28 1780   0.733   1.552   3.489 -0.0569 -0.3445  0.4422
   14SAPS   H8R 1781   0.822   1.613   3.469  0.0556 -0.4062  0.7406
   14SAPS   C29 1782   0.705   1.538   3.618  0.0872  0.4079 -0.0320
   14SAPS   H9R 1783   0.772   1.587   3.690  1.0124  0.3595 -0.8319
   14SAPS  C210 1784   0.586   1.472   3.684 -0.0288  0.7032  0.4394
   14SAPS  H10R 1785   0.586   1.364   3.657 -0.2174  0.4939  1.2505
   14SAPS  H10S 1786   0.500   1.515   3.628 -0.2144  0.9439  0.9054
   14SAPS  C211 1787   0.592   1.465   3.838 -0.0756  0.0225  0.4730
   14SAPS  H11R 1788   0.664   1.395   3.885  0.0166  0.8920  1.6710
   14SAPS  C212 1789   0.512   1.516   3.933 -0.2949 -0.1507 -0.0442
   14SAPS  H12R 1790   0.526   1.489   4.038 -1.1469 -0.7322 -0.0773
   14SAPS  C213 1791   0.390   1.603   3.917  0.0266 -0.6336  0.2272
   14SAPS  H13R 1792   0.322   1.589   4.003 -1.9377 -1.1163 -1.3315
   14SAPS  H13S 1793   0.333   1.565   3.830  0.2727 -1.4993  0.4327
   14SAPS  C214 1794   0.443   1.745   3.897  0.2481 -0.0976  0.0286
   14SAPS  H14R 1795   0.546   1.763   3.863  0.3501 -0.1290  0.3135
   14SAPS  C215 1796   0.375   1.865   3.914 -0.3881  0.4807  0.4149
   14SAPS  H15R 1797   0.434   1.957   3.917 -0.5794  0.7591 -2.1877
   14SAPS  C216 1798   0.232   1.889   3.964  0.0370 -0.2277 -0.0460
   14SAPS  H16R 1799   0.162   1.802   3.964 -0.0981 -0.1912 -2.3783
   14SAPS  H16S 1800   0.179   1.968   3.907 -1.3058 -0.5250  0.7590
   14SAPS  C217 1801   0.240   1.922   4.114  0.0672 -0.1341 -0.6953
   14SAPS  H17R 1802   0.326   1.988   4.139 -0.1975 -0.1374  0.2684
   14SAPS  H17S 1803   0.249   1.825   4.168  0.4780  0.0101 -0.5008
   14SAPS  C218 1804   0.111   1.992   4.156  0.8225  0.0594 -0.1007
   14SAPS  H18R 1805   0.017   1.934   4.144  1.6494 -1.3233 -0.0576
   14SAPS  H18S 1806   0.093   2.087   4.100 -0.3823  0.8773  1.5834
   14SAPS  C219 1807   0.114   2.042   4.311  1.1787 -0.2351  0.3107
   14SAPS  H19R 1808   0.198   2.113   4.326  0.6655  0.0694  1.9535
   14SAPS  H19S 1809   0.128   1.950   4.372 -0.4137 -2.0497 -1.8538
   14SAPS  C220 1810  -0.013   2.113   4.357 -0.3028 -0.5431 -0.4398
   14SAPS  H20R 1811  -0.104   2.053   4.338 -0.4970  0.0793 -1.5390
   14SAPS  H20S 1812  -0.017   2.206   4.296  1.6340  0.2315  0.5132
   14SAPS  H20T 1813  -0.001   2.139   4.465 -0.0471 -1.4664 -0.2427
   14SAPS   C33 1814   0.621   2.449   2.945 -0.7078 -0.0180  0.1493
   14SAPS   H3X 1815   0.570   2.525   2.882 -2.2795 -0.4238  0.8743
   14SAPS   H3Y 1816   0.728   2.441   2.917 -1.2208 -0.1248 -1.9572
   14SAPS   C34 1817   0.613   2.487   3.089 -0.4584 -0.0322 -0.0395
   14SAPS   H4X 1818   0.680   2.572   3.115  0.1170 -0.8083  1.0637
   14SAPS   H4Y 1819   0.674   2.406   3.133  2.1643  2.1475  0.6083
   14SAPS   C35 1820   0.466   2.500   3.134 -0.4031 -0.1899 -0.1961
   14SAPS   H5X 1821   0.412   2.403   3.130 -0.3917 -0.3810  2.3076
   14SAPS   H5Y 1822   0.421   2.579   3.070 -0.1799 -0.0540 -0.1870
   14SAPS   C36 1823   0.454   2.553   3.278 -0.3152  0.4281  0.5300
   14SAPS   H6X 1824   0.505   2.651   3.287 -0.2032  0.2776  1.6525
   14SAPS   H6Y 1825   0.516   2.495   3.350  2.3074  1.8231 -0.4643
   14SAPS   C37 1826   0.308   2.568   3.325 -0.4730  0.0297  0.1725
   14SAPS   H7X 1827   0.263   2.468   3.308 -0.1831  0.1845 -1.7140
   14SAPS   H7Y 1828   0.261   2.632   3.248  2.2389  0.2150 -1.4623
   14SAPS   C38 1829   0.285   2.622   3.471  0.0935 -0.5513  0.9505
   14SAPS   H8X 1830   0.314   2.558   3.557  1.1495  0.0720  1.0768
   14SAPS   H8Y 1831   0.175   2.620   3.481 -0.1735 -1.6786 -1.4013
   14SAPS   C39 1832   0.335   2.768   3.476  0.0435 -0.1274 -0.3756
   14SAPS   H9X 1833   0.283   2.840   3.408  2.5656  1.9717 -0.2316
   14SAPS   H9Y 1834   0.438   2.775   3.434  0.5184 -1.0293  0.5920
   14SAPS  C310 1835   0.336   2.840   3.623  0.1022  0.1202  0.2809
   14SAPS  H10X 1836   0.392   2.936   3.621  0.5187 -0.1107 -1.7570
   14SAPS  H10Y 1837   0.411   2.791   3.689 -0.7386  0.5920  1.6125
   14SAPS  C311 1838   0.199   2.831   3.706  0.2757  0.2483  0.1994
   14SAPS  H11X 1839   0.164   2.726   3.710 -0.5285  0.5505  1.3336
   14SAPS  H11Y 1840   0.134   2.895   3.644 -0.9433 -0.3464  0.8395
   14SAPS  C312 1841   0.219   2.897   3.840 -0.4914  1.2117 -0.2516
   14SAPS  H12X 1842   0.126   2.906   3.900  0.6819  0.2260  1.8462
   14SAPS  H12Y 1843   0.261   2.998   3.819 -0.1932  0.8990 -1.2228
   14SAPS  C313 1844   0.320   2.826   3.933 -0.0532  0.1001 -0.4503
   14SAPS  H13X 1845   0.418   2.808   3.883 -0.1424 -1.4136 -0.1229
   14SAPS  H13Y 1846   0.286   2.730   3.979  0.3587 -0.2051 -0.7688
   14SAPS  C314 1847   0.337   2.914   4.056 -0.4359  0.3521 -0.3647
   14SAPS  H14X 1848   0.366   3.014   4.017  0.1132  0.5101  0.4227
   14SAPS  H14Y 1849   0.428   2.875   4.107 -1.2217 -1.9827 -0.6663
   14SAPS  C315 1850   0.221   2.905   4.157 -0.8264 -0.0752  0.4276
   14SAPS  H15X 1851   0.234   2.816   4.221  3.8706 -0.1509 -0.2589
   14SAPS  H15Y 1852   0.124   2.908   4.102  0.5092 -3.2144 -2.4678
   14SAPS  C316 1853   0.229   3.031   4.257  0.0462 -0.1244 -0.3117
   14SAPS  H16X 1854   0.160   3.113   4.226  2.1165  1.0280 -2.2022
   14SAPS  H16Y 1855   0.334   3.066   4.253 -0.0265  0.1778  0.3484
   14SAPS  C317 1856   0.195   2.992   4.395 -0.3305 -0.0581  0.3076
   14SAPS  H17X 1857   0.236   3.062   4.471  1.4747 -0.5436 -0.1884
   14SAPS  H17Y 1858   0.241   2.893   4.412 -4.0288 -2.0756 -0.4019
   14SAPS  C318 1859   0.041   2.979   4.408  0.2288 -0.2109 -0.1116
   14SAPS  H18X 1860   0.007   2.951   4.510 -0.9519 -0.7230 -0.6213
   14SAPS  H18Y 1861  -0.001   2.912   4.330 -1.5555  2.2528 -1.3978
   14SAPS  H18Z 1862  -0.006   3.075   4.379  0.7327  0.1843  0.3624
   15SAPS     N 1863   0.761   5.140   2.326 -0.4652  0.6535  0.4434
   15SAPS   HN1 1864   0.745   5.108   2.423 -0.1324 -1.2729 -0.0999
   15SAPS   HN2 1865   0.668   5.126   2.283 -0.9418  0.9293  1.3548
   15SAPS   HN3 1866   0.839   5.077   2.298  0.8500  2.6610 -0.7133
   15SAPS   C12 1867   0.813   5.271   2.302  0.6318  0.3245 -0.4308
   15SAPS  H12A 1868   0.915   5.281   2.334  0.3931 -1.2347  0.9548
   15SAPS   C13 1869   0.806   5.311   2.149  0.1052 -0.4139  0.6177
   15SAPS  O13A 1870   0.764   5.236   2.055  0.0364  0.1845  0.4847
   15SAPS  O13B 1871   0.849   5.427   2.127  0.1632  0.7570 -0.1538
   15SAPS   C11 1872   0.725   5.371   2.389 -0.6987  0.7392  0.6159
   15SAPS  H11A 1873   0.623   5.359   2.347 -0.3522 -5.1617  0.5723
   15SAPS  H11B 1874   0.767   5.473   2.379  1.3148 -0.2595 -2.7719
   15SAPS     P 1875   0.836   5.358   2.624 -0.4684  0.0035 -0.1233
   15SAPS   O13 1876   0.799   5.337   2.766  1.1826 -0.4816  0.1556
   15SAPS   O14 1877   0.942   5.260   2.587 -0.5279  0.6009  0.1248
   15SAPS   O12 1878   0.716   5.332   2.527  0.0552 -0.2912 -0.2939
   15SAPS   O11 1879   0.882   5.507   2.597 -0.1723  0.9423  0.1246
   15SAPS    C1 1880   0.793   5.627   2.584 -1.0324  0.1441  0.2329
   15SAPS    HA 1881   0.816   5.687   2.493  1.2180 -1.2089 -0.1530
   15SAPS    HB 1882   0.690   5.589   2.573 -0.6693 -0.9014  0.3612
   15SAPS    C2 1883   0.800   5.733   2.696  0.3842  0.1577  0.5600
   15SAPS    HS 1884   0.896   5.790   2.690  0.6272 -0.1181  1.6194
   15SAPS   O21 1885   0.778   5.668   2.823 -0.3728 -0.0642 -0.4995
   15SAPS   C21 1886   0.879   5.662   2.903  0.1505  1.0926 -0.0391
   15SAPS   O22 1887   0.994   5.697   2.879  0.0127 -0.0500 -0.3607
   15SAPS   C22 1888   0.841   5.596   3.027  0.7967  0.1452  0.4553
   15SAPS   H2R 1889   0.731   5.594   3.045  0.9866 -2.3228  1.7595
   15SAPS   H2S 1890   0.873   5.490   3.021 -1.1259 -0.5887  2.0440
   15SAPS    C3 1891   0.685   5.837   2.668 -0.1657 -0.2362  0.1046
   15SAPS    HX 1892   0.586   5.795   2.694  0.2765 -0.4272  1.5454
   15SAPS    HY 1893   0.669   5.862   2.561 -3.4109  2.1226  0.9892
   15SAPS   O31 1894   0.701   5.966   2.739 -0.3538 -0.1713  0.3632
   15SAPS   C31 1895   0.634   5.974   2.851 -0.8762 -0.1885  0.2837
   15SAPS   O32 1896   0.558   5.892   2.892 -0.7181 -0.6943  0.4420
   15SAPS   C32 1897   0.665   6.111   2.924 -0.2613  0.2637  0.6993
   15SAPS   H2X 1898   0.643   6.192   2.851  1.0095 -1.3437 -1.6112
   15SAPS   H2Y 1899   0.774   6.117   2.946 -0.1268  1.8235 -0.2146
   15SAPS   C23 1900   0.915   5.661   3.143  0.1491  0.1587 -0.4299
   15SAPS   H3R 1901   1.023   5.670   3.117 -0.2136 -1.2819 -2.6678
   15SAPS   H3S 1902   0.917   5.599   3.236 -0.3089  1.9609  0.8438
   15SAPS   C24 1903   0.862   5.804   3.175 -0.4355  0.5834  0.8039
   15SAPS   H4R 1904   0.879   5.869   3.086  3.2711 -0.4722  0.5616
   15SAPS   H4S 1905   0.923   5.842   3.260 -1.6188  2.8253  0.7519
   15SAPS   C25 1906   0.716   5.791   3.223 -0.3908 -0.0510  0.5230
   15SAPS   H5R 1907   0.648   5.788   3.136  1.5872  1.9930 -1.2430
   15SAPS   C26 1908   0.674   5.764   3.344 -0.1559 -0.2783  0.1593
   15SAPS   H6R 1909   0.573   5.724   3.357  0.8798 -3.0693  0.5184
   15SAPS   C27 1910   0.760   5.750   3.463  0.5747 -0.0382 -0.2745
   15SAPS   H7R 1911   0.857   5.698   3.453 -0.3928 -1.7760 -0.9739
   15SAPS   H7S 1912   0.719   5.690   3.547  1.8852  0.2446  0.5932
   15SAPS   C28 1913   0.790   5.887   3.527 -0.0426  0.7915  0.3648
   15SAPS   H8R 1914   0.837   5.954   3.453  0.5955  0.1015  0.1265
   15SAPS   C29 1915   0.779   5.927   3.660 -0.1025  0.0321 -0.0767
   15SAPS   H9R 1916   0.808   6.031   3.681 -0.1208  0.1357 -0.5501
   15SAPS  C210 1917   0.746   5.848   3.782  0.1414 -0.5228 -0.0969
   15SAPS  H10R 1918   0.670   5.768   3.770 -1.2320  0.4541  1.6506
   15SAPS  H10S 1919   0.707   5.927   3.849  1.7358 -0.7672  1.1680
   15SAPS  C211 1920   0.866   5.787   3.846 -0.4778  0.3971  0.1672
   15SAPS  H11R 1921   0.929   5.729   3.777 -1.7809 -0.6566 -0.2005
   15SAPS  C212 1922   0.893   5.791   3.975 -0.4494 -0.0777  0.7800
   15SAPS  H12R 1923   0.986   5.747   4.012  0.0892  1.1039  0.8799
   15SAPS  C213 1924   0.816   5.858   4.086 -0.2789 -0.2702 -0.0117
   15SAPS  H13R 1925   0.794   5.782   4.164  2.4911 -2.8285 -1.5096
   15SAPS  H13S 1926   0.715   5.875   4.042  0.0301  0.4466 -0.4611
   15SAPS  C214 1927   0.856   5.997   4.132  0.3346  0.0715  0.9451
   15SAPS  H14R 1928   0.867   6.068   4.049 -0.5199 -1.4508 -0.5133
   15SAPS  C215 1929   0.880   6.033   4.261 -0.4332 -0.0705 -0.3189
   15SAPS  H15R 1930   0.908   6.137   4.283 -0.1709  0.2981 -2.2531
   15SAPS  C216 1931   0.857   5.947   4.381  0.6609  0.2380  0.8898
   15SAPS  H16R 1932   0.790   5.859   4.366  0.5664  0.4421  0.0376
   15SAPS  H16S 1933   0.806   6.012   4.455 -1.7376 -1.2212  0.6515
   15SAPS  C217 1934   0.978   5.889   4.442 -0.3607 -0.3016  0.5183
   15SAPS  H17R 1935   1.033   5.832   4.364  2.4680  2.2575  0.4663
   15SAPS  H17S 1936   0.960   5.821   4.528  1.4109 -0.5127  0.7601
   15SAPS  C218 1937   1.073   6.003   4.478  0.8509  0.1258 -0.5286
   15SAPS  H18R 1938   1.018   6.083   4.532  1.5132  0.4400 -0.3033
   15SAPS  H18S 1939   1.110   6.051   4.384  2.4877  0.7019  0.3731
   15SAPS  C219 1940   1.206   5.962   4.553  0.9272  0.1072  0.4168
   15SAPS  H19R 1941   1.290   6.028   4.523  0.4184  0.6132  0.1083
   15SAPS  H19S 1942   1.227   5.858   4.519 -1.2171 -1.1163  2.5678
   15SAPS  C220 1943   1.207   5.969   4.698  0.8415 -0.7038 -1.0340
   15SAPS  H20R 1944   1.305   5.932   4.735  0.8886 -0.5698 -1.0258
   15SAPS  H20S 1945   1.125   5.920   4.755  0.8982  0.7011  0.3461
   15SAPS  H20T 1946   1.208   6.074   4.735  0.0206 -0.6201 -1.2252
   15SAPS   C33 1947   0.588   6.138   3.059 -1.1362  0.7255  0.3410
   15SAPS   H3X 1948   0.607   6.055   3.130 -2.6369 -0.4372 -0.5603
   15SAPS   H3Y 1949   0.481   6.143   3.031 -1.3332 -0.6387  0.8055
   15SAPS   C34 1950   0.618   6.283   3.110 -0.5364 -0.3428 -0.5908
   15SAPS   H4X 1951   0.585   6.351   3.029 -1.8618  0.8472  0.8911
   15SAPS   H4Y 1952   0.725   6.289   3.139 -0.8479  0.3565  0.4689
   15SAPS   C35 1953   0.531   6.323   3.236 -0.1938 -0.1392 -0.4345
   15SAPS   H5X 1954   0.422   6.314   3.218 -0.2474  0.9025 -0.7020
   15SAPS   H5Y 1955   0.567   6.428   3.247  1.2678 -0.5377 -1.0774
   15SAPS   C36 1956   0.573   6.239   3.356 -0.0809  0.4700  0.1085
   15SAPS   H6X 1957   0.683   6.231   3.354 -0.1737 -0.8532 -0.4474
   15SAPS   H6Y 1958   0.541   6.133   3.355  1.4018 -0.0109 -1.5783
   15SAPS   C37 1959   0.534   6.300   3.492  0.2699 -0.4184  0.2203
   15SAPS   H7X 1960   0.425   6.304   3.516 -0.0576  1.0281 -1.3435
   15SAPS   H7Y 1961   0.552   6.408   3.479 -2.2094 -0.1505 -1.6760
   15SAPS   C38 1962   0.616   6.244   3.614 -0.2704  0.1035  0.8029
   15SAPS   H8X 1963   0.720   6.258   3.578 -1.2356 -0.2228 -2.3838
   15SAPS   H8Y 1964   0.609   6.133   3.620  0.6459 -0.0117 -0.0659
   15SAPS   C39 1965   0.582   6.323   3.737 -1.1104 -0.4621  0.2059
   15SAPS   H9X 1966   0.473   6.319   3.756 -0.7306  0.2634  2.9297
   15SAPS   H9Y 1967   0.602   6.431   3.718 -1.6193 -0.5531 -0.9774
   15SAPS  C310 1968   0.650   6.278   3.872  0.0212  0.5503 -0.1321
   15SAPS  H10X 1969   0.758   6.297   3.856  0.0660  0.2039 -0.2349
   15SAPS  H10Y 1970   0.623   6.170   3.880 -0.6272  0.5652 -1.8254
   15SAPS  C311 1971   0.598   6.362   3.991  0.7526  0.0152  0.3869
   15SAPS  H11X 1972   0.488   6.351   3.996  0.5010  1.8283 -0.4149
   15SAPS  H11Y 1973   0.633   6.467   3.980  1.5094 -0.3021 -0.3653
   15SAPS  C312 1974   0.663   6.312   4.126 -0.1630 -0.2513  0.2786
   15SAPS  H12X 1975   0.772   6.332   4.115 -0.1591  0.1302  1.0046
   15SAPS  H12Y 1976   0.657   6.201   4.121  2.6751 -0.4640 -3.6826
   15SAPS  C313 1977   0.609   6.362   4.257  0.0762  0.0955 -0.2428
   15SAPS  H13X 1978   0.505   6.323   4.259 -0.0840  0.4773 -1.0203
   15SAPS  H13Y 1979   0.611   6.473   4.254  1.8908  0.1055 -2.9690
   15SAPS  C314 1980   0.672   6.284   4.379 -0.2739  0.4728 -0.8472
   15SAPS  H14X 1981   0.781   6.302   4.391 -0.5009  1.2607  0.1803
   15SAPS  H14Y 1982   0.669   6.173   4.374  0.7810  0.3497  0.6252
   15SAPS  C315 1983   0.610   6.320   4.509 -0.1036 -0.7245 -0.0022
   15SAPS  H15X 1984   0.634   6.249   4.591 -1.3833 -2.1520 -0.8128
   15SAPS  H15Y 1985   0.500   6.311   4.496  0.2584 -2.3993 -2.7018
   15SAPS  C316 1986   0.649   6.462   4.564 -0.4219  0.1777  0.4870
   15SAPS  H16X 1987   0.584   6.543   4.525  0.0086  0.4499  0.3285
   15SAPS  H16Y 1988   0.743   6.490   4.513  0.0834 -1.1249  0.6597
   15SAPS  C317 1989   0.650   6.478   4.711  0.2320 -0.3736 -0.0923
   15SAPS  H17X 1990   0.727   6.557   4.722 -2.0202  2.0025 -0.5740
   15SAPS  H17Y 1991   0.704   6.397   4.765 -0.1128 -1.2925 -1.0733
   15SAPS  C318 1992   0.521   6.506   4.778  0.7898 -0.3576 -0.7105
   15SAPS  H18X 1993   0.531   6.539   4.883 -0.1001 -1.5971 -0.2126
   15SAPS  H18Y 1994   0.451   6.422   4.758  0.6010 -0.0626 -1.3355
   15SAPS  H18Z 1995   0.473   6.588   4.719 -0.4821  0.4207  1.2777
   16SAPS     N 1996   0.659   4.566   2.198  0.0424 -0.2754 -0.9115
   16SAPS   HN1 1997   0.606   4.492   2.148 -2.1113  0.4567  0.1796
   16SAPS   HN2 1998   0.591   4.586   2.274 -0.7314  0.7365 -1.8287
   16SAPS   HN3 1999   0.671   4.657   2.147  1.8737 -0.9384 -1.7355
   16SAPS   C12 2000   0.785   4.524   2.260  0.0208 -0.4577 -1.1198
   16SAPS  H12A 2001   0.773   4.443   2.330 -0.1494  1.4720  1.2539
   16SAPS   C13 2002   0.904   4.483   2.182 -0.7872 -0.6479  0.0098
   16SAPS  O13A 2003   0.898   4.466   2.058 -0.0107 -0.0923  0.4042
   16SAPS  O13B 2004   1.015   4.469   2.242  0.2296 -0.1535 -0.3654
   16SAPS   C11 2005   0.832   4.648   2.344 -0.3368  1.3709  0.3268
   16SAPS  H11A 2006   0.852   4.724   2.266  0.8016 -0.0081 -0.7776
   16SAPS  H11B 2007   0.921   4.613   2.400  0.9510  1.3501 -1.6554
   16SAPS     P 2008   0.758   4.823   2.511 -0.3921  0.0166  0.0248
   16SAPS   O13 2009   0.894   4.863   2.525 -0.0030  0.0999  0.0472
   16SAPS   O14 2010   0.669   4.914   2.436 -0.4011  0.0470  0.3797
   16SAPS   O12 2011   0.745   4.682   2.438  0.6164  0.9301  0.1157
   16SAPS   O11 2012   0.699   4.808   2.656 -0.3301  0.6150 -0.3573
   16SAPS    C1 2013   0.734   4.697   2.743  0.1392  1.0826 -0.3519
   16SAPS    HA 2014   0.647   4.628   2.749  0.9973 -0.0699 -0.6977
   16SAPS    HB 2015   0.814   4.637   2.694  1.4383  1.8943  0.7189
   16SAPS    C2 2016   0.791   4.742   2.880 -0.0840 -0.0671  0.0189
   16SAPS    HS 2017   0.824   4.649   2.931 -0.7034 -0.5462 -0.4447
   16SAPS   O21 2018   0.691   4.796   2.960  0.4827 -0.1458  0.3043
   16SAPS   C21 2019   0.600   4.708   3.003  0.4550  0.3375 -0.2332
   16SAPS   O22 2020   0.604   4.588   2.998  0.3159  0.4988  0.2162
   16SAPS   C22 2021   0.483   4.781   3.066 -0.4559 -0.3898  0.5156
   16SAPS   H2R 2022   0.401   4.772   2.991  2.1648 -1.8431 -2.4142
   16SAPS   H2S 2023   0.452   4.722   3.155 -0.7146 -0.8569  0.1219
   16SAPS    C3 2024   0.915   4.832   2.864  0.1319 -0.0501  1.0142
   16SAPS    HX 2025   0.890   4.940   2.850  1.0437  0.2218  1.3929
   16SAPS    HY 2026   0.968   4.796   2.773  2.6165  0.2848  2.2613
   16SAPS   O31 2027   0.994   4.808   2.974  0.1460 -0.5679 -0.1620
   16SAPS   C31 2028   1.124   4.825   2.978  0.1587  0.8549  0.1588
   16SAPS   O32 2029   1.191   4.870   2.884 -0.4652 -0.1360  0.1682
   16SAPS   C32 2030   1.169   4.802   3.125 -0.5499 -0.3494  0.6492
   16SAPS   H2X 2031   1.160   4.694   3.150  0.0296 -1.0516 -1.8186
   16SAPS   H2Y 2032   1.093   4.862   3.180  0.5657  1.2334  0.5358
   16SAPS   C23 2033   0.500   4.928   3.109 -0.7990  0.7142 -0.2005
   16SAPS   H3R 2034   0.496   4.987   3.015  0.9346 -0.4131 -1.0473
   16SAPS   H3S 2035   0.602   4.939   3.153 -1.1105 -1.5152  1.2680
   16SAPS   C24 2036   0.394   4.961   3.206 -0.2970 -0.2786 -0.2079
   16SAPS   H4R 2037   0.296   4.936   3.160  0.4348 -2.7688 -0.5686
   16SAPS   H4S 2038   0.399   5.070   3.226  1.5659 -0.7548  2.4800
   16SAPS   C25 2039   0.379   4.890   3.339 -0.5839 -0.9057 -0.0643
   16SAPS   H5R 2040   0.291   4.823   3.341 -2.4055  1.3335  2.2423
   16SAPS   C26 2041   0.440   4.907   3.458 -0.1692 -0.0363  0.8972
   16SAPS   H6R 2042   0.417   4.842   3.544  1.7686 -1.1876  0.6125
   16SAPS   C27 2043   0.560   4.986   3.487  0.0288 -0.4938  0.3887
   16SAPS   H7R 2044   0.533   5.058   3.567 -1.9914 -1.7612  0.8938
   16SAPS   H7S 2045   0.590   5.044   3.397 -1.8420  0.7618  0.5136
   16SAPS   C28 2046   0.678   4.895   3.520  0.1301  0.2741  1.0939
   16SAPS   H8R 2047   0.730   4.856   3.431  0.4467 -1.7720  2.1238
   16SAPS   C29 2048   0.730   4.864   3.633  0.0522  1.0941  0.0793
   16SAPS   H9R 2049   0.825   4.808   3.632  0.0258  0.9924 -2.1153
   16SAPS  C210 2050   0.672   4.903   3.767  0.1061  0.4965  0.0564
   16SAPS  H10R 2051   0.575   4.956   3.758 -0.2996 -0.0587  1.0819
   16SAPS  H10S 2052   0.744   4.974   3.813  2.5894 -1.5184 -0.4742
   16SAPS  C211 2053   0.657   4.791   3.866  0.2828 -0.8261  0.1548
   16SAPS  H11R 2054   0.628   4.703   3.807 -1.3204 -0.0032 -0.3594
   16SAPS  C212 2055   0.673   4.794   3.997  0.4969  0.5988 -0.4469
   16SAPS  H12R 2056   0.655   4.701   4.052  0.4094  0.9205  0.0742
   16SAPS  C213 2057   0.698   4.914   4.088 -0.5379  0.4453 -0.1200
   16SAPS  H13R 2058   0.625   4.911   4.172  1.2082  2.0524  1.5605
   16SAPS  H13S 2059   0.678   5.005   4.028  0.7996  0.9578  0.1621
   16SAPS  C214 2060   0.841   4.937   4.144 -0.4058  0.0339 -0.3102
   16SAPS  H14R 2061   0.918   4.900   4.075 -0.5119  0.9790 -0.9483
   16SAPS  C215 2062   0.865   4.961   4.277 -0.0481  0.8245 -0.7247
   16SAPS  H15R 2063   0.970   4.982   4.301 -0.1956  0.1119  0.6163
   16SAPS  C216 2064   0.764   4.990   4.382 -0.3620 -0.3523 -0.4272
   16SAPS  H16R 2065   0.728   4.893   4.420 -3.0486  0.0205 -1.7335
   16SAPS  H16S 2066   0.678   5.048   4.341 -1.2100 -2.6084 -2.0462
   16SAPS  C217 2067   0.825   5.069   4.495  0.1956  0.1392  0.5239
   16SAPS  H17R 2068   0.750   5.099   4.571 -0.7262  0.5722 -0.5445
   16SAPS  H17S 2069   0.887   5.154   4.458 -1.0145 -0.9709 -4.9607
   16SAPS  C218 2070   0.929   4.978   4.576  0.8566 -0.0977 -0.0006
   16SAPS  H18R 2071   0.967   4.894   4.514 -0.4566 -1.0403  0.4133
   16SAPS  H18S 2072   0.874   4.918   4.652  1.3164 -0.0148  0.4046
   16SAPS  C219 2073   1.033   5.061   4.650  0.3545  0.4775 -0.2186
   16SAPS  H19R 2074   0.983   5.121   4.729 -1.5300  0.8157 -1.5944
   16SAPS  H19S 2075   1.086   5.127   4.578 -1.4346  1.2161 -0.9160
   16SAPS  C220 2076   1.130   4.975   4.720 -0.0080  0.0790  0.1829
   16SAPS  H20R 2077   1.081   4.926   4.808 -0.4628 -0.9005 -0.5968
   16SAPS  H20S 2078   1.212   5.039   4.760 -0.0461 -2.2762  4.7711
   16SAPS  H20T 2079   1.169   4.889   4.661 -1.3292 -0.8564  0.6038
   16SAPS   C33 2080   1.311   4.845   3.164  0.1166  0.0275 -0.5025
   16SAPS   H3X 2081   1.323   4.948   3.124 -0.3111 -0.1824 -1.1782
   16SAPS   H3Y 2082   1.392   4.794   3.107  0.8427 -0.0805  0.5920
   16SAPS   C34 2083   1.351   4.834   3.307  0.0975 -0.2695 -0.7598
   16SAPS   H4X 2084   1.453   4.874   3.328 -0.1839  0.3234 -0.5050
   16SAPS   H4Y 2085   1.367   4.727   3.334  0.2148 -0.4224 -1.4158
   16SAPS   C35 2086   1.250   4.887   3.411 -0.9137 -0.5172 -0.0051
   16SAPS   H5X 2087   1.165   4.816   3.401  1.1181 -3.2502  0.8338
   16SAPS   H5Y 2088   1.220   4.988   3.376 -0.3320 -0.4221 -0.2585
   16SAPS   C36 2089   1.303   4.872   3.555 -0.0096  0.1700 -0.1664
   16SAPS   H6X 2090   1.381   4.952   3.558 -1.4121  1.5693  0.2534
   16SAPS   H6Y 2091   1.337   4.768   3.573  0.2640 -0.2516 -2.6530
   16SAPS   C37 2092   1.196   4.911   3.660  0.1821  0.0851 -0.0603
   16SAPS   H7X 2093   1.123   4.827   3.665 -1.1006  0.9678 -2.3373
   16SAPS   H7Y 2094   1.141   5.002   3.625 -1.3138 -1.1940 -1.1845
   16SAPS   C38 2095   1.263   4.944   3.796  0.6030 -0.1819 -0.3393
   16SAPS   H8X 2096   1.349   5.010   3.772  1.1801 -1.0037 -0.5720
   16SAPS   H8Y 2097   1.305   4.853   3.846 -0.8508 -2.0738 -2.3476
   16SAPS   C39 2098   1.167   5.020   3.886 -0.1312 -0.2345 -0.5417
   16SAPS   H9X 2099   1.086   4.949   3.914 -0.4180 -0.0603 -0.9116
   16SAPS   H9Y 2100   1.118   5.090   3.815 -1.8483 -1.8821 -1.0678
   16SAPS  C310 2101   1.222   5.083   4.013 -0.6303 -0.5098 -0.2542
   16SAPS  H10X 2102   1.142   5.152   4.045 -0.8442 -0.0988 -1.6051
   16SAPS  H10Y 2103   1.314   5.142   3.994  0.4439 -2.0704 -0.0651
   16SAPS  C311 2104   1.272   4.994   4.122 -0.7091  0.2421  0.2163
   16SAPS  H11X 2105   1.330   4.917   4.068 -0.1411 -0.4828  1.8149
   16SAPS  H11Y 2106   1.181   4.953   4.172 -0.2358  2.5506  3.2820
   16SAPS  C312 2107   1.363   5.049   4.230 -0.1423  0.4284  0.4261
   16SAPS  H12X 2108   1.318   5.132   4.289 -0.2006 -1.2454  2.9093
   16SAPS  H12Y 2109   1.450   5.096   4.179  0.1009  1.4811  1.7616
   16SAPS  C313 2110   1.410   4.935   4.326  0.3896 -0.1072  0.3068
   16SAPS  H13X 2111   1.445   4.849   4.265 -0.2430 -0.1541 -0.0057
   16SAPS  H13Y 2112   1.314   4.899   4.369  0.2731  0.7955  0.8204
   16SAPS  C314 2113   1.517   4.975   4.428 -0.2685  0.5467 -0.0761
   16SAPS  H14X 2114   1.611   5.012   4.382  0.4400  0.7257  1.4595
   16SAPS  H14Y 2115   1.539   4.882   4.485 -1.6962  0.8038  0.9352
   16SAPS  C315 2116   1.470   5.078   4.535  0.0682  0.0748  0.1469
   16SAPS  H15X 2117   1.367   5.045   4.560  0.7790 -1.9008  0.6605
   16SAPS  H15Y 2118   1.465   5.181   4.494  1.0905  0.2092  0.3351
   16SAPS  C316 2119   1.542   5.065   4.668 -0.3247 -0.0175  0.3529
   16SAPS  H16X 2120   1.646   5.101   4.652 -0.2270 -0.9257 -1.2747
   16SAPS  H16Y 2121   1.551   4.964   4.713  1.1870 -0.8190 -1.6073
   16SAPS  C317 2122   1.490   5.149   4.785  0.1882 -0.3543 -0.1392
   16SAPS  H17X 2123   1.381   5.136   4.803  0.4104  0.2009  1.8576
   16SAPS  H17Y 2124   1.498   5.256   4.756  0.4709  0.0040  1.2028
   16SAPS  C318 2125   1.561   5.120   4.919 -0.1506  0.3711 -0.1696
   16SAPS  H18X 2126   1.558   5.010   4.934  1.1230  0.1835 -1.1990
   16SAPS  H18Y 2127   1.520   5.172   5.008 -0.6159 -0.3340  0.0418
   16SAPS  H18Z 2128   1.663   5.157   4.897 -0.4712  1.5424  0.2064
   17SAPS     N 2129   3.594   5.525   2.220 -0.0352  0.1130 -0.0574
   17SAPS   HN1 2130   3.555   5.604   2.165  1.2298  0.0022 -1.1314
   17SAPS   HN2 2131   3.540   5.438   2.201  0.0417 -0.4430  1.9893
   17SAPS   HN3 2132   3.584   5.540   2.323 -3.7443 -0.3073 -0.2084
   17SAPS   C12 2133   3.744   5.511   2.178 -0.0788  0.9623 -0.0764
   17SAPS  H12A 2134   3.787   5.422   2.221 -0.0312  0.1239 -1.7530
   17SAPS   C13 2135   3.767   5.490   2.024 -0.4076 -0.2385  0.3313
   17SAPS  O13A 2136   3.679   5.526   1.940  0.6252  0.3894 -0.3169
   17SAPS  O13B 2137   3.878   5.444   1.989 -0.6704 -0.1015  0.6249
   17SAPS   C11 2138   3.819   5.634   2.239 -0.2277  0.2895  0.3891
   17SAPS  H11A 2139   3.782   5.728   2.192 -0.4354  0.0977  0.1687
   17SAPS  H11B 2140   3.923   5.613   2.207 -0.0371 -0.6454  1.5530
   17SAPS     P 2141   3.899   5.751   2.450  0.2022 -0.2472 -0.5252
   17SAPS   O13 2142   3.976   5.824   2.351 -0.6247 -0.5657 -1.1690
   17SAPS   O14 2143   3.824   5.830   2.552  0.2027 -0.0923 -0.2484
   17SAPS   O12 2144   3.805   5.650   2.381  0.5772 -0.3499 -0.0341
   17SAPS   O11 2145   3.991   5.645   2.515 -0.2315 -0.3407 -0.1092
   17SAPS    C1 2146   3.938   5.534   2.586  0.3415  0.0858  0.1733
   17SAPS    HA 2147   3.831   5.552   2.610  0.5777 -1.1074  2.4302
   17SAPS    HB 2148   3.941   5.451   2.511  0.6654  0.8624 -0.6917
   17SAPS    C2 2149   4.014   5.503   2.714  0.4035 -0.4581  0.0505
   17SAPS    HS 2150   3.952   5.414   2.736 -1.9344  1.5547  2.3360
   17SAPS   O21 2151   3.994   5.609   2.816  0.0879  0.2914  0.1390
   17SAPS   C21 2152   3.884   5.604   2.879 -0.4535 -0.6105 -0.5633
   17SAPS   O22 2153   3.790   5.531   2.851  0.1186 -0.2011 -0.3584
   17SAPS   C22 2154   3.889   5.714   2.988  0.0138 -0.1580  0.1576
   17SAPS   H2R 2155   3.985   5.706   3.043 -1.0654  0.4496  2.2268
   17SAPS   H2S 2156   3.884   5.810   2.932 -0.5286 -0.8108 -0.9399
   17SAPS    C3 2157   4.168   5.469   2.696  1.0208 -0.6981 -0.3496
   17SAPS    HX 2158   4.229   5.544   2.640  1.3134  0.7001  1.7074
   17SAPS    HY 2159   4.174   5.384   2.625  0.1621 -0.3305 -0.8786
   17SAPS   O31 2160   4.236   5.439   2.818  0.3141  0.0759 -0.9238
   17SAPS   C31 2161   4.218   5.320   2.870 -0.1222  0.1606 -0.1533
   17SAPS   O32 2162   4.158   5.229   2.816  0.0936  0.6075  0.0497
   17SAPS   C32 2163   4.264   5.319   3.020 -0.1977  0.0788 -0.3139
   17SAPS   H2X 2164   4.375   5.327   3.014 -0.0396 -2.1919 -2.0631
   17SAPS   H2Y 2165   4.232   5.225   3.069 -1.1147  0.4819 -0.1349
   17SAPS   C23 2166   3.775   5.696   3.096  0.0526  0.1761  0.0227
   17SAPS   H3R 2167   3.775   5.599   3.151  0.2022  0.2541  0.1608
   17SAPS   H3S 2168   3.680   5.693   3.038  1.2011  0.9652 -1.9691
   17SAPS   C24 2169   3.777   5.816   3.200  0.2132 -0.8459  0.1136
   17SAPS   H4R 2170   3.686   5.806   3.264 -0.3722 -2.7024 -0.9357
   17SAPS   H4S 2171   3.755   5.909   3.143 -2.5835 -0.6959  1.2382
   17SAPS   C25 2172   3.901   5.828   3.278  0.1014  0.1164  0.6086
   17SAPS   H5R 2173   3.982   5.878   3.223  0.0132  0.9297  1.2068
   17SAPS   C26 2174   3.912   5.789   3.405  0.0452 -0.2950 -0.5819
   17SAPS   H6R 2175   4.006   5.813   3.455 -0.2709 -2.2347  1.1034
   17SAPS   C27 2176   3.808   5.720   3.496  0.1174 -0.8066 -0.5723
   17SAPS   H7R 2177   3.707   5.762   3.475 -0.8386 -2.3925  0.5386
   17SAPS   H7S 2178   3.826   5.747   3.603  0.2878  2.1053 -1.2732
   17SAPS   C28 2179   3.794   5.566   3.492 -0.9594  0.9734 -0.1284
   17SAPS   H8R 2180   3.825   5.515   3.399  0.8199  0.2404  0.8253
   17SAPS   C29 2181   3.750   5.488   3.589 -0.6710 -0.1494  0.1182
   17SAPS   H9R 2182   3.751   5.381   3.566 -1.6083  0.1283 -1.3624
   17SAPS  C210 2183   3.705   5.529   3.725 -0.8189 -0.2269 -0.0911
   17SAPS  H10R 2184   3.608   5.486   3.756 -1.3555  2.3086  2.0806
   17SAPS  H10S 2185   3.710   5.640   3.727 -0.8540 -0.2403  0.9478
   17SAPS  C211 2186   3.799   5.469   3.826 -0.2600 -0.7165 -0.5247
   17SAPS  H11R 2187   3.884   5.414   3.783  0.3654  0.5148 -0.9194
   17SAPS  C212 2188   3.788   5.487   3.958  0.1371 -0.4403 -0.3824
   17SAPS  H12R 2189   3.862   5.447   4.029  0.6449 -1.2480 -1.3431
   17SAPS  C213 2190   3.679   5.565   4.029  0.3253  0.3147  0.2762
   17SAPS  H13R 2191   3.647   5.512   4.121 -1.6084  0.6788 -0.1491
   17SAPS  H13S 2192   3.587   5.564   3.967 -0.1206  0.4567  0.9313
   17SAPS  C214 2193   3.703   5.715   4.051  0.0992 -0.3103 -1.5829
   17SAPS  H14R 2194   3.799   5.751   4.011  1.1086 -1.1926 -0.0814
   17SAPS  C215 2195   3.621   5.797   4.128 -0.9974 -0.1239  1.0679
   17SAPS  H15R 2196   3.651   5.902   4.136 -0.1242 -0.2234 -0.5277
   17SAPS  C216 2197   3.488   5.760   4.186 -0.6016  0.8041  0.0385
   17SAPS  H16R 2198   3.442   5.675   4.130  0.3036  2.1049 -2.8376
   17SAPS  H16S 2199   3.413   5.842   4.189 -0.1702  1.2997 -1.7222
   17SAPS  C217 2200   3.501   5.714   4.335  0.4004  0.0608  0.0440
   17SAPS  H17R 2201   3.543   5.795   4.398  0.6656  0.6655 -0.9100
   17SAPS  H17S 2202   3.577   5.633   4.340 -0.2664 -0.6667 -1.2089
   17SAPS  C218 2203   3.360   5.696   4.398 -0.2441 -0.1449  0.1847
   17SAPS  H18R 2204   3.307   5.793   4.407  2.1895  1.4715 -1.5775
   17SAPS  H18S 2205   3.370   5.654   4.500 -3.2855 -1.2915  0.0856
   17SAPS  C219 2206   3.275   5.587   4.325  0.0137 -0.2376  0.1387
   17SAPS  H19R 2207   3.251   5.626   4.224  4.2027 -0.2089 -1.0407
   17SAPS  H19S 2208   3.182   5.567   4.382 -1.3616 -1.7047 -2.4782
   17SAPS  C220 2209   3.339   5.451   4.302 -0.6959  0.7341  0.3160
   17SAPS  H20R 2210   3.440   5.463   4.257 -0.7707 -0.7768 -0.3126
   17SAPS  H20S 2211   3.280   5.386   4.233 -0.8542 -0.5238  1.5906
   17SAPS  H20T 2212   3.344   5.393   4.396  0.1217  0.9290  0.4024
   17SAPS   C33 2213   4.206   5.447   3.089 -0.0131  0.7958  0.4932
   17SAPS   H3X 2214   4.096   5.439   3.107 -0.1420 -2.5639 -0.9686
   17SAPS   H3Y 2215   4.239   5.532   3.026  1.9466 -1.4864 -1.7763
   17SAPS   C34 2216   4.263   5.464   3.232  0.1839  0.1804 -0.5100
   17SAPS   H4X 2217   4.224   5.558   3.277 -2.7135 -0.3883 -1.5873
   17SAPS   H4Y 2218   4.374   5.463   3.222  0.1406 -1.0116 -1.0213
   17SAPS   C35 2219   4.231   5.340   3.326  0.3555  0.6229  0.4740
   17SAPS   H5X 2220   4.281   5.250   3.282 -1.9904 -0.4968 -0.0621
   17SAPS   H5Y 2221   4.123   5.316   3.315  0.3949 -0.5045  2.2553
   17SAPS   C36 2222   4.259   5.353   3.480  0.3409  0.2471 -0.0558
   17SAPS   H6X 2223   4.344   5.423   3.490 -1.5127  2.5342  0.6521
   17SAPS   H6Y 2224   4.291   5.262   3.535  0.6882  1.0033  1.0285
   17SAPS   C37 2225   4.134   5.402   3.542 -0.0848  0.1167 -0.0393
   17SAPS   H7X 2226   4.053   5.328   3.558  0.0687  0.2735  1.6416
   17SAPS   H7Y 2227   4.093   5.488   3.485 -0.6148  0.1006  0.3032
   17SAPS   C38 2228   4.160   5.454   3.682 -0.3684 -0.9363 -0.2097
   17SAPS   H8X 2229   4.071   5.513   3.715 -0.6733 -2.2511  1.4436
   17SAPS   H8Y 2230   4.249   5.520   3.673 -0.9709 -0.1422 -0.5156
   17SAPS   C39 2231   4.172   5.341   3.783  0.0005  0.5162  0.0877
   17SAPS   H9X 2232   4.257   5.274   3.758  0.2499 -0.2251  2.6852
   17SAPS   H9Y 2233   4.078   5.283   3.776  1.3067 -1.7969  0.4282
   17SAPS  C310 2234   4.176   5.368   3.936  0.2372 -0.5801  0.1656
   17SAPS  H10X 2235   4.080   5.410   3.971 -1.3002 -3.4754 -0.2948
   17SAPS  H10Y 2236   4.259   5.435   3.969  0.4177 -0.7677  0.0945
   17SAPS  C311 2237   4.187   5.235   4.021  0.4873 -0.4066 -0.4546
   17SAPS  H11X 2238   4.193   5.257   4.129  2.8868 -1.6313 -0.2819
   17SAPS  H11Y 2239   4.291   5.201   4.005  1.0184  1.0420 -0.1983
   17SAPS  C312 2240   4.072   5.133   4.003 -0.3721  0.0015  0.2996
   17SAPS  H12X 2241   4.080   5.102   3.896 -1.1807  0.1062  0.2026
   17SAPS  H12Y 2242   3.978   5.183   4.031  0.5182 -0.1845  4.0815
   17SAPS  C313 2243   4.094   5.007   4.087  0.5679 -0.5643 -0.4497
   17SAPS  H13X 2244   4.193   4.967   4.057  0.3888  0.2153 -2.2143
   17SAPS  H13Y 2245   4.011   4.935   4.067 -0.3821  0.2641  0.3910
   17SAPS  C314 2246   4.090   5.037   4.235  0.0821  0.4445 -0.3093
   17SAPS  H14X 2247   4.011   5.111   4.259 -2.3400 -2.2872  0.5860
   17SAPS  H14Y 2248   4.188   5.086   4.256 -0.3821  1.6194 -0.7952
   17SAPS  C315 2249   4.058   4.915   4.324 -0.1966  0.5116  0.0569
   17SAPS  H15X 2250   4.135   4.836   4.310  1.4670  2.2048 -0.8588
   17SAPS  H15Y 2251   3.955   4.885   4.298 -0.4288  1.9961 -0.8914
   17SAPS  C316 2252   4.049   4.953   4.475 -0.7318  0.1541  0.0736
   17SAPS  H16X 2253   4.138   5.015   4.498 -0.1189 -1.5976  2.9799
   17SAPS  H16Y 2254   4.076   4.866   4.539 -2.7390 -0.1190  0.6358
   17SAPS  C317 2255   3.920   5.018   4.519 -0.2556 -0.7192 -0.2722
   17SAPS  H17X 2256   3.841   4.942   4.501 -0.7165 -0.1092 -0.8807
   17SAPS  H17Y 2257   3.899   5.106   4.455  2.9095 -1.0508 -1.9918
   17SAPS  C318 2258   3.931   5.057   4.666 -0.5898 -0.1435 -0.2313
   17SAPS  H18X 2259   4.033   5.101   4.669 -0.6929  0.0744  0.1454
   17SAPS  H18Y 2260   3.935   4.960   4.721 -0.1068  1.3842  2.6515
   17SAPS  H18Z 2261   3.856   5.132   4.702 -1.3108 -1.0393  0.1767
   18SAPS     N 2262   1.685   1.989   2.785  0.0491  0.3800  1.1529
   18SAPS   HN1 2263   1.695   1.886   2.802  3.1224 -0.1174 -2.3807
   18SAPS   HN2 2264   1.690   2.029   2.881  1.5575 -2.1752  2.2592
   18SAPS   HN3 2265   1.592   2.016   2.746  0.3748 -0.3182 -0.1783
   18SAPS   C12 2266   1.796   2.040   2.695 -0.5230 -0.2076 -0.4108
   18SAPS  H12A 2267   1.885   2.051   2.755 -0.8861 -1.7146  0.4420
   18SAPS   C13 2268   1.831   1.949   2.578  0.5771  0.5600 -0.8798
   18SAPS  O13A 2269   1.776   1.838   2.567  0.0788  0.0231  0.1923
   18SAPS  O13B 2270   1.934   1.967   2.508  0.1291 -0.1355  0.3603
   18SAPS   C11 2271   1.756   2.178   2.653  0.6348  0.5449  0.0137
   18SAPS  H11A 2272   1.666   2.174   2.588  0.0435  1.2998  0.7592
   18SAPS  H11B 2273   1.834   2.220   2.586 -0.5928  0.4238 -1.5459
   18SAPS     P 2274   1.714   2.416   2.732  0.0025 -0.3367 -0.3731
   18SAPS   O13 2275   1.672   2.437   2.590 -0.2447 -0.4562 -0.1164
   18SAPS   O14 2276   1.628   2.475   2.832 -0.2643 -0.1854  0.3074
   18SAPS   O12 2277   1.733   2.260   2.767 -0.3464  0.1682 -0.0921
   18SAPS   O11 2278   1.864   2.476   2.763  0.3277 -0.1159 -0.1731
   18SAPS    C1 2279   1.945   2.429   2.871 -0.2254  0.7811 -0.6614
   18SAPS    HA 2280   1.902   2.338   2.918 -1.8336  1.4094 -0.8646
   18SAPS    HB 2281   2.045   2.391   2.840  1.0454  2.0942  1.5413
   18SAPS    C2 2282   1.963   2.530   2.985 -0.8224  0.1547  0.0263
   18SAPS    HS 2283   2.049   2.490   3.042 -1.3706 -0.3253  0.5441
   18SAPS   O21 2284   1.842   2.527   3.072  0.6376 -0.0271  0.0504
   18SAPS   C21 2285   1.817   2.425   3.154 -0.5506  0.4826  0.7759
   18SAPS   O22 2286   1.891   2.329   3.167  0.1771  0.5812  0.7067
   18SAPS   C22 2287   1.699   2.456   3.233  0.5476 -0.0973 -0.0389
   18SAPS   H2R 2288   1.704   2.559   3.274  0.8152  0.0878 -0.5297
   18SAPS   H2S 2289   1.608   2.466   3.170 -0.1201  2.0963  1.1851
   18SAPS    C3 2290   2.000   2.666   2.931  0.1405  0.3011  0.2106
   18SAPS    HX 2291   1.927   2.690   2.851  0.6371 -0.3334 -0.4492
   18SAPS    HY 2292   2.100   2.657   2.882 -0.1335 -3.7846  0.1185
   18SAPS   O31 2293   2.007   2.765   3.035 -0.5503  0.4049 -0.2024
   18SAPS   C31 2294   1.903   2.843   3.048  0.8120 -0.1535 -0.0678
   18SAPS   O32 2295   1.799   2.840   2.981 -0.4404  0.4714  0.3428
   18SAPS   C32 2296   1.921   2.932   3.161  0.0788 -0.5996 -0.1128
   18SAPS   H2X 2297   1.941   3.031   3.115  1.4276  0.0698  1.7988
   18SAPS   H2Y 2298   2.001   2.898   3.229 -0.7698 -1.3672  0.5291
   18SAPS   C23 2299   1.680   2.345   3.333 -1.0507  0.3160 -0.2594
   18SAPS   H3R 2300   1.765   2.354   3.404 -0.8501  2.3346 -0.7072
   18SAPS   H3S 2301   1.689   2.241   3.296  0.4922  0.6947 -1.0130
   18SAPS   C24 2302   1.546   2.362   3.414 -0.0390 -0.1515  0.1578
   18SAPS   H4R 2303   1.465   2.334   3.344 -1.1673  1.9137  0.5476
   18SAPS   H4S 2304   1.535   2.472   3.428  3.2054  0.4688 -1.3279
   18SAPS   C25 2305   1.548   2.294   3.546  0.0589  0.1237 -0.7902
   18SAPS   H5R 2306   1.647   2.300   3.594  0.3535 -0.7093 -1.2819
   18SAPS   C26 2307   1.445   2.224   3.607 -0.5538 -0.3826  0.1590
   18SAPS   H6R 2308   1.463   2.191   3.710 -0.1789 -1.1729 -0.1503
   18SAPS   C27 2309   1.303   2.212   3.545  0.7608 -0.0135  0.0858
   18SAPS   H7R 2310   1.245   2.306   3.542  2.1854  0.9902  1.5301
   18SAPS   H7S 2311   1.255   2.134   3.608  1.0737 -0.4961 -0.2640
   18SAPS   C28 2312   1.296   2.151   3.408 -0.0236  0.0299  0.5635
   18SAPS   H8R 2313   1.237   2.210   3.336  0.1642 -0.3031  0.1380
   18SAPS   C29 2314   1.354   2.036   3.365  0.5039  0.1431  0.4600
   18SAPS   H9R 2315   1.328   2.011   3.261 -3.1576  0.4238  1.1644
   18SAPS  C210 2316   1.427   1.930   3.443 -0.2064 -0.3811 -0.1944
   18SAPS  H10R 2317   1.354   1.873   3.505 -1.1392  1.9590  0.9574
   18SAPS  H10S 2318   1.496   1.978   3.515 -0.5689 -0.5660  0.2813
   18SAPS  C211 2319   1.520   1.846   3.355  0.2587  0.0230  0.2325
   18SAPS  H11R 2320   1.533   1.886   3.254 -2.7728 -1.3561 -0.8297
   18SAPS  C212 2321   1.584   1.735   3.394  0.4652 -0.2271  0.2735
   18SAPS  H12R 2322   1.637   1.676   3.318  3.2277 -0.2009  2.0341
   18SAPS  C213 2323   1.566   1.673   3.531  0.0786  0.0547 -0.0304
   18SAPS  H13R 2324   1.602   1.568   3.532 -1.4907 -0.5111  0.3352
   18SAPS  H13S 2325   1.459   1.678   3.561 -0.4851  0.4126 -1.9414
   18SAPS  C214 2326   1.649   1.754   3.628 -0.3633 -0.4223 -0.3845
   18SAPS  H14R 2327   1.742   1.797   3.588 -1.6003  1.3464 -1.5118
   18SAPS  C215 2328   1.623   1.767   3.760  0.3221  0.4876 -0.0916
   18SAPS  H15R 2329   1.694   1.825   3.821  1.0563 -1.3760  0.9009
   18SAPS  C216 2330   1.508   1.701   3.836  0.0779 -0.7511  0.0806
   18SAPS  H16R 2331   1.540   1.610   3.891 -0.7384 -1.6753 -0.9388
   18SAPS  H16S 2332   1.431   1.662   3.766  0.3752 -0.0620 -0.6388
   18SAPS  C217 2333   1.433   1.783   3.942 -0.8053 -0.0017 -0.1275
   18SAPS  H17R 2334   1.346   1.728   3.984  0.1709 -1.1788  0.4161
   18SAPS  H17S 2335   1.391   1.872   3.892  0.5682  1.3783  1.0567
   18SAPS  C218 2336   1.526   1.826   4.051 -0.2689 -0.1331  0.2603
   18SAPS  H18R 2337   1.624   1.839   4.000  0.7252 -0.5051  1.9921
   18SAPS  H18S 2338   1.546   1.749   4.128  1.4447  0.3383  0.3196
   18SAPS  C219 2339   1.493   1.966   4.112 -0.3232  0.8432 -0.8302
   18SAPS  H19R 2340   1.403   1.952   4.177  0.5834 -3.5551 -0.2070
   18SAPS  H19S 2341   1.469   2.048   4.040  0.2046  0.0318 -1.9473
   18SAPS  C220 2342   1.596   2.008   4.218 -0.0419  0.6367  0.2775
   18SAPS  H20R 2343   1.683   2.028   4.152 -0.2302 -0.8255 -0.4635
   18SAPS  H20S 2344   1.618   1.923   4.286 -0.4763 -0.3792 -0.8086
   18SAPS  H20T 2345   1.549   2.089   4.278 -4.5330  0.3578 -2.4088
   18SAPS   C33 2346   1.790   2.964   3.238 -0.2230 -0.8829 -0.6196
   18SAPS   H3X 2347   1.734   3.042   3.182  2.5873  2.9288  1.3875
   18SAPS   H3Y 2348   1.818   3.024   3.328  0.8993 -1.4428 -0.5850
   18SAPS   C34 2349   1.719   2.835   3.288  0.4731 -0.3616 -0.9260
   18SAPS   H4X 2350   1.797   2.768   3.329 -1.1414 -2.1616 -0.6702
   18SAPS   H4Y 2351   1.675   2.794   3.194  0.6335 -0.5053 -0.9389
   18SAPS   C35 2352   1.610   2.866   3.393 -0.6763 -0.0070 -0.2554
   18SAPS   H5X 2353   1.548   2.773   3.399  1.2228 -1.3222 -0.2305
   18SAPS   H5Y 2354   1.537   2.937   3.349 -0.2979 -0.7578 -2.1884
   18SAPS   C36 2355   1.653   2.906   3.529 -0.6344  0.5894  0.0057
   18SAPS   H6X 2356   1.709   3.002   3.530  0.0965  0.2033  2.0164
   18SAPS   H6Y 2357   1.724   2.836   3.578  0.4690  1.7824  0.1759
   18SAPS   C37 2358   1.526   2.938   3.624 -0.9316  0.2206 -0.2739
   18SAPS   H7X 2359   1.449   2.860   3.605 -0.1796 -0.8359  0.8423
   18SAPS   H7Y 2360   1.480   3.035   3.597 -1.9219  0.2658  1.4612
   18SAPS   C38 2361   1.576   2.946   3.775 -0.0930  0.1890  0.3511
   18SAPS   H8X 2362   1.497   2.997   3.834 -0.1506 -1.9801  2.2332
   18SAPS   H8Y 2363   1.667   3.010   3.787 -0.7385  0.6179  3.7703
   18SAPS   C39 2364   1.597   2.813   3.845 -0.1817  0.4288  0.0852
   18SAPS   H9X 2365   1.638   2.741   3.772  0.0269  2.4691 -1.9351
   18SAPS   H9Y 2366   1.499   2.778   3.884  0.2620  0.6610  1.4498
   18SAPS  C310 2367   1.686   2.821   3.972 -0.3124 -0.1395 -0.0698
   18SAPS  H10X 2368   1.781   2.873   3.944 -0.9708  1.0184 -0.2109
   18SAPS  H10Y 2369   1.706   2.713   3.992 -3.2670 -1.0543 -1.4793
   18SAPS  C311 2370   1.609   2.892   4.075 -0.0833 -0.7679 -0.2782
   18SAPS  H11X 2371   1.504   2.858   4.067 -0.7179  0.7957  1.1852
   18SAPS  H11Y 2372   1.603   3.001   4.059  1.7983 -0.2247  2.2302
   18SAPS  C312 2373   1.649   2.867   4.224  0.2353  0.1304 -0.1238
   18SAPS  H12X 2374   1.643   2.758   4.246  0.7138  0.0479 -0.3883
   18SAPS  H12Y 2375   1.569   2.922   4.278  1.0126  2.2624 -1.0253
   18SAPS  C313 2376   1.786   2.914   4.270 -0.0361 -0.4889 -0.3288
   18SAPS  H13X 2377   1.780   2.949   4.375 -1.8617  2.2194 -1.2288
   18SAPS  H13Y 2378   1.825   2.992   4.201  0.3097 -2.1023 -2.0244
   18SAPS  C314 2379   1.891   2.801   4.272 -0.5870  0.4688 -0.0332
   18SAPS  H14X 2380   1.905   2.779   4.164  2.3628 -2.3329  0.7673
   18SAPS  H14Y 2381   1.862   2.714   4.334 -0.5625 -0.2740 -1.0489
   18SAPS  C315 2382   2.025   2.843   4.319  0.0405 -0.8698  0.4211
   18SAPS  H15X 2383   2.053   2.940   4.273 -4.1368 -0.2363 -1.2411
   18SAPS  H15Y 2384   2.104   2.774   4.280 -2.2962 -1.7766 -3.2450
   18SAPS  C316 2385   2.045   2.877   4.466  0.1383  0.6453  0.2539
   18SAPS  H16X 2386   1.989   2.967   4.497 -0.8074 -0.5540  2.2644
   18SAPS  H16Y 2387   2.150   2.909   4.483 -0.0242  1.1032  0.3974
   18SAPS  C317 2388   2.012   2.768   4.562  0.0256  0.1896 -0.3778
   18SAPS  H17X 2389   1.905   2.741   4.575  0.0554  0.4400  0.4295
   18SAPS  H17Y 2390   2.039   2.805   4.662  2.8269 -0.0588 -0.9733
   18SAPS  C318 2391   2.089   2.638   4.539 -0.1922 -1.0300 -0.0177
   18SAPS  H18X 2392   2.192   2.658   4.505 -0.5110 -0.5588 -0.7420
   18SAPS  H18Y 2393   2.032   2.583   4.461 -0.3358  2.0540 -2.2662
   18SAPS  H18Z 2394   2.103   2.585   4.636  5.1177 -1.3959 -0.7227
   19SAPS     N 2395   0.300   0.659   2.046  0.6758 -0.1009 -0.2154
   19SAPS   HN1 2396   0.215   0.601   2.035  0.8027 -0.7496  1.8312
   19SAPS   HN2 2397   0.331   0.701   1.956  1.9369  0.4836  0.4605
   19SAPS   HN3 2398   0.379   0.604   2.087 -0.4327 -0.8270  1.0014
   19SAPS   C12 2399   0.273   0.780   2.125 -0.8102 -0.0010  0.0104
   19SAPS  H12A 2400   0.348   0.850   2.092 -0.0582 -1.6353 -1.9710
   19SAPS   C13 2401   0.125   0.829   2.097 -0.4403 -0.5312 -0.1546
   19SAPS  O13A 2402   0.039   0.750   2.058 -0.3149 -0.0525 -0.8345
   19SAPS  O13B 2403   0.098   0.943   2.145  0.4471  0.4489  0.2476
   19SAPS   C11 2404   0.285   0.752   2.277 -0.2088 -0.3041 -0.7881
   19SAPS  H11A 2405   0.239   0.659   2.316  1.0125 -0.0490  1.4447
   19SAPS  H11B 2406   0.233   0.839   2.322  0.6564  0.5324 -1.3659
   19SAPS     P 2407   0.527   0.652   2.340 -0.0803 -0.0114  0.9519
   19SAPS   O13 2408   0.545   0.590   2.206  0.7432  0.6564  0.4290
   19SAPS   O14 2409   0.641   0.717   2.404 -0.3565 -0.2739 -0.2781
   19SAPS   O12 2410   0.414   0.765   2.315 -0.4690  0.2451 -0.8088
   19SAPS   O11 2411   0.462   0.541   2.433 -0.1324  0.2527 -1.0131
   19SAPS    C1 2412   0.519   0.504   2.561 -0.2891 -0.6542  0.5119
   19SAPS    HA 2413   0.477   0.404   2.586 -0.3360 -0.7417  0.0839
   19SAPS    HB 2414   0.630   0.499   2.558 -0.1650  1.3347  0.2376
   19SAPS    C2 2415   0.481   0.615   2.666  0.4298  0.3781 -0.6032
   19SAPS    HS 2416   0.532   0.711   2.646  0.2936  1.4369  3.2420
   19SAPS   O21 2417   0.510   0.565   2.792 -1.0325 -0.2492 -0.6547
   19SAPS   C21 2418   0.636   0.581   2.830  0.4690  0.3715 -0.6441
   19SAPS   O22 2419   0.717   0.652   2.774 -0.6105  0.0385 -0.6905
   19SAPS   C22 2420   0.670   0.487   2.944 -0.2607 -0.4373  0.4982
   19SAPS   H2R 2421   0.594   0.490   3.024  0.9171 -0.4252  1.6463
   19SAPS   H2S 2422   0.678   0.385   2.901  1.0149  0.0292 -0.4372
   19SAPS    C3 2423   0.327   0.635   2.667  0.8579  0.8939  1.3638
   19SAPS    HX 2424   0.293   0.546   2.724  2.0605 -0.4076  0.1343
   19SAPS    HY 2425   0.293   0.614   2.563  0.0368 -2.7822  2.2127
   19SAPS   O31 2426   0.292   0.762   2.718  0.0536  0.7434  0.5756
   19SAPS   C31 2427   0.157   0.780   2.727  0.0076 -0.1379 -0.2323
   19SAPS   O32 2428   0.076   0.714   2.665 -0.0452  0.6309  0.8310
   19SAPS   C32 2429   0.123   0.897   2.817 -0.1200  0.2056 -0.2692
   19SAPS   H2X 2430   0.025   0.944   2.791  0.4504  0.7515 -1.5491
   19SAPS   H2Y 2431   0.197   0.978   2.799  0.5924 -0.3102  0.2808
   19SAPS   C23 2432   0.803   0.531   3.010 -0.2503  0.5441 -0.1927
   19SAPS   H3R 2433   0.792   0.622   3.073 -0.9937 -0.5966  1.4068
   19SAPS   H3S 2434   0.887   0.550   2.940  0.7489  0.5988  0.9797
   19SAPS   C24 2435   0.861   0.440   3.114  0.0363  0.1955 -0.4330
   19SAPS   H4R 2436   0.962   0.478   3.142  1.2825 -0.7522 -3.3369
   19SAPS   H4S 2437   0.879   0.334   3.088 -1.2410  0.3813 -2.2819
   19SAPS   C25 2438   0.783   0.424   3.246 -0.2257 -0.4991  0.5550
   19SAPS   H5R 2439   0.702   0.349   3.241  0.0029 -0.6569 -1.8299
   19SAPS   C26 2440   0.813   0.478   3.365  0.2213  0.1272  0.0504
   19SAPS   H6R 2441   0.750   0.450   3.451  2.6675  1.0500  2.2650
   19SAPS   C27 2442   0.929   0.570   3.404  0.2429 -0.5639 -0.2372
   19SAPS   H7R 2443   1.028   0.521   3.392 -0.0354 -0.6452 -3.0114
   19SAPS   H7S 2444   0.926   0.583   3.514 -1.4610  2.5920 -0.5520
   19SAPS   C28 2445   0.928   0.704   3.345 -0.5583 -0.3183  0.7791
   19SAPS   H8R 2446   0.914   0.703   3.235  1.8257 -1.2480  0.4079
   19SAPS   C29 2447   0.931   0.822   3.407 -1.1162 -0.3963 -0.3905
   19SAPS   H9R 2448   0.937   0.915   3.348  2.2893 -1.1470 -1.4636
   19SAPS  C210 2449   0.924   0.845   3.562  0.1561 -0.5542 -0.1361
   19SAPS  H10R 2450   0.826   0.811   3.600 -1.1292 -1.3822 -3.8301
   19SAPS  H10S 2451   0.929   0.955   3.581 -2.6717 -0.1697 -1.2138
   19SAPS  C211 2452   1.045   0.798   3.643 -0.4103 -0.2894 -0.2881
   19SAPS  H11R 2453   1.118   0.741   3.584  0.6214 -1.4586  2.0082
   19SAPS  C212 2454   1.073   0.813   3.773  0.1408 -0.6447 -0.2845
   19SAPS  H12R 2455   1.161   0.761   3.813 -0.1892  0.6255  2.3274
   19SAPS  C213 2456   0.983   0.878   3.878  0.5041  0.0612 -0.3053
   19SAPS  H13R 2457   0.895   0.922   3.825 -0.0824 -2.5752 -1.7294
   19SAPS  H13S 2458   1.033   0.958   3.936  0.7688  2.4488 -3.4893
   19SAPS  C214 2459   0.937   0.776   3.979  0.5643  0.3048  0.4409
   19SAPS  H14R 2460   0.985   0.678   3.970  0.5858  0.1742  1.7229
   19SAPS  C215 2461   0.837   0.796   4.068  0.2199 -0.5760  0.3363
   19SAPS  H15R 2462   0.801   0.720   4.138 -0.0732 -0.2517  0.5403
   19SAPS  C216 2463   0.762   0.926   4.088 -0.1557  0.0508  0.3913
   19SAPS  H16R 2464   0.656   0.897   4.101 -0.4184  1.5477  1.9071
   19SAPS  H16S 2465   0.783   0.990   4.000  1.6635 -1.2261 -0.1845
   19SAPS  C217 2466   0.787   1.004   4.213 -0.0898  0.3581  0.0927
   19SAPS  H17R 2467   0.895   1.013   4.237  0.4148 -0.0736 -1.8007
   19SAPS  H17S 2468   0.741   0.941   4.293  3.5914 -0.5465  1.6787
   19SAPS  C218 2469   0.722   1.139   4.200  0.3909 -0.3718  0.4336
   19SAPS  H18R 2470   0.615   1.117   4.219  0.3337  0.5337  1.2487
   19SAPS  H18S 2471   0.721   1.184   4.098 -0.4424  0.0848  0.6300
   19SAPS  C219 2472   0.782   1.239   4.295 -1.1619 -0.8575 -0.2843
   19SAPS  H19R 2473   0.727   1.335   4.291  1.1437  0.5143 -2.0228
   19SAPS  H19S 2474   0.888   1.261   4.268 -1.1012  0.9303  1.1930
   19SAPS  C220 2475   0.794   1.189   4.443  0.5000  0.5184  0.0438
   19SAPS  H20R 2476   0.832   1.084   4.447 -1.1718 -0.1503 -0.8123
   19SAPS  H20S 2477   0.691   1.177   4.485  0.8729 -0.9816  0.6040
   19SAPS  H20T 2478   0.857   1.256   4.505 -0.4825  0.9674  0.5776
   19SAPS   C33 2479   0.121   0.855   2.958 -0.2156  0.4491 -0.2576
   19SAPS   H3X 2480   0.072   0.756   2.964  0.6394  0.0170 -0.1594
   19SAPS   H3Y 2481   0.067   0.927   3.023  1.2507  1.0548  0.3500
   19SAPS   C34 2482   0.264   0.846   3.008 -0.9303 -0.0992 -0.6643
   19SAPS   H4X 2483   0.319   0.942   3.015 -1.4438  0.1346  0.3551
   19SAPS   H4Y 2484   0.325   0.767   2.959 -2.3011 -1.9679  0.5221
   19SAPS   C35 2485   0.252   0.801   3.155  0.1014  0.2180  0.6163
   19SAPS   H5X 2486   0.154   0.762   3.190  0.6583 -0.1070  1.8627
   19SAPS   H5Y 2487   0.259   0.896   3.212 -0.5062 -0.6728  2.2336
   19SAPS   C36 2488   0.368   0.702   3.191  0.3396  0.5083  0.0549
   19SAPS   H6X 2489   0.469   0.731   3.154  0.8095  0.2409  1.0861
   19SAPS   H6Y 2490   0.350   0.600   3.151 -0.0287  0.0102  1.4239
   19SAPS   C37 2491   0.371   0.675   3.339  0.1727  0.5948  0.0426
   19SAPS   H7X 2492   0.271   0.637   3.368  0.9070 -3.0739 -1.6167
   19SAPS   H7Y 2493   0.393   0.771   3.389 -1.6709 -0.6133  3.4820
   19SAPS   C38 2494   0.474   0.564   3.378 -0.4744 -0.0098 -0.0455
   19SAPS   H8X 2495   0.580   0.597   3.367  0.0707 -0.9959  1.8880
   19SAPS   H8Y 2496   0.451   0.475   3.315  1.0599 -0.9617  0.6950
   19SAPS   C39 2497   0.451   0.518   3.519 -0.1996 -0.4570  0.2884
   19SAPS   H9X 2498   0.508   0.423   3.528  0.1061 -0.7372 -3.2446
   19SAPS   H9Y 2499   0.345   0.488   3.530 -1.1858  2.3063 -0.7789
   19SAPS  C310 2500   0.492   0.627   3.625  0.6743  0.1070  0.3285
   19SAPS  H10X 2501   0.441   0.723   3.598  3.0586  1.7369  1.2603
   19SAPS  H10Y 2502   0.601   0.648   3.620  0.6860 -0.1946 -1.7566
   19SAPS  C311 2503   0.450   0.584   3.769  0.5182  0.0640  0.3977
   19SAPS  H11X 2504   0.511   0.494   3.795  0.3918 -0.6012 -1.4407
   19SAPS  H11Y 2505   0.343   0.553   3.769  0.5514 -0.0595 -0.0270
   19SAPS  C312 2506   0.472   0.686   3.877 -0.6462 -0.3271  0.5232
   19SAPS  H12X 2507   0.405   0.772   3.856 -0.5907 -0.8488 -2.2311
   19SAPS  H12Y 2508   0.578   0.717   3.861 -0.2665 -2.0465 -0.6520
   19SAPS  C313 2509   0.447   0.633   4.015  0.1811  0.2108  0.1982
   19SAPS  H13X 2510   0.451   0.721   4.083  2.7829 -0.3246  0.8471
   19SAPS  H13Y 2511   0.535   0.566   4.029 -1.0052 -1.4975 -0.1999
   19SAPS  C314 2512   0.309   0.562   4.049  0.0095 -0.5008  0.3609
   19SAPS  H14X 2513   0.312   0.464   3.995  2.2766 -0.2648 -0.0592
   19SAPS  H14Y 2514   0.230   0.617   3.994 -1.0319 -1.9216  0.3926
   19SAPS  C315 2515   0.279   0.558   4.198 -0.6296  0.2344 -0.8358
   19SAPS  H15X 2516   0.173   0.525   4.213 -0.6795  0.9108  0.4653
   19SAPS  H15Y 2517   0.283   0.664   4.230  0.7216  0.8999 -3.0167
   19SAPS  C316 2518   0.381   0.482   4.285 -0.2457  0.1673  0.6534
   19SAPS  H16X 2519   0.347   0.474   4.390 -1.1971 -1.0749  0.2733
   19SAPS  H16Y 2520   0.469   0.549   4.283 -0.6132  0.6841 -1.9348
   19SAPS  C317 2521   0.401   0.341   4.235  0.3764 -0.8791 -0.1890
   19SAPS  H17X 2522   0.455   0.331   4.138  0.3181  0.3109 -0.3634
   19SAPS  H17Y 2523   0.300   0.300   4.213  1.1927 -2.5884 -0.8779
   19SAPS  C318 2524   0.472   0.262   4.337 -0.2061 -0.2996 -0.2035
   19SAPS  H18X 2525   0.423   0.268   4.437 -0.9717  1.3347 -0.6326
   19SAPS  H18Y 2526   0.581   0.280   4.343  0.0576 -2.1799  2.6988
   19SAPS  H18Z 2527   0.479   0.157   4.302 -0.4839 -0.7985  1.1708
   20SAPS     N 2528   3.771   1.514   2.385  0.0998  0.2735  0.0654
   20SAPS   HN1 2529   3.765   1.468   2.478  1.2777  0.6657  0.3631
   20SAPS   HN2 2530   3.746   1.436   2.322  1.8272 -1.3453  1.2745
   20SAPS   HN3 2531   3.872   1.535   2.371  0.4022 -0.4909  0.9962
   20SAPS   C12 2532   3.664   1.621   2.365  0.3638 -0.7794  1.0589
   20SAPS  H12A 2533   3.673   1.693   2.445 -1.3659 -0.1630  0.7460
   20SAPS   C13 2534   3.675   1.698   2.232 -0.1856  0.0583 -0.2620
   20SAPS  O13A 2535   3.760   1.661   2.150  0.4803 -0.1702 -0.3391
   20SAPS  O13B 2536   3.584   1.779   2.199 -0.3740  1.0931 -0.2728
   20SAPS   C11 2537   3.524   1.553   2.389  0.1020 -0.3376 -0.3162
   20SAPS  H11A 2538   3.449   1.633   2.372 -0.9082 -1.3235 -0.5407
   20SAPS  H11B 2539   3.528   1.529   2.497  0.0872  1.7968  0.2012
   20SAPS     P 2540   3.372   1.352   2.296  0.1578 -0.2140 -0.1683
   20SAPS   O13 2541   3.267   1.450   2.252 -0.7493  0.0453 -0.4979
   20SAPS   O14 2542   3.402   1.237   2.205 -0.8987 -0.1582 -0.0863
   20SAPS   O12 2543   3.512   1.433   2.304  0.1425 -0.1078 -0.3744
   20SAPS   O11 2544   3.349   1.308   2.444  0.1500 -0.5724  0.5056
   20SAPS    C1 2545   3.245   1.365   2.528 -1.7981  0.4035  0.4869
   20SAPS    HA 2546   3.278   1.470   2.546  0.3743  0.1896 -1.6123
   20SAPS    HB 2547   3.148   1.358   2.476 -2.0215  0.6878  0.8619
   20SAPS    C2 2548   3.246   1.307   2.668  0.7852 -0.6450  0.9644
   20SAPS    HS 2549   3.214   1.201   2.668 -1.4247 -0.0414  0.0188
   20SAPS   O21 2550   3.166   1.398   2.748 -0.1379  0.5307  0.1239
   20SAPS   C21 2551   3.035   1.354   2.764 -0.4241  0.0154  0.2106
   20SAPS   O22 2552   2.988   1.260   2.698 -1.0158  0.6186 -0.0926
   20SAPS   C22 2553   2.964   1.443   2.861 -0.3961  0.5557  0.0071
   20SAPS   H2R 2554   3.008   1.422   2.961  1.5834 -3.0327 -1.4161
   20SAPS   H2S 2555   2.989   1.549   2.841  1.5381  0.2447  0.5013
   20SAPS    C3 2556   3.388   1.302   2.726 -0.0708 -1.0898  0.1525
   20SAPS    HX 2557   3.410   1.407   2.755  0.0744 -0.8834 -0.6636
   20SAPS    HY 2558   3.464   1.276   2.648 -1.6932 -0.0514 -1.8708
   20SAPS   O31 2559   3.397   1.212   2.836 -0.4081  0.4583 -0.0055
   20SAPS   C31 2560   3.520   1.216   2.893  0.4599 -0.4781 -0.7911
   20SAPS   O32 2561   3.608   1.290   2.868 -0.8781  0.4319 -0.3110
   20SAPS   C32 2562   3.514   1.123   3.010 -0.1321  0.2284 -0.8725
   20SAPS   H2X 2563   3.596   1.052   2.987 -0.8523 -0.5607 -1.0534
   20SAPS   H2Y 2564   3.422   1.061   3.003 -0.1487  0.0824  0.4678
   20SAPS   C23 2565   2.805   1.428   2.847 -0.6452 -0.5935 -0.1889
   20SAPS   H3R 2566   2.793   1.330   2.897  1.7672 -1.4573 -1.1499
   20SAPS   H3S 2567   2.764   1.409   2.745 -2.6876  1.5561  0.1410
   20SAPS   C24 2568   2.738   1.540   2.921  0.7732  0.9132  0.0820
   20SAPS   H4R 2569   2.774   1.641   2.892 -1.6792  1.8837  0.0902
   20SAPS   H4S 2570   2.763   1.524   3.028  0.2257  0.2397  0.1163
   20SAPS   C25 2571   2.581   1.549   2.902 -0.0097 -0.3729  0.0148
   20SAPS   H5R 2572   2.545   1.566   2.800  0.4049  1.1742  0.1048
   20SAPS   C26 2573   2.484   1.529   2.993 -0.0285  0.0388  0.3380
   20SAPS   H6R 2574   2.385   1.557   2.955  0.2477  0.5472 -0.0224
   20SAPS   C27 2575   2.494   1.480   3.141  0.1535  0.1174  0.2780
   20SAPS   H7R 2576   2.586   1.422   3.163 -0.5086 -1.9464 -1.9501
   20SAPS   H7S 2577   2.407   1.415   3.165 -1.0815  2.0682  1.4027
   20SAPS   C28 2578   2.486   1.595   3.236 -0.1035  0.3043 -0.1194
   20SAPS   H8R 2579   2.483   1.695   3.190  2.2566 -0.1293 -1.3692
   20SAPS   C29 2580   2.489   1.586   3.372  0.2414  0.0886  0.2867
   20SAPS   H9R 2581   2.471   1.673   3.437  0.0504 -1.8701  3.0345
   20SAPS  C210 2582   2.488   1.459   3.460  0.0860  0.0091  0.5564
   20SAPS  H10R 2583   2.478   1.366   3.400  1.9389 -0.3178  0.6955
   20SAPS  H10S 2584   2.413   1.465   3.542  0.7971  2.9909  1.0869
   20SAPS  C211 2585   2.625   1.452   3.523  0.4581 -0.0640  0.4267
   20SAPS  H11R 2586   2.702   1.450   3.445 -2.0763  2.1760 -2.4099
   20SAPS  C212 2587   2.652   1.452   3.653 -0.5465  0.1330 -0.7580
   20SAPS  H12R 2588   2.757   1.437   3.685 -1.3796 -2.1781  1.1906
   20SAPS  C213 2589   2.552   1.459   3.761 -0.0556 -0.0781 -0.5464
   20SAPS  H13R 2590   2.470   1.385   3.750 -1.0727  0.8423  0.5776
   20SAPS  H13S 2591   2.506   1.561   3.756 -0.6970 -0.3864 -1.2170
   20SAPS  C214 2592   2.625   1.445   3.897  0.2289  0.2418 -1.0412
   20SAPS  H14R 2593   2.673   1.350   3.925 -1.6216 -0.3283  0.3478
   20SAPS  C215 2594   2.629   1.536   3.996 -0.2831 -0.3656 -0.1813
   20SAPS  H15R 2595   2.657   1.492   4.093 -0.4259 -0.2027 -0.0640
   20SAPS  C216 2596   2.582   1.682   3.994  0.1600  0.0751 -0.2069
   20SAPS  H16R 2597   2.475   1.694   3.966  0.9103  0.1623 -3.4463
   20SAPS  H16S 2598   2.644   1.743   3.925 -0.1449  0.1865 -0.3864
   20SAPS  C217 2599   2.598   1.742   4.131 -0.1529 -0.1769 -0.6257
   20SAPS  H17R 2600   2.706   1.727   4.155 -0.0462 -0.7297 -1.4308
   20SAPS  H17S 2601   2.532   1.678   4.193 -0.1442 -1.5296 -1.9633
   20SAPS  C218 2602   2.573   1.892   4.139 -0.2670  1.0348  0.4331
   20SAPS  H18R 2603   2.469   1.916   4.106 -0.6574 -0.7832  0.1851
   20SAPS  H18S 2604   2.633   1.934   4.056 -2.3135 -0.0224 -1.7375
   20SAPS  C219 2605   2.608   1.955   4.267 -0.8388 -0.0851 -0.6059
   20SAPS  H19R 2606   2.712   1.934   4.300 -0.6677 -1.7138 -2.0425
   20SAPS  H19S 2607   2.551   1.907   4.350 -1.2541  1.8139  0.2743
   20SAPS  C220 2608   2.576   2.103   4.268  0.2462  0.4407 -0.1306
   20SAPS  H20R 2609   2.617   2.144   4.363 -0.4652 -0.4408  0.5833
   20SAPS  H20S 2610   2.468   2.128   4.263 -0.1173 -1.2309 -2.1260
   20SAPS  H20T 2611   2.619   2.142   4.173  0.8698 -2.0864 -0.9791
   20SAPS   C33 2612   3.534   1.185   3.154 -0.5738 -0.1290 -0.2809
   20SAPS   H3X 2613   3.446   1.249   3.178  0.0735  0.5136  0.4598
   20SAPS   H3Y 2614   3.626   1.248   3.157 -1.2242  0.8715  2.6910
   20SAPS   C34 2615   3.538   1.073   3.256 -0.5944  0.1567 -0.1767
   20SAPS   H4X 2616   3.615   0.998   3.227  1.1387  1.1922  1.5036
   20SAPS   H4Y 2617   3.443   1.017   3.264 -0.1202 -0.9743 -1.8072
   20SAPS   C35 2618   3.598   1.125   3.396 -0.0641 -0.0459  0.0586
   20SAPS   H5X 2619   3.551   1.225   3.403  2.2723  1.0582  1.4504
   20SAPS   H5Y 2620   3.706   1.138   3.374 -0.2985  0.4983 -0.8344
   20SAPS   C36 2621   3.559   1.042   3.515  0.7520  0.3600  0.8174
   20SAPS   H6X 2622   3.597   0.939   3.497 -1.7440 -0.3077 -1.2728
   20SAPS   H6Y 2623   3.451   1.021   3.523  0.5359 -0.2063 -2.2516
   20SAPS   C37 2624   3.609   1.092   3.656 -0.7453  0.3233  0.2428
   20SAPS   H7X 2625   3.716   1.121   3.646 -0.8408  0.6035  0.0084
   20SAPS   H7Y 2626   3.624   1.003   3.720  0.1874 -0.2331 -0.7138
   20SAPS   C38 2627   3.538   1.206   3.717  0.7437 -0.3000 -0.4546
   20SAPS   H8X 2628   3.446   1.165   3.764  0.9087  0.0744  0.2081
   20SAPS   H8Y 2629   3.521   1.284   3.640  1.1754  0.9742  0.7116
   20SAPS   C39 2630   3.608   1.286   3.828 -0.4315 -0.0796  0.6287
   20SAPS   H9X 2631   3.542   1.373   3.847 -3.2868 -0.9218 -3.9369
   20SAPS   H9Y 2632   3.710   1.328   3.809 -0.7037  2.9658  4.4950
   20SAPS  C310 2633   3.612   1.204   3.960  0.2096 -0.1068 -0.7024
   20SAPS  H10X 2634   3.659   1.105   3.945  2.1241  0.7803 -0.7740
   20SAPS  H10Y 2635   3.506   1.174   3.977  0.6774 -1.8422 -0.6845
   20SAPS  C311 2636   3.678   1.281   4.081 -0.0919  0.6118 -0.3450
   20SAPS  H11X 2637   3.782   1.301   4.048  0.5207  0.1868  1.2229
   20SAPS  H11Y 2638   3.699   1.211   4.164  1.8094  0.7443 -0.6658
   20SAPS  C312 2639   3.610   1.412   4.131  0.0453 -0.6446  0.2888
   20SAPS  H12X 2640   3.641   1.498   4.069 -1.7119  0.2654  0.6040
   20SAPS  H12Y 2641   3.652   1.428   4.233 -0.2602 -1.5473  0.5713
   20SAPS  C313 2642   3.461   1.427   4.152 -0.1629  0.5552 -0.0223
   20SAPS  H13X 2643   3.414   1.412   4.053  2.1861 -0.6274 -1.0347
   20SAPS  H13Y 2644   3.432   1.524   4.198 -0.2465 -0.1716  1.5251
   20SAPS  C314 2645   3.387   1.317   4.233  0.5428 -0.4099  0.4266
   20SAPS  H14X 2646   3.413   1.223   4.180  2.2617  0.5689 -0.5397
   20SAPS  H14Y 2647   3.277   1.326   4.219  0.6425 -0.9733 -0.7719
   20SAPS  C315 2648   3.423   1.335   4.381  0.4856 -0.2017  0.3375
   20SAPS  H15X 2649   3.396   1.434   4.423 -0.6912 -1.9989  4.2631
   20SAPS  H15Y 2650   3.533   1.319   4.393  0.5181  0.4074  0.8976
   20SAPS  C316 2651   3.356   1.224   4.462 -0.4582 -0.3339  0.2677
   20SAPS  H16X 2652   3.386   1.127   4.418  1.0611 -0.1143  0.7558
   20SAPS  H16Y 2653   3.247   1.247   4.469  0.0310  1.8143  1.5456
   20SAPS  C317 2654   3.385   1.221   4.613 -0.3330 -0.4486 -1.1921
   20SAPS  H17X 2655   3.494   1.236   4.628 -0.5532  2.3859 -1.8432
   20SAPS  H17Y 2656   3.353   1.126   4.661  2.5573 -0.5716  0.6722
   20SAPS  C318 2657   3.319   1.336   4.692  0.6150  0.5587 -0.0159
   20SAPS  H18X 2658   3.342   1.436   4.650  1.7987  1.1755  2.0118
   20SAPS  H18Y 2659   3.350   1.324   4.798  1.0248  1.1566 -0.0644
   20SAPS  H18Z 2660   3.210   1.315   4.693  0.7485 -0.1811  0.2523
   21CHL1    C3 2661   1.791   1.516   5.993 -0.2169 -0.6930  0.1742
   21CHL1    H3 2662   1.686   1.536   5.966  0.5546 -1.3078 -3.8892
   21CHL1    O3 2663   1.809   1.520   6.134  0.1997 -0.5245 -0.8006
   21CHL1   H3' 2664   1.901   1.534   6.161  0.5118 -2.1418 -0.9509
   21CHL1    C4 2665   1.838   1.380   5.939 -0.2073  0.9620  0.2188
   21CHL1   H4A 2666   1.942   1.360   5.971  0.0518  0.5441 -0.8555
   21CHL1   H4B 2667   1.782   1.296   5.985  0.3177  0.2847 -0.3561
   21CHL1    C5 2668   1.829   1.381   5.787  0.2439 -0.4816  0.4032
   21CHL1    C6 2669   1.758   1.282   5.723 -0.1439 -0.4639 -0.3427
   21CHL1    H6 2670   1.711   1.199   5.778 -0.0697 -0.8783 -0.8999
   21CHL1    C7 2671   1.759   1.273   5.575  0.0576  0.0641 -0.4682
   21CHL1   H7A 2672   1.752   1.166   5.546  2.0549  0.3001 -2.0937
   21CHL1   H7B 2673   1.664   1.323   5.547  0.5318  0.3555 -1.6264
   21CHL1    C8 2674   1.883   1.353   5.515  0.2607  0.7108 -0.0729
   21CHL1    H8 2675   1.977   1.305   5.549  0.4004  1.0294 -0.0017
   21CHL1   C14 2676   1.878   1.346   5.361  0.4625 -0.3110 -0.1036
   21CHL1   H14 2677   1.775   1.381   5.338  0.6699 -1.2120 -2.6441
   21CHL1   C15 2678   1.885   1.203   5.302 -0.2984 -0.1148 -0.3453
   21CHL1  H15A 2679   1.976   1.152   5.339 -0.5264  0.0976  0.5250
   21CHL1  H15B 2680   1.796   1.149   5.339 -0.2024 -0.9392 -1.2853
   21CHL1   C16 2681   1.914   1.230   5.151  0.1692 -0.2444 -0.4193
   21CHL1  H16A 2682   2.003   1.173   5.116  0.6618  0.3576 -0.1617
   21CHL1  H16B 2683   1.828   1.198   5.089 -0.0283 -0.3075 -0.1187
   21CHL1   C17 2684   1.935   1.379   5.138 -0.0722  0.6521  0.4688
   21CHL1   H17 2685   1.831   1.419   5.126 -0.1353  0.7863  1.3785
   21CHL1   C13 2686   1.976   1.430   5.283 -0.2932  0.4969  0.2308
   21CHL1   C18 2687   2.122   1.378   5.318  0.2455 -0.9415 -0.1065
   21CHL1  H18A 2688   2.140   1.277   5.277  0.1981 -1.5716  1.3474
   21CHL1  H18B 2689   2.182   1.445   5.253 -0.9315  0.4067  0.1475
   21CHL1  H18C 2690   2.150   1.363   5.425 -1.3155 -1.4869  0.2569
   21CHL1   C12 2691   1.950   1.577   5.329  0.0637 -0.0245 -0.5703
   21CHL1  H12A 2692   2.013   1.648   5.271  2.4100 -2.4024 -1.1183
   21CHL1  H12B 2693   1.842   1.595   5.307 -0.2654 -1.7934 -0.5621
   21CHL1   C11 2694   1.981   1.586   5.478 -0.5115  0.0952  0.3202
   21CHL1  H11A 2695   2.087   1.558   5.496 -0.7626 -1.3240 -0.2280
   21CHL1  H11B 2696   1.966   1.692   5.507 -0.1452  0.1807  0.2083
   21CHL1    C9 2697   1.886   1.495   5.563  0.4525 -1.3779 -0.6162
   21CHL1    H9 2698   1.783   1.537   5.558  0.4329 -0.9441  1.8948
   21CHL1   C10 2699   1.913   1.490   5.712  0.4378 -0.5790  0.5604
   21CHL1   C19 2700   2.066   1.464   5.743 -0.2905 -0.5519 -0.2239
   21CHL1  H19A 2701   2.132   1.551   5.721  2.0291 -1.7378  1.6395
   21CHL1  H19B 2702   2.080   1.451   5.852 -1.0536 -0.1349 -0.0677
   21CHL1  H19C 2703   2.105   1.367   5.707  1.7640 -0.2700  1.1029
   21CHL1    C1 2704   1.879   1.628   5.780  0.6101 -0.2320 -0.4112
   21CHL1   H1A 2705   1.953   1.701   5.743  0.0326  0.8405  0.4720
   21CHL1   H1B 2706   1.778   1.667   5.753 -0.4145 -2.8253 -0.6386
   21CHL1    C2 2707   1.876   1.631   5.938 -0.2178  0.2435  0.5024
   21CHL1   H2A 2708   1.845   1.734   5.966  0.7342  0.8094 -0.4465
   21CHL1   H2B 2709   1.973   1.610   5.988 -0.9082 -0.0016  1.7828
   21CHL1   C20 2710   2.026   1.412   5.020 -0.2458 -0.3132 -0.4013
   21CHL1   H20 2711   2.122   1.357   5.029 -0.3904 -0.4989  0.0737
   21CHL1   C21 2712   2.045   1.563   5.015 -0.2936  0.1036 -0.0880
   21CHL1  H21A 2713   2.121   1.613   5.078  2.0733 -1.3735 -1.5924
   21CHL1  H21B 2714   1.944   1.604   5.038  0.7903  1.9489  1.6859
   21CHL1  H21C 2715   2.083   1.584   4.913  3.3774 -3.1697  0.3879
   21CHL1   C22 2716   1.963   1.375   4.881  0.4716  0.9545  0.0724
   21CHL1  H22A 2717   1.895   1.288   4.892  1.6105 -0.0041 -0.1973
   21CHL1  H22B 2718   1.896   1.455   4.844 -1.7620 -0.5904  0.6250
   21CHL1   C23 2719   2.060   1.344   4.768 -0.0111 -0.5457 -0.1929
   21CHL1  H23A 2720   2.113   1.437   4.739  1.6755 -1.1162  0.8681
   21CHL1  H23B 2721   2.145   1.282   4.806  0.4638  0.3503  0.2312
   21CHL1   C24 2722   1.992   1.271   4.654 -0.2187 -0.4425 -0.0452
   21CHL1  H24A 2723   1.956   1.169   4.679  1.3602 -0.5362  2.2582
   21CHL1  H24B 2724   1.909   1.338   4.626  0.0452 -0.1182 -0.0610
   21CHL1   C25 2725   2.080   1.256   4.526 -0.4823  0.6940 -0.4089
   21CHL1   H25 2726   2.110   1.358   4.492 -0.5795  0.6559 -0.6092
   21CHL1   C26 2727   2.200   1.165   4.554  0.0926  0.7308 -0.6778
   21CHL1  H26A 2728   2.275   1.218   4.618 -0.4129  0.8480 -0.1761
   21CHL1  H26B 2729   2.169   1.086   4.625  3.0621  0.5024  0.5201
   21CHL1  H26C 2730   2.250   1.123   4.464  1.9361 -0.4058  0.7831
   21CHL1   C27 2731   1.999   1.196   4.404 -0.2005 -0.0264 -0.2658
   21CHL1  H27A 2732   2.063   1.184   4.314 -0.2457  0.0191 -0.3047
   21CHL1  H27B 2733   1.969   1.093   4.433  0.3058  0.3161  1.5542
   21CHL1  H27C 2734   1.907   1.249   4.372 -0.6928 -0.1697  0.8784
   22CHL1    C3 2735   2.578   6.835   6.343  0.1349 -0.2063  0.5996
   22CHL1    H3 2736   2.670   6.898   6.352  0.5094 -0.9830  3.0022
   22CHL1    O3 2737   2.528   6.837   6.473  0.2381 -0.1018 -0.3462
   22CHL1   H3' 2738   2.442   6.795   6.467 -0.3471  0.7388  1.3504
   22CHL1    C4 2739   2.475   6.894   6.248  0.3747 -0.5005  0.3953
   22CHL1   H4A 2740   2.384   6.831   6.257 -0.5628  0.8320  0.5591
   22CHL1   H4B 2741   2.443   6.991   6.291 -0.9775 -0.8779  0.3118
   22CHL1    C5 2742   2.528   6.890   6.108  0.4823 -0.2355 -0.2628
   22CHL1    C6 2743   2.543   7.006   6.033 -0.3614  0.0301  0.6716
   22CHL1    H6 2744   2.522   7.110   6.064  0.5451  0.2256  0.6720
   22CHL1    C7 2745   2.592   7.008   5.892 -0.0168 -0.2303  0.0009
   22CHL1   H7A 2746   2.538   7.082   5.829  0.5719 -1.1107 -1.5732
   22CHL1   H7B 2747   2.702   7.027   5.898  0.2404 -1.9359  1.0931
   22CHL1    C8 2748   2.575   6.870   5.823 -0.0957 -0.7820 -0.1220
   22CHL1    H8 2749   2.465   6.867   5.807 -0.4588  2.6709  0.9864
   22CHL1   C14 2750   2.645   6.871   5.683 -0.1421 -0.5541  0.0554
   22CHL1   H14 2751   2.752   6.873   5.710 -0.6755  1.5271  2.3994
   22CHL1   C15 2752   2.618   6.988   5.593 -0.1228 -0.0079  0.0504
   22CHL1  H15A 2753   2.516   7.032   5.601  0.8216  2.2719  0.4709
   22CHL1  H15B 2754   2.677   7.081   5.610 -0.9836  0.2664  1.7583
   22CHL1   C16 2755   2.652   6.931   5.454 -0.1148  0.1102 -0.7409
   22CHL1  H16A 2756   2.572   6.944   5.378  0.1064 -0.7376 -1.1320
   22CHL1  H16B 2757   2.746   6.973   5.413 -0.1899  0.5320 -0.4882
   22CHL1   C17 2758   2.696   6.780   5.475 -0.1184 -0.0589  0.3415
   22CHL1   H17 2759   2.805   6.789   5.492 -0.0368  2.4123 -0.9342
   22CHL1   C13 2760   2.630   6.742   5.607 -0.0489  0.6757 -0.4397
   22CHL1   C18 2761   2.476   6.719   5.576 -0.1934  0.3914  0.4242
   22CHL1  H18A 2762   2.412   6.706   5.666 -0.9975 -1.1632 -0.3443
   22CHL1  H18B 2763   2.435   6.803   5.517  0.6380  0.2783 -0.3284
   22CHL1  H18C 2764   2.462   6.623   5.522 -3.5880  2.0755 -2.0586
   22CHL1   C12 2765   2.688   6.623   5.700 -0.6920  0.6918 -0.7435
   22CHL1  H12A 2766   2.670   6.520   5.663  1.0269  0.2298 -0.3789
   22CHL1  H12B 2767   2.799   6.627   5.707 -0.5390 -1.1479 -1.5895
   22CHL1   C11 2768   2.619   6.618   5.829 -0.1046 -0.3469  0.0010
   22CHL1  H11A 2769   2.512   6.591   5.818 -0.5045  0.5442  1.3231
   22CHL1  H11B 2770   2.671   6.540   5.888 -1.9514 -1.0762  0.7122
   22CHL1    C9 2771   2.623   6.751   5.912 -0.2476 -0.4140  0.4463
   22CHL1    H9 2772   2.730   6.767   5.935 -0.7039  2.0710  1.0393
   22CHL1   C10 2773   2.564   6.748   6.063  0.0995  0.0381  0.4565
   22CHL1   C19 2774   2.433   6.667   6.058 -0.2195  0.0607  0.2882
   22CHL1  H19A 2775   2.368   6.702   5.975  0.1840 -0.6006 -0.3218
   22CHL1  H19B 2776   2.450   6.559   6.040 -0.6467  0.1537 -0.7881
   22CHL1  H19C 2777   2.373   6.675   6.151 -1.0822 -1.9559 -0.0411
   22CHL1    C1 2778   2.661   6.685   6.158 -0.0031  0.5804  0.1775
   22CHL1   H1A 2779   2.659   6.577   6.130  0.5649  0.5449  0.2607
   22CHL1   H1B 2780   2.759   6.736   6.164  1.1280 -1.4919  0.3407
   22CHL1    C2 2781   2.616   6.691   6.302  0.8038 -0.0366 -0.1894
   22CHL1   H2A 2782   2.697   6.661   6.371  2.8087 -0.1794 -2.4680
   22CHL1   H2B 2783   2.528   6.628   6.330 -0.7119  1.2898 -1.7523
   22CHL1   C20 2784   2.687   6.700   5.344 -0.1909 -0.2512  0.3159
   22CHL1   H20 2785   2.584   6.704   5.302  0.6430 -2.0681 -2.1618
   22CHL1   C21 2786   2.722   6.553   5.371  0.2449  0.8318  0.3129
   22CHL1  H21A 2787   2.696   6.492   5.282 -0.2502  3.2696 -1.3235
   22CHL1  H21B 2788   2.659   6.526   5.459 -2.1443 -1.4872 -1.9358
   22CHL1  H21C 2789   2.832   6.542   5.382  0.3621  0.8872 -0.6862
   22CHL1   C22 2790   2.779   6.756   5.228 -0.7249  0.3458  0.5915
   22CHL1  H22A 2791   2.768   6.866   5.217 -0.3564  0.5745  2.3067
   22CHL1  H22B 2792   2.887   6.744   5.251 -0.7785 -1.2262  0.1609
   22CHL1   C23 2793   2.760   6.695   5.088  0.2913 -0.1946  0.1020
   22CHL1  H23A 2794   2.829   6.749   5.021  0.8049  1.0163  1.5493
   22CHL1  H23B 2795   2.805   6.593   5.090 -2.3294 -1.4641 -0.7832
   22CHL1   C24 2796   2.615   6.702   5.030  0.0358  0.5922  0.1988
   22CHL1  H24A 2797   2.541   6.643   5.088  0.5810  0.4388  0.7434
   22CHL1  H24B 2798   2.595   6.812   5.030 -0.3479  0.5263 -0.0873
   22CHL1   C25 2799   2.609   6.665   4.880 -0.1436 -0.1557  0.1350
   22CHL1   H25 2800   2.688   6.724   4.829 -0.3923 -1.6394 -2.1070
   22CHL1   C26 2801   2.634   6.513   4.868  0.4562  0.2426  0.1558
   22CHL1  H26A 2802   2.738   6.492   4.900  0.5700 -0.3286 -0.5454
   22CHL1  H26B 2803   2.563   6.462   4.936  1.4808 -0.4480  0.7295
   22CHL1  H26C 2804   2.623   6.477   4.763  1.8150  1.1482 -0.3306
   22CHL1   C27 2805   2.470   6.698   4.828 -0.2645  0.4994 -0.6779
   22CHL1  H27A 2806   2.436   6.803   4.841 -2.7151 -0.3781  0.7398
   22CHL1  H27B 2807   2.468   6.665   4.722 -1.0757  1.4327 -0.9738
   22CHL1  H27C 2808   2.401   6.645   4.896 -1.2789  3.6832  1.0096
   23CHL1    C3 2809   0.066   4.499   6.016  0.1377  0.5676  0.8571
   23CHL1    H3 2810  -0.003   4.413   6.004  1.1369  0.0891 -2.0320
   23CHL1    O3 2811   0.084   4.514   6.155 -0.5671 -0.3210 -0.1095
   23CHL1   H3' 2812   0.001   4.552   6.184 -0.1800  0.4374  0.0059
   23CHL1    C4 2813   0.193   4.469   5.949  0.1214  0.2664 -0.2163
   23CHL1   H4A 2814   0.273   4.545   5.965  2.3821 -1.6158 -1.9346
   23CHL1   H4B 2815   0.229   4.376   5.998  0.4195  0.2018 -0.5561
   23CHL1    C5 2816   0.187   4.442   5.803 -0.7263  0.4565  0.3179
   23CHL1    C6 2817   0.234   4.333   5.739  0.0191 -0.0909 -0.2377
   23CHL1    H6 2818   0.280   4.256   5.803  1.2234  0.0629 -0.8836
   23CHL1    C7 2819   0.229   4.308   5.589 -0.4229 -0.6655  0.0339
   23CHL1   H7A 2820   0.327   4.270   5.552 -0.6141  0.0038 -1.1968
   23CHL1   H7B 2821   0.156   4.231   5.559  0.4143 -1.1587 -0.7919
   23CHL1    C8 2822   0.199   4.443   5.518 -0.0950  0.1565  0.4032
   23CHL1    H8 2823   0.287   4.511   5.518 -0.5412  1.0477 -3.8158
   23CHL1   C14 2824   0.159   4.417   5.368 -0.4218  0.4554  0.0413
   23CHL1   H14 2825   0.077   4.343   5.380  1.0551 -1.5192 -1.5010
   23CHL1   C15 2826   0.258   4.344   5.269  0.4148  0.1291 -1.0584
   23CHL1  H15A 2827   0.357   4.391   5.291  0.2412  1.3858 -2.7498
   23CHL1  H15B 2828   0.258   4.237   5.300 -0.6785  0.0161 -1.4210
   23CHL1   C16 2829   0.211   4.371   5.130 -0.2096  0.1330 -0.3768
   23CHL1  H16A 2830   0.292   4.422   5.074 -1.1882  2.4306  0.1524
   23CHL1  H16B 2831   0.170   4.289   5.067 -0.8247  0.5731 -0.5688
   23CHL1   C17 2832   0.087   4.468   5.145  1.0033 -0.0723 -0.0268
   23CHL1   H17 2833  -0.003   4.404   5.157 -0.3296  1.5958 -0.6226
   23CHL1   C13 2834   0.109   4.537   5.285  0.5439  0.5381  0.2627
   23CHL1   C18 2835   0.214   4.650   5.269 -0.3640  0.1449 -0.6492
   23CHL1  H18A 2836   0.248   4.693   5.366  1.0187  0.4548 -1.2462
   23CHL1  H18B 2837   0.307   4.621   5.217 -0.7988  1.5168 -2.2999
   23CHL1  H18C 2838   0.180   4.739   5.211  0.8728 -0.6724 -2.7183
   23CHL1   C12 2839  -0.023   4.587   5.351 -0.2378  0.0771 -0.0337
   23CHL1  H12A 2840  -0.059   4.678   5.298  0.5967 -1.1392 -2.9225
   23CHL1  H12B 2841  -0.098   4.505   5.355  1.4314 -1.4935  1.8980
   23CHL1   C11 2842   0.016   4.631   5.497  0.1176 -0.1811  0.6122
   23CHL1  H11A 2843   0.088   4.716   5.490 -1.8606  1.4987 -0.5436
   23CHL1  H11B 2844  -0.078   4.671   5.540  1.5492  1.8395  2.0479
   23CHL1    C9 2845   0.082   4.514   5.581 -0.3533 -0.3061 -0.6067
   23CHL1    H9 2846   0.003   4.437   5.591  0.4088 -0.9999  0.2780
   23CHL1   C10 2847   0.120   4.555   5.729 -0.1321 -0.2838 -0.1362
   23CHL1   C19 2848   0.218   4.678   5.742  0.5528 -0.2225  0.0533
   23CHL1  H19A 2849   0.178   4.773   5.700  0.9710  0.1269  0.4339
   23CHL1  H19B 2850   0.249   4.705   5.845 -1.0586  1.9450  0.0434
   23CHL1  H19C 2851   0.309   4.648   5.686  1.5280 -0.8429  1.8893
   23CHL1    C1 2852  -0.014   4.587   5.807  0.1313  0.4652  0.6963
   23CHL1   H1A 2853  -0.055   4.680   5.762 -1.2379 -1.0339 -1.3199
   23CHL1   H1B 2854  -0.090   4.508   5.788 -0.6395  1.0898  1.0947
   23CHL1    C2 2855  -0.001   4.624   5.954  0.0351 -0.0528  0.0194
   23CHL1   H2A 2856  -0.101   4.645   5.998 -0.5798  1.7315 -2.0318
   23CHL1   H2B 2857   0.067   4.711   5.967 -2.3019  2.3558 -2.4954
   23CHL1   C20 2858   0.050   4.550   5.015 -0.1774  0.0260 -0.0100
   23CHL1   H20 2859   0.103   4.648   5.014 -0.8085  0.3708 -0.4967
   23CHL1   C21 2860  -0.097   4.573   5.020  0.2601 -0.8133 -0.2626
   23CHL1  H21A 2861  -0.132   4.612   4.922 -0.2216  1.0342  0.5978
   23CHL1  H21B 2862  -0.143   4.627   5.106  1.5262  0.7760 -0.5364
   23CHL1  H21C 2863  -0.136   4.470   5.033 -0.2494 -0.3764  2.3511
   23CHL1   C22 2864   0.092   4.471   4.880  0.7678 -0.1575 -0.2858
   23CHL1  H22A 2865   0.202   4.461   4.890  1.0179  0.6197 -1.8222
   23CHL1  H22B 2866   0.043   4.371   4.881  0.2023  0.1153 -0.3159
   23CHL1   C23 2867   0.070   4.543   4.743 -0.0699 -0.2222 -0.6507
   23CHL1  H23A 2868  -0.025   4.601   4.736  0.5815  0.7907 -1.2970
   23CHL1  H23B 2869   0.141   4.627   4.728 -1.8761  1.0694 -2.7449
   23CHL1   C24 2870   0.096   4.444   4.633 -0.3872  0.4957 -0.1843
   23CHL1  H24A 2871   0.130   4.516   4.556 -1.1935  0.1457 -0.8762
   23CHL1  H24B 2872   0.187   4.386   4.661 -0.8765  0.6117  1.8546
   23CHL1   C25 2873  -0.021   4.351   4.585 -0.4012 -0.6391 -0.6896
   23CHL1   H25 2874  -0.047   4.291   4.675 -1.5464 -0.8670 -1.1544
   23CHL1   C26 2875  -0.145   4.422   4.537  0.4415 -0.2704  0.4032
   23CHL1  H26A 2876  -0.223   4.343   4.523  1.9760 -1.6814 -0.5638
   23CHL1  H26B 2877  -0.183   4.488   4.618  0.0889 -1.2470  1.0613
   23CHL1  H26C 2878  -0.131   4.481   4.444  3.3312 -1.3219  0.0666
   23CHL1   C27 2879   0.042   4.250   4.484  0.0172  0.7566  0.3320
   23CHL1  H27A 2880   0.136   4.216   4.532 -0.8208  0.7657  2.0557
   23CHL1  H27B 2881  -0.022   4.162   4.461 -0.6168  1.3927 -0.3942
   23CHL1  H27C 2882   0.058   4.293   4.383 -0.9161 -0.4928 -0.3778
   24CHL1    C3 2883   3.538   5.298   6.223 -0.5689  0.1616  0.5551
   24CHL1    H3 2884   3.625   5.350   6.177 -1.0266  0.2356 -0.2547
   24CHL1    O3 2885   3.544   5.309   6.371 -0.5847 -0.0024  0.3076
   24CHL1   H3' 2886   3.516   5.397   6.398 -0.3785 -0.0930  0.8291
   24CHL1    C4 2887   3.413   5.374   6.167 -0.5586 -0.4830 -1.3313
   24CHL1   H4A 2888   3.323   5.319   6.202 -0.6842 -0.6476 -1.8982
   24CHL1   H4B 2889   3.410   5.479   6.204 -0.5913 -0.9543  0.0630
   24CHL1    C5 2890   3.426   5.372   6.013 -0.8637  0.0993 -0.5088
   24CHL1    C6 2891   3.443   5.472   5.931 -0.3358 -0.1476  0.4762
   24CHL1    H6 2892   3.433   5.574   5.970  0.0004  0.4746 -1.0069
   24CHL1    C7 2893   3.441   5.460   5.779 -0.2095  0.3788 -0.3347
   24CHL1   H7A 2894   3.395   5.547   5.728 -0.4223 -0.4469 -1.5962
   24CHL1   H7B 2895   3.545   5.449   5.741 -0.7442 -0.0059 -1.7261
   24CHL1    C8 2896   3.374   5.326   5.725 -0.1986  0.0635 -0.1550
   24CHL1    H8 2897   3.267   5.331   5.755  0.0202 -1.0771  0.9150
   24CHL1   C14 2898   3.399   5.319   5.570  0.0719 -0.2964  0.8036
   24CHL1   H14 2899   3.510   5.315   5.568  0.0707 -1.3717 -2.1941
   24CHL1   C15 2900   3.346   5.439   5.484  0.5399  0.6027 -0.4026
   24CHL1  H15A 2901   3.247   5.475   5.517  0.1783 -1.1629  0.5826
   24CHL1  H15B 2902   3.415   5.527   5.478 -0.7692  1.6103 -1.1048
   24CHL1   C16 2903   3.340   5.376   5.337  0.7835 -0.3406 -0.7008
   24CHL1  H16A 2904   3.233   5.376   5.310  0.4748  1.2514  0.3784
   24CHL1  H16B 2905   3.411   5.430   5.270  0.7846  0.6377  0.0494
   24CHL1   C17 2906   3.383   5.227   5.353  0.0132  0.7081  0.4066
   24CHL1   H17 2907   3.494   5.222   5.351  0.1461  0.0742  3.6995
   24CHL1   C13 2908   3.353   5.191   5.496  0.2637  0.6021 -0.4433
   24CHL1   C18 2909   3.200   5.171   5.517  1.0917 -0.1582  0.6495
   24CHL1  H18A 2910   3.161   5.084   5.462 -0.0532  0.4385  0.4927
   24CHL1  H18B 2911   3.182   5.148   5.624  0.7888  0.6390  0.7766
   24CHL1  H18C 2912   3.151   5.259   5.470  1.3905  0.5928  1.6850
   24CHL1   C12 2913   3.431   5.078   5.564  0.4325 -0.1105  0.2697
   24CHL1  H12A 2914   3.403   4.975   5.532  0.2145 -0.0228  0.1808
   24CHL1  H12B 2915   3.538   5.090   5.537  0.2423 -0.9080 -0.8925
   24CHL1   C11 2916   3.403   5.078   5.724  0.0589 -0.0628 -0.1515
   24CHL1  H11A 2917   3.298   5.050   5.747 -0.1900  0.3851 -0.7068
   24CHL1  H11B 2918   3.472   5.002   5.766  0.7916 -0.0138 -1.2139
   24CHL1    C9 2919   3.436   5.211   5.797 -0.2219 -0.2459  0.0400
   24CHL1    H9 2920   3.546   5.217   5.790 -0.1309 -1.8963 -0.3472
   24CHL1   C10 2921   3.413   5.224   5.949  0.4185 -0.0775  1.0458
   24CHL1   C19 2922   3.272   5.161   5.982  0.0807 -0.3970 -0.5022
   24CHL1  H19A 2923   3.242   5.168   6.089 -2.1637  0.8803 -1.1316
   24CHL1  H19B 2924   3.187   5.204   5.925 -0.6715 -1.2275 -0.0389
   24CHL1  H19C 2925   3.276   5.053   5.957  1.8098 -0.3418 -0.5880
   24CHL1    C1 2926   3.532   5.152   6.013 -0.5755  0.3994  0.3769
   24CHL1   H1A 2927   3.531   5.043   5.989  0.7522  0.6998 -1.2396
   24CHL1   H1B 2928   3.634   5.187   5.986  0.0552 -1.9163 -0.5142
   24CHL1    C2 2929   3.538   5.156   6.167 -0.2555  0.1957 -0.3764
   24CHL1   H2A 2930   3.627   5.101   6.207 -0.5990 -0.2085 -0.1593
   24CHL1   H2B 2931   3.445   5.107   6.201 -0.4068  1.6827  1.4799
   24CHL1   C20 2932   3.338   5.137   5.234 -0.1219 -0.7446 -0.1664
   24CHL1   H20 2933   3.228   5.123   5.242 -0.0378 -0.2751  4.1464
   24CHL1   C21 2934   3.406   4.996   5.246 -0.2201  0.4210  0.1506
   24CHL1  H21A 2935   3.397   4.932   5.156  1.2966  1.6930 -0.9566
   24CHL1  H21B 2936   3.374   4.950   5.342  0.7448  1.0499  0.7952
   24CHL1  H21C 2937   3.515   5.011   5.263 -0.2143  2.1940 -1.1496
   24CHL1   C22 2938   3.360   5.207   5.095  0.8730  0.5850 -1.2539
   24CHL1  H22A 2939   3.289   5.292   5.081  1.4656  1.2896 -0.1166
   24CHL1  H22B 2940   3.463   5.249   5.085  1.5026 -0.5515  0.2881
   24CHL1   C23 2941   3.330   5.113   4.976  0.0401 -0.5008 -0.3024
   24CHL1  H23A 2942   3.403   5.030   4.974 -0.8843 -1.3514  0.0988
   24CHL1  H23B 2943   3.227   5.071   4.982 -1.8971  3.6939 -0.5979
   24CHL1   C24 2944   3.336   5.200   4.849  0.0050  0.2708  0.4863
   24CHL1  H24A 2945   3.272   5.289   4.864  0.5244  0.4089  2.1058
   24CHL1  H24B 2946   3.443   5.228   4.835  0.4972 -1.6526  0.0765
   24CHL1   C25 2947   3.303   5.123   4.718 -0.0633  0.0282 -0.1296
   24CHL1   H25 2948   3.371   5.037   4.704  1.6541  1.0007  1.7880
   24CHL1   C26 2949   3.163   5.055   4.717  0.4807  0.0888 -0.5135
   24CHL1  H26A 2950   3.149   4.990   4.628 -1.3077 -1.8474  1.0849
   24CHL1  H26B 2951   3.157   4.990   4.807  1.5056  1.1322  0.3352
   24CHL1  H26C 2952   3.084   5.132   4.719  1.8281  1.5070  0.5728
   24CHL1   C27 2953   3.325   5.206   4.592  0.6683 -0.6060  0.3409
   24CHL1  H27A 2954   3.284   5.145   4.508 -0.1263  0.6861 -0.2265
   24CHL1  H27B 2955   3.276   5.305   4.603  2.9311  0.4210  2.2243
   24CHL1  H27C 2956   3.434   5.212   4.572  0.5027  0.9542 -0.1573
   25CHL1    C3 2957   6.029   2.443   6.143  0.1226 -0.2853 -0.3479
   25CHL1    H3 2958   5.927   2.474   6.173  0.7066  0.1558  1.2979
   25CHL1    O3 2959   6.108   2.453   6.258 -0.1887 -0.7356 -0.0631
   25CHL1   H3' 2960   6.121   2.366   6.296 -2.9596 -1.0884  0.3347
   25CHL1    C4 2961   6.034   2.302   6.090 -0.0081  0.1839 -0.5009
   25CHL1   H4A 2962   6.136   2.258   6.098 -0.0744  0.2654  1.4979
   25CHL1   H4B 2963   5.971   2.237   6.154  1.0257 -0.7325 -0.3778
   25CHL1    C5 2964   5.987   2.272   5.950 -0.3572 -0.0146  0.0100
   25CHL1    C6 2965   5.895   2.173   5.915  0.2289 -0.3307 -0.2916
   25CHL1    H6 2966   5.861   2.102   5.991 -1.3621  1.2290  0.5448
   25CHL1    C7 2967   5.835   2.136   5.784 -0.2995  0.6151  0.0603
   25CHL1   H7A 2968   5.849   2.027   5.769  0.5704  0.6597  0.4881
   25CHL1   H7B 2969   5.727   2.161   5.779 -0.0184  1.7135 -2.1409
   25CHL1    C8 2970   5.900   2.220   5.672 -0.0623  0.9651  0.4287
   25CHL1    H8 2971   5.992   2.167   5.640 -2.1527 -2.3416 -0.6483
   25CHL1   C14 2972   5.809   2.212   5.543 -0.9336 -0.7044 -0.6553
   25CHL1   H14 2973   5.708   2.246   5.575  0.6780  3.2264  0.8694
   25CHL1   C15 2974   5.787   2.072   5.479 -0.1363 -0.4344 -0.6826
   25CHL1  H15A 2975   5.888   2.028   5.465  1.0480  1.9200 -0.0866
   25CHL1  H15B 2976   5.727   2.004   5.543  1.3057  0.5797  1.8854
   25CHL1   C16 2977   5.744   2.108   5.338  0.5552  0.2469  0.1084
   25CHL1  H16A 2978   5.806   2.051   5.265 -1.4910  0.1104 -1.6278
   25CHL1  H16B 2979   5.647   2.067   5.301  0.9076 -1.0183  0.5330
   25CHL1   C17 2980   5.761   2.263   5.318 -0.3936  0.0880 -0.3032
   25CHL1   H17 2981   5.662   2.305   5.348  1.0528  2.1641  1.8917
   25CHL1   C13 2982   5.852   2.302   5.431 -0.1273  0.1585 -0.1908
   25CHL1   C18 2983   5.993   2.263   5.396 -0.4162  0.4082 -0.3857
   25CHL1  H18A 2984   6.003   2.164   5.348  2.7266  0.0314  0.8279
   25CHL1  H18B 2985   6.039   2.325   5.316 -1.8571  2.0622 -0.0088
   25CHL1  H18C 2986   6.060   2.265   5.485 -0.4579  1.6826 -0.3656
   25CHL1   C12 2987   5.838   2.444   5.480 -0.2194  0.5359  0.1284
   25CHL1  H12A 2988   5.859   2.517   5.398 -0.3766 -0.1107 -0.4996
   25CHL1  H12B 2989   5.735   2.466   5.515 -0.1722 -0.2953  0.7975
   25CHL1   C11 2990   5.932   2.469   5.602 -0.2059  0.8673 -0.2329
   25CHL1  H11A 2991   6.036   2.471   5.562  0.0043  3.0218  0.2946
   25CHL1  H11B 2992   5.930   2.575   5.637  1.9798  0.7528  0.4196
   25CHL1    C9 2993   5.921   2.367   5.723 -0.1819 -0.0791  0.9941
   25CHL1    H9 2994   5.820   2.383   5.767 -1.1210 -1.2745 -0.6177
   25CHL1   C10 2995   6.025   2.378   5.844 -0.1751 -0.0998 -0.2033
   25CHL1   C19 2996   6.174   2.352   5.796  0.8024  0.9535 -0.4649
   25CHL1  H19A 2997   6.250   2.384   5.871  2.7497  0.6714 -2.2290
   25CHL1  H19B 2998   6.174   2.244   5.770  2.7240  0.5025  1.1030
   25CHL1  H19C 2999   6.196   2.401   5.699  1.9937 -0.8650 -1.1718
   25CHL1    C1 3000   6.012   2.520   5.913 -0.1052 -0.0508 -0.1625
   25CHL1   H1A 3001   6.048   2.591   5.835  1.6807  1.0142  1.5450
   25CHL1   H1B 3002   5.902   2.537   5.920 -0.4446 -1.8571 -0.6028
   25CHL1    C2 3003   6.085   2.542   6.041  0.4365  0.0509 -0.2826
   25CHL1   H2A 3004   6.070   2.645   6.080  1.3838 -0.3789  1.3146
   25CHL1   H2B 3005   6.192   2.538   6.013  1.0556  3.7136  0.9944
   25CHL1   C20 3006   5.789   2.300   5.168 -0.6387 -0.0205 -0.3244
   25CHL1   H20 3007   5.892   2.261   5.154 -0.7658 -0.6260  0.3208
   25CHL1   C21 3008   5.808   2.453   5.152 -0.3922  0.3947  0.2705
   25CHL1  H21A 3009   5.901   2.481   5.206 -0.7490 -1.1044  1.7707
   25CHL1  H21B 3010   5.733   2.528   5.184  0.7384  0.5810  2.6823
   25CHL1  H21C 3011   5.834   2.476   5.046  0.3576 -2.3177 -0.2246
   25CHL1   C22 3012   5.691   2.237   5.068  0.2466 -0.7204 -0.1186
   25CHL1  H22A 3013   5.680   2.128   5.087 -2.3039 -0.7291 -1.2462
   25CHL1  H22B 3014   5.589   2.279   5.078  0.3557 -0.7101  1.1496
   25CHL1   C23 3015   5.727   2.233   4.917 -0.8912 -0.1794  0.6043
   25CHL1  H23A 3016   5.771   2.331   4.890  1.3453 -1.5496 -1.0981
   25CHL1  H23B 3017   5.808   2.157   4.905  0.0654  1.0070 -0.8422
   25CHL1   C24 3018   5.605   2.190   4.837  0.3566 -0.6752  0.0665
   25CHL1  H24A 3019   5.574   2.089   4.872  4.3179 -2.8027 -1.8812
   25CHL1  H24B 3020   5.517   2.255   4.858  1.5459 -0.0022  3.6774
   25CHL1   C25 3021   5.619   2.155   4.682 -0.7379 -0.2509 -0.3947
   25CHL1   H25 3022   5.520   2.116   4.649 -2.0471  0.3121  2.4673
   25CHL1   C26 3023   5.635   2.283   4.595 -0.1981  0.1651  0.0219
   25CHL1  H26A 3024   5.704   2.353   4.648 -0.8349  0.6185  0.2644
   25CHL1  H26B 3025   5.685   2.255   4.500  0.5837 -0.2453  0.5342
   25CHL1  H26C 3026   5.538   2.336   4.592 -0.4345  0.0772  2.7700
   25CHL1   C27 3027   5.732   2.046   4.661 -0.8123 -0.2382 -0.0433
   25CHL1  H27A 3028   5.713   1.952   4.717 -2.1221 -1.2696 -2.0915
   25CHL1  H27B 3029   5.745   2.017   4.554 -0.6778  1.2248 -0.4492
   25CHL1  H27C 3030   5.828   2.092   4.692 -1.7382  1.9819 -0.2654
   26CHL1    C3 3031   2.186   0.467   6.240  0.4248  0.0934 -0.4000
   26CHL1    H3 3032   2.292   0.486   6.212 -0.1315 -0.0770 -2.9030
   26CHL1    O3 3033   2.161   0.521   6.372  0.1091 -0.3805 -0.0572
   26CHL1   H3' 3034   2.137   0.611   6.351 -0.1819 -0.0722  1.4424
   26CHL1    C4 3035   2.093   0.521   6.131  0.6497 -0.4255  0.3128
   26CHL1   H4A 3036   1.986   0.516   6.158  0.7433 -0.6155  0.6437
   26CHL1   H4B 3037   2.115   0.629   6.116 -0.0871 -0.4974 -1.5636
   26CHL1    C5 3038   2.125   0.469   5.992  0.0777  0.3504  0.5542
   26CHL1    C6 3039   2.180   0.541   5.899  0.1000 -0.1220 -0.2809
   26CHL1    H6 3040   2.183   0.649   5.918  2.6632  0.1418 -1.6502
   26CHL1    C7 3041   2.190   0.494   5.758  0.1721  0.0752  0.2349
   26CHL1   H7A 3042   2.130   0.566   5.697 -0.7291 -1.3018 -0.5554
   26CHL1   H7B 3043   2.295   0.487   5.723  0.2432 -1.2124  0.6757
   26CHL1    C8 3044   2.126   0.352   5.742  0.3073 -0.3801  0.7556
   26CHL1    H8 3045   2.016   0.359   5.728  0.5856 -1.0314 -2.5865
   26CHL1   C14 3046   2.178   0.289   5.606  0.2103 -0.7046 -0.4998
   26CHL1   H14 3047   2.288   0.274   5.618  0.1115  0.3557  2.7893
   26CHL1   C15 3048   2.151   0.374   5.480  0.4798  0.7182 -0.6812
   26CHL1  H15A 3049   2.049   0.419   5.478  0.0808 -0.1733 -1.6857
   26CHL1  H15B 3050   2.232   0.449   5.468 -0.0106  1.1847 -1.1431
   26CHL1   C16 3051   2.156   0.280   5.361  0.8390  0.2417  0.1712
   26CHL1  H16A 3052   2.070   0.291   5.292  1.1256  0.8606 -0.0879
   26CHL1  H16B 3053   2.248   0.303   5.304  0.8977  0.3653  0.3143
   26CHL1   C17 3054   2.165   0.140   5.426  0.1059  0.4047 -1.2453
   26CHL1   H17 3055   2.275   0.128   5.439 -0.1341 -1.7255 -0.7120
   26CHL1   C13 3056   2.120   0.156   5.577  0.1993 -0.3867 -0.1601
   26CHL1   C18 3057   1.967   0.174   5.569  0.5923 -0.1259  0.5414
   26CHL1  H18A 3058   1.920   0.177   5.670  0.7129  0.0776  0.5911
   26CHL1  H18B 3059   1.932   0.256   5.503 -0.4959 -1.4781 -0.6294
   26CHL1  H18C 3060   1.921   0.087   5.517 -0.7197 -0.2442  1.8321
   26CHL1   C12 3061   2.161   0.055   5.685 -0.3034 -0.4840  0.3541
   26CHL1  H12A 3062   2.128  -0.048   5.662  0.5421 -0.8909  0.9036
   26CHL1  H12B 3063   2.271   0.037   5.682 -0.3532 -0.6950 -0.3122
   26CHL1   C11 3064   2.124   0.105   5.827 -0.4836 -0.3147  0.0134
   26CHL1  H11A 3065   2.016   0.080   5.838 -1.1228  1.8968 -0.8110
   26CHL1  H11B 3066   2.187   0.045   5.896 -0.6655 -0.6048 -0.0699
   26CHL1    C9 3067   2.160   0.257   5.857  0.0147 -0.0199 -0.2696
   26CHL1    H9 3068   2.270   0.255   5.872 -0.1156 -3.1406  1.1539
   26CHL1   C10 3069   2.107   0.314   5.986 -0.0278 -0.2189 -0.3016
   26CHL1   C19 3070   1.954   0.273   5.994  0.5680 -0.5342 -0.3521
   26CHL1  H19A 3071   1.942   0.162   5.996  2.3123 -0.7440  1.3918
   26CHL1  H19B 3072   1.912   0.314   6.088 -2.2081 -1.9784 -0.8461
   26CHL1  H19C 3073   1.906   0.321   5.906  0.1220  2.6193  1.4639
   26CHL1    C1 3074   2.196   0.260   6.104  0.0104  0.0567 -0.0491
   26CHL1   H1A 3075   2.181   0.150   6.093  1.0794  0.1849 -4.5700
   26CHL1   H1B 3076   2.303   0.279   6.081 -0.0995  1.1471  0.2761
   26CHL1    C2 3077   2.158   0.315   6.246  0.3249  0.2272  0.1624
   26CHL1   H2A 3078   2.223   0.267   6.322 -3.3141  1.1252  4.2307
   26CHL1   H2B 3079   2.055   0.290   6.278  0.4025  0.7185  0.8126
   26CHL1   C20 3080   2.119   0.022   5.333 -0.4828  0.1362  0.1567
   26CHL1   H20 3081   2.009   0.043   5.330 -0.5401  0.0819  1.2053
   26CHL1   C21 3082   2.149  -0.118   5.391  0.6554  0.4831 -0.0219
   26CHL1  H21A 3083   2.260  -0.120   5.404  0.7487 -0.2087 -0.8538
   26CHL1  H21B 3084   2.107  -0.197   5.325 -2.0800  1.2037  0.7349
   26CHL1  H21C 3085   2.099  -0.139   5.488  0.4447 -1.5060 -0.5139
   26CHL1   C22 3086   2.188   0.027   5.194 -0.1794  0.3956  0.0394
   26CHL1  H22A 3087   2.232   0.124   5.163  0.5917 -0.8708 -3.1477
   26CHL1  H22B 3088   2.276  -0.040   5.184  0.0174  0.5962  0.3786
   26CHL1   C23 3089   2.086  -0.008   5.086  0.0972 -0.6372 -0.0482
   26CHL1  H23A 3090   2.042  -0.107   5.112 -0.3154 -0.0494  1.6133
   26CHL1  H23B 3091   2.003   0.065   5.074  1.3102  0.5434 -1.6546
   26CHL1   C24 3092   2.148  -0.022   4.945 -0.6080  0.2067 -0.6701
   26CHL1  H24A 3093   2.196   0.070   4.907  1.1000  0.0286  0.9364
   26CHL1  H24B 3094   2.223  -0.103   4.956  1.5895  2.3105  0.9982
   26CHL1   C25 3095   2.049  -0.047   4.832  0.0291  0.6015 -0.8248
   26CHL1   H25 3096   1.973  -0.119   4.871  1.2947 -0.2398  0.1796
   26CHL1   C26 3097   1.985   0.079   4.782 -0.3713 -0.7515 -0.4636
   26CHL1  H26A 3098   2.060   0.135   4.724  0.8112 -2.4920 -0.7129
   26CHL1  H26B 3099   1.887   0.070   4.730 -1.2278 -0.3243  1.0197
   26CHL1  H26C 3100   1.959   0.139   4.872 -0.2271 -1.5360  0.1167
   26CHL1   C27 3101   2.129  -0.107   4.723 -0.1727 -0.4387  0.3090
   26CHL1  H27A 3102   2.210  -0.035   4.700  0.7741 -1.2194  1.0974
   26CHL1  H27B 3103   2.181  -0.199   4.758 -0.0258 -0.9376 -1.1645
   26CHL1  H27C 3104   2.084  -0.133   4.625 -0.4071 -5.4201  1.4178
   27CHL1    C3 3105   6.396   5.188   6.272  0.2859 -0.6167  0.6551
   27CHL1    H3 3106   6.502   5.156   6.275  0.5399  0.0784 -0.2929
   27CHL1    O3 3107   6.359   5.203   6.411 -0.1210  0.1025 -0.1126
   27CHL1   H3' 3108   6.268   5.231   6.424 -0.1217  0.1395 -0.2007
   27CHL1    C4 3109   6.404   5.326   6.206 -0.4798 -0.1017 -0.3974
   27CHL1   H4A 3110   6.316   5.386   6.235 -0.5917 -0.5967  0.2977
   27CHL1   H4B 3111   6.483   5.374   6.268  0.1040 -1.9520  0.3784
   27CHL1    C5 3112   6.445   5.328   6.064  0.3767  0.2561  0.5071
   27CHL1    C6 3113   6.553   5.399   6.016 -0.4106  0.5160  0.3644
   27CHL1    H6 3114   6.618   5.452   6.088 -0.4158  0.0545  0.7145
   27CHL1    C7 3115   6.583   5.401   5.870 -0.2813 -0.3428  0.5055
   27CHL1   H7A 3116   6.605   5.506   5.843 -0.5577  0.8251  4.2144
   27CHL1   H7B 3117   6.671   5.335   5.852  0.6310  0.5053  1.7048
   27CHL1    C8 3118   6.468   5.358   5.783  0.0258 -0.4268 -0.1427
   27CHL1    H8 3119   6.396   5.443   5.784  0.8148  0.2541 -0.6439
   27CHL1   C14 3120   6.517   5.328   5.641  0.0845  0.0823  0.2885
   27CHL1   H14 3121   6.588   5.243   5.657  3.0782  2.4287  0.4381
   27CHL1   C15 3122   6.613   5.441   5.580  0.7059  0.3142 -0.2261
   27CHL1  H15A 3123   6.562   5.540   5.585 -2.2953 -1.1626  1.7246
   27CHL1  H15B 3124   6.716   5.441   5.621  1.0116 -0.4658 -0.9787
   27CHL1   C16 3125   6.614   5.410   5.430  0.2288 -0.8190 -0.6710
   27CHL1  H16A 3126   6.586   5.500   5.372  1.8690 -0.0698 -0.3549
   27CHL1  H16B 3127   6.711   5.373   5.391  0.1271 -1.1927 -0.5710
   27CHL1   C17 3128   6.504   5.294   5.408  1.0890  0.1952 -0.5902
   27CHL1   H17 3129   6.559   5.198   5.403  0.0513 -0.3792 -1.7353
   27CHL1   C13 3130   6.417   5.294   5.532  0.7050 -0.8161  0.2470
   27CHL1   C18 3131   6.312   5.411   5.522 -0.0753  0.0584 -0.5886
   27CHL1  H18A 3132   6.228   5.375   5.459 -1.5366  0.8209  0.8409
   27CHL1  H18B 3133   6.264   5.430   5.621 -0.6584 -2.6224 -0.2695
   27CHL1  H18C 3134   6.350   5.505   5.477  0.9466 -0.0849 -0.0616
   27CHL1   C12 3135   6.348   5.162   5.577  0.1228 -0.1344  0.3245
   27CHL1  H12A 3136   6.257   5.123   5.525  0.5931 -1.1675  0.2495
   27CHL1  H12B 3137   6.419   5.077   5.570 -2.4812 -2.4889  0.3988
   27CHL1   C11 3138   6.300   5.176   5.724  0.4052 -0.1667 -0.2091
   27CHL1  H11A 3139   6.208   5.238   5.724  0.3584 -0.2362  0.1560
   27CHL1  H11B 3140   6.268   5.076   5.760 -1.4249  0.5678  0.2801
   27CHL1    C9 3141   6.405   5.230   5.832  0.1352  0.0332 -0.1351
   27CHL1    H9 3142   6.494   5.164   5.835 -0.5875 -0.9219  0.7749
   27CHL1   C10 3143   6.351   5.252   5.975 -0.0061  0.4251  0.9491
   27CHL1   C19 3144   6.209   5.322   5.971 -0.7733  0.0004 -0.2872
   27CHL1  H19A 3145   6.177   5.358   6.071  1.4988  0.2464  0.4214
   27CHL1  H19B 3146   6.206   5.414   5.908 -0.7370  0.2078  0.0143
   27CHL1  H19C 3147   6.133   5.247   5.941 -1.8592  1.2016 -0.6265
   27CHL1    C1 3148   6.330   5.107   6.045 -0.1596 -0.7750 -0.8706
   27CHL1   H1A 3149   6.252   5.049   5.990 -0.7169 -0.4555 -0.4208
   27CHL1   H1B 3150   6.420   5.044   6.028 -0.1767 -0.7211 -1.1693
   27CHL1    C2 3151   6.295   5.102   6.198 -0.4434  0.1537  1.0874
   27CHL1   H2A 3152   6.288   4.998   6.236 -1.5315 -0.2545 -0.1442
   27CHL1   H2B 3153   6.195   5.149   6.213 -0.5636  0.7008 -1.0508
   27CHL1   C20 3154   6.430   5.317   5.275 -1.0422  0.2913 -0.2512
   27CHL1   H20 3155   6.370   5.410   5.273  0.2944  1.1940 -0.0030
   27CHL1   C21 3156   6.340   5.193   5.256  0.5058  0.3812  0.4882
   27CHL1  H21A 3157   6.378   5.089   5.256 -1.4989 -0.4599 -1.8462
   27CHL1  H21B 3158   6.294   5.187   5.155  0.5048  0.1234  0.5029
   27CHL1  H21C 3159   6.252   5.195   5.323  0.4444 -0.0018  0.4229
   27CHL1   C22 3160   6.534   5.324   5.152  0.8709  0.3660 -0.7935
   27CHL1  H22A 3161   6.626   5.381   5.178  1.0409 -0.4100  0.3905
   27CHL1  H22B 3162   6.555   5.219   5.123  1.8435  0.1544  0.5615
   27CHL1   C23 3163   6.455   5.386   5.039 -0.1566  0.4561  0.1540
   27CHL1  H23A 3164   6.378   5.314   5.005 -0.2700  0.5323  0.2449
   27CHL1  H23B 3165   6.398   5.467   5.090  1.5247  1.7478  0.0676
   27CHL1   C24 3166   6.529   5.435   4.920  0.0581 -0.3808  0.0300
   27CHL1  H24A 3167   6.451   5.498   4.872 -1.3083 -2.4132 -0.5433
   27CHL1  H24B 3168   6.612   5.505   4.942  0.1458 -0.9819  1.8223
   27CHL1   C25 3169   6.577   5.329   4.806 -0.2070 -0.5971 -0.0370
   27CHL1   H25 3170   6.638   5.249   4.852 -0.2067 -0.8921 -0.5358
   27CHL1   C26 3171   6.464   5.260   4.730 -0.7262  0.8503 -0.1617
   27CHL1  H26A 3172   6.487   5.225   4.627 -1.5454  1.1806 -0.4611
   27CHL1  H26B 3173   6.430   5.179   4.798 -0.3970  2.5595  2.1262
   27CHL1  H26C 3174   6.377   5.328   4.718 -1.7471 -0.6642 -2.0248
   27CHL1   C27 3175   6.675   5.391   4.704 -0.1121  0.2036 -0.5022
   27CHL1  H27A 3176   6.637   5.493   4.682 -1.6625 -0.2645 -0.1106
   27CHL1  H27B 3177   6.670   5.325   4.614 -0.8580 -0.6011  0.1021
   27CHL1  H27C 3178   6.782   5.390   4.734  0.1031  3.1423 -0.8616
   28CHL1    C3 3179   4.975   3.881   6.307 -0.2235 -0.3923  0.2247
   28CHL1    H3 3180   4.889   3.950   6.305  0.5636  0.8743  3.6768
   28CHL1    O3 3181   5.040   3.886   6.436  0.2231  0.2279  0.5210
   28CHL1   H3' 3182   5.085   3.803   6.449  0.9142  0.8525  2.6544
   28CHL1    C4 3183   4.930   3.740   6.262 -0.0235  0.4083 -0.7948
   28CHL1   H4A 3184   5.007   3.660   6.254 -1.1220 -0.8629  0.7617
   28CHL1   H4B 3185   4.859   3.698   6.336  0.1776 -0.3662 -1.0320
   28CHL1    C5 3186   4.867   3.739   6.120  1.0250 -0.7872 -0.1080
   28CHL1    C6 3187   4.744   3.689   6.093  0.5619 -0.2709 -0.0870
   28CHL1    H6 3188   4.682   3.636   6.167 -1.0245  0.8312 -0.5697
   28CHL1    C7 3189   4.668   3.698   5.964  1.3627 -0.7759 -0.6918
   28CHL1   H7A 3190   4.613   3.603   5.942  0.7814 -0.1452 -2.0837
   28CHL1   H7B 3191   4.581   3.766   5.971  0.6375 -1.8210  0.9936
   28CHL1    C8 3192   4.760   3.748   5.851 -0.5030 -0.1316  0.6519
   28CHL1    H8 3193   4.825   3.661   5.828 -2.5788 -1.6204  0.2051
   28CHL1   C14 3194   4.676   3.800   5.730  0.5267 -1.2784  1.1558
   28CHL1   H14 3195   4.620   3.890   5.761 -1.1590 -2.1620  0.8176
   28CHL1   C15 3196   4.565   3.718   5.671  0.2657  1.0058  0.6930
   28CHL1  H15A 3197   4.603   3.613   5.666  2.1467  1.6949 -0.5901
   28CHL1  H15B 3198   4.472   3.714   5.731  0.7271 -1.1668  1.3592
   28CHL1   C16 3199   4.530   3.782   5.539 -0.0957  0.5895 -0.0916
   28CHL1  H16A 3200   4.514   3.705   5.461 -0.2751 -0.5513  1.0313
   28CHL1  H16B 3201   4.438   3.842   5.552 -0.9850 -1.0412  1.6546
   28CHL1   C17 3202   4.646   3.880   5.504  0.1056  0.3314 -0.2180
   28CHL1   H17 3203   4.606   3.981   5.525 -0.4068  0.2579 -0.8250
   28CHL1   C13 3204   4.753   3.844   5.610  0.5747  0.4052  0.0227
   28CHL1   C18 3205   4.840   3.729   5.559 -0.4254  0.3433 -0.3300
   28CHL1  H18A 3206   4.894   3.675   5.640 -0.0726  1.1199 -0.0327
   28CHL1  H18B 3207   4.775   3.659   5.502 -1.9348  0.7987  0.7755
   28CHL1  H18C 3208   4.925   3.773   5.502  0.5554 -1.7947 -0.6225
   28CHL1   C12 3209   4.845   3.955   5.655  0.3406 -0.1468  0.8066
   28CHL1  H12A 3210   4.898   4.003   5.571 -2.2269 -0.4162 -1.0987
   28CHL1  H12B 3211   4.776   4.033   5.695 -1.0803 -2.1099  2.4230
   28CHL1   C11 3212   4.932   3.919   5.776  0.5744 -0.4591  0.1704
   28CHL1  H11A 3213   5.008   3.843   5.745 -0.1393 -0.3828 -1.9647
   28CHL1  H11B 3214   4.985   4.014   5.798  0.8609 -0.5729 -0.0184
   28CHL1    C9 3215   4.856   3.863   5.893  0.9079  0.8042 -0.8911
   28CHL1    H9 3216   4.787   3.939   5.938  0.4597  0.3562 -0.8117
   28CHL1   C10 3217   4.941   3.828   6.015  0.3074 -0.2217  0.0990
   28CHL1   C19 3218   5.051   3.721   5.976  0.6385  0.0756 -0.1561
   28CHL1  H19A 3219   5.029   3.613   5.966  0.3831  0.1097  0.0101
   28CHL1  H19B 3220   5.094   3.739   5.876 -0.7108  1.9934 -0.4417
   28CHL1  H19C 3221   5.128   3.721   6.056 -1.4811 -0.7802  2.0194
   28CHL1    C1 3222   5.012   3.955   6.063  0.3003 -0.2999 -0.4850
   28CHL1   H1A 3223   5.091   3.978   5.988  0.2488 -0.3045 -0.5408
   28CHL1   H1B 3224   4.936   4.034   6.047 -0.2624 -0.8850 -0.7702
   28CHL1    C2 3225   5.076   3.941   6.207 -0.0221  0.0870 -0.0220
   28CHL1   H2A 3226   5.116   4.038   6.241  0.0612  0.1935 -0.4143
   28CHL1   H2B 3227   5.164   3.874   6.197  0.3659  0.4973  0.6304
   28CHL1   C20 3228   4.679   3.872   5.356 -0.0208  0.2821  0.1976
   28CHL1   H20 3229   4.714   3.771   5.327  1.8031  1.0106 -0.2622
   28CHL1   C21 3230   4.793   3.966   5.314  0.2002 -0.0320 -0.1310
   28CHL1  H21A 3231   4.893   3.918   5.325  0.4687  0.7228  0.7911
   28CHL1  H21B 3232   4.791   4.060   5.373  0.2966 -0.9195  1.3189
   28CHL1  H21C 3233   4.791   3.987   5.205 -4.6097 -1.1070 -0.4786
   28CHL1   C22 3234   4.553   3.897   5.271 -0.0169 -0.2952 -0.9373
   28CHL1  H22A 3235   4.465   3.836   5.299  0.0060  0.0139 -0.1850
   28CHL1  H22B 3236   4.521   3.998   5.302  1.5297  0.3996 -1.5220
   28CHL1   C23 3237   4.579   3.867   5.122 -0.0268 -0.3853  0.4052
   28CHL1  H23A 3238   4.643   3.946   5.077 -0.2315 -1.0463 -1.0895
   28CHL1  H23B 3239   4.634   3.771   5.116  3.3569  1.4327 -3.9444
   28CHL1   C24 3240   4.451   3.855   5.034 -0.0576  0.0854  0.1065
   28CHL1  H24A 3241   4.396   3.768   5.076 -0.9038  0.5518 -0.0117
   28CHL1  H24B 3242   4.397   3.951   5.047  2.0008  1.2150  0.7756
   28CHL1   C25 3243   4.498   3.817   4.890 -0.4409  0.1198 -0.6525
   28CHL1   H25 3244   4.584   3.747   4.897 -2.4909 -2.4606  0.3462
   28CHL1   C26 3245   4.395   3.733   4.818  0.5660 -0.4923  0.6238
   28CHL1  H26A 3246   4.393   3.636   4.873 -3.2318 -1.8408 -1.4728
   28CHL1  H26B 3247   4.295   3.780   4.806  1.1593  0.8487  0.7497
   28CHL1  H26C 3248   4.438   3.694   4.723  0.1857 -0.2733  0.3581
   28CHL1   C27 3249   4.544   3.936   4.817 -0.8373 -0.0649 -0.2795
   28CHL1  H27A 3250   4.606   3.912   4.727  2.0840  3.3125  0.5837
   28CHL1  H27B 3251   4.452   3.989   4.786 -2.3812 -2.7218 -0.4907
   28CHL1  H27C 3252   4.613   3.993   4.883 -0.4278 -2.4226  1.4446
   29CHL1    C3 3253   0.270   5.284   6.472 -0.0353 -0.8179  1.1891
   29CHL1    H3 3254   0.298   5.181   6.442 -0.5281 -0.7325  0.4041
   29CHL1    O3 3255   0.253   5.289   6.616  0.1899  0.3735  0.1383
   29CHL1   H3' 3256   0.173   5.340   6.628  0.0975  0.5817 -1.1550
   29CHL1    C4 3257   0.375   5.390   6.422 -0.1284 -0.3982 -0.7639
   29CHL1   H4A 3258   0.358   5.491   6.465 -0.7919  0.2297 -2.4573
   29CHL1   H4B 3259   0.470   5.356   6.470  0.3251  0.0411 -1.3303
   29CHL1    C5 3260   0.389   5.405   6.273 -0.0746 -0.5474 -0.2801
   29CHL1    C6 3261   0.507   5.396   6.212 -0.6165 -0.0521 -1.1244
   29CHL1    H6 3262   0.594   5.373   6.275 -1.0277 -0.2369 -0.6108
   29CHL1    C7 3263   0.528   5.408   6.074  0.2118  0.3012  0.1545
   29CHL1   H7A 3264   0.619   5.465   6.046  1.1000 -0.6873  0.9569
   29CHL1   H7B 3265   0.555   5.304   6.045 -0.6468 -0.4317  1.8694
   29CHL1    C8 3266   0.408   5.456   5.990  0.0859  0.8065 -0.1862
   29CHL1    H8 3267   0.402   5.565   6.012  1.2466  1.0638 -1.0681
   29CHL1   C14 3268   0.427   5.436   5.837  0.3564 -0.6515 -0.3362
   29CHL1   H14 3269   0.432   5.328   5.813  1.3505 -0.5510 -0.6289
   29CHL1   C15 3270   0.556   5.490   5.771  0.6815 -0.2398 -0.3446
   29CHL1  H15A 3271   0.579   5.592   5.808  1.8309 -0.1303 -1.3338
   29CHL1  H15B 3272   0.627   5.411   5.803  1.6187  1.1992  1.3027
   29CHL1   C16 3273   0.522   5.489   5.621 -0.4564  0.0792  0.1445
   29CHL1  H16A 3274   0.543   5.592   5.585 -1.1640  0.5061  0.9108
   29CHL1  H16B 3275   0.578   5.409   5.568  2.1636  1.2201  1.0312
   29CHL1   C17 3276   0.367   5.458   5.605  0.2663  0.1571 -0.0377
   29CHL1   H17 3277   0.353   5.350   5.585  1.3071  0.4626 -3.0704
   29CHL1   C13 3278   0.304   5.484   5.751 -0.3138  0.1887  0.1526
   29CHL1   C18 3279   0.288   5.639   5.763 -0.3160  0.2093 -0.2927
   29CHL1  H18A 3280   0.193   5.657   5.708 -0.2094 -1.7623 -1.2229
   29CHL1  H18B 3281   0.275   5.671   5.868  2.0840  0.3043  0.0486
   29CHL1  H18C 3282   0.374   5.695   5.719 -0.5986  2.2554  1.6037
   29CHL1   C12 3283   0.184   5.403   5.791  0.1511 -1.5585  0.3285
   29CHL1  H12A 3284   0.091   5.441   5.742  0.6723  0.7920  1.0336
   29CHL1  H12B 3285   0.201   5.296   5.769  0.1312 -1.7387  1.1732
   29CHL1   C11 3286   0.159   5.418   5.947  0.5544 -0.4292  0.7464
   29CHL1  H11A 3287   0.118   5.519   5.971  0.7542 -0.3346  0.6898
   29CHL1  H11B 3288   0.090   5.335   5.973  1.7199 -1.8853 -0.6665
   29CHL1    C9 3289   0.279   5.390   6.038 -0.0451  1.0302  0.3261
   29CHL1    H9 3290   0.300   5.282   6.023  0.0178  1.2620 -1.4807
   29CHL1   C10 3291   0.256   5.419   6.190 -0.0685  0.2277 -0.4786
   29CHL1   C19 3292   0.211   5.564   6.208  0.2882 -0.3637  0.6225
   29CHL1  H19A 3293   0.104   5.575   6.179  0.5332  0.9250  0.1634
   29CHL1  H19B 3294   0.221   5.613   6.307 -0.0866 -2.0391  1.5406
   29CHL1  H19C 3295   0.257   5.641   6.144  0.1980  0.0571  1.0596
   29CHL1    C1 3296   0.149   5.320   6.251 -0.6485  0.1150 -0.8721
   29CHL1   H1A 3297   0.049   5.339   6.204 -1.5910  0.2280  1.0906
   29CHL1   H1B 3298   0.196   5.223   6.223  1.9779  0.4726  1.9253
   29CHL1    C2 3299   0.135   5.320   6.408 -0.2259  0.3827 -0.4383
   29CHL1   H2A 3300   0.065   5.238   6.434  1.7677 -0.8817  1.2406
   29CHL1   H2B 3301   0.101   5.424   6.421  0.9922  0.7401  0.0741
   29CHL1   C20 3302   0.314   5.539   5.486 -0.3842  0.5734 -0.4248
   29CHL1   H20 3303   0.305   5.645   5.517  0.7966  0.0104  2.0693
   29CHL1   C21 3304   0.166   5.491   5.459 -0.3549 -0.3036 -0.2210
   29CHL1  H21A 3305   0.131   5.559   5.378 -1.2622  0.1708  0.5513
   29CHL1  H21B 3306   0.097   5.519   5.541 -1.2277 -1.6937 -0.4619
   29CHL1  H21C 3307   0.155   5.388   5.419 -0.6635  0.1385 -1.3197
   29CHL1   C22 3308   0.393   5.534   5.352 -0.1229  0.3767 -1.0673
   29CHL1  H22A 3309   0.500   5.547   5.378 -0.5033 -0.2031  1.0349
   29CHL1  H22B 3310   0.373   5.430   5.317  0.8066  0.0475 -0.6420
   29CHL1   C23 3311   0.363   5.646   5.248 -0.6146 -0.6043  0.0026
   29CHL1  H23A 3312   0.257   5.648   5.217 -0.6672  1.9523  0.1413
   29CHL1  H23B 3313   0.380   5.749   5.288  1.2077 -1.1079  0.6248
   29CHL1   C24 3314   0.450   5.628   5.122  0.5641 -0.3689 -0.2305
   29CHL1  H24A 3315   0.554   5.646   5.158  0.6313 -0.9385 -0.1235
   29CHL1  H24B 3316   0.463   5.520   5.098  2.3048 -0.1496 -0.4141
   29CHL1   C25 3317   0.411   5.719   5.009  0.1510  0.3702 -0.4753
   29CHL1   H25 3318   0.399   5.823   5.048  0.1653  1.3130 -2.8127
   29CHL1   C26 3319   0.531   5.729   4.910 -0.0853 -0.1710 -0.1351
   29CHL1  H26A 3320   0.612   5.792   4.954  1.1076  0.8842 -3.5285
   29CHL1  H26B 3321   0.566   5.627   4.883  1.4390 -0.0696  1.2779
   29CHL1  H26C 3322   0.502   5.769   4.811  3.7460 -1.3686 -1.9599
   29CHL1   C27 3323   0.282   5.672   4.935 -0.4834 -0.3032  0.6048
   29CHL1  H27A 3324   0.294   5.565   4.907 -0.3447  0.2075 -1.4444
   29CHL1  H27B 3325   0.192   5.683   4.999 -0.5968  0.3097  0.3412
   29CHL1  H27C 3326   0.276   5.721   4.836 -1.8246 -0.4952  0.5695
   30CHL1    C3 3327   3.333   6.318   6.107 -0.1245  0.4506  0.3807
   30CHL1    H3 3328   3.239   6.302   6.049  0.0618  0.6145  0.0293
   30CHL1    O3 3329   3.297   6.386   6.228 -0.1756  0.6552 -0.2122
   30CHL1   H3' 3330   3.375   6.381   6.284 -0.0392  0.8876 -0.3794
   30CHL1    C4 3331   3.399   6.181   6.141  0.0800  0.0709  0.4556
   30CHL1   H4A 3332   3.489   6.200   6.202  0.6153 -0.1115 -0.2661
   30CHL1   H4B 3333   3.348   6.112   6.211  0.6196 -0.2721  0.5140
   30CHL1    C5 3334   3.435   6.111   6.013  0.1208  0.4485 -0.3170
   30CHL1    C6 3335   3.381   5.995   5.984  0.5011  0.1562  0.5818
   30CHL1    H6 3336   3.323   5.949   6.066  0.1885  0.2487  0.4126
   30CHL1    C7 3337   3.415   5.914   5.860  0.3488  0.0023 -0.2389
   30CHL1   H7A 3338   3.453   5.816   5.898  1.4199 -0.1510 -1.6169
   30CHL1   H7B 3339   3.323   5.896   5.801 -1.1183  0.0852  1.9262
   30CHL1    C8 3340   3.527   5.979   5.778 -0.1458 -0.0490  0.3135
   30CHL1    H8 3341   3.629   5.955   5.816  1.5152  3.6141 -1.2806
   30CHL1   C14 3342   3.517   5.933   5.630 -0.0018  0.2120  0.6992
   30CHL1   H14 3343   3.424   5.977   5.589 -1.1609 -0.9622  1.9686
   30CHL1   C15 3344   3.516   5.784   5.609  0.5380 -0.5047 -0.0619
   30CHL1  H15A 3345   3.597   5.727   5.659  0.7793 -0.3271 -0.2515
   30CHL1  H15B 3346   3.417   5.751   5.647  0.7735 -0.4679  0.5939
   30CHL1   C16 3347   3.527   5.783   5.455 -0.1774  0.6927 -0.7715
   30CHL1  H16A 3348   3.602   5.706   5.427  2.0815  2.5286 -0.0238
   30CHL1  H16B 3349   3.430   5.770   5.401 -0.0491 -1.5347 -0.5745
   30CHL1   C17 3350   3.597   5.920   5.413  0.8033 -0.0948 -0.0428
   30CHL1   H17 3351   3.519   5.980   5.362  0.3120  0.7469  1.6292
   30CHL1   C13 3352   3.630   5.992   5.538 -0.0447  0.1659 -0.4233
   30CHL1   C18 3353   3.775   5.949   5.581  0.1358 -0.7168 -0.3155
   30CHL1  H18A 3354   3.778   5.949   5.692 -1.4461  0.7857 -0.2193
   30CHL1  H18B 3355   3.790   5.842   5.554  0.9972 -0.7088  0.1185
   30CHL1  H18C 3356   3.857   6.006   5.533  1.4171 -1.2119  1.2282
   30CHL1   C12 3357   3.608   6.144   5.534  0.0356  0.2401 -0.3919
   30CHL1  H12A 3358   3.695   6.188   5.480  0.4467  0.0873  0.1336
   30CHL1  H12B 3359   3.512   6.175   5.489 -0.5562 -1.8801 -0.6988
   30CHL1   C11 3360   3.614   6.190   5.674 -0.6002 -0.2174  0.1321
   30CHL1  H11A 3361   3.716   6.174   5.716 -1.3139 -0.7604  1.7387
   30CHL1  H11B 3362   3.598   6.299   5.661 -0.0696 -0.1644 -0.1326
   30CHL1    C9 3363   3.520   6.130   5.772  0.0214  0.2971 -0.6245
   30CHL1    H9 3364   3.416   6.140   5.733  0.2299 -0.7582 -1.4838
   30CHL1   C10 3365   3.521   6.197   5.913 -0.0646  0.0210  0.1966
   30CHL1   C19 3366   3.659   6.203   5.973 -0.2931  0.6578  0.2658
   30CHL1  H19A 3367   3.731   6.249   5.901 -1.7322 -0.2211 -1.8490
   30CHL1  H19B 3368   3.664   6.250   6.073 -0.8171 -1.3716  1.2888
   30CHL1  H19C 3369   3.685   6.098   5.998 -1.5497  0.2121 -0.1885
   30CHL1    C1 3370   3.470   6.343   5.900  0.8088  0.5865  0.1916
   30CHL1   H1A 3371   3.539   6.410   5.845  1.6118  1.9670  2.7261
   30CHL1   H1B 3372   3.379   6.327   5.839  0.7426 -1.3779  0.7445
   30CHL1    C2 3373   3.434   6.409   6.029 -0.4983  1.0476 -0.4731
   30CHL1   H2A 3374   3.382   6.503   6.001 -0.3005  0.7667 -1.8454
   30CHL1   H2B 3375   3.522   6.432   6.093  1.6930  1.8959 -3.6069
   30CHL1   C20 3376   3.707   5.901   5.300  0.8923 -0.0140  0.1249
   30CHL1   H20 3377   3.803   5.863   5.341  0.7637 -1.9930 -1.2839
   30CHL1   C21 3378   3.736   6.039   5.251 -0.1064  0.3133 -0.1738
   30CHL1  H21A 3379   3.804   6.030   5.164  1.2918  0.6677  0.8344
   30CHL1  H21B 3380   3.786   6.108   5.323 -1.3754 -0.9699  2.0781
   30CHL1  H21C 3381   3.643   6.090   5.219  0.3415  0.5581 -1.1119
   30CHL1   C22 3382   3.662   5.814   5.183 -0.0266 -0.5032 -0.0808
   30CHL1  H22A 3383   3.739   5.824   5.104  0.1645  4.0021  0.4050
   30CHL1  H22B 3384   3.655   5.706   5.210 -2.0624 -0.4740 -0.3577
   30CHL1   C23 3385   3.533   5.863   5.117  0.2814 -0.2531 -0.3710
   30CHL1  H23A 3386   3.457   5.868   5.198 -0.0753 -1.1255 -0.6398
   30CHL1  H23B 3387   3.548   5.967   5.079 -0.5905  0.3055  0.7644
   30CHL1   C24 3388   3.489   5.773   5.011  0.3345  0.4730 -0.0161
   30CHL1  H24A 3389   3.568   5.762   4.934 -0.3034 -3.8293 -0.2946
   30CHL1  H24B 3390   3.492   5.672   5.057 -0.6703  0.6626  0.4941
   30CHL1   C25 3391   3.362   5.805   4.931 -0.0367  0.7114 -0.1889
   30CHL1   H25 3392   3.277   5.762   4.989 -0.2440  0.5331 -0.6253
   30CHL1   C26 3393   3.341   5.952   4.909  0.2396  0.3922 -0.2306
   30CHL1  H26A 3394   3.244   5.968   4.856 -0.2683 -1.8521 -0.0827
   30CHL1  H26B 3395   3.332   6.008   5.004  0.7958 -0.1637  0.1552
   30CHL1  H26C 3396   3.418   5.995   4.842 -0.2878  2.5427  0.4365
   30CHL1   C27 3397   3.358   5.738   4.796  0.1554  0.1510  0.4452
   30CHL1  H27A 3398   3.433   5.781   4.726  0.0038 -0.3574 -0.0341
   30CHL1  H27B 3399   3.378   5.633   4.824 -1.6227  0.3372  2.7485
   30CHL1  H27C 3400   3.257   5.742   4.749 -0.0039  1.4609  0.8594
   31CHL1    C3 3401   1.031   6.770   6.423 -0.6634  0.7131  0.2077
   31CHL1    H3 3402   1.132   6.783   6.379 -1.1333  0.6399 -0.9334
   31CHL1    O3 3403   1.038   6.746   6.567  0.0652  0.1378  0.5782
   31CHL1   H3' 3404   0.961   6.691   6.584  1.1244 -1.5883  0.0674
   31CHL1    C4 3405   0.949   6.895   6.400  0.5482  0.2380  0.3406
   31CHL1   H4A 3406   0.849   6.867   6.440  0.0592 -0.2162 -1.1208
   31CHL1   H4B 3407   0.986   6.974   6.469  0.9960 -1.7969  2.5802
   31CHL1    C5 3408   0.940   6.925   6.260  0.1390  1.0304  0.5416
   31CHL1    C6 3409   0.980   7.044   6.218 -0.5315 -0.2725  0.1903
   31CHL1    H6 3410   1.018   7.125   6.282  2.2625  0.5124 -2.1725
   31CHL1    C7 3411   0.971   7.093   6.079  0.9328  0.1073  0.9151
   31CHL1   H7A 3412   0.928   7.195   6.079 -0.2506 -0.2894 -2.0303
   31CHL1   H7B 3413   1.076   7.102   6.045  2.0314 -2.2537  3.3074
   31CHL1    C8 3414   0.898   6.993   5.991 -0.2281 -0.7975  0.1859
   31CHL1    H8 3415   0.791   7.018   6.004  0.3264  2.9244 -1.2755
   31CHL1   C14 3416   0.930   7.023   5.842 -0.0073  0.3544  0.1622
   31CHL1   H14 3417   1.040   7.009   5.837  0.2058  2.1661 -0.8448
   31CHL1   C15 3418   0.899   7.168   5.805 -0.0738  0.5960  0.6380
   31CHL1  H15A 3419   0.801   7.206   5.841 -0.7266  0.7571 -1.1822
   31CHL1  H15B 3420   0.987   7.225   5.841  0.6962 -0.0094 -0.2426
   31CHL1   C16 3421   0.902   7.151   5.649  0.8679  0.3612  0.5836
   31CHL1  H16A 3422   0.801   7.180   5.611  0.5085 -0.8342  0.6085
   31CHL1  H16B 3423   0.976   7.210   5.591  2.3979 -3.7771 -2.0523
   31CHL1   C17 3424   0.925   7.001   5.609  0.8567  0.4918  0.4250
   31CHL1   H17 3425   1.036   6.997   5.599  0.7283 -0.2477 -0.8951
   31CHL1   C13 3426   0.871   6.930   5.737  0.2536 -0.6000  0.0798
   31CHL1   C18 3427   0.716   6.942   5.747  0.0930 -0.3537  1.0176
   31CHL1  H18A 3428   0.689   6.911   5.850 -1.4546  1.2198  1.1343
   31CHL1  H18B 3429   0.662   7.038   5.731 -1.5675 -0.8984  2.9337
   31CHL1  H18C 3430   0.670   6.859   5.688 -0.1223  0.7374 -0.4168
   31CHL1   C12 3431   0.915   6.790   5.774 -0.2587 -0.2767 -0.0717
   31CHL1  H12A 3432   0.876   6.712   5.704 -0.8601  1.2751 -1.5489
   31CHL1  H12B 3433   1.025   6.780   5.774 -0.0349  1.5238  1.7252
   31CHL1   C11 3434   0.874   6.749   5.914 -0.6021 -0.5721 -0.3311
   31CHL1  H11A 3435   0.763   6.740   5.909 -0.5991 -0.0890 -1.9521
   31CHL1  H11B 3436   0.908   6.645   5.934  2.2463  0.3209 -0.2124
   31CHL1    C9 3437   0.928   6.850   6.025  0.1650  0.1285 -0.1110
   31CHL1    H9 3438   1.038   6.845   6.014  0.0292  1.6049 -3.3088
   31CHL1   C10 3439   0.890   6.805   6.171  0.8073 -0.2737  0.4686
   31CHL1   C19 3440   0.741   6.803   6.194 -0.2089 -0.7247 -0.0334
   31CHL1  H19A 3441   0.712   6.807   6.302 -1.0219  0.1432 -0.2650
   31CHL1  H19B 3442   0.681   6.885   6.149  1.7118 -0.4293 -2.2350
   31CHL1  H19C 3443   0.698   6.709   6.154  1.3590 -1.5402  0.1522
   31CHL1    C1 3444   0.959   6.669   6.208  0.2377  0.2454 -0.5118
   31CHL1   H1A 3445   0.890   6.588   6.178 -0.0975  0.0240  0.7792
   31CHL1   H1B 3446   1.064   6.666   6.171  0.7097  0.6814  0.7228
   31CHL1    C2 3447   0.972   6.644   6.359  0.7802  0.2192  0.7071
   31CHL1   H2A 3448   1.039   6.558   6.381  1.3111  0.7728  1.3093
   31CHL1   H2B 3449   0.869   6.627   6.395  0.8453 -0.0614  0.7682
   31CHL1   C20 3450   0.861   6.966   5.474  0.1121 -0.2136 -0.5199
   31CHL1   H20 3451   0.751   6.961   5.486  0.2148  0.6431  1.1407
   31CHL1   C21 3452   0.910   6.827   5.429  0.7629 -0.0268  0.1025
   31CHL1  H21A 3453   0.858   6.750   5.490 -0.0220  0.3924 -0.0222
   31CHL1  H21B 3454   1.021   6.826   5.437  0.6332 -0.7913  2.1883
   31CHL1  H21C 3455   0.872   6.818   5.325 -0.3588  0.9212  0.4121
   31CHL1   C22 3456   0.898   7.076   5.364 -1.2729  0.1791  0.0222
   31CHL1  H22A 3457   0.858   7.036   5.268  2.5194 -1.2526 -1.1683
   31CHL1  H22B 3458   0.853   7.176   5.381  0.3260  0.9493 -0.1164
   31CHL1   C23 3459   1.048   7.099   5.337  0.6254  0.2101 -0.1563
   31CHL1  H23A 3460   1.110   7.136   5.421  2.8868  1.4923 -2.2466
   31CHL1  H23B 3461   1.076   6.999   5.298 -1.3085 -0.1838 -0.6412
   31CHL1   C24 3462   1.062   7.189   5.204  0.0248  0.4952 -0.2864
   31CHL1  H24A 3463   0.969   7.241   5.172 -0.6883 -0.3225  0.3957
   31CHL1  H24B 3464   1.146   7.260   5.221  0.5126 -0.5133  1.8351
   31CHL1   C25 3465   1.108   7.100   5.081  0.0544 -0.2169 -0.7421
   31CHL1   H25 3466   1.195   7.046   5.123 -0.9452  0.5809  2.6685
   31CHL1   C26 3467   1.000   6.999   5.040 -0.4362  0.1558  0.0351
   31CHL1  H26A 3468   1.017   6.946   4.944  0.0575 -1.3359  0.9240
   31CHL1  H26B 3469   0.973   6.920   5.112  0.5597 -1.0315 -0.8522
   31CHL1  H26C 3470   0.914   7.070   5.047  0.3798  1.0585  1.5431
   31CHL1   C27 3471   1.154   7.177   4.962  0.0344  0.5731 -0.6887
   31CHL1  H27A 3472   1.167   7.108   4.876  2.3005 -1.7757  1.3608
   31CHL1  H27B 3473   1.074   7.252   4.940 -1.1262 -0.5254 -0.3527
   31CHL1  H27C 3474   1.248   7.233   4.981 -0.5866  1.2953  0.3279
   32CHL1    C3 3475   1.778   4.652   6.134 -0.0061 -1.0396  0.4680
   32CHL1    H3 3476   1.767   4.762   6.144  2.7594 -0.4516 -1.5138
   32CHL1    O3 3477   1.792   4.591   6.259  0.3531  0.0399 -0.4033
   32CHL1   H3' 3478   1.710   4.575   6.306  0.6131  0.7243  0.3059
   32CHL1    C4 3479   1.663   4.602   6.050  0.4639  0.1823  0.9477
   32CHL1   H4A 3480   1.664   4.491   6.058 -2.4352  0.0156  0.1402
   32CHL1   H4B 3481   1.575   4.643   6.103 -1.4522 -2.7737  0.2949
   32CHL1    C5 3482   1.669   4.642   5.903  0.1587  0.3127 -0.2597
   32CHL1    C6 3483   1.566   4.703   5.842  0.0589 -0.7273 -0.5205
   32CHL1    H6 3484   1.477   4.736   5.899  2.2621  5.8577  0.0215
   32CHL1    C7 3485   1.570   4.737   5.695 -0.0469  0.3062 -0.5987
   32CHL1   H7A 3486   1.471   4.718   5.648  0.1195 -0.6806 -0.5753
   32CHL1   H7B 3487   1.601   4.843   5.681  1.9550  0.1188  1.8450
   32CHL1    C8 3488   1.683   4.666   5.613 -0.0248  0.0982  0.0696
   32CHL1    H8 3489   1.660   4.557   5.610 -0.6343  0.2327 -0.3831
   32CHL1   C14 3490   1.701   4.721   5.473  0.2837  0.0927  0.5725
   32CHL1   H14 3491   1.742   4.823   5.489  0.5709  0.6121 -2.7619
   32CHL1   C15 3492   1.584   4.746   5.380  0.0524 -0.1471 -0.4011
   32CHL1  H15A 3493   1.524   4.653   5.367 -1.5262  0.7292  0.4058
   32CHL1  H15B 3494   1.518   4.826   5.419 -0.0826 -1.4691  2.2982
   32CHL1   C16 3495   1.655   4.767   5.243 -0.1982 -0.0032  0.3522
   32CHL1  H16A 3496   1.624   4.695   5.164  2.7861  0.0828 -1.0445
   32CHL1  H16B 3497   1.631   4.872   5.217  1.1311  0.4423  0.8637
   32CHL1   C17 3498   1.810   4.744   5.256 -0.4899  0.6412 -0.4674
   32CHL1   H17 3499   1.864   4.837   5.283  1.8014 -0.9440  0.6695
   32CHL1   C13 3500   1.822   4.659   5.390 -0.0162  0.6513  0.6244
   32CHL1   C18 3501   1.803   4.510   5.358  0.6250 -0.1458 -0.9608
   32CHL1  H18A 3502   1.896   4.476   5.308  2.2259  2.1823  0.2496
   32CHL1  H18B 3503   1.781   4.440   5.441  1.9362 -0.5699 -0.9468
   32CHL1  H18C 3504   1.720   4.499   5.285 -0.5983  0.7795  0.2275
   32CHL1   C12 3505   1.952   4.673   5.468  0.6036  0.7925  0.9959
   32CHL1  H12A 3506   2.045   4.628   5.427  1.8479  2.9893  1.2286
   32CHL1  H12B 3507   1.987   4.778   5.481  2.4943  0.6295 -1.8804
   32CHL1   C11 3508   1.928   4.613   5.606 -0.0065 -0.1487  1.0947
   32CHL1  H11A 3509   1.902   4.505   5.596  1.2730 -0.5300  1.6352
   32CHL1  H11B 3510   2.025   4.609   5.660  0.8594 -1.5896 -0.4834
   32CHL1    C9 3511   1.814   4.674   5.690  0.0237 -0.3223 -0.3441
   32CHL1    H9 3512   1.828   4.782   5.711 -0.5741  0.0788 -1.9056
   32CHL1   C10 3513   1.803   4.607   5.830 -0.1405 -0.5261 -0.2871
   32CHL1   C19 3514   1.820   4.451   5.830  0.1172 -0.3499 -0.4045
   32CHL1  H19A 3515   1.751   4.404   5.757 -0.5394  0.3763 -0.2681
   32CHL1  H19B 3516   1.925   4.419   5.816  0.2823 -0.3348  0.6938
   32CHL1  H19C 3517   1.798   4.416   5.933  1.6974  0.5106  0.2625
   32CHL1    C1 3518   1.917   4.671   5.915  0.2006  0.6265  0.5499
   32CHL1   H1A 3519   2.015   4.628   5.885 -0.9321 -1.0517 -0.9432
   32CHL1   H1B 3520   1.909   4.781   5.908 -2.2273  0.4169 -0.9660
   32CHL1    C2 3521   1.911   4.623   6.060 -0.7139  0.0487  0.1713
   32CHL1   H2A 3522   1.993   4.669   6.119 -1.8391  0.2499  1.6313
   32CHL1   H2B 3523   1.925   4.513   6.066  0.9712  0.1730 -0.9244
   32CHL1   C20 3524   1.873   4.692   5.128 -0.4948 -1.1672  0.4400
   32CHL1   H20 3525   1.812   4.603   5.103 -1.3812  0.0199 -1.8610
   32CHL1   C21 3526   2.025   4.654   5.149 -0.0922 -0.2794  0.7275
   32CHL1  H21A 3527   2.070   4.641   5.048  1.0230 -1.1891  1.3141
   32CHL1  H21B 3528   2.032   4.569   5.220 -1.2445 -1.0894 -0.0865
   32CHL1  H21C 3529   2.060   4.749   5.194  0.5616 -0.5766  0.8572
   32CHL1   C22 3530   1.854   4.789   5.006 -0.9482 -0.5719  0.2363
   32CHL1  H22A 3531   1.747   4.818   4.999 -0.4604  2.2529  2.4404
   32CHL1  H22B 3532   1.905   4.886   5.025 -0.4611 -0.1891 -2.6299
   32CHL1   C23 3533   1.898   4.750   4.865  1.0055  0.0206  0.8676
   32CHL1  H23A 3534   2.004   4.717   4.863  0.5543 -1.4598 -0.1163
   32CHL1  H23B 3535   1.839   4.663   4.829  3.5147 -0.9834 -1.1472
   32CHL1   C24 3536   1.871   4.867   4.770 -0.6244 -1.2219 -0.6269
   32CHL1  H24A 3537   1.761   4.870   4.753 -0.4027  0.2933 -2.0234
   32CHL1  H24B 3538   1.914   4.956   4.820 -0.4292 -0.9449 -1.2804
   32CHL1   C25 3539   1.949   4.873   4.635  0.1052  0.0207  0.0733
   32CHL1   H25 3540   2.055   4.849   4.660 -0.1782 -2.0180 -0.4535
   32CHL1   C26 3541   1.908   4.761   4.534 -0.1809  0.2567 -0.7487
   32CHL1  H26A 3542   1.911   4.666   4.591  0.2459 -0.2497 -1.5863
   32CHL1  H26B 3543   1.804   4.773   4.498 -0.6964 -0.4637  0.4377
   32CHL1  H26C 3544   1.977   4.746   4.448  1.3461 -2.1092  0.7710
   32CHL1   C27 3545   1.947   5.005   4.548  0.2048 -0.1107 -0.7643
   32CHL1  H27A 3546   1.996   5.000   4.448  2.6368  2.2195  0.1787
   32CHL1  H27B 3547   1.844   5.043   4.534 -0.2821 -1.4599 -0.9677
   32CHL1  H27C 3548   2.008   5.084   4.597  0.8026 -0.4285 -0.9791
   33CHL1    C3 3549   6.048   4.059   5.958 -0.2932  0.1195  0.2424
   33CHL1    H3 3550   6.099   4.121   5.880 -1.1371 -1.1360 -1.3812
   33CHL1    O3 3551   6.073   4.093   6.092 -0.1570 -0.5794 -0.1502
   33CHL1   H3' 3552   6.144   4.036   6.123 -0.5630 -1.1204 -0.1985
   33CHL1    C4 3553   5.897   4.078   5.927 -0.4367 -0.0472  0.1849
   33CHL1   H4A 3554   5.850   4.011   6.002 -2.6392 -0.4497 -1.4417
   33CHL1   H4B 3555   5.861   4.181   5.950 -0.1345  0.5816 -1.9971
   33CHL1    C5 3556   5.866   4.035   5.784  0.4196 -0.4007 -0.4215
   33CHL1    C6 3557   5.809   4.119   5.696  0.5919 -0.1260 -0.0541
   33CHL1    H6 3558   5.757   4.203   5.743 -1.7415 -1.6839  0.3269
   33CHL1    C7 3559   5.757   4.081   5.559 -0.2838 -0.6177 -0.0523
   33CHL1   H7A 3560   5.652   4.112   5.538  0.8369  1.2262 -3.7590
   33CHL1   H7B 3561   5.823   4.138   5.491 -0.0150  0.5037  1.1221
   33CHL1    C8 3562   5.770   3.936   5.525  0.8118  0.8733 -0.2508
   33CHL1    H8 3563   5.689   3.884   5.581  0.2404  0.5859 -1.3308
   33CHL1   C14 3564   5.758   3.907   5.370  0.3737  0.0668  0.3215
   33CHL1   H14 3565   5.841   3.961   5.320 -0.3572 -0.7225 -1.8644
   33CHL1   C15 3566   5.634   3.947   5.297 -0.0373  0.3982  0.0212
   33CHL1  H15A 3567   5.548   3.914   5.358 -0.7579  0.5404 -0.8910
   33CHL1  H15B 3568   5.633   4.058   5.286 -1.2080  0.3547 -0.3816
   33CHL1   C16 3569   5.627   3.865   5.163  0.4178  0.4255 -0.3449
   33CHL1  H16A 3570   5.534   3.805   5.173  0.0342  1.2183  1.1404
   33CHL1  H16B 3571   5.627   3.924   5.069 -0.7881  0.7431 -0.1601
   33CHL1   C17 3572   5.746   3.764   5.184  0.0346 -0.3037  0.4642
   33CHL1   H17 3573   5.821   3.819   5.123  0.2688 -0.4040  0.6635
   33CHL1   C13 3574   5.787   3.763   5.332  0.7925  0.1847  0.0617
   33CHL1   C18 3575   5.690   3.668   5.413 -0.3859 -0.6073 -0.2894
   33CHL1  H18A 3576   5.580   3.687   5.408 -1.3521 -3.0260  4.8249
   33CHL1  H18B 3577   5.704   3.560   5.389 -2.3089 -0.5905 -1.7666
   33CHL1  H18C 3578   5.708   3.689   5.521 -0.4151 -2.5062  0.1326
   33CHL1   C12 3579   5.939   3.738   5.364 -0.0247  0.0575  0.5626
   33CHL1  H12A 3580   5.967   3.633   5.339 -1.4102 -0.2090 -0.0166
   33CHL1  H12B 3581   6.007   3.809   5.312  0.6085 -0.5266  0.5800
   33CHL1   C11 3582   5.962   3.757   5.518 -0.0249 -0.3476 -0.5935
   33CHL1  H11A 3583   5.917   3.672   5.574 -0.9804  1.6969  1.9349
   33CHL1  H11B 3584   6.066   3.748   5.554 -0.4007 -0.8166  0.4136
   33CHL1    C9 3585   5.912   3.891   5.583 -0.2295  0.1161  1.0088
   33CHL1    H9 3586   5.978   3.968   5.537 -1.2124  0.8362  0.7715
   33CHL1   C10 3587   5.923   3.901   5.743 -0.0196  0.2893 -0.0670
   33CHL1   C19 3588   5.835   3.789   5.800  0.0016 -0.8705 -0.0286
   33CHL1  H19A 3589   5.827   3.788   5.911 -0.8568  2.7194  0.0789
   33CHL1  H19B 3590   5.730   3.794   5.765  1.0406 -1.3013 -3.5784
   33CHL1  H19C 3591   5.877   3.692   5.767  3.3540  0.0383  1.1206
   33CHL1    C1 3592   6.069   3.879   5.785  0.0902 -0.3020  0.5520
   33CHL1   H1A 3593   6.099   3.772   5.780  0.8430 -0.0533 -0.6706
   33CHL1   H1B 3594   6.132   3.936   5.713  1.6481  0.5669  2.5191
   33CHL1    C2 3595   6.097   3.916   5.933  0.3658  0.1093 -0.2089
   33CHL1   H2A 3596   6.204   3.899   5.957  0.1456 -1.7403 -0.3816
   33CHL1   H2B 3597   6.033   3.846   5.991 -2.3894  0.4403 -2.5932
   33CHL1   C20 3598   5.726   3.628   5.115  0.6176 -0.7451  0.0196
   33CHL1   H20 3599   5.636   3.590   5.169 -0.6087  0.2563 -1.2602
   33CHL1   C21 3600   5.845   3.535   5.127  0.4935 -0.4508 -0.2821
   33CHL1  H21A 3601   5.842   3.452   5.053  1.5997  0.1019 -0.9887
   33CHL1  H21B 3602   5.849   3.490   5.228 -0.8228 -1.7890 -0.7943
   33CHL1  H21C 3603   5.942   3.587   5.109 -0.8704  1.6377 -2.1416
   33CHL1   C22 3604   5.672   3.651   4.973  0.1015 -0.5371  0.3226
   33CHL1  H22A 3605   5.578   3.709   4.985  1.4118  1.6395  0.6589
   33CHL1  H22B 3606   5.741   3.713   4.911 -0.1240 -0.2087  0.3996
   33CHL1   C23 3607   5.627   3.527   4.902  0.0240  0.7879 -0.6600
   33CHL1  H23A 3608   5.604   3.575   4.804  1.9547  1.7365 -0.7014
   33CHL1  H23B 3609   5.711   3.458   4.880  0.0046  0.2490  0.8053
   33CHL1   C24 3610   5.505   3.456   4.969 -0.0105  0.4654  0.0266
   33CHL1  H24A 3611   5.532   3.439   5.075 -2.2321 -2.5934  0.2442
   33CHL1  H24B 3612   5.418   3.525   4.963  0.1770  0.7882  0.9066
   33CHL1   C25 3613   5.468   3.319   4.908  0.1632  0.5184 -0.2332
   33CHL1   H25 3614   5.501   3.305   4.803 -0.2985 -1.0387 -0.1951
   33CHL1   C26 3615   5.560   3.217   4.978 -0.1568 -0.0739  0.1157
   33CHL1  H26A 3616   5.564   3.119   4.925  1.0061  0.7064 -1.3295
   33CHL1  H26B 3617   5.664   3.254   4.963  0.7049 -2.3595  0.0205
   33CHL1  H26C 3618   5.544   3.205   5.087  1.1843 -1.2503  0.2044
   33CHL1   C27 3619   5.324   3.274   4.928 -0.2263 -0.0251 -0.3467
   33CHL1  H27A 3620   5.309   3.238   5.032 -3.2003  0.9700 -0.3475
   33CHL1  H27B 3621   5.248   3.353   4.912  0.1030  0.3443 -0.1346
   33CHL1  H27C 3622   5.303   3.183   4.868 -1.5774  0.5749 -0.8222
   34CHL1    C3 3623   1.799   6.649   6.210  0.2465 -0.0347  0.5135
   34CHL1    H3 3624   1.739   6.743   6.207  0.3027 -0.0134 -0.0451
   34CHL1    O3 3625   1.860   6.639   6.335  0.2727  0.1911 -0.1494
   34CHL1   H3' 3626   1.886   6.547   6.341 -1.3831 -0.2302  2.3713
   34CHL1    C4 3627   1.702   6.528   6.165 -0.1583 -0.1171 -0.3056
   34CHL1   H4A 3628   1.753   6.434   6.197 -1.7710 -1.6250 -1.9154
   34CHL1   H4B 3629   1.610   6.543   6.225  0.0999  1.2966 -0.2332
   34CHL1    C5 3630   1.672   6.535   6.011  0.0328 -0.2907  0.0657
   34CHL1    C6 3631   1.543   6.540   5.970  0.2374  0.7262  0.2178
   34CHL1    H6 3632   1.462   6.543   6.044 -0.2940  1.4545 -0.3840
   34CHL1    C7 3633   1.490   6.525   5.828  0.4465  0.1667  0.1009
   34CHL1   H7A 3634   1.408   6.450   5.819 -0.5225  1.3953 -2.0258
   34CHL1   H7B 3635   1.450   6.619   5.784  2.5552  0.8386 -0.4764
   34CHL1    C8 3636   1.611   6.489   5.731  0.2699  0.1964  0.4368
   34CHL1    H8 3637   1.631   6.380   5.732 -0.9061 -0.0239  0.4878
   34CHL1   C14 3638   1.576   6.546   5.594  0.4491  0.1317  0.4438
   34CHL1   H14 3639   1.560   6.653   5.619  2.7719 -0.0184  3.0941
   34CHL1   C15 3640   1.445   6.495   5.531 -0.4180  0.2281  0.1311
   34CHL1  H15A 3641   1.452   6.384   5.530  0.7697  0.2914 -0.3152
   34CHL1  H15B 3642   1.355   6.537   5.581  0.0230  0.8984  0.3918
   34CHL1   C16 3643   1.457   6.542   5.394  0.0568  0.7279 -0.0094
   34CHL1  H16A 3644   1.426   6.463   5.322 -0.8587 -0.2874  1.4340
   34CHL1  H16B 3645   1.377   6.616   5.372 -1.1337 -0.2656  0.8711
   34CHL1   C17 3646   1.594   6.600   5.371 -0.4660 -0.5816  0.0318
   34CHL1   H17 3647   1.572   6.705   5.402 -2.2630 -1.2883  1.3339
   34CHL1   C13 3648   1.683   6.539   5.485  0.3526 -0.8497 -0.2224
   34CHL1   C18 3649   1.737   6.398   5.451  0.1119  0.1866 -0.5164
   34CHL1  H18A 3650   1.770   6.343   5.541 -1.0492  1.3440  0.6644
   34CHL1  H18B 3651   1.657   6.333   5.410 -1.1218  0.3316  1.5428
   34CHL1  H18C 3652   1.821   6.409   5.379  2.6552 -0.3791  2.1777
   34CHL1   C12 3653   1.804   6.627   5.527 -0.4222 -0.6149 -0.5418
   34CHL1  H12A 3654   1.887   6.603   5.457 -0.2110  0.0950 -0.5364
   34CHL1  H12B 3655   1.784   6.735   5.543  5.2645  0.7773 -0.8808
   34CHL1   C11 3656   1.849   6.575   5.666 -0.1910 -0.3259  0.5095
   34CHL1  H11A 3657   1.894   6.474   5.660 -1.3731 -0.8167 -0.5963
   34CHL1  H11B 3658   1.940   6.630   5.700  0.3775  0.4364 -2.0613
   34CHL1    C9 3659   1.738   6.566   5.767 -0.5344  0.4576 -0.7698
   34CHL1    H9 3660   1.702   6.670   5.778  1.4851  1.0991  0.4796
   34CHL1   C10 3661   1.787   6.534   5.913 -0.0334  0.1740 -0.1523
   34CHL1   C19 3662   1.857   6.396   5.922 -0.2569 -0.2953 -0.6630
   34CHL1  H19A 3663   1.792   6.320   5.875  0.0359 -0.2382 -1.1638
   34CHL1  H19B 3664   1.949   6.411   5.861  0.3646  0.8345  0.4805
   34CHL1  H19C 3665   1.872   6.365   6.028 -2.6061  3.2963  0.9199
   34CHL1    C1 3666   1.872   6.654   5.961 -0.6329 -0.0419  0.4760
   34CHL1   H1A 3667   1.968   6.654   5.906 -0.8160 -2.4061  0.0238
   34CHL1   H1B 3668   1.823   6.753   5.955 -1.4841 -0.4733  0.1580
   34CHL1    C2 3669   1.914   6.642   6.108  0.3145 -0.1744  0.0173
   34CHL1   H2A 3670   1.980   6.726   6.136 -0.3858 -0.3865  2.5870
   34CHL1   H2B 3671   1.971   6.549   6.125  0.6764 -0.1412 -0.9388
   34CHL1   C20 3672   1.647   6.604   5.223  0.6834 -0.1484 -0.0665
   34CHL1   H20 3673   1.646   6.497   5.192 -0.6675  0.1459 -1.1343
   34CHL1   C21 3674   1.792   6.660   5.215 -0.3232 -0.1375  0.0174
   34CHL1  H21A 3675   1.871   6.599   5.265 -0.6383  1.1567  2.2174
   34CHL1  H21B 3676   1.796   6.761   5.261  0.3102  0.2967 -0.9527
   34CHL1  H21C 3677   1.822   6.674   5.108 -1.5195 -2.4153 -0.6788
   34CHL1   C22 3678   1.538   6.676   5.132 -0.1350  0.2839  0.7972
   34CHL1  H22A 3679   1.444   6.618   5.138  0.6771 -1.4451 -1.5561
   34CHL1  H22B 3680   1.510   6.771   5.183 -0.6850 -0.0497  1.1289
   34CHL1   C23 3681   1.575   6.694   4.984 -0.4111  0.5889  0.0460
   34CHL1  H23A 3682   1.668   6.754   4.971 -0.5931  0.5043 -1.9206
   34CHL1  H23B 3683   1.589   6.590   4.946 -1.9736 -1.4906  4.4939
   34CHL1   C24 3684   1.460   6.750   4.900  0.2000  0.5715 -0.5484
   34CHL1  H24A 3685   1.423   6.849   4.933 -0.2799  1.0509 -2.3990
   34CHL1  H24B 3686   1.503   6.760   4.798  0.3247 -0.2929 -0.5851
   34CHL1   C25 3687   1.334   6.664   4.885  0.3367  0.2381 -0.2913
   34CHL1   H25 3688   1.309   6.609   4.979  0.4396 -1.1660 -1.0634
   34CHL1   C26 3689   1.218   6.758   4.856 -0.3608  0.5322 -0.2190
   34CHL1  H26A 3690   1.201   6.822   4.945  0.1800  0.3643  0.0163
   34CHL1  H26B 3691   1.247   6.836   4.783 -0.0111  1.0088  0.4188
   34CHL1  H26C 3692   1.121   6.720   4.818  0.3983 -0.7593 -0.9400
   34CHL1   C27 3693   1.350   6.562   4.766  0.1953  0.0232 -0.4443
   34CHL1  H27A 3694   1.274   6.481   4.762 -1.2755  1.2950  0.4925
   34CHL1  H27B 3695   1.343   6.615   4.669 -0.9774  2.4519  0.8964
   34CHL1  H27C 3696   1.451   6.517   4.777 -0.3673 -0.9755  1.0120
   35CHL1    C3 3697   4.339   6.273   6.530 -0.0634  0.2088 -0.9135
   35CHL1    H3 3698   4.388   6.178   6.500  1.6307  0.2333  1.4658
   35CHL1    O3 3699   4.281   6.258   6.660  0.4065  0.3447  0.8447
   35CHL1   H3' 3700   4.266   6.348   6.690 -0.0183  0.7097 -0.3926
   35CHL1    C4 3701   4.458   6.377   6.543  0.4539  0.0325 -0.3422
   35CHL1   H4A 3702   4.410   6.468   6.584  1.2768  0.1234  0.4494
   35CHL1   H4B 3703   4.520   6.340   6.627 -0.3071 -2.0340 -0.6291
   35CHL1    C5 3704   4.525   6.395   6.416  0.8631  0.8202  0.8783
   35CHL1    C6 3705   4.659   6.382   6.403  1.1309 -0.3022  0.5961
   35CHL1    H6 3706   4.728   6.373   6.489  2.3908  0.4928 -0.2969
   35CHL1    C7 3707   4.735   6.393   6.272  0.1864 -0.0418  1.6510
   35CHL1   H7A 3708   4.826   6.456   6.269  1.5306 -1.9418 -0.2139
   35CHL1   H7B 3709   4.763   6.298   6.223 -0.8242  1.1743 -1.5085
   35CHL1    C8 3710   4.642   6.461   6.161 -0.6064  0.2798 -0.1681
   35CHL1    H8 3711   4.628   6.567   6.192  2.4108  0.6352  0.2805
   35CHL1   C14 3712   4.695   6.453   6.021  0.3087  0.0808  1.3998
   35CHL1   H14 3713   4.702   6.342   6.014 -1.3477 -0.0640  1.6420
   35CHL1   C15 3714   4.835   6.516   6.009  0.6462  0.5065  0.3905
   35CHL1  H15A 3715   4.856   6.611   6.063  1.5454  0.7481 -0.3417
   35CHL1  H15B 3716   4.917   6.447   6.040 -1.0965 -0.8108  2.2849
   35CHL1   C16 3717   4.849   6.534   5.854 -0.4524 -0.3225 -0.5295
   35CHL1  H16A 3718   4.874   6.642   5.838 -3.1782  0.0054 -3.5922
   35CHL1  H16B 3719   4.927   6.466   5.813 -1.5864 -1.8682 -0.1869
   35CHL1   C17 3720   4.720   6.483   5.791 -0.0425 -0.3156  1.3223
   35CHL1   H17 3721   4.743   6.376   5.773 -0.2921 -0.3607  1.2687
   35CHL1   C13 3722   4.610   6.492   5.906 -0.3939  0.5468 -0.2161
   35CHL1   C18 3723   4.570   6.642   5.933 -0.1080 -0.2121 -0.2984
   35CHL1  H18A 3724   4.528   6.661   6.034 -0.2158  2.1081 -0.7246
   35CHL1  H18B 3725   4.647   6.719   5.907 -0.3694  0.2389  0.2386
   35CHL1  H18C 3726   4.476   6.668   5.879 -1.1509 -4.0423 -0.5625
   35CHL1   C12 3727   4.485   6.409   5.901  0.5040  0.1634  0.5005
   35CHL1  H12A 3728   4.427   6.458   5.820  2.4414  0.5976 -0.6777
   35CHL1  H12B 3729   4.522   6.309   5.871  2.9516  1.7001 -2.0309
   35CHL1   C11 3730   4.417   6.406   6.039 -0.7155  0.1671  0.0404
   35CHL1  H11A 3731   4.359   6.501   6.048 -2.6271 -0.9459 -0.0052
   35CHL1  H11B 3732   4.330   6.338   6.032 -1.7996  1.0846  2.8592
   35CHL1    C9 3733   4.510   6.391   6.162 -0.0727 -0.4116 -0.4792
   35CHL1    H9 3734   4.540   6.285   6.163 -0.1838 -0.4974  2.3935
   35CHL1   C10 3735   4.435   6.414   6.295 -0.1642 -0.2336  0.4246
   35CHL1   C19 3736   4.376   6.565   6.312  0.4442  0.2885 -0.4558
   35CHL1  H19A 3737   4.309   6.583   6.226 -0.1026  2.0437  0.2805
   35CHL1  H19B 3738   4.319   6.569   6.407 -0.5685 -0.5018 -1.0136
   35CHL1  H19C 3739   4.457   6.641   6.308  1.2206 -0.5913 -2.6316
   35CHL1    C1 3740   4.309   6.315   6.295 -0.1901  0.2449  0.1583
   35CHL1   H1A 3741   4.238   6.347   6.215  0.7075  1.6604 -0.1242
   35CHL1   H1B 3742   4.346   6.213   6.271 -0.8629  0.0334 -0.0139
   35CHL1    C2 3743   4.239   6.311   6.425  0.0048 -0.2409 -0.4390
   35CHL1   H2A 3744   4.155   6.238   6.416  2.4153 -3.4027  0.9559
   35CHL1   H2B 3745   4.174   6.399   6.443  0.5383  0.6699 -2.6372
   35CHL1   C20 3746   4.691   6.548   5.652 -0.6034  0.3819 -0.7518
   35CHL1   H20 3747   4.667   6.655   5.670 -1.3190 -0.1709  1.8622
   35CHL1   C21 3748   4.579   6.469   5.593 -0.0138  0.0609 -0.4215
   35CHL1  H21A 3749   4.578   6.360   5.614 -0.3764  0.4690  1.9815
   35CHL1  H21B 3750   4.556   6.490   5.486 -1.6617  0.8180  0.0462
   35CHL1  H21C 3751   4.490   6.510   5.645  0.4582  2.1593 -1.1732
   35CHL1   C22 3752   4.821   6.545   5.562  0.6281 -0.6781 -0.0958
   35CHL1  H22A 3753   4.912   6.561   5.624 -0.2021 -1.3537  1.3638
   35CHL1  H22B 3754   4.833   6.439   5.530  1.8127 -0.9444  1.1257
   35CHL1   C23 3755   4.815   6.644   5.441 -0.0947  1.0433 -0.4672
   35CHL1  H23A 3756   4.733   6.612   5.374 -0.3166 -3.5641  1.6328
   35CHL1  H23B 3757   4.772   6.733   5.492 -3.1403 -0.1281 -0.7789
   35CHL1   C24 3758   4.952   6.668   5.386  1.1474  0.0943  0.1314
   35CHL1  H24A 3759   5.012   6.685   5.478 -1.1494  2.3604  1.3263
   35CHL1  H24B 3760   4.973   6.575   5.329  1.7768  0.1921  0.1949
   35CHL1   C25 3761   4.950   6.773   5.279  0.1457  0.2591 -0.5857
   35CHL1   H25 3762   4.895   6.863   5.315 -0.4525  0.2227 -1.3782
   35CHL1   C26 3763   5.093   6.824   5.265  0.0897  0.4746 -0.3346
   35CHL1  H26A 3764   5.162   6.750   5.219 -0.8534  0.7177 -2.2922
   35CHL1  H26B 3765   5.082   6.910   5.195 -2.6600  1.1527  0.7850
   35CHL1  H26C 3766   5.136   6.863   5.359  0.4636  0.2810 -0.4244
   35CHL1   C27 3767   4.890   6.745   5.148  0.6219  0.2866 -0.0101
   35CHL1  H27A 3768   4.781   6.727   5.149  0.2313  1.9483 -2.4955
   35CHL1  H27B 3769   4.904   6.832   5.079 -2.2907 -0.5279 -1.7930
   35CHL1  H27C 3770   4.932   6.656   5.096 -0.9746  0.4349 -1.6225
   36CHL1    C3 3771   5.303   6.456   6.285  0.5099  0.6146  0.7208
   36CHL1    H3 3772   5.317   6.565   6.294 -2.1706  1.1186 -0.2479
   36CHL1    O3 3773   5.249   6.397   6.410  0.5427 -0.2795 -0.0869
   36CHL1   H3' 3774   5.330   6.380   6.460  1.0771  1.8284 -0.1534
   36CHL1    C4 3775   5.204   6.432   6.166 -0.0883 -0.3927 -0.4272
   36CHL1   H4A 3776   5.163   6.329   6.155  0.5458 -0.5198 -1.7596
   36CHL1   H4B 3777   5.115   6.488   6.203  0.2120 -0.6355  0.7143
   36CHL1    C5 3778   5.249   6.467   6.026  0.1332  0.4770  0.0635
   36CHL1    C6 3779   5.188   6.550   5.939 -0.6360 -0.1314  0.0605
   36CHL1    H6 3780   5.089   6.592   5.960 -1.5282 -1.6325 -0.9403
   36CHL1    C7 3781   5.232   6.570   5.798  0.5629  0.2825  0.0601
   36CHL1   H7A 3782   5.144   6.549   5.734  0.3963 -0.9677  0.6625
   36CHL1   H7B 3783   5.258   6.678   5.792 -0.0525  0.3598 -1.8625
   36CHL1    C8 3784   5.348   6.484   5.757  0.4419 -0.2765  0.7345
   36CHL1    H8 3785   5.306   6.384   5.732  1.4065 -0.4178 -0.4188
   36CHL1   C14 3786   5.405   6.532   5.626 -0.4726  0.2625  0.5771
   36CHL1   H14 3787   5.449   6.631   5.652  3.8453 -0.8403 -1.5916
   36CHL1   C15 3788   5.323   6.554   5.495  0.1044  0.5356  0.1788
   36CHL1  H15A 3789   5.239   6.483   5.491  0.7053 -0.2595  1.2989
   36CHL1  H15B 3790   5.280   6.657   5.498  1.8202  1.3494 -1.2234
   36CHL1   C16 3791   5.420   6.534   5.372 -0.6517 -0.6748 -0.2389
   36CHL1  H16A 3792   5.397   6.439   5.320  0.9333 -1.0153 -0.3806
   36CHL1  H16B 3793   5.424   6.623   5.305 -0.1445 -0.1551  0.4623
   36CHL1   C17 3794   5.561   6.503   5.435 -0.3615 -0.4826 -0.2245
   36CHL1   H17 3795   5.612   6.599   5.454 -0.0040 -1.1198  2.3486
   36CHL1   C13 3796   5.522   6.447   5.577 -0.3059  0.1936  0.2315
   36CHL1   C18 3797   5.470   6.303   5.547  0.1187  0.4561  0.0379
   36CHL1  H18A 3798   5.458   6.246   5.642  2.0973 -0.4946 -0.2280
   36CHL1  H18B 3799   5.374   6.312   5.492 -0.4616  0.8038  1.0642
   36CHL1  H18C 3800   5.551   6.249   5.493  0.0257  0.0794  0.2687
   36CHL1   C12 3801   5.632   6.458   5.685 -0.0987  0.2169  0.7599
   36CHL1  H12A 3802   5.719   6.399   5.650  0.4326  1.4484 -0.0549
   36CHL1  H12B 3803   5.666   6.564   5.691  1.6337 -0.2588 -0.0801
   36CHL1   C11 3804   5.577   6.397   5.814 -0.8498 -0.4682 -0.0708
   36CHL1  H11A 3805   5.569   6.287   5.814  0.7399 -0.6116  0.1823
   36CHL1  H11B 3806   5.665   6.419   5.879 -0.0038 -1.3601 -0.8782
   36CHL1    C9 3807   5.448   6.472   5.864  0.0218  0.0449 -0.5750
   36CHL1    H9 3808   5.480   6.577   5.882 -0.5886  0.7336 -3.1253
   36CHL1   C10 3809   5.388   6.409   5.995  0.0765  0.8203  0.8414
   36CHL1   C19 3810   5.370   6.257   5.974 -0.1404 -0.0393 -0.0636
   36CHL1  H19A 3811   5.467   6.206   5.960 -1.2354 -2.1581 -0.4529
   36CHL1  H19B 3812   5.335   6.214   6.070  0.0817 -0.2497 -0.0769
   36CHL1  H19C 3813   5.301   6.234   5.889  0.1156  0.3333 -0.3729
   36CHL1    C1 3814   5.483   6.436   6.116  0.2069 -0.1636 -0.2076
   36CHL1   H1A 3815   5.570   6.370   6.094 -0.2051 -1.1446  0.9543
   36CHL1   H1B 3816   5.520   6.539   6.133 -0.7907  0.1119  0.4025
   36CHL1    C2 3817   5.435   6.391   6.256  0.2447 -0.7150  0.6070
   36CHL1   H2A 3818   5.511   6.423   6.331  1.7652 -2.7188  0.0304
   36CHL1   H2B 3819   5.429   6.280   6.260  0.4054 -0.7933 -0.7935
   36CHL1   C20 3820   5.655   6.422   5.338  0.0492  0.4546  0.1154
   36CHL1   H20 3821   5.611   6.324   5.307  0.3259  0.5634 -0.6266
   36CHL1   C21 3822   5.797   6.409   5.401  0.1302 -0.2065  0.1621
   36CHL1  H21A 3823   5.832   6.504   5.446 -1.6066  0.0220  1.1178
   36CHL1  H21B 3824   5.871   6.385   5.321  1.5589  2.3413  0.6149
   36CHL1  H21C 3825   5.803   6.325   5.473 -1.0603 -0.1080  0.3970
   36CHL1   C22 3826   5.676   6.500   5.201  0.0108 -0.5355 -0.3634
   36CHL1  H22A 3827   5.758   6.461   5.137  1.0351 -1.0654  1.2266
   36CHL1  H22B 3828   5.585   6.493   5.137 -0.5179  2.6649 -0.1019
   36CHL1   C23 3829   5.727   6.644   5.208 -0.6585 -0.6710 -0.0274
   36CHL1  H23A 3830   5.674   6.713   5.277  0.7591  0.8219 -0.3686
   36CHL1  H23B 3831   5.827   6.641   5.256 -1.3919  0.7376  1.7220
   36CHL1   C24 3832   5.730   6.707   5.061  0.1846 -0.7158  0.0732
   36CHL1  H24A 3833   5.755   6.628   4.988 -1.5501 -0.7996 -0.4864
   36CHL1  H24B 3834   5.627   6.736   5.031  0.7651  0.4130 -0.8707
   36CHL1   C25 3835   5.832   6.823   5.046  0.1018  0.1758 -0.7466
   36CHL1   H25 3836   5.934   6.778   5.051 -0.7595 -1.7190  1.4516
   36CHL1   C26 3837   5.805   6.900   4.913 -0.1744 -0.0377 -0.5624
   36CHL1  H26A 3838   5.869   6.851   4.836  0.1909  1.3408 -1.1706
   36CHL1  H26B 3839   5.697   6.906   4.887 -0.1669 -0.4912 -0.7119
   36CHL1  H26C 3840   5.844   7.003   4.922  0.6156 -0.2443 -1.4461
   36CHL1   C27 3841   5.821   6.920   5.169 -0.0838  0.8101  0.0441
   36CHL1  H27A 3842   5.827   6.872   5.269 -3.1568  1.0741  0.4225
   36CHL1  H27B 3843   5.909   6.988   5.167  0.6684 -0.1049 -2.1583
   36CHL1  H27C 3844   5.721   6.967   5.161 -0.0970  0.7336 -0.2618
   37CHL1    C3 3845   2.241   3.786   6.555  0.2525 -0.6853  0.1312
   37CHL1    H3 3846   2.260   3.881   6.500 -0.6579  0.6166  1.9361
   37CHL1    O3 3847   2.253   3.802   6.696  0.4320  0.0141  0.3340
   37CHL1   H3' 3848   2.185   3.743   6.729  0.0253  0.1261 -0.2869
   37CHL1    C4 3849   2.093   3.755   6.523 -0.6330 -0.1453  0.0502
   37CHL1   H4A 3850   2.048   3.677   6.587 -0.0019  0.4697  1.2647
   37CHL1   H4B 3851   2.037   3.849   6.544 -1.0333 -0.6520  1.3015
   37CHL1    C5 3852   2.066   3.715   6.378  0.2989 -0.3950  0.6538
   37CHL1    C6 3853   1.982   3.781   6.299  0.3009 -0.0659 -0.0150
   37CHL1    H6 3854   1.938   3.872   6.343  2.9233  1.4118 -0.2368
   37CHL1    C7 3855   1.942   3.742   6.160 -0.7861  0.3012 -0.4325
   37CHL1   H7A 3856   1.831   3.740   6.157 -0.7798 -1.6732 -0.6214
   37CHL1   H7B 3857   1.983   3.818   6.090  2.2264 -0.7699 -0.0036
   37CHL1    C8 3858   2.010   3.608   6.111 -0.3652 -0.3989 -0.1362
   37CHL1    H8 3859   1.938   3.529   6.144 -0.6059 -0.3145 -0.4589
   37CHL1   C14 3860   2.018   3.603   5.954  0.0071 -0.8509 -0.2764
   37CHL1   H14 3861   2.094   3.677   5.922 -0.3398 -0.2583  0.2567
   37CHL1   C15 3862   1.893   3.640   5.872  0.2167  0.7771  0.0729
   37CHL1  H15A 3863   1.807   3.585   5.915 -0.1864  1.0578 -0.3590
   37CHL1  H15B 3864   1.862   3.747   5.871 -1.6709  0.2772 -1.5337
   37CHL1   C16 3865   1.921   3.572   5.737 -0.2688 -0.1961  0.0731
   37CHL1  H16A 3866   1.835   3.505   5.716 -0.6312 -0.6706  2.7055
   37CHL1  H16B 3867   1.922   3.656   5.664 -0.6401 -0.3627 -0.1251
   37CHL1   C17 3868   2.056   3.502   5.744 -0.7937  0.2512 -0.0369
   37CHL1   H17 3869   2.133   3.575   5.712  0.3327 -0.4348  1.0189
   37CHL1   C13 3870   2.078   3.474   5.899  0.0179 -0.4736  0.0878
   37CHL1   C18 3871   2.012   3.344   5.950 -0.1251  0.0336  0.3294
   37CHL1  H18A 3872   1.908   3.323   5.916  0.3853 -2.2095 -0.0056
   37CHL1  H18B 3873   2.067   3.256   5.911  1.9812  0.7279  1.6063
   37CHL1  H18C 3874   2.021   3.331   6.060  2.0978 -1.9737 -0.0140
   37CHL1   C12 3875   2.223   3.477   5.938 -0.1395 -0.4421 -0.7793
   37CHL1  H12A 3876   2.267   3.381   5.904 -0.7392 -0.6149 -1.0826
   37CHL1  H12B 3877   2.272   3.567   5.894  0.4503 -0.5734 -0.4058
   37CHL1   C11 3878   2.237   3.483   6.098 -0.5260  0.3570 -0.0593
   37CHL1  H11A 3879   2.208   3.384   6.140  0.1427 -0.5914 -1.7733
   37CHL1  H11B 3880   2.345   3.496   6.121 -0.6609  0.1331  0.7319
   37CHL1    C9 3881   2.155   3.594   6.170  0.6466  0.3831  0.4188
   37CHL1    H9 3882   2.194   3.693   6.138 -3.2154  2.2886  1.0377
   37CHL1   C10 3883   2.155   3.597   6.328 -0.9834 -0.2222 -0.1091
   37CHL1   C19 3884   2.114   3.463   6.383 -0.4132  0.3889 -0.5854
   37CHL1  H19A 3885   2.089   3.471   6.491 -0.5076  1.7690 -0.6932
   37CHL1  H19B 3886   2.033   3.410   6.329  0.4607 -1.0809 -0.5104
   37CHL1  H19C 3887   2.208   3.403   6.387  0.3378  1.5095 -0.8012
   37CHL1    C1 3888   2.303   3.633   6.365  0.3560  0.6638 -0.1053
   37CHL1   H1A 3889   2.362   3.544   6.335 -0.1200  0.8602 -1.7329
   37CHL1   H1B 3890   2.330   3.716   6.296  1.5305  0.2047 -0.2213
   37CHL1    C2 3891   2.340   3.674   6.505 -0.1435 -0.1708  0.5139
   37CHL1   H2A 3892   2.445   3.707   6.519 -1.0860  2.3477  2.5903
   37CHL1   H2B 3893   2.321   3.594   6.580  2.0384  0.3602  1.7044
   37CHL1   C20 3894   2.075   3.379   5.647 -0.0633 -0.8177 -0.5943
   37CHL1   H20 3895   2.036   3.289   5.700 -0.9674  0.3456  0.7946
   37CHL1   C21 3896   2.233   3.366   5.624  0.2491 -0.3697  0.2560
   37CHL1  H21A 3897   2.286   3.333   5.716 -0.8901 -2.0758  0.3436
   37CHL1  H21B 3898   2.276   3.462   5.587  0.0747 -0.1527  0.6079
   37CHL1  H21C 3899   2.254   3.291   5.545  1.2292  0.8281 -0.6726
   37CHL1   C22 3900   2.009   3.402   5.508  0.0662  0.1201 -0.8210
   37CHL1  H22A 3901   2.016   3.307   5.452  0.0896  0.6782 -1.7851
   37CHL1  H22B 3902   1.903   3.436   5.511  0.9099  2.9792 -0.3953
   37CHL1   C23 3903   2.075   3.499   5.407  0.0555 -0.0040  0.8339
   37CHL1  H23A 3904   2.106   3.588   5.465  0.3951 -0.2131  0.9782
   37CHL1  H23B 3905   2.165   3.456   5.356 -0.7292  0.1796 -0.7755
   37CHL1   C24 3906   1.987   3.542   5.292 -0.0309  0.3437  0.2580
   37CHL1  H24A 3907   1.920   3.462   5.254  1.1691  0.4273 -2.2060
   37CHL1  H24B 3908   1.933   3.630   5.333 -0.8436 -0.2634  0.5173
   37CHL1   C25 3909   2.075   3.580   5.164  0.9296 -0.1324  0.7928
   37CHL1   H25 3910   2.148   3.652   5.207  1.9827 -1.9105  2.1176
   37CHL1   C26 3911   2.158   3.469   5.097  0.7278  0.5674 -0.2337
   37CHL1  H26A 3912   2.248   3.453   5.160  0.5313  1.2344  0.2287
   37CHL1  H26B 3913   2.107   3.372   5.082 -0.0465  1.0726 -0.9169
   37CHL1  H26C 3914   2.194   3.499   4.996  0.3090  1.0873 -0.2312
   37CHL1   C27 3915   1.998   3.659   5.055 -0.4468  0.6970 -0.2895
   37CHL1  H27A 3916   1.945   3.748   5.094 -1.4357  0.2341 -0.5402
   37CHL1  H27B 3917   2.073   3.684   4.977  0.5175 -0.5746  0.1855
   37CHL1  H27C 3918   1.920   3.594   5.010 -1.4239  2.0128 -0.5167
   38CHL1    C3 3919   2.100   4.302   6.450  0.1398 -0.3559 -0.0011
   38CHL1    H3 3920   1.991   4.305   6.433 -0.1598  1.0978  1.9500
   38CHL1    O3 3921   2.126   4.295   6.590  0.1950 -0.4973  0.0900
   38CHL1   H3' 3922   2.187   4.221   6.597  1.5751  0.6652  1.3683
   38CHL1    C4 3923   2.166   4.183   6.380 -0.2665  0.2322  0.0714
   38CHL1   H4A 3924   2.268   4.156   6.417 -0.4197 -0.2437  0.1458
   38CHL1   H4B 3925   2.097   4.101   6.409 -1.4097  0.8698 -0.8101
   38CHL1    C5 3926   2.171   4.192   6.234 -0.3905 -0.1801  0.2835
   38CHL1    C6 3927   2.129   4.088   6.159 -0.1157  0.1802  0.3597
   38CHL1    H6 3928   2.099   3.996   6.211 -0.0411 -1.0483 -1.6789
   38CHL1    C7 3929   2.136   4.086   6.007  0.4040  0.7966 -0.1091
   38CHL1   H7A 3930   2.177   3.989   5.971  0.4736  1.3091 -1.4899
   38CHL1   H7B 3931   2.033   4.088   5.967 -0.0899  0.8654  1.1397
   38CHL1    C8 3932   2.220   4.195   5.943 -0.5119 -0.0837  0.6409
   38CHL1    H8 3933   2.327   4.168   5.957 -0.2892 -0.3348 -1.2272
   38CHL1   C14 3934   2.199   4.210   5.797  0.2478 -0.1725  0.0682
   38CHL1   H14 3935   2.092   4.241   5.796 -0.2268 -1.6643 -2.0774
   38CHL1   C15 3936   2.198   4.084   5.714 -0.0086 -0.7327  1.1504
   38CHL1  H15A 3937   2.289   4.021   5.727 -0.1509 -1.4679 -0.9360
   38CHL1  H15B 3938   2.113   4.016   5.736  0.8096 -1.3450  2.5485
   38CHL1   C16 3939   2.205   4.132   5.569  0.1493 -0.3017  0.3887
   38CHL1  H16A 3940   2.296   4.091   5.520  1.1092  0.4680  1.4657
   38CHL1  H16B 3941   2.112   4.128   5.509  1.0108 -1.8891 -0.9264
   38CHL1   C17 3942   2.232   4.291   5.575 -0.0390  0.2363  0.1436
   38CHL1   H17 3943   2.137   4.348   5.562  0.5873  1.1467 -0.5605
   38CHL1   C13 3944   2.280   4.317   5.720  0.5349  0.2437 -0.2940
   38CHL1   C18 3945   2.429   4.287   5.727  0.9647  0.1204 -0.0043
   38CHL1  H18A 3946   2.444   4.198   5.663  0.9892  0.1384 -0.0231
   38CHL1  H18B 3947   2.487   4.369   5.680 -1.6378  3.3263  1.9229
   38CHL1  H18C 3948   2.459   4.253   5.829 -3.2470  0.5159  1.5546
   38CHL1   C12 3949   2.245   4.448   5.790  0.3719 -0.1854 -0.3048
   38CHL1  H12A 3950   2.292   4.533   5.735 -2.0211  0.0027 -2.2174
   38CHL1  H12B 3951   2.138   4.471   5.775  0.8150  1.2137 -1.6015
   38CHL1   C11 3952   2.280   4.446   5.940  0.0477  0.3090  0.0799
   38CHL1  H11A 3953   2.390   4.436   5.948  0.3136  1.6803 -1.2107
   38CHL1  H11B 3954   2.254   4.541   5.992 -0.7621 -0.7552  1.6652
   38CHL1    C9 3955   2.196   4.329   6.014  0.0416  0.2019 -0.0542
   38CHL1    H9 3956   2.088   4.339   5.991  0.0861  1.8517  0.3595
   38CHL1   C10 3957   2.216   4.321   6.170 -0.1430 -0.2102  0.3726
   38CHL1   C19 3958   2.368   4.340   6.205  0.0808  0.6218  0.2385
   38CHL1  H19A 3959   2.398   4.442   6.172  0.4018  0.0232 -1.4169
   38CHL1  H19B 3960   2.405   4.320   6.308  2.0807  2.7679  0.0096
   38CHL1  H19C 3961   2.424   4.276   6.135  2.5571  3.0093 -0.1448
   38CHL1    C1 3962   2.139   4.435   6.247 -0.3558  0.0957  1.0627
   38CHL1   H1A 3963   2.177   4.533   6.211  2.8274 -1.3892 -0.0704
   38CHL1   H1B 3964   2.033   4.423   6.215 -0.5872 -0.1306  1.8974
   38CHL1    C2 3965   2.152   4.436   6.394 -0.6777 -0.1489  0.2382
   38CHL1   H2A 3966   2.089   4.524   6.417  1.4366  1.4624  0.2094
   38CHL1   H2B 3967   2.256   4.442   6.434 -0.8596 -1.4468  0.9425
   38CHL1   C20 3968   2.332   4.339   5.464 -0.1842 -0.1784  0.5316
   38CHL1   H20 3969   2.432   4.293   5.478 -0.7320 -1.2787  1.0031
   38CHL1   C21 3970   2.339   4.487   5.484  0.4320  0.2173  0.4296
   38CHL1  H21A 3971   2.420   4.527   5.548  1.0663  1.0158 -0.8121
   38CHL1  H21B 3972   2.238   4.521   5.513 -0.6756 -2.8100  0.4589
   38CHL1  H21C 3973   2.353   4.535   5.384 -0.0436  0.8665  0.6689
   38CHL1   C22 3974   2.296   4.308   5.317  0.2189 -0.0655 -0.2016
   38CHL1  H22A 3975   2.255   4.207   5.298 -0.4264  0.3064 -0.8386
   38CHL1  H22B 3976   2.221   4.377   5.273 -0.4302 -2.2609 -2.8378
   38CHL1   C23 3977   2.407   4.292   5.212  0.7426  0.2135 -0.4477
   38CHL1  H23A 3978   2.478   4.377   5.221  0.4689  0.2096  3.1594
   38CHL1  H23B 3979   2.465   4.201   5.239  0.1200 -0.3186 -0.8688
   38CHL1   C24 3980   2.363   4.271   5.070  0.4168  0.1683  0.6327
   38CHL1  H24A 3981   2.294   4.183   5.071  1.7655 -0.9254  0.7885
   38CHL1  H24B 3982   2.306   4.362   5.043  0.3855 -0.0083  0.0887
   38CHL1   C25 3983   2.465   4.234   4.956 -0.4486 -0.4520 -0.0646
   38CHL1   H25 3984   2.513   4.145   5.001  0.7764  1.7310  3.3794
   38CHL1   C26 3985   2.398   4.211   4.820  0.5330  0.0577  0.9679
   38CHL1  H26A 3986   2.361   4.309   4.783  1.0230 -0.8777 -2.3768
   38CHL1  H26B 3987   2.481   4.171   4.758 -0.4615  0.7041 -0.8548
   38CHL1  H26C 3988   2.313   4.140   4.827  0.4863 -0.0532 -0.4125
   38CHL1   C27 3989   2.571   4.350   4.944 -0.5248  0.2895 -0.0717
   38CHL1  H27A 3990   2.511   4.441   4.921 -2.1641 -0.3476  1.4437
   38CHL1  H27B 3991   2.619   4.366   5.043 -0.8795  0.7719  0.0265
   38CHL1  H27C 3992   2.655   4.331   4.874 -0.1712  1.8713 -0.1032
   39CHL1    C3 3993   1.622   4.199   6.326  0.2946  0.7518 -0.2061
   39CHL1    H3 3994   1.674   4.296   6.319 -1.8986  2.0736  0.6686
   39CHL1    O3 3995   1.574   4.182   6.461 -0.8898  0.7631  0.0959
   39CHL1   H3' 3996   1.650   4.161   6.515 -0.7863 -0.4746 -0.4958
   39CHL1    C4 3997   1.491   4.199   6.236 -0.0124 -0.7046 -0.3904
   39CHL1   H4A 3998   1.424   4.113   6.259  0.7449 -1.8909 -2.3482
   39CHL1   H4B 3999   1.448   4.295   6.271  4.1119  1.0846  0.3809
   39CHL1    C5 4000   1.509   4.192   6.089  0.5102  0.7383  0.5643
   39CHL1    C6 4001   1.460   4.285   6.007 -0.0698 -0.1480  0.0919
   39CHL1    H6 4002   1.405   4.371   6.049  1.4457  1.9256 -1.9287
   39CHL1    C7 4003   1.475   4.284   5.858  0.6153 -0.7175 -0.4638
   39CHL1   H7A 4004   1.370   4.284   5.821 -1.0228  0.5489  3.6249
   39CHL1   H7B 4005   1.534   4.374   5.831  1.5230 -0.2525  2.6588
   39CHL1    C8 4006   1.532   4.154   5.806 -0.8027  0.3664  1.2925
   39CHL1    H8 4007   1.450   4.079   5.814 -2.0824  1.6637  0.9840
   39CHL1   C14 4008   1.583   4.168   5.660 -0.4543  0.0115 -0.2736
   39CHL1   H14 4009   1.666   4.241   5.667 -0.2423 -0.1765 -0.8456
   39CHL1   C15 4010   1.490   4.222   5.550  0.2675 -0.6939  0.7218
   39CHL1  H15A 4011   1.399   4.159   5.548 -0.7752  0.7440 -1.9678
   39CHL1  H15B 4012   1.449   4.326   5.557 -1.6421 -1.0988 -2.4647
   39CHL1   C16 4013   1.558   4.187   5.416 -0.6046 -0.1038 -0.0071
   39CHL1  H16A 4014   1.495   4.128   5.345 -0.3767  0.7073 -0.9048
   39CHL1  H16B 4015   1.597   4.275   5.362  1.8923 -1.0637  0.1043
   39CHL1   C17 4016   1.680   4.103   5.454  0.5350  0.1797 -1.3395
   39CHL1   H17 4017   1.766   4.170   5.475  0.5838 -0.6325  1.5148
   39CHL1   C13 4018   1.650   4.049   5.598  0.6214  0.0908  0.0898
   39CHL1   C18 4019   1.552   3.928   5.591 -0.8492  0.3248 -0.7901
   39CHL1  H18A 4020   1.512   3.896   5.689 -1.2079  1.1887 -0.6447
   39CHL1  H18B 4021   1.465   3.940   5.522 -0.9690  2.1617 -0.3644
   39CHL1  H18C 4022   1.606   3.841   5.548 -0.6753  0.1559 -0.2348
   39CHL1   C12 4023   1.770   4.010   5.684  0.0130  0.0954  0.8358
   39CHL1  H12A 4024   1.843   3.936   5.647  1.0359  1.3260  0.3251
   39CHL1  H12B 4025   1.836   4.100   5.675  1.1642 -0.8639 -0.9346
   39CHL1   C11 4026   1.732   3.987   5.832  0.0877  0.2926  0.2031
   39CHL1  H11A 4027   1.670   3.895   5.835  2.4506 -1.4130 -0.3713
   39CHL1  H11B 4028   1.822   3.969   5.893  1.4490 -0.9020 -2.0252
   39CHL1    C9 4029   1.652   4.103   5.894 -0.6667  0.6386  0.4198
   39CHL1    H9 4030   1.729   4.184   5.900  0.7083 -0.5441 -0.4809
   39CHL1   C10 4031   1.610   4.080   6.047  0.9207 -0.4561 -0.8102
   39CHL1   C19 4032   1.531   3.947   6.071 -0.7055  0.4561  0.8354
   39CHL1  H19A 4033   1.588   3.858   6.036 -1.6458  0.3933 -0.6504
   39CHL1  H19B 4034   1.520   3.933   6.180 -3.3960 -1.2843  0.4338
   39CHL1  H19C 4035   1.429   3.945   6.028 -0.5370 -0.8794  0.4663
   39CHL1    C1 4036   1.738   4.094   6.139  0.3495 -0.3204 -0.1883
   39CHL1   H1A 4037   1.804   4.008   6.114 -0.4690 -0.9543 -0.2358
   39CHL1   H1B 4038   1.800   4.185   6.128  1.1979 -0.2833  3.6239
   39CHL1    C2 4039   1.719   4.092   6.292 -0.5042 -0.0480  0.0184
   39CHL1   H2A 4040   1.818   4.112   6.338  0.3844 -2.5957 -0.6086
   39CHL1   H2B 4041   1.681   3.997   6.335 -1.5944  0.1867 -0.3864
   39CHL1   C20 4042   1.735   4.005   5.352 -0.1501  0.3771 -0.1050
   39CHL1   H20 4043   1.647   3.946   5.320 -0.2899  1.4307 -1.7726
   39CHL1   C21 4044   1.842   3.906   5.393 -0.3313  0.2848 -0.8652
   39CHL1  H21A 4045   1.890   3.860   5.305 -0.8580 -1.0956 -0.4717
   39CHL1  H21B 4046   1.791   3.834   5.461 -0.8464  1.3741 -0.0752
   39CHL1  H21C 4047   1.920   3.964   5.447 -0.6067 -0.0203 -0.1148
   39CHL1   C22 4048   1.778   4.093   5.226 -0.0788  0.5940  0.2713
   39CHL1  H22A 4049   1.791   4.009   5.154  0.2492 -0.8380  1.9190
   39CHL1  H22B 4050   1.692   4.152   5.186  0.5128  0.9345 -0.5175
   39CHL1   C23 4051   1.915   4.163   5.239  0.2853 -0.0601  0.4780
   39CHL1  H23A 4052   1.917   4.222   5.334 -2.7373  0.4802  0.3243
   39CHL1  H23B 4053   1.997   4.088   5.242  0.0597 -0.3014  0.9525
   39CHL1   C24 4054   1.935   4.265   5.120  0.1735  0.0571 -0.7990
   39CHL1  H24A 4055   1.860   4.346   5.123 -0.0427 -0.1502 -0.4990
   39CHL1  H24B 4056   2.037   4.309   5.125  0.7682 -1.3911  2.2802
   39CHL1   C25 4057   1.951   4.210   4.978  0.2282  0.2179 -0.6357
   39CHL1   H25 4058   1.853   4.171   4.945 -0.6511  1.3114  0.6068
   39CHL1   C26 4059   2.011   4.319   4.883 -0.2947 -0.2682 -0.0555
   39CHL1  H26A 4060   1.950   4.410   4.902  0.9766  0.1695  2.2801
   39CHL1  H26B 4061   2.117   4.332   4.912 -0.6290 -0.3238  1.2590
   39CHL1  H26C 4062   2.014   4.294   4.775  1.2902  0.2588 -0.1597
   39CHL1   C27 4063   2.033   4.079   4.970 -0.1352 -0.6027 -0.9495
   39CHL1  H27A 4064   1.973   3.996   5.013 -0.8014  0.3747  0.0634
   39CHL1  H27B 4065   2.054   4.060   4.862 -0.1734 -0.0869 -1.0525
   39CHL1  H27C 4066   2.125   4.091   5.031 -0.5071 -1.0037 -0.2975
   40CHL1    C3 4067   2.820   6.283   5.976  0.0912 -0.0514  0.0864
   40CHL1    H3 4068   2.744   6.354   5.936  0.9686  0.1069 -1.3590
   40CHL1    O3 4069   2.795   6.259   6.111 -0.3252 -0.0469 -0.6669
   40CHL1   H3' 4070   2.857   6.189   6.137 -0.9407 -0.5959 -0.6615
   40CHL1    C4 4071   2.800   6.154   5.894 -1.0395 -0.6994  0.2551
   40CHL1   H4A 4072   2.854   6.071   5.944  1.7126  1.2807  0.8694
   40CHL1   H4B 4073   2.696   6.119   5.909 -0.4008 -3.0108 -0.4282
   40CHL1    C5 4074   2.847   6.180   5.750  0.0141 -0.0217  0.2949
   40CHL1    C6 4075   2.764   6.151   5.651  0.8653  0.3390 -0.0762
   40CHL1    H6 4076   2.666   6.114   5.685  1.1593  0.1956  0.6293
   40CHL1    C7 4077   2.798   6.152   5.501  0.9111 -0.0634 -0.5766
   40CHL1   H7A 4078   2.779   6.057   5.446 -0.3605  1.7800 -3.6324
   40CHL1   H7B 4079   2.740   6.237   5.459  1.0326  0.6378  0.6225
   40CHL1    C8 4080   2.950   6.176   5.486 -0.0372 -0.8465  0.2945
   40CHL1    H8 4081   3.013   6.086   5.502 -0.7874 -1.1047  2.0315
   40CHL1   C14 4082   2.983   6.228   5.348 -0.1360 -0.4043 -0.3274
   40CHL1   H14 4083   2.926   6.323   5.350 -0.6687 -0.7317  1.4900
   40CHL1   C15 4084   2.920   6.158   5.225 -0.3652  0.1180 -0.2144
   40CHL1  H15A 4085   2.925   6.048   5.241  1.3721  0.5575  3.1904
   40CHL1  H15B 4086   2.814   6.188   5.217 -0.5358  0.6967  2.8477
   40CHL1   C16 4087   3.009   6.206   5.108  0.3672  0.4594 -0.6915
   40CHL1  H16A 4088   3.059   6.115   5.069  2.7091  0.2687  2.4051
   40CHL1  H16B 4089   2.941   6.254   5.035 -0.6662 -1.7101 -1.2591
   40CHL1   C17 4090   3.103   6.319   5.162  0.2221  0.9211 -0.3711
   40CHL1   H17 4091   3.039   6.410   5.170 -2.6477 -1.1021  2.0835
   40CHL1   C13 4092   3.122   6.272   5.312  0.2075  0.5008 -0.0240
   40CHL1   C18 4093   3.225   6.159   5.309  0.4489  0.4099  0.2800
   40CHL1  H18A 4094   3.315   6.184   5.249  0.6082  0.0170  0.3493
   40CHL1  H18B 4095   3.249   6.132   5.415 -1.4688  0.3334  0.7196
   40CHL1  H18C 4096   3.184   6.069   5.258  1.0641  0.5463 -0.4679
   40CHL1   C12 4097   3.162   6.374   5.404  0.4920 -0.5981 -0.9662
   40CHL1  H12A 4098   3.271   6.388   5.386  0.1465 -0.5118 -3.3757
   40CHL1  H12B 4099   3.096   6.463   5.410 -0.8432 -1.6242  3.6027
   40CHL1   C11 4100   3.153   6.322   5.551  0.1207  0.2909 -0.3830
   40CHL1  H11A 4101   3.218   6.238   5.584 -1.1575  0.1595  1.9952
   40CHL1  H11B 4102   3.182   6.407   5.616 -0.7868  1.0868 -0.9999
   40CHL1    C9 4103   3.004   6.279   5.586  0.1660 -0.5087 -0.0980
   40CHL1    H9 4104   2.942   6.370   5.568  2.1871  1.1274  0.6954
   40CHL1   C10 4105   2.983   6.243   5.735  0.1079 -0.1225  1.2167
   40CHL1   C19 4106   3.071   6.130   5.779  0.2259  0.8641 -0.0405
   40CHL1  H19A 4107   3.066   6.054   5.698 -1.3743  1.9079 -0.9594
   40CHL1  H19B 4108   3.174   6.165   5.805  0.3462  1.3708 -1.1531
   40CHL1  H19C 4109   3.032   6.074   5.867 -2.0479 -0.4634 -1.7822
   40CHL1    C1 4110   2.995   6.376   5.822  0.1252  1.0560  0.4332
   40CHL1   H1A 4111   3.099   6.413   5.815 -0.3625  2.9947  2.4318
   40CHL1   H1B 4112   2.933   6.458   5.778  0.9773  1.6750  0.3718
   40CHL1    C2 4113   2.954   6.353   5.967  0.0210 -0.4549  0.1489
   40CHL1   H2A 4114   2.945   6.454   6.013 -2.2751  1.0424 -3.2357
   40CHL1   H2B 4115   3.023   6.290   6.028  0.9778  1.2872  0.9280
   40CHL1   C20 4116   3.224   6.341   5.067 -0.7709 -0.0670  1.0743
   40CHL1   H20 4117   3.312   6.274   5.077 -1.4969 -1.5893 -1.6275
   40CHL1   C21 4118   3.285   6.481   5.098 -0.7748  0.3273 -0.1930
   40CHL1  H21A 4119   3.376   6.466   5.160  0.1605  1.5135 -1.2135
   40CHL1  H21B 4120   3.220   6.557   5.145  1.7516  1.5812  1.5227
   40CHL1  H21C 4121   3.304   6.529   4.999  0.7166 -0.1661 -0.1733
   40CHL1   C22 4122   3.201   6.319   4.910 -0.1424 -0.3379 -0.5692
   40CHL1  H22A 4123   3.299   6.319   4.859  0.1691 -2.9794 -0.0970
   40CHL1  H22B 4124   3.167   6.216   4.888 -2.0957  0.0740  0.2524
   40CHL1   C23 4125   3.095   6.417   4.850 -0.2528  0.4316 -0.0616
   40CHL1  H23A 4126   2.990   6.400   4.881 -0.3324  0.0945 -0.5052
   40CHL1  H23B 4127   3.126   6.522   4.872 -0.1362  0.4865 -0.4709
   40CHL1   C24 4128   3.093   6.415   4.697  0.0244 -0.1006 -0.0005
   40CHL1  H24A 4129   3.072   6.309   4.672 -1.5933  0.6843 -2.2686
   40CHL1  H24B 4130   3.009   6.482   4.668 -0.0778 -0.7213 -1.1725
   40CHL1   C25 4131   3.214   6.462   4.616  0.0456  0.0542 -0.0543
   40CHL1   H25 4132   3.298   6.393   4.642 -0.8667 -0.8404  0.5749
   40CHL1   C26 4133   3.195   6.473   4.459  0.7500 -0.1461 -0.5082
   40CHL1  H26A 4134   3.153   6.373   4.435  1.7222 -0.0983 -2.5690
   40CHL1  H26B 4135   3.128   6.560   4.444  0.7532 -0.2964 -1.4679
   40CHL1  H26C 4136   3.294   6.474   4.409  1.2850  1.0892  0.5010
   40CHL1   C27 4137   3.262   6.603   4.663  0.1936 -0.5415  0.4937
   40CHL1  H27A 4138   3.174   6.671   4.653 -1.8284 -2.7587  2.0001
   40CHL1  H27B 4139   3.306   6.603   4.765 -0.7857  1.5675  0.9810
   40CHL1  H27C 4140   3.344   6.640   4.598 -0.1123  2.1531  1.5146
   41CHL1    C3 4141   5.494   0.330   6.646  0.2814  0.1681  0.8918
   41CHL1    H3 4142   5.595   0.296   6.615 -0.1649 -0.0533 -0.3626
   41CHL1    O3 4143   5.477   0.290   6.782 -0.0343  0.1077  0.4844
   41CHL1   H3' 4144   5.384   0.301   6.802 -0.2001  2.8169 -1.2605
   41CHL1    C4 4145   5.501   0.487   6.631  0.8407  1.0183 -0.1777
   41CHL1   H4A 4146   5.412   0.539   6.675  1.1128  0.6787  0.7998
   41CHL1   H4B 4147   5.585   0.519   6.695 -0.3401 -2.6415  3.6526
   41CHL1    C5 4148   5.523   0.519   6.483 -0.4012  0.3051 -0.1229
   41CHL1    C6 4149   5.630   0.591   6.438 -0.4174 -0.2669  0.3241
   41CHL1    H6 4150   5.712   0.631   6.498  0.0600 -1.6611  0.6365
   41CHL1    C7 4151   5.633   0.632   6.295  0.7064  1.0831  0.1237
   41CHL1   H7A 4152   5.659   0.739   6.288 -0.4524  1.3548 -0.1382
   41CHL1   H7B 4153   5.711   0.573   6.242  0.0330  0.3872 -0.1130
   41CHL1    C8 4154   5.503   0.611   6.220 -0.1532 -0.2233 -0.6686
   41CHL1    H8 4155   5.434   0.698   6.231 -0.7535 -0.6253 -1.1707
   41CHL1   C14 4156   5.528   0.617   6.069 -0.0838 -0.2815  0.3985
   41CHL1   H14 4157   5.581   0.522   6.046 -0.2330 -0.5239  1.0461
   41CHL1   C15 4158   5.615   0.735   6.029 -0.0588  0.2160  0.8277
   41CHL1  H15A 4159   5.585   0.826   6.084  1.0860  1.7716 -0.9791
   41CHL1  H15B 4160   5.722   0.712   6.052 -0.0154 -0.4503  0.0109
   41CHL1   C16 4161   5.583   0.752   5.880 -0.5349  0.1017 -0.4338
   41CHL1  H16A 4162   5.552   0.858   5.864 -0.3210  0.2646  0.2242
   41CHL1  H16B 4163   5.679   0.741   5.824 -0.7893 -1.0020 -0.6660
   41CHL1   C17 4164   5.469   0.651   5.844  0.4462  0.0228 -0.1410
   41CHL1   H17 4165   5.515   0.558   5.804  0.3686 -0.2054  0.2906
   41CHL1   C13 4166   5.400   0.627   5.980 -0.0153 -0.0411  0.2270
   41CHL1   C18 4167   5.314   0.747   6.013  0.0328 -0.4988 -0.3584
   41CHL1  H18A 4168   5.379   0.836   6.024 -0.8369  0.1657 -0.4983
   41CHL1  H18B 4169   5.232   0.774   5.944  0.4507  3.6529  0.4878
   41CHL1  H18C 4170   5.263   0.729   6.110 -0.2020  1.3665 -0.0923
   41CHL1   C12 4171   5.326   0.498   6.005  0.0081 -0.0444 -0.5113
   41CHL1  H12A 4172   5.230   0.478   5.953 -0.3870 -1.9564  0.8767
   41CHL1  H12B 4173   5.392   0.423   5.957  1.4777  0.6227  0.3732
   41CHL1   C11 4174   5.304   0.462   6.160 -0.0274  0.3811  0.0072
   41CHL1  H11A 4175   5.211   0.520   6.182 -0.5801 -0.3593 -0.3234
   41CHL1  H11B 4176   5.280   0.353   6.159  1.7080 -0.0295  0.1105
   41CHL1    C9 4177   5.428   0.479   6.250 -0.6988  0.3326 -0.1536
   41CHL1    H9 4178   5.499   0.401   6.215 -0.8447  1.1740 -2.4979
   41CHL1   C10 4179   5.404   0.467   6.399 -0.6517  0.3900 -0.0755
   41CHL1   C19 4180   5.273   0.550   6.430 -0.2233 -0.2504  0.1650
   41CHL1  H19A 4181   5.290   0.649   6.384  0.3081 -0.2443  0.3641
   41CHL1  H19B 4182   5.185   0.500   6.384 -0.5137  1.5059 -1.2920
   41CHL1  H19C 4183   5.263   0.578   6.537  1.8393  3.0361 -0.3769
   41CHL1    C1 4184   5.390   0.314   6.419  0.2818 -0.3929  0.0760
   41CHL1   H1A 4185   5.307   0.268   6.361  0.3260 -0.4436  0.0531
   41CHL1   H1B 4186   5.483   0.266   6.383  0.6679  0.1087  0.3942
   41CHL1    C2 4187   5.378   0.269   6.564  0.6140  0.4794 -0.7184
   41CHL1   H2A 4188   5.389   0.160   6.585  2.1625  1.1460  2.4650
   41CHL1   H2B 4189   5.280   0.306   6.601  1.0577  1.5933 -0.6291
   41CHL1   C20 4190   5.388   0.696   5.723 -0.7858  0.3914  0.5192
   41CHL1   H20 4191   5.339   0.793   5.745 -2.1476  0.1041 -1.0269
   41CHL1   C21 4192   5.280   0.584   5.689 -0.0743 -0.0305 -0.2924
   41CHL1  H21A 4193   5.244   0.599   5.586 -1.1776 -0.6166 -0.0040
   41CHL1  H21B 4194   5.190   0.581   5.755 -0.9323  0.8933 -1.3984
   41CHL1  H21C 4195   5.340   0.490   5.696  0.3728  0.2857  0.2323
   41CHL1   C22 4196   5.473   0.745   5.595  0.4551  0.0986  0.1195
   41CHL1  H22A 4197   5.553   0.810   5.634 -1.2651  1.4623  1.5552
   41CHL1  H22B 4198   5.520   0.649   5.563 -0.0054 -0.6331  1.5589
   41CHL1   C23 4199   5.397   0.804   5.477  0.4405 -0.4783  0.6874
   41CHL1  H23A 4200   5.338   0.719   5.439  1.9854 -0.6945 -1.3645
   41CHL1  H23B 4201   5.334   0.885   5.521 -1.1870 -0.5336 -1.4154
   41CHL1   C24 4202   5.501   0.851   5.380  0.3986 -1.2840 -0.5723
   41CHL1  H24A 4203   5.549   0.934   5.437 -0.1493 -1.2331 -0.1791
   41CHL1  H24B 4204   5.579   0.774   5.360  0.3605 -1.8901  1.3387
   41CHL1   C25 4205   5.446   0.907   5.249  0.2262 -0.0487 -0.0143
   41CHL1   H25 4206   5.374   0.987   5.276  0.4506  0.5583 -1.1495
   41CHL1   C26 4207   5.554   0.992   5.183 -0.6178 -0.4189  0.7629
   41CHL1  H26A 4208   5.653   0.941   5.180 -1.1069 -1.4841  1.9841
   41CHL1  H26B 4209   5.527   1.032   5.082  0.6767  0.8192  0.8765
   41CHL1  H26C 4210   5.564   1.083   5.245 -0.3915  1.1705 -1.4726
   41CHL1   C27 4211   5.385   0.810   5.155  1.2094  0.1696  0.7267
   41CHL1  H27A 4212   5.301   0.762   5.211 -2.1731  3.5060 -1.0316
   41CHL1  H27B 4213   5.345   0.851   5.060  2.3071 -1.2831 -0.4066
   41CHL1  H27C 4214   5.458   0.734   5.122  1.2908  0.3582  0.4781
   42CHL1    C3 4215   1.286   1.582   5.644 -0.8003  0.2539  0.0461
   42CHL1    H3 4216   1.183   1.560   5.610 -1.3563  0.2531  1.6778
   42CHL1    O3 4217   1.279   1.556   5.782 -0.2125 -0.1785  0.1914
   42CHL1   H3' 4218   1.351   1.608   5.820  0.4426 -0.3626 -0.7609
   42CHL1    C4 4219   1.395   1.488   5.576 -0.1646 -0.1209  0.0177
   42CHL1   H4A 4220   1.486   1.506   5.638 -0.1631  0.5320 -0.1707
   42CHL1   H4B 4221   1.370   1.380   5.585 -2.5216 -0.0698 -3.8577
   42CHL1    C5 4222   1.423   1.540   5.429  0.3856 -0.5049 -0.3411
   42CHL1    C6 4223   1.406   1.453   5.334  0.7548  0.3392  1.1824
   42CHL1    H6 4224   1.394   1.344   5.347  1.5434 -0.1931 -1.8317
   42CHL1    C7 4225   1.412   1.489   5.187 -0.4206 -0.1676  0.1071
   42CHL1   H7A 4226   1.480   1.411   5.147 -1.4237 -1.8121  1.4408
   42CHL1   H7B 4227   1.311   1.473   5.141  0.6102 -1.4876 -1.8645
   42CHL1    C8 4228   1.479   1.623   5.165 -0.2656  0.2096  0.7542
   42CHL1    H8 4229   1.587   1.622   5.191 -0.0872  0.2032  0.0168
   42CHL1   C14 4230   1.453   1.675   5.022 -0.3550  0.0571  0.4363
   42CHL1   H14 4231   1.343   1.689   5.013 -0.6866 -0.8541  2.4157
   42CHL1   C15 4232   1.488   1.579   4.897 -0.1164 -0.8655 -0.0554
   42CHL1  H15A 4233   1.578   1.516   4.915  0.2366 -0.1949  0.6062
   42CHL1  H15B 4234   1.405   1.507   4.882 -0.3968 -0.1125 -2.5777
   42CHL1   C16 4235   1.514   1.672   4.786  0.5799 -0.3377 -0.5048
   42CHL1  H16A 4236   1.619   1.643   4.768  0.8178  0.9474 -1.2966
   42CHL1  H16B 4237   1.454   1.665   4.693 -1.9168  4.9073  0.3081
   42CHL1   C17 4238   1.493   1.820   4.844 -0.6370  0.1489  0.0233
   42CHL1   H17 4239   1.384   1.843   4.848 -0.5384  0.5866  0.2757
   42CHL1   C13 4240   1.527   1.809   4.986  0.3106 -0.2034  0.7924
   42CHL1   C18 4241   1.682   1.803   5.007  0.5712  0.2669  0.2464
   42CHL1  H18A 4242   1.696   1.749   5.103 -2.6189 -4.5744 -1.6399
   42CHL1  H18B 4243   1.722   1.746   4.921 -3.3346 -0.9939 -0.9683
   42CHL1  H18C 4244   1.713   1.910   5.007 -2.2103  1.1763 -0.2309
   42CHL1   C12 4245   1.469   1.917   5.075 -0.1864 -1.0486 -0.6259
   42CHL1  H12A 4246   1.520   2.012   5.050  0.1351 -1.4899 -1.7194
   42CHL1  H12B 4247   1.363   1.936   5.046 -0.0652  0.7646 -0.0073
   42CHL1   C11 4248   1.486   1.876   5.227  0.2325 -0.0543  0.0107
   42CHL1  H11A 4249   1.596   1.881   5.239  0.2849  0.7527 -0.6798
   42CHL1  H11B 4250   1.433   1.956   5.283  0.5040  1.3145 -1.5925
   42CHL1    C9 4251   1.426   1.732   5.264 -0.3561 -0.4123 -0.3733
   42CHL1    H9 4252   1.318   1.741   5.240  0.0410  2.6378 -1.4653
   42CHL1   C10 4253   1.438   1.693   5.413 -0.1461 -0.2195 -0.1429
   42CHL1   C19 4254   1.577   1.746   5.460  0.1637  0.2894  0.9502
   42CHL1  H19A 4255   1.580   1.855   5.481  0.6030 -0.1675  3.6162
   42CHL1  H19B 4256   1.594   1.708   5.563  2.3275  0.1511  0.5994
   42CHL1  H19C 4257   1.661   1.713   5.395 -0.8331  0.9868 -0.7637
   42CHL1    C1 4258   1.335   1.779   5.490 -0.0067  0.4191  1.4732
   42CHL1   H1A 4259   1.354   1.886   5.466  1.5743 -0.5838 -2.6059
   42CHL1   H1B 4260   1.235   1.756   5.448  0.1860 -0.1052  1.2960
   42CHL1    C2 4261   1.325   1.730   5.640 -0.1111 -0.0007  0.0064
   42CHL1   H2A 4262   1.250   1.795   5.691 -1.0051 -0.8463 -0.2042
   42CHL1   H2B 4263   1.425   1.737   5.688 -0.2682 -0.8492  0.4707
   42CHL1   C20 4264   1.551   1.933   4.761 -0.0572 -0.6483 -0.1469
   42CHL1   H20 4265   1.592   2.011   4.828 -0.3197  0.1407 -0.8760
   42CHL1   C21 4266   1.441   2.011   4.683  0.5605  0.3063  0.0942
   42CHL1  H21A 4267   1.357   2.050   4.744  1.2731  0.8004  0.7696
   42CHL1  H21B 4268   1.395   1.945   4.606  0.7926 -1.6118  1.5302
   42CHL1  H21C 4269   1.486   2.095   4.625 -3.2034  1.5288 -1.3388
   42CHL1   C22 4270   1.664   1.888   4.655  0.2732 -0.2998  0.0481
   42CHL1  H22A 4271   1.745   1.830   4.704  0.4943 -2.0320 -2.2072
   42CHL1  H22B 4272   1.612   1.814   4.591 -2.2884 -1.1151  2.8143
   42CHL1   C23 4273   1.724   1.995   4.572 -0.2023 -0.2569  0.1636
   42CHL1  H23A 4274   1.812   1.962   4.513 -1.5466 -1.9250 -1.0152
   42CHL1  H23B 4275   1.646   2.026   4.499  0.1268  0.1562 -0.0158
   42CHL1   C24 4276   1.770   2.124   4.649 -0.0846 -0.2694  0.1678
   42CHL1  H24A 4277   1.681   2.161   4.704 -2.2883 -2.1585 -1.8608
   42CHL1  H24B 4278   1.848   2.104   4.725 -0.0273 -0.5569  0.0374
   42CHL1   C25 4279   1.828   2.227   4.555  0.0420 -0.0279  0.8747
   42CHL1   H25 4280   1.889   2.180   4.475  3.1278  1.9217  1.8939
   42CHL1   C26 4281   1.724   2.308   4.488  0.4139 -0.5514 -0.1485
   42CHL1  H26A 4282   1.777   2.384   4.426 -0.0791  0.6358  0.8343
   42CHL1  H26B 4283   1.661   2.251   4.416 -0.7914  0.9812 -0.3678
   42CHL1  H26C 4284   1.654   2.362   4.556  1.9881  0.2582  0.8671
   42CHL1   C27 4285   1.929   2.316   4.625 -0.3836 -0.4928 -0.6147
   42CHL1  H27A 4286   1.880   2.391   4.691  1.4623  1.9072 -1.7759
   42CHL1  H27B 4287   1.990   2.250   4.689 -1.3779  0.7660  1.7579
   42CHL1  H27C 4288   1.984   2.379   4.550 -0.0130 -0.8341 -0.6331
   43CHL1    C3 4289   5.827   5.142   6.224  0.2454 -0.4913 -0.2526
   43CHL1    H3 4290   5.900   5.220   6.193 -0.2585  0.8136  1.7258
   43CHL1    O3 4291   5.801   5.166   6.358 -0.3736  0.0442 -0.4273
   43CHL1   H3' 4292   5.723   5.120   6.391  1.5212 -3.0710  0.1588
   43CHL1    C4 4293   5.694   5.157   6.149 -0.0334  0.5463  0.3823
   43CHL1   H4A 4294   5.625   5.084   6.196  0.0571 -0.2340 -0.6804
   43CHL1   H4B 4295   5.659   5.259   6.175  0.0394  0.2782  1.6293
   43CHL1    C5 4296   5.706   5.131   5.999 -0.2621  0.8801  0.7446
   43CHL1    C6 4297   5.655   5.218   5.916 -0.2608  0.1510  0.2726
   43CHL1    H6 4298   5.604   5.311   5.944 -0.5924  0.2126 -0.5049
   43CHL1    C7 4299   5.663   5.205   5.764 -0.5122  0.2196  0.4563
   43CHL1   H7A 4300   5.561   5.207   5.720  0.4273  0.6492 -1.7785
   43CHL1   H7B 4301   5.712   5.291   5.714 -2.1241  0.2541 -1.1762
   43CHL1    C8 4302   5.730   5.071   5.718 -0.3304  0.2079  0.4686
   43CHL1    H8 4303   5.648   4.996   5.709 -0.2342  0.1656 -0.1390
   43CHL1   C14 4304   5.784   5.077   5.580 -0.5452 -0.3118  0.5027
   43CHL1   H14 4305   5.866   5.152   5.583 -0.1093 -0.5541 -2.4057
   43CHL1   C15 4306   5.684   5.129   5.475  0.1752 -1.0124  0.5835
   43CHL1  H15A 4307   5.583   5.090   5.500  0.2079 -1.6257 -0.1991
   43CHL1  H15B 4308   5.687   5.240   5.467  0.9259 -1.0359  0.4713
   43CHL1   C16 4309   5.736   5.089   5.338  0.2255 -0.0108 -0.7144
   43CHL1  H16A 4310   5.655   5.031   5.287 -0.1586  0.8784 -1.1391
   43CHL1  H16B 4311   5.768   5.175   5.275  3.6387  0.7692  1.7759
   43CHL1   C17 4312   5.861   5.000   5.369  0.2020  0.2447 -0.1790
   43CHL1   H17 4313   5.949   5.068   5.371  1.5570 -1.4288  0.2135
   43CHL1   C13 4314   5.841   4.949   5.515  0.3905  0.4215 -0.1461
   43CHL1   C18 4315   5.730   4.842   5.507  0.5938 -0.7841  0.0931
   43CHL1  H18A 4316   5.766   4.756   5.446  0.1516 -0.8391 -0.0944
   43CHL1  H18B 4317   5.703   4.809   5.610  1.5841  0.6158  0.8233
   43CHL1  H18C 4318   5.635   4.883   5.469 -0.2436 -2.7869 -0.1145
   43CHL1   C12 4319   5.965   4.908   5.595  0.5997  0.0240  0.0051
   43CHL1  H12A 4320   6.007   4.811   5.562 -0.1314  0.0253 -0.9675
   43CHL1  H12B 4321   6.049   4.980   5.587  1.0345 -0.5242 -0.4066
   43CHL1   C11 4322   5.926   4.900   5.747 -0.0288  0.0524 -0.7698
   43CHL1  H11A 4323   5.866   4.808   5.764  1.5025 -0.9418 -0.5743
   43CHL1  H11B 4324   6.015   4.882   5.810 -1.6100  0.7853  1.8058
   43CHL1    C9 4325   5.845   5.021   5.809 -0.1094  0.3265 -0.0137
   43CHL1    H9 4326   5.923   5.099   5.806  0.6550 -0.4529 -1.1936
   43CHL1   C10 4327   5.793   5.005   5.954  0.9850  0.0133  0.1466
   43CHL1   C19 4328   5.698   4.881   5.959 -0.3642  0.1514 -0.9056
   43CHL1  H19A 4329   5.633   4.878   6.049  1.0979 -4.1106  0.2595
   43CHL1  H19B 4330   5.640   4.862   5.866 -1.1183 -2.8253  0.0462
   43CHL1  H19C 4331   5.752   4.787   5.982  0.5194  0.9675  0.4866
   43CHL1    C1 4332   5.921   4.990   6.038  0.3943 -0.6520 -0.0054
   43CHL1   H1A 4333   5.968   4.890   6.029  2.5774  0.4133 -1.5845
   43CHL1   H1B 4334   5.995   5.065   6.003  0.3837 -0.9985 -0.7928
   43CHL1    C2 4335   5.895   5.011   6.191 -0.0761 -0.0922  0.8385
   43CHL1   H2A 4336   5.994   4.999   6.241  1.6135 -3.3209 -2.7573
   43CHL1   H2B 4337   5.825   4.933   6.226 -0.3579 -0.0145  0.4473
   43CHL1   C20 4338   5.904   4.894   5.253 -0.2283  0.4752 -0.0702
   43CHL1   H20 4339   5.945   4.806   5.307 -3.2282 -0.6382  0.5586
   43CHL1   C21 4340   6.011   4.962   5.174  0.6027 -0.6730  0.6469
   43CHL1  H21A 4341   6.103   5.002   5.222  0.5024  1.9358 -1.1226
   43CHL1  H21B 4342   5.958   5.040   5.114  1.3495  0.0652  0.9209
   43CHL1  H21C 4343   6.049   4.892   5.096  1.1074 -0.7002  0.9157
   43CHL1   C22 4344   5.792   4.841   5.172 -0.4001  0.4566  0.1962
   43CHL1  H22A 4345   5.706   4.813   5.236  0.3776  0.5890  1.3257
   43CHL1  H22B 4346   5.759   4.919   5.099  0.1118 -2.7963 -3.8819
   43CHL1   C23 4347   5.823   4.719   5.085  0.0295 -0.4046  0.8551
   43CHL1  H23A 4348   5.731   4.684   5.034  1.4021 -1.4660 -1.0633
   43CHL1  H23B 4349   5.889   4.765   5.008  1.1825  0.1511  2.1336
   43CHL1   C24 4350   5.894   4.609   5.159 -0.2874 -0.0249 -0.6121
   43CHL1  H24A 4351   6.001   4.639   5.164 -0.6548  1.0727  1.1201
   43CHL1  H24B 4352   5.866   4.580   5.262  0.7283 -2.0507 -0.8372
   43CHL1   C25 4353   5.906   4.475   5.085  0.1795  0.5311 -0.6130
   43CHL1   H25 4354   5.971   4.415   5.152 -0.8659  1.3463  1.2093
   43CHL1   C26 4355   5.767   4.394   5.084 -0.2378 -0.0399 -0.1326
   43CHL1  H26A 4356   5.699   4.450   5.153 -0.7350 -0.7129 -0.0649
   43CHL1  H26B 4357   5.727   4.403   4.981  2.3640  0.9596 -1.1462
   43CHL1  H26C 4358   5.788   4.290   5.116  3.9034  0.3523 -0.9759
   43CHL1   C27 4359   5.977   4.479   4.944  0.0355  0.3485 -0.4649
   43CHL1  H27A 4360   5.917   4.558   4.893  0.3699  2.6349  2.3757
   43CHL1  H27B 4361   6.081   4.517   4.952 -0.6718  2.3483 -0.1446
   43CHL1  H27C 4362   5.977   4.379   4.896  0.0645 -0.0201  0.2873
   44CHL1    C3 4363   5.993   0.251   6.618  0.4341 -0.0744  0.3455
   44CHL1    H3 4364   5.966   0.358   6.622  0.3267 -0.1381  2.8710
   44CHL1    O3 4365   5.977   0.193   6.746 -0.2749 -0.3775  0.7071
   44CHL1   H3' 4366   6.008   0.104   6.727 -1.0353 -0.1877 -1.7710
   44CHL1    C4 4367   5.911   0.167   6.514 -0.3071  0.1438  0.1460
   44CHL1   H4A 4368   5.939   0.060   6.507  1.7707  0.2934  3.8640
   44CHL1   H4B 4369   5.807   0.171   6.553 -0.2384  0.9341  0.2637
   44CHL1    C5 4370   5.929   0.225   6.377 -0.1080  0.6216 -0.4746
   44CHL1    C6 4371   5.824   0.287   6.314 -0.2321  0.3145  0.2549
   44CHL1    H6 4372   5.723   0.294   6.356 -1.3538  3.3955 -2.5245
   44CHL1    C7 4373   5.845   0.340   6.173 -0.2193  0.0232 -0.1932
   44CHL1   H7A 4374   5.759   0.316   6.107 -0.3044  1.0230 -0.4626
   44CHL1   H7B 4375   5.846   0.451   6.171 -1.6325  0.1280  1.6143
   44CHL1    C8 4376   5.970   0.287   6.105 -0.2587  0.8394 -0.1695
   44CHL1    H8 4377   5.963   0.180   6.077 -1.0665  1.0338 -0.7359
   44CHL1   C14 4378   5.996   0.350   5.967 -0.4752 -0.5945 -1.0090
   44CHL1   H14 4379   6.008   0.456   5.998  1.9187 -1.3321  1.0304
   44CHL1   C15 4380   5.884   0.341   5.862 -1.0551  0.2443 -0.3116
   44CHL1  H15A 4381   5.830   0.244   5.866  0.3009 -0.8406 -4.1326
   44CHL1  H15B 4382   5.803   0.417   5.859 -1.6531 -0.4216 -1.9626
   44CHL1   C16 4383   5.962   0.363   5.732 -0.8357 -0.1957  0.0193
   44CHL1  H16A 4384   5.956   0.271   5.670  0.6108 -1.0590  1.1196
   44CHL1  H16B 4385   5.911   0.445   5.677 -2.9070  0.0857  2.1885
   44CHL1   C17 4386   6.110   0.395   5.768 -0.4792  0.2318  0.0537
   44CHL1   H17 4387   6.114   0.500   5.805 -1.7431  0.4617 -0.4004
   44CHL1   C13 4388   6.126   0.315   5.897 -0.0256 -0.2051  0.2339
   44CHL1   C18 4389   6.126   0.164   5.862  0.2282  0.2931 -0.0851
   44CHL1  H18A 4390   6.122   0.105   5.956  0.4256  0.7443  0.2101
   44CHL1  H18B 4391   6.043   0.132   5.795 -0.4974 -1.3505  1.4730
   44CHL1  H18C 4392   6.226   0.138   5.824 -0.5709 -1.8218 -0.8932
   44CHL1   C12 4393   6.237   0.351   5.995 -0.3512  0.4248  0.0899
   44CHL1  H12A 4394   6.335   0.325   5.949  0.5695  2.0473  1.0185
   44CHL1  H12B 4395   6.245   0.462   6.005 -0.6253  0.2991  1.9421
   44CHL1   C11 4396   6.229   0.285   6.128 -0.1146 -0.2307  0.5587
   44CHL1  H11A 4397   6.250   0.177   6.110  0.2822  0.3664 -3.3563
   44CHL1  H11B 4398   6.305   0.327   6.198 -0.9497 -0.1016  1.4169
   44CHL1    C9 4399   6.089   0.300   6.197 -0.0706  0.4664 -0.3355
   44CHL1    H9 4400   6.099   0.407   6.225 -0.5933  0.7853 -1.3551
   44CHL1   C10 4401   6.077   0.220   6.329 -0.3272 -0.3157  0.0249
   44CHL1   C19 4402   6.133   0.076   6.309 -0.1366 -0.0035 -0.5645
   44CHL1  H19A 4403   6.114   0.010   6.396  1.2087 -1.5540 -1.4104
   44CHL1  H19B 4404   6.089   0.029   6.219  1.1153 -0.8954 -0.7271
   44CHL1  H19C 4405   6.243   0.068   6.301  0.0694  1.2568  0.5536
   44CHL1    C1 4406   6.159   0.288   6.439  0.2221 -0.2944  0.0347
   44CHL1   H1A 4407   6.266   0.276   6.411  0.2784 -2.4391  0.9839
   44CHL1   H1B 4408   6.142   0.397   6.434  3.5235  0.2937 -0.7062
   44CHL1    C2 4409   6.139   0.238   6.576 -0.0953  0.4261 -0.1222
   44CHL1   H2A 4410   6.198   0.305   6.643 -0.0450  1.4323 -1.1431
   44CHL1   H2B 4411   6.170   0.132   6.588 -3.1266 -0.7212 -1.4754
   44CHL1   C20 4412   6.211   0.378   5.656 -0.3065  0.0366 -1.1558
   44CHL1   H20 4413   6.228   0.270   5.635 -0.3509 -0.5102  1.3621
   44CHL1   C21 4414   6.346   0.448   5.689 -0.0727 -0.8481 -0.7508
   44CHL1  H21A 4415   6.328   0.550   5.730  1.3530 -0.3368 -1.3487
   44CHL1  H21B 4416   6.416   0.447   5.604  0.6883  0.1797 -0.1626
   44CHL1  H21C 4417   6.407   0.396   5.766  0.3057  0.7078  0.0639
   44CHL1   C22 4418   6.150   0.437   5.530 -0.8140  0.2550  0.0246
   44CHL1  H22A 4419   6.059   0.380   5.502  0.8814 -2.4585 -0.2625
   44CHL1  H22B 4420   6.118   0.543   5.541 -2.0942 -0.0555 -0.4503
   44CHL1   C23 4421   6.239   0.421   5.403 -0.3902  0.7230 -0.0564
   44CHL1  H23A 4422   6.323   0.494   5.398  0.3058 -0.0666 -0.1185
   44CHL1  H23B 4423   6.289   0.323   5.409  2.7607  2.1372 -1.0116
   44CHL1   C24 4424   6.164   0.432   5.267  0.2490 -0.5053  0.4411
   44CHL1  H24A 4425   6.084   0.355   5.263  0.7126 -0.9450 -0.7924
   44CHL1  H24B 4426   6.114   0.531   5.260 -0.3705 -0.8599 -0.3137
   44CHL1   C25 4427   6.238   0.413   5.127  0.3593 -0.0263 -0.7599
   44CHL1   H25 4428   6.319   0.488   5.122  0.1490  0.3605  1.0425
   44CHL1   C26 4429   6.294   0.267   5.122  0.0309 -0.1571  0.0148
   44CHL1  H26A 4430   6.346   0.235   5.215 -1.5843 -2.0774  0.3135
   44CHL1  H26B 4431   6.222   0.184   5.111  0.8761 -0.8560 -0.3331
   44CHL1  H26C 4432   6.357   0.254   5.031 -3.0067 -1.0201 -2.1067
   44CHL1   C27 4433   6.141   0.445   5.009 -0.3860  0.2879  0.0944
   44CHL1  H27A 4434   6.054   0.378   5.021 -0.7831  0.7291 -0.2774
   44CHL1  H27B 4435   6.100   0.548   5.010  1.5408  1.2128 -2.5567
   44CHL1  H27C 4436   6.188   0.427   4.910  2.1672 -0.7124  1.3956
   45CHL1    C3 4437   6.435   0.019   6.600 -0.2720  0.4631 -0.1964
   45CHL1    H3 4438   6.333   0.047   6.565 -1.3903  0.6350  2.8250
   45CHL1    O3 4439   6.437   0.019   6.742 -0.3021  0.2260 -0.1382
   45CHL1   H3' 4440   6.476   0.106   6.754 -2.0233  1.5704 -3.0875
   45CHL1    C4 4441   6.464  -0.125   6.556 -0.1044  0.1893  0.0656
   45CHL1   H4A 4442   6.561  -0.153   6.601 -1.1118 -1.2482  1.4694
   45CHL1   H4B 4443   6.383  -0.184   6.604  0.0231  0.7204  0.9442
   45CHL1    C5 4444   6.475  -0.142   6.401 -0.1985  0.3500 -0.3122
   45CHL1    C6 4445   6.395  -0.233   6.342 -0.8552  0.2441  0.0011
   45CHL1    H6 4446   6.331  -0.297   6.405  0.0413 -0.6812  0.0106
   45CHL1    C7 4447   6.377  -0.241   6.192 -0.9966 -0.5600  0.0451
   45CHL1   H7A 4448   6.368  -0.349   6.167 -0.9318 -0.1960 -1.6854
   45CHL1   H7B 4449   6.290  -0.182   6.156 -0.1522  1.3728  1.0270
   45CHL1    C8 4450   6.509  -0.184   6.114 -0.6146  0.8056 -0.2363
   45CHL1    H8 4451   6.598  -0.244   6.141  2.1925  4.5725 -0.2181
   45CHL1   C14 4452   6.485  -0.171   5.965  0.3503  0.0902  0.3013
   45CHL1   H14 4453   6.401  -0.099   5.955  2.4352  2.7675  0.8951
   45CHL1   C15 4454   6.449  -0.290   5.876  0.5965  1.0561  0.0228
   45CHL1  H15A 4455   6.515  -0.369   5.919  2.4485  2.2005 -0.6009
   45CHL1  H15B 4456   6.342  -0.319   5.877  1.1223 -1.1322  0.1313
   45CHL1   C16 4457   6.465  -0.247   5.734 -0.4763 -0.1373  0.1850
   45CHL1  H16A 4458   6.507  -0.333   5.678 -0.0680 -0.4953  1.0216
   45CHL1  H16B 4459   6.363  -0.222   5.697 -1.6384 -1.6911  2.1670
   45CHL1   C17 4460   6.555  -0.121   5.737  0.2506  0.1520  0.5072
   45CHL1   H17 4461   6.481  -0.038   5.728  0.3795  0.2343  0.1820
   45CHL1   C13 4462   6.601  -0.106   5.885 -0.3442 -0.0407  0.4225
   45CHL1   C18 4463   6.728  -0.201   5.896 -0.0604  0.4350 -0.5703
   45CHL1  H18A 4464   6.766  -0.220   5.999 -1.0541 -1.3236 -0.4913
   45CHL1  H18B 4465   6.721  -0.296   5.840 -0.0923 -0.6517  1.2061
   45CHL1  H18C 4466   6.810  -0.144   5.847  1.3989 -1.2724 -0.2375
   45CHL1   C12 4467   6.632   0.032   5.941 -0.2580 -0.8874 -0.1972
   45CHL1  H12A 4468   6.714   0.077   5.881 -0.6809 -0.5234 -0.5142
   45CHL1  H12B 4469   6.539   0.093   5.947 -0.3901 -1.1570  0.5841
   45CHL1   C11 4470   6.666   0.016   6.089  1.1367 -0.4692  0.2849
   45CHL1  H11A 4471   6.758  -0.045   6.102  1.1692 -0.5494 -0.2691
   45CHL1  H11B 4472   6.687   0.120   6.120  0.0776 -0.0711 -0.2840
   45CHL1    C9 4473   6.549  -0.048   6.170  0.1221  0.1956  0.0100
   45CHL1    H9 4474   6.464   0.021   6.150 -0.5126 -1.0214 -1.7742
   45CHL1   C10 4475   6.567  -0.038   6.326  0.6516  0.5349 -0.2816
   45CHL1   C19 4476   6.705  -0.096   6.360  0.2591 -0.2796  0.0157
   45CHL1  H19A 4477   6.721  -0.080   6.469 -3.8521 -0.5157  0.7840
   45CHL1  H19B 4478   6.720  -0.205   6.341 -0.6661 -0.2609 -0.9105
   45CHL1  H19C 4479   6.785  -0.035   6.314  2.0555 -2.5262 -0.0635
   45CHL1    C1 4480   6.536   0.104   6.388 -0.3808  0.0750 -0.2299
   45CHL1   H1A 4481   6.606   0.181   6.348 -0.4794 -0.7064 -2.0163
   45CHL1   H1B 4482   6.451   0.150   6.334  1.1431  1.4038 -1.6452
   45CHL1    C2 4483   6.529   0.118   6.539 -0.1025 -0.0289  0.9640
   45CHL1   H2A 4484   6.505   0.224   6.563 -1.0251 -0.1879  0.7649
   45CHL1   H2B 4485   6.634   0.106   6.573  0.3094 -0.2539 -0.3259
   45CHL1   C20 4486   6.654  -0.102   5.621  0.6020  0.1337  0.4847
   45CHL1   H20 4487   6.756  -0.073   5.654  1.0998  0.3439 -1.1074
   45CHL1   C21 4488   6.615   0.012   5.526  0.6455 -0.6144 -0.3121
   45CHL1  H21A 4489   6.508  -0.009   5.510 -0.1889  1.1913  2.1835
   45CHL1  H21B 4490   6.681   0.020   5.437  2.1758  0.7128  0.8565
   45CHL1  H21C 4491   6.629   0.110   5.577  1.7530 -2.2073  2.7394
   45CHL1   C22 4492   6.672  -0.228   5.532 -0.3132 -0.2065  0.4769
   45CHL1  H22A 4493   6.705  -0.317   5.590  2.4264  2.2350  2.9510
   45CHL1  H22B 4494   6.577  -0.249   5.478 -1.2534  2.0468  1.1099
   45CHL1   C23 4495   6.783  -0.221   5.426 -0.4708  0.6879 -0.4018
   45CHL1  H23A 4496   6.853  -0.136   5.442  0.3849  0.4129 -2.3140
   45CHL1  H23B 4497   6.837  -0.318   5.416 -0.2114  0.7668  0.2098
   45CHL1   C24 4498   6.735  -0.211   5.276 -0.5323 -0.0321 -0.4902
   45CHL1  H24A 4499   6.711  -0.317   5.252 -2.7166  0.5239 -1.0041
   45CHL1  H24B 4500   6.644  -0.149   5.290 -0.6553 -0.4422  0.6781
   45CHL1   C25 4501   6.835  -0.153   5.178  0.2558  0.1459 -0.6791
   45CHL1   H25 4502   6.786  -0.163   5.079 -1.2670 -0.2123  0.0766
   45CHL1   C26 4503   6.849  -0.000   5.204  0.2094  0.2307 -0.0455
   45CHL1  H26A 4504   6.935   0.038   5.145 -0.7853  1.8597 -0.4979
   45CHL1  H26B 4505   6.755   0.048   5.171 -0.5154 -1.5627 -0.7308
   45CHL1  H26C 4506   6.867   0.027   5.310 -0.6005  0.0951  0.1347
   45CHL1   C27 4507   6.972  -0.225   5.175 -0.4289 -0.1944 -0.4603
   45CHL1  H27A 4508   7.033  -0.189   5.089 -1.3011  3.2665  0.2198
   45CHL1  H27B 4509   7.022  -0.211   5.273  0.7821 -0.0786 -1.0732
   45CHL1  H27C 4510   6.966  -0.336   5.180 -2.0131 -0.1057  0.0811
   46CHL1    C3 4511   1.508   0.221   6.073 -1.4271 -0.0019  0.8096
   46CHL1    H3 4512   1.592   0.292   6.080 -1.0061 -0.4981  0.8445
   46CHL1    O3 4513   1.480   0.176   6.200 -0.3508  0.1994 -0.1268
   46CHL1   H3' 4514   1.414   0.107   6.192  0.6751 -0.9166  0.8371
   46CHL1    C4 4515   1.389   0.285   6.000  0.4510 -0.0253  0.6938
   46CHL1   H4A 4516   1.299   0.223   6.022 -0.9890  2.3885  2.1543
   46CHL1   H4B 4517   1.364   0.381   6.051  1.9056  2.1610 -2.3877
   46CHL1    C5 4518   1.404   0.307   5.851 -0.4973 -0.0268 -0.7206
   46CHL1    C6 4519   1.369   0.422   5.796  0.0409 -0.2832  0.0958
   46CHL1    H6 4520   1.336   0.505   5.860  1.7613 -0.2421  0.9937
   46CHL1    C7 4521   1.395   0.459   5.653 -0.0998 -0.1658  0.0219
   46CHL1   H7A 4522   1.308   0.514   5.609 -0.0448 -0.3398 -0.3092
   46CHL1   H7B 4523   1.484   0.524   5.644 -0.4821  0.1268 -2.2457
   46CHL1    C8 4524   1.430   0.337   5.557 -0.4704 -0.4358  0.0048
   46CHL1    H8 4525   1.329   0.293   5.543 -2.0285  2.6524  0.6512
   46CHL1   C14 4526   1.498   0.381   5.431 -0.4835  1.0167  0.4956
   46CHL1   H14 4527   1.596   0.426   5.459 -0.2490  1.1779 -0.5582
   46CHL1   C15 4528   1.426   0.486   5.350  1.1384 -0.4299  0.1226
   46CHL1  H15A 4529   1.317   0.461   5.352  0.3209  2.7282  0.3939
   46CHL1  H15B 4530   1.440   0.585   5.397 -0.3771 -0.2761  0.3064
   46CHL1   C16 4531   1.491   0.476   5.214 -0.1536  0.0090 -0.0999
   46CHL1  H16A 4532   1.421   0.461   5.129  1.8342  0.8695 -1.9795
   46CHL1  H16B 4533   1.542   0.575   5.210  1.1627 -0.6355  0.2030
   46CHL1   C17 4534   1.581   0.351   5.207 -0.0792  0.2675  0.1935
   46CHL1   H17 4535   1.679   0.396   5.231 -0.4434  1.5865 -0.6759
   46CHL1   C13 4536   1.531   0.271   5.332  0.5991  0.0422  0.7159
   46CHL1   C18 4537   1.408   0.192   5.284  0.0570 -0.2371  0.9487
   46CHL1  H18A 4538   1.365   0.131   5.367 -1.5526  0.4313  0.6225
   46CHL1  H18B 4539   1.334   0.264   5.245 -0.4450 -1.5938 -0.7571
   46CHL1  H18C 4540   1.436   0.119   5.205 -1.0232  0.2466  0.1047
   46CHL1   C12 4541   1.629   0.180   5.405  0.3197 -0.3286  0.5397
   46CHL1  H12A 4542   1.646   0.087   5.347  0.5186 -0.0669  0.1778
   46CHL1  H12B 4543   1.724   0.237   5.415 -1.4909  2.9046  0.9541
   46CHL1   C11 4544   1.565   0.126   5.532 -0.3420  0.2080  0.4400
   46CHL1  H11A 4545   1.480   0.058   5.508  0.8385 -1.0081 -0.4429
   46CHL1  H11B 4546   1.636   0.060   5.586 -0.0891 -0.9589 -1.2396
   46CHL1    C9 4547   1.516   0.237   5.628  0.1270  0.3022 -0.1696
   46CHL1    H9 4548   1.606   0.299   5.647 -1.7550  2.1988  3.8729
   46CHL1   C10 4549   1.473   0.191   5.773 -0.0189  0.1748 -0.4702
   46CHL1   C19 4550   1.361   0.080   5.759  0.2983  0.2435  0.3326
   46CHL1  H19A 4551   1.345   0.038   5.861 -1.3534  0.8047  0.3275
   46CHL1  H19B 4552   1.265   0.120   5.721  0.6754 -0.8051 -1.8995
   46CHL1  H19C 4553   1.396   0.005   5.685 -3.6420 -0.7859 -0.6887
   46CHL1    C1 4554   1.591   0.139   5.853 -0.1824 -0.1176  0.2242
   46CHL1   H1A 4555   1.638   0.058   5.793 -0.2855  0.8681 -1.2241
   46CHL1   H1B 4556   1.669   0.218   5.863 -0.0051 -0.3960  1.1641
   46CHL1    C2 4557   1.557   0.101   6.000  0.1412  0.0492 -0.1498
   46CHL1   H2A 4558   1.646   0.051   6.045  0.2736  0.4647  0.0546
   46CHL1   H2B 4559   1.490   0.012   5.998 -0.6717  0.6188  0.8400
   46CHL1   C20 4560   1.602   0.286   5.071  0.1877  0.6729  0.2779
   46CHL1   H20 4561   1.516   0.220   5.047  2.2410 -2.4766  0.8837
   46CHL1   C21 4562   1.728   0.200   5.077 -0.1393  0.3337 -0.6367
   46CHL1  H21A 4563   1.728   0.130   4.990 -2.9867 -0.3004 -0.2033
   46CHL1  H21B 4564   1.741   0.130   5.162  0.1377 -1.5098 -2.1130
   46CHL1  H21C 4565   1.823   0.258   5.078 -0.2355  0.5824 -2.4710
   46CHL1   C22 4566   1.606   0.385   4.952 -0.0672 -0.6209  0.2279
   46CHL1  H22A 4567   1.507   0.435   4.957  0.3541  0.1286  1.7832
   46CHL1  H22B 4568   1.683   0.463   4.973  1.0319 -0.5045 -3.4794
   46CHL1   C23 4569   1.627   0.311   4.818  0.1241  1.0009 -0.5053
   46CHL1  H23A 4570   1.723   0.257   4.829 -0.1032  0.8846  1.2152
   46CHL1  H23B 4571   1.539   0.243   4.814  0.3695  0.6042  0.5245
   46CHL1   C24 4572   1.623   0.400   4.695 -0.3556  0.7472 -0.4440
   46CHL1  H24A 4573   1.537   0.469   4.702  0.4289  1.7811 -0.6551
   46CHL1  H24B 4574   1.715   0.462   4.686 -1.3580  2.4264  0.3863
   46CHL1   C25 4575   1.614   0.334   4.558  0.2705  0.1775 -0.3442
   46CHL1   H25 4576   1.711   0.280   4.551 -1.2129 -2.6852 -0.5806
   46CHL1   C26 4577   1.513   0.209   4.552 -0.1575  0.0003  0.3843
   46CHL1  H26A 4578   1.410   0.246   4.572 -0.5454 -0.7925 -0.0731
   46CHL1  H26B 4579   1.512   0.159   4.453  2.7383 -0.4631  0.5128
   46CHL1  H26C 4580   1.538   0.131   4.627 -2.2184 -0.0327  1.1265
   46CHL1   C27 4581   1.617   0.440   4.440 -1.3872  0.2593 -0.4900
   46CHL1  H27A 4582   1.635   0.399   4.339  0.6946 -0.6701  0.2027
   46CHL1  H27B 4583   1.514   0.480   4.427 -1.9321 -1.8266 -3.6555
   46CHL1  H27C 4584   1.691   0.516   4.472  0.1249 -1.8678  1.4485
   47CHL1    C3 4585   3.602   1.667   6.347  0.4637  0.3918 -0.2775
   47CHL1    H3 4586   3.682   1.743   6.337  0.6313  0.0467 -1.8511
   47CHL1    O3 4587   3.614   1.602   6.471 -0.2496 -0.0732 -0.2731
   47CHL1   H3' 4588   3.539   1.542   6.471  0.7242 -1.3329 -0.2657
   47CHL1    C4 4589   3.466   1.735   6.333  0.7445 -0.4920  0.0165
   47CHL1   H4A 4590   3.389   1.656   6.340  1.1894 -0.8329  1.2796
   47CHL1   H4B 4591   3.442   1.806   6.415 -0.1569 -1.9809  1.0912
   47CHL1    C5 4592   3.463   1.803   6.193 -0.8455 -0.1904 -0.1217
   47CHL1    C6 4593   3.456   1.938   6.180  1.1391 -0.1425  0.0699
   47CHL1    H6 4594   3.446   2.006   6.265 -0.2847  0.8428 -0.8451
   47CHL1    C7 4595   3.448   2.014   6.050  0.1440  0.5933 -0.2548
   47CHL1   H7A 4596   3.369   2.092   6.040  0.8476  1.2932 -0.4969
   47CHL1   H7B 4597   3.544   2.067   6.032  0.9903 -0.6843  0.3420
   47CHL1    C8 4598   3.419   1.917   5.931 -0.0350  0.0950 -0.1724
   47CHL1    H8 4599   3.310   1.900   5.944 -0.0679  0.3866 -0.0578
   47CHL1   C14 4600   3.455   2.000   5.801  0.1447  0.3201  0.2896
   47CHL1   H14 4601   3.563   2.012   5.821  0.2776 -1.3111  0.6679
   47CHL1   C15 4602   3.399   2.144   5.784 -0.3228  0.0775 -0.3559
   47CHL1  H15A 4603   3.293   2.138   5.819 -0.4366 -0.6638 -0.8097
   47CHL1  H15B 4604   3.457   2.222   5.839 -1.5283  2.2217 -1.9624
   47CHL1   C16 4605   3.400   2.153   5.633 -0.5267 -0.4748 -0.1182
   47CHL1  H16A 4606   3.300   2.180   5.591 -1.4659 -2.5207  0.6777
   47CHL1  H16B 4607   3.463   2.239   5.602 -0.7594 -0.0941  0.4366
   47CHL1   C17 4608   3.455   2.023   5.563  0.2826 -0.6351 -0.1490
   47CHL1   H17 4609   3.566   2.025   5.561  0.3794  0.2996  2.3582
   47CHL1   C13 4610   3.423   1.917   5.671 -0.2576  0.0299 -0.1152
   47CHL1   C18 4611   3.278   1.875   5.651  0.0285 -0.2263  0.9532
   47CHL1  H18A 4612   3.196   1.950   5.645 -2.6611 -2.9828  0.6797
   47CHL1  H18B 4613   3.274   1.807   5.564  2.4377  2.0545 -1.1082
   47CHL1  H18C 4614   3.244   1.818   5.740 -1.6223 -3.1543 -1.3760
   47CHL1   C12 4615   3.503   1.783   5.684  0.2078 -0.3560  0.9233
   47CHL1  H12A 4616   3.486   1.720   5.595  1.4488 -0.1987  0.5624
   47CHL1  H12B 4617   3.610   1.813   5.672 -0.1719  0.2675 -1.3874
   47CHL1   C11 4618   3.471   1.701   5.809  0.3952 -0.6091  0.0195
   47CHL1  H11A 4619   3.364   1.674   5.797 -0.0634  0.2866  1.7694
   47CHL1  H11B 4620   3.535   1.610   5.819  1.2439  0.0362  0.6489
   47CHL1    C9 4621   3.495   1.785   5.938  0.2114 -0.9939 -0.4205
   47CHL1    H9 4622   3.602   1.818   5.937 -0.0107 -0.2668 -0.7879
   47CHL1   C10 4623   3.480   1.710   6.073 -0.3025  0.6437 -0.2045
   47CHL1   C19 4624   3.355   1.620   6.065  0.4037 -0.5820 -0.0864
   47CHL1  H19A 4625   3.275   1.688   6.028  1.1481 -0.4730 -1.5714
   47CHL1  H19B 4626   3.379   1.536   5.996  1.4903 -0.1409 -0.2496
   47CHL1  H19C 4627   3.323   1.583   6.165 -0.1958 -1.3228 -0.5378
   47CHL1    C1 4628   3.607   1.617   6.094  0.4690 -0.6755 -0.6465
   47CHL1   H1A 4629   3.621   1.540   6.015 -1.1094 -2.8555  1.0404
   47CHL1   H1B 4630   3.696   1.683   6.091 -0.3554  0.8518  2.9840
   47CHL1    C2 4631   3.617   1.557   6.238  0.1501 -0.7489 -0.4904
   47CHL1   H2A 4632   3.720   1.517   6.245  0.0965 -1.1268 -1.6174
   47CHL1   H2B 4633   3.546   1.472   6.244 -2.0584  0.9880 -0.5193
   47CHL1   C20 4634   3.406   2.015   5.413  0.7598 -0.7607 -0.5751
   47CHL1   H20 4635   3.295   2.014   5.409  0.6515  2.2145 -0.8455
   47CHL1   C21 4636   3.458   1.895   5.347 -0.6869 -0.2928  0.4612
   47CHL1  H21A 4637   3.567   1.907   5.328 -0.9063 -1.9487 -2.3078
   47CHL1  H21B 4638   3.420   1.885   5.244 -1.4877 -0.7173  0.7893
   47CHL1  H21C 4639   3.443   1.800   5.403 -0.4896 -0.4776  0.2040
   47CHL1   C22 4640   3.453   2.135   5.325  0.2915 -0.6720  0.1695
   47CHL1  H22A 4641   3.531   2.193   5.378  0.3166 -0.3723 -0.1907
   47CHL1  H22B 4642   3.505   2.086   5.239 -1.2377  0.0383 -1.2137
   47CHL1   C23 4643   3.357   2.227   5.248 -0.1916 -0.4375  0.4805
   47CHL1  H23A 4644   3.290   2.169   5.182  0.7971 -2.2171  0.9961
   47CHL1  H23B 4645   3.300   2.295   5.316  1.6621  0.9463  0.7483
   47CHL1   C24 4646   3.443   2.324   5.156  0.3228  0.1931 -0.4267
   47CHL1  H24A 4647   3.490   2.398   5.224 -0.4166 -0.0887  0.4020
   47CHL1  H24B 4648   3.521   2.264   5.103  1.2749  1.7324 -0.8252
   47CHL1   C25 4649   3.369   2.398   5.045 -0.2777  0.0355 -0.1887
   47CHL1   H25 4650   3.311   2.324   4.986  0.2103 -1.0331  0.6220
   47CHL1   C26 4651   3.259   2.486   5.097 -0.2916 -0.4465  0.1681
   47CHL1  H26A 4652   3.193   2.524   5.016 -1.1628  1.4612  1.6732
   47CHL1  H26B 4653   3.197   2.419   5.161 -2.1641  0.5868 -0.4626
   47CHL1  H26C 4654   3.293   2.573   5.159 -1.5733  0.5527 -0.4680
   47CHL1   C27 4655   3.475   2.482   4.963  0.5501  1.0100 -0.5002
   47CHL1  H27A 4656   3.417   2.537   4.886 -0.1384 -0.7819 -1.3148
   47CHL1  H27B 4657   3.520   2.550   5.039 -1.6167  0.8730  1.0082
   47CHL1  H27C 4658   3.554   2.414   4.928  0.8351  0.3219  1.3483
   48CHL1    C3 4659   0.954   1.800   5.667 -0.5646 -0.7160 -0.5093
   48CHL1    H3 4660   1.053   1.757   5.644  0.8144  0.5373  2.5050
   48CHL1    O3 4661   0.944   1.821   5.806 -0.2371  0.3329  0.1284
   48CHL1   H3' 4662   0.966   1.732   5.834  0.3721 -0.2733 -2.0618
   48CHL1    C4 4663   0.930   1.937   5.602 -0.7199 -0.7058 -0.9786
   48CHL1   H4A 4664   0.826   1.970   5.623 -0.5840 -0.2512 -1.0164
   48CHL1   H4B 4665   1.006   2.011   5.632 -1.3806 -0.5290  0.3386
   48CHL1    C5 4666   0.937   1.914   5.453 -0.1675 -0.6725  0.8989
   48CHL1    C6 4667   1.027   1.984   5.378  0.5654 -0.5691  0.3786
   48CHL1    H6 4668   1.086   2.059   5.432  0.3251  0.2040 -0.4104
   48CHL1    C7 4669   1.033   1.962   5.228 -0.2534  0.2675  0.0662
   48CHL1   H7A 4670   1.021   2.063   5.184 -2.2714 -0.4913 -1.2826
   48CHL1   H7B 4671   1.134   1.935   5.190  0.1662 -0.7833  1.8052
   48CHL1    C8 4672   0.922   1.871   5.162 -0.1808 -0.4365  0.1954
   48CHL1    H8 4673   0.826   1.927   5.163  0.6740  1.0898  0.7517
   48CHL1   C14 4674   0.958   1.846   5.016  0.1658  0.5275 -0.7985
   48CHL1   H14 4675   1.047   1.785   5.041 -0.4961  0.5547  1.9900
   48CHL1   C15 4676   1.006   1.955   4.924 -0.3694  0.1284 -0.6402
   48CHL1  H15A 4677   0.936   2.040   4.940 -1.9627 -1.5084  1.8657
   48CHL1  H15B 4678   1.114   1.975   4.942 -0.3054 -0.7652  0.0367
   48CHL1   C16 4679   0.982   1.904   4.782  0.0220 -0.1739  0.3641
   48CHL1  H16A 4680   0.892   1.957   4.745 -0.4901 -0.7830  0.7208
   48CHL1  H16B 4681   1.066   1.920   4.712 -0.7425  2.0678 -0.1158
   48CHL1   C17 4682   0.943   1.755   4.807  0.1591 -0.1561 -0.0882
   48CHL1   H17 4683   1.042   1.705   4.815  1.0500  1.4705 -0.4198
   48CHL1   C13 4684   0.863   1.760   4.935  0.1563  0.0521  0.0359
   48CHL1   C18 4685   0.733   1.832   4.913  0.2263  0.1394  0.1973
   48CHL1  H18A 4686   0.666   1.775   4.845 -2.2107  0.4893  2.1587
   48CHL1  H18B 4687   0.677   1.853   5.007 -1.3654  2.2248 -1.1425
   48CHL1  H18C 4688   0.751   1.933   4.872 -1.6330  0.3780 -0.0815
   48CHL1   C12 4689   0.848   1.633   5.020 -0.2690 -0.0886 -0.1757
   48CHL1  H12A 4690   0.759   1.587   4.972  0.3341  1.0581 -2.5577
   48CHL1  H12B 4691   0.943   1.577   5.006  0.4154  0.6563  1.2829
   48CHL1   C11 4692   0.808   1.662   5.172 -0.2199 -0.8593  0.4146
   48CHL1  H11A 4693   0.707   1.707   5.162  0.5425  0.2932 -3.5415
   48CHL1  H11B 4694   0.810   1.561   5.219 -1.5599 -1.0015  0.2038
   48CHL1    C9 4695   0.898   1.757   5.249  0.1967 -0.0498 -0.2831
   48CHL1    H9 4696   1.002   1.721   5.264  1.0207  0.4635 -3.7790
   48CHL1   C10 4697   0.852   1.798   5.390 -0.1221 -0.4813  0.3432
   48CHL1   C19 4698   0.708   1.846   5.388  0.1475 -0.9709  0.6544
   48CHL1  H19A 4699   0.645   1.769   5.337  2.2434 -0.4803 -3.0022
   48CHL1  H19B 4700   0.662   1.864   5.487  0.7019  0.6617  0.6407
   48CHL1  H19C 4701   0.693   1.944   5.339 -4.8942 -1.1808  1.1752
   48CHL1    C1 4702   0.858   1.674   5.474  0.1700 -0.3427  0.1149
   48CHL1   H1A 4703   0.771   1.613   5.442  0.1590 -0.4070  0.2677
   48CHL1   H1B 4704   0.949   1.614   5.451  1.1618  0.8629  0.7705
   48CHL1    C2 4705   0.852   1.691   5.627  0.0249 -0.7630  0.7465
   48CHL1   H2A 4706   0.879   1.590   5.666  1.0994 -0.1272  1.7503
   48CHL1   H2B 4707   0.750   1.724   5.656  0.0589  2.1808 -1.8909
   48CHL1   C20 4708   0.874   1.702   4.686  0.4626  0.2038 -0.4044
   48CHL1   H20 4709   0.771   1.742   4.679  0.0419 -0.8079 -0.1131
   48CHL1   C21 4710   0.866   1.549   4.686  0.1319 -0.8285 -0.6845
   48CHL1  H21A 4711   0.809   1.521   4.594 -0.1574 -0.0604 -0.7484
   48CHL1  H21B 4712   0.969   1.519   4.659  1.1751  1.6737  0.1415
   48CHL1  H21C 4713   0.828   1.511   4.783 -0.4377  0.9997 -0.1337
   48CHL1   C22 4714   0.943   1.745   4.555  0.5522 -0.3406 -0.4194
   48CHL1  H22A 4715   0.939   1.855   4.544 -0.7398 -0.4378 -1.0939
   48CHL1  H22B 4716   1.051   1.722   4.569  0.8646 -0.5579 -2.8370
   48CHL1   C23 4717   0.901   1.685   4.420  0.1205 -0.0751 -0.4605
   48CHL1  H23A 4718   0.935   1.580   4.431  0.2349 -0.0289 -0.3645
   48CHL1  H23B 4719   0.792   1.685   4.399 -0.0157  0.0688  0.2142
   48CHL1   C24 4720   0.977   1.743   4.305 -0.1491 -0.4193  0.1971
   48CHL1  H24A 4721   0.946   1.847   4.282 -2.5107 -0.7503  1.5679
   48CHL1  H24B 4722   1.084   1.752   4.336 -0.2262  3.2088 -0.1524
   48CHL1   C25 4723   0.973   1.660   4.174 -0.6512 -0.5049  0.1983
   48CHL1   H25 4724   1.024   1.563   4.195  0.7619 -0.6781 -3.3292
   48CHL1   C26 4725   0.828   1.640   4.126  0.2201 -0.5077 -0.3484
   48CHL1  H26A 4726   0.777   1.594   4.214  0.6372 -1.1177 -0.4185
   48CHL1  H26B 4727   0.789   1.741   4.100  1.6530  0.2348  0.2649
   48CHL1  H26C 4728   0.817   1.575   4.037 -0.7698 -0.8139 -0.0218
   48CHL1   C27 4729   1.056   1.729   4.066 -0.3418  0.2616 -0.7854
   48CHL1  H27A 4730   1.020   1.829   4.033 -0.1234  0.2633 -1.0204
   48CHL1  H27B 4731   1.162   1.737   4.095 -0.4954 -1.8823  0.6027
   48CHL1  H27C 4732   1.053   1.651   3.987 -0.3289  0.9595 -1.4874
   49CHL1    C3 4733   1.087   6.215   2.864 -0.4974 -0.5360  0.0081
   49CHL1    H3 4734   0.984   6.253   2.848  0.2138  1.2977 -0.5008
   49CHL1    O3 4735   1.143   6.169   2.743  0.1629 -0.2612 -0.5643
   49CHL1   H3' 4736   1.218   6.114   2.767  2.1468  2.1716 -0.6509
   49CHL1    C4 4737   1.181   6.309   2.928 -0.6540  0.1205 -0.3905
   49CHL1   H4A 4738   1.281   6.261   2.923  0.7122  2.8809 -3.6196
   49CHL1   H4B 4739   1.188   6.396   2.859  0.1774  0.4875  0.1347
   49CHL1    C5 4740   1.152   6.347   3.070  0.9136  0.0288 -0.8265
   49CHL1    C6 4741   1.128   6.476   3.106 -0.0756 -0.4973  0.0452
   49CHL1    H6 4742   1.139   6.558   3.033  1.7670  0.3110  1.1523
   49CHL1    C7 4743   1.096   6.505   3.253  0.2065 -0.5959 -0.3108
   49CHL1   H7A 4744   1.149   6.597   3.286 -0.3601 -0.1937 -0.5096
   49CHL1   H7B 4745   0.988   6.529   3.262  0.1755 -0.9855  0.4909
   49CHL1    C8 4746   1.127   6.389   3.351  0.5332 -0.2165 -0.0164
   49CHL1    H8 4747   1.236   6.379   3.367  0.7829  1.3437 -0.5732
   49CHL1   C14 4748   1.075   6.425   3.496  0.0194  0.6738  0.4955
   49CHL1   H14 4749   0.965   6.436   3.496  0.2502  4.5829  1.9420
   49CHL1   C15 4750   1.117   6.557   3.548 -0.4751 -0.7751  0.5770
   49CHL1  H15A 4751   1.225   6.565   3.525 -0.6826  0.7931  0.0314
   49CHL1  H15B 4752   1.068   6.642   3.495 -0.4620 -0.6189  0.8152
   49CHL1   C16 4753   1.097   6.544   3.701  0.4125  1.2187  0.0733
   49CHL1  H16A 4754   1.196   6.571   3.745  0.4456 -0.0316  0.8172
   49CHL1  H16B 4755   1.015   6.605   3.745 -1.0362  1.2868 -2.5181
   49CHL1   C17 4756   1.055   6.395   3.724 -0.0392  0.4379  0.4763
   49CHL1   H17 4757   0.944   6.386   3.721  0.1564 -2.6444 -0.5467
   49CHL1   C13 4758   1.105   6.319   3.602 -0.6421 -1.1033  0.0675
   49CHL1   C18 4759   1.257   6.297   3.615  0.1725 -0.1718  0.2508
   49CHL1  H18A 4760   1.266   6.217   3.692 -1.4160 -0.9513 -0.3217
   49CHL1  H18B 4761   1.311   6.253   3.529 -0.2882 -0.6110  0.1835
   49CHL1  H18C 4762   1.306   6.388   3.655 -2.1971  1.1116  0.4468
   49CHL1   C12 4763   1.034   6.186   3.547  0.1610 -0.3543  0.3708
   49CHL1  H12A 4764   1.058   6.104   3.618  2.8760  1.9016  2.2913
   49CHL1  H12B 4765   0.927   6.216   3.547  0.7389  1.9007 -0.4407
   49CHL1   C11 4766   1.088   6.144   3.407  0.1222 -0.1384  0.1653
   49CHL1  H11A 4767   1.194   6.110   3.418  0.0723 -0.5842 -0.6100
   49CHL1  H11B 4768   1.030   6.057   3.370  0.7501 -0.1396 -0.8891
   49CHL1    C9 4769   1.069   6.259   3.297  0.2088 -1.1826 -0.3794
   49CHL1    H9 4770   0.959   6.265   3.285 -0.1753 -1.9314  2.1037
   49CHL1   C10 4771   1.128   6.222   3.158  0.6544 -0.0790 -0.3737
   49CHL1   C19 4772   1.255   6.154   3.184  0.6763 -0.0631 -0.1283
   49CHL1  H19A 4773   1.319   6.152   3.093  1.1880  1.3009  0.1721
   49CHL1  H19B 4774   1.321   6.206   3.256  1.8258 -0.8338 -0.6045
   49CHL1  H19C 4775   1.243   6.049   3.217  0.9877 -0.4466 -1.1765
   49CHL1    C1 4776   1.021   6.130   3.094 -0.2201  0.7705  0.6199
   49CHL1   H1A 4777   1.005   6.033   3.145  1.4057 -0.4512 -1.0805
   49CHL1   H1B 4778   0.921   6.177   3.081 -0.2566  0.2093 -1.5025
   49CHL1    C2 4779   1.069   6.094   2.953  0.1591  1.0838 -0.0012
   49CHL1   H2A 4780   1.009   6.013   2.905  2.3124 -0.4746 -0.2028
   49CHL1   H2B 4781   1.170   6.049   2.952 -0.3377 -0.0687 -0.8335
   49CHL1   C20 4782   1.086   6.342   3.864  0.2940  0.4747 -0.9080
   49CHL1   H20 4783   1.189   6.366   3.897 -0.5633 -0.7256  3.1183
   49CHL1   C21 4784   1.063   6.194   3.879  0.7783  0.0763  0.4927
   49CHL1  H21A 4785   1.083   6.155   3.981  0.5043  0.2866  0.6253
   49CHL1  H21B 4786   1.124   6.129   3.812  0.1079 -0.9187  0.8342
   49CHL1  H21C 4787   0.956   6.175   3.856  1.2231  0.4263 -2.1749
   49CHL1   C22 4788   1.000   6.414   3.972  0.4967 -0.1660 -0.0813
   49CHL1  H22A 4789   1.034   6.520   3.964  0.4161 -0.1444 -0.1306
   49CHL1  H22B 4790   0.892   6.423   3.948  0.9224  1.0156 -1.6675
   49CHL1   C23 4791   1.018   6.390   4.122  0.8482 -0.0565  0.1646
   49CHL1  H23A 4792   0.950   6.459   4.177  0.5000  1.0441 -1.5902
   49CHL1  H23B 4793   1.003   6.280   4.137 -1.1968 -0.3964 -3.3642
   49CHL1   C24 4794   1.162   6.419   4.170 -0.2532  0.1733 -0.0350
   49CHL1  H24A 4795   1.231   6.355   4.110  1.4434  1.2031  0.7175
   49CHL1  H24B 4796   1.179   6.524   4.137 -1.9978  0.0277 -1.5807
   49CHL1   C25 4797   1.188   6.372   4.316  0.3788 -0.6002  0.5185
   49CHL1   H25 4798   1.170   6.262   4.315  0.4396 -0.6142 -0.3727
   49CHL1   C26 4799   1.327   6.411   4.362  0.2574 -0.1938  0.0891
   49CHL1  H26A 4800   1.415   6.375   4.306  1.2950 -0.8094  2.0103
   49CHL1  H26B 4801   1.333   6.522   4.368  2.2421 -0.3351  1.8734
   49CHL1  H26C 4802   1.336   6.367   4.464 -1.5140  0.7571  0.7046
   49CHL1   C27 4803   1.080   6.425   4.411  0.0225  0.5460  0.1277
   49CHL1  H27A 4804   1.117   6.401   4.513 -0.0445 -1.6529 -0.3203
   49CHL1  H27B 4805   1.068   6.535   4.418  0.1994  0.6153 -0.6327
   49CHL1  H27C 4806   0.978   6.385   4.393 -1.5173  3.0695  2.4435
   50CHL1    C3 4807   5.524   2.980   3.023 -0.6201  0.1062 -0.2313
   50CHL1    H3 4808   5.470   3.077   3.029  0.4020  0.7555 -1.1663
   50CHL1    O3 4809   5.540   2.962   2.881  0.5152  0.4048 -0.8176
   50CHL1   H3' 4810   5.596   2.884   2.880  0.7779  0.4776  1.8318
   50CHL1    C4 4811   5.655   2.984   3.102 -0.0392  0.5444  0.0801
   50CHL1   H4A 4812   5.684   2.879   3.077 -1.3955  0.2475 -0.3246
   50CHL1   H4B 4813   5.730   3.056   3.063  0.4665 -0.0354 -0.0322
   50CHL1    C5 4814   5.636   2.983   3.254  0.3314 -0.0138 -0.4684
   50CHL1    C6 4815   5.695   3.082   3.319  0.2220 -0.0718  0.0479
   50CHL1    H6 4816   5.763   3.153   3.268  0.2772  0.7490  1.2254
   50CHL1    C7 4817   5.674   3.119   3.464  0.4121 -0.1943 -0.0320
   50CHL1   H7A 4818   5.771   3.125   3.517  0.1966 -2.2293  0.6793
   50CHL1   H7B 4819   5.628   3.221   3.470  0.3199 -0.2863  1.0498
   50CHL1    C8 4820   5.586   3.019   3.529 -0.2469 -0.0881 -0.3180
   50CHL1    H8 4821   5.647   2.930   3.558  1.2162  1.3281  1.1644
   50CHL1   C14 4822   5.535   3.080   3.662  0.4379 -0.6198 -0.5573
   50CHL1   H14 4823   5.468   3.162   3.629  0.6060 -0.8321 -1.4398
   50CHL1   C15 4824   5.635   3.154   3.758  0.3560 -0.9756 -0.1050
   50CHL1  H15A 4825   5.726   3.095   3.785  0.3680 -1.0795 -0.3718
   50CHL1  H15B 4826   5.658   3.255   3.718 -1.1953 -1.0548 -1.2710
   50CHL1   C16 4827   5.561   3.167   3.890  0.2419 -0.0289  0.3200
   50CHL1  H16A 4828   5.609   3.110   3.972  1.0863  0.8533  0.4636
   50CHL1  H16B 4829   5.544   3.274   3.912 -1.4365 -0.5865  1.9471
   50CHL1   C17 4830   5.426   3.084   3.872 -0.2660  0.3672 -0.1970
   50CHL1   H17 4831   5.342   3.155   3.862 -1.9550 -0.9218  3.2783
   50CHL1   C13 4832   5.447   2.987   3.749  0.4765 -0.6899  0.3067
   50CHL1   C18 4833   5.532   2.872   3.798  0.3481  0.1483 -0.0755
   50CHL1  H18A 4834   5.630   2.902   3.841  0.4838  1.2148 -1.0823
   50CHL1  H18B 4835   5.487   2.810   3.879 -0.9913  1.3033  0.0875
   50CHL1  H18C 4836   5.557   2.793   3.724 -1.1834  0.3659 -0.8461
   50CHL1   C12 4837   5.326   2.952   3.654  0.4988 -0.0268 -0.5939
   50CHL1  H12A 4838   5.246   2.894   3.705 -0.4584  0.0477 -1.9412
   50CHL1  H12B 4839   5.286   3.053   3.628  0.9313 -0.2255 -2.1593
   50CHL1   C11 4840   5.376   2.887   3.533  0.2180 -0.2068  0.6403
   50CHL1  H11A 4841   5.418   2.787   3.554 -2.3580 -1.1878  1.4999
   50CHL1  H11B 4842   5.282   2.868   3.477  0.4083 -1.1620  0.6253
   50CHL1    C9 4843   5.472   2.971   3.446  0.1510 -0.2488  0.2550
   50CHL1    H9 4844   5.421   3.066   3.419 -2.7220 -1.3856  1.2794
   50CHL1   C10 4845   5.515   2.903   3.316 -0.6014 -0.0782 -0.4358
   50CHL1   C19 4846   5.564   2.760   3.340 -0.1313  0.1678 -0.6571
   50CHL1  H19A 4847   5.582   2.709   3.243 -1.0412 -1.7900  0.1528
   50CHL1  H19B 4848   5.660   2.753   3.396  1.1387 -1.3797 -2.8708
   50CHL1  H19C 4849   5.486   2.697   3.388  1.6704 -1.4888  0.2085
   50CHL1    C1 4850   5.395   2.905   3.215 -0.2187  0.0978 -0.6692
   50CHL1   H1A 4851   5.312   2.841   3.254  0.0337  0.0829 -0.1418
   50CHL1   H1B 4852   5.354   3.008   3.217 -2.1696 -0.6298  0.8680
   50CHL1    C2 4853   5.429   2.869   3.074 -0.0451 -0.1099 -0.1680
   50CHL1   H2A 4854   5.338   2.858   3.011  1.1819 -0.3179 -1.9686
   50CHL1   H2B 4855   5.482   2.771   3.066 -2.0136 -1.2652  0.2891
   50CHL1   C20 4856   5.385   3.023   4.011  0.1617  0.3668 -0.3478
   50CHL1   H20 4857   5.464   2.955   4.049 -0.8081 -1.1952 -1.0069
   50CHL1   C21 4858   5.270   2.923   3.985  0.1114 -0.4080  0.1250
   50CHL1  H21A 4859   5.176   2.978   3.961  0.0240  0.0590  1.4418
   50CHL1  H21B 4860   5.259   2.872   4.083 -5.0399 -0.6880 -0.3078
   50CHL1  H21C 4861   5.294   2.854   3.901  2.0971  0.8843 -0.4517
   50CHL1   C22 4862   5.335   3.135   4.112  0.0925  1.1616 -0.3462
   50CHL1  H22A 4863   5.395   3.229   4.108 -0.4079  1.4481 -3.6753
   50CHL1  H22B 4864   5.233   3.156   4.075 -0.9884 -2.5234  0.1415
   50CHL1   C23 4865   5.324   3.102   4.253 -1.1538  0.2795 -1.0162
   50CHL1  H23A 4866   5.281   3.186   4.310 -1.6018 -0.7305  0.1831
   50CHL1  H23B 4867   5.253   3.021   4.281 -0.2218  0.1271  1.0579
   50CHL1   C24 4868   5.463   3.065   4.308 -0.0985  0.5454 -0.2940
   50CHL1  H24A 4869   5.502   2.970   4.266  2.3945  0.8146  1.2077
   50CHL1  H24B 4870   5.529   3.155   4.302  2.3271 -1.2048 -1.3670
   50CHL1   C25 4871   5.477   3.043   4.451  0.2673  0.2162 -0.1834
   50CHL1   H25 4872   5.418   3.129   4.489 -0.2486 -0.8318  1.4950
   50CHL1   C26 4873   5.412   2.903   4.488  0.4209 -0.5843  0.4660
   50CHL1  H26A 4874   5.412   2.889   4.598  4.2000  1.3048  0.8921
   50CHL1  H26B 4875   5.306   2.907   4.455  0.4371  2.7729  0.4685
   50CHL1  H26C 4876   5.460   2.821   4.432 -1.0596  0.5303 -2.6767
   50CHL1   C27 4877   5.617   3.041   4.503 -0.7015  0.8541 -0.7967
   50CHL1  H27A 4878   5.687   2.983   4.439 -0.7055  1.4787 -1.3864
   50CHL1  H27B 4879   5.654   3.146   4.509  0.2570  0.4573  1.0507
   50CHL1  H27C 4880   5.615   2.993   4.603 -0.4690 -0.0274 -1.2070
   51CHL1    C3 4881   1.278   4.148   2.980 -0.7097  0.0646 -0.3220
   51CHL1    H3 4882   1.193   4.077   2.985 -2.9116  2.6271  1.2592
   51CHL1    O3 4883   1.348   4.138   2.855  0.3816  0.4297  0.0343
   51CHL1   H3' 4884   1.289   4.184   2.796 -0.3648  1.2427  1.3688
   51CHL1    C4 4885   1.214   4.282   2.986  0.6961  0.3648  0.2850
   51CHL1   H4A 4886   1.290   4.360   2.963 -0.5553  1.7423  0.6963
   51CHL1   H4B 4887   1.139   4.289   2.904 -0.2849  0.6595  1.1840
   51CHL1    C5 4888   1.150   4.317   3.119 -0.2473 -0.2652  0.7224
   51CHL1    C6 4889   1.022   4.366   3.132  0.5134  0.2204  0.2369
   51CHL1    H6 4890   0.957   4.379   3.044  2.4002 -2.2275 -1.6969
   51CHL1    C7 4891   0.955   4.399   3.261  0.6489 -0.1942  0.3735
   51CHL1   H7A 4892   0.912   4.502   3.265 -0.4003 -0.5681 -0.5887
   51CHL1   H7B 4893   0.863   4.336   3.268  1.0022 -0.6617  0.8444
   51CHL1    C8 4894   1.044   4.391   3.382 -0.3872  0.2291  0.1287
   51CHL1    H8 4895   1.096   4.490   3.387 -0.3538  0.1761  0.9961
   51CHL1   C14 4896   0.957   4.374   3.504 -0.3526 -0.0085  0.0822
   51CHL1   H14 4897   0.914   4.272   3.493 -0.3024 -0.0750  0.4722
   51CHL1   C15 4898   0.832   4.464   3.523  0.0955  0.0475 -0.3118
   51CHL1  H15A 4899   0.857   4.570   3.502 -0.6426  0.3386  0.2276
   51CHL1  H15B 4900   0.747   4.442   3.455  0.8806  0.7137 -1.5523
   51CHL1   C16 4901   0.793   4.453   3.675 -1.0383  0.2411  0.6117
   51CHL1  H16A 4902   0.791   4.558   3.709 -1.1939  0.2274  0.6469
   51CHL1  H16B 4903   0.693   4.408   3.696 -0.8992 -1.5102 -2.0138
   51CHL1   C17 4904   0.906   4.367   3.737 -0.3146 -0.5288 -0.0816
   51CHL1   H17 4905   0.874   4.261   3.733  2.6047 -1.5388  0.8564
   51CHL1   C13 4906   1.026   4.377   3.639  0.3081 -0.4071  0.2320
   51CHL1   C18 4907   1.106   4.509   3.650  0.7724 -0.2696  0.4624
   51CHL1  H18A 4908   1.047   4.601   3.633 -1.2136 -1.9787 -2.8752
   51CHL1  H18B 4909   1.142   4.504   3.755  0.3706  0.2632  0.6271
   51CHL1  H18C 4910   1.187   4.518   3.576 -0.6038  1.1975 -0.9372
   51CHL1   C12 4911   1.119   4.256   3.635 -0.3169 -0.2889  0.4199
   51CHL1  H12A 4912   1.195   4.249   3.716  0.0896 -1.9675 -0.0491
   51CHL1  H12B 4913   1.065   4.160   3.620  2.4600 -1.6937 -1.6757
   51CHL1   C11 4914   1.216   4.253   3.506 -1.1832 -0.3495 -0.1952
   51CHL1  H11A 4915   1.302   4.323   3.513  0.2939 -1.7964 -2.6175
   51CHL1  H11B 4916   1.269   4.156   3.505  1.0492  0.7989  0.0271
   51CHL1    C9 4917   1.146   4.273   3.370 -0.5480  0.2816 -0.3876
   51CHL1    H9 4918   1.086   4.180   3.356  0.5002 -0.6562  1.0666
   51CHL1   C10 4919   1.234   4.289   3.247  0.2910  0.2698  1.0392
   51CHL1   C19 4920   1.337   4.404   3.272 -0.6685  0.0117 -0.2026
   51CHL1  H19A 4921   1.286   4.503   3.279  0.6792  0.6596  1.1799
   51CHL1  H19B 4922   1.391   4.379   3.366  0.2078 -0.1357 -0.7248
   51CHL1  H19C 4923   1.425   4.397   3.204 -1.7505  1.3313 -1.8079
   51CHL1    C1 4924   1.313   4.147   3.229  0.1479 -0.1084 -0.1796
   51CHL1   H1A 4925   1.377   4.136   3.318 -2.8738 -2.2246  1.9188
   51CHL1   H1B 4926   1.247   4.058   3.223  0.2322 -0.2445  0.8667
   51CHL1    C2 4927   1.382   4.143   3.094 -0.1601  0.0178  0.0459
   51CHL1   H2A 4928   1.452   4.057   3.093  1.3009  1.1614  0.1349
   51CHL1   H2B 4929   1.448   4.232   3.089  0.1396 -0.1772  0.4452
   51CHL1   C20 4930   0.937   4.406   3.887  1.0626 -0.6806  0.3681
   51CHL1   H20 4931   0.953   4.515   3.899 -0.2841 -0.4509  0.1619
   51CHL1   C21 4932   1.053   4.325   3.942  0.4011  0.9259  0.7392
   51CHL1  H21A 4933   1.152   4.351   3.900 -1.1490  0.6893 -3.5800
   51CHL1  H21B 4934   1.042   4.221   3.902  3.0905  1.6201 -2.2181
   51CHL1  H21C 4935   1.070   4.339   4.051  3.0261  0.5963  0.4225
   51CHL1   C22 4936   0.814   4.380   3.978  0.4308  0.3189  0.7126
   51CHL1  H22A 4937   0.838   4.420   4.079  0.4524 -0.1932  0.9110
   51CHL1  H22B 4938   0.728   4.439   3.938  0.3913 -0.2088 -0.0084
   51CHL1   C23 4939   0.764   4.239   3.977  0.2318  0.1720  0.3743
   51CHL1  H23A 4940   0.740   4.211   3.872  0.5431  2.0546 -0.2282
   51CHL1  H23B 4941   0.845   4.172   4.012 -0.3712 -0.4138  0.6741
   51CHL1   C24 4942   0.636   4.199   4.064  0.0443  0.2232  0.4761
   51CHL1  H24A 4943   0.654   4.239   4.166 -1.2384 -0.9959  1.2156
   51CHL1  H24B 4944   0.555   4.265   4.028  2.2855  1.1985 -3.3210
   51CHL1   C25 4945   0.606   4.053   4.060  0.2693 -0.0647 -0.0738
   51CHL1   H25 4946   0.615   4.018   3.955  0.2252 -0.9283  0.2020
   51CHL1   C26 4947   0.701   3.958   4.146  1.1886  0.1772  0.7293
   51CHL1  H26A 4948   0.677   3.856   4.109 -3.3534  0.7336  1.5504
   51CHL1  H26B 4949   0.804   3.986   4.118 -0.0183  2.1762 -2.2092
   51CHL1  H26C 4950   0.687   3.962   4.256  0.6174 -0.0300  0.6687
   51CHL1   C27 4951   0.470   4.030   4.115 -0.5802 -0.0503  0.1099
   51CHL1  H27A 4952   0.463   4.060   4.222 -1.7702  1.0803 -0.2663
   51CHL1  H27B 4953   0.383   4.083   4.071 -0.3916  0.3504  0.2191
   51CHL1  H27C 4954   0.452   3.920   4.111  2.7934 -0.6598 -0.9699
   52CHL1    C3 4955   0.023   5.910   3.015 -0.3909  0.9640 -0.7196
   52CHL1    H3 4956  -0.068   5.946   3.066 -0.7247 -1.4425  0.5542
   52CHL1    O3 4957   0.010   5.917   2.875 -0.0686 -0.1164  0.1836
   52CHL1   H3' 4958   0.093   5.885   2.838 -0.1572  1.5099 -1.6157
   52CHL1    C4 4959   0.145   6.008   3.054  0.5340 -0.0324  0.4337
   52CHL1   H4A 4960   0.238   5.976   3.003 -0.3883 -0.5469 -1.0146
   52CHL1   H4B 4961   0.123   6.110   3.015  3.5399  0.8367  0.7831
   52CHL1    C5 4962   0.149   5.994   3.206  0.8604 -0.5404  0.2671
   52CHL1    C6 4963   0.138   6.110   3.276 -0.6415 -0.8481  0.5714
   52CHL1    H6 4964   0.118   6.206   3.227  0.8223 -0.8683 -0.1209
   52CHL1    C7 4965   0.145   6.127   3.422 -0.7996  0.2017  0.1216
   52CHL1   H7A 4966   0.211   6.213   3.445 -1.1567  0.3559  0.5881
   52CHL1   H7B 4967   0.045   6.136   3.470  0.1849  1.1135  2.1102
   52CHL1    C8 4968   0.202   5.991   3.481  0.0475 -0.5085  0.7166
   52CHL1    H8 4969   0.310   5.992   3.455  0.1154 -0.4468  0.9910
   52CHL1   C14 4970   0.181   5.994   3.624 -0.4880  0.4507 -0.1204
   52CHL1   H14 4971   0.072   6.000   3.644 -0.4098  2.2413 -0.0763
   52CHL1   C15 4972   0.229   6.122   3.697 -0.3412  0.5117 -0.5314
   52CHL1  H15A 4973   0.330   6.147   3.657 -0.1853 -0.6174 -0.8681
   52CHL1  H15B 4974   0.164   6.212   3.691 -0.7931  0.1669 -0.8675
   52CHL1   C16 4975   0.246   6.075   3.846  0.8160  0.8215 -0.2891
   52CHL1  H16A 4976   0.348   6.114   3.865  1.2907  0.0429 -1.1497
   52CHL1  H16B 4977   0.179   6.127   3.919 -1.6062 -1.0230 -1.0456
   52CHL1   C17 4978   0.224   5.922   3.851 -1.0229  0.1466 -0.5954
   52CHL1   H17 4979   0.116   5.916   3.874 -1.2257 -1.6101 -1.7972
   52CHL1   C13 4980   0.245   5.873   3.698 -0.6800  0.0254  0.5320
   52CHL1   C18 4981   0.394   5.865   3.676  0.6643 -1.0086 -0.4362
   52CHL1  H18A 4982   0.456   5.948   3.716  0.8645 -1.5761  0.4441
   52CHL1  H18B 4983   0.443   5.779   3.726 -0.1973 -0.8550  0.6928
   52CHL1  H18C 4984   0.428   5.857   3.570  2.8895  2.9185 -0.2142
   52CHL1   C12 4985   0.173   5.752   3.649  0.3808 -0.6013  0.0362
   52CHL1  H12A 4986   0.207   5.659   3.700  0.4428 -0.2318  0.6809
   52CHL1  H12B 4987   0.071   5.763   3.691  0.4162 -0.9998  0.2355
   52CHL1   C11 4988   0.168   5.734   3.499  0.3572  0.1795  0.1372
   52CHL1  H11A 4989   0.271   5.694   3.484  0.2113  0.0265 -0.4912
   52CHL1  H11B 4990   0.096   5.655   3.469  0.1295  0.2747  0.4303
   52CHL1    C9 4991   0.138   5.865   3.421  0.1997  0.8429 -0.5324
   52CHL1    H9 4992   0.028   5.875   3.431  0.3580  2.2999  0.0679
   52CHL1   C10 4993   0.168   5.855   3.271 -0.6817 -0.7869  0.4663
   52CHL1   C19 4994   0.322   5.828   3.248 -0.2065  0.1985  0.7360
   52CHL1  H19A 4995   0.326   5.810   3.139 -2.5837  1.1752  0.4331
   52CHL1  H19B 4996   0.383   5.916   3.276  0.3508 -0.3402  1.2609
   52CHL1  H19C 4997   0.361   5.731   3.288 -1.0234 -0.7783 -0.7383
   52CHL1    C1 4998   0.069   5.753   3.202 -0.1355  0.2552 -0.3858
   52CHL1   H1A 4999   0.105   5.650   3.225  1.0711  0.7311 -0.0474
   52CHL1   H1B 5000  -0.031   5.759   3.250 -0.6641  4.1173 -1.6514
   52CHL1    C2 5001   0.047   5.765   3.051  1.1869 -0.0774  0.4526
   52CHL1   H2A 5002  -0.024   5.690   3.010  1.0991  0.2523 -0.0069
   52CHL1   H2B 5003   0.141   5.738   2.999  1.0518 -2.2988  1.2603
   52CHL1   C20 5004   0.289   5.844   3.969 -0.9192 -0.1098  0.1435
   52CHL1   H20 5005   0.400   5.841   3.966 -0.8852  0.1659  0.9383
   52CHL1   C21 5006   0.243   5.696   3.958  0.3072 -0.2256 -0.1588
   52CHL1  H21A 5007   0.289   5.635   3.878 -0.5667  0.4899 -1.2467
   52CHL1  H21B 5008   0.132   5.709   3.954  0.2728 -0.9533 -1.9191
   52CHL1  H21C 5009   0.261   5.638   4.051  0.7858 -1.1665 -0.8345
   52CHL1   C22 5010   0.254   5.897   4.109  0.0072  0.2599  0.1782
   52CHL1  H22A 5011   0.243   6.008   4.113 -0.0685  0.2224  1.1557
   52CHL1  H22B 5012   0.161   5.856   4.153  0.1973 -0.5204 -0.1392
   52CHL1   C23 5013   0.371   5.876   4.213  0.1589 -0.6729 -0.5854
   52CHL1  H23A 5014   0.399   5.771   4.235  0.7064 -0.5318 -0.5975
   52CHL1  H23B 5015   0.470   5.910   4.175  0.2721 -1.0672 -0.6450
   52CHL1   C24 5016   0.336   5.945   4.348 -0.6057 -0.0306  0.7380
   52CHL1  H24A 5017   0.349   6.054   4.331  0.2189 -0.4559 -1.6982
   52CHL1  H24B 5018   0.227   5.936   4.367 -0.7281  0.7084  0.4153
   52CHL1   C25 5019   0.417   5.903   4.475  0.3598 -0.3726  0.1985
   52CHL1   H25 5020   0.526   5.901   4.453  0.4035  0.4202  0.3269
   52CHL1   C26 5021   0.400   6.000   4.596  0.4154  0.4775  0.5561
   52CHL1  H26A 5022   0.444   5.955   4.687  2.7444  2.5220  0.5286
   52CHL1  H26B 5023   0.450   6.098   4.581 -0.4422  0.7483 -0.7221
   52CHL1  H26C 5024   0.291   6.017   4.612 -0.2319 -0.2078 -2.5369
   52CHL1   C27 5025   0.378   5.758   4.522 -0.0711 -0.5796  0.1419
   52CHL1  H27A 5026   0.461   5.724   4.588 -0.4955 -0.8574  0.5441
   52CHL1  H27B 5027   0.289   5.771   4.588 -0.1489 -0.6922  0.0573
   52CHL1  H27C 5028   0.377   5.697   4.430 -0.9100  0.8127 -0.8069
   53CHL1    C3 5029   6.003   3.835   3.237  0.2018  0.3709 -0.5170
   53CHL1    H3 5030   6.004   3.724   3.249 -0.3602  0.5165  1.0985
   53CHL1    O3 5031   5.993   3.867   3.098 -0.8520  0.7870  0.2970
   53CHL1   H3' 5032   5.899   3.877   3.086 -1.1369  3.7731  3.3700
   53CHL1    C4 5033   5.879   3.889   3.310 -0.2628  0.3380 -0.2727
   53CHL1   H4A 5034   5.857   3.997   3.317  0.8748  0.5116  1.1674
   53CHL1   H4B 5035   5.793   3.836   3.263 -1.3780 -0.0361  2.0543
   53CHL1    C5 5036   5.884   3.865   3.459 -0.4880  0.7388 -0.1591
   53CHL1    C6 5037   5.777   3.799   3.513 -0.1635 -0.5935 -0.3074
   53CHL1    H6 5038   5.683   3.790   3.457 -0.2315 -1.1701 -0.1086
   53CHL1    C7 5039   5.778   3.776   3.666 -0.1509  0.5385  0.3687
   53CHL1   H7A 5040   5.681   3.808   3.709 -0.1791  0.2023  0.5588
   53CHL1   H7B 5041   5.815   3.677   3.701  1.9432  0.6478 -1.3553
   53CHL1    C8 5042   5.886   3.874   3.739  0.2326  0.0016  0.0722
   53CHL1    H8 5043   5.840   3.974   3.725  0.6560  0.7002  2.9575
   53CHL1   C14 5044   5.894   3.839   3.892 -0.3608  0.1297  0.6913
   53CHL1   H14 5045   5.903   3.729   3.896 -0.8372 -0.0285 -1.3995
   53CHL1   C15 5046   5.775   3.870   3.977  0.5761 -0.5226 -0.0523
   53CHL1  H15A 5047   5.720   3.962   3.949 -0.0984 -0.0754  2.4949
   53CHL1  H15B 5048   5.688   3.804   3.956  0.4110  0.0184 -1.1669
   53CHL1   C16 5049   5.825   3.872   4.125  0.4257 -0.2893 -0.4702
   53CHL1  H16A 5050   5.791   3.966   4.173  0.5485  0.0065 -0.9489
   53CHL1  H16B 5051   5.787   3.786   4.184  1.5546  1.6189  3.3357
   53CHL1   C17 5052   5.986   3.870   4.111  0.3065 -0.2110 -0.2927
   53CHL1   H17 5053   6.014   3.763   4.119 -2.1958 -1.1000 -2.2698
   53CHL1   C13 5054   6.014   3.910   3.961  0.8654 -0.1087  0.5671
   53CHL1   C18 5055   6.008   4.063   3.949 -0.2259  0.0051 -0.1546
   53CHL1  H18A 5056   6.100   4.108   3.991 -0.8759 -1.0679  2.6791
   53CHL1  H18B 5057   5.996   4.095   3.843  0.6635 -1.6206 -0.7738
   53CHL1  H18C 5058   5.919   4.100   4.005  1.0059  0.5867  1.5187
   53CHL1   C12 5059   6.137   3.853   3.902  0.3618 -0.1805  0.5165
   53CHL1  H12A 5060   6.233   3.884   3.949 -0.8561  1.1330  2.2827
   53CHL1  H12B 5061   6.132   3.742   3.907  0.2902 -0.1686  0.7241
   53CHL1   C11 5062   6.150   3.900   3.754  0.2682 -0.2914  0.0106
   53CHL1  H11A 5063   6.160   4.011   3.747 -0.4100 -0.2181  0.1797
   53CHL1  H11B 5064   6.238   3.857   3.702  0.7890  0.8522 -0.0864
   53CHL1    C9 5065   6.026   3.850   3.670  0.1824 -0.2631  0.9189
   53CHL1    H9 5066   6.044   3.741   3.663  0.6959 -0.0869 -0.8425
   53CHL1   C10 5067   6.020   3.904   3.526  1.0871  1.4438 -0.0026
   53CHL1   C19 5068   6.013   4.059   3.530 -0.2473  0.2352 -0.4343
   53CHL1  H19A 5069   6.011   4.101   3.428 -0.1872  1.0352 -0.1125
   53CHL1  H19B 5070   5.924   4.087   3.591  2.0222  0.7776  2.9402
   53CHL1  H19C 5071   6.100   4.104   3.583 -0.9777  1.1733 -0.0154
   53CHL1    C1 5072   6.143   3.850   3.443  0.0879  0.1211  0.0270
   53CHL1   H1A 5073   6.238   3.897   3.477  0.2290  1.0279 -1.5345
   53CHL1   H1B 5074   6.156   3.745   3.478  0.5911  1.0602  3.0034
   53CHL1    C2 5075   6.138   3.884   3.293 -0.1602  0.5949  0.3931
   53CHL1   H2A 5076   6.220   3.825   3.245 -0.2591 -0.6477  1.6674
   53CHL1   H2B 5077   6.151   3.992   3.271  0.3026  0.7843  1.5369
   53CHL1   C20 5078   6.064   3.941   4.220  0.8627  0.9644  0.7978
   53CHL1   H20 5079   6.172   3.935   4.193  0.7581 -0.3936  0.6200
   53CHL1   C21 5080   6.044   3.850   4.345 -0.1402 -0.0593  0.0450
   53CHL1  H21A 5081   6.024   3.748   4.308  0.6889 -0.2338  0.0443
   53CHL1  H21B 5082   5.960   3.876   4.412  0.0357 -0.8888  0.5982
   53CHL1  H21C 5083   6.135   3.851   4.409  0.7050 -0.1055 -1.1099
   53CHL1   C22 5084   6.034   4.090   4.263 -0.0284  0.0544  0.2067
   53CHL1  H22A 5085   6.003   4.164   4.187 -0.5632  0.0826  0.4460
   53CHL1  H22B 5086   5.943   4.088   4.327 -1.2449  1.7981 -1.3816
   53CHL1   C23 5087   6.150   4.163   4.345  0.4053 -0.7801  0.5870
   53CHL1  H23A 5088   6.193   4.084   4.411  2.1193 -0.6604 -0.3185
   53CHL1  H23B 5089   6.230   4.206   4.280 -0.5904 -0.6143 -0.5582
   53CHL1   C24 5090   6.087   4.267   4.437  0.0154  0.5860 -0.0363
   53CHL1  H24A 5091   6.006   4.316   4.379 -0.7273  0.0496  0.5263
   53CHL1  H24B 5092   6.027   4.216   4.515  0.0524 -0.9744 -0.9834
   53CHL1   C25 5093   6.182   4.373   4.500 -0.4988 -0.3811  0.0434
   53CHL1   H25 5094   6.211   4.437   4.413 -0.2527  0.7382  0.9309
   53CHL1   C26 5095   6.104   4.446   4.603  0.2740 -0.3279  0.2032
   53CHL1  H26A 5096   6.166   4.523   4.654  0.7993 -0.4015 -0.3267
   53CHL1  H26B 5097   6.027   4.508   4.552  0.5555 -0.6669 -0.6450
   53CHL1  H26C 5098   6.036   4.391   4.672 -2.4851  0.9954 -1.2535
   53CHL1   C27 5099   6.311   4.311   4.553 -0.0206  0.7815 -0.4836
   53CHL1  H27A 5100   6.292   4.213   4.603  1.3907  1.3049  1.1926
   53CHL1  H27B 5101   6.387   4.277   4.480  1.5778  0.7531  1.1044
   53CHL1  H27C 5102   6.372   4.376   4.620  2.9716 -2.0097 -0.2072
   54CHL1    C3 5103   5.994   5.501   2.920  0.5664  0.1348  0.2663
   54CHL1    H3 5104   5.889   5.527   2.943  0.2209 -1.7483  1.0414
   54CHL1    O3 5105   5.990   5.497   2.779 -0.2345  0.3856 -0.3644
   54CHL1   H3' 5106   5.951   5.412   2.757  0.6812 -0.6937  1.8792
   54CHL1    C4 5107   6.086   5.603   2.968 -0.3307  0.3338  0.8829
   54CHL1   H4A 5108   6.185   5.574   2.926 -1.4624 -0.7532 -1.1768
   54CHL1   H4B 5109   6.059   5.702   2.927 -2.5792 -0.6283 -0.1057
   54CHL1    C5 5110   6.076   5.602   3.120 -0.2859  0.4074 -0.5522
   54CHL1    C6 5111   6.054   5.717   3.189  0.7168 -0.1361  0.4065
   54CHL1    H6 5112   6.057   5.810   3.130 -1.0898  0.0351  0.5271
   54CHL1    C7 5113   6.066   5.739   3.336  0.0693 -0.1283  0.0365
   54CHL1   H7A 5114   6.118   5.835   3.359  1.0445 -0.3834 -0.9958
   54CHL1   H7B 5115   5.962   5.756   3.369 -1.0854 -0.5370 -3.0356
   54CHL1    C8 5116   6.121   5.617   3.405 -0.5191 -0.2072  0.0787
   54CHL1    H8 5117   6.229   5.627   3.378 -1.0567  1.3778 -1.6796
   54CHL1   C14 5118   6.097   5.625   3.555  0.6346 -0.0859  1.1104
   54CHL1   H14 5119   5.987   5.623   3.569  0.2907  0.4346 -1.0891
   54CHL1   C15 5120   6.157   5.740   3.625 -0.4197  1.0481  0.4048
   54CHL1  H15A 5121   6.261   5.748   3.586  0.4996 -1.7869  1.9521
   54CHL1  H15B 5122   6.103   5.835   3.609 -1.1286  1.3964  4.0236
   54CHL1   C16 5123   6.150   5.705   3.774  0.5404 -0.2423 -0.4945
   54CHL1  H16A 5124   6.247   5.719   3.826  0.8356  0.0098 -1.0966
   54CHL1  H16B 5125   6.074   5.768   3.826 -0.7592 -0.9537 -1.4761
   54CHL1   C17 5126   6.115   5.552   3.776  0.2864 -0.8236 -0.6289
   54CHL1   H17 5127   6.004   5.547   3.778  0.2192  0.1750 -1.1616
   54CHL1   C13 5128   6.144   5.512   3.633 -0.1763  0.3084  0.2701
   54CHL1   C18 5129   6.293   5.479   3.624  0.9233  0.5422  0.1735
   54CHL1  H18A 5130   6.353   5.562   3.668  0.7911  0.5083  0.4219
   54CHL1  H18B 5131   6.316   5.383   3.675  0.6758 -0.9158 -2.2941
   54CHL1  H18C 5132   6.327   5.481   3.519 -0.1099  0.0103 -0.1857
   54CHL1   C12 5133   6.073   5.391   3.580  0.0786 -0.3408  0.2596
   54CHL1  H12A 5134   6.117   5.303   3.631  1.1515  0.7807  1.3001
   54CHL1  H12B 5135   5.966   5.394   3.611 -0.8478 -1.4290 -2.4752
   54CHL1   C11 5136   6.097   5.363   3.426  1.0647 -0.8974  0.3255
   54CHL1  H11A 5137   6.189   5.301   3.416  0.4020 -1.8179 -0.2084
   54CHL1  H11B 5138   6.022   5.290   3.387  1.2042 -1.4969  1.1627
   54CHL1    C9 5139   6.066   5.491   3.341 -0.7849  0.1266 -0.2517
   54CHL1    H9 5140   5.956   5.505   3.340 -1.0004 -1.2673 -1.9168
   54CHL1   C10 5141   6.107   5.473   3.196 -0.4226  0.0773  0.4294
   54CHL1   C19 5142   6.258   5.435   3.182 -0.8711  0.5831  0.2216
   54CHL1  H19A 5143   6.280   5.411   3.075  0.2546  0.0078  0.5718
   54CHL1  H19B 5144   6.322   5.519   3.213  0.2239  0.0952 -0.6331
   54CHL1  H19C 5145   6.285   5.343   3.239 -0.9833 -0.1320 -0.8421
   54CHL1    C1 5146   6.019   5.367   3.123 -0.2392  1.0781  0.0086
   54CHL1   H1A 5147   6.056   5.268   3.159 -1.6250  1.2373  2.0812
   54CHL1   H1B 5148   5.915   5.381   3.161 -0.1137  0.9273  0.4189
   54CHL1    C2 5149   6.020   5.363   2.973 -0.0483  0.5367 -0.2619
   54CHL1   H2A 5150   5.948   5.285   2.939 -0.7217  0.5591  1.0152
   54CHL1   H2B 5151   6.122   5.328   2.951 -0.8040 -1.9852 -0.0884
   54CHL1   C20 5152   6.158   5.466   3.889  1.1970 -0.0579 -0.2769
   54CHL1   H20 5153   6.172   5.360   3.857 -1.8426 -1.4370  2.4134
   54CHL1   C21 5154   6.033   5.455   3.986 -0.4663 -0.8025  1.1409
   54CHL1  H21A 5155   5.994   5.555   4.012 -0.7127 -1.4842  3.6497
   54CHL1  H21B 5156   6.065   5.409   4.082  3.6965 -0.9093 -0.1035
   54CHL1  H21C 5157   5.949   5.398   3.940 -0.3441 -0.2772  0.2453
   54CHL1   C22 5158   6.285   5.501   3.965 -0.1341 -0.6975  0.1798
   54CHL1  H22A 5159   6.363   5.543   3.898 -0.4803  0.0041  0.2124
   54CHL1  H22B 5160   6.264   5.590   4.028  0.2879  0.0456 -0.7101
   54CHL1   C23 5161   6.348   5.380   4.035 -0.5500  0.1607 -0.3818
   54CHL1  H23A 5162   6.266   5.338   4.098 -0.0564 -0.2544  0.0029
   54CHL1  H23B 5163   6.391   5.319   3.953 -0.5022 -0.5150  0.1359
   54CHL1   C24 5164   6.456   5.418   4.135 -0.6414  0.0159 -0.9386
   54CHL1  H24A 5165   6.556   5.403   4.090  0.0978 -0.8316  0.9092
   54CHL1  H24B 5166   6.446   5.526   4.157 -3.1098 -0.5237  1.1230
   54CHL1   C25 5167   6.461   5.335   4.269  0.2262  0.6888  0.3172
   54CHL1   H25 5168   6.374   5.370   4.328 -0.2522 -0.5311  0.3558
   54CHL1   C26 5169   6.446   5.184   4.233 -0.7477  0.5841  0.3566
   54CHL1  H26A 5170   6.466   5.125   4.325 -3.1440  1.3239  1.4485
   54CHL1  H26B 5171   6.351   5.151   4.185  1.4984 -2.7915 -2.2213
   54CHL1  H26C 5172   6.524   5.170   4.156 -1.0844  1.0158 -0.0733
   54CHL1   C27 5173   6.579   5.347   4.350  0.1853 -0.7438  0.2579
   54CHL1  H27A 5174   6.576   5.269   4.430  1.5654  0.1961  1.2960
   54CHL1  H27B 5175   6.671   5.333   4.288 -0.1240 -2.5685  0.1409
   54CHL1  H27C 5176   6.569   5.451   4.389  0.1564 -1.0857  1.2074
   55CHL1    C3 5177   2.345   0.418   3.094 -0.9666  0.2284 -0.5677
   55CHL1    H3 5178   2.431   0.367   3.141 -1.0649  1.9521  1.6041
   55CHL1    O3 5179   2.364   0.413   2.957 -0.5258 -0.3299 -0.0379
   55CHL1   H3' 5180   2.442   0.466   2.938 -0.8686 -0.1680 -1.0391
   55CHL1    C4 5181   2.213   0.351   3.131  0.8234  0.3366 -0.8514
   55CHL1   H4A 5182   2.145   0.378   3.047  1.1324 -0.2269 -1.2918
   55CHL1   H4B 5183   2.230   0.243   3.109  3.6866  0.4763  0.2542
   55CHL1    C5 5184   2.167   0.383   3.272  0.1606  0.1306 -0.5748
   55CHL1    C6 5185   2.123   0.279   3.347  0.3603  0.4487 -0.6255
   55CHL1    H6 5186   2.121   0.183   3.293  1.2348  0.6699 -1.0809
   55CHL1    C7 5187   2.090   0.284   3.499  0.4935 -0.2757  0.3439
   55CHL1   H7A 5188   1.999   0.228   3.528 -0.0435  0.2245 -0.3354
   55CHL1   H7B 5189   2.164   0.232   3.563  0.3731 -0.1049  0.6236
   55CHL1    C8 5190   2.067   0.426   3.548 -0.3184 -0.0968 -0.1908
   55CHL1    H8 5191   1.965   0.450   3.508 -0.8276  1.4875  1.9027
   55CHL1   C14 5192   2.082   0.445   3.697 -0.6802 -0.0562  0.2605
   55CHL1   H14 5193   2.188   0.420   3.721 -0.9185  0.1973  1.7005
   55CHL1   C15 5194   2.005   0.344   3.787 -1.1661 -0.1108 -0.0062
   55CHL1  H15A 5195   1.899   0.323   3.761 -1.7903 -0.6504  2.7001
   55CHL1  H15B 5196   2.049   0.242   3.785  0.2120  0.3597  2.2832
   55CHL1   C16 5197   2.010   0.412   3.927 -0.1346  0.5978  0.6121
   55CHL1  H16A 5198   1.907   0.416   3.969 -0.7487 -0.9703 -0.6445
   55CHL1  H16B 5199   2.060   0.352   4.006  0.7450  1.6816  0.9078
   55CHL1   C17 5200   2.072   0.552   3.911  0.1302  0.4329  0.6511
   55CHL1   H17 5201   2.181   0.545   3.930  0.0164 -0.1603  1.1089
   55CHL1   C13 5202   2.054   0.587   3.762 -0.3000  0.8029 -0.8828
   55CHL1   C18 5203   1.906   0.632   3.738 -0.2517  0.1553  0.2821
   55CHL1  H18A 5204   1.872   0.638   3.632 -0.6526  0.1441  0.4074
   55CHL1  H18B 5205   1.842   0.555   3.788 -1.2516 -0.0720 -1.2735
   55CHL1  H18C 5206   1.891   0.729   3.790  2.0467  0.9315 -0.3857
   55CHL1   C12 5207   2.159   0.678   3.694  0.1851  0.2736 -0.0133
   55CHL1  H12A 5208   2.150   0.787   3.712 -0.6170  0.2879 -0.4391
   55CHL1  H12B 5209   2.258   0.636   3.721 -0.0353 -0.7448 -0.7056
   55CHL1   C11 5210   2.138   0.674   3.541 -0.5195  0.0543 -0.4715
   55CHL1  H11A 5211   2.038   0.717   3.519 -0.4777  0.0773 -0.6173
   55CHL1  H11B 5212   2.219   0.734   3.494  0.8348 -1.7224 -0.4974
   55CHL1    C9 5213   2.162   0.534   3.480 -0.4452  0.0075 -0.1706
   55CHL1    H9 5214   2.261   0.506   3.522 -0.1415 -0.2125 -1.0225
   55CHL1   C10 5215   2.180   0.523   3.325 -0.4325 -0.4911  0.2956
   55CHL1   C19 5216   2.073   0.605   3.247  0.1634  0.0753  0.1248
   55CHL1  H19A 5217   2.060   0.572   3.142  3.7666 -0.7540 -0.1825
   55CHL1  H19B 5218   1.975   0.604   3.300 -0.1328 -0.2200 -0.4221
   55CHL1  H19C 5219   2.104   0.712   3.241  0.4399  0.2256  2.8256
   55CHL1    C1 5220   2.324   0.574   3.292  0.7504  0.3550  0.1517
   55CHL1   H1A 5221   2.336   0.679   3.326  1.0823  0.6235 -0.7550
   55CHL1   H1B 5222   2.397   0.511   3.348 -0.4805 -1.9720 -0.7524
   55CHL1    C2 5223   2.360   0.558   3.148  0.7075  0.0522 -0.0624
   55CHL1   H2A 5224   2.466   0.587   3.133  1.0956 -1.7761 -1.2877
   55CHL1   H2B 5225   2.290   0.621   3.089 -1.3125 -2.6466 -0.7601
   55CHL1   C20 5226   2.015   0.651   4.017  0.5312 -0.1371  0.9307
   55CHL1   H20 5227   1.904   0.650   4.011  0.4418  2.2958  1.5670
   55CHL1   C21 5228   2.075   0.793   3.988  0.5929 -0.2905 -0.1774
   55CHL1  H21A 5229   2.080   0.863   4.074 -1.3157  0.2253 -0.4400
   55CHL1  H21B 5230   2.020   0.847   3.908  1.6520  0.6910 -0.2709
   55CHL1  H21C 5231   2.182   0.789   3.958  1.0887  1.2801  1.2277
   55CHL1   C22 5232   2.035   0.600   4.165 -1.0479  0.7769  0.1371
   55CHL1  H22A 5233   1.989   0.500   4.179  0.8874 -0.2547 -0.4871
   55CHL1  H22B 5234   2.143   0.588   4.188 -0.4989  2.1910 -1.4824
   55CHL1   C23 5235   1.972   0.685   4.274 -0.2625 -0.6565  0.5210
   55CHL1  H23A 5236   2.010   0.788   4.259  1.8417 -1.2099  1.6299
   55CHL1  H23B 5237   1.863   0.696   4.252  0.1358 -1.4170 -2.2065
   55CHL1   C24 5238   1.994   0.622   4.415 -0.4370 -0.1942  0.8430
   55CHL1  H24A 5239   1.945   0.522   4.411  1.3882 -1.1428  0.6196
   55CHL1  H24B 5240   2.104   0.607   4.417 -0.4049 -1.7566 -3.2922
   55CHL1   C25 5241   1.947   0.710   4.533 -1.0073 -0.1594  0.4824
   55CHL1   H25 5242   1.838   0.723   4.514 -1.2178 -1.4314  0.6865
   55CHL1   C26 5243   1.975   0.634   4.662  0.5978  0.1866  0.6466
   55CHL1  H26A 5244   1.924   0.535   4.666 -2.1922  1.4897 -0.0077
   55CHL1  H26B 5245   2.085   0.640   4.677  1.0120  3.2193 -2.5103
   55CHL1  H26C 5246   1.925   0.700   4.736  0.7438  1.2965 -0.2312
   55CHL1   C27 5247   2.029   0.836   4.543 -0.9758 -0.4687 -0.1977
   55CHL1  H27A 5248   2.135   0.808   4.561 -1.4777 -0.4933  3.5839
   55CHL1  H27B 5249   2.024   0.911   4.462  1.2213  2.6896  2.3204
   55CHL1  H27C 5250   1.993   0.897   4.629 -0.8773 -2.4331  1.3216
   56CHL1    C3 5251   1.356   3.789   2.946  0.0972  0.3334  0.4103
   56CHL1    H3 5252   1.386   3.896   2.952  4.2730 -0.4665 -2.0352
   56CHL1    O3 5253   1.381   3.761   2.806  0.2378  0.2749 -0.2007
   56CHL1   H3' 5254   1.341   3.675   2.790  1.0483 -0.8583  2.9173
   56CHL1    C4 5255   1.447   3.701   3.033 -0.0001  0.4719 -0.3549
   56CHL1   H4A 5256   1.441   3.594   3.002 -1.4771  0.1516  0.9323
   56CHL1   H4B 5257   1.552   3.728   3.010 -0.2932  0.4619 -1.8021
   56CHL1    C5 5258   1.419   3.719   3.178  0.6433  0.0892 -0.6250
   56CHL1    C6 5259   1.516   3.754   3.268 -0.3759  0.5385  0.8155
   56CHL1    H6 5260   1.614   3.772   3.220  0.2764 -2.6136  0.7750
   56CHL1    C7 5261   1.509   3.773   3.414  0.0018  0.9175 -0.7540
   56CHL1   H7A 5262   1.577   3.700   3.463 -2.6949 -1.2359 -0.0023
   56CHL1   H7B 5263   1.524   3.878   3.448  0.5199  0.9982 -1.1982
   56CHL1    C8 5264   1.360   3.738   3.461 -0.4993  0.8664  0.5055
   56CHL1    H8 5265   1.358   3.628   3.480  0.1261  0.7238 -0.2249
   56CHL1   C14 5266   1.332   3.806   3.589 -0.2210  0.3233 -0.1988
   56CHL1   H14 5267   1.342   3.913   3.560 -0.6785  0.2554 -0.6147
   56CHL1   C15 5268   1.435   3.775   3.699  0.5149 -0.4532 -0.3491
   56CHL1  H15A 5269   1.463   3.667   3.697 -1.0132 -0.9346 -3.7785
   56CHL1  H15B 5270   1.529   3.831   3.684  0.5167 -0.2221  0.4525
   56CHL1   C16 5271   1.362   3.815   3.824 -0.2346 -0.2806  0.6374
   56CHL1  H16A 5272   1.362   3.724   3.888  1.7022 -2.1457 -1.7679
   56CHL1  H16B 5273   1.413   3.899   3.876 -1.6185  1.8546 -1.2656
   56CHL1   C17 5274   1.224   3.871   3.780  0.2774  0.7948 -0.4216
   56CHL1   H17 5275   1.227   3.980   3.760  0.6812  0.8390 -0.1390
   56CHL1   C13 5276   1.197   3.789   3.652  0.0844  0.2664  0.3241
   56CHL1   C18 5277   1.171   3.634   3.682  0.4213  0.1364  0.3162
   56CHL1  H18A 5278   1.062   3.618   3.689 -0.2441  3.8117  0.5090
   56CHL1  H18B 5279   1.216   3.566   3.606  0.4840 -0.6638  1.0550
   56CHL1  H18C 5280   1.219   3.600   3.776 -0.7891 -0.7959  0.6238
   56CHL1   C12 5281   1.094   3.841   3.548 -1.4863 -1.2119  0.3800
   56CHL1  H12A 5282   0.993   3.836   3.593 -1.0785  3.3068  2.3639
   56CHL1  H12B 5283   1.114   3.950   3.534 -0.0261 -1.4746  0.2757
   56CHL1   C11 5284   1.107   3.765   3.413 -0.0299 -0.4506 -0.5731
   56CHL1  H11A 5285   1.066   3.661   3.415 -1.2198  0.0104 -0.3664
   56CHL1  H11B 5286   1.045   3.820   3.338  1.4137  0.0812 -1.4076
   56CHL1    C9 5287   1.249   3.772   3.357  0.1327  0.6516  0.3243
   56CHL1    H9 5288   1.265   3.878   3.331 -1.4025  1.8013  3.5553
   56CHL1   C10 5289   1.269   3.697   3.216 -0.1571  0.8240  1.0607
   56CHL1   C19 5290   1.261   3.549   3.236 -0.1021 -0.1439  0.4021
   56CHL1  H19A 5291   1.285   3.488   3.146 -0.0958 -1.5516  1.3133
   56CHL1  H19B 5292   1.329   3.504   3.311  2.1325  1.1014 -0.7718
   56CHL1  H19C 5293   1.157   3.532   3.274  1.0649 -2.3070  2.9455
   56CHL1    C1 5294   1.178   3.771   3.112  0.6169  0.5564  0.2236
   56CHL1   H1A 5295   1.073   3.741   3.134  1.2525 -0.9443  1.4275
   56CHL1   H1B 5296   1.180   3.880   3.132  0.7931  0.6001 -0.0216
   56CHL1    C2 5297   1.206   3.750   2.972  0.3660  0.1468 -0.6834
   56CHL1   H2A 5298   1.138   3.814   2.912 -1.9063 -1.1478  0.3827
   56CHL1   H2B 5299   1.189   3.644   2.942 -0.6111 -0.4346  1.7101
   56CHL1   C20 5300   1.133   3.848   3.903  0.6379 -1.1896 -0.8284
   56CHL1   H20 5301   1.125   3.742   3.936  0.9223 -0.9806 -0.0465
   56CHL1   C21 5302   0.989   3.890   3.869  0.3602 -0.2985 -0.3835
   56CHL1  H21A 5303   0.988   4.000   3.857 -1.4551  0.1979  2.9952
   56CHL1  H21B 5304   0.923   3.869   3.957  1.0167  0.8247  0.4086
   56CHL1  H21C 5305   0.949   3.832   3.783 -1.4237  1.8201 -1.0673
   56CHL1   C22 5306   1.188   3.913   4.034  0.0361 -0.5821 -0.2546
   56CHL1  H22A 5307   1.288   3.867   4.049  0.1682 -0.0660  0.5004
   56CHL1  H22B 5308   1.200   4.023   4.019 -0.2548 -0.6768 -1.2693
   56CHL1   C23 5309   1.102   3.896   4.163  0.4411 -0.6758 -0.1337
   56CHL1  H23A 5310   1.006   3.952   4.158  0.2055 -0.5017  3.6292
   56CHL1  H23B 5311   1.069   3.790   4.165  0.5452 -0.6990  0.8076
   56CHL1   C24 5312   1.163   3.946   4.292 -0.2484 -0.0818 -0.8456
   56CHL1  H24A 5313   1.266   3.908   4.310 -1.1275 -1.7323  1.2176
   56CHL1  H24B 5314   1.179   4.055   4.283  2.5310 -0.4189 -0.8629
   56CHL1   C25 5315   1.081   3.937   4.421 -0.0240  0.3002  0.7525
   56CHL1   H25 5316   1.019   3.845   4.413  1.6435 -0.7544 -0.8012
   56CHL1   C26 5317   1.163   3.931   4.548  0.0919  0.4364 -0.7381
   56CHL1  H26A 5318   1.096   3.922   4.637 -0.9890 -3.1102 -1.7811
   56CHL1  H26B 5319   1.243   3.854   4.549  1.5513  1.8917 -1.2643
   56CHL1  H26C 5320   1.217   4.028   4.548  0.3911  0.2866  0.3638
   56CHL1   C27 5321   0.984   4.057   4.422  0.6660 -0.7758  0.1909
   56CHL1  H27A 5322   0.905   4.049   4.344 -0.2187  1.5737  0.7841
   56CHL1  H27B 5323   0.929   4.057   4.518 -0.5838  4.6225 -0.2150
   56CHL1  H27C 5324   1.038   4.152   4.404  4.7292 -3.0473 -1.1705
   57CHL1    C3 5325   4.033   3.135   2.863  0.6556 -0.6536  0.2936
   57CHL1    H3 5326   4.109   3.057   2.883  0.3395 -1.1822 -0.4704
   57CHL1    O3 5327   4.067   3.182   2.733  0.3172  0.1856 -0.8227
   57CHL1   H3' 5328   4.019   3.121   2.677 -1.6359  2.0031 -1.2598
   57CHL1    C4 5329   3.889   3.085   2.872  0.3085  0.3394  0.0383
   57CHL1   H4A 5330   3.814   3.154   2.826 -1.1691 -1.5846 -0.5970
   57CHL1   H4B 5331   3.883   2.997   2.804 -1.1172  0.8370 -0.5230
   57CHL1    C5 5332   3.850   3.043   3.014  0.1971  0.3513  0.1329
   57CHL1    C6 5333   3.790   2.924   3.035 -0.2691 -0.2333  0.0299
   57CHL1    H6 5334   3.758   2.870   2.945  0.8370 -0.3629 -0.3056
   57CHL1    C7 5335   3.747   2.874   3.164 -0.4964  0.4651  0.3911
   57CHL1   H7A 5336   3.639   2.848   3.157 -0.3072 -1.0503  2.2818
   57CHL1   H7B 5337   3.814   2.794   3.201 -1.7183 -0.5178  0.5372
   57CHL1    C8 5338   3.740   2.986   3.268  0.0233 -0.4042  0.7732
   57CHL1    H8 5339   3.654   3.051   3.243  0.0956 -0.3935  0.5508
   57CHL1   C14 5340   3.725   2.930   3.407  0.9765 -0.2649 -0.1276
   57CHL1   H14 5341   3.816   2.870   3.429  0.3192 -1.4544 -0.5325
   57CHL1   C15 5342   3.609   2.824   3.423  0.2241  0.2311 -1.0771
   57CHL1  H15A 5343   3.511   2.869   3.396 -0.7241  0.1344  1.8778
   57CHL1  H15B 5344   3.629   2.724   3.379 -1.1278 -0.3693 -0.3810
   57CHL1   C16 5345   3.605   2.801   3.579 -0.2077 -0.4182 -0.0727
   57CHL1  H16A 5346   3.499   2.793   3.611 -0.1163 -0.6755  0.1672
   57CHL1  H16B 5347   3.649   2.702   3.603  1.9931 -0.0176 -2.0815
   57CHL1   C17 5348   3.693   2.917   3.643 -0.2885  0.1978 -0.2752
   57CHL1   H17 5349   3.789   2.863   3.654 -0.6166 -0.5664 -1.0539
   57CHL1   C13 5350   3.713   3.027   3.528  0.7477 -0.9070  0.0008
   57CHL1   C18 5351   3.587   3.120   3.515 -0.1457  0.0918  0.1978
   57CHL1  H18A 5352   3.500   3.055   3.540 -1.0416  2.1549  2.8529
   57CHL1  H18B 5353   3.568   3.206   3.582 -0.7454 -2.1479  3.1331
   57CHL1  H18C 5354   3.575   3.151   3.409  0.6789 -1.0253 -0.2439
   57CHL1   C12 5355   3.846   3.099   3.523 -0.6005  0.4389  0.3096
   57CHL1  H12A 5356   3.848   3.190   3.586 -2.3684  0.2768  0.6472
   57CHL1  H12B 5357   3.928   3.024   3.537  1.0066  1.1930 -3.6067
   57CHL1   C11 5358   3.868   3.166   3.384 -0.2118  0.2331 -0.2189
   57CHL1  H11A 5359   3.796   3.251   3.378  0.1667  0.4773 -2.0027
   57CHL1  H11B 5360   3.971   3.207   3.377 -0.7132  1.3209 -2.0828
   57CHL1    C9 5361   3.868   3.071   3.264 -0.6108  0.0914  0.8160
   57CHL1    H9 5362   3.959   3.009   3.282 -1.5848 -0.6193  3.9324
   57CHL1   C10 5363   3.883   3.141   3.122  0.0151  0.2233  0.3176
   57CHL1   C19 5364   3.783   3.260   3.106 -0.3002  0.9238  0.4547
   57CHL1  H19A 5365   3.681   3.223   3.131  0.1436  0.9816  2.4639
   57CHL1  H19B 5366   3.800   3.336   3.186 -1.8918  0.3546  1.3856
   57CHL1  H19C 5367   3.782   3.310   3.007 -1.1467  0.7854  0.3814
   57CHL1    C1 5368   4.033   3.202   3.104  0.5728  0.5794 -0.3729
   57CHL1   H1A 5369   4.042   3.276   3.186  0.1043 -0.7505  0.9310
   57CHL1   H1B 5370   4.102   3.115   3.113  0.9839  0.9720  0.3311
   57CHL1    C2 5371   4.060   3.254   2.963  0.7295 -0.3172 -0.2869
   57CHL1   H2A 5372   4.167   3.282   2.950  0.4118  0.0537 -2.6073
   57CHL1   H2B 5373   3.991   3.339   2.949  0.5134 -0.2849  0.9323
   57CHL1   C20 5374   3.648   2.970   3.776 -0.2619 -0.3426 -0.4068
   57CHL1   H20 5375   3.549   3.021   3.768 -0.6207 -0.9215  0.2699
   57CHL1   C21 5376   3.758   3.061   3.836  0.0050 -0.4516 -0.4912
   57CHL1  H21A 5377   3.855   3.007   3.837  0.8663  1.0624  1.3226
   57CHL1  H21B 5378   3.741   3.085   3.943  2.5145  0.7607 -0.3042
   57CHL1  H21C 5379   3.768   3.144   3.763 -0.0660 -1.3223 -1.5396
   57CHL1   C22 5380   3.613   2.855   3.878  0.0313 -0.0422  0.2504
   57CHL1  H22A 5381   3.543   2.774   3.847  1.8036 -1.0885 -1.1360
   57CHL1  H22B 5382   3.702   2.799   3.912  1.4090  0.1213 -2.8006
   57CHL1   C23 5383   3.546   2.899   4.012  0.2773  0.2815  0.1203
   57CHL1  H23A 5384   3.628   2.949   4.068 -0.4869 -1.2626  2.7933
   57CHL1  H23B 5385   3.457   2.960   3.987  0.2738  1.0773  1.8973
   57CHL1   C24 5386   3.498   2.776   4.102 -0.0965 -0.0173  0.1257
   57CHL1  H24A 5387   3.418   2.719   4.051 -0.5288 -0.2042  0.9932
   57CHL1  H24B 5388   3.578   2.702   4.123  0.4194  0.7406  0.9264
   57CHL1   C25 5389   3.434   2.821   4.237 -0.4775 -0.4378 -0.2686
   57CHL1   H25 5390   3.346   2.882   4.206  0.6146  0.2455 -2.1599
   57CHL1   C26 5391   3.378   2.704   4.320  0.2480 -0.0425  0.0542
   57CHL1  H26A 5392   3.332   2.747   4.411  1.7441  1.1734  0.2874
   57CHL1  H26B 5393   3.299   2.650   4.264 -0.1780  1.1609 -0.5482
   57CHL1  H26C 5394   3.448   2.626   4.356 -0.0322 -0.3119  0.0178
   57CHL1   C27 5395   3.533   2.896   4.335 -0.2495  0.3273  0.8138
   57CHL1  H27A 5396   3.487   2.926   4.431 -0.2257  0.0712  0.9048
   57CHL1  H27B 5397   3.622   2.834   4.356  1.7917  2.1302 -1.7408
   57CHL1  H27C 5398   3.563   2.996   4.294  0.0203  0.2920  0.9213
   58CHL1    C3 5399   3.102   2.376   3.151 -0.0132  0.9827  0.5204
   58CHL1    H3 5400   3.039   2.456   3.195 -1.4349 -0.2254  0.7767
   58CHL1    O3 5401   3.102   2.378   3.011  0.6263 -0.4265 -0.0103
   58CHL1   H3' 5402   3.128   2.470   2.997 -0.2275 -0.2072 -0.2543
   58CHL1    C4 5403   3.245   2.385   3.205  0.0854  0.2583  0.0097
   58CHL1   H4A 5404   3.306   2.300   3.166 -0.0307  0.0304  0.3270
   58CHL1   H4B 5405   3.286   2.480   3.164 -1.1599  0.7338 -0.1657
   58CHL1    C5 5406   3.232   2.382   3.356 -0.1251 -0.2267 -0.0691
   58CHL1    C6 5407   3.278   2.487   3.426 -0.2484  0.1468 -0.0515
   58CHL1    H6 5408   3.333   2.568   3.377  1.4446 -0.8183  0.1882
   58CHL1    C7 5409   3.263   2.502   3.574  0.1329  0.2068 -0.1407
   58CHL1   H7A 5410   3.358   2.547   3.611  0.2074  0.2840 -0.4200
   58CHL1   H7B 5411   3.187   2.581   3.590  0.0309 -0.0600  0.7080
   58CHL1    C8 5412   3.221   2.376   3.652 -0.2683  0.0500  0.2688
   58CHL1    H8 5413   3.311   2.312   3.662 -0.4480 -0.2942 -0.2708
   58CHL1   C14 5414   3.160   2.411   3.793  0.6514 -0.5593 -0.5962
   58CHL1   H14 5415   3.066   2.469   3.780  0.0707 -0.5604  2.8033
   58CHL1   C15 5416   3.253   2.501   3.878 -0.4881  0.7618  0.0261
   58CHL1  H15A 5417   3.356   2.461   3.877 -0.5576  0.5075  1.3050
   58CHL1  H15B 5418   3.265   2.603   3.835  2.1409  1.3520  1.9318
   58CHL1   C16 5419   3.184   2.506   4.013  0.2726  0.4778 -0.5521
   58CHL1  H16A 5420   3.264   2.509   4.091  1.1350  0.2797 -1.4125
   58CHL1  H16B 5421   3.128   2.597   4.043  1.1174  0.3018  1.8564
   58CHL1   C17 5422   3.090   2.381   4.019 -0.2216  0.7891  0.5285
   58CHL1   H17 5423   2.988   2.415   3.993 -1.6538 -2.2398  1.7194
   58CHL1   C13 5424   3.128   2.297   3.888  0.6063  0.3431  0.1084
   58CHL1   C18 5425   3.254   2.209   3.909 -0.4798 -0.0546  0.0377
   58CHL1  H18A 5426   3.228   2.106   3.943  1.5893 -0.7621 -0.4386
   58CHL1  H18B 5427   3.307   2.185   3.815 -0.7658  0.6677 -0.3191
   58CHL1  H18C 5428   3.332   2.244   3.981  0.3009 -1.2790 -0.1993
   58CHL1   C12 5429   3.014   2.231   3.806  0.2709 -0.1587  0.1443
   58CHL1  H12A 5430   2.987   2.146   3.873  1.3572  1.6388  3.0617
   58CHL1  H12B 5431   2.923   2.292   3.788  0.3711 -0.2070 -0.5480
   58CHL1   C11 5432   3.058   2.185   3.668 -0.3780  0.5128  0.5375
   58CHL1  H11A 5433   3.141   2.113   3.684  1.1450  1.9767 -0.3657
   58CHL1  H11B 5434   2.974   2.145   3.609  0.9418 -1.6083 -0.0054
   58CHL1    C9 5435   3.121   2.294   3.575  0.1999 -0.0748 -0.6476
   58CHL1    H9 5436   3.032   2.361   3.573 -0.6276 -1.1326 -2.9510
   58CHL1   C10 5437   3.159   2.263   3.427  0.5665  0.1768  1.1665
   58CHL1   C19 5438   3.262   2.149   3.422 -0.2686  0.8828  0.3504
   58CHL1  H19A 5439   3.359   2.175   3.469  0.7155 -2.4325  0.3647
   58CHL1  H19B 5440   3.225   2.062   3.479 -1.4450  1.2071  0.1174
   58CHL1  H19C 5441   3.277   2.115   3.317 -0.0061 -2.1154  1.2898
   58CHL1    C1 5442   3.029   2.231   3.351  0.4279 -0.4058 -0.1491
   58CHL1   H1A 5443   2.989   2.132   3.383  2.0470 -0.8843  0.4759
   58CHL1   H1B 5444   2.951   2.307   3.375  0.2003 -0.6945  0.0397
   58CHL1    C2 5445   3.048   2.239   3.200  1.1957  0.1026 -0.1429
   58CHL1   H2A 5446   2.945   2.225   3.161  0.0672  1.4226  2.0941
   58CHL1   H2B 5447   3.118   2.164   3.159  0.5458  0.2363 -1.5308
   58CHL1   C20 5448   3.097   2.310   4.155 -1.0763  0.3201 -0.0981
   58CHL1   H20 5449   3.201   2.303   4.194 -0.5021  2.6438 -1.0206
   58CHL1   C21 5450   3.028   2.170   4.151 -0.2808 -1.0047 -0.2460
   58CHL1  H21A 5451   3.090   2.101   4.091  1.0934 -0.9882  1.0940
   58CHL1  H21B 5452   2.928   2.187   4.105  0.7478  0.9618 -1.9494
   58CHL1  H21C 5453   3.029   2.130   4.254  2.0195  0.8832  0.5557
   58CHL1   C22 5454   3.041   2.396   4.263  0.4337  0.0640  0.1858
   58CHL1  H22A 5455   3.070   2.503   4.250 -1.4738  0.2766 -3.8142
   58CHL1  H22B 5456   2.931   2.391   4.252  0.7045 -1.1284 -2.7953
   58CHL1   C23 5457   3.060   2.351   4.411 -0.1692 -0.0938  0.5045
   58CHL1  H23A 5458   3.011   2.254   4.435  0.0567 -0.5309 -0.7142
   58CHL1  H23B 5459   3.170   2.345   4.429 -0.3628  0.5475  2.0397
   58CHL1   C24 5460   3.006   2.456   4.502 -0.1579 -0.3753 -0.1272
   58CHL1  H24A 5461   3.058   2.554   4.491  0.0863 -0.5823 -0.8335
   58CHL1  H24B 5462   2.902   2.478   4.469 -0.0469 -0.0599 -0.2704
   58CHL1   C25 5463   3.012   2.435   4.656  0.1754 -0.1388 -0.2342
   58CHL1   H25 5464   2.955   2.347   4.691  1.0110 -0.8585 -0.6354
   58CHL1   C26 5465   3.154   2.419   4.706 -1.0546 -0.1640 -0.0068
   58CHL1  H26A 5466   3.159   2.431   4.816 -1.8558  2.5358 -0.1907
   58CHL1  H26B 5467   3.191   2.325   4.660 -0.7953  0.1545 -0.4580
   58CHL1  H26C 5468   3.221   2.497   4.663 -0.0876  0.0448  1.7941
   58CHL1   C27 5469   2.947   2.552   4.735 -0.5489 -0.0691  0.1671
   58CHL1  H27A 5470   2.977   2.543   4.842 -2.0298  1.8184  0.8033
   58CHL1  H27B 5471   3.002   2.646   4.713 -0.6153  0.0205  0.3784
   58CHL1  H27C 5472   2.838   2.564   4.715 -0.8093 -1.3937  0.6363
   59CHL1    C3 5473   2.869   0.127   3.060 -0.2626  0.2704  0.6459
   59CHL1    H3 5474   2.868   0.024   3.102 -1.6029  0.1118  0.2479
   59CHL1    O3 5475   2.912   0.115   2.930 -0.6625  0.1538  0.2461
   59CHL1   H3' 5476   2.927   0.206   2.903 -0.2990 -0.3678 -1.3836
   59CHL1    C4 5477   2.724   0.184   3.059 -0.0538 -0.2247  0.6078
   59CHL1   H4A 5478   2.733   0.283   3.010 -1.2809 -1.2299 -1.8595
   59CHL1   H4B 5479   2.650   0.122   3.004 -0.5561  0.7187  0.1963
   59CHL1    C5 5480   2.690   0.192   3.207 -0.3613  0.1182  0.3255
   59CHL1    C6 5481   2.578   0.134   3.247 -0.2669  0.7320 -0.0919
   59CHL1    H6 5482   2.516   0.070   3.182  0.4849 -1.0329  0.8653
   59CHL1    C7 5483   2.536   0.144   3.386  0.7892 -0.2064  0.1120
   59CHL1   H7A 5484   2.426   0.156   3.375  0.9328  0.4304 -0.7344
   59CHL1   H7B 5485   2.565   0.056   3.447 -0.2260  0.3772  1.5063
   59CHL1    C8 5486   2.591   0.264   3.462  0.4885  0.3135  0.2994
   59CHL1    H8 5487   2.548   0.359   3.422  1.1703  0.1766 -0.7883
   59CHL1   C14 5488   2.559   0.252   3.607  0.1559 -0.0241  0.5899
   59CHL1   H14 5489   2.600   0.153   3.638  1.1633 -0.0139 -0.6300
   59CHL1   C15 5490   2.415   0.233   3.635  0.5911  0.4510 -0.1046
   59CHL1  H15A 5491   2.356   0.312   3.582 -2.5061 -0.0041  2.3727
   59CHL1  H15B 5492   2.364   0.138   3.608  0.0068 -0.5081  3.8765
   59CHL1   C16 5493   2.418   0.246   3.787  0.0041  0.1098  0.0491
   59CHL1  H16A 5494   2.334   0.304   3.831  0.9196  1.4138  0.1157
   59CHL1  H16B 5495   2.407   0.142   3.825 -0.8787 -0.4927 -1.7187
   59CHL1   C17 5496   2.559   0.306   3.823  0.2759  0.3668 -0.4562
   59CHL1   H17 5497   2.632   0.226   3.849 -0.3007 -0.0686 -0.1594
   59CHL1   C13 5498   2.612   0.362   3.690 -0.6115  0.0570 -0.3501
   59CHL1   C18 5499   2.544   0.498   3.663  0.5130 -0.8007  0.4579
   59CHL1  H18A 5500   2.519   0.517   3.556 -0.1699 -4.1076 -0.0883
   59CHL1  H18B 5501   2.442   0.506   3.706 -1.2963 -1.2700 -3.2883
   59CHL1  H18C 5502   2.610   0.579   3.701  1.0895 -0.0250 -1.9731
   59CHL1   C12 5503   2.762   0.365   3.678 -0.3103  0.4095  0.0289
   59CHL1  H12A 5504   2.805   0.444   3.743  4.2465 -0.8270 -1.1655
   59CHL1  H12B 5505   2.797   0.263   3.704 -1.9544 -0.4564 -1.0046
   59CHL1   C11 5506   2.800   0.388   3.529 -0.1805 -0.5132 -0.1000
   59CHL1  H11A 5507   2.760   0.487   3.499 -0.7451 -0.6225  0.2756
   59CHL1  H11B 5508   2.911   0.394   3.529 -0.1398 -0.8803  1.5432
   59CHL1    C9 5509   2.737   0.270   3.447  0.0168 -0.3307 -0.4488
   59CHL1    H9 5510   2.774   0.174   3.489  0.2127 -0.0057  0.1154
   59CHL1   C10 5511   2.780   0.274   3.297  0.2749 -0.4966  0.4286
   59CHL1   C19 5512   2.770   0.422   3.243  0.1849  0.0588  0.0707
   59CHL1  H19A 5513   2.777   0.422   3.132 -0.8153 -0.1485 -0.0008
   59CHL1  H19B 5514   2.670   0.458   3.273 -0.7745 -2.6974  0.5174
   59CHL1  H19C 5515   2.862   0.478   3.274  0.7616 -1.4728  1.2966
   59CHL1    C1 5516   2.925   0.217   3.281  0.8334  0.2526 -0.2119
   59CHL1   H1A 5517   3.004   0.272   3.337 -0.5269  2.5032 -0.3959
   59CHL1   H1B 5518   2.922   0.121   3.338  1.0221 -0.4340 -1.3252
   59CHL1    C2 5519   2.974   0.207   3.138  1.2214 -0.3312  0.0237
   59CHL1   H2A 5520   3.069   0.149   3.132  2.1525  1.2516 -1.0090
   59CHL1   H2B 5521   2.993   0.308   3.098 -0.6410  0.1513  0.2793
   59CHL1   C20 5522   2.544   0.395   3.947 -0.2023  0.7727  0.1917
   59CHL1   H20 5523   2.469   0.474   3.925  0.4855  0.8842 -2.0072
   59CHL1   C21 5524   2.676   0.465   3.982  0.2678  0.3067 -0.6713
   59CHL1  H21A 5525   2.658   0.513   4.080 -0.0336 -0.3503 -0.3961
   59CHL1  H21B 5526   2.693   0.536   3.898 -0.5063  0.3358 -0.8108
   59CHL1  H21C 5527   2.746   0.378   3.986 -0.8537 -0.5780  1.3912
   59CHL1   C22 5528   2.481   0.317   4.071  0.0824 -0.1759  0.1020
   59CHL1  H22A 5529   2.462   0.393   4.150 -2.8447 -1.5619  0.8732
   59CHL1  H22B 5530   2.382   0.271   4.052  0.2115 -0.4476  0.0821
   59CHL1   C23 5531   2.569   0.203   4.131 -0.0642  0.1383 -0.0073
   59CHL1  H23A 5532   2.596   0.132   4.050  0.7125  2.9982 -2.4420
   59CHL1  H23B 5533   2.660   0.257   4.166 -1.0347  0.7259  1.7649
   59CHL1   C24 5534   2.506   0.140   4.259  0.4027 -0.3927 -0.0901
   59CHL1  H24A 5535   2.446   0.216   4.314 -1.1491 -2.1441  0.7803
   59CHL1  H24B 5536   2.444   0.054   4.227  1.1358 -1.6461  1.6536
   59CHL1   C25 5537   2.608   0.077   4.360 -0.2561  0.2517 -0.4494
   59CHL1   H25 5538   2.680   0.151   4.402  2.1515 -0.9541 -2.2374
   59CHL1   C26 5539   2.523   0.018   4.474  0.3971 -0.2851 -0.1218
   59CHL1  H26A 5540   2.592  -0.034   4.544  0.8680  0.1934 -0.2247
   59CHL1  H26B 5541   2.475   0.103   4.527 -1.3241 -1.1364 -0.2397
   59CHL1  H26C 5542   2.449  -0.056   4.436  0.3019 -0.6807  0.8015
   59CHL1   C27 5543   2.694  -0.030   4.293 -0.3543  0.1625 -0.7329
   59CHL1  H27A 5544   2.639  -0.127   4.291  3.1000 -1.9548 -0.3589
   59CHL1  H27B 5545   2.735   0.002   4.195 -1.5929  1.4794 -0.8593
   59CHL1  H27C 5546   2.774  -0.046   4.369 -1.5199 -2.5427  0.0634
   60CHL1    C3 5547   3.700   6.347   3.102 -0.0145 -0.6605  0.1452
   60CHL1    H3 5548   3.784   6.416   3.124  0.6334 -0.9926 -1.1350
   60CHL1    O3 5549   3.655   6.357   2.973  0.1228 -0.0480 -0.4534
   60CHL1   H3' 5550   3.616   6.270   2.958 -0.3134  0.0069  0.3400
   60CHL1    C4 5551   3.752   6.210   3.127 -0.3183 -0.0927 -0.1783
   60CHL1   H4A 5552   3.671   6.137   3.107 -0.7945  0.0577  1.0907
   60CHL1   H4B 5553   3.837   6.176   3.064  0.1258  0.8843 -0.1235
   60CHL1    C5 5554   3.798   6.203   3.271  0.5688  0.2759 -0.1517
   60CHL1    C6 5555   3.928   6.185   3.303 -0.5690 -0.3162 -0.0360
   60CHL1    H6 5556   4.003   6.166   3.225 -2.0238 -1.8019 -1.1631
   60CHL1    C7 5557   3.985   6.166   3.443  0.0753  0.3998  0.4717
   60CHL1   H7A 5558   4.038   6.069   3.457  0.4340  0.3723 -0.9518
   60CHL1   H7B 5559   4.054   6.250   3.469 -1.5765  2.0061 -0.1304
   60CHL1    C8 5560   3.868   6.158   3.545  0.1999 -0.5387  0.1020
   60CHL1    H8 5561   3.831   6.054   3.537 -2.2209  0.2804 -0.0125
   60CHL1   C14 5562   3.915   6.197   3.686 -0.6105  0.4900  0.4151
   60CHL1   H14 5563   3.945   6.304   3.683  3.8032 -0.5482 -0.8724
   60CHL1   C15 5564   4.049   6.133   3.734 -0.6136  0.5254 -0.6410
   60CHL1  H15A 5565   4.042   6.025   3.707 -0.7548  0.8682 -2.0757
   60CHL1  H15B 5566   4.141   6.174   3.687 -0.3984 -0.9940 -1.6410
   60CHL1   C16 5567   4.057   6.150   3.890  0.8210 -0.0989  0.2966
   60CHL1  H16A 5568   4.091   6.057   3.939  0.5066 -2.1649 -3.1258
   60CHL1  H16B 5569   4.136   6.224   3.916 -0.5579  1.7724 -0.6139
   60CHL1   C17 5570   3.918   6.212   3.931 -0.8045  0.4315 -0.3862
   60CHL1   H17 5571   3.935   6.321   3.942  0.8774  0.1196  0.5306
   60CHL1   C13 5572   3.822   6.199   3.807  0.6011  0.4706  0.2528
   60CHL1   C18 5573   3.750   6.060   3.825 -0.1666 -0.0866  0.1242
   60CHL1  H18A 5574   3.832   5.988   3.844  2.3449  2.4580 -0.3344
   60CHL1  H18B 5575   3.680   6.063   3.911  0.3498 -2.7103  0.7117
   60CHL1  H18C 5576   3.693   6.024   3.737  0.2735  0.6253 -0.4666
   60CHL1   C12 5577   3.714   6.305   3.775 -0.0390  0.1836 -0.1598
   60CHL1  H12A 5578   3.640   6.315   3.857 -0.8685  3.6358 -1.1341
   60CHL1  H12B 5579   3.762   6.406   3.783 -1.4507  0.7356  5.2062
   60CHL1   C11 5580   3.651   6.284   3.637 -0.1083 -0.4267 -0.0699
   60CHL1  H11A 5581   3.591   6.190   3.636  1.1520 -1.2830 -2.1303
   60CHL1  H11B 5582   3.578   6.366   3.620  0.8990  0.7050  0.8920
   60CHL1    C9 5583   3.750   6.258   3.517 -0.4433 -0.6137 -0.6457
   60CHL1    H9 5584   3.802   6.356   3.517 -0.5421 -0.5312  1.4661
   60CHL1   C10 5585   3.688   6.239   3.377 -0.1140  0.2619 -0.2244
   60CHL1   C19 5586   3.582   6.126   3.387  0.8055 -0.0866 -0.0133
   60CHL1  H19A 5587   3.495   6.180   3.431  1.5607  0.6441  0.5951
   60CHL1  H19B 5588   3.550   6.078   3.292 -0.8979  0.8933  0.0250
   60CHL1  H19C 5589   3.626   6.049   3.453 -2.1554  0.0505  2.3618
   60CHL1    C1 5590   3.624   6.371   3.343  0.2044 -0.0771  0.6810
   60CHL1   H1A 5591   3.540   6.386   3.413  0.7646 -0.6820  1.5082
   60CHL1   H1B 5592   3.698   6.449   3.373  0.0273  0.3360  0.0633
   60CHL1    C2 5593   3.583   6.382   3.194 -0.2515 -0.4492  0.4972
   60CHL1   H2A 5594   3.555   6.487   3.168  4.1802  0.7199 -0.4754
   60CHL1   H2B 5595   3.493   6.325   3.165 -1.0476  2.4453 -3.6684
   60CHL1   C20 5596   3.863   6.164   4.064 -0.0831  0.3702 -0.5104
   60CHL1   H20 5597   3.819   6.061   4.065  2.2437 -0.7958  3.1494
   60CHL1   C21 5598   3.748   6.259   4.105 -0.2689 -0.1995 -0.5103
   60CHL1  H21A 5599   3.780   6.364   4.089  0.9285 -0.4160  0.2962
   60CHL1  H21B 5600   3.718   6.252   4.212  1.7117 -0.3283  0.0830
   60CHL1  H21C 5601   3.656   6.227   4.053 -0.2373 -1.7104  0.3229
   60CHL1   C22 5602   3.966   6.176   4.179 -0.1878  0.1685  0.6423
   60CHL1  H22A 5603   3.922   6.133   4.272 -1.0310  0.8682  0.5834
   60CHL1  H22B 5604   4.047   6.102   4.164  1.2083  1.4357  1.6638
   60CHL1   C23 5605   4.031   6.308   4.220 -0.4148  0.3267 -0.4297
   60CHL1  H23A 5606   4.113   6.304   4.145 -0.7499  0.5812 -0.8135
   60CHL1  H23B 5607   3.972   6.402   4.211 -0.3125  0.6554  1.7744
   60CHL1   C24 5608   4.095   6.310   4.366  0.3653  0.2785  0.7966
   60CHL1  H24A 5609   4.024   6.290   4.449  0.6340  0.0704  0.9777
   60CHL1  H24B 5610   4.178   6.236   4.366  0.7358  0.6754  0.0359
   60CHL1   C25 5611   4.164   6.443   4.399 -0.0728  0.4551  0.3053
   60CHL1   H25 5612   4.089   6.525   4.388  0.6750  1.0833 -0.2141
   60CHL1   C26 5613   4.211   6.444   4.551  0.0248  0.0468 -0.3347
   60CHL1  H26A 5614   4.246   6.543   4.586  0.3439 -1.3185  3.8434
   60CHL1  H26B 5615   4.127   6.418   4.619  0.9278 -1.0445  0.4206
   60CHL1  H26C 5616   4.295   6.378   4.580  0.1479 -0.2857 -1.4045
   60CHL1   C27 5617   4.283   6.469   4.309 -0.5230  0.3797  0.5113
   60CHL1  H27A 5618   4.352   6.383   4.313 -0.2380  0.4860 -1.3009
   60CHL1  H27B 5619   4.257   6.479   4.201  2.4809 -0.8399 -0.4262
   60CHL1  H27C 5620   4.344   6.557   4.337 -2.1415  2.0751 -0.9183
   61CHL1    C3 5621   2.854   3.412   3.028 -0.7606  0.6915  0.0262
   61CHL1    H3 5622   2.953   3.375   3.064 -1.8555 -1.9183  0.6457
   61CHL1    O3 5623   2.865   3.442   2.893 -0.0330  0.1650 -0.0198
   61CHL1   H3' 5624   2.788   3.496   2.878  0.3942  1.2998  1.6236
   61CHL1    C4 5625   2.757   3.296   3.047  0.4107  0.2312  0.1549
   61CHL1   H4A 5626   2.666   3.312   2.986  0.2526 -0.2739  0.2574
   61CHL1   H4B 5627   2.799   3.205   2.999  1.4882  0.0664  1.3508
   61CHL1    C5 5628   2.726   3.263   3.195 -0.6431  0.0828  0.2734
   61CHL1    C6 5629   2.734   3.138   3.251 -0.3844  0.2092 -1.2554
   61CHL1    H6 5630   2.753   3.053   3.184  1.0388 -0.9694  0.5300
   61CHL1    C7 5631   2.709   3.107   3.397 -0.1425 -0.4473 -0.0578
   61CHL1   H7A 5632   2.640   3.019   3.401 -1.4818  0.5659 -0.3031
   61CHL1   H7B 5633   2.803   3.087   3.453  0.3256  1.2275 -0.2012
   61CHL1    C8 5634   2.638   3.216   3.477  0.6705 -0.2022 -0.5873
   61CHL1    H8 5635   2.532   3.208   3.446  0.9202 -1.7769 -1.1597
   61CHL1   C14 5636   2.645   3.199   3.623 -0.7820  0.2557 -0.4548
   61CHL1   H14 5637   2.749   3.209   3.661 -1.6005  0.5661  1.8592
   61CHL1   C15 5638   2.608   3.057   3.673  0.0548 -0.0934  0.0702
   61CHL1  H15A 5639   2.510   3.029   3.629  0.4170 -2.5414  0.7037
   61CHL1  H15B 5640   2.692   2.988   3.654  1.0230  1.2929 -0.9025
   61CHL1   C16 5641   2.583   3.081   3.824 -0.2736  0.3714  0.4225
   61CHL1  H16A 5642   2.501   3.012   3.852  0.4640 -2.4523 -3.5348
   61CHL1  H16B 5643   2.671   3.043   3.881 -0.6593 -0.4479  0.4883
   61CHL1   C17 5644   2.577   3.232   3.846 -0.1235 -0.6390  0.8250
   61CHL1   H17 5645   2.672   3.273   3.886  0.9164  1.6140 -3.3293
   61CHL1   C13 5646   2.565   3.293   3.705  0.1869 -0.4093 -0.2828
   61CHL1   C18 5647   2.413   3.287   3.656  0.2797 -0.1517 -0.2851
   61CHL1  H18A 5648   2.409   3.299   3.546  1.8727  0.1964 -0.3313
   61CHL1  H18B 5649   2.372   3.186   3.679 -1.5978  0.8056  0.7192
   61CHL1  H18C 5650   2.349   3.362   3.706 -0.6254 -2.8575  3.0829
   61CHL1   C12 5651   2.618   3.430   3.682  0.5859  0.4002  0.2229
   61CHL1  H12A 5652   2.559   3.504   3.741  0.7103 -2.9885  5.1985
   61CHL1  H12B 5653   2.723   3.440   3.719  0.2848 -0.2107  1.2697
   61CHL1   C11 5654   2.617   3.461   3.524 -0.1501  0.5687 -0.3425
   61CHL1  H11A 5655   2.512   3.485   3.498 -0.3522  1.2822  1.0028
   61CHL1  H11B 5656   2.673   3.556   3.516  0.0773  0.7257  2.2317
   61CHL1    C9 5657   2.693   3.357   3.438  0.0948  0.3903  0.2225
   61CHL1    H9 5658   2.799   3.359   3.472 -0.6318  0.7177  2.6209
   61CHL1   C10 5659   2.690   3.384   3.285 -0.3840  0.0898 -0.0781
   61CHL1   C19 5660   2.544   3.425   3.236 -0.3967 -0.0075 -0.3247
   61CHL1  H19A 5661   2.541   3.419   3.125  0.0720  1.5010 -0.4444
   61CHL1  H19B 5662   2.472   3.355   3.282 -0.3820  0.2481  0.0961
   61CHL1  H19C 5663   2.518   3.527   3.271 -1.2430 -0.5559  0.6690
   61CHL1    C1 5664   2.792   3.496   3.259 -0.3616 -0.2430 -0.2094
   61CHL1   H1A 5665   2.765   3.588   3.314 -0.4561  0.3111 -1.1581
   61CHL1   H1B 5666   2.890   3.468   3.302 -0.9679 -0.7943  0.8570
   61CHL1    C2 5667   2.810   3.532   3.112  0.0984  0.2298  0.2372
   61CHL1   H2A 5668   2.877   3.621   3.106 -0.0397  0.2989 -0.3581
   61CHL1   H2B 5669   2.712   3.563   3.070 -1.1082 -1.8964  1.3155
   61CHL1   C20 5670   2.467   3.259   3.950  0.1052 -0.1945  0.1257
   61CHL1   H20 5671   2.379   3.205   3.908  0.3271 -1.6904  1.4802
   61CHL1   C21 5672   2.438   3.411   3.976  0.4032  0.4300  0.2992
   61CHL1  H21A 5673   2.357   3.428   4.050  1.3930 -0.1323  1.5446
   61CHL1  H21B 5674   2.425   3.481   3.890 -0.8328  1.9035  1.6246
   61CHL1  H21C 5675   2.522   3.450   4.037 -0.9629  0.9339  1.9309
   61CHL1   C22 5676   2.485   3.199   4.097  1.2532  0.3848  0.2136
   61CHL1  H22A 5677   2.389   3.236   4.137  1.1598 -0.6177  0.9462
   61CHL1  H22B 5678   2.479   3.090   4.082 -0.2989  0.7613 -2.5846
   61CHL1   C23 5679   2.613   3.243   4.180  0.4089  0.4192  0.1449
   61CHL1  H23A 5680   2.701   3.249   4.112  0.5802  1.2069  0.4190
   61CHL1  H23B 5681   2.596   3.339   4.234  1.1999  0.1972  0.7948
   61CHL1   C24 5682   2.649   3.146   4.293  0.3181 -1.4636 -0.1753
   61CHL1  H24A 5683   2.644   3.047   4.242  0.7160 -2.4445  1.6236
   61CHL1  H24B 5684   2.753   3.156   4.330  0.4324  0.7776 -0.9607
   61CHL1   C25 5685   2.557   3.147   4.415  0.7080 -0.2874 -0.0915
   61CHL1   H25 5686   2.450   3.156   4.385  0.6789  1.1606  0.3561
   61CHL1   C26 5687   2.578   3.018   4.492 -0.2323  0.3793 -0.0475
   61CHL1  H26A 5688   2.528   2.937   4.434 -0.3786 -0.1650  0.8128
   61CHL1  H26B 5689   2.686   3.003   4.514 -0.6743  1.3357  3.4069
   61CHL1  H26C 5690   2.532   3.033   4.591  1.4582 -1.6935  1.1481
   61CHL1   C27 5691   2.581   3.264   4.511  0.0364 -0.2001  0.8555
   61CHL1  H27A 5692   2.690   3.277   4.530 -0.2316 -0.3354  2.6064
   61CHL1  H27B 5693   2.552   3.356   4.456 -0.3208 -1.0780 -0.4951
   61CHL1  H27C 5694   2.532   3.244   4.608  1.5654 -0.7835  1.5413
   62CHL1    C3 5695   4.615   3.367   2.992 -0.0705  1.0452 -0.1909
   62CHL1    H3 5696   4.698   3.323   3.051  1.7135  3.4516 -0.7353
   62CHL1    O3 5697   4.654   3.367   2.855 -0.2015 -0.5720 -0.5570
   62CHL1   H3' 5698   4.593   3.421   2.804 -0.3123  0.8648  0.9986
   62CHL1    C4 5699   4.492   3.275   3.006 -0.1779 -0.0841  0.5988
   62CHL1   H4A 5700   4.414   3.322   2.943  0.3668  0.2038  0.1232
   62CHL1   H4B 5701   4.508   3.175   2.961  0.7577 -0.7099  2.2534
   62CHL1    C5 5702   4.439   3.263   3.148  0.4846 -0.1263  0.4394
   62CHL1    C6 5703   4.425   3.142   3.200 -0.0109 -0.7265 -0.4342
   62CHL1    H6 5704   4.453   3.054   3.141 -0.3791 -1.2884  0.2184
   62CHL1    C7 5705   4.377   3.112   3.333 -0.1011  0.5358 -0.5920
   62CHL1   H7A 5706   4.280   3.059   3.331 -0.0729  0.4513  0.1467
   62CHL1   H7B 5707   4.468   3.063   3.373  0.3111  0.9666 -0.9793
   62CHL1    C8 5708   4.341   3.240   3.419 -0.2255 -0.0502 -0.3707
   62CHL1    H8 5709   4.236   3.265   3.391 -0.1054 -1.1067 -1.9157
   62CHL1   C14 5710   4.340   3.215   3.574  0.8062  0.0239  0.6814
   62CHL1   H14 5711   4.448   3.205   3.600  0.8990 -0.5336  0.1131
   62CHL1   C15 5712   4.266   3.094   3.621  0.1125 -0.0597  0.3243
   62CHL1  H15A 5713   4.164   3.076   3.583  0.3374 -0.5537 -0.0560
   62CHL1  H15B 5714   4.319   2.999   3.596 -2.8463 -1.3696 -1.5382
   62CHL1   C16 5715   4.253   3.117   3.773 -0.5221 -0.3717  0.0430
   62CHL1  H16A 5716   4.146   3.120   3.801 -0.9450 -0.3865 -1.4847
   62CHL1  H16B 5717   4.319   3.044   3.824  1.9738  0.6205 -1.5607
   62CHL1   C17 5718   4.308   3.266   3.800  0.4811  0.0575  0.4486
   62CHL1   H17 5719   4.416   3.254   3.821  0.2169 -0.8647  1.3138
   62CHL1   C13 5720   4.293   3.330   3.657  0.3909  0.4020 -0.6445
   62CHL1   C18 5721   4.138   3.352   3.634  0.3649 -0.6599  0.2007
   62CHL1  H18A 5722   4.100   3.439   3.691 -3.1182 -2.4836  0.8896
   62CHL1  H18B 5723   4.128   3.365   3.524  3.3835  0.7549 -0.0258
   62CHL1  H18C 5724   4.081   3.264   3.668  0.0250 -0.1845  0.8851
   62CHL1   C12 5725   4.381   3.450   3.632 -0.0354 -0.1373  0.9197
   62CHL1  H12A 5726   4.340   3.534   3.691 -1.0468 -0.2113  0.3428
   62CHL1  H12B 5727   4.486   3.431   3.665  0.2890 -2.6168 -1.1846
   62CHL1   C11 5728   4.376   3.485   3.483 -0.5834  0.0533 -0.3559
   62CHL1  H11A 5729   4.272   3.501   3.447 -0.6966 -3.5258 -2.0108
   62CHL1  H11B 5730   4.438   3.570   3.448 -0.9770  0.1152 -0.9141
   62CHL1    C9 5731   4.427   3.366   3.390  0.1062 -0.1174 -0.0378
   62CHL1    H9 5732   4.528   3.331   3.421 -0.0620 -1.5158 -1.0163
   62CHL1   C10 5733   4.428   3.394   3.234  0.5196 -0.1626  0.6859
   62CHL1   C19 5734   4.292   3.460   3.193 -0.5600 -0.0731 -0.1091
   62CHL1  H19A 5735   4.208   3.426   3.258 -2.0233 -0.1107 -1.9372
   62CHL1  H19B 5736   4.309   3.565   3.224  1.5162 -0.0486 -1.1806
   62CHL1  H19C 5737   4.265   3.446   3.086 -0.9161  0.6498 -0.1230
   62CHL1    C1 5738   4.549   3.481   3.201 -0.0369 -0.0701  0.1920
   62CHL1   H1A 5739   4.540   3.573   3.262 -1.8435  0.9250 -1.4519
   62CHL1   H1B 5740   4.639   3.428   3.238  1.8713  1.5062 -1.9258
   62CHL1    C2 5741   4.586   3.508   3.054  0.2037 -0.7110 -0.7508
   62CHL1   H2A 5742   4.679   3.568   3.047 -0.4645  0.5430  0.6415
   62CHL1   H2B 5743   4.500   3.561   3.008 -0.7788 -1.4753  0.1456
   62CHL1   C20 5744   4.242   3.335   3.917 -0.8274  0.3282  0.3419
   62CHL1   H20 5745   4.133   3.335   3.895 -0.7913 -1.6470 -0.0408
   62CHL1   C21 5746   4.295   3.480   3.941 -0.2183  0.2257  0.2621
   62CHL1  H21A 5747   4.263   3.522   4.039  1.3267  1.8229  0.1295
   62CHL1  H21B 5748   4.271   3.546   3.855  0.3085  1.2510  0.8863
   62CHL1  H21C 5749   4.406   3.478   3.948 -0.2316  0.4013  0.5161
   62CHL1   C22 5750   4.269   3.261   4.050  0.6045  0.1782  0.1398
   62CHL1  H22A 5751   4.288   3.156   4.020  2.9565  0.2862  1.0531
   62CHL1  H22B 5752   4.354   3.318   4.093 -0.4159  1.1850  0.8994
   62CHL1   C23 5753   4.155   3.272   4.158 -0.1109  0.8176 -0.1378
   62CHL1  H23A 5754   4.152   3.377   4.193  3.4129  0.3154  2.2014
   62CHL1  H23B 5755   4.062   3.236   4.110  0.7407 -2.0962  0.1614
   62CHL1   C24 5756   4.183   3.185   4.280  0.3546 -0.4640 -0.6169
   62CHL1  H24A 5757   4.193   3.077   4.256 -1.3477 -0.2594 -2.4815
   62CHL1  H24B 5758   4.274   3.223   4.332  0.0703  0.4869 -0.8037
   62CHL1   C25 5759   4.073   3.194   4.391  0.2555 -0.0598  0.7049
   62CHL1   H25 5760   3.978   3.164   4.341  0.5662 -1.7758  1.0782
   62CHL1   C26 5761   4.118   3.091   4.500  0.0315 -0.5646  0.1475
   62CHL1  H26A 5762   4.118   2.988   4.457 -1.1288  0.0263 -1.3729
   62CHL1  H26B 5763   4.225   3.109   4.525  0.7729 -3.0902 -0.8539
   62CHL1  H26C 5764   4.053   3.096   4.589  1.9803  1.8553  1.5492
   62CHL1   C27 5765   4.062   3.327   4.445  0.2049  0.3586 -0.7231
   62CHL1  H27A 5766   4.166   3.363   4.462  0.0430  1.0459 -1.1405
   62CHL1  H27B 5767   4.006   3.394   4.376 -0.3253  2.6123  1.7232
   62CHL1  H27C 5768   4.002   3.322   4.538  0.8815 -2.6087 -0.3328
   63CHL1    C3 5769   2.424   6.221   2.782  0.3134  0.5038 -0.4939
   63CHL1    H3 5770   2.535   6.227   2.786  0.3113  1.1677 -1.2265
   63CHL1    O3 5771   2.386   6.230   2.649 -0.1476  0.4450 -0.5554
   63CHL1   H3' 5772   2.293   6.206   2.647 -0.1793  0.5942 -1.7526
   63CHL1    C4 5773   2.375   6.090   2.832  0.5035 -0.7859 -0.3545
   63CHL1   H4A 5774   2.266   6.074   2.814  0.7863  0.3052 -3.5890
   63CHL1   H4B 5775   2.420   6.001   2.783  0.6533 -1.6802  1.3234
   63CHL1    C5 5776   2.392   6.080   2.982 -0.6532  0.5182  0.1428
   63CHL1    C6 5777   2.448   5.974   3.037  0.2804  0.1333  0.4722
   63CHL1    H6 5778   2.488   5.896   2.971  0.4387  0.4999  0.1291
   63CHL1    C7 5779   2.455   5.942   3.182 -0.2850  0.4037 -0.1646
   63CHL1   H7A 5780   2.413   5.841   3.200 -0.9987 -0.0119 -3.5964
   63CHL1   H7B 5781   2.555   5.966   3.225  0.0485 -0.8074 -0.2331
   63CHL1    C8 5782   2.353   6.030   3.268  0.8297  0.2899 -0.6581
   63CHL1    H8 5783   2.254   5.985   3.249  1.8159 -2.8789  1.0980
   63CHL1   C14 5784   2.395   6.017   3.416 -0.1155 -0.3599  0.1876
   63CHL1   H14 5785   2.492   6.069   3.434 -1.2164  1.8626  0.0171
   63CHL1   C15 5786   2.412   5.876   3.476 -0.1908  0.0833  0.7044
   63CHL1  H15A 5787   2.346   5.800   3.429  0.0915  0.3743 -0.1762
   63CHL1  H15B 5788   2.518   5.848   3.458 -1.3902 -3.4381 -2.2677
   63CHL1   C16 5789   2.382   5.897   3.628  0.7408  0.2398  0.3657
   63CHL1  H16A 5790   2.289   5.844   3.657 -0.5468  1.9380 -0.4667
   63CHL1  H16B 5791   2.465   5.875   3.698 -1.3350 -2.7677  2.0867
   63CHL1   C17 5792   2.337   6.045   3.640  0.2675 -0.2873 -0.0877
   63CHL1   H17 5793   2.433   6.097   3.661  0.7175 -1.5405  1.1758
   63CHL1   C13 5794   2.299   6.097   3.503  0.8266  0.3653  0.4440
   63CHL1   C18 5795   2.152   6.044   3.479 -0.3777 -0.0444 -0.2040
   63CHL1  H18A 5796   2.081   6.088   3.553  0.5323 -0.7751  1.1500
   63CHL1  H18B 5797   2.117   6.074   3.378  2.3834  0.9040 -0.9560
   63CHL1  H18C 5798   2.141   5.936   3.499  0.1255 -0.2091 -0.8082
   63CHL1   C12 5799   2.307   6.252   3.470 -0.1144  0.5338 -0.2804
   63CHL1  H12A 5800   2.237   6.310   3.534 -1.8816 -2.7035  0.9158
   63CHL1  H12B 5801   2.412   6.286   3.484  0.0692 -0.6261  1.3532
   63CHL1   C11 5802   2.283   6.271   3.314 -1.0229 -0.8329 -0.4321
   63CHL1  H11A 5803   2.174   6.249   3.306 -1.5289 -0.3032  3.3407
   63CHL1  H11B 5804   2.301   6.376   3.285 -1.8242 -0.3049  0.9097
   63CHL1    C9 5805   2.360   6.181   3.222  0.1882  0.7539  0.3788
   63CHL1    H9 5806   2.467   6.207   3.234  0.5693 -0.3627 -0.3584
   63CHL1   C10 5807   2.331   6.192   3.067  0.5444 -0.7745 -0.2843
   63CHL1   C19 5808   2.175   6.182   3.037 -0.1727 -0.3023 -0.2943
   63CHL1  H19A 5809   2.147   6.185   2.930 -2.7947  2.5427  0.3447
   63CHL1  H19B 5810   2.141   6.089   3.088  3.2504 -1.9111 -0.6755
   63CHL1  H19C 5811   2.131   6.275   3.079  0.4582 -0.0028 -0.2836
   63CHL1    C1 5812   2.386   6.322   3.009 -0.0991 -0.7243  0.0204
   63CHL1   H1A 5813   2.357   6.411   3.069  2.3392 -1.1429  1.9835
   63CHL1   H1B 5814   2.496   6.316   3.026  0.4224 -1.5015 -2.9393
   63CHL1    C2 5815   2.379   6.349   2.859  0.1386 -0.3743  0.2233
   63CHL1   H2A 5816   2.438   6.436   2.822 -2.3828  1.0466 -0.7008
   63CHL1   H2B 5817   2.271   6.362   2.836  0.3411  1.2652  0.0593
   63CHL1   C20 5818   2.240   6.068   3.759 -0.8895  0.1032  0.0473
   63CHL1   H20 5819   2.148   6.011   3.736 -0.6227 -0.2590 -0.1363
   63CHL1   C21 5820   2.199   6.219   3.779 -0.5853 -0.3107  0.2893
   63CHL1  H21A 5821   2.288   6.285   3.790 -1.3268  0.8467 -0.5039
   63CHL1  H21B 5822   2.136   6.215   3.871 -1.2973  0.6013 -0.1492
   63CHL1  H21C 5823   2.144   6.247   3.687  0.1420  2.6562  0.6719
   63CHL1   C22 5824   2.292   6.014   3.892  0.1021 -0.1263 -0.1911
   63CHL1  H22A 5825   2.227   6.044   3.977  0.0768 -0.0141 -0.2509
   63CHL1  H22B 5826   2.288   5.903   3.885  2.3108 -0.3184  0.8380
   63CHL1   C23 5827   2.430   6.066   3.936  0.0957 -0.3771  0.1855
   63CHL1  H23A 5828   2.512   6.030   3.870  0.6629 -0.3294  0.8467
   63CHL1  H23B 5829   2.427   6.177   3.925 -1.3264 -0.4998 -0.9020
   63CHL1   C24 5830   2.464   6.040   4.085  0.9529 -0.8794  0.0776
   63CHL1  H24A 5831   2.556   6.100   4.104  1.2862  0.0266 -3.5563
   63CHL1  H24B 5832   2.382   6.081   4.148  1.2543 -0.3756  0.1501
   63CHL1   C25 5833   2.484   5.891   4.127 -1.1760  0.2565  0.0199
   63CHL1   H25 5834   2.391   5.838   4.099 -1.8673  1.1145  0.6382
   63CHL1   C26 5835   2.606   5.834   4.050  1.0329  0.3046 -0.0026
   63CHL1  H26A 5836   2.701   5.876   4.091  1.0263 -0.7562  1.1702
   63CHL1  H26B 5837   2.621   5.724   4.058  2.5199  0.4348 -0.5924
   63CHL1  H26C 5838   2.601   5.866   3.943 -2.9960  1.5706  0.4169
   63CHL1   C27 5839   2.506   5.884   4.277 -0.3068 -0.1577 -0.3121
   63CHL1  H27A 5840   2.549   5.784   4.302  0.2435  0.3621  0.9053
   63CHL1  H27B 5841   2.575   5.958   4.324  0.5669 -1.7934  1.1322
   63CHL1  H27C 5842   2.418   5.905   4.342  0.2786 -1.8459  1.1030
   64CHL1    C3 5843   0.045   4.352   3.030 -0.3160 -0.1336 -0.6460
   64CHL1    H3 5844   0.010   4.457   3.038  0.6480  0.1410  0.3472
   64CHL1    O3 5845   0.034   4.307   2.896  0.5437 -0.4711 -0.7621
   64CHL1   H3' 5846   0.124   4.309   2.862  0.3372  0.6190 -1.2747
   64CHL1    C4 5847   0.192   4.346   3.072 -0.2103 -0.2957  0.9024
   64CHL1   H4A 5848   0.245   4.257   3.033 -0.1850  0.1329 -0.0941
   64CHL1   H4B 5849   0.237   4.428   3.010 -1.6662 -0.2927 -0.2178
   64CHL1    C5 5850   0.214   4.380   3.217  0.3977  0.1538  0.0956
   64CHL1    C6 5851   0.305   4.477   3.254  0.0846  0.3426  0.6756
   64CHL1    H6 5852   0.366   4.525   3.175 -1.3425  0.0070 -0.6845
   64CHL1    C7 5853   0.326   4.513   3.396 -0.3892  1.0484  0.0268
   64CHL1   H7A 5854   0.432   4.528   3.424  0.2048 -1.5855 -0.5320
   64CHL1   H7B 5855   0.270   4.607   3.415 -3.1883  0.8114 -5.1899
   64CHL1    C8 5856   0.267   4.404   3.489 -0.2804 -0.5330 -0.6393
   64CHL1    H8 5857   0.335   4.317   3.475  2.4028  1.5733 -1.6427
   64CHL1   C14 5858   0.278   4.452   3.639 -0.3223 -0.0136  0.4371
   64CHL1   H14 5859   0.209   4.539   3.644 -2.0202 -1.1703 -1.3032
   64CHL1   C15 5860   0.411   4.506   3.684 -0.2172 -1.0480  1.1118
   64CHL1  H15A 5861   0.492   4.443   3.641  0.1619 -0.1862  0.5385
   64CHL1  H15B 5862   0.422   4.612   3.651  2.6593 -1.5717  0.0487
   64CHL1   C16 5863   0.410   4.497   3.838  0.0975 -0.7218 -0.4089
   64CHL1  H16A 5864   0.486   4.427   3.880  1.0491  1.2944  1.3982
   64CHL1  H16B 5865   0.403   4.598   3.884 -2.2729 -1.2190  0.4785
   64CHL1   C17 5866   0.260   4.443   3.867 -0.8673 -0.3866 -0.2337
   64CHL1   H17 5867   0.197   4.535   3.866  0.5476  0.6087 -0.1446
   64CHL1   C13 5868   0.222   4.361   3.744 -0.9158 -0.3267  0.1267
   64CHL1   C18 5869   0.298   4.227   3.749 -0.5455 -0.7575  0.0885
   64CHL1  H18A 5870   0.402   4.231   3.789 -0.0688 -0.1245 -1.1610
   64CHL1  H18B 5871   0.247   4.152   3.813  1.1859 -2.6404 -0.6216
   64CHL1  H18C 5872   0.311   4.187   3.647 -0.6819  1.8126 -1.0168
   64CHL1   C12 5873   0.073   4.341   3.703  0.3974  0.0610 -0.9687
   64CHL1  H12A 5874   0.019   4.271   3.771  1.1624  2.2860  2.1893
   64CHL1  H12B 5875   0.024   4.440   3.709  0.4712  0.3068 -3.5205
   64CHL1   C11 5876   0.056   4.285   3.566 -0.3467 -0.3079 -0.3160
   64CHL1  H11A 5877   0.094   4.181   3.569 -3.6472 -1.6031 -0.0583
   64CHL1  H11B 5878  -0.053   4.278   3.550 -0.3614  2.2627 -2.0721
   64CHL1    C9 5879   0.124   4.374   3.452  0.1441 -0.1974  0.8564
   64CHL1    H9 5880   0.060   4.465   3.454 -1.0130 -0.9959  1.6552
   64CHL1   C10 5881   0.120   4.307   3.308  0.1463 -0.1859 -0.5489
   64CHL1   C19 5882   0.165   4.160   3.321  0.7058  0.0872  0.1233
   64CHL1  H19A 5883   0.184   4.127   3.217 -1.7018 -0.4686 -0.2048
   64CHL1  H19B 5884   0.261   4.143   3.375  1.9166 -0.1463 -1.9998
   64CHL1  H19C 5885   0.082   4.106   3.373  0.4767  0.6563  0.3514
   64CHL1    C1 5886  -0.026   4.307   3.265 -0.9936 -0.2334  0.1531
   64CHL1   H1A 5887  -0.095   4.260   3.338 -1.1276 -0.4825 -0.1290
   64CHL1   H1B 5888  -0.069   4.408   3.275  0.6853  0.5708 -0.3811
   64CHL1    C2 5889  -0.043   4.271   3.120 -0.2230  0.2727 -0.1251
   64CHL1   H2A 5890  -0.148   4.287   3.090 -0.9514 -0.9589  1.5965
   64CHL1   H2B 5891  -0.013   4.164   3.112  0.4256  0.1638  2.7220
   64CHL1   C20 5892   0.242   4.391   4.006 -0.2663 -0.7002  0.1851
   64CHL1   H20 5893   0.290   4.293   4.027  0.0536 -0.1841  1.9685
   64CHL1   C21 5894   0.096   4.397   4.036  0.1949  1.3335 -0.5897
   64CHL1  H21A 5895   0.028   4.346   3.963  0.0123  0.4179  0.1964
   64CHL1  H21B 5896   0.057   4.501   4.041  2.4933  2.2199  0.2260
   64CHL1  H21C 5897   0.064   4.347   4.129  0.2519 -0.3148 -1.4150
   64CHL1   C22 5898   0.322   4.486   4.106 -0.1576  0.2298 -0.6911
   64CHL1  H22A 5899   0.428   4.456   4.087  0.0288  0.2644  0.2539
   64CHL1  H22B 5900   0.312   4.591   4.071 -2.5188  0.1630 -0.3343
   64CHL1   C23 5901   0.291   4.461   4.255 -0.0692 -0.2212  0.4883
   64CHL1  H23A 5902   0.192   4.505   4.277 -0.4501  0.7119 -2.6498
   64CHL1  H23B 5903   0.281   4.351   4.268 -0.2109  0.0192  2.9338
   64CHL1   C24 5904   0.395   4.518   4.358 -0.3242 -0.1845  0.2413
   64CHL1  H24A 5905   0.446   4.606   4.314  0.1817 -0.3704  0.4407
   64CHL1  H24B 5906   0.340   4.545   4.450 -0.2949 -1.0638  0.5225
   64CHL1   C25 5907   0.517   4.418   4.382 -0.0313 -0.1793  0.0519
   64CHL1   H25 5908   0.537   4.365   4.287 -0.1904 -0.0423 -0.0584
   64CHL1   C26 5909   0.650   4.485   4.424  1.0385  0.3165  0.2223
   64CHL1  H26A 5910   0.628   4.543   4.516  1.7044  0.3773  0.3471
   64CHL1  H26B 5911   0.726   4.411   4.458 -1.4693 -0.9626  3.6270
   64CHL1  H26C 5912   0.694   4.552   4.347  0.8749  1.1817  0.8662
   64CHL1   C27 5913   0.483   4.302   4.490 -0.3494 -0.4061 -0.0065
   64CHL1  H27A 5914   0.450   4.350   4.585  1.5953 -0.1280  0.5567
   64CHL1  H27B 5915   0.412   4.232   4.442  0.8980  0.4541 -3.3862
   64CHL1  H27C 5916   0.570   4.240   4.519  0.2064 -0.0870 -0.9551
   65CHL1    C3 5917   5.375   3.523   3.068  0.4344 -0.3447 -0.3307
   65CHL1    H3 5918   5.264   3.534   3.068  0.2947 -1.3397  1.5354
   65CHL1    O3 5919   5.424   3.506   2.937  0.2772  0.2620  0.3032
   65CHL1   H3' 5920   5.376   3.567   2.881  0.7054 -1.1428 -1.6874
   65CHL1    C4 5921   5.448   3.644   3.131 -0.6488  0.3570  0.4019
   65CHL1   H4A 5922   5.558   3.629   3.130 -0.8999 -1.9927  0.8694
   65CHL1   H4B 5923   5.423   3.731   3.068  0.6985  2.4068  2.5389
   65CHL1    C5 5924   5.400   3.661   3.274  0.0525 -0.6981  0.4347
   65CHL1    C6 5925   5.344   3.784   3.310  0.5175 -0.0134  0.0326
   65CHL1    H6 5926   5.327   3.869   3.242 -0.5383 -1.6119 -1.8076
   65CHL1    C7 5927   5.306   3.805   3.452  0.2104  0.3570 -0.6706
   65CHL1   H7A 5928   5.348   3.899   3.493 -1.8610  0.4966  1.3143
   65CHL1   H7B 5929   5.196   3.809   3.463  0.4045  2.3256  1.3522
   65CHL1    C8 5930   5.354   3.696   3.551 -0.7532 -0.7335  0.3691
   65CHL1    H8 5931   5.464   3.707   3.560 -0.6262  2.3073 -2.9638
   65CHL1   C14 5932   5.280   3.728   3.679  0.0861  0.2658 -0.0695
   65CHL1   H14 5933   5.171   3.715   3.661 -0.0131 -2.7033  1.9471
   65CHL1   C15 5934   5.298   3.862   3.746  0.4799 -0.2178  0.0355
   65CHL1  H15A 5935   5.408   3.879   3.753  0.3895 -0.0067  0.9894
   65CHL1  H15B 5936   5.246   3.940   3.687 -2.1690 -1.6765  0.2836
   65CHL1   C16 5937   5.243   3.850   3.891  0.1426  0.2270 -0.1799
   65CHL1  H16A 5938   5.314   3.897   3.963 -0.7582 -0.3129  1.1132
   65CHL1  H16B 5939   5.146   3.899   3.912  0.6673  0.3430  2.4021
   65CHL1   C17 5940   5.230   3.691   3.910 -0.7135 -0.1395 -0.6458
   65CHL1   H17 5941   5.123   3.665   3.896 -0.7234  0.2975 -1.3873
   65CHL1   C13 5942   5.307   3.633   3.794  0.1588 -0.2124 -0.1801
   65CHL1   C18 5943   5.453   3.620   3.838  0.4620 -0.1019  0.1891
   65CHL1  H18A 5944   5.520   3.598   3.752 -2.4466 -0.5894 -2.1110
   65CHL1  H18B 5945   5.478   3.720   3.881  1.4750 -0.0528 -0.4828
   65CHL1  H18C 5946   5.467   3.546   3.920  0.2634 -1.7536 -1.2319
   65CHL1   C12 5947   5.257   3.496   3.738 -0.3088 -0.5065 -0.2660
   65CHL1  H12A 5948   5.266   3.404   3.800  0.1647 -1.0241 -1.0836
   65CHL1  H12B 5949   5.148   3.511   3.721 -0.3984 -2.9613 -2.4052
   65CHL1   C11 5950   5.332   3.451   3.608 -0.2021 -0.4848 -0.2578
   65CHL1  H11A 5951   5.438   3.427   3.634  0.3790  0.4607 -1.6102
   65CHL1  H11B 5952   5.283   3.359   3.572 -0.0591 -0.0243 -1.6773
   65CHL1    C9 5953   5.327   3.560   3.502 -0.3118 -0.2970 -0.4101
   65CHL1    H9 5954   5.221   3.563   3.470 -0.2019 -5.4329 -2.1040
   65CHL1   C10 5955   5.411   3.533   3.369 -0.1095 -0.1629 -0.3513
   65CHL1   C19 5956   5.558   3.510   3.406 -0.8924 -0.1588 -0.6997
   65CHL1  H19A 5957   5.601   3.608   3.437 -1.3313  0.5919 -2.3189
   65CHL1  H19B 5958   5.569   3.422   3.472  0.7607 -0.7788 -1.7431
   65CHL1  H19C 5959   5.621   3.481   3.319  1.2652  2.2633 -0.0788
   65CHL1    C1 5960   5.351   3.411   3.293 -0.2644  0.4315 -0.5610
   65CHL1   H1A 5961   5.389   3.318   3.340  1.6763  1.1808 -0.5325
   65CHL1   H1B 5962   5.240   3.411   3.283 -0.4724  1.3412  1.2473
   65CHL1    C2 5963   5.402   3.392   3.149 -0.3533 -0.1889 -0.1541
   65CHL1   H2A 5964   5.354   3.296   3.120 -0.5211 -0.4607  0.9960
   65CHL1   H2B 5965   5.512   3.380   3.153 -0.3634 -0.1054  0.5179
   65CHL1   C20 5966   5.265   3.648   4.054  0.2323  0.3222  0.3765
   65CHL1   H20 5967   5.375   3.662   4.067  0.1010  1.7004  0.1309
   65CHL1   C21 5968   5.233   3.499   4.067  0.1842 -0.0412  1.0586
   65CHL1  H21A 5969   5.288   3.437   3.993  1.6812 -2.5485  4.0308
   65CHL1  H21B 5970   5.124   3.477   4.059  0.0681  0.7517  0.3879
   65CHL1  H21C 5971   5.264   3.458   4.166  0.8837 -0.8673  0.5173
   65CHL1   C22 5972   5.186   3.722   4.161 -0.6592  0.6640 -0.7156
   65CHL1  H22A 5973   5.205   3.829   4.140  1.1967  0.0635 -2.3713
   65CHL1  H22B 5974   5.078   3.697   4.150 -0.5982 -1.5010  2.2705
   65CHL1   C23 5975   5.228   3.706   4.312  0.9694  0.2217  0.1662
   65CHL1  H23A 5976   5.180   3.785   4.373  0.4300  0.7368 -0.8978
   65CHL1  H23B 5977   5.190   3.607   4.346  1.9625  0.0444  0.7944
   65CHL1   C24 5978   5.380   3.711   4.333  0.2456 -0.0409 -0.1234
   65CHL1  H24A 5979   5.423   3.618   4.291 -0.2231  0.8943 -2.8704
   65CHL1  H24B 5980   5.412   3.803   4.280 -1.7558  1.1116  0.5443
   65CHL1   C25 5981   5.429   3.709   4.484 -0.8870 -0.1868  0.5074
   65CHL1   H25 5982   5.537   3.726   4.467 -0.7883  0.3652  1.5529
   65CHL1   C26 5983   5.379   3.843   4.545  0.5400  0.4878 -0.4785
   65CHL1  H26A 5984   5.384   3.924   4.469  2.1829  1.4805  0.6314
   65CHL1  H26B 5985   5.273   3.834   4.575  0.5470 -0.4475 -0.6786
   65CHL1  H26C 5986   5.452   3.869   4.625  2.1771 -0.2944 -1.6553
   65CHL1   C27 5987   5.394   3.582   4.569 -0.3322 -0.6482 -0.4366
   65CHL1  H27A 5988   5.285   3.568   4.584 -0.1540  0.9413  3.3887
   65CHL1  H27B 5989   5.434   3.491   4.519 -1.9713 -1.0114 -1.1523
   65CHL1  H27C 5990   5.433   3.602   4.671  1.1100  0.0375 -1.0934
   66CHL1    C3 5991   2.136   3.713   3.280 -0.5307  0.0060 -0.1520
   66CHL1    H3 5992   2.173   3.817   3.295  1.6859 -0.8750  1.0504
   66CHL1    O3 5993   2.174   3.662   3.156 -0.9541 -0.1888  0.2426
   66CHL1   H3' 5994   2.129   3.707   3.084  1.5147  0.4752 -0.9907
   66CHL1    C4 5995   2.199   3.629   3.385  0.0175 -0.7501 -0.2761
   66CHL1   H4A 5996   2.165   3.526   3.365 -0.2410 -1.0894  1.7204
   66CHL1   H4B 5997   2.309   3.632   3.370  0.1490 -1.7078  0.4046
   66CHL1    C5 5998   2.162   3.658   3.525  0.1351 -0.3616 -0.6021
   66CHL1    C6 5999   2.251   3.695   3.616 -0.1808 -0.4948  0.6306
   66CHL1    H6 6000   2.355   3.688   3.580 -0.3368 -1.1885  0.3130
   66CHL1    C7 6001   2.211   3.717   3.761 -0.3987  0.2666 -0.2049
   66CHL1   H7A 6002   2.278   3.659   3.828 -0.2743 -0.3154 -0.8195
   66CHL1   H7B 6003   2.216   3.824   3.788  0.6223  0.1506  0.1393
   66CHL1    C8 6004   2.064   3.678   3.805 -0.5264  0.4983 -0.3479
   66CHL1    H8 6005   2.053   3.569   3.827  0.2619  0.9129  2.4960
   66CHL1   C14 6006   2.024   3.756   3.925 -0.3407 -0.5640 -0.3841
   66CHL1   H14 6007   2.015   3.864   3.901 -1.5710 -0.7918 -1.0014
   66CHL1   C15 6008   2.122   3.758   4.049 -0.1347  0.6429 -0.0364
   66CHL1  H15A 6009   2.142   3.650   4.068  2.0601  1.1722  1.0126
   66CHL1  H15B 6010   2.218   3.814   4.041  0.3868 -0.1979  0.2247
   66CHL1   C16 6011   2.031   3.809   4.159  0.6576 -0.2095 -0.3884
   66CHL1  H16A 6012   2.037   3.731   4.238  0.4446  0.3591  0.2006
   66CHL1  H16B 6013   2.053   3.911   4.198  0.9919 -0.4933  0.1768
   66CHL1   C17 6014   1.884   3.813   4.109  0.4274  0.2547  0.2046
   66CHL1   H17 6015   1.871   3.914   4.066 -0.7341 -0.0608 -0.2015
   66CHL1   C13 6016   1.890   3.719   3.986  0.0249  0.4983 -0.6394
   66CHL1   C18 6017   1.880   3.569   4.037  0.4153  0.3007  0.4180
   66CHL1  H18A 6018   1.959   3.530   4.104 -2.6820 -1.7400  3.1876
   66CHL1  H18B 6019   1.792   3.555   4.102 -0.4677  2.2433 -0.2640
   66CHL1  H18C 6020   1.865   3.499   3.952  0.8958 -2.6281  2.6261
   66CHL1   C12 6021   1.782   3.740   3.872 -0.2920  0.2371  0.2074
   66CHL1  H12A 6022   1.689   3.691   3.908 -0.7423  1.3823  0.6679
   66CHL1  H12B 6023   1.777   3.851   3.859  0.8802  0.1346 -1.3043
   66CHL1   C11 6024   1.820   3.677   3.739  0.1419 -0.1237 -0.2502
   66CHL1  H11A 6025   1.817   3.569   3.766 -1.2049  0.1320  0.6842
   66CHL1  H11B 6026   1.749   3.695   3.655 -1.3819 -3.0061  0.2861
   66CHL1    C9 6027   1.965   3.711   3.695  0.6336 -0.5665 -0.4370
   66CHL1    H9 6028   1.969   3.821   3.682  0.6561 -0.5734 -0.4894
   66CHL1   C10 6029   2.004   3.659   3.553 -0.1610 -0.0659  0.0457
   66CHL1   C19 6030   1.952   3.515   3.537 -0.3378 -0.2947 -0.0540
   66CHL1  H19A 6031   1.847   3.497   3.571 -0.2162 -1.3742 -0.2189
   66CHL1  H19B 6032   1.952   3.474   3.434 -2.1236  0.4717 -0.4025
   66CHL1  H19C 6033   2.007   3.440   3.598 -0.2590  0.2021  0.5026
   66CHL1    C1 6034   1.943   3.756   3.445 -0.0398  1.0546 -0.2245
   66CHL1   H1A 6035   1.833   3.754   3.431 -0.1648  1.8257  0.6262
   66CHL1   H1B 6036   1.966   3.863   3.458  0.3604  1.0441 -0.7827
   66CHL1    C2 6037   1.984   3.719   3.298 -0.0781 -0.1016 -0.4898
   66CHL1   H2A 6038   1.953   3.806   3.235 -0.8138  0.9658  1.2608
   66CHL1   H2B 6039   1.933   3.627   3.265 -0.6021  0.0134 -0.0140
   66CHL1   C20 6040   1.782   3.805   4.223  0.3890  0.5049 -0.7045
   66CHL1   H20 6041   1.777   3.702   4.263  2.0920  0.5243 -0.3741
   66CHL1   C21 6042   1.653   3.855   4.161  0.1157 -0.1215 -0.3753
   66CHL1  H21A 6043   1.627   3.796   4.070  3.1153 -2.9366  0.3814
   66CHL1  H21B 6044   1.652   3.957   4.119 -1.2071 -0.8524 -2.2223
   66CHL1  H21C 6045   1.575   3.872   4.238  1.7988  2.2707  0.9293
   66CHL1   C22 6046   1.817   3.889   4.346  0.0579 -0.1338 -0.1722
   66CHL1  H22A 6047   1.920   3.867   4.383 -0.1364  1.0577  1.2014
   66CHL1  H22B 6048   1.798   3.996   4.322 -0.3064  0.0161  0.7221
   66CHL1   C23 6049   1.734   3.845   4.469 -0.9615  0.3015  0.6131
   66CHL1  H23A 6050   1.627   3.840   4.441 -0.9219  0.9647  0.3124
   66CHL1  H23B 6051   1.771   3.742   4.487  2.7015  1.1908 -0.8564
   66CHL1   C24 6052   1.776   3.919   4.596  0.4026  1.1038 -0.1470
   66CHL1  H24A 6053   1.881   3.895   4.622  0.7907  1.5951 -1.1934
   66CHL1  H24B 6054   1.752   4.028   4.600 -2.2351  0.5681  0.0706
   66CHL1   C25 6055   1.686   3.859   4.717  0.1735 -0.5510 -0.4367
   66CHL1   H25 6056   1.726   3.756   4.730  2.4814  0.3918  0.6340
   66CHL1   C26 6057   1.722   3.922   4.855 -0.4076  0.2711 -0.2951
   66CHL1  H26A 6058   1.825   3.891   4.882 -0.1116  1.0127 -0.5545
   66CHL1  H26B 6059   1.715   4.033   4.851  0.1801  0.3124 -0.2444
   66CHL1  H26C 6060   1.650   3.892   4.934 -2.1033  1.2403 -1.3931
   66CHL1   C27 6061   1.540   3.871   4.692  0.2153  0.4282  0.0119
   66CHL1  H27A 6062   1.510   3.977   4.705  0.5567  0.6859 -1.1386
   66CHL1  H27B 6063   1.480   3.812   4.764 -0.4730 -0.9759 -1.6238
   66CHL1  H27C 6064   1.492   3.842   4.596 -0.7762  1.0623  0.3032
   67CHL1    C3 6065   2.077   6.756   2.829  0.6808 -0.0009  0.7794
   67CHL1    H3 6066   2.130   6.853   2.829 -0.6044  0.7548 -0.7711
   67CHL1    O3 6067   2.075   6.725   2.689  0.4141  0.0332 -0.2991
   67CHL1   H3' 6068   2.076   6.630   2.676 -1.1009 -0.0258 -0.1298
   67CHL1    C4 6069   2.170   6.659   2.906  0.4186 -0.8377 -0.9584
   67CHL1   H4A 6070   2.136   6.553   2.904  1.0155 -1.1485  1.6226
   67CHL1   H4B 6071   2.272   6.664   2.861  0.6177 -1.9154 -0.6534
   67CHL1    C5 6072   2.166   6.702   3.056  0.0617  0.1201  0.3213
   67CHL1    C6 6073   2.276   6.730   3.124 -0.5716  0.0534  0.0726
   67CHL1    H6 6074   2.374   6.722   3.076  0.2959  2.5779  1.2553
   67CHL1    C7 6075   2.281   6.750   3.268  0.1763 -0.8712 -0.1199
   67CHL1   H7A 6076   2.375   6.700   3.301  2.3026  2.3929 -0.7505
   67CHL1   H7B 6077   2.306   6.856   3.285 -0.6041 -0.5419 -0.9417
   67CHL1    C8 6078   2.161   6.704   3.341 -0.1538 -0.5150  0.0952
   67CHL1    H8 6079   2.162   6.593   3.336 -0.7804 -0.4864 -1.6281
   67CHL1   C14 6080   2.161   6.747   3.485 -0.0730  0.2454 -0.1298
   67CHL1   H14 6081   2.163   6.858   3.483  0.7347  0.2390 -2.0672
   67CHL1   C15 6082   2.277   6.706   3.578  0.1491  0.1465 -0.0109
   67CHL1  H15A 6083   2.322   6.607   3.557 -0.6240 -0.2543  0.2208
   67CHL1  H15B 6084   2.357   6.782   3.563  0.0924  0.1863 -0.1121
   67CHL1   C16 6085   2.221   6.732   3.721  0.0638  0.5881  0.7072
   67CHL1  H16A 6086   2.218   6.632   3.768 -0.9918 -0.3018 -1.1386
   67CHL1  H16B 6087   2.280   6.812   3.771 -0.5268  1.6827 -0.2792
   67CHL1   C17 6088   2.065   6.767   3.702  0.5665  0.0160  0.0544
   67CHL1   H17 6089   2.048   6.876   3.689 -1.8812 -0.5387 -2.3172
   67CHL1   C13 6090   2.030   6.709   3.564 -0.6163 -0.3965 -0.0858
   67CHL1   C18 6091   2.019   6.553   3.578 -0.1422  0.0229  0.1285
   67CHL1  H18A 6092   1.931   6.526   3.639  0.7743 -2.2057  0.5745
   67CHL1  H18B 6093   1.998   6.499   3.483 -0.8359 -1.1613  0.9416
   67CHL1  H18C 6094   2.116   6.505   3.606 -0.4233  0.3658  1.7477
   67CHL1   C12 6095   1.910   6.769   3.489  0.2079 -0.2879  0.0817
   67CHL1  H12A 6096   1.812   6.740   3.534 -0.0386 -3.2427 -2.0589
   67CHL1  H12B 6097   1.927   6.878   3.486 -0.7670 -0.1224  0.1713
   67CHL1   C11 6098   1.900   6.714   3.345  0.3381 -0.3012  0.5257
   67CHL1  H11A 6099   1.900   6.604   3.352  2.1051 -0.2394  3.9023
   67CHL1  H11B 6100   1.808   6.758   3.301  1.0681  0.0249 -0.7151
   67CHL1    C9 6101   2.031   6.749   3.263 -0.1223 -0.0912 -0.6598
   67CHL1    H9 6102   2.028   6.860   3.263 -0.5091 -0.0370  1.8999
   67CHL1   C10 6103   2.025   6.701   3.120 -0.4841  0.5715 -0.3824
   67CHL1   C19 6104   1.961   6.565   3.104  0.2576  0.5512 -0.3468
   67CHL1  H19A 6105   2.033   6.494   3.151 -2.8739 -2.3051  0.5400
   67CHL1  H19B 6106   1.862   6.560   3.155  0.8329  0.1255  0.7686
   67CHL1  H19C 6107   1.946   6.528   3.001 -3.0184 -0.0198  0.2335
   67CHL1    C1 6108   1.954   6.816   3.043 -0.0175  0.3944 -0.5792
   67CHL1   H1A 6109   1.848   6.823   3.076  0.7335  1.3696  1.8150
   67CHL1   H1B 6110   1.986   6.921   3.060  0.8171 -0.1212  1.2581
   67CHL1    C2 6111   1.940   6.773   2.888 -0.5036 -0.3955 -0.3042
   67CHL1   H2A 6112   1.886   6.859   2.843 -0.4536  0.3021  0.8953
   67CHL1   H2B 6113   1.885   6.678   2.880 -1.7655  0.1517  1.2833
   67CHL1   C20 6114   1.986   6.745   3.833  0.5400  1.0185  0.7171
   67CHL1   H20 6115   1.962   6.640   3.860 -2.1642  1.4630  0.3038
   67CHL1   C21 6116   1.855   6.833   3.823 -0.8291 -0.0358  0.3199
   67CHL1  H21A 6117   1.801   6.810   3.917 -1.5511 -1.7045 -0.4650
   67CHL1  H21B 6118   1.776   6.809   3.748 -1.6922  2.4423  0.3134
   67CHL1  H21C 6119   1.892   6.938   3.817  2.1220 -0.9910  0.2155
   67CHL1   C22 6120   2.068   6.803   3.952 -0.6660  0.0533  0.2293
   67CHL1  H22A 6121   2.138   6.723   3.984 -0.3081  0.4748  0.5112
   67CHL1  H22B 6122   2.134   6.882   3.910  0.3228 -1.2696 -0.8185
   67CHL1   C23 6123   1.988   6.851   4.071 -0.5399  0.1147 -0.7737
   67CHL1  H23A 6124   1.915   6.933   4.053 -0.7867 -0.0084 -0.3575
   67CHL1  H23B 6125   1.945   6.766   4.127 -2.1027  2.4519  1.8142
   67CHL1   C24 6126   2.089   6.900   4.177 -0.6697  0.2518 -0.0049
   67CHL1  H24A 6127   2.157   6.816   4.201  1.5286  1.9313 -0.0954
   67CHL1  H24B 6128   2.151   6.981   4.133  0.3128 -0.9009 -0.8071
   67CHL1   C25 6129   2.040   6.937   4.318 -0.7115 -0.1613 -0.2967
   67CHL1   H25 6130   1.974   6.862   4.366 -2.1820  1.3963  0.2036
   67CHL1   C26 6131   2.164   6.936   4.410 -0.1085  0.7494 -0.0329
   67CHL1  H26A 6132   2.206   6.834   4.418  0.4895  0.8480 -1.5570
   67CHL1  H26B 6133   2.245   7.003   4.374  0.3758  0.8263  1.1407
   67CHL1  H26C 6134   2.125   6.968   4.509 -2.5488 -2.2553  0.1017
   67CHL1   C27 6135   1.974   7.079   4.327  0.5009 -0.1808 -0.3116
   67CHL1  H27A 6136   1.884   7.081   4.263  0.6954 -1.7448 -0.6679
   67CHL1  H27B 6137   1.951   7.104   4.433 -0.8113 -2.7024  0.0749
   67CHL1  H27C 6138   2.041   7.163   4.297 -0.4011  1.1403  1.2357
   68CHL1    C3 6139   1.079   0.992   3.038 -0.3317 -0.3207 -0.0543
   68CHL1    H3 6140   1.004   0.929   3.092 -0.2875  1.7621  2.6358
   68CHL1    O3 6141   1.080   0.968   2.896  0.2350  0.4042 -0.7267
   68CHL1   H3' 6142   1.136   1.041   2.868 -0.5075  2.9119  3.3672
   68CHL1    C4 6143   1.030   1.134   3.081 -0.4939 -0.1847  0.4108
   68CHL1   H4A 6144   1.103   1.206   3.037 -0.8254  0.7133  1.2942
   68CHL1   H4B 6145   0.929   1.152   3.039 -0.0237 -1.2385 -1.2720
   68CHL1    C5 6146   1.036   1.164   3.229  1.1464 -0.5464 -0.3416
   68CHL1    C6 6147   0.932   1.218   3.294 -0.2173 -0.0824  0.6367
   68CHL1    H6 6148   0.844   1.241   3.233  0.5900 -0.3746 -0.6585
   68CHL1    C7 6149   0.939   1.255   3.439 -0.7520  0.2186  0.1126
   68CHL1   H7A 6150   0.887   1.351   3.461  1.3222  1.8682 -1.6673
   68CHL1   H7B 6151   0.883   1.181   3.499 -1.0871 -0.0696 -0.5456
   68CHL1    C8 6152   1.074   1.254   3.505  0.5207 -0.1528 -0.1650
   68CHL1    H8 6153   1.121   1.353   3.487 -1.3722  0.4825 -2.1482
   68CHL1   C14 6154   1.062   1.247   3.653  0.5139  0.7552 -0.1255
   68CHL1   H14 6155   1.019   1.147   3.676  0.7921  0.3316 -1.3603
   68CHL1   C15 6156   0.962   1.348   3.728 -0.2521  0.4418 -0.5435
   68CHL1  H15A 6157   0.975   1.451   3.688 -3.0171  1.2838  0.5093
   68CHL1  H15B 6158   0.858   1.318   3.702 -0.5480 -2.9155  3.4263
   68CHL1   C16 6159   0.998   1.328   3.876  0.3614  0.2477 -0.5787
   68CHL1  H16A 6160   1.016   1.429   3.918  2.5966  0.0870 -1.0225
   68CHL1  H16B 6161   0.918   1.274   3.931 -0.7899  1.2271 -1.2458
   68CHL1   C17 6162   1.132   1.246   3.882 -0.3949 -0.4221  1.0082
   68CHL1   H17 6163   1.102   1.140   3.897 -0.2659 -0.4575  1.0211
   68CHL1   C13 6164   1.190   1.248   3.738 -0.5839  0.2717  0.5706
   68CHL1   C18 6165   1.271   1.369   3.715 -0.4323 -0.3487  0.5635
   68CHL1  H18A 6166   1.370   1.366   3.765  0.2142 -1.5216 -0.7064
   68CHL1  H18B 6167   1.290   1.377   3.606 -0.1868  3.2286  0.7770
   68CHL1  H18C 6168   1.218   1.463   3.741  1.1452 -0.2957  4.2701
   68CHL1   C12 6169   1.269   1.127   3.687 -0.4407 -0.1086  0.5731
   68CHL1  H12A 6170   1.372   1.129   3.728 -0.7095  1.1387  1.2328
   68CHL1  H12B 6171   1.225   1.030   3.717  0.3544 -0.2689  1.2515
   68CHL1   C11 6172   1.296   1.133   3.528 -0.8017  0.9415 -1.0424
   68CHL1  H11A 6173   1.359   1.220   3.498  1.8052 -1.3131 -2.6338
   68CHL1  H11B 6174   1.354   1.042   3.501  0.5009  1.1480  0.8387
   68CHL1    C9 6175   1.165   1.145   3.450 -0.2051 -0.5596  0.2842
   68CHL1    H9 6176   1.113   1.049   3.475  0.8824 -1.2832 -0.1460
   68CHL1   C10 6177   1.172   1.148   3.296 -0.3778 -0.6695 -0.1750
   68CHL1   C19 6178   1.274   1.255   3.258 -0.2403 -0.2522 -0.2132
   68CHL1  H19A 6179   1.376   1.221   3.288 -0.3044  0.7581  1.2545
   68CHL1  H19B 6180   1.276   1.262   3.147 -1.5439  0.4067 -0.2156
   68CHL1  H19C 6181   1.254   1.358   3.295 -2.8426  0.1050 -2.3313
   68CHL1    C1 6182   1.233   1.010   3.246  0.7916  0.3159  0.2735
   68CHL1   H1A 6183   1.339   1.012   3.279  0.3496  2.6532  1.7448
   68CHL1   H1B 6184   1.176   0.928   3.293 -2.4929  1.4258 -1.4593
   68CHL1    C2 6185   1.226   0.971   3.099  0.6361 -0.0292 -0.2847
   68CHL1   H2A 6186   1.249   0.864   3.078 -0.7500 -0.9160  2.2541
   68CHL1   H2B 6187   1.287   1.050   3.050 -2.2345  0.7487 -2.9454
   68CHL1   C20 6188   1.226   1.278   4.002 -0.3860 -0.6740  0.0956
   68CHL1   H20 6189   1.269   1.378   3.983 -2.8425  0.3940 -0.3127
   68CHL1   C21 6190   1.346   1.184   4.012 -0.3091  0.3586  0.2034
   68CHL1  H21A 6191   1.326   1.075   4.012  0.2794  0.1850 -2.7514
   68CHL1  H21B 6192   1.411   1.209   4.099 -0.1003 -2.8983  1.1102
   68CHL1  H21C 6193   1.414   1.191   3.925  1.7818  1.6371  1.8323
   68CHL1   C22 6194   1.151   1.266   4.137 -0.3620 -0.4807  0.1736
   68CHL1  H22A 6195   1.063   1.332   4.124  1.3805  1.3970 -3.4753
   68CHL1  H22B 6196   1.119   1.160   4.150 -0.1269 -0.5307  0.3716
   68CHL1   C23 6197   1.227   1.310   4.264  0.2516  0.1579 -0.3814
   68CHL1  H23A 6198   1.321   1.251   4.278  0.4462  0.0152 -2.0868
   68CHL1  H23B 6199   1.248   1.415   4.235  0.9908  0.3090  0.6182
   68CHL1   C24 6200   1.129   1.307   4.378  0.4501 -0.2161 -0.1784
   68CHL1  H24A 6201   1.062   1.392   4.353  1.4122  0.5727 -0.1181
   68CHL1  H24B 6202   1.076   1.209   4.376 -0.1341  0.1023 -1.6976
   68CHL1   C25 6203   1.191   1.333   4.518 -0.3187 -0.3382 -0.1053
   68CHL1   H25 6204   1.103   1.324   4.586 -0.9476  0.7309 -0.7517
   68CHL1   C26 6205   1.301   1.239   4.565 -0.0202  0.9569  0.0488
   68CHL1  H26A 6206   1.388   1.244   4.495  0.1844 -0.8964  0.1178
   68CHL1  H26B 6207   1.324   1.258   4.672  0.1805 -0.3764  0.2611
   68CHL1  H26C 6208   1.257   1.138   4.552 -1.4645  1.0302  3.4267
   68CHL1   C27 6209   1.243   1.480   4.532 -0.2434  0.1369  0.0358
   68CHL1  H27A 6210   1.186   1.553   4.472 -0.4212  0.8363  1.0391
   68CHL1  H27B 6211   1.247   1.506   4.640  0.9421 -0.8240  0.2586
   68CHL1  H27C 6212   1.346   1.473   4.489 -0.7176 -0.5647 -1.0423
   69CHL1    C3 6213   4.489   1.334   3.100  1.0844 -0.1308 -0.3890
   69CHL1    H3 6214   4.438   1.421   3.147  3.0911  1.2904 -0.7259
   69CHL1    O3 6215   4.464   1.342   2.958 -0.7036 -0.1270 -0.3162
   69CHL1   H3' 6216   4.530   1.406   2.932 -0.3667 -0.1446  0.4803
   69CHL1    C4 6217   4.633   1.345   3.137 -0.3511  0.4248 -0.9023
   69CHL1   H4A 6218   4.678   1.253   3.095 -2.5236 -0.8018 -0.6840
   69CHL1   H4B 6219   4.672   1.441   3.096 -1.3015  2.1518  1.9086
   69CHL1    C5 6220   4.641   1.341   3.289 -0.1011  0.4861 -0.2250
   69CHL1    C6 6221   4.700   1.430   3.368 -0.5969 -0.2517  0.1102
   69CHL1    H6 6222   4.748   1.512   3.312 -1.4221 -1.4754 -2.5668
   69CHL1    C7 6223   4.721   1.422   3.521  0.1288  0.4247  0.2123
   69CHL1   H7A 6224   4.828   1.443   3.542  1.4359 -0.3179 -4.5622
   69CHL1   H7B 6225   4.656   1.498   3.569 -0.1600  0.0420  0.4333
   69CHL1    C8 6226   4.690   1.274   3.570 -0.6178  0.2394  0.2301
   69CHL1    H8 6227   4.782   1.214   3.550 -0.9569 -1.2909  2.8059
   69CHL1   C14 6228   4.676   1.269   3.723 -0.3167  0.0327 -0.0724
   69CHL1   H14 6229   4.592   1.339   3.746  0.5164  1.1186 -0.2339
   69CHL1   C15 6230   4.805   1.306   3.811  0.2636  0.2056 -0.1147
   69CHL1  H15A 6231   4.888   1.257   3.756 -0.1595 -1.1961  0.4642
   69CHL1  H15B 6232   4.813   1.416   3.798  0.0703  0.5811  2.4368
   69CHL1   C16 6233   4.773   1.269   3.953 -0.2909  0.1220 -0.0978
   69CHL1  H16A 6234   4.860   1.214   3.993  0.0239  0.0202 -0.9016
   69CHL1  H16B 6235   4.740   1.356   4.014  0.7799  0.3464  0.1643
   69CHL1   C17 6236   4.648   1.165   3.939  0.1348  0.3470  0.5247
   69CHL1   H17 6237   4.562   1.231   3.962 -0.0898  0.9861 -1.8588
   69CHL1   C13 6238   4.633   1.137   3.778  0.1365  0.2521 -0.2229
   69CHL1   C18 6239   4.721   1.012   3.745 -0.5009 -0.5701 -0.2491
   69CHL1  H18A 6240   4.737   0.994   3.636 -0.4160  0.5120 -0.4275
   69CHL1  H18B 6241   4.820   1.038   3.788 -1.4801  0.1479  1.6778
   69CHL1  H18C 6242   4.681   0.926   3.802  0.2840  0.2853  1.6691
   69CHL1   C12 6243   4.497   1.117   3.729  0.0368  0.1828 -0.4577
   69CHL1  H12A 6244   4.445   1.026   3.765 -1.6219 -0.0471 -3.1307
   69CHL1  H12B 6245   4.427   1.191   3.775  1.9263  1.0465  1.1469
   69CHL1   C11 6246   4.488   1.108   3.577  0.8558  0.4571 -0.8447
   69CHL1  H11A 6247   4.534   1.014   3.541  0.2424 -0.4067  0.5216
   69CHL1  H11B 6248   4.383   1.100   3.542  0.3038 -0.1989  0.8665
   69CHL1    C9 6249   4.561   1.223   3.506  0.7119  0.5946  0.1783
   69CHL1    H9 6250   4.496   1.310   3.528 -1.7901 -0.5920 -1.9118
   69CHL1   C10 6251   4.572   1.213   3.354  0.3184 -0.2880  0.7594
   69CHL1   C19 6252   4.664   1.096   3.318 -0.0472 -0.7838 -0.1557
   69CHL1  H19A 6253   4.768   1.127   3.342 -1.1839  1.2835  2.6542
   69CHL1  H19B 6254   4.640   1.005   3.377 -0.8587 -1.1491 -1.0201
   69CHL1  H19C 6255   4.653   1.068   3.211 -0.2086  2.6639 -1.1690
   69CHL1    C1 6256   4.428   1.183   3.300 -0.1902  0.0397 -0.2343
   69CHL1   H1A 6257   4.402   1.080   3.330 -1.6941  0.5779  0.4205
   69CHL1   H1B 6258   4.353   1.250   3.349 -1.0630  0.0278 -1.5043
   69CHL1    C2 6259   4.421   1.204   3.145  0.0654 -0.3113  1.4811
   69CHL1   H2A 6260   4.322   1.199   3.094  1.1250 -0.9968 -0.6611
   69CHL1   H2B 6261   4.482   1.126   3.093 -0.4049 -0.0060  0.4522
   69CHL1   C20 6262   4.656   1.048   4.039 -0.9291 -0.1471 -0.3434
   69CHL1   H20 6263   4.739   0.981   4.008 -0.4678  0.7398 -1.0642
   69CHL1   C21 6264   4.524   0.971   4.014 -0.4518  0.2690 -0.0210
   69CHL1  H21A 6265   4.515   0.912   3.920  0.3890  0.6844 -0.3715
   69CHL1  H21B 6266   4.437   1.040   4.007  0.3388  1.1004 -2.9393
   69CHL1  H21C 6267   4.512   0.904   4.102  0.7831 -0.6095 -0.5019
   69CHL1   C22 6268   4.672   1.091   4.189 -0.2097 -0.5533  0.0469
   69CHL1  H22A 6269   4.649   0.999   4.247 -2.8300 -0.9249 -1.4440
   69CHL1  H22B 6270   4.781   1.113   4.199 -0.4804  2.1128 -1.8439
   69CHL1   C23 6271   4.598   1.211   4.226  0.0916  0.0972  0.5797
   69CHL1  H23A 6272   4.640   1.305   4.187  4.0440 -1.0546  1.6256
   69CHL1  H23B 6273   4.492   1.201   4.193  0.7307 -0.9331 -1.3444
   69CHL1   C24 6274   4.600   1.229   4.378  0.0951 -0.3580 -0.0036
   69CHL1  H24A 6275   4.539   1.159   4.440 -1.7890  1.1330 -0.0619
   69CHL1  H24B 6276   4.703   1.203   4.410 -0.1412 -0.6341  0.5411
   69CHL1   C25 6277   4.564   1.370   4.433  0.2334 -0.2643  0.4050
   69CHL1   H25 6278   4.615   1.449   4.375  3.0349 -1.1319  1.5259
   69CHL1   C26 6279   4.414   1.396   4.405  0.0190 -0.4554 -0.2122
   69CHL1  H26A 6280   4.377   1.497   4.432  0.5689 -0.9529  2.8176
   69CHL1  H26B 6281   4.398   1.382   4.296  0.0292  0.6432 -0.3669
   69CHL1  H26C 6282   4.352   1.332   4.472 -0.2887 -0.9625 -0.9749
   69CHL1   C27 6283   4.590   1.383   4.580  0.4032  0.1604  0.4697
   69CHL1  H27A 6284   4.554   1.295   4.638 -0.0521 -0.1778 -0.3091
   69CHL1  H27B 6285   4.699   1.384   4.605  0.2668 -1.0421  1.1920
   69CHL1  H27C 6286   4.541   1.470   4.628 -2.0087 -0.9855  0.2108
   70CHL1    C3 6287   3.290   1.780   2.981  0.0618  0.3700  0.1642
   70CHL1    H3 6288   3.375   1.840   3.019  0.8740 -0.1876 -0.7314
   70CHL1    O3 6289   3.305   1.764   2.841  0.7288 -0.1251 -0.0479
   70CHL1   H3' 6290   3.216   1.751   2.805  1.3638 -1.7099 -1.1345
   70CHL1    C4 6291   3.297   1.637   3.041  0.4689  0.3177  0.5485
   70CHL1   H4A 6292   3.222   1.576   2.984 -0.1238  0.7804  0.8217
   70CHL1   H4B 6293   3.395   1.594   3.012  0.3403  1.3664 -1.6849
   70CHL1    C5 6294   3.270   1.632   3.182  0.8386  0.2125 -0.2670
   70CHL1    C6 6295   3.357   1.569   3.261 -0.7626  0.3660 -0.0370
   70CHL1    H6 6296   3.436   1.514   3.209  0.8545  1.8416  0.7632
   70CHL1    C7 6297   3.353   1.564   3.411  0.7936  0.9593  0.0626
   70CHL1   H7A 6298   3.382   1.464   3.450 -1.5872  0.6766  1.3133
   70CHL1   H7B 6299   3.434   1.633   3.443  0.1327  1.4580  0.6721
   70CHL1    C8 6300   3.215   1.604   3.462 -0.1785  0.1975  0.4220
   70CHL1    H8 6301   3.145   1.519   3.443  1.4402 -0.6488 -2.1590
   70CHL1   C14 6302   3.220   1.635   3.614 -0.1284  0.2118  0.8458
   70CHL1   H14 6303   3.289   1.720   3.629 -0.0290  0.3321 -0.1929
   70CHL1   C15 6304   3.288   1.528   3.702  0.3586 -0.1705  0.2837
   70CHL1  H15A 6305   3.251   1.430   3.664 -0.7980  1.0944 -2.0625
   70CHL1  H15B 6306   3.398   1.529   3.692  0.6224 -1.2662  2.4470
   70CHL1   C16 6307   3.236   1.567   3.845 -0.1562  0.0804  0.0393
   70CHL1  H16A 6308   3.190   1.473   3.883  0.6607 -0.2623  0.1902
   70CHL1  H16B 6309   3.323   1.601   3.904  0.0804  0.8735 -0.7425
   70CHL1   C17 6310   3.132   1.679   3.834  0.6372 -0.9452  0.6931
   70CHL1   H17 6311   3.182   1.775   3.860 -1.6498  0.4565  0.1781
   70CHL1   C13 6312   3.089   1.679   3.681  0.6649  0.9513  0.1378
   70CHL1   C18 6313   2.972   1.573   3.666  0.4939  0.0355 -0.1152
   70CHL1  H18A 6314   2.983   1.485   3.733  0.8083  0.4830  0.4344
   70CHL1  H18B 6315   2.875   1.619   3.695  1.3047  1.2449  0.7522
   70CHL1  H18C 6316   2.950   1.537   3.563 -0.5467  0.3756 -0.0299
   70CHL1   C12 6317   3.051   1.809   3.608  0.1725  0.1995  0.2522
   70CHL1  H12A 6318   2.959   1.852   3.653 -0.6710 -0.8382 -0.4262
   70CHL1  H12B 6319   3.126   1.889   3.621 -1.4194  1.6729  0.7728
   70CHL1   C11 6320   3.029   1.786   3.459 -0.3302 -0.7537  0.1421
   70CHL1  H11A 6321   2.940   1.723   3.439 -1.9728  0.9769  1.4963
   70CHL1  H11B 6322   3.011   1.888   3.419  0.6596 -0.0629  1.3743
   70CHL1    C9 6323   3.161   1.730   3.393 -0.1523 -0.2862 -0.2017
   70CHL1    H9 6324   3.241   1.806   3.407 -0.4907  0.1179 -0.4285
   70CHL1   C10 6325   3.156   1.715   3.235  0.7624  0.7703  0.2890
   70CHL1   C19 6326   3.025   1.635   3.208 -0.0276 -0.1518  0.4607
   70CHL1  H19A 6327   2.939   1.701   3.234  0.2347 -0.0113  0.9851
   70CHL1  H19B 6328   3.012   1.610   3.100  0.1708  1.9766 -0.0947
   70CHL1  H19C 6329   3.021   1.536   3.259 -3.0038 -1.3291 -1.7578
   70CHL1    C1 6330   3.157   1.862   3.175 -0.3494 -0.1374 -0.0356
   70CHL1   H1A 6331   3.058   1.904   3.201 -0.1968 -0.5911  1.3728
   70CHL1   H1B 6332   3.249   1.917   3.205  0.3853 -1.1546 -0.3473
   70CHL1    C2 6333   3.164   1.854   3.022  0.0598 -0.1382 -0.7828
   70CHL1   H2A 6334   3.186   1.951   2.973 -1.2959 -0.4522 -2.1061
   70CHL1   H2B 6335   3.076   1.806   2.973  1.0003 -0.1912 -2.4719
   70CHL1   C20 6336   3.022   1.660   3.943 -0.1176 -0.1121 -0.1120
   70CHL1   H20 6337   2.963   1.568   3.924  3.6401 -2.5528 -0.9655
   70CHL1   C21 6338   2.928   1.783   3.940  0.0099  0.1176  0.2761
   70CHL1  H21A 6339   2.859   1.799   4.025  1.1744  2.2959  0.8705
   70CHL1  H21B 6340   2.853   1.766   3.859  0.9491 -2.8941 -0.0725
   70CHL1  H21C 6341   2.983   1.878   3.928 -2.2080  1.4860  0.3613
   70CHL1   C22 6342   3.082   1.647   4.087 -0.2265 -0.5414  0.1167
   70CHL1  H22A 6343   3.168   1.576   4.091  0.7051  0.5032 -0.9053
   70CHL1  H22B 6344   3.124   1.750   4.090 -2.1278  0.3165 -1.1641
   70CHL1   C23 6345   2.992   1.634   4.206  0.6223  0.0896 -0.0500
   70CHL1  H23A 6346   2.916   1.715   4.209  1.5835  0.9765  2.5700
   70CHL1  H23B 6347   2.952   1.530   4.209  0.5128  0.1595  1.6078
   70CHL1   C24 6348   3.070   1.652   4.337  0.3766 -0.6658  0.0188
   70CHL1  H24A 6349   3.171   1.608   4.351  0.2945 -0.3058  2.0281
   70CHL1  H24B 6350   3.077   1.762   4.348 -0.9925 -0.4677 -0.7359
   70CHL1   C25 6351   3.001   1.589   4.458 -0.1872 -0.6271  0.1329
   70CHL1   H25 6352   3.018   1.479   4.462 -0.9085 -0.7054  2.1753
   70CHL1   C26 6353   3.061   1.651   4.589 -0.0082  1.1133 -0.5665
   70CHL1  H26A 6354   3.169   1.626   4.590 -0.5189 -1.3433 -0.5090
   70CHL1  H26B 6355   3.035   1.757   4.568 -1.6357  0.7148 -0.7629
   70CHL1  H26C 6356   3.013   1.613   4.682  1.7800  1.0180  0.3511
   70CHL1   C27 6357   2.848   1.629   4.459  0.7803  0.0835  1.0992
   70CHL1  H27A 6358   2.817   1.735   4.449 -1.0209 -0.4964  0.2132
   70CHL1  H27B 6359   2.791   1.565   4.388 -0.2335 -0.6371  2.5352
   70CHL1  H27C 6360   2.802   1.587   4.550 -2.0045 -1.8310 -1.0317
   71CHL1    C3 6361   5.627   1.179   2.923  0.1829 -0.1502  0.4096
   71CHL1    H3 6362   5.616   1.071   2.945  1.4051 -0.5053 -0.6543
   71CHL1    O3 6363   5.606   1.212   2.786  0.3110 -0.1869  0.2685
   71CHL1   H3' 6364   5.637   1.300   2.766 -2.2817  1.1829  1.7566
   71CHL1    C4 6365   5.529   1.273   2.995  0.5049  0.3104 -0.0860
   71CHL1   H4A 6366   5.550   1.379   2.966  1.1781  0.4841  0.9750
   71CHL1   H4B 6367   5.429   1.241   2.960  1.3782  1.6611 -4.5596
   71CHL1    C5 6368   5.542   1.259   3.142 -0.1320  0.1702 -0.5077
   71CHL1    C6 6369   5.453   1.205   3.226 -0.0436  0.3670  0.2770
   71CHL1    H6 6370   5.353   1.176   3.193 -0.5667  3.2977 -0.9760
   71CHL1    C7 6371   5.473   1.184   3.374  0.1880 -0.1934  0.2891
   71CHL1   H7A 6372   5.377   1.177   3.430 -0.9576 -0.3561 -1.6220
   71CHL1   H7B 6373   5.507   1.079   3.391  0.9574  0.0101  0.0439
   71CHL1    C8 6374   5.584   1.276   3.426 -0.1082 -0.3019  0.0638
   71CHL1    H8 6375   5.551   1.382   3.421  1.5950  0.2363 -0.3258
   71CHL1   C14 6376   5.605   1.228   3.569 -0.5789 -0.1478  0.4339
   71CHL1   H14 6377   5.645   1.125   3.559  1.0111  0.5965 -1.7361
   71CHL1   C15 6378   5.489   1.224   3.668  0.1590 -0.1655 -0.5582
   71CHL1  H15A 6379   5.427   1.317   3.665 -0.5150 -0.5081  1.4153
   71CHL1  H15B 6380   5.425   1.133   3.671  0.5799 -0.4704  1.9631
   71CHL1   C16 6381   5.555   1.228   3.807  0.4120 -0.5045 -0.5202
   71CHL1  H16A 6382   5.522   1.324   3.852  0.4129  0.3432 -2.2369
   71CHL1  H16B 6383   5.527   1.148   3.878  0.7774 -0.5097 -0.3771
   71CHL1   C17 6384   5.706   1.243   3.776 -0.2128 -0.1541  0.4803
   71CHL1   H17 6385   5.754   1.143   3.771 -1.1564 -0.6324  0.8678
   71CHL1   C13 6386   5.723   1.305   3.640  0.4852 -0.4501  0.0333
   71CHL1   C18 6387   5.695   1.454   3.653 -0.0305  0.4874 -0.4890
   71CHL1  H18A 6388   5.601   1.480   3.705 -0.2106 -1.5128  0.2625
   71CHL1  H18B 6389   5.776   1.507   3.707 -2.2352  2.7647  0.7675
   71CHL1  H18C 6390   5.677   1.506   3.557 -2.3380  0.6403 -0.0217
   71CHL1   C12 6391   5.853   1.275   3.558 -0.5954 -0.3570 -0.3749
   71CHL1  H12A 6392   5.942   1.325   3.601 -1.6449  0.0342  1.4184
   71CHL1  H12B 6393   5.867   1.164   3.557  0.5177 -0.2879  1.6970
   71CHL1   C11 6394   5.841   1.316   3.409 -1.2879 -0.2944 -0.4091
   71CHL1  H11A 6395   5.831   1.426   3.397 -0.8285 -0.1303  0.6013
   71CHL1  H11B 6396   5.927   1.285   3.347 -0.0870  1.8131  0.1240
   71CHL1    C9 6397   5.708   1.259   3.344 -0.1540 -0.4296  0.6120
   71CHL1    H9 6398   5.725   1.149   3.341  0.6355 -0.3180  0.8180
   71CHL1   C10 6399   5.684   1.291   3.191 -0.0567  0.5659 -0.8050
   71CHL1   C19 6400   5.715   1.441   3.168 -0.3390 -0.7663  0.2579
   71CHL1  H19A 6401   5.652   1.502   3.236 -2.7164 -0.3703 -2.1124
   71CHL1  H19B 6402   5.823   1.461   3.185  0.0650 -1.2108 -1.5604
   71CHL1  H19C 6403   5.694   1.469   3.063 -2.4491 -3.8455 -0.2841
   71CHL1    C1 6404   5.790   1.212   3.115  0.2070 -0.0306 -0.1729
   71CHL1   H1A 6405   5.887   1.258   3.143 -0.8186  2.0487  0.1886
   71CHL1   H1B 6406   5.801   1.106   3.147 -1.1612  0.7860  3.5985
   71CHL1    C2 6407   5.772   1.221   2.968  0.1095 -0.1579  1.0990
   71CHL1   H2A 6408   5.835   1.142   2.922 -1.7144  0.0090 -2.0138
   71CHL1   H2B 6409   5.803   1.320   2.927 -0.3349 -0.4561  0.0004
   71CHL1   C20 6410   5.787   1.306   3.896  0.3245  0.3284  0.2411
   71CHL1   H20 6411   5.744   1.402   3.933 -1.7832 -0.3962 -0.2003
   71CHL1   C21 6412   5.932   1.332   3.861  0.5173  0.6327  0.0130
   71CHL1  H21A 6413   5.951   1.417   3.791 -1.3433  1.2986  0.2766
   71CHL1  H21B 6414   5.968   1.231   3.832  0.3760  0.5093  0.2663
   71CHL1  H21C 6415   5.993   1.367   3.947 -0.3187  0.7652  0.5667
   71CHL1   C22 6416   5.777   1.206   4.015 -0.1822  0.0817 -0.2088
   71CHL1  H22A 6417   5.671   1.186   4.043 -0.5552  0.3334 -1.4032
   71CHL1  H22B 6418   5.825   1.111   3.983 -2.1487 -0.7860 -0.7143
   71CHL1   C23 6419   5.825   1.269   4.145  0.2697 -0.3314 -0.5366
   71CHL1  H23A 6420   5.926   1.315   4.150 -0.3978  1.0776  0.7978
   71CHL1  H23B 6421   5.750   1.342   4.182 -2.0954 -1.1222 -3.3573
   71CHL1   C24 6422   5.844   1.162   4.259  0.1866  0.1413  0.2338
   71CHL1  H24A 6423   5.743   1.138   4.299  0.4613 -0.5589  0.5194
   71CHL1  H24B 6424   5.898   1.078   4.212  1.0849  0.1639  1.1834
   71CHL1   C25 6425   5.937   1.207   4.366 -0.7200  0.5095  0.0462
   71CHL1   H25 6426   6.028   1.246   4.316  0.0945  1.0703  1.8845
   71CHL1   C26 6427   5.880   1.323   4.447  0.6770  0.4614 -0.4970
   71CHL1  H26A 6428   5.864   1.419   4.394  1.9479 -0.3224 -2.4202
   71CHL1  H26B 6429   5.787   1.298   4.502  0.9407  0.7798  0.1072
   71CHL1  H26C 6430   5.959   1.338   4.523  1.6641 -0.5931 -1.2719
   71CHL1   C27 6431   5.981   1.092   4.465 -0.2817 -0.6933 -0.1713
   71CHL1  H27A 6432   5.888   1.036   4.490  0.1029 -1.3273 -0.1636
   71CHL1  H27B 6433   6.055   1.026   4.416 -0.0805 -0.0824 -0.6997
   71CHL1  H27C 6434   6.026   1.132   4.558  1.0796 -1.9939 -0.2532
   72CHL1    C3 6435   4.518   4.361   3.494 -0.7873  0.2875  0.0544
   72CHL1    H3 6436   4.588   4.408   3.566  0.0068  1.9706 -1.7072
   72CHL1    O3 6437   4.582   4.358   3.364  0.3571 -0.2384  0.2015
   72CHL1   H3' 6438   4.510   4.345   3.302  0.4059  1.5329 -0.2768
   72CHL1    C4 6439   4.478   4.219   3.545 -0.4782  0.4446  0.4069
   72CHL1   H4A 6440   4.411   4.178   3.467 -0.6250  0.5954  0.4523
   72CHL1   H4B 6441   4.569   4.156   3.555 -0.2647  0.5557 -0.7205
   72CHL1    C5 6442   4.401   4.231   3.676 -0.6254  0.4982  0.4921
   72CHL1    C6 6443   4.440   4.173   3.791 -0.3983 -0.5573 -0.0421
   72CHL1    H6 6444   4.532   4.114   3.798  0.2661  0.5831  1.1538
   72CHL1    C7 6445   4.371   4.181   3.921 -0.2785 -0.3123 -0.1755
   72CHL1   H7A 6446   4.385   4.084   3.974  0.5495  0.3508  0.8707
   72CHL1   H7B 6447   4.421   4.261   3.980 -0.1229 -1.4200  1.2538
   72CHL1    C8 6448   4.225   4.213   3.899 -0.4265  0.5417  0.4186
   72CHL1    H8 6449   4.176   4.124   3.853  0.5648  0.8760 -1.4166
   72CHL1   C14 6450   4.167   4.252   4.030  0.3480  0.4579  0.6912
   72CHL1   H14 6451   4.225   4.343   4.057  3.6360 -1.3617  0.3663
   72CHL1   C15 6452   4.195   4.164   4.146 -0.2821 -0.0198 -0.7152
   72CHL1  H15A 6453   4.179   4.061   4.107  1.0310 -0.8620  0.8412
   72CHL1  H15B 6454   4.299   4.162   4.187 -0.7839 -0.1098  0.6073
   72CHL1   C16 6455   4.098   4.209   4.252  0.7069  0.0923 -0.4321
   72CHL1  H16A 6456   4.040   4.122   4.288  1.8918 -0.3403  0.5013
   72CHL1  H16B 6457   4.139   4.256   4.344 -3.9465  3.8208  0.1258
   72CHL1   C17 6458   4.008   4.323   4.180  0.2943  0.1293  0.3127
   72CHL1   H17 6459   4.061   4.418   4.203 -0.6454  0.8009 -0.2361
   72CHL1   C13 6460   4.020   4.295   4.032  0.5411 -0.1579  0.0582
   72CHL1   C18 6461   3.933   4.173   3.991 -1.0917  0.1137  0.1582
   72CHL1  H18A 6462   3.982   4.131   3.900 -0.3419 -1.2914  1.1801
   72CHL1  H18B 6463   3.928   4.095   4.069 -1.6186  1.6628  1.7264
   72CHL1  H18C 6464   3.828   4.201   3.966 -0.4277  0.2145 -3.0744
   72CHL1   C12 6465   4.004   4.415   3.928 -0.2873  0.0960 -0.7710
   72CHL1  H12A 6466   3.898   4.446   3.929 -0.7595 -1.3548  1.7812
   72CHL1  H12B 6467   4.067   4.505   3.950 -1.0627 -0.2096  3.4245
   72CHL1   C11 6468   4.046   4.369   3.791  0.9740  0.7160  0.1268
   72CHL1  H11A 6469   3.978   4.286   3.763 -0.0407  2.1467 -1.9291
   72CHL1  H11B 6470   4.034   4.440   3.706  0.9822  1.4740  0.7457
   72CHL1    C9 6471   4.197   4.330   3.802 -0.3495 -0.1453  0.3843
   72CHL1    H9 6472   4.248   4.421   3.840 -0.6358  0.3082 -0.2930
   72CHL1   C10 6473   4.267   4.304   3.661 -0.4386 -0.8479  0.2378
   72CHL1   C19 6474   4.171   4.244   3.565 -0.1942 -0.9801 -0.4810
   72CHL1  H19A 6475   4.094   4.322   3.547  1.9450  1.1406 -0.9050
   72CHL1  H19B 6476   4.216   4.224   3.466 -1.1672 -2.2661 -0.6906
   72CHL1  H19C 6477   4.111   4.161   3.608 -0.2469 -0.8403 -0.2838
   72CHL1    C1 6478   4.305   4.446   3.605  0.7600  0.2215  0.0529
   72CHL1   H1A 6479   4.215   4.500   3.571  2.0094  0.9009 -2.4298
   72CHL1   H1B 6480   4.358   4.503   3.685 -1.9684 -0.2669  2.3609
   72CHL1    C2 6481   4.396   4.434   3.479  0.1115 -0.5362  0.7349
   72CHL1   H2A 6482   4.419   4.539   3.450 -0.5868 -0.1540  1.5270
   72CHL1   H2B 6483   4.334   4.388   3.398  1.4209  1.1019 -1.3161
   72CHL1   C20 6484   3.866   4.332   4.237 -0.7293  0.5654 -0.6184
   72CHL1   H20 6485   3.810   4.238   4.218  2.0205 -0.6812 -3.3699
   72CHL1   C21 6486   3.780   4.444   4.178  0.6424  0.2608 -0.2295
   72CHL1  H21A 6487   3.689   4.478   4.233 -0.1901  0.1946 -1.5108
   72CHL1  H21B 6488   3.752   4.427   4.071 -0.2551  2.0077 -0.3051
   72CHL1  H21C 6489   3.843   4.534   4.182  0.4069  0.4500 -0.6513
   72CHL1   C22 6490   3.866   4.339   4.398  0.2005 -0.2108  0.3236
   72CHL1  H22A 6491   3.760   4.340   4.433 -0.4662  0.0265 -1.5927
   72CHL1  H22B 6492   3.912   4.251   4.449 -2.3288 -1.4038  0.6995
   72CHL1   C23 6493   3.918   4.469   4.463 -0.4938 -0.2647  0.4938
   72CHL1  H23A 6494   4.026   4.468   4.436 -0.8008  1.1594 -0.9391
   72CHL1  H23B 6495   3.870   4.556   4.414  0.0898 -0.6104 -0.7394
   72CHL1   C24 6496   3.893   4.480   4.614  0.1099  0.3056  0.1572
   72CHL1  H24A 6497   3.782   4.469   4.624  0.1165  0.4210  0.3576
   72CHL1  H24B 6498   3.933   4.384   4.653 -1.0480 -0.0127  0.6073
   72CHL1   C25 6499   3.942   4.603   4.677 -0.4938  0.1090 -0.6367
   72CHL1   H25 6500   3.887   4.693   4.643 -3.2712 -1.7739 -1.4850
   72CHL1   C26 6501   3.926   4.589   4.826  0.5486  0.9254 -0.9666
   72CHL1  H26A 6502   3.984   4.665   4.883 -2.5465  2.1616  0.7710
   72CHL1  H26B 6503   3.819   4.602   4.854  0.2459 -1.7059 -0.6368
   72CHL1  H26C 6504   3.959   4.489   4.863  1.0358  0.9724 -1.2611
   72CHL1   C27 6505   4.085   4.617   4.638 -0.2964  0.0278  1.0081
   72CHL1  H27A 6506   4.109   4.646   4.534  1.8391 -1.0616  1.1390
   72CHL1  H27B 6507   4.133   4.700   4.695  0.0281  0.2187  0.4610
   72CHL1  H27C 6508   4.130   4.520   4.666 -1.8858 -1.1265 -0.2823
   73CHL1    C3 6509   5.408   6.646   3.173 -0.2530 -0.0157  0.5436
   73CHL1    H3 6510   5.324   6.697   3.224 -1.4854 -0.9914 -0.4537
   73CHL1    O3 6511   5.408   6.638   3.031  0.0360  0.2852 -0.6465
   73CHL1   H3' 6512   5.384   6.546   3.018  0.9383  0.1532 -1.5051
   73CHL1    C4 6513   5.543   6.709   3.221 -0.1743 -0.5160  1.1413
   73CHL1   H4A 6514   5.628   6.662   3.167  0.5016  1.6252  0.2250
   73CHL1   H4B 6515   5.550   6.810   3.175 -1.7062 -1.4429 -1.2882
   73CHL1    C5 6516   5.561   6.705   3.376  0.2154 -0.2621  0.9725
   73CHL1    C6 6517   5.571   6.817   3.450  1.0087  0.1126 -1.0807
   73CHL1    H6 6518   5.574   6.916   3.403  0.8872  0.8317  0.3488
   73CHL1    C7 6519   5.578   6.808   3.595  0.0353  0.5951 -0.1283
   73CHL1   H7A 6520   5.638   6.892   3.635  2.9568 -1.8220  0.9373
   73CHL1   H7B 6521   5.475   6.818   3.637 -0.4822 -0.4860 -1.0632
   73CHL1    C8 6522   5.614   6.672   3.648 -0.6856  0.1122 -0.8451
   73CHL1    H8 6523   5.722   6.657   3.626 -0.3327  1.4746 -0.1335
   73CHL1   C14 6524   5.589   6.669   3.800 -0.2027  0.0291 -0.2529
   73CHL1   H14 6525   5.479   6.678   3.813  0.0219  0.6370  1.5284
   73CHL1   C15 6526   5.653   6.783   3.883  0.1841  0.2355  0.3365
   73CHL1  H15A 6527   5.756   6.812   3.852 -0.0788  1.0905  0.2448
   73CHL1  H15B 6528   5.601   6.880   3.868 -2.8051 -1.3041  0.0112
   73CHL1   C16 6529   5.639   6.732   4.024  0.5472 -0.4153  0.0286
   73CHL1  H16A 6530   5.741   6.741   4.066  0.2973  0.2568  0.5115
   73CHL1  H16B 6531   5.557   6.781   4.081  0.1897 -0.4191 -0.4763
   73CHL1   C17 6532   5.608   6.578   4.008  0.0668 -0.0639 -0.4649
   73CHL1   H17 6533   5.500   6.569   4.032  0.5725  0.5185  2.5172
   73CHL1   C13 6534   5.634   6.539   3.864 -1.1513  0.1303 -0.4797
   73CHL1   C18 6535   5.792   6.515   3.847 -0.2495  0.1189 -0.7499
   73CHL1  H18A 6536   5.815   6.419   3.898  0.1371  1.9273  2.8407
   73CHL1  H18B 6537   5.818   6.515   3.739  1.9523 -2.5122 -0.3226
   73CHL1  H18C 6538   5.843   6.597   3.903 -0.4293  0.1847 -0.6821
   73CHL1   C12 6539   5.539   6.428   3.803 -0.6302 -0.3524 -0.8467
   73CHL1  H12A 6540   5.581   6.331   3.837  4.5296  0.8472 -2.8350
   73CHL1  H12B 6541   5.432   6.441   3.829 -0.3016  1.9971 -0.4124
   73CHL1   C11 6542   5.554   6.424   3.659  0.4548  0.2480 -0.6680
   73CHL1  H11A 6543   5.662   6.404   3.640  0.2798 -2.4253  0.6033
   73CHL1  H11B 6544   5.512   6.332   3.612  0.8032  0.1615 -0.8168
   73CHL1    C9 6545   5.528   6.562   3.589  0.0821  0.4955 -0.5036
   73CHL1    H9 6546   5.422   6.590   3.606 -0.8234 -3.2284  0.8973
   73CHL1   C10 6547   5.548   6.563   3.436 -0.0707  0.0612  0.3990
   73CHL1   C19 6548   5.678   6.487   3.398  0.1536 -1.1366 -0.0448
   73CHL1  H19A 6549   5.763   6.535   3.451 -0.7068  1.1205 -0.5803
   73CHL1  H19B 6550   5.668   6.379   3.424  0.1264 -1.8177 -2.5630
   73CHL1  H19C 6551   5.694   6.500   3.289 -1.6869  1.6518 -0.0966
   73CHL1    C1 6552   5.416   6.502   3.379  0.4445 -0.3216  0.3072
   73CHL1   H1A 6553   5.410   6.396   3.413 -0.9650 -0.8310 -1.3485
   73CHL1   H1B 6554   5.328   6.554   3.422 -0.0667  1.0872 -2.2613
   73CHL1    C2 6555   5.414   6.506   3.224  0.1940  0.4473  0.2833
   73CHL1   H2A 6556   5.329   6.447   3.183 -0.1062  0.9878  0.1210
   73CHL1   H2B 6557   5.507   6.450   3.203 -0.5998 -1.2145  1.0352
   73CHL1   C20 6558   5.670   6.496   4.121  0.5802 -0.0240 -0.1850
   73CHL1   H20 6559   5.781   6.492   4.110  0.5155 -3.3790 -0.6792
   73CHL1   C21 6560   5.616   6.352   4.112  0.0214  0.1530 -0.2680
   73CHL1  H21A 6561   5.653   6.296   4.200 -0.1003 -1.6245 -1.2777
   73CHL1  H21B 6562   5.649   6.299   4.019 -1.6183 -0.1136 -0.7392
   73CHL1  H21C 6563   5.508   6.354   4.137  0.2890 -0.8366  1.1118
   73CHL1   C22 6564   5.635   6.558   4.257  0.3239  0.1222  0.6902
   73CHL1  H22A 6565   5.656   6.667   4.255  3.0862 -0.3201 -2.2415
   73CHL1  H22B 6566   5.530   6.557   4.292 -0.6093 -0.5300 -1.9008
   73CHL1   C23 6567   5.728   6.503   4.370  0.2959  0.2126 -0.1930
   73CHL1  H23A 6568   5.686   6.406   4.404  0.8578  0.0587  0.0872
   73CHL1  H23B 6569   5.836   6.496   4.342  0.1007 -2.5388 -0.5520
   73CHL1   C24 6570   5.722   6.582   4.501 -0.6490 -0.1919  1.3361
   73CHL1  H24A 6571   5.815   6.554   4.554 -0.7249  1.1063  2.1912
   73CHL1  H24B 6572   5.721   6.689   4.472 -2.1464 -0.5426 -0.1292
   73CHL1   C25 6573   5.601   6.549   4.595 -0.3634  0.7102  0.0167
   73CHL1   H25 6574   5.513   6.521   4.533  0.2521 -1.9238  0.2211
   73CHL1   C26 6575   5.637   6.431   4.685 -0.9993  0.2765 -0.6050
   73CHL1  H26A 6576   5.730   6.455   4.741 -0.6105 -2.2169 -0.0780
   73CHL1  H26B 6577   5.557   6.425   4.761 -0.4192 -0.9378 -0.0650
   73CHL1  H26C 6578   5.641   6.333   4.634  0.7631  1.8574 -3.8296
   73CHL1   C27 6579   5.575   6.677   4.668  0.3437 -0.3882  0.8643
   73CHL1  H27A 6580   5.549   6.749   4.588 -0.1835 -2.4964 -0.9577
   73CHL1  H27B 6581   5.481   6.671   4.727 -1.7296  1.5156 -2.0121
   73CHL1  H27C 6582   5.660   6.717   4.728 -0.1078  0.9558  0.6407
   74CHL1    C3 6583   4.942   6.014   3.040 -0.0823  0.1001  0.8441
   74CHL1    H3 6584   4.873   5.930   3.064  0.4526 -0.8822 -0.8444
   74CHL1    O3 6585   4.921   6.051   2.905  0.1556  0.7146 -0.0165
   74CHL1   H3' 6586   4.980   6.125   2.890  0.3499  0.2102 -1.9791
   74CHL1    C4 6587   4.905   6.134   3.129 -0.2218 -0.2630  0.1863
   74CHL1   H4A 6588   4.951   6.231   3.099  0.4755 -0.9296 -0.9347
   74CHL1   H4B 6589   4.796   6.150   3.111 -0.1623  1.9721  1.3804
   74CHL1    C5 6590   4.942   6.111   3.274 -0.8248 -0.7317  0.6582
   74CHL1    C6 6591   4.848   6.110   3.365 -0.8104 -0.4763 -0.7555
   74CHL1    H6 6592   4.745   6.146   3.350 -0.8230  0.2114  0.7471
   74CHL1    C7 6593   4.872   6.098   3.508 -0.2975  0.7137 -0.1096
   74CHL1   H7A 6594   4.802   6.172   3.552 -1.2048  0.3179 -0.8482
   74CHL1   H7B 6595   4.849   5.996   3.545  2.4781 -0.3028 -0.9523
   74CHL1    C8 6596   5.021   6.116   3.537  0.2892  0.0958 -0.8478
   74CHL1    H8 6597   5.031   6.226   3.520 -2.5846  0.3883 -1.1256
   74CHL1   C14 6598   5.041   6.076   3.688 -0.2878 -0.7560  0.4914
   74CHL1   H14 6599   5.012   5.969   3.685 -1.3756 -0.6136  3.1726
   74CHL1   C15 6600   4.950   6.133   3.799 -0.5188 -0.3512 -0.2494
   74CHL1  H15A 6601   4.952   6.244   3.799  0.7236 -0.3346 -1.8073
   74CHL1  H15B 6602   4.843   6.107   3.787 -1.2049  1.9815  0.3142
   74CHL1   C16 6603   5.022   6.083   3.930  0.5472  0.3405 -0.2444
   74CHL1  H16A 6604   5.004   6.154   4.014 -2.6721 -0.3420 -0.2045
   74CHL1  H16B 6605   4.974   5.992   3.972  1.2934 -0.2111 -0.5636
   74CHL1   C17 6606   5.168   6.047   3.885 -0.6597 -0.1256 -0.3203
   74CHL1   H17 6607   5.166   5.936   3.877  1.0647 -0.2538  0.5225
   74CHL1   C13 6608   5.187   6.084   3.735  0.1469 -0.4018 -0.3497
   74CHL1   C18 6609   5.231   6.235   3.729 -0.1173 -0.7749  0.8532
   74CHL1  H18A 6610   5.201   6.270   3.628  0.4254 -0.5361  0.7735
   74CHL1  H18B 6611   5.173   6.296   3.802 -0.6962 -2.3511  1.7614
   74CHL1  H18C 6612   5.341   6.249   3.739 -0.1328  2.4719 -1.8155
   74CHL1   C12 6613   5.275   5.992   3.646 -0.1226 -0.1191 -0.3362
   74CHL1  H12A 6614   5.383   6.013   3.661  0.2562 -1.8412 -0.4076
   74CHL1  H12B 6615   5.261   5.883   3.665  1.8646 -0.2794  0.4801
   74CHL1   C11 6616   5.261   6.026   3.493 -0.2870 -0.2015 -0.4683
   74CHL1  H11A 6617   5.317   6.122   3.486  1.9992 -1.3940  0.1910
   74CHL1  H11B 6618   5.315   5.952   3.430 -1.1112 -0.2491 -1.1234
   74CHL1    C9 6619   5.115   6.036   3.448  0.2848 -0.3977  0.3171
   74CHL1    H9 6620   5.090   5.928   3.441 -0.0053 -0.4366  1.6284
   74CHL1   C10 6621   5.089   6.075   3.302 -0.1206  1.1803  0.1808
   74CHL1   C19 6622   5.174   6.207   3.271  0.1901  0.0976  0.0481
   74CHL1  H19A 6623   5.284   6.191   3.282  0.0548 -1.5164 -0.7131
   74CHL1  H19B 6624   5.161   6.235   3.164 -1.0245 -1.9197 -0.3876
   74CHL1  H19C 6625   5.138   6.288   3.338 -2.4344  1.7150 -3.0557
   74CHL1    C1 6626   5.127   5.953   3.210 -0.3841  0.9886 -0.2284
   74CHL1   H1A 6627   5.236   5.936   3.223 -0.2527  2.0423  0.1368
   74CHL1   H1B 6628   5.076   5.859   3.239  0.4343  0.7906  0.5692
   74CHL1    C2 6629   5.098   5.977   3.060  0.2108 -0.7893 -0.3250
   74CHL1   H2A 6630   5.122   5.891   2.994 -0.9815 -0.5736 -1.0890
   74CHL1   H2B 6631   5.153   6.067   3.026  0.0827 -0.5627  0.0566
   74CHL1   C20 6632   5.287   6.088   3.979 -0.8038  0.5854  0.3803
   74CHL1   H20 6633   5.309   6.197   3.981  0.4372  0.3680 -0.5582
   74CHL1   C21 6634   5.417   6.024   3.926 -0.3393 -0.1325 -0.1735
   74CHL1  H21A 6635   5.400   5.917   3.900  1.2200 -0.7438  1.1287
   74CHL1  H21B 6636   5.496   6.007   4.003  0.1827 -0.8412 -0.8452
   74CHL1  H21C 6637   5.445   6.083   3.836 -2.2389 -1.4601 -1.7295
   74CHL1   C22 6638   5.250   6.044   4.123 -0.2314  0.0319  0.3102
   74CHL1  H22A 6639   5.147   6.076   4.151 -0.8420 -1.3351 -0.2426
   74CHL1  H22B 6640   5.248   5.933   4.114  2.1120 -0.0898  0.6660
   74CHL1   C23 6641   5.353   6.087   4.225  0.4829 -0.0992 -0.0563
   74CHL1  H23A 6642   5.441   6.019   4.229 -0.0081 -0.7036  0.7309
   74CHL1  H23B 6643   5.393   6.186   4.196 -0.2138  0.0461 -0.5515
   74CHL1   C24 6644   5.301   6.071   4.370  0.1039  0.1800  0.2398
   74CHL1  H24A 6645   5.193   6.092   4.385 -0.5077 -0.5805 -2.5668
   74CHL1  H24B 6646   5.310   5.962   4.392  0.8934  0.0525 -0.6581
   74CHL1   C25 6647   5.378   6.154   4.478 -0.1323 -0.2540 -0.3624
   74CHL1   H25 6648   5.370   6.261   4.450 -2.5398 -0.1628  0.4611
   74CHL1   C26 6649   5.310   6.135   4.613 -0.0572 -0.0494  0.2930
   74CHL1  H26A 6650   5.369   6.171   4.700  0.0089 -1.7565  1.0031
   74CHL1  H26B 6651   5.213   6.187   4.613 -1.2708 -2.1751 -0.9352
   74CHL1  H26C 6652   5.285   6.028   4.631 -0.8253 -0.2960 -2.0297
   74CHL1   C27 6653   5.528   6.105   4.484  0.6025 -0.3845  0.6497
   74CHL1  H27A 6654   5.537   5.997   4.509 -0.2882 -0.4461  0.7561
   74CHL1  H27B 6655   5.569   6.137   4.386  1.8628  0.9861  1.5918
   74CHL1  H27C 6656   5.585   6.159   4.562 -0.3049  1.0547  0.3636
   75CHL1    C3 6657   5.387   4.614   3.110 -0.3695 -0.2605  0.3449
   75CHL1    H3 6658   5.437   4.515   3.123 -0.3426 -0.1575  1.1102
   75CHL1    O3 6659   5.368   4.634   2.971 -0.1293  0.0780 -0.5677
   75CHL1   H3' 6660   5.296   4.697   2.961 -0.7081 -0.8073 -2.2683
   75CHL1    C4 6661   5.252   4.609   3.180  0.5639 -0.0653 -0.7708
   75CHL1   H4A 6662   5.189   4.696   3.152 -0.7021  0.0384  2.0571
   75CHL1   H4B 6663   5.197   4.521   3.142 -0.8749  0.5463 -0.1931
   75CHL1    C5 6664   5.261   4.596   3.337 -0.5133 -0.4843  0.4723
   75CHL1    C6 6665   5.206   4.496   3.402 -0.3850 -0.0078  0.3581
   75CHL1    H6 6666   5.154   4.415   3.349 -0.6775 -1.7930  3.1552
   75CHL1    C7 6667   5.219   4.467   3.550 -0.3226  0.4042  0.4015
   75CHL1   H7A 6668   5.122   4.439   3.596  0.4305 -1.1170  1.1286
   75CHL1   H7B 6669   5.286   4.379   3.562 -0.1477  0.6778  1.6024
   75CHL1    C8 6670   5.265   4.596   3.623 -0.3999  0.3884 -0.5934
   75CHL1    H8 6671   5.171   4.655   3.622 -1.5520 -1.3693 -1.7899
   75CHL1   C14 6672   5.310   4.553   3.771 -0.4141 -0.5218  0.7065
   75CHL1   H14 6673   5.396   4.482   3.770 -0.0729 -0.0977 -0.0056
   75CHL1   C15 6674   5.210   4.479   3.860 -0.0829 -0.3781  0.1492
   75CHL1  H15A 6675   5.113   4.532   3.844 -1.5244 -2.8780  0.0611
   75CHL1  H15B 6676   5.197   4.372   3.833 -1.0463 -0.8126  2.1539
   75CHL1   C16 6677   5.270   4.506   3.994 -0.5714 -0.6023  0.3045
   75CHL1  H16A 6678   5.196   4.553   4.063 -0.2040 -0.4165  0.5776
   75CHL1  H16B 6679   5.301   4.410   4.041  2.5027  0.3886  0.5033
   75CHL1   C17 6680   5.397   4.594   3.979  0.1107 -0.5448 -0.6948
   75CHL1   H17 6681   5.481   4.528   3.951  0.2742 -0.5213 -0.2634
   75CHL1   C13 6682   5.369   4.673   3.852  0.1776  0.6757 -0.2968
   75CHL1   C18 6683   5.263   4.779   3.875 -0.7450 -0.3760  0.5626
   75CHL1  H18A 6684   5.314   4.867   3.921 -1.4110 -1.3078  3.2605
   75CHL1  H18B 6685   5.200   4.810   3.789 -2.2853 -2.3863  0.8859
   75CHL1  H18C 6686   5.197   4.741   3.956 -0.5287 -1.7627  0.1029
   75CHL1   C12 6687   5.486   4.731   3.769  0.3373  0.4100 -0.4362
   75CHL1  H12A 6688   5.534   4.821   3.814 -2.9601  2.3632 -0.5390
   75CHL1  H12B 6689   5.566   4.655   3.754  0.0468  0.0158 -0.0196
   75CHL1   C11 6690   5.440   4.780   3.633  0.5751 -0.1372  0.9115
   75CHL1  H11A 6691   5.367   4.863   3.636  2.8969  2.0009  0.9117
   75CHL1  H11B 6692   5.527   4.827   3.583  0.8078 -0.1643  1.2823
   75CHL1    C9 6693   5.385   4.659   3.552  0.1823  0.6562 -0.2682
   75CHL1    H9 6694   5.466   4.582   3.544 -0.4492 -0.0012 -0.4783
   75CHL1   C10 6695   5.356   4.701   3.401  0.9124  0.0384 -0.0819
   75CHL1   C19 6696   5.279   4.832   3.408 -0.3259 -0.2415  0.2160
   75CHL1  H19A 6697   5.344   4.920   3.426  0.6885 -1.1093  0.8722
   75CHL1  H19B 6698   5.233   4.866   3.312  0.4061  0.5558  0.1288
   75CHL1  H19C 6699   5.193   4.822   3.477  0.7918  0.8375  1.8200
   75CHL1    C1 6700   5.495   4.714   3.320  0.1116 -0.3014 -0.5977
   75CHL1   H1A 6701   5.543   4.802   3.367 -0.0720 -1.0099  0.9850
   75CHL1   H1B 6702   5.555   4.621   3.336  1.7525  0.3987 -2.2842
   75CHL1    C2 6703   5.471   4.733   3.169  0.1830  1.0135 -0.3704
   75CHL1   H2A 6704   5.571   4.728   3.119  0.4526 -2.5890  0.2153
   75CHL1   H2B 6705   5.420   4.828   3.144 -1.6712  0.6339  1.7479
   75CHL1   C20 6706   5.433   4.670   4.107 -1.1346  0.6946  0.0346
   75CHL1   H20 6707   5.353   4.742   4.135 -1.4333  0.4755 -0.2442
   75CHL1   C21 6708   5.571   4.742   4.092 -0.7558 -0.7346  0.2021
   75CHL1  H21A 6709   5.612   4.791   4.183 -2.1095  0.7627  0.0403
   75CHL1  H21B 6710   5.550   4.823   4.019  1.5133  1.1597  1.4936
   75CHL1  H21C 6711   5.643   4.669   4.048 -0.6715 -1.8557  2.0827
   75CHL1   C22 6712   5.442   4.575   4.234  0.2527 -0.9157 -0.0723
   75CHL1  H22A 6713   5.339   4.536   4.251 -0.4832  0.5821 -0.8670
   75CHL1  H22B 6714   5.514   4.494   4.215  0.8385 -0.5123  0.3950
   75CHL1   C23 6715   5.461   4.647   4.364 -0.9713 -0.3355 -0.4010
   75CHL1  H23A 6716   5.557   4.703   4.356 -0.7477 -0.4458  1.1173
   75CHL1  H23B 6717   5.388   4.728   4.390  1.3932  2.3212 -1.5231
   75CHL1   C24 6718   5.472   4.546   4.488  0.8348  0.1796 -0.1635
   75CHL1  H24A 6719   5.365   4.518   4.491  0.7604  0.4847  0.1485
   75CHL1  H24B 6720   5.533   4.458   4.456  0.7695 -0.2425  0.8286
   75CHL1   C25 6721   5.526   4.602   4.623 -0.8495  0.5523  0.1798
   75CHL1   H25 6722   5.538   4.511   4.685  3.3892  0.2904 -0.7339
   75CHL1   C26 6723   5.666   4.663   4.616 -0.1984 -0.3364 -0.3159
   75CHL1  H26A 6724   5.745   4.592   4.585  2.5454  1.8120  1.3225
   75CHL1  H26B 6725   5.680   4.747   4.544  0.8897  0.4361  0.7707
   75CHL1  H26C 6726   5.701   4.695   4.716  3.2833  0.8715 -1.7750
   75CHL1   C27 6727   5.426   4.701   4.681 -0.5930 -0.3656  0.4899
   75CHL1  H27A 6728   5.324   4.658   4.692 -0.4807 -1.1702 -1.1692
   75CHL1  H27B 6729   5.467   4.732   4.779 -1.7524 -0.0334  0.8857
   75CHL1  H27C 6730   5.412   4.797   4.627 -2.2740 -0.1794  1.2035
   76CHL1    C3 6731   4.077   1.665   3.150 -0.4071  0.1782  0.1135
   76CHL1    H3 6732   4.126   1.764   3.167  1.2253 -0.0126 -2.9257
   76CHL1    O3 6733   4.075   1.660   3.014  0.6350 -0.1558  0.2085
   76CHL1   H3' 6734   4.012   1.591   2.991 -0.0272  0.1387  1.1141
   76CHL1    C4 6735   4.151   1.546   3.201 -0.3057  0.0874  0.6664
   76CHL1   H4A 6736   4.094   1.454   3.173 -3.6307  2.1516  0.0510
   76CHL1   H4B 6737   4.247   1.531   3.147 -1.2400 -2.7050 -0.3748
   76CHL1    C5 6738   4.167   1.556   3.353 -0.1921  0.5703 -0.3360
   76CHL1    C6 6739   4.290   1.559   3.411  0.2836  0.0898  0.1306
   76CHL1    H6 6740   4.373   1.538   3.343  0.6174 -1.4130  0.9644
   76CHL1    C7 6741   4.319   1.583   3.557  0.1478 -0.0187 -0.5237
   76CHL1   H7A 6742   4.410   1.533   3.596 -0.0270  0.7924  1.0047
   76CHL1   H7B 6743   4.341   1.689   3.580  2.5953 -0.6551  0.4019
   76CHL1    C8 6744   4.188   1.550   3.646  0.2162 -0.1938  0.1843
   76CHL1    H8 6745   4.173   1.441   3.639  0.7553 -0.2543 -0.1346
   76CHL1   C14 6746   4.200   1.597   3.796 -0.2652  0.7505 -0.2906
   76CHL1   H14 6747   4.233   1.703   3.793 -1.6535  1.2936  1.5885
   76CHL1   C15 6748   4.316   1.525   3.865 -0.5115 -0.5450 -0.5118
   76CHL1  H15A 6749   4.319   1.423   3.821  3.4527 -0.7116 -0.1957
   76CHL1  H15B 6750   4.409   1.585   3.857 -0.2596 -0.4909  2.1012
   76CHL1   C16 6751   4.268   1.526   4.015 -0.2206 -0.6065 -0.1179
   76CHL1  H16A 6752   4.257   1.419   4.043  2.1507 -0.2015  2.9737
   76CHL1  H16B 6753   4.345   1.565   4.085  0.4692 -2.4127  0.1882
   76CHL1   C17 6754   4.135   1.595   4.027  0.3804  0.0578 -0.0818
   76CHL1   H17 6755   4.155   1.704   4.038 -0.4734  0.1685  0.5174
   76CHL1   C13 6756   4.081   1.569   3.881  0.1959 -0.2596  0.0925
   76CHL1   C18 6757   4.039   1.419   3.881  0.2252 -0.4392  0.2345
   76CHL1  H18A 6758   4.030   1.385   3.775  0.9645  1.0093 -0.3260
   76CHL1  H18B 6759   4.116   1.355   3.929 -0.7524 -0.5064  1.7744
   76CHL1  H18C 6760   3.943   1.418   3.936  0.4426 -2.2207  0.6562
   76CHL1   C12 6761   3.971   1.656   3.819  0.3951 -0.3045  0.2968
   76CHL1  H12A 6762   3.874   1.652   3.871  0.9571  2.7728  1.8565
   76CHL1  H12B 6763   3.992   1.765   3.818 -1.1591  0.0129 -0.0744
   76CHL1   C11 6764   3.937   1.616   3.680 -0.2539  0.1641  0.4517
   76CHL1  H11A 6765   3.878   1.522   3.691  0.8338 -0.4856  0.9784
   76CHL1  H11B 6766   3.868   1.690   3.634 -1.8945 -0.7890  1.2817
   76CHL1    C9 6767   4.064   1.615   3.584  0.9738 -0.1343  0.1545
   76CHL1    H9 6768   4.076   1.725   3.576 -1.0434  0.0187 -1.6238
   76CHL1   C10 6769   4.033   1.580   3.430 -0.0320  1.3875 -0.2781
   76CHL1   C19 6770   3.951   1.453   3.430  0.0361 -0.0838 -0.2364
   76CHL1  H19A 6771   3.845   1.479   3.453  0.6346  1.4790  0.9400
   76CHL1  H19B 6772   3.951   1.401   3.332 -1.7690  2.1150 -1.5137
   76CHL1  H19C 6773   3.996   1.383   3.504  2.2049 -0.1384 -1.5043
   76CHL1    C1 6774   3.950   1.694   3.357  0.1817 -0.2613  0.2652
   76CHL1   H1A 6775   3.845   1.702   3.392 -0.3913 -1.3816 -1.1041
   76CHL1   H1B 6776   4.011   1.786   3.370  2.1126 -1.2389 -1.2854
   76CHL1    C2 6777   3.938   1.674   3.204  0.3969 -0.0561  0.1264
   76CHL1   H2A 6778   3.884   1.759   3.157  1.0977  1.3081  1.7081
   76CHL1   H2B 6779   3.881   1.581   3.182  2.5310 -0.8867 -2.3576
   76CHL1   C20 6780   4.044   1.556   4.151 -0.2936 -0.2858  0.3899
   76CHL1   H20 6781   4.039   1.447   4.168  0.8101 -0.5251 -0.6785
   76CHL1   C21 6782   3.908   1.620   4.139  1.0981 -0.1270  1.3491
   76CHL1  H21A 6783   3.907   1.730   4.119 -2.2705 -0.3420 -0.3476
   76CHL1  H21B 6784   3.843   1.622   4.228 -0.7571  2.5105  0.0867
   76CHL1  H21C 6785   3.841   1.579   4.060  0.2105 -0.6694  2.3607
   76CHL1   C22 6786   4.098   1.619   4.284 -0.4781  0.2360  0.3245
   76CHL1  H22A 6787   4.209   1.606   4.289 -0.7774 -2.6363  1.1030
   76CHL1  H22B 6788   4.087   1.729   4.270 -0.0385  0.1328 -0.9549
   76CHL1   C23 6789   4.043   1.558   4.418 -0.4906 -0.1321 -0.1036
   76CHL1  H23A 6790   3.932   1.565   4.408 -0.3559 -0.2330 -2.0664
   76CHL1  H23B 6791   4.066   1.450   4.426 -0.9422 -0.2619 -0.4859
   76CHL1   C24 6792   4.081   1.638   4.542  0.4240 -0.1201 -0.0136
   76CHL1  H24A 6793   4.191   1.638   4.550  0.4377 -1.6568  0.2258
   76CHL1  H24B 6794   4.046   1.742   4.525  0.8593 -0.0465 -0.4668
   76CHL1   C25 6795   4.030   1.585   4.680 -0.1730  0.5891 -0.2242
   76CHL1   H25 6796   4.059   1.478   4.694  0.0951  0.8043  1.0264
   76CHL1   C26 6797   4.097   1.675   4.789  0.0643 -0.6093 -0.8215
   76CHL1  H26A 6798   4.207   1.677   4.770  0.2310 -0.9892  0.0767
   76CHL1  H26B 6799   4.059   1.778   4.771 -0.9212 -1.0659 -1.4495
   76CHL1  H26C 6800   4.064   1.643   4.890 -1.9500 -0.0769 -1.2688
   76CHL1   C27 6801   3.876   1.598   4.700 -0.3858 -0.6067  0.0092
   76CHL1  H27A 6802   3.830   1.522   4.633  0.8112 -2.4936  1.2234
   76CHL1  H27B 6803   3.832   1.585   4.802 -1.4434 -0.1197 -0.3659
   76CHL1  H27C 6804   3.842   1.697   4.661 -1.7168 -1.5277 -1.2776
   77SOPE     N 6805   3.108   6.327   6.685 -0.0167  0.3823 -0.3556
   77SOPE   HN1 6806   3.146   6.417   6.720 -0.7592  0.8253 -0.6661
   77SOPE   HN2 6807   3.027   6.357   6.626 -1.4578 -0.5245  1.0785
   77SOPE   HN3 6808   3.069   6.260   6.754 -0.1751 -0.0332 -0.8469
   77SOPE   C12 6809   3.205   6.266   6.591 -0.7447 -0.3801 -0.1583
   77SOPE  H12A 6810   3.268   6.343   6.542 -0.4049  0.1599  1.0883
   77SOPE  H12B 6811   3.140   6.216   6.516 -2.4627  1.1650  0.2221
   77SOPE   C11 6812   3.287   6.160   6.670  0.0293 -0.2633  0.1936
   77SOPE  H11A 6813   3.365   6.119   6.603  0.2371  0.8751 -0.2792
   77SOPE  H11B 6814   3.212   6.079   6.685  0.3861 -1.1397 -2.3179
   77SOPE     P 6815   3.459   6.296   6.803  0.1333  0.0988 -0.0419
   77SOPE   O13 6816   3.538   6.265   6.923 -0.0260  0.0080 -0.3797
   77SOPE   O14 6817   3.403   6.430   6.781 -0.3302  0.6289  0.2265
   77SOPE   O12 6818   3.338   6.197   6.804 -0.5592 -0.3603 -0.0179
   77SOPE   O11 6819   3.537   6.254   6.676 -0.3069 -0.3073  0.7368
   77SOPE    C1 6820   3.664   6.187   6.680 -0.0324 -0.5628 -0.0374
   77SOPE    HA 6821   3.648   6.091   6.734  0.1388 -0.3478  0.3995
   77SOPE    HB 6822   3.743   6.249   6.727 -1.9360 -1.3879  4.9393
   77SOPE    C2 6823   3.707   6.142   6.540  0.2884 -0.1981  0.3977
   77SOPE    HS 6824   3.800   6.085   6.560  1.0334  0.3316 -1.3789
   77SOPE   O21 6825   3.728   6.252   6.450  0.1042  0.0222  0.2838
   77SOPE   C21 6826   3.827   6.335   6.478  0.2422  0.0551  0.9375
   77SOPE   O22 6827   3.912   6.319   6.560  0.2209  0.6037 -0.3748
   77SOPE   C22 6828   3.827   6.452   6.381  0.2266 -0.0229  0.4855
   77SOPE   H2R 6829   3.877   6.538   6.430  1.4808 -1.2878  1.5009
   77SOPE   H2S 6830   3.720   6.477   6.362  0.6855  2.9467  1.2437
   77SOPE    C3 6831   3.604   6.045   6.475 -0.0245 -0.3361 -0.3055
   77SOPE    HX 6832   3.537   6.118   6.426  1.8426  0.9901 -0.9859
   77SOPE    HY 6833   3.539   6.000   6.554  0.5962 -1.3009 -0.3195
   77SOPE   O31 6834   3.669   5.937   6.394  0.1211 -0.6513  0.1874
   77SOPE   C31 6835   3.591   5.868   6.319 -0.2286 -0.6551 -0.0281
   77SOPE   O32 6836   3.474   5.891   6.299  0.2047  0.0710 -0.5462
   77SOPE   C32 6837   3.666   5.753   6.253  0.5131  0.6208 -0.0027
   77SOPE   H2X 6838   3.630   5.654   6.289 -0.3938  1.1249  0.5173
   77SOPE   H2Y 6839   3.770   5.779   6.279 -0.1437  2.6797  0.7692
   77SOPE   C23 6840   3.898   6.423   6.249  0.2621 -0.7947  0.3074
   77SOPE   H3R 6841   3.903   6.319   6.210  0.9131 -0.6708  0.0553
   77SOPE   H3S 6842   3.998   6.468   6.267 -0.3586  0.7328  0.1320
   77SOPE   C24 6843   3.832   6.505   6.135 -0.2078  0.1646 -0.5025
   77SOPE   H4R 6844   3.726   6.470   6.132  0.0849 -1.4333  2.8732
   77SOPE   H4S 6845   3.819   6.611   6.164 -0.9389  0.0350 -0.3199
   77SOPE   C25 6846   3.905   6.490   6.000  0.2638  0.2232  0.3985
   77SOPE   H5R 6847   4.015   6.506   6.010  0.2709  0.7324 -0.3992
   77SOPE   H5S 6848   3.886   6.383   5.978 -1.4615  0.4809  0.5318
   77SOPE   C26 6849   3.845   6.569   5.888 -0.0343 -0.2085 -0.0986
   77SOPE   H6R 6850   3.736   6.553   5.902  0.3993 -1.7627  2.2379
   77SOPE   H6S 6851   3.865   6.678   5.893 -1.9164  0.1445  0.6413
   77SOPE   C27 6852   3.894   6.514   5.748 -0.5111 -0.2479 -0.7769
   77SOPE   H7R 6853   4.004   6.521   5.743 -0.4315  0.2274  1.0148
   77SOPE   H7S 6854   3.877   6.405   5.738  1.2047 -0.4789 -1.4072
   77SOPE   C28 6855   3.825   6.601   5.640  0.3146 -0.5974  0.3220
   77SOPE   H8R 6856   3.719   6.616   5.668  0.6954  0.6520  1.2075
   77SOPE   H8S 6857   3.871   6.703   5.641 -2.7628  0.8953  0.4002
   77SOPE   C29 6858   3.848   6.530   5.510 -0.4328  0.0165 -0.7490
   77SOPE   H91 6859   3.827   6.422   5.501  0.9304 -0.0759 -3.8567
   77SOPE  C210 6860   3.891   6.594   5.395 -0.1634 -0.1751 -0.5060
   77SOPE  H101 6861   3.924   6.536   5.307 -0.3854  0.4566 -1.0118
   77SOPE  C211 6862   3.920   6.737   5.385 -0.0533 -0.5725  0.1696
   77SOPE  H11R 6863   4.011   6.754   5.323 -0.6053 -0.0593 -0.5017
   77SOPE  H11S 6864   3.932   6.788   5.483 -1.1790  0.0545 -0.0134
   77SOPE  C212 6865   3.813   6.819   5.319 -0.0811 -0.0572  0.2679
   77SOPE  H12R 6866   3.862   6.919   5.314  2.0289 -0.9499  1.7684
   77SOPE  H12S 6867   3.719   6.826   5.377 -0.5538  0.6436 -0.5572
   77SOPE  C213 6868   3.771   6.767   5.177 -0.0065 -0.0277  0.1046
   77SOPE  H13R 6869   3.730   6.665   5.189  0.7538 -0.4864 -1.0244
   77SOPE  H13S 6870   3.865   6.765   5.119 -0.2847  0.5094 -0.3787
   77SOPE  C214 6871   3.669   6.855   5.115 -0.1456  0.0473 -0.5826
   77SOPE  H14R 6872   3.708   6.959   5.111 -0.4911  0.2213  0.2869
   77SOPE  H14S 6873   3.574   6.852   5.173  1.2342  1.1656  1.8684
   77SOPE  C215 6874   3.631   6.810   4.973  0.4083 -0.4535 -0.1377
   77SOPE  H15R 6875   3.608   6.702   4.981 -2.1247 -0.0457 -0.8961
   77SOPE  H15S 6876   3.704   6.833   4.893  1.7094  1.1421  1.4067
   77SOPE  C216 6877   3.498   6.871   4.940 -0.2806 -0.0552  0.4971
   77SOPE  H16R 6878   3.422   6.859   5.020  0.9076  0.1727  1.7040
   77SOPE  H16S 6879   3.470   6.823   4.844 -0.7892  0.3749  0.4262
   77SOPE  C217 6880   3.508   7.023   4.901  0.8495 -0.0754 -0.2375
   77SOPE  H17R 6881   3.581   7.027   4.817 -1.0613  0.1204 -1.9542
   77SOPE  H17S 6882   3.551   7.064   4.996  3.1419 -3.2106  0.2501
   77SOPE  C218 6883   3.380   7.090   4.859  0.2646 -0.1109  0.3225
   77SOPE  H18R 6884   3.393   7.198   4.839 -0.6859 -0.3064 -1.6824
   77SOPE  H18S 6885   3.294   7.067   4.925 -0.5116 -3.2638 -1.5835
   77SOPE  H18T 6886   3.367   7.044   4.758 -1.5388 -1.1469  0.9836
   77SOPE   C33 6887   3.657   5.749   6.103 -0.1044 -0.0975  0.0848
   77SOPE   H3X 6888   3.671   5.847   6.052  2.0421 -0.2969  0.1985
   77SOPE   H3Y 6889   3.553   5.715   6.086 -1.0324  2.3956  0.4289
   77SOPE   C34 6890   3.755   5.643   6.042 -0.1348 -0.0369  0.0314
   77SOPE   H4X 6891   3.700   5.547   6.038 -0.5527  0.2590 -2.8674
   77SOPE   H4Y 6892   3.845   5.619   6.104  0.1846 -0.5707 -0.6252
   77SOPE   C35 6893   3.788   5.673   5.897 -0.1879  0.0322 -0.1104
   77SOPE   H5X 6894   3.838   5.772   5.884 -1.4444  0.8877  1.2048
   77SOPE   H5Y 6895   3.693   5.683   5.842 -0.0538  0.2403 -0.3050
   77SOPE   C36 6896   3.862   5.562   5.823  0.3117  0.7142  0.7796
   77SOPE   H6X 6897   3.819   5.465   5.856  1.4350 -0.0030  0.1583
   77SOPE   H6Y 6898   3.970   5.558   5.847  0.7496 -2.2694 -1.1508
   77SOPE   C37 6899   3.847   5.555   5.672 -0.0848 -0.7060  0.0014
   77SOPE   H7X 6900   3.913   5.633   5.629 -0.2831  0.6275  1.9700
   77SOPE   H7Y 6901   3.741   5.572   5.642  0.0162 -1.3294 -0.7460
   77SOPE   C38 6902   3.877   5.417   5.616  0.3216  0.2315  0.2002
   77SOPE   H8X 6903   3.799   5.349   5.655 -0.6218  1.3152  0.2559
   77SOPE   H8Y 6904   3.980   5.384   5.642  0.8443  2.8281  1.8718
   77SOPE   C39 6905   3.862   5.399   5.463 -0.5239 -0.1672  0.4120
   77SOPE   H9X 6906   3.955   5.438   5.417 -0.7665 -2.4249 -2.3014
   77SOPE   H9Y 6907   3.783   5.472   5.437  0.1094  0.5604  0.4957
   77SOPE  C310 6908   3.821   5.253   5.421 -1.0638  0.8544  0.4795
   77SOPE  H10X 6909   3.723   5.219   5.461  0.7335 -2.1734  2.7270
   77SOPE  H10Y 6910   3.895   5.192   5.477 -1.1114  0.8806  0.5711
   77SOPE  C311 6911   3.830   5.226   5.267 -1.1085 -0.0818  0.1657
   77SOPE  H11X 6912   3.813   5.118   5.248 -1.3457 -0.2813  1.4578
   77SOPE  H11Y 6913   3.933   5.248   5.230 -1.5303 -1.0036 -1.6918
   77SOPE  C312 6914   3.744   5.317   5.179  0.3716 -0.0370  0.2680
   77SOPE  H12X 6915   3.772   5.421   5.204  0.3124  0.8024 -2.7819
   77SOPE  H12Y 6916   3.640   5.296   5.211  0.5495 -0.4396  0.6012
   77SOPE  C313 6917   3.774   5.310   5.028  0.0237 -0.2422 -0.6068
   77SOPE  H13X 6918   3.742   5.218   4.974 -2.2506 -0.3412  0.7990
   77SOPE  H13Y 6919   3.885   5.307   5.019 -0.0179  0.8233 -1.9885
   77SOPE  C314 6920   3.728   5.441   4.955  0.0707  0.3382 -0.4581
   77SOPE  H14X 6921   3.747   5.529   5.019 -2.4966  0.5773  0.0738
   77SOPE  H14Y 6922   3.617   5.433   4.943 -0.2719  2.2153  1.0375
   77SOPE  C315 6923   3.794   5.458   4.820  0.8564  0.1038 -0.2904
   77SOPE  H15X 6924   3.795   5.363   4.762 -2.0398  0.1960 -0.6258
   77SOPE  H15Y 6925   3.901   5.487   4.833  0.6181  0.4221  1.2238
   77SOPE  C316 6926   3.723   5.551   4.723  0.0985 -0.1819 -0.2694
   77SOPE  H16X 6927   3.704   5.653   4.765 -1.5324  0.1606 -1.7347
   77SOPE  H16Y 6928   3.619   5.517   4.703  0.0680  0.7777 -1.9780
   77SOPE  C317 6929   3.799   5.573   4.586 -0.3972 -0.5314  0.2544
   77SOPE  H17X 6930   3.888   5.636   4.609  0.2032 -1.8902  1.8329
   77SOPE  H17Y 6931   3.728   5.624   4.517  0.5583 -1.4118 -1.4448
   77SOPE  C318 6932   3.848   5.436   4.509 -0.1949 -0.3586 -0.3214
   77SOPE  H18X 6933   3.945   5.403   4.551  0.7223  2.1474 -0.3163
   77SOPE  H18Y 6934   3.850   5.453   4.399 -0.7049 -3.4622 -0.9103
   77SOPE  H18Z 6935   3.770   5.361   4.534  0.2002  0.2406  3.2481
   78SOPE     N 6936   1.618   5.795   7.114  0.6418  0.8055 -0.4389
   78SOPE   HN1 6937   1.528   5.833   7.150 -0.1445 -0.0142 -1.4601
   78SOPE   HN2 6938   1.583   5.702   7.083 -0.0192  1.0790 -0.5325
   78SOPE   HN3 6939   1.697   5.792   7.182  1.4151 -1.8946 -1.2949
   78SOPE   C12 6940   1.664   5.873   6.999 -0.5629  0.0284  0.0635
   78SOPE  H12A 6941   1.691   5.977   7.026 -0.0650 -0.4270  1.3923
   78SOPE  H12B 6942   1.578   5.889   6.930 -0.0725  0.1066 -0.5417
   78SOPE   C11 6943   1.789   5.812   6.938 -0.7434  0.0891 -0.2205
   78SOPE  H11A 6944   1.769   5.705   6.913 -0.3644 -0.1155  0.3263
   78SOPE  H11B 6945   1.869   5.806   7.015  0.0673 -1.6300 -1.1419
   78SOPE     P 6946   1.899   6.022   6.833  0.0443 -0.0599  0.1692
   78SOPE   O13 6947   1.947   6.050   6.976  0.6059  0.1087 -0.5611
   78SOPE   O14 6948   1.802   6.125   6.778 -0.0779  0.1800  0.5429
   78SOPE   O12 6949   1.827   5.888   6.824  0.4636  0.3881 -0.4398
   78SOPE   O11 6950   2.023   6.016   6.739 -0.3417 -0.1577 -0.2937
   78SOPE    C1 6951   2.105   5.911   6.706 -0.0103 -0.1809 -0.3008
   78SOPE    HA 6952   2.081   5.825   6.772 -0.9023 -0.4352 -0.9356
   78SOPE    HB 6953   2.207   5.953   6.720 -0.9929  2.0970  0.4860
   78SOPE    C2 6954   2.093   5.874   6.553  0.0334  0.0050 -0.3554
   78SOPE    HS 6955   2.140   5.955   6.494 -1.8808  1.6300  0.2315
   78SOPE   O21 6956   1.960   5.850   6.510 -0.0489  0.0710 -0.4795
   78SOPE   C21 6957   1.904   5.949   6.441  0.4994 -0.1443 -0.0469
   78SOPE   O22 6958   1.950   6.051   6.394 -0.1972  0.2781  0.3363
   78SOPE   C22 6959   1.764   5.899   6.418 -0.5113 -0.4366  0.0681
   78SOPE   H2R 6960   1.701   5.932   6.503  0.6521  2.3603 -0.0731
   78SOPE   H2S 6961   1.764   5.788   6.416 -1.3411 -0.4403 -0.7203
   78SOPE    C3 6962   2.175   5.743   6.519 -0.2000 -0.0249  1.3109
   78SOPE    HX 6963   2.132   5.661   6.581 -0.8926  0.9124  2.1159
   78SOPE    HY 6964   2.279   5.756   6.555  0.5565  0.7414 -1.0094
   78SOPE   O31 6965   2.175   5.704   6.380 -0.0430  0.9700 -0.5026
   78SOPE   C31 6966   2.256   5.772   6.304 -0.2273 -0.6728 -0.3716
   78SOPE   O32 6967   2.332   5.857   6.349 -0.4615  0.1536  0.6023
   78SOPE   C32 6968   2.245   5.728   6.162 -0.2738  0.6675 -0.6381
   78SOPE   H2X 6969   2.165   5.653   6.142  0.0986  0.3087 -0.7956
   78SOPE   H2Y 6970   2.341   5.679   6.136 -0.8519 -0.6534 -0.3485
   78SOPE   C23 6971   1.706   5.936   6.286  0.8017 -0.6868  0.4190
   78SOPE   H3R 6972   1.681   5.840   6.236 -1.7809  0.4696 -0.6906
   78SOPE   H3S 6973   1.782   5.984   6.222  0.3922 -0.2568  0.2576
   78SOPE   C24 6974   1.572   6.008   6.278  0.2166  0.3121  0.2275
   78SOPE   H4R 6975   1.497   5.927   6.269  0.5065  0.0419  0.2560
   78SOPE   H4S 6976   1.558   6.070   6.370  0.9835 -0.4051  0.8458
   78SOPE   C25 6977   1.557   6.099   6.151 -0.7099 -0.1195 -0.7916
   78SOPE   H5R 6978   1.455   6.142   6.163 -0.9422 -1.1355  1.2926
   78SOPE   H5S 6979   1.637   6.175   6.153 -0.8262  0.0131  1.7248
   78SOPE   C26 6980   1.563   6.014   6.018 -0.0245 -0.1649 -0.8808
   78SOPE   H6R 6981   1.666   5.978   5.994  0.1615  0.3380 -0.8456
   78SOPE   H6S 6982   1.484   5.937   6.014 -1.0493  0.5147  2.7032
   78SOPE   C27 6983   1.549   6.121   5.909  0.6675  0.5389 -0.2189
   78SOPE   H7R 6984   1.445   6.162   5.911  1.4615  2.7525 -0.9039
   78SOPE   H7S 6985   1.626   6.200   5.921  2.0432 -0.6170 -1.1882
   78SOPE   C28 6986   1.583   6.071   5.764 -0.8081  0.7436 -0.3901
   78SOPE   H8R 6987   1.600   6.154   5.693  1.9937  1.1353  0.6236
   78SOPE   H8S 6988   1.685   6.031   5.778 -1.3782 -0.8061 -0.5030
   78SOPE   C29 6989   1.495   5.957   5.714 -0.5499 -0.5012  0.0979
   78SOPE   H91 6990   1.504   5.862   5.768 -0.7150  0.1767  1.3413
   78SOPE  C210 6991   1.412   5.965   5.612  0.4508  0.1014 -0.1584
   78SOPE  H101 6992   1.362   5.869   5.590  0.3285 -0.0013  0.5528
   78SOPE  C211 6993   1.377   6.082   5.526 -0.2887 -0.3324 -0.6186
   78SOPE  H11R 6994   1.392   6.180   5.574 -2.8369 -0.1429 -0.0783
   78SOPE  H11S 6995   1.268   6.075   5.505 -0.7136  1.5180  0.7777
   78SOPE  C212 6996   1.451   6.080   5.389 -0.1434 -0.1588  0.3535
   78SOPE  H12R 6997   1.554   6.114   5.414 -0.8651  2.4344  0.1026
   78SOPE  H12S 6998   1.419   6.167   5.327 -0.9968 -0.0676  0.9164
   78SOPE  C213 6999   1.446   5.948   5.311  0.2354 -0.2318  0.1744
   78SOPE  H13R 7000   1.339   5.919   5.309  0.9261 -3.1130  1.1119
   78SOPE  H13S 7001   1.492   5.872   5.376  1.2283  1.8027  1.9851
   78SOPE  C214 7002   1.482   5.960   5.162  0.4069  0.4213 -0.2432
   78SOPE  H14R 7003   1.592   5.972   5.158  0.5196 -0.8965 -1.9408
   78SOPE  H14S 7004   1.431   6.050   5.121  0.4310 -0.1454 -1.5395
   78SOPE  C215 7005   1.443   5.830   5.093 -0.2065  0.0018  0.7786
   78SOPE  H15R 7006   1.332   5.830   5.099 -0.2867  1.8439 -0.0528
   78SOPE  H15S 7007   1.471   5.737   5.146 -0.0988 -0.8105 -0.6623
   78SOPE  C216 7008   1.485   5.830   4.949  0.2677 -0.3868  0.1019
   78SOPE  H16R 7009   1.467   5.925   4.893  1.8564 -1.4526 -2.3967
   78SOPE  H16S 7010   1.436   5.744   4.898  0.0020  0.4306 -1.0616
   78SOPE  C217 7011   1.637   5.820   4.925 -0.0126 -0.0155 -0.2358
   78SOPE  H17R 7012   1.674   5.718   4.951  0.0956 -0.2352 -1.2315
   78SOPE  H17S 7013   1.690   5.894   4.989 -0.2505  0.9392 -1.1317
   78SOPE  C218 7014   1.669   5.825   4.784  0.1319 -0.1253 -0.2996
   78SOPE  H18R 7015   1.643   5.729   4.736 -0.5301  0.5511 -1.3090
   78SOPE  H18S 7016   1.780   5.826   4.781  0.2752  0.2101  2.2057
   78SOPE  H18T 7017   1.619   5.902   4.722  0.8350 -0.0752 -0.8135
   78SOPE   C33 7018   2.225   5.844   6.064 -0.1068 -0.9383  0.6468
   78SOPE   H3X 7019   2.225   5.813   5.957 -0.2387  0.5006  0.1961
   78SOPE   H3Y 7020   2.294   5.931   6.073 -0.8280 -0.2942  0.0931
   78SOPE   C34 7021   2.086   5.910   6.074 -0.1670 -0.2718 -0.2022
   78SOPE   H4X 7022   2.077   5.946   6.179  0.0194 -2.6641  0.6800
   78SOPE   H4Y 7023   2.016   5.824   6.067 -2.8809  1.8494 -1.1149
   78SOPE   C35 7024   2.047   6.015   5.964 -0.6549 -0.1648  0.4503
   78SOPE   H5X 7025   2.137   6.080   5.966 -1.6212  1.3871 -2.0430
   78SOPE   H5Y 7026   1.964   6.081   5.996 -0.8164 -0.3669  0.4483
   78SOPE   C36 7027   2.013   5.957   5.833  0.2751 -0.3133 -0.3267
   78SOPE   H6X 7028   1.907   5.929   5.844 -0.1757  1.2732 -0.3411
   78SOPE   H6Y 7029   2.089   5.876   5.825  1.1048  0.5199 -1.1827
   78SOPE   C37 7030   2.035   6.068   5.729  0.4590 -0.3447  0.0493
   78SOPE   H7X 7031   2.143   6.064   5.704  0.7185 -0.1043  1.0995
   78SOPE   H7Y 7032   1.995   6.164   5.767 -2.0511 -0.8368 -1.0752
   78SOPE   C38 7033   1.953   6.035   5.598 -0.4328 -1.1910 -1.2067
   78SOPE   H8X 7034   1.847   6.057   5.621  0.1741 -1.4395  2.5037
   78SOPE   H8Y 7035   1.957   5.927   5.572  2.0083 -0.8860 -2.3368
   78SOPE   C39 7036   1.992   6.124   5.476 -0.0481 -0.2176  0.2596
   78SOPE   H9X 7037   2.099   6.109   5.449  0.0977  0.3260  0.5119
   78SOPE   H9Y 7038   1.995   6.234   5.493  1.8094  0.0579 -1.4612
   78SOPE  C310 7039   1.901   6.092   5.356  0.2576  0.1122 -0.3790
   78SOPE  H10X 7040   1.797   6.124   5.380  0.5626  1.5783 -0.9052
   78SOPE  H10Y 7041   1.890   5.984   5.330  1.1201  0.5416 -2.7110
   78SOPE  C311 7042   1.965   6.153   5.232  0.7073 -0.0604  0.4126
   78SOPE  H11X 7043   2.058   6.095   5.214 -0.3657 -2.7275  2.6155
   78SOPE  H11Y 7044   1.977   6.260   5.261  1.1959 -0.1010  0.3678
   78SOPE  C312 7045   1.876   6.142   5.107 -0.3672  0.3671 -0.6660
   78SOPE  H12X 7046   1.842   6.038   5.090  1.2426 -0.0830 -1.2880
   78SOPE  H12Y 7047   1.933   6.174   5.017  3.1674  0.7616  1.5544
   78SOPE  C313 7048   1.758   6.234   5.117 -0.2848 -0.0902 -0.2584
   78SOPE  H13X 7049   1.791   6.340   5.125 -1.8194  0.3670  0.6281
   78SOPE  H13Y 7050   1.691   6.228   5.206 -2.1306  0.6582 -1.5182
   78SOPE  C314 7051   1.664   6.224   4.994  0.0103  0.5964  0.4791
   78SOPE  H14X 7052   1.563   6.248   5.033  0.3195  0.4980  1.3891
   78SOPE  H14Y 7053   1.655   6.114   4.978 -1.0745  0.6975  0.3654
   78SOPE  C315 7054   1.676   6.300   4.862  0.2810  0.3267  1.1366
   78SOPE  H15X 7055   1.742   6.388   4.880  1.1680 -0.3220  1.1259
   78SOPE  H15Y 7056   1.573   6.337   4.841  0.6907  1.5240  1.1511
   78SOPE  C316 7057   1.748   6.215   4.748  0.1730 -0.3008  0.0244
   78SOPE  H16X 7058   1.693   6.120   4.734  0.9536 -0.7003 -0.4739
   78SOPE  H16Y 7059   1.851   6.188   4.782  0.3198  0.7141  0.4016
   78SOPE  C317 7060   1.746   6.290   4.614 -0.7548 -0.5995  0.1766
   78SOPE  H17X 7061   1.647   6.314   4.572  0.6715  0.4302 -2.8788
   78SOPE  H17Y 7062   1.791   6.217   4.543  0.5063  0.1248  0.2066
   78SOPE  C318 7063   1.834   6.416   4.599 -0.1676  1.1498  0.3068
   78SOPE  H18X 7064   1.822   6.491   4.680 -2.6040 -0.4608  1.5579
   78SOPE  H18Y 7065   1.814   6.458   4.499 -0.0086 -0.2819 -0.3610
   78SOPE  H18Z 7066   1.940   6.382   4.602 -0.7198 -0.6675  2.5601
   79SOPE     N 7067   3.885   3.011   7.090  0.0025  0.0449  0.3838
   79SOPE   HN1 7068   3.919   3.041   7.183  1.9250  0.1242 -0.2969
   79SOPE   HN2 7069   3.781   3.007   7.083 -0.1073  3.0887 -2.3319
   79SOPE   HN3 7070   3.934   2.925   7.057  1.0545  0.6491  0.3147
   79SOPE   C12 7071   3.924   3.121   6.992 -0.3936 -0.0916  0.3025
   79SOPE  H12A 7072   3.866   3.215   7.004  0.3545  0.3221  0.7983
   79SOPE  H12B 7073   3.915   3.086   6.887  1.3503  2.2252 -0.6997
   79SOPE   C11 7074   4.073   3.164   7.003 -0.0125 -0.8178 -0.1839
   79SOPE  H11A 7075   4.087   3.217   7.100  2.1428  0.7465 -1.2410
   79SOPE  H11B 7076   4.098   3.244   6.930  0.4383  1.0030  1.8612
   79SOPE     P 7077   4.273   3.005   7.075 -0.2560 -0.2109 -0.0301
   79SOPE   O13 7078   4.260   2.861   7.085  0.6485  0.2121 -0.5283
   79SOPE   O14 7079   4.266   3.081   7.200  0.0345 -0.2708  0.2524
   79SOPE   O12 7080   4.162   3.053   6.980  0.5522  0.3282 -0.6751
   79SOPE   O11 7081   4.411   3.041   7.014 -0.0218 -0.4896 -0.2898
   79SOPE    C1 7082   4.424   3.146   6.913  0.4516  0.1436  0.3959
   79SOPE    HA 7083   4.512   3.210   6.936 -0.5609  1.2557  1.2995
   79SOPE    HB 7084   4.339   3.217   6.917  0.8680  0.5951  2.6956
   79SOPE    C2 7085   4.455   3.091   6.772 -0.4505  0.1422 -0.1045
   79SOPE    HS 7086   4.493   3.172   6.706  2.3556  1.1737  2.5926
   79SOPE   O21 7087   4.335   3.031   6.716 -0.2388 -0.1462  0.4499
   79SOPE   C21 7088   4.241   3.106   6.685  0.0227 -0.1987  0.6033
   79SOPE   O22 7089   4.243   3.229   6.668 -0.1125  0.0468 -0.4235
   79SOPE   C22 7090   4.120   3.017   6.666  0.2831 -0.4855  0.1011
   79SOPE   H2R 7091   4.078   2.972   6.758 -1.0015 -0.7688 -0.5937
   79SOPE   H2S 7092   4.153   2.928   6.609  1.5384 -0.1889  0.3530
   79SOPE    C3 7093   4.566   2.981   6.776 -0.1546 -0.4742  0.8046
   79SOPE    HX 7094   4.543   2.917   6.864  1.5172 -1.3148  0.6544
   79SOPE    HY 7095   4.665   3.021   6.804 -0.9418  1.5242  0.9104
   79SOPE   O31 7096   4.584   2.914   6.652  0.1303  0.1935  0.0150
   79SOPE   C31 7097   4.512   2.806   6.636  0.5398  0.1775 -0.1320
   79SOPE   O32 7098   4.451   2.750   6.725 -0.7639  0.4480 -0.0587
   79SOPE   C32 7099   4.526   2.757   6.492  0.2453 -0.2311  0.1513
   79SOPE   H2X 7100   4.503   2.648   6.497  0.2602 -0.1956  1.2324
   79SOPE   H2Y 7101   4.635   2.773   6.475  0.0597  2.9539  1.3613
   79SOPE   C23 7102   3.996   3.094   6.612 -0.0519 -0.1220 -0.4260
   79SOPE   H3R 7103   3.983   3.183   6.678  2.1930 -0.3187  0.3797
   79SOPE   H3S 7104   3.905   3.032   6.626 -1.2369  1.5905 -0.2300
   79SOPE   C24 7105   4.026   3.145   6.470 -0.4611  0.5106 -0.0503
   79SOPE   H4R 7106   3.947   3.215   6.436  1.3225  1.7059 -1.9833
   79SOPE   H4S 7107   4.129   3.183   6.451 -1.0743  2.3896  0.1712
   79SOPE   C25 7108   4.014   3.019   6.378  0.4205 -0.7538 -0.1157
   79SOPE   H5R 7109   4.078   2.936   6.413  1.2752 -0.2721 -0.5156
   79SOPE   H5S 7110   3.910   2.982   6.397  0.5296 -0.7085  0.6259
   79SOPE   C26 7111   4.036   3.045   6.226  0.0425 -0.1312 -0.6631
   79SOPE   H6R 7112   3.984   3.139   6.200 -0.5566 -0.2302  0.1370
   79SOPE   H6S 7113   4.144   3.062   6.205 -0.0859  0.6009 -0.7482
   79SOPE   C27 7114   3.974   2.944   6.131  0.3918  0.1143  0.3087
   79SOPE   H7R 7115   4.022   2.844   6.138  1.1081  0.0931 -2.9878
   79SOPE   H7S 7116   3.870   2.927   6.165  1.2495  1.5582  4.1600
   79SOPE   C28 7117   3.974   2.997   5.982 -0.4839 -0.7515 -1.2339
   79SOPE   H8R 7118   3.915   3.090   5.971  0.4643 -0.1801 -1.6744
   79SOPE   H8S 7119   4.080   3.029   5.967 -0.5254  0.0537  0.0535
   79SOPE   C29 7120   3.944   2.887   5.883  0.3073 -0.2815 -0.3543
   79SOPE   H91 7121   4.020   2.809   5.865  0.7011  0.5336 -2.4632
   79SOPE  C210 7122   3.856   2.892   5.776 -0.1654 -0.5949 -0.1138
   79SOPE  H101 7123   3.863   2.811   5.702 -2.5760  0.3900 -1.5492
   79SOPE  C211 7124   3.748   2.995   5.775 -0.4290 -0.2751 -0.0219
   79SOPE  H11R 7125   3.789   3.092   5.739 -1.6230  0.8506  1.5024
   79SOPE  H11S 7126   3.703   2.999   5.876  1.4851 -3.5059  1.0871
   79SOPE  C212 7127   3.645   2.966   5.665  0.6193  0.0900 -0.9719
   79SOPE  H12R 7128   3.708   2.961   5.574  2.4475  1.0132  0.1855
   79SOPE  H12S 7129   3.589   3.060   5.645  0.5043  0.2068 -0.1589
   79SOPE  C213 7130   3.552   2.848   5.682  0.4608  1.1778  0.0984
   79SOPE  H13R 7131   3.612   2.754   5.683  0.0234  0.9009  0.6361
   79SOPE  H13S 7132   3.488   2.851   5.591  0.5660  0.2712 -0.0148
   79SOPE  C214 7133   3.468   2.839   5.812 -0.1381 -0.2044  0.5492
   79SOPE  H14R 7134   3.531   2.806   5.897 -2.2265  0.3427  2.4082
   79SOPE  H14S 7135   3.398   2.757   5.788  0.7802 -0.5457 -1.1078
   79SOPE  C215 7136   3.399   2.971   5.845 -0.3203  0.2716  0.3831
   79SOPE  H15R 7137   3.342   2.992   5.752 -0.6515  0.6501  0.6703
   79SOPE  H15S 7138   3.471   3.054   5.861 -0.1245 -0.4206  3.7186
   79SOPE  C216 7139   3.304   2.964   5.958  0.2942 -0.1196  0.3224
   79SOPE  H16R 7140   3.228   2.884   5.950  1.1283 -0.9976  0.9338
   79SOPE  H16S 7141   3.238   3.051   5.978 -2.5702 -1.8188 -1.1781
   79SOPE  C217 7142   3.375   2.945   6.092  0.0844  1.4070 -0.3348
   79SOPE  H17R 7143   3.449   3.025   6.110  1.2040  0.5849 -1.1440
   79SOPE  H17S 7144   3.415   2.844   6.071 -3.4071 -0.2060  0.1240
   79SOPE  C218 7145   3.277   2.932   6.210 -0.9124 -0.5873 -1.2480
   79SOPE  H18R 7146   3.214   3.023   6.202 -2.5265 -1.5871 -0.4299
   79SOPE  H18S 7147   3.338   2.935   6.303  0.4038 -0.8618 -2.0871
   79SOPE  H18T 7148   3.214   2.840   6.209 -0.3415 -0.9792 -2.0963
   79SOPE   C33 7149   4.427   2.828   6.397 -0.2921 -0.2344 -0.2435
   79SOPE   H3X 7150   4.456   2.934   6.406  1.7259 -0.9590  3.7065
   79SOPE   H3Y 7151   4.327   2.813   6.444 -1.2876 -1.7705 -2.6603
   79SOPE   C34 7152   4.430   2.772   6.253  0.1811 -0.4150 -0.5797
   79SOPE   H4X 7153   4.327   2.776   6.214  0.0290  0.6444 -0.1161
   79SOPE   H4Y 7154   4.450   2.664   6.262 -2.1773 -0.7864  0.9510
   79SOPE   C35 7155   4.512   2.848   6.145  0.5070 -0.1834  0.4134
   79SOPE   H5X 7156   4.617   2.827   6.175  1.6566  1.2044 -2.2884
   79SOPE   H5Y 7157   4.506   2.959   6.143  2.0384 -0.0814 -0.8818
   79SOPE   C36 7158   4.494   2.781   6.010 -0.0169 -0.3407 -0.2841
   79SOPE   H6X 7159   4.394   2.815   5.974  0.8306  2.5168 -0.1468
   79SOPE   H6Y 7160   4.486   2.673   6.035  0.8842 -0.2737  0.3403
   79SOPE   C37 7161   4.614   2.795   5.918  0.0121 -0.3991  0.1919
   79SOPE   H7X 7162   4.704   2.754   5.970  0.7057  0.5593 -0.2174
   79SOPE   H7Y 7163   4.641   2.901   5.901  1.4205 -0.7174  0.2534
   79SOPE   C38 7164   4.607   2.724   5.777 -0.2941 -0.0068 -0.9530
   79SOPE   H8X 7165   4.503   2.730   5.739  0.5644  1.3347 -3.3432
   79SOPE   H8Y 7166   4.643   2.620   5.791  0.7505  0.5627  1.0028
   79SOPE   C39 7167   4.697   2.799   5.676 -0.5855  0.4797  0.0158
   79SOPE   H9X 7168   4.801   2.760   5.674 -1.4934 -2.1944  0.0977
   79SOPE   H9Y 7169   4.694   2.904   5.713  1.4004  0.4920  0.2184
   79SOPE  C310 7170   4.642   2.774   5.540 -0.0189 -0.2079  0.3794
   79SOPE  H10X 7171   4.533   2.792   5.540 -0.0835 -0.4607 -1.1727
   79SOPE  H10Y 7172   4.670   2.676   5.497  2.2123  0.4367  0.2110
   79SOPE  C311 7173   4.679   2.874   5.429 -0.4510 -0.1151 -0.0446
   79SOPE  H11X 7174   4.787   2.881   5.406  0.0951  0.4506  2.4199
   79SOPE  H11Y 7175   4.663   2.978   5.463  1.2769  0.6742 -1.5032
   79SOPE  C312 7176   4.594   2.853   5.303  0.4425 -0.0038 -0.7297
   79SOPE  H12X 7177   4.507   2.922   5.305  0.9343  0.7202  2.6304
   79SOPE  H12Y 7178   4.559   2.748   5.299  0.2497 -0.0669  1.4916
   79SOPE  C313 7179   4.674   2.878   5.177 -0.1810  0.4240 -0.1900
   79SOPE  H13X 7180   4.745   2.792   5.176 -1.7799 -1.1012  2.8566
   79SOPE  H13Y 7181   4.739   2.968   5.179  0.2386  0.1216  1.0884
   79SOPE  C314 7182   4.569   2.877   5.057 -0.6116 -0.0568  1.2706
   79SOPE  H14X 7183   4.491   2.954   5.071  0.5485  1.4384 -0.0830
   79SOPE  H14Y 7184   4.519   2.778   5.064  0.1147 -0.3030  4.6386
   79SOPE  C315 7185   4.642   2.887   4.921 -0.1707  0.0137 -0.3883
   79SOPE  H15X 7186   4.722   2.810   4.915  1.1910  1.4768 -2.0404
   79SOPE  H15Y 7187   4.679   2.991   4.910  0.8197 -0.4512 -1.6414
   79SOPE  C316 7188   4.551   2.875   4.796  0.8217 -0.3943  0.0437
   79SOPE  H16X 7189   4.604   2.888   4.699  0.7919  0.0781  0.0916
   79SOPE  H16Y 7190   4.474   2.953   4.814  1.4680  0.0007  1.1610
   79SOPE  C317 7191   4.477   2.735   4.789 -0.6477  0.8237  0.0191
   79SOPE  H17X 7192   4.415   2.721   4.697 -0.1991 -0.8027 -0.0667
   79SOPE  H17Y 7193   4.401   2.718   4.868  0.4291  0.4860  1.0027
   79SOPE  C318 7194   4.577   2.619   4.782  0.2860 -0.4491 -0.5946
   79SOPE  H18X 7195   4.654   2.625   4.702 -0.4300 -0.7414 -1.3202
   79SOPE  H18Y 7196   4.520   2.524   4.772  0.7287 -0.7073 -0.6974
   79SOPE  H18Z 7197   4.635   2.622   4.877  1.9371 -0.6711 -1.5582
   80SOPE     N 7198   1.732   0.943   6.602  0.0363  0.1103  0.3663
   80SOPE   HN1 7199   1.690   1.022   6.655 -1.4585 -0.4320  0.0528
   80SOPE   HN2 7200   1.663   0.865   6.610 -0.7433  0.6754 -0.5836
   80SOPE   HN3 7201   1.818   0.919   6.655 -0.7787 -1.0392  1.2201
   80SOPE   C12 7202   1.757   0.970   6.452 -0.0536 -0.4499  0.4106
   80SOPE  H12A 7203   1.819   1.061   6.442 -0.6569 -0.1061 -0.3198
   80SOPE  H12B 7204   1.658   0.976   6.402 -0.1912 -2.8126  0.2891
   80SOPE   C11 7205   1.823   0.840   6.387 -0.4986  0.0090 -0.0902
   80SOPE  H11A 7206   1.840   0.876   6.283 -0.7715  0.1945 -0.0731
   80SOPE  H11B 7207   1.754   0.755   6.402  0.0879 -0.4660 -0.0712
   80SOPE     P 7208   2.082   0.877   6.427  0.2923  0.7303 -0.2580
   80SOPE   O13 7209   2.180   0.781   6.362  0.2252  0.2331 -0.0407
   80SOPE   O14 7210   2.132   0.941   6.546 -0.0939 -0.0509 -0.4434
   80SOPE   O12 7211   1.946   0.798   6.452 -0.1529 -0.2448  0.9807
   80SOPE   O11 7212   2.045   0.992   6.324  0.2326 -0.3052 -0.4705
   80SOPE    C1 7213   2.162   1.061   6.275  0.7841 -1.0353  0.0473
   80SOPE    HA 7214   2.233   0.986   6.235 -0.9875 -1.8760 -1.6560
   80SOPE    HB 7215   2.201   1.124   6.358 -0.3577 -0.4095  0.1214
   80SOPE    C2 7216   2.122   1.138   6.149 -0.2791 -0.3437  0.1362
   80SOPE    HS 7217   2.032   1.194   6.181  0.0295 -0.7352  1.7697
   80SOPE   O21 7218   2.102   1.056   6.036  0.0502  0.3894  0.1858
   80SOPE   C21 7219   1.979   1.015   6.016 -0.1483  0.6855 -0.1203
   80SOPE   O22 7220   1.878   1.051   6.073 -0.8229  0.1444  0.1052
   80SOPE   C22 7221   1.976   0.908   5.903 -0.4616 -0.2640  0.0559
   80SOPE   H2R 7222   1.880   0.921   5.850  0.0347  0.5560 -0.6548
   80SOPE   H2S 7223   1.987   0.809   5.953  1.9402  0.5514  1.3422
   80SOPE    C3 7224   2.230   1.239   6.120 -0.8448 -1.1408  0.1010
   80SOPE    HX 7225   2.282   1.247   6.217 -0.4282  2.0645 -0.2700
   80SOPE    HY 7226   2.188   1.340   6.098 -0.5318 -1.0527 -0.1077
   80SOPE   O31 7227   2.317   1.208   6.011  0.1066 -0.1238 -0.4205
   80SOPE   C31 7228   2.423   1.135   6.043 -0.7742  0.1440  0.2531
   80SOPE   O32 7229   2.458   1.093   6.154 -0.0660 -0.1192 -0.4896
   80SOPE   C32 7230   2.502   1.104   5.919 -0.4900  0.5895 -0.4523
   80SOPE   H2X 7231   2.526   1.201   5.870  1.2647  0.4698  0.0939
   80SOPE   H2Y 7232   2.449   1.033   5.852  2.4241 -0.3445 -1.9358
   80SOPE   C23 7233   2.086   0.921   5.791 -0.1396  0.5615 -0.5797
   80SOPE   H3R 7234   2.078   0.824   5.736 -0.4128  1.2259 -1.7507
   80SOPE   H3S 7235   2.187   0.916   5.837 -0.4722 -0.7750  0.0464
   80SOPE   C24 7236   2.070   1.048   5.706  0.6101 -0.4484 -0.1466
   80SOPE   H4R 7237   1.971   1.041   5.654 -0.6802  2.1307  1.7297
   80SOPE   H4S 7238   2.072   1.143   5.764  0.3874 -0.3759 -0.2544
   80SOPE   C25 7239   2.179   1.056   5.600  0.0445 -0.0726  0.1481
   80SOPE   H5R 7240   2.183   1.151   5.542 -1.1962  0.9535  1.6758
   80SOPE   H5S 7241   2.279   1.042   5.647 -0.2391 -0.8699  0.5346
   80SOPE   C26 7242   2.161   0.948   5.490 -0.4357  0.1380 -0.0687
   80SOPE   H6R 7243   2.145   0.846   5.532 -0.1306 -0.1573 -0.6641
   80SOPE   H6S 7244   2.069   0.961   5.429  0.0086 -0.7236 -0.9465
   80SOPE   C27 7245   2.279   0.947   5.390 -0.4143 -0.0506  0.9967
   80SOPE   H7R 7246   2.372   0.925   5.447 -0.0734 -1.5429 -0.0815
   80SOPE   H7S 7247   2.277   0.864   5.316 -0.2919  0.0081  0.9268
   80SOPE   C28 7248   2.301   1.077   5.305  0.1852  0.2993  0.3528
   80SOPE   H8R 7249   2.211   1.091   5.242  1.2667  3.6708 -0.6385
   80SOPE   H8S 7250   2.297   1.162   5.376  0.0539 -0.8019  1.7118
   80SOPE   C29 7251   2.426   1.080   5.215  0.3945 -0.2013  0.2630
   80SOPE   H91 7252   2.512   1.125   5.268  0.1485  0.0228  0.4820
   80SOPE  C210 7253   2.429   1.056   5.085  0.0637  0.1623 -0.1871
   80SOPE  H101 7254   2.526   1.075   5.039  0.5566  1.7954  1.3891
   80SOPE  C211 7255   2.322   1.001   4.993 -0.6381 -0.0981  0.4220
   80SOPE  H11R 7256   2.315   1.052   4.894 -0.4370  1.1684  1.0349
   80SOPE  H11S 7257   2.226   1.014   5.048 -2.4646  0.0880 -2.5749
   80SOPE  C212 7258   2.347   0.853   4.966 -0.8838  0.5513 -0.6750
   80SOPE  H12R 7259   2.393   0.816   5.060 -0.4032 -2.8796 -2.1121
   80SOPE  H12S 7260   2.416   0.850   4.879 -0.1677 -0.1108 -0.0913
   80SOPE  C213 7261   2.223   0.771   4.937  0.4667 -0.5875 -0.2023
   80SOPE  H13R 7262   2.252   0.666   4.918 -0.5343 -1.3207  2.0040
   80SOPE  H13S 7263   2.185   0.812   4.841  2.2454  1.1603 -0.2375
   80SOPE  C214 7264   2.134   0.779   5.058  0.3844 -0.1588 -0.3749
   80SOPE  H14R 7265   2.084   0.877   5.080  0.2032 -0.8019  2.4886
   80SOPE  H14S 7266   2.190   0.754   5.150 -1.4771 -2.9465  0.1015
   80SOPE  C215 7267   2.004   0.695   5.038 -0.5464 -0.3299 -0.4232
   80SOPE  H15R 7268   2.041   0.590   5.045  1.5112  0.3876  0.2503
   80SOPE  H15S 7269   1.971   0.698   4.932  0.5396 -0.8078 -0.7918
   80SOPE  C216 7270   1.896   0.713   5.147  0.0789 -0.0813  0.5492
   80SOPE  H16R 7271   1.816   0.641   5.118 -0.1808  1.1842 -2.2215
   80SOPE  H16S 7272   1.861   0.818   5.139 -1.7893 -0.3055  3.9289
   80SOPE  C217 7273   1.941   0.678   5.285 -0.7760 -0.7254 -0.1593
   80SOPE  H17R 7274   1.993   0.765   5.331  0.5644 -1.2360 -0.6467
   80SOPE  H17S 7275   2.011   0.591   5.284 -0.4082 -0.5064  1.8114
   80SOPE  C218 7276   1.822   0.644   5.372 -0.3947 -0.3456  0.1306
   80SOPE  H18R 7277   1.759   0.568   5.321 -0.0178  0.0838 -1.0094
   80SOPE  H18S 7278   1.761   0.732   5.401 -0.5476 -0.1368 -0.8105
   80SOPE  H18T 7279   1.848   0.590   5.466 -3.2471 -0.9864  0.6414
   80SOPE   C33 7280   2.639   1.036   5.942  0.0790 -0.3707  0.3931
   80SOPE   H3X 7281   2.626   0.946   6.006 -0.8447 -0.5949 -0.0927
   80SOPE   H3Y 7282   2.713   1.097   5.999  1.8548 -2.3851  0.3674
   80SOPE   C34 7283   2.704   0.991   5.817  0.7590 -0.3511 -0.0245
   80SOPE   H4X 7284   2.629   0.933   5.759  3.0231 -1.1310 -2.3245
   80SOPE   H4Y 7285   2.786   0.918   5.838 -0.1203 -1.7678 -1.2911
   80SOPE   C35 7286   2.753   1.118   5.738  0.2583 -0.4281  0.7060
   80SOPE   H5X 7287   2.832   1.172   5.794  1.1513 -0.8392 -0.1328
   80SOPE   H5Y 7288   2.675   1.191   5.708  1.1452  1.5795  2.9346
   80SOPE   C36 7289   2.827   1.077   5.610  0.2140 -0.6406  0.1190
   80SOPE   H6X 7290   2.908   1.005   5.633  0.4334 -0.2621  0.5319
   80SOPE   H6Y 7291   2.867   1.176   5.579 -0.6283  0.2930  1.8495
   80SOPE   C37 7292   2.730   1.014   5.504  0.3994 -0.5201  0.3475
   80SOPE   H7X 7293   2.657   1.088   5.465 -1.1404 -1.2011  1.8161
   80SOPE   H7Y 7294   2.670   0.930   5.545 -1.1681  1.2191  1.7688
   80SOPE   C38 7295   2.831   0.962   5.396  0.1793 -0.1204 -0.1247
   80SOPE   H8X 7296   2.911   0.896   5.435 -1.0156 -1.4200  0.1997
   80SOPE   H8Y 7297   2.884   1.054   5.363  0.8078 -1.2350 -2.3931
   80SOPE   C39 7298   2.763   0.902   5.277  0.3583 -0.5217 -0.6564
   80SOPE   H9X 7299   2.704   0.979   5.223  0.2331 -1.3024 -1.6582
   80SOPE   H9Y 7300   2.696   0.816   5.297 -2.1399  0.9897 -2.0376
   80SOPE  C310 7301   2.869   0.846   5.180 -0.4286 -0.4580 -0.3505
   80SOPE  H10X 7302   2.921   0.759   5.225  0.3767  0.9187  1.5047
   80SOPE  H10Y 7303   2.936   0.929   5.149  0.8945 -1.2805  0.2202
   80SOPE  C311 7304   2.797   0.779   5.057  0.1022 -0.4698  0.7608
   80SOPE  H11X 7305   2.731   0.852   5.005 -1.1084 -2.7480 -1.0907
   80SOPE  H11Y 7306   2.726   0.698   5.080 -0.0662 -0.4259  0.4027
   80SOPE  C312 7307   2.906   0.735   4.953  0.5762  0.5740 -0.1851
   80SOPE  H12X 7308   2.969   0.653   4.995 -1.6691 -1.2044 -0.0835
   80SOPE  H12Y 7309   2.959   0.831   4.935  2.3835 -0.3760 -0.1376
   80SOPE  C313 7310   2.842   0.692   4.821  0.0447  0.0012  0.0742
   80SOPE  H13X 7311   2.762   0.761   4.787 -1.0541 -0.1974  2.0705
   80SOPE  H13Y 7312   2.780   0.604   4.848 -0.3747  0.4129  0.4835
   80SOPE  C314 7313   2.940   0.649   4.707  0.0867 -0.2044  0.1156
   80SOPE  H14X 7314   2.999   0.561   4.739 -1.0567 -0.7070  0.9287
   80SOPE  H14Y 7315   3.014   0.731   4.700  2.1044 -1.8670  0.9422
   80SOPE  C315 7316   2.860   0.622   4.580 -0.6191 -0.4080 -0.3733
   80SOPE  H15X 7317   2.796   0.707   4.548  1.1492  1.4417  0.7238
   80SOPE  H15Y 7318   2.806   0.529   4.607  0.0717 -0.6165  0.3270
   80SOPE  C316 7319   2.957   0.589   4.465 -0.1204 -0.6722  0.1242
   80SOPE  H16X 7320   3.031   0.511   4.495  0.9114 -0.5093 -1.8503
   80SOPE  H16Y 7321   3.019   0.679   4.447 -3.6805  1.8162 -0.6398
   80SOPE  C317 7322   2.879   0.545   4.343 -0.2394 -0.1810 -0.2080
   80SOPE  H17X 7323   2.826   0.633   4.303  1.1547 -0.1394 -2.0964
   80SOPE  H17Y 7324   2.802   0.466   4.357  1.5036 -2.2458 -1.5908
   80SOPE  C318 7325   2.980   0.511   4.231  0.3636 -0.3879 -0.5063
   80SOPE  H18X 7326   3.058   0.439   4.264  0.3321  0.9488  2.9510
   80SOPE  H18Y 7327   3.027   0.607   4.202  0.0191  0.4523  1.5171
   80SOPE  H18Z 7328   2.934   0.458   4.146 -2.2134  0.3175  0.3671
   81SOPE     N 7329   0.637   2.816   6.509 -0.1267  0.8418 -0.5407
   81SOPE   HN1 7330   0.611   2.757   6.427  4.1556  0.3176 -1.7618
   81SOPE   HN2 7331   0.720   2.875   6.491 -0.0402  0.8594 -0.0947
   81SOPE   HN3 7332   0.656   2.750   6.587 -1.6380 -0.0043 -0.8440
   81SOPE   C12 7333   0.516   2.902   6.548 -0.1120  0.3764  0.0221
   81SOPE  H12A 7334   0.507   2.906   6.658 -2.3426 -0.0602 -0.0914
   81SOPE  H12B 7335   0.427   2.847   6.511  0.6152 -1.0953  0.4115
   81SOPE   C11 7336   0.524   3.041   6.478  0.0741  0.0633 -0.0810
   81SOPE  H11A 7337   0.437   3.107   6.500  0.4347  0.1172  1.2717
   81SOPE  H11B 7338   0.518   3.038   6.367 -0.2113  3.4060 -0.2302
   81SOPE     P 7339   0.657   3.181   6.668  0.4040  0.3043  0.2637
   81SOPE   O13 7340   0.796   3.182   6.716  0.4027  0.2568  0.6354
   81SOPE   O14 7341   0.550   3.125   6.755  0.3224  0.5474  0.0186
   81SOPE   O12 7342   0.652   3.102   6.530  0.7036  0.3020  0.3545
   81SOPE   O11 7343   0.609   3.333   6.642  0.0946 -0.2000  0.0518
   81SOPE    C1 7344   0.692   3.423   6.565  0.4254  0.2098 -0.3751
   81SOPE    HA 7345   0.798   3.390   6.566 -0.1000 -1.7969 -2.3813
   81SOPE    HB 7346   0.685   3.521   6.618 -0.9584 -0.3972  0.6137
   81SOPE    C2 7347   0.638   3.431   6.423 -0.2314 -0.7959 -0.5296
   81SOPE    HS 7348   0.527   3.416   6.426 -0.0092 -3.1252 -1.7938
   81SOPE   O21 7349   0.706   3.330   6.346  0.5324 -0.0080 -0.1640
   81SOPE   C21 7350   0.644   3.275   6.249 -0.4739  0.3928 -0.0039
   81SOPE   O22 7351   0.535   3.307   6.197 -0.6302  0.5593  0.3306
   81SOPE   C22 7352   0.737   3.167   6.199 -0.0235  0.4870  0.5158
   81SOPE   H2R 7353   0.713   3.087   6.272  0.1574 -0.7499 -0.7349
   81SOPE   H2S 7354   0.843   3.201   6.203 -0.0787  1.0275 -1.7127
   81SOPE    C3 7355   0.670   3.574   6.363  0.0804  0.7586 -0.5523
   81SOPE    HX 7356   0.780   3.576   6.347 -0.0093  1.9284 -1.1346
   81SOPE    HY 7357   0.634   3.645   6.441  2.9314 -0.4371  2.0688
   81SOPE   O31 7358   0.613   3.604   6.239  0.4498  0.3503  0.3323
   81SOPE   C31 7359   0.484   3.636   6.222  0.5051 -0.3209 -0.0674
   81SOPE   O32 7360   0.407   3.635   6.315 -0.1729 -0.5445 -0.1243
   81SOPE   C32 7361   0.457   3.678   6.081 -1.2253  0.0280  0.1851
   81SOPE   H2X 7362   0.347   3.686   6.067 -1.1939  0.0111 -0.0819
   81SOPE   H2Y 7363   0.479   3.594   6.011 -2.7015  0.8461 -1.3464
   81SOPE   C23 7364   0.696   3.113   6.053 -0.6753  0.2915 -0.2116
   81SOPE   H3R 7365   0.585   3.107   6.043 -0.6533 -1.5835  0.3089
   81SOPE   H3S 7366   0.720   3.005   6.060 -3.0270 -0.1639  2.8857
   81SOPE   C24 7367   0.778   3.189   5.946 -0.1307 -0.3766 -0.1658
   81SOPE   H4R 7368   0.745   3.295   5.938  0.1388 -0.3753 -1.5477
   81SOPE   H4S 7369   0.883   3.197   5.982 -0.3151 -1.5420  0.7002
   81SOPE   C25 7370   0.763   3.122   5.811  0.2587  0.3083 -0.3219
   81SOPE   H5R 7371   0.839   3.169   5.746  0.7928 -0.8583 -0.5723
   81SOPE   H5S 7372   0.797   3.016   5.822 -2.1020 -0.6991 -1.9175
   81SOPE   C26 7373   0.627   3.130   5.744  0.1141 -0.7070 -0.3809
   81SOPE   H6R 7374   0.542   3.097   5.808 -0.4906  1.9581  0.2876
   81SOPE   H6S 7375   0.604   3.238   5.733  0.4031 -0.5655  0.3335
   81SOPE   C27 7376   0.629   3.058   5.609  0.7500 -0.4905  0.0178
   81SOPE   H7R 7377   0.572   3.122   5.537  0.8570 -0.0633  0.3104
   81SOPE   H7S 7378   0.731   3.047   5.567  1.0863 -0.3279  0.7844
   81SOPE   C28 7379   0.547   2.919   5.619 -0.5834  0.0247 -0.6218
   81SOPE   H8R 7380   0.572   2.860   5.710  0.0578  0.1185 -0.7315
   81SOPE   H8S 7381   0.445   2.949   5.650 -1.2245 -1.8275 -0.8663
   81SOPE   C29 7382   0.559   2.838   5.490 -0.9514 -0.1605 -0.1013
   81SOPE   H91 7383   0.641   2.766   5.476 -0.7409 -0.2874  1.6134
   81SOPE  C210 7384   0.458   2.822   5.401 -0.3848  0.4541 -0.1744
   81SOPE  H101 7385   0.469   2.754   5.315 -2.6742  0.1049 -0.2622
   81SOPE  C211 7386   0.339   2.910   5.400  0.7588  0.2476  0.8606
   81SOPE  H11R 7387   0.350   2.990   5.477  2.9765 -0.6127  1.5307
   81SOPE  H11S 7388   0.259   2.840   5.431  1.2677 -0.5747  0.3585
   81SOPE  C212 7389   0.309   2.963   5.255  0.3658 -0.5478  0.2007
   81SOPE  H12R 7390   0.304   2.879   5.183 -1.4062 -0.3840  0.0965
   81SOPE  H12S 7391   0.394   3.027   5.223  1.2436 -1.4173  0.7521
   81SOPE  C213 7392   0.177   3.034   5.239 -0.4434 -0.4546  0.2715
   81SOPE  H13R 7393   0.191   3.133   5.288  2.7507 -1.2245  1.1107
   81SOPE  H13S 7394   0.091   2.979   5.284  0.6548 -0.6476  2.2535
   81SOPE  C214 7395   0.146   3.075   5.089  0.1051  0.1191  0.0541
   81SOPE  H14R 7396   0.163   2.995   5.014 -2.2609  0.1181 -0.5534
   81SOPE  H14S 7397   0.205   3.166   5.067  1.7280 -1.3167 -1.8443
   81SOPE  C215 7398  -0.004   3.111   5.071 -0.2233 -0.4080 -0.4130
   81SOPE  H15R 7399  -0.017   3.211   5.117  2.3168  0.7479 -1.9520
   81SOPE  H15S 7400  -0.059   3.037   5.132 -0.9038  0.9361  0.6340
   81SOPE  C216 7401  -0.038   3.121   4.922 -0.1387  0.1911 -1.0131
   81SOPE  H16R 7402  -0.022   3.021   4.877  1.1909  0.2634 -0.7575
   81SOPE  H16S 7403   0.036   3.190   4.876 -0.0311  1.4251  0.8814
   81SOPE  C217 7404  -0.180   3.169   4.892  0.2580  0.1968 -0.3880
   81SOPE  H17R 7405  -0.178   3.280   4.884 -2.5798  0.3727  0.1002
   81SOPE  H17S 7406  -0.251   3.145   4.974 -0.9743  1.1996 -1.1000
   81SOPE  C218 7407  -0.231   3.115   4.761 -0.1266 -1.0697 -0.2684
   81SOPE  H18R 7408  -0.227   3.004   4.763  0.5760 -1.1121 -1.9354
   81SOPE  H18S 7409  -0.165   3.150   4.678  0.0393  0.7285  0.5766
   81SOPE  H18T 7410  -0.336   3.145   4.739  0.0723  1.0710  1.3148
   81SOPE   C33 7411   0.531   3.811   6.031  0.5127 -0.4688 -0.0919
   81SOPE   H3X 7412   0.641   3.808   6.038  0.4195 -1.9389  1.8074
   81SOPE   H3Y 7413   0.494   3.898   6.090 -0.0407 -0.4344 -0.4819
   81SOPE   C34 7414   0.490   3.847   5.884  0.0516  1.1532 -0.7758
   81SOPE   H4X 7415   0.380   3.842   5.871 -0.5693 -0.6745  3.4655
   81SOPE   H4Y 7416   0.543   3.766   5.829  2.5734  0.4555  2.3672
   81SOPE   C35 7417   0.566   3.974   5.850  0.2965  0.5865 -0.0294
   81SOPE   H5X 7418   0.674   3.947   5.849  0.0627 -0.3519  0.0445
   81SOPE   H5Y 7419   0.549   4.049   5.931 -1.1414 -1.9891  2.1822
   81SOPE   C36 7420   0.518   4.037   5.716  0.2463  0.8791 -0.2346
   81SOPE   H6X 7421   0.587   4.119   5.687  2.2036 -0.2438  1.0611
   81SOPE   H6Y 7422   0.423   4.089   5.743  0.2914  0.7620  0.1551
   81SOPE   C37 7423   0.518   3.941   5.593  0.1921  0.1547  0.5231
   81SOPE   H7X 7424   0.435   3.868   5.609 -0.2391  0.1578 -1.4905
   81SOPE   H7Y 7425   0.610   3.879   5.585 -1.5075 -2.4881  0.0519
   81SOPE   C38 7426   0.490   4.012   5.462 -0.0013 -0.6666  0.4330
   81SOPE   H8X 7427   0.565   4.091   5.438  1.3005 -1.4590  1.7106
   81SOPE   H8Y 7428   0.395   4.068   5.474  1.2341  1.3329  1.4803
   81SOPE   C39 7429   0.456   3.919   5.339 -0.1901 -0.2286 -0.7936
   81SOPE   H9X 7430   0.360   3.870   5.367 -1.1687  1.7126 -0.5945
   81SOPE   H9Y 7431   0.531   3.839   5.324 -0.9204 -0.7643 -1.6854
   81SOPE  C310 7432   0.421   3.990   5.212  0.2236  0.7475 -0.7831
   81SOPE  H10X 7433   0.509   4.051   5.180  0.1311  2.2714  1.6378
   81SOPE  H10Y 7434   0.340   4.065   5.225  0.7264  1.5473 -2.0654
   81SOPE  C311 7435   0.382   3.898   5.099 -0.2066  0.0468 -0.3988
   81SOPE  H11X 7436   0.292   3.840   5.126  1.4783 -2.8199 -0.4627
   81SOPE  H11Y 7437   0.463   3.822   5.099  0.3022  0.5251  1.8917
   81SOPE  C312 7438   0.357   3.968   4.958 -0.5557 -0.1029 -0.0783
   81SOPE  H12X 7439   0.442   4.038   4.942  1.9052 -2.9817 -0.3867
   81SOPE  H12Y 7440   0.265   4.030   4.962  0.4577  1.3990  1.4236
   81SOPE  C313 7441   0.347   3.864   4.848 -0.3094 -0.0364 -0.3375
   81SOPE  H13X 7442   0.282   3.785   4.891 -0.3762 -0.5863 -1.3991
   81SOPE  H13Y 7443   0.444   3.816   4.820 -0.0130 -0.3454  1.1415
   81SOPE  C314 7444   0.290   3.927   4.718  0.3364 -0.1700 -0.8119
   81SOPE  H14X 7445   0.366   3.984   4.660 -0.2584  1.9162  0.3221
   81SOPE  H14Y 7446   0.207   4.000   4.736  0.6164 -0.0220 -0.0619
   81SOPE  C315 7447   0.228   3.823   4.642 -0.5497  0.4636  0.1958
   81SOPE  H15X 7448   0.154   3.763   4.698  0.1681 -1.0318 -0.4033
   81SOPE  H15Y 7449   0.313   3.759   4.608 -0.2003  1.7673 -1.5537
   81SOPE  C316 7450   0.165   3.880   4.515  0.6384  0.2961 -0.3271
   81SOPE  H16X 7451   0.229   3.952   4.460  0.4348  1.0557  0.4094
   81SOPE  H16Y 7452   0.078   3.937   4.555  0.4556 -0.1351 -0.1032
   81SOPE  C317 7453   0.114   3.767   4.422 -1.0454  0.2215 -0.0960
   81SOPE  H17X 7454   0.034   3.711   4.474  0.6873 -0.9830  1.4313
   81SOPE  H17Y 7455   0.181   3.680   4.405 -1.1131 -0.0365  0.8908
   81SOPE  C318 7456   0.044   3.829   4.300 -0.4761 -0.2053  0.5591
   81SOPE  H18X 7457   0.124   3.858   4.229  1.1321 -2.4347  1.3703
   81SOPE  H18Y 7458  -0.013   3.923   4.320 -0.6657  0.2661 -1.8113
   81SOPE  H18Z 7459  -0.019   3.755   4.247  0.5275 -0.0716 -0.8923
   82SOPE     N 7460   1.329   1.489   6.308  0.0085  0.5316  0.2773
   82SOPE   HN1 7461   1.304   1.392   6.279 -0.3992  0.7048  0.0383
   82SOPE   HN2 7462   1.371   1.500   6.403  0.7259 -0.1250  0.0524
   82SOPE   HN3 7463   1.241   1.542   6.294 -0.4326 -0.5543 -1.4077
   82SOPE   C12 7464   1.437   1.540   6.218 -0.2095  0.1716 -0.3618
   82SOPE  H12A 7465   1.421   1.515   6.110 -0.7782 -1.1483 -0.0007
   82SOPE  H12B 7466   1.531   1.485   6.243 -1.2266 -0.8033  1.5593
   82SOPE   C11 7467   1.443   1.691   6.231 -0.3137  0.6231  0.4177
   82SOPE  H11A 7468   1.353   1.730   6.181  0.7166  0.8800 -1.3113
   82SOPE  H11B 7469   1.534   1.721   6.174 -1.4307  1.1495 -1.1414
   82SOPE     P 7470   1.569   1.815   6.427  0.0755 -0.3706  0.3522
   82SOPE   O13 7471   1.683   1.722   6.435 -0.1338  0.3787 -0.2526
   82SOPE   O14 7472   1.521   1.899   6.544 -0.3975 -0.1261  0.5018
   82SOPE   O12 7473   1.444   1.732   6.370  0.7852  0.2112 -0.4414
   82SOPE   O11 7474   1.602   1.916   6.320  0.8285 -0.1662  0.0943
   82SOPE    C1 7475   1.499   2.001   6.270  0.2720 -0.5755 -0.1185
   82SOPE    HA 7476   1.531   2.097   6.317  2.6705 -0.3419 -2.0089
   82SOPE    HB 7477   1.395   1.973   6.296  1.3165 -2.4819  2.2954
   82SOPE    C2 7478   1.518   2.028   6.120  0.7701 -0.1544  0.1849
   82SOPE    HS 7479   1.486   1.939   6.061 -0.7155 -0.2722  1.1172
   82SOPE   O21 7480   1.658   2.066   6.092  0.5574  0.7078 -0.5762
   82SOPE   C21 7481   1.722   2.006   5.998 -0.1147  0.3646  0.4652
   82SOPE   O22 7482   1.680   1.920   5.921 -0.2337 -0.4981 -1.2558
   82SOPE   C22 7483   1.863   2.067   5.981 -0.3175 -0.4079  0.9991
   82SOPE   H2R 7484   1.928   2.028   6.061  1.3206 -1.8661 -0.9563
   82SOPE   H2S 7485   1.853   2.176   6.001  0.7118  0.2068 -1.4544
   82SOPE    C3 7486   1.414   2.133   6.067  0.0216 -0.6201  0.1119
   82SOPE    HX 7487   1.429   2.223   6.131  2.2707 -1.3924  0.7690
   82SOPE    HY 7488   1.312   2.096   6.089 -0.3670  0.3773  0.0208
   82SOPE   O31 7489   1.438   2.181   5.935  0.5705 -0.1877  0.1687
   82SOPE   C31 7490   1.407   2.094   5.837 -0.3880 -1.0029  0.0030
   82SOPE   O32 7491   1.345   1.990   5.857 -0.2995  0.2118 -0.0603
   82SOPE   C32 7492   1.469   2.141   5.706  0.0806  0.2187 -0.0759
   82SOPE   H2X 7493   1.519   2.055   5.657  0.3255  0.4646 -0.2632
   82SOPE   H2Y 7494   1.547   2.219   5.722  1.2643 -1.2413  1.5089
   82SOPE   C23 7495   1.931   2.037   5.842 -0.2679  0.1437  0.1301
   82SOPE   H3R 7496   1.927   1.930   5.810 -0.2783  0.6854 -1.7661
   82SOPE   H3S 7497   2.040   2.060   5.845 -0.1112  0.0336 -2.4164
   82SOPE   C24 7498   1.871   2.115   5.720 -0.1369 -0.1308  0.4488
   82SOPE   H4R 7499   1.761   2.117   5.736 -0.5464 -2.0524 -1.6252
   82SOPE   H4S 7500   1.903   2.221   5.719 -0.7796  0.0883 -2.0113
   82SOPE   C25 7501   1.895   2.049   5.584 -0.3253 -0.1092  0.4228
   82SOPE   H5R 7502   2.005   2.042   5.564 -0.6424  0.2063 -1.6410
   82SOPE   H5S 7503   1.867   1.941   5.587 -0.1096 -0.3154 -2.2223
   82SOPE   C26 7504   1.815   2.125   5.480 -0.8757 -0.2432 -0.2713
   82SOPE   H6R 7505   1.705   2.116   5.494 -1.0153 -1.2067 -1.7951
   82SOPE   H6S 7506   1.849   2.231   5.481  1.4097 -0.8559 -2.6367
   82SOPE   C27 7507   1.843   2.094   5.337 -0.1451 -0.1812  0.5217
   82SOPE   H7R 7508   1.951   2.112   5.318 -0.0373  1.5031  2.3887
   82SOPE   H7S 7509   1.813   1.990   5.313  0.4754 -0.4267  0.7822
   82SOPE   C28 7510   1.763   2.197   5.248 -0.0277  0.1682 -0.3107
   82SOPE   H8R 7511   1.656   2.171   5.235 -0.6127  2.5673 -0.9012
   82SOPE   H8S 7512   1.764   2.304   5.280  0.7980  0.0708  0.0122
   82SOPE   C29 7513   1.825   2.178   5.112  0.6193  0.1832  0.8314
   82SOPE   H91 7514   1.873   2.081   5.094  0.0359 -0.2143  1.3914
   82SOPE  C210 7515   1.809   2.257   5.007  0.3858 -0.2577 -0.1324
   82SOPE  H101 7516   1.853   2.230   4.910  0.0823  1.6703 -0.8439
   82SOPE  C211 7517   1.745   2.391   4.999 -0.2188 -0.3860  0.1089
   82SOPE  H11R 7518   1.681   2.410   5.088  0.0878  0.3679  0.1781
   82SOPE  H11S 7519   1.669   2.400   4.918 -1.8599 -0.6493  1.5534
   82SOPE  C212 7520   1.851   2.495   4.973 -0.4080  0.0516 -0.1616
   82SOPE  H12R 7521   1.932   2.478   4.900  2.2651  2.4607  1.9963
   82SOPE  H12S 7522   1.906   2.503   5.069 -0.9417 -0.2385  0.1736
   82SOPE  C213 7523   1.804   2.639   4.955  0.0583 -0.4111  0.2317
   82SOPE  H13R 7524   1.895   2.703   4.958  1.7083 -2.6582  0.7583
   82SOPE  H13S 7525   1.742   2.664   5.043 -2.3707  0.1311 -1.5281
   82SOPE  C214 7526   1.718   2.672   4.830 -0.8283  0.5053  0.3116
   82SOPE  H14R 7527   1.620   2.620   4.829  0.2985 -1.7083 -0.4016
   82SOPE  H14S 7528   1.769   2.629   4.742  0.2085 -0.5081  1.3722
   82SOPE  C215 7529   1.701   2.822   4.800  0.4765 -0.0218  0.8104
   82SOPE  H15R 7530   1.805   2.861   4.793  0.3312  0.1190 -3.9522
   82SOPE  H15S 7531   1.649   2.859   4.890 -0.8553 -0.6175  0.3032
   82SOPE  C216 7532   1.615   2.850   4.672 -0.4874  0.2448 -0.6498
   82SOPE  H16R 7533   1.527   2.782   4.678  0.4648 -0.9194  2.2897
   82SOPE  H16S 7534   1.680   2.822   4.586 -2.0616  2.0844 -2.5313
   82SOPE  C217 7535   1.577   3.001   4.661 -0.0150 -0.6148 -0.3658
   82SOPE  H17R 7536   1.536   3.032   4.760 -0.1985 -1.2914 -0.2197
   82SOPE  H17S 7537   1.492   3.018   4.592 -0.6677 -1.3378  0.2327
   82SOPE  C218 7538   1.687   3.101   4.628 -0.6922 -0.0062 -0.0452
   82SOPE  H18R 7539   1.718   3.104   4.521 -0.1127  2.7634  0.1291
   82SOPE  H18S 7540   1.775   3.088   4.695  0.3912  4.0037 -0.4331
   82SOPE  H18T 7541   1.645   3.203   4.636 -0.2173  0.1246  1.0763
   82SOPE   C33 7542   1.365   2.183   5.600 -0.4221  0.1003  0.7884
   82SOPE   H3X 7543   1.314   2.274   5.638  1.2107  0.6727  1.7173
   82SOPE   H3Y 7544   1.302   2.096   5.572  1.9348 -1.6659  0.6290
   82SOPE   C34 7545   1.426   2.227   5.473 -0.2614 -0.3942 -0.0119
   82SOPE   H4X 7546   1.499   2.150   5.441  0.8526 -1.5398  4.6087
   82SOPE   H4Y 7547   1.474   2.325   5.492 -2.3299  0.6432  0.1587
   82SOPE   C35 7548   1.333   2.263   5.361  0.3652 -0.0732  0.3083
   82SOPE   H5X 7549   1.267   2.349   5.389  1.9687  1.2022  0.3295
   82SOPE   H5Y 7550   1.263   2.180   5.337  0.2792  0.2599 -0.6309
   82SOPE   C36 7551   1.397   2.292   5.226  0.2878 -0.6312 -0.0142
   82SOPE   H6X 7552   1.463   2.206   5.202  0.6005 -0.2598 -0.4832
   82SOPE   H6Y 7553   1.457   2.385   5.227 -0.6506  0.0724  3.3689
   82SOPE   C37 7554   1.285   2.312   5.115 -0.5318 -0.0055 -0.6335
   82SOPE   H7X 7555   1.228   2.405   5.136 -0.6769  0.0049 -1.0797
   82SOPE   H7Y 7556   1.205   2.234   5.118 -0.7067  0.1835  1.1950
   82SOPE   C38 7557   1.353   2.338   4.979 -0.3405  0.0914 -0.6566
   82SOPE   H8X 7558   1.430   2.261   4.962 -1.1010 -0.5685 -1.1800
   82SOPE   H8Y 7559   1.416   2.428   4.993  0.2754 -0.1716 -1.6362
   82SOPE   C39 7560   1.268   2.339   4.855 -0.0182 -0.1442  0.0334
   82SOPE   H9X 7561   1.187   2.411   4.881 -0.1764  0.3406 -1.7118
   82SOPE   H9Y 7562   1.226   2.238   4.836  1.2378 -0.6225 -0.2582
   82SOPE  C310 7563   1.359   2.388   4.743  0.5676  1.0597  0.6678
   82SOPE  H10X 7564   1.442   2.315   4.729  0.2653  0.8115  0.1201
   82SOPE  H10Y 7565   1.382   2.495   4.755 -1.9329  1.6324  1.0241
   82SOPE  C311 7566   1.274   2.396   4.609  0.1179 -0.4953 -0.3873
   82SOPE  H11X 7567   1.314   2.457   4.524 -0.5783  0.1026 -0.2921
   82SOPE  H11Y 7568   1.179   2.451   4.620  1.3893  2.9351 -3.9172
   82SOPE  C312 7569   1.234   2.260   4.548  0.6804  0.3967 -0.2058
   82SOPE  H12X 7570   1.189   2.192   4.623 -1.5624  1.2467 -0.6992
   82SOPE  H12Y 7571   1.328   2.216   4.510  0.7781  0.7272 -0.3520
   82SOPE  C313 7572   1.140   2.267   4.425  0.0236 -0.1618  0.3190
   82SOPE  H13X 7573   1.197   2.323   4.347 -1.0766 -0.7672 -0.9707
   82SOPE  H13Y 7574   1.041   2.309   4.452  0.2442  0.4946  0.1303
   82SOPE  C314 7575   1.116   2.123   4.378 -0.7651  0.1285  0.0791
   82SOPE  H14X 7576   1.017   2.084   4.411 -0.1114 -0.7898  1.0381
   82SOPE  H14Y 7577   1.194   2.060   4.426 -0.8682  0.7412  1.0711
   82SOPE  C315 7578   1.143   2.104   4.231 -0.1663 -0.8777  0.0421
   82SOPE  H15X 7579   1.184   2.001   4.223  0.9596 -0.3646 -1.0044
   82SOPE  H15Y 7580   1.227   2.168   4.195  0.2522 -1.9162 -0.8673
   82SOPE  C316 7581   1.020   2.113   4.139  0.4427  0.1757  0.3066
   82SOPE  H16X 7582   0.940   2.180   4.178  1.0153  1.1016 -0.0895
   82SOPE  H16Y 7583   0.976   2.013   4.161  0.4839  0.1757  0.3891
   82SOPE  C317 7584   1.033   2.119   3.990 -0.0142  0.2876  0.5058
   82SOPE  H17X 7585   1.093   2.036   3.947  1.2200  0.3190  2.0905
   82SOPE  H17Y 7586   1.099   2.204   3.962  0.5713  0.2514  1.7528
   82SOPE  C318 7587   0.897   2.135   3.928  0.0566  0.7687  0.3645
   82SOPE  H18X 7588   0.845   2.037   3.928  0.9870  0.2546  0.0666
   82SOPE  H18Y 7589   0.908   2.170   3.823  1.1509  0.5068  0.3754
   82SOPE  H18Z 7590   0.836   2.214   3.976  2.3903  2.3827  0.8477
   83SOPE     N 7591   5.247   5.544   2.371 -0.1620 -0.0858  0.5244
   83SOPE   HN1 7592   5.348   5.560   2.391  0.1557 -3.5885  2.5513
   83SOPE   HN2 7593   5.215   5.604   2.292  0.8529 -0.4606 -0.1797
   83SOPE   HN3 7594   5.186   5.569   2.452 -0.2190  0.5991  0.2802
   83SOPE   C12 7595   5.229   5.399   2.350 -0.1764  0.4970 -0.2515
   83SOPE  H12A 7596   5.324   5.351   2.381 -1.3598 -0.1922  2.6463
   83SOPE  H12B 7597   5.220   5.371   2.242  2.3912  1.7043 -0.8438
   83SOPE   C11 7598   5.106   5.345   2.432  0.3724 -0.3779  0.9453
   83SOPE  H11A 7599   5.124   5.361   2.541  1.1469 -1.7691  1.0481
   83SOPE  H11B 7600   5.106   5.234   2.423 -0.6148 -0.2448 -1.1937
   83SOPE     P 7601   4.879   5.308   2.320  0.3754  0.0755 -0.2622
   83SOPE   O13 7602   4.941   5.209   2.236  0.0515  0.4077 -0.1318
   83SOPE   O14 7603   4.753   5.368   2.267  0.3066  0.1919 -0.0947
   83SOPE   O12 7604   4.979   5.409   2.383  0.0068  0.4008 -0.8158
   83SOPE   O11 7605   4.844   5.230   2.452  0.1084 -0.2401 -0.2281
   83SOPE    C1 7606   4.742   5.281   2.535  0.3784  0.0947 -0.0222
   83SOPE    HA 7607   4.679   5.196   2.566 -0.9921  0.2531 -2.1823
   83SOPE    HB 7608   4.672   5.350   2.482  1.6969 -1.0262 -3.5505
   83SOPE    C2 7609   4.795   5.359   2.663  0.3396 -0.1711  0.1081
   83SOPE    HS 7610   4.852   5.446   2.624 -0.8522  0.4516 -0.2922
   83SOPE   O21 7611   4.875   5.256   2.735  0.3108  0.1693 -0.1837
   83SOPE   C21 7612   4.968   5.304   2.814 -0.0423  0.0414 -0.0339
   83SOPE   O22 7613   4.998   5.422   2.828 -0.0271 -1.1684  0.4488
   83SOPE   C22 7614   5.048   5.183   2.875 -0.0869  0.0905 -0.6307
   83SOPE   H2R 7615   5.107   5.134   2.795  1.2074 -0.8590  0.8349
   83SOPE   H2S 7616   4.980   5.114   2.930 -0.4133 -0.3261 -1.5449
   83SOPE    C3 7617   4.675   5.412   2.745 -0.4624 -0.0054 -0.7083
   83SOPE    HX 7618   4.596   5.337   2.726  0.0509 -0.4752 -1.0330
   83SOPE    HY 7619   4.638   5.513   2.717  0.2061  0.2403 -0.7179
   83SOPE   O31 7620   4.703   5.417   2.887  0.4907  0.3576 -0.3935
   83SOPE   C31 7621   4.720   5.542   2.944  0.1064 -0.0366  0.8000
   83SOPE   O32 7622   4.724   5.648   2.884  0.7651 -0.0831 -0.1141
   83SOPE   C32 7623   4.706   5.527   3.090  0.7895 -0.2634 -1.2729
   83SOPE   H2X 7624   4.786   5.457   3.123  2.9038  2.6225  0.2463
   83SOPE   H2Y 7625   4.619   5.469   3.127  0.8796 -0.5045 -1.4404
   83SOPE   C23 7626   5.145   5.233   2.987  0.0505 -0.0478  0.7282
   83SOPE   H3R 7627   5.204   5.317   2.945  0.8517 -0.9198  0.0862
   83SOPE   H3S 7628   5.227   5.161   3.004  0.0073 -0.0472  0.9454
   83SOPE   C24 7629   5.093   5.278   3.123  0.3737 -0.3521 -0.8260
   83SOPE   H4R 7630   5.159   5.354   3.169  2.3276 -1.1713 -2.1414
   83SOPE   H4S 7631   4.998   5.332   3.101 -0.3334 -1.3944 -0.4208
   83SOPE   C25 7632   5.083   5.170   3.228  0.3958  0.5591  0.2183
   83SOPE   H5R 7633   5.025   5.087   3.183  1.5994 -1.7753  2.7318
   83SOPE   H5S 7634   5.185   5.128   3.239  0.9100  0.8904 -2.6077
   83SOPE   C26 7635   5.001   5.220   3.350 -0.4172  0.2549 -0.6370
   83SOPE   H6R 7636   5.049   5.308   3.400 -2.1501 -1.3046  4.4561
   83SOPE   H6S 7637   4.903   5.255   3.311 -0.6278 -0.9417 -1.2083
   83SOPE   C27 7638   4.996   5.121   3.462 -0.2941  0.3603 -0.2232
   83SOPE   H7R 7639   4.921   5.044   3.433 -3.1414  2.4847  0.9214
   83SOPE   H7S 7640   5.095   5.071   3.461  0.5414  1.9512 -0.7937
   83SOPE   C28 7641   4.968   5.185   3.601 -0.0217  0.6506 -0.2202
   83SOPE   H8R 7642   5.065   5.232   3.627 -0.4654  0.9279  1.0414
   83SOPE   H8S 7643   4.886   5.260   3.595 -0.5788  0.0193 -0.6610
   83SOPE   C29 7644   4.944   5.079   3.705  0.3087 -0.8958 -0.1358
   83SOPE   H91 7645   4.869   5.005   3.674  1.8896 -3.3451  1.4797
   83SOPE  C210 7646   4.992   5.057   3.829  0.3236  0.4373 -0.0888
   83SOPE  H101 7647   4.958   4.967   3.883  1.1267 -1.1692 -2.1268
   83SOPE  C211 7648   5.085   5.152   3.906  0.7172  0.3358  0.1265
   83SOPE  H11R 7649   5.122   5.229   3.834  0.2929  0.1698 -0.2777
   83SOPE  H11S 7650   5.171   5.088   3.935  0.9799  0.5068 -0.2644
   83SOPE  C212 7651   5.021   5.217   4.030  0.1129  0.4545  0.6065
   83SOPE  H12R 7652   5.099   5.284   4.072  2.1330 -0.8690 -0.8243
   83SOPE  H12S 7653   4.986   5.143   4.105 -0.9679  1.5851  1.2590
   83SOPE  C213 7654   4.901   5.300   4.000  0.7693  0.0161  0.1834
   83SOPE  H13R 7655   4.814   5.239   3.967  0.6947  0.8142 -1.1815
   83SOPE  H13S 7656   4.919   5.368   3.914 -1.7978 -0.3875 -0.7599
   83SOPE  C214 7657   4.862   5.389   4.124 -0.7274 -0.3333 -0.2382
   83SOPE  H14R 7658   4.955   5.441   4.156 -1.6373  0.7717  0.7045
   83SOPE  H14S 7659   4.825   5.323   4.204 -3.3800 -0.8247 -1.7725
   83SOPE  C215 7660   4.743   5.480   4.094 -0.5686 -0.8434 -0.4750
   83SOPE  H15R 7661   4.666   5.409   4.056 -0.1104 -0.9218 -1.2682
   83SOPE  H15S 7662   4.766   5.550   4.011  0.7852 -0.1945  0.4152
   83SOPE  C216 7663   4.683   5.538   4.220  0.6133 -0.0510  0.4546
   83SOPE  H16R 7664   4.682   5.466   4.305  0.1841 -0.1649  0.3554
   83SOPE  H16S 7665   4.575   5.551   4.198  0.0923 -2.0915  1.5226
   83SOPE  C217 7666   4.747   5.669   4.266 -0.4549 -0.3129  0.0401
   83SOPE  H17R 7667   4.676   5.743   4.307 -2.8389 -1.9566 -0.9279
   83SOPE  H17S 7668   4.793   5.719   4.178 -0.8691 -1.2843 -0.7470
   83SOPE  C218 7669   4.858   5.658   4.370  0.1275  0.1477 -0.6539
   83SOPE  H18R 7670   4.829   5.584   4.447  0.7817  1.1649  0.6069
   83SOPE  H18S 7671   4.872   5.751   4.428  1.6181 -0.5479  0.1674
   83SOPE  H18T 7672   4.950   5.617   4.322  1.5511  1.4925  0.8055
   83SOPE   C33 7673   4.727   5.655   3.175 -0.2708 -0.0833  0.2477
   83SOPE   H3X 7674   4.653   5.734   3.151  1.1102  0.8295 -1.1654
   83SOPE   H3Y 7675   4.828   5.693   3.150  0.5855 -1.0384  2.0677
   83SOPE   C34 7676   4.724   5.607   3.326  0.2811 -0.9696  0.4706
   83SOPE   H4X 7677   4.797   5.525   3.346 -0.3335 -2.2325 -1.9734
   83SOPE   H4Y 7678   4.626   5.559   3.350  1.4137 -2.9669  1.3330
   83SOPE   C35 7679   4.765   5.712   3.430  0.3099 -0.2020 -0.1817
   83SOPE   H5X 7680   4.695   5.799   3.430 -0.4934 -0.8170 -1.8152
   83SOPE   H5Y 7681   4.863   5.758   3.406  0.9819 -2.5685 -2.3858
   83SOPE   C36 7682   4.763   5.652   3.572 -0.4614 -0.9978  0.1605
   83SOPE   H6X 7683   4.833   5.566   3.570 -0.0167 -0.6294 -0.9071
   83SOPE   H6Y 7684   4.662   5.609   3.594 -0.8806 -0.6308 -0.9566
   83SOPE   C37 7685   4.804   5.751   3.685  0.1251  0.8238 -0.5032
   83SOPE   H7X 7686   4.888   5.818   3.658  2.3617 -0.8374  1.8141
   83SOPE   H7Y 7687   4.841   5.693   3.772  1.4959  0.6850 -1.1641
   83SOPE   C38 7688   4.689   5.839   3.731 -0.8312  0.2286  0.4470
   83SOPE   H8X 7689   4.645   5.886   3.640 -0.3922 -0.0061  0.1112
   83SOPE   H8Y 7690   4.723   5.925   3.793 -0.6158  1.4215 -1.2408
   83SOPE   C39 7691   4.583   5.774   3.819 -0.1760  0.2261 -0.0268
   83SOPE   H9X 7692   4.640   5.721   3.898 -0.3587  3.2120  2.3275
   83SOPE   H9Y 7693   4.517   5.710   3.756 -3.0331  2.0881  0.8529
   83SOPE  C310 7694   4.492   5.867   3.895  0.1812  0.0134 -0.7354
   83SOPE  H10X 7695   4.463   5.955   3.833  1.6522 -0.0923 -1.6302
   83SOPE  H10Y 7696   4.554   5.911   3.976  0.9308 -1.3150 -0.5560
   83SOPE  C311 7697   4.365   5.800   3.943  0.2191 -0.3288  0.3135
   83SOPE  H11X 7698   4.382   5.700   3.987 -0.5518 -0.9848 -0.8234
   83SOPE  H11Y 7699   4.297   5.796   3.855  2.9711 -0.4141 -1.9413
   83SOPE  C312 7700   4.291   5.870   4.060  0.1480 -0.5088  0.2252
   83SOPE  H12X 7701   4.191   5.822   4.064 -0.3240  0.4546  0.3077
   83SOPE  H12Y 7702   4.268   5.978   4.049  2.5791  0.0455 -0.1916
   83SOPE  C313 7703   4.370   5.847   4.193 -0.3465  0.2992  0.1944
   83SOPE  H13X 7704   4.464   5.905   4.181 -0.4766  0.2039 -1.6326
   83SOPE  H13Y 7705   4.409   5.745   4.213 -1.4726  0.0341  1.1166
   83SOPE  C314 7706   4.302   5.907   4.313 -0.0929  0.4879 -0.1309
   83SOPE  H14X 7707   4.214   5.845   4.340  0.9862  0.2306  3.2407
   83SOPE  H14Y 7708   4.269   6.009   4.286  1.1777  0.5507 -1.5728
   83SOPE  C315 7709   4.391   5.914   4.442 -0.0694 -0.1487  0.0536
   83SOPE  H15X 7710   4.464   5.998   4.438 -2.8380  2.4263  0.5339
   83SOPE  H15Y 7711   4.437   5.814   4.458  0.4493 -0.0627 -0.7963
   83SOPE  C316 7712   4.312   5.941   4.573 -0.2738  0.1551 -0.6113
   83SOPE  H16X 7713   4.234   5.864   4.585  1.7921 -2.1937 -1.3040
   83SOPE  H16Y 7714   4.270   6.044   4.568  1.3188  0.9336  0.7875
   83SOPE  C317 7715   4.399   5.923   4.702 -0.0812  0.1120 -0.0971
   83SOPE  H17X 7716   4.322   5.929   4.781 -0.1625 -1.6330 -0.0127
   83SOPE  H17Y 7717   4.470   6.005   4.726 -1.2360  0.9701  0.5027
   83SOPE  C318 7718   4.470   5.786   4.719  0.2534 -0.4174 -0.0413
   83SOPE  H18X 7719   4.398   5.704   4.695  1.6729 -2.0496  1.0418
   83SOPE  H18Y 7720   4.514   5.760   4.818 -0.0101  0.2754  0.2594
   83SOPE  H18Z 7721   4.556   5.769   4.651 -0.1932 -2.9810 -0.0944
   84SOPE     N 7722   4.246   3.612   2.292 -0.0554  0.4321 -0.0861
   84SOPE   HN1 7723   4.289   3.519   2.276  1.3119  0.7129  1.6348
   84SOPE   HN2 7724   4.176   3.601   2.368 -0.6949  4.3852  0.1110
   84SOPE   HN3 7725   4.185   3.643   2.214  0.0299  1.8389  0.3879
   84SOPE   C12 7726   4.365   3.707   2.317  0.4385  0.3067  0.0118
   84SOPE  H12A 7727   4.333   3.810   2.341 -1.3217 -0.0893 -0.5537
   84SOPE  H12B 7728   4.428   3.717   2.226  1.0801  0.8041  0.5009
   84SOPE   C11 7729   4.454   3.660   2.438 -0.2224  0.3328  0.2724
   84SOPE  H11A 7730   4.538   3.732   2.448 -0.2229  0.4737 -0.6820
   84SOPE  H11B 7731   4.492   3.564   2.398  0.6706  0.0860  1.6317
   84SOPE     P 7732   4.396   3.563   2.680  0.1843  0.0736  0.5659
   84SOPE   O13 7733   4.540   3.523   2.671  0.0888 -0.3242  0.1626
   84SOPE   O14 7734   4.294   3.454   2.695  0.0041 -0.7343 -0.0051
   84SOPE   O12 7735   4.376   3.653   2.553  1.0342 -0.1368 -0.6584
   84SOPE   O11 7736   4.381   3.671   2.797 -0.3046 -0.4322 -0.0935
   84SOPE    C1 7737   4.258   3.702   2.857 -0.1287  0.1572 -0.1770
   84SOPE    HA 7738   4.228   3.618   2.924 -1.1130 -0.7052 -1.6441
   84SOPE    HB 7739   4.183   3.723   2.777 -0.4453 -0.2574  0.0056
   84SOPE    C2 7740   4.269   3.828   2.940  0.0049 -0.4253  0.7695
   84SOPE    HS 7741   4.306   3.914   2.881  0.7041 -0.0098  1.7812
   84SOPE   O21 7742   4.358   3.794   3.050  0.1482  0.8195  0.3198
   84SOPE   C21 7743   4.403   3.889   3.137 -0.4437  0.6749  0.2268
   84SOPE   O22 7744   4.397   4.007   3.109 -0.2355 -0.0905 -0.1250
   84SOPE   C22 7745   4.447   3.834   3.277  0.3865  0.1086 -0.1797
   84SOPE   H2R 7746   4.547   3.789   3.265  1.5279  2.2211  0.7689
   84SOPE   H2S 7747   4.370   3.756   3.296  2.1523 -2.6952 -3.4726
   84SOPE    C3 7748   4.126   3.869   2.989 -0.5761 -0.7544  0.2972
   84SOPE    HX 7749   4.069   3.909   2.903  0.0625 -0.4848 -0.0074
   84SOPE    HY 7750   4.136   3.956   3.057  0.4250 -1.1197  0.6358
   84SOPE   O31 7751   4.058   3.761   3.045  0.6211  0.0046 -0.4590
   84SOPE   C31 7752   4.064   3.754   3.171  0.6849  0.2999  0.1358
   84SOPE   O32 7753   4.142   3.810   3.247  0.6326 -0.3285 -0.1232
   84SOPE   C32 7754   3.944   3.668   3.218  0.5942  0.5384 -0.3412
   84SOPE   H2X 7755   3.958   3.570   3.168 -2.3934 -0.7917  1.1703
   84SOPE   H2Y 7756   3.850   3.709   3.176  0.0518 -1.9095 -1.7208
   84SOPE   C23 7757   4.453   3.937   3.394  0.4773  0.3944  0.2149
   84SOPE   H3R 7758   4.372   4.013   3.388  0.1369 -0.0005 -0.3254
   84SOPE   H3S 7759   4.555   3.982   3.390  0.5312  0.7394  3.0709
   84SOPE   C24 7760   4.418   3.873   3.531 -0.5088  0.1099 -0.5616
   84SOPE   H4R 7761   4.484   3.785   3.542 -0.3528  0.1977 -0.7785
   84SOPE   H4S 7762   4.454   3.942   3.611 -0.9584 -0.1362 -0.1374
   84SOPE   C25 7763   4.262   3.841   3.547 -0.4717  0.2118 -0.1197
   84SOPE   H5R 7764   4.193   3.913   3.498  0.3877  0.5875 -0.8037
   84SOPE   H5S 7765   4.254   3.752   3.481  2.1645  0.0012 -0.2597
   84SOPE   C26 7766   4.212   3.830   3.693 -0.0158 -0.1223  0.5554
   84SOPE   H6R 7767   4.225   3.726   3.728 -0.5744 -0.0748  0.9138
   84SOPE   H6S 7768   4.267   3.899   3.762 -1.3013  1.4672  0.0609
   84SOPE   C27 7769   4.063   3.865   3.703  0.4478  0.5318 -0.4379
   84SOPE   H7R 7770   4.054   3.972   3.674 -0.9620  0.3361 -0.8226
   84SOPE   H7S 7771   3.997   3.812   3.630 -0.9295  0.4415  0.8231
   84SOPE   C28 7772   3.994   3.857   3.844  0.7899  0.3825 -0.0677
   84SOPE   H8R 7773   4.050   3.914   3.921 -1.3969  0.6214  1.4482
   84SOPE   H8S 7774   3.897   3.910   3.851  1.1368  0.8890  1.1863
   84SOPE   C29 7775   3.973   3.710   3.882 -0.7729 -0.1153  0.0993
   84SOPE   H91 7776   4.058   3.650   3.843  0.9741  2.1036  0.2761
   84SOPE  C210 7777   3.888   3.664   3.977  0.1771  0.4628 -0.2200
   84SOPE  H101 7778   3.890   3.554   3.990  1.4188  0.5022  0.0511
   84SOPE  C211 7779   3.783   3.744   4.058 -0.0039  0.5213  0.0378
   84SOPE  H11R 7780   3.681   3.748   4.013  0.8397  3.5729 -1.9296
   84SOPE  H11S 7781   3.811   3.850   4.046  0.6375  0.1101 -2.7179
   84SOPE  C212 7782   3.769   3.706   4.210  0.2172 -0.3827  0.5308
   84SOPE  H12R 7783   3.712   3.784   4.264  1.3457  0.7061  0.2083
   84SOPE  H12S 7784   3.870   3.715   4.255 -0.4559  1.5166  1.7820
   84SOPE  C213 7785   3.711   3.564   4.242  0.3991 -0.3695 -0.2202
   84SOPE  H13R 7786   3.796   3.493   4.236  1.5757  0.9118  0.4195
   84SOPE  H13S 7787   3.634   3.540   4.166  0.1016  1.7001 -0.6464
   84SOPE  C214 7788   3.636   3.556   4.380 -0.1437 -0.1087  0.2088
   84SOPE  H14R 7789   3.571   3.466   4.369 -0.6681  0.4811 -1.9514
   84SOPE  H14S 7790   3.566   3.639   4.402 -0.0030 -0.1671  0.8756
   84SOPE  C215 7791   3.726   3.540   4.499 -0.6707  0.8202 -0.1325
   84SOPE  H15R 7792   3.794   3.627   4.513  0.7518 -0.6499  2.9639
   84SOPE  H15S 7793   3.793   3.453   4.483 -0.7955  0.7788 -0.4343
   84SOPE  C216 7794   3.651   3.518   4.630  1.7198  0.1056 -0.1828
   84SOPE  H16R 7795   3.594   3.422   4.632  2.7635 -0.6410 -2.5861
   84SOPE  H16S 7796   3.579   3.599   4.655  3.5682  1.9092 -0.5118
   84SOPE  C217 7797   3.744   3.511   4.756 -0.6388  0.3607 -0.0751
   84SOPE  H17R 7798   3.805   3.603   4.768  1.6775 -1.2461  1.5085
   84SOPE  H17S 7799   3.820   3.433   4.734 -1.5086 -0.2274 -1.0497
   84SOPE  C218 7800   3.666   3.474   4.878  0.8594  0.7049  0.3258
   84SOPE  H18R 7801   3.622   3.373   4.871  1.6228  0.4458 -1.1225
   84SOPE  H18S 7802   3.593   3.554   4.904  0.4471 -0.0696  1.6401
   84SOPE  H18T 7803   3.735   3.469   4.966  1.2786  0.3903 -0.0183
   84SOPE   C33 7804   3.931   3.631   3.372 -0.9757  0.4206  1.1734
   84SOPE   H3X 7805   3.973   3.719   3.425 -2.1665  0.7032  1.6912
   84SOPE   H3Y 7806   3.994   3.542   3.391 -1.2597  0.1660  0.9387
   84SOPE   C34 7807   3.783   3.608   3.414  0.2204 -0.1644  0.0404
   84SOPE   H4X 7808   3.742   3.534   3.343  0.9392 -0.7838  0.2648
   84SOPE   H4Y 7809   3.732   3.707   3.408  1.1944  0.3528  0.0775
   84SOPE   C35 7810   3.786   3.554   3.559 -0.1480  0.4781  0.5578
   84SOPE   H5X 7811   3.829   3.631   3.627  0.0562 -0.6374  1.7198
   84SOPE   H5Y 7812   3.854   3.466   3.559 -0.7032  0.0416  0.1848
   84SOPE   C36 7813   3.644   3.513   3.606 -0.2088  0.2504 -0.0418
   84SOPE   H6X 7814   3.590   3.453   3.530 -1.0346 -1.6889  1.9876
   84SOPE   H6Y 7815   3.578   3.600   3.630 -1.3475 -0.3171 -1.0534
   84SOPE   C37 7816   3.650   3.424   3.733  0.2198 -0.4817 -0.5130
   84SOPE   H7X 7817   3.710   3.472   3.813  0.5762 -2.3016  0.3681
   84SOPE   H7Y 7818   3.710   3.333   3.709  0.7485 -0.5119  0.8493
   84SOPE   C38 7819   3.515   3.399   3.805  0.6807 -0.0550 -0.3732
   84SOPE   H8X 7820   3.445   3.364   3.726 -0.1979 -0.2782  0.4743
   84SOPE   H8Y 7821   3.481   3.496   3.848  0.2820 -0.5361  0.4295
   84SOPE   C39 7822   3.517   3.298   3.920  0.5663 -0.3218  0.2714
   84SOPE   H9X 7823   3.615   3.313   3.971  0.8185  1.1907 -0.6136
   84SOPE   H9Y 7824   3.510   3.197   3.874  3.1382 -0.3380 -0.2288
   84SOPE  C310 7825   3.394   3.306   4.014 -0.4438  0.5330  0.5373
   84SOPE  H10X 7826   3.340   3.213   3.987 -0.5840  1.0846 -1.1823
   84SOPE  H10Y 7827   3.325   3.393   4.010 -0.0010  0.8633 -0.1171
   84SOPE  C311 7828   3.424   3.294   4.164 -0.5457  0.2386  1.1833
   84SOPE  H11X 7829   3.476   3.387   4.194  0.8340 -0.3021  0.5141
   84SOPE  H11Y 7830   3.499   3.217   4.190 -0.6227  0.1880  1.2578
   84SOPE  C312 7831   3.300   3.263   4.246  0.1059 -0.2774 -0.2359
   84SOPE  H12X 7832   3.238   3.202   4.177  1.0653  0.2998 -1.6725
   84SOPE  H12Y 7833   3.231   3.350   4.243  0.1158 -0.2924 -1.8413
   84SOPE  C313 7834   3.320   3.223   4.388 -0.0303  0.9008  0.4796
   84SOPE  H13X 7835   3.394   3.296   4.427  1.7393  0.3332 -1.6122
   84SOPE  H13Y 7836   3.378   3.129   4.384  0.2730  1.1118 -0.1886
   84SOPE  C314 7837   3.192   3.212   4.459  0.2025  0.1124  0.0830
   84SOPE  H14X 7838   3.116   3.135   4.432 -3.6203  3.1407  1.2293
   84SOPE  H14Y 7839   3.126   3.301   4.453 -0.0315 -0.1648 -3.0232
   84SOPE  C315 7840   3.208   3.181   4.610  0.0360 -0.3802 -0.4953
   84SOPE  H15X 7841   3.293   3.117   4.642 -1.0777 -0.6573  2.1557
   84SOPE  H15Y 7842   3.113   3.139   4.651 -1.5963  3.0107 -0.4654
   84SOPE  C316 7843   3.226   3.313   4.688  0.6813  0.4312  0.1089
   84SOPE  H16X 7844   3.138   3.380   4.679  0.1085 -0.3986 -0.6205
   84SOPE  H16Y 7845   3.307   3.365   4.633  1.3749  0.8709  1.5202
   84SOPE  C317 7846   3.276   3.303   4.834  0.2831  0.2222  0.7106
   84SOPE  H17X 7847   3.315   3.402   4.864  2.3829 -0.4617  0.3572
   84SOPE  H17Y 7848   3.371   3.245   4.832 -0.2203 -0.6130 -0.8656
   84SOPE  C318 7849   3.181   3.250   4.939  0.1516 -0.1431  0.1164
   84SOPE  H18X 7850   3.174   3.139   4.937 -0.6916 -0.0933 -1.7484
   84SOPE  H18Y 7851   3.085   3.305   4.938  0.3197  0.1461 -0.4701
   84SOPE  H18Z 7852   3.221   3.266   5.042 -0.1760  1.7819 -0.0111
   85SOPE     N 7853   2.047   5.503   2.403 -0.4787  0.0278 -0.3813
   85SOPE   HN1 7854   1.973   5.443   2.445  0.3485  0.2558  1.5113
   85SOPE   HN2 7855   2.094   5.439   2.335 -1.4271 -0.6872 -0.3840
   85SOPE   HN3 7856   2.123   5.521   2.472 -0.1953 -1.7084 -0.1897
   85SOPE   C12 7857   1.988   5.613   2.321 -0.4371 -0.1348  0.6117
   85SOPE  H12A 7858   1.981   5.708   2.378  0.8914  1.0742 -1.1362
   85SOPE  H12B 7859   1.884   5.583   2.298 -0.0791 -0.4491 -0.6683
   85SOPE   C11 7860   2.054   5.635   2.185  0.2815  0.0460 -0.4268
   85SOPE  H11A 7861   2.020   5.734   2.148 -1.2311  0.3950  1.6765
   85SOPE  H11B 7862   2.022   5.554   2.115  0.1504 -0.1563 -0.1353
   85SOPE     P 7863   2.287   5.748   2.233  0.2341 -0.1691  0.1673
   85SOPE   O13 7864   2.251   5.857   2.141  0.0946 -0.1560  0.1140
   85SOPE   O14 7865   2.414   5.682   2.224 -0.8875 -0.1569  0.1181
   85SOPE   O12 7866   2.191   5.631   2.188  0.0762  0.1535 -1.1289
   85SOPE   O11 7867   2.251   5.779   2.382  0.3784 -0.9924  0.3147
   85SOPE    C1 7868   2.357   5.850   2.461 -0.0466 -0.5343 -0.4613
   85SOPE    HA 7869   2.304   5.937   2.504  2.6556  0.2654  1.5348
   85SOPE    HB 7870   2.437   5.886   2.393 -0.2032  0.4715 -0.1259
   85SOPE    C2 7871   2.411   5.759   2.574 -0.2773  0.5013 -0.1180
   85SOPE    HS 7872   2.403   5.653   2.539  0.8150 -0.1377  1.4424
   85SOPE   O21 7873   2.334   5.778   2.695  0.6810 -0.8055  0.1975
   85SOPE   C21 7874   2.211   5.719   2.690  0.8674 -0.4458  1.5723
   85SOPE   O22 7875   2.179   5.627   2.619 -0.0588  0.2977  0.0202
   85SOPE   C22 7876   2.125   5.798   2.788  0.1809  0.0508 -0.0904
   85SOPE   H2R 7877   2.128   5.906   2.763 -3.9864  0.4559  0.3875
   85SOPE   H2S 7878   2.157   5.771   2.891 -2.0962 -0.1423  0.6204
   85SOPE    C3 7879   2.557   5.776   2.617 -0.2811  0.5366 -0.4348
   85SOPE    HX 7880   2.556   5.885   2.642 -1.0150  0.1644  1.3098
   85SOPE    HY 7881   2.618   5.778   2.524 -0.6271 -1.9554 -0.7903
   85SOPE   O31 7882   2.602   5.703   2.732 -0.4790 -0.0345 -0.5463
   85SOPE   C31 7883   2.650   5.584   2.701 -0.5870  0.5055  0.2449
   85SOPE   O32 7884   2.658   5.534   2.591 -0.2319  0.1618  0.2847
   85SOPE   C32 7885   2.702   5.521   2.820 -0.1658 -0.1464 -0.0424
   85SOPE   H2X 7886   2.794   5.461   2.805  1.2349  2.0777 -0.8091
   85SOPE   H2Y 7887   2.622   5.454   2.859  1.0974 -2.6161 -1.4540
   85SOPE   C23 7888   1.972   5.749   2.775 -0.4706  0.1236  0.2030
   85SOPE   H3R 7889   1.974   5.641   2.802 -2.5120 -0.5158 -1.9092
   85SOPE   H3S 7890   1.938   5.756   2.670  0.8016 -0.3102 -0.2574
   85SOPE   C24 7891   1.869   5.813   2.872  0.2939  0.2600 -0.2688
   85SOPE   H4R 7892   1.840   5.916   2.841 -0.6760  0.2059  0.4126
   85SOPE   H4S 7893   1.775   5.755   2.862 -1.1378  2.1552  1.5050
   85SOPE   C25 7894   1.896   5.809   3.020  0.2000  0.2310  0.2575
   85SOPE   H5R 7895   1.896   5.701   3.047  0.4153  0.3423  0.7119
   85SOPE   H5S 7896   1.992   5.852   3.057  0.2074 -1.7378  2.8116
   85SOPE   C26 7897   1.786   5.860   3.113 -0.3023 -0.8478  0.1288
   85SOPE   H6R 7898   1.736   5.957   3.094 -1.6150 -1.6453 -0.7160
   85SOPE   H6S 7899   1.702   5.787   3.110 -0.2571 -0.8822 -1.1164
   85SOPE   C27 7900   1.831   5.861   3.264  0.7421  0.5843 -0.0536
   85SOPE   H7R 7901   1.939   5.885   3.269  0.9252  0.1355 -1.4917
   85SOPE   H7S 7902   1.777   5.941   3.319  1.5640  1.9662 -1.2154
   85SOPE   C28 7903   1.792   5.730   3.340  0.1952  0.3546 -0.2748
   85SOPE   H8R 7904   1.686   5.708   3.317  0.4653 -2.3150  0.6913
   85SOPE   H8S 7905   1.860   5.649   3.308  4.6795  3.1636  1.1446
   85SOPE   C29 7906   1.812   5.752   3.486 -0.5885 -0.8224 -0.7122
   85SOPE   H91 7907   1.738   5.815   3.538  1.0455 -0.7639  1.7441
   85SOPE  C210 7908   1.911   5.704   3.560 -0.1664  0.0605  0.0153
   85SOPE  H101 7909   1.912   5.724   3.668  0.3405  1.7512 -0.2692
   85SOPE  C211 7910   2.034   5.619   3.522 -0.0641  0.5408 -0.3868
   85SOPE  H11R 7911   2.121   5.683   3.495 -1.0210  2.5984  1.1213
   85SOPE  H11S 7912   2.010   5.555   3.434 -3.6047  0.2937  0.6028
   85SOPE  C212 7913   2.092   5.531   3.642  0.6806  0.7799  0.0119
   85SOPE  H12R 7914   2.143   5.591   3.720  2.3243 -0.6203  0.0717
   85SOPE  H12S 7915   2.180   5.475   3.603  1.4151  1.4030  0.7616
   85SOPE  C213 7916   1.993   5.439   3.704  0.5733  0.2831  0.5060
   85SOPE  H13R 7917   1.944   5.383   3.621 -0.6281  0.3096  1.1855
   85SOPE  H13S 7918   1.918   5.494   3.764  0.5174  0.3120  0.4095
   85SOPE  C214 7919   2.071   5.345   3.798 -0.4637  0.5527  0.5820
   85SOPE  H14R 7920   2.122   5.411   3.871 -0.0439 -0.0895  0.8821
   85SOPE  H14S 7921   2.144   5.278   3.747 -1.5351  0.6337 -1.1380
   85SOPE  C215 7922   1.964   5.259   3.868 -0.2320  0.0303  0.0025
   85SOPE  H15R 7923   1.924   5.185   3.795 -0.7632  0.8523 -0.5570
   85SOPE  H15S 7924   1.883   5.333   3.888 -1.2861 -1.2463  0.6398
   85SOPE  C216 7925   2.020   5.196   3.991 -0.0655 -0.0426 -0.2925
   85SOPE  H16R 7926   2.100   5.264   4.026  0.5228 -0.3268 -1.0658
   85SOPE  H16S 7927   2.057   5.093   3.972 -2.7936 -1.4908  1.5378
   85SOPE  C217 7928   1.919   5.182   4.107 -0.0252  0.0900  0.6068
   85SOPE  H17R 7929   1.854   5.270   4.125 -1.3215  0.1241 -3.3156
   85SOPE  H17S 7930   1.973   5.168   4.203  0.3048  1.4820  0.6434
   85SOPE  C218 7931   1.835   5.059   4.084  0.3247 -0.6600  0.0951
   85SOPE  H18R 7932   1.789   5.057   3.982  1.0584  0.0562 -0.2599
   85SOPE  H18S 7933   1.758   5.047   4.163  2.0544 -1.7192  1.7063
   85SOPE  H18T 7934   1.891   4.962   4.079 -1.3601 -1.9345  3.1984
   85SOPE   C33 7935   2.747   5.624   2.924 -0.1925 -0.1762  0.2121
   85SOPE   H3X 7936   2.668   5.700   2.943  1.2260  0.9022  2.1675
   85SOPE   H3Y 7937   2.841   5.674   2.890 -0.7854  1.2715  0.6150
   85SOPE   C34 7938   2.781   5.564   3.066  0.0069 -0.2463  0.5431
   85SOPE   H4X 7939   2.871   5.499   3.068 -1.3094 -2.2277 -1.0997
   85SOPE   H4Y 7940   2.699   5.497   3.101 -0.4286  0.5256  1.0204
   85SOPE   C35 7941   2.795   5.676   3.177  0.0110 -0.0316  0.6128
   85SOPE   H5X 7942   2.694   5.710   3.209  0.8909  2.8042  0.6644
   85SOPE   H5Y 7943   2.853   5.769   3.157 -0.2966  0.1992  0.7791
   85SOPE   C36 7944   2.864   5.613   3.298  0.6259 -0.0290 -0.4064
   85SOPE   H6X 7945   2.974   5.609   3.281  0.7198 -1.7272  0.4203
   85SOPE   H6Y 7946   2.838   5.505   3.298 -0.8803  0.2973 -1.9170
   85SOPE   C37 7947   2.824   5.670   3.437  0.8270  0.2330 -0.2621
   85SOPE   H7X 7948   2.717   5.645   3.454  1.0853 -1.4559 -0.8594
   85SOPE   H7Y 7949   2.824   5.781   3.431  2.3705  0.2800  0.2782
   85SOPE   C38 7950   2.922   5.625   3.546  0.1466  0.2215  0.2336
   85SOPE   H8X 7951   3.024   5.667   3.532 -0.6012  1.9673 -0.1886
   85SOPE   H8Y 7952   2.927   5.514   3.541  0.5898  0.2714 -0.6577
   85SOPE   C39 7953   2.884   5.647   3.698  0.4807  0.0018 -0.1343
   85SOPE   H9X 7954   2.778   5.614   3.706  0.6800 -0.5656  0.2574
   85SOPE   H9Y 7955   2.902   5.751   3.732 -1.6386  0.5502 -0.5423
   85SOPE  C310 7956   2.962   5.552   3.793 -0.0084  0.5441  0.3574
   85SOPE  H10X 7957   3.066   5.590   3.803  1.3954 -2.5942 -0.9819
   85SOPE  H10Y 7958   2.976   5.449   3.755  2.0344  0.4336  1.2652
   85SOPE  C311 7959   2.901   5.544   3.927  0.9649 -0.4392 -0.2710
   85SOPE  H11X 7960   2.961   5.466   3.980  1.7552 -0.5192 -1.2423
   85SOPE  H11Y 7961   2.795   5.511   3.934  0.5892  0.8201  0.0740
   85SOPE  C312 7962   2.915   5.660   4.017  0.1820 -0.6457 -0.6254
   85SOPE  H12X 7963   2.843   5.742   3.996  1.0121 -0.1570 -1.6522
   85SOPE  H12Y 7964   3.011   5.714   4.007  0.4926 -0.9806  0.4097
   85SOPE  C313 7965   2.905   5.625   4.163 -0.4512  0.2313 -0.5523
   85SOPE  H13X 7966   2.982   5.548   4.185 -1.5800 -0.2765  1.8893
   85SOPE  H13Y 7967   2.802   5.591   4.183 -0.3691 -0.1896 -0.8336
   85SOPE  C314 7968   2.919   5.755   4.241 -0.3314 -0.4628  0.3381
   85SOPE  H14X 7969   2.852   5.842   4.222 -1.0266 -1.1233 -0.2855
   85SOPE  H14Y 7970   3.024   5.785   4.220 -0.3969 -0.1159  0.4886
   85SOPE  C315 7971   2.905   5.744   4.395  0.2527 -0.2353 -0.2222
   85SOPE  H15X 7972   2.957   5.651   4.427 -2.3471 -1.0080  2.1622
   85SOPE  H15Y 7973   2.798   5.736   4.422 -0.4205  2.2408 -1.7803
   85SOPE  C316 7974   2.979   5.855   4.471  0.7758 -0.4569 -0.5813
   85SOPE  H16X 7975   2.962   5.953   4.422  0.7633  0.0579  0.4313
   85SOPE  H16Y 7976   3.088   5.836   4.463  1.0655  0.3803  0.9168
   85SOPE  C317 7977   2.953   5.860   4.620  0.0413  0.4267  0.1000
   85SOPE  H17X 7978   2.988   5.762   4.661 -1.0350  0.5493  1.3637
   85SOPE  H17Y 7979   2.843   5.868   4.628 -0.0847 -0.7640 -0.2093
   85SOPE  C318 7980   3.017   5.979   4.689  0.6303 -0.5130 -0.4608
   85SOPE  H18X 7981   3.005   5.972   4.799 -0.2959  0.8237 -0.4546
   85SOPE  H18Y 7982   2.976   6.076   4.654  1.2365  0.4885  1.4876
   85SOPE  H18Z 7983   3.126   5.984   4.668  0.9728 -2.4455  0.6816
   86SOPE     N 7984   3.984   2.676   2.334 -0.5183  0.6472 -0.0909
   86SOPE   HN1 7985   4.080   2.665   2.297 -0.2228  1.1965  0.4824
   86SOPE   HN2 7986   3.994   2.744   2.413 -1.7445 -0.5295  1.1255
   86SOPE   HN3 7987   3.930   2.594   2.367  0.0202  0.7519  1.0849
   86SOPE   C12 7988   3.892   2.730   2.224 -0.1622 -0.3726  0.1935
   86SOPE  H12A 7989   3.940   2.690   2.132 -2.0500  0.9929 -1.4607
   86SOPE  H12B 7990   3.920   2.837   2.214  0.2405 -0.5386 -0.5726
   86SOPE   C11 7991   3.741   2.708   2.226  0.6784 -0.2083 -0.0429
   86SOPE  H11A 7992   3.718   2.599   2.216  0.2517 -0.2316  1.0527
   86SOPE  H11B 7993   3.682   2.750   2.142 -0.4932  0.8703  1.2716
   86SOPE     P 7994   3.591   2.877   2.351  0.0745  0.1927  0.2423
   86SOPE   O13 7995   3.514   2.894   2.233 -0.0307 -0.0782  0.8074
   86SOPE   O14 7996   3.672   2.999   2.382 -0.2614  0.3350 -0.1631
   86SOPE   O12 7997   3.682   2.757   2.346 -0.1769 -0.3615  0.0303
   86SOPE   O11 7998   3.484   2.842   2.456  0.0185 -0.2348 -0.2648
   86SOPE    C1 7999   3.469   2.721   2.521  0.5817  0.1459  0.1847
   86SOPE    HA 8000   3.510   2.638   2.459  0.9851  1.1250 -0.9024
   86SOPE    HB 8001   3.362   2.698   2.544  0.7911  0.3022  1.3459
   86SOPE    C2 8002   3.543   2.716   2.665  0.0120 -0.2888  0.5305
   86SOPE    HS 8003   3.515   2.622   2.718  2.5348 -1.9123 -0.8093
   86SOPE   O21 8004   3.519   2.836   2.735 -0.5198  0.7705  0.0593
   86SOPE   C21 8005   3.459   2.827   2.849  0.6589 -0.0012  0.2591
   86SOPE   O22 8006   3.417   2.726   2.903  0.5768 -0.1815 -0.2668
   86SOPE   C22 8007   3.442   2.969   2.910 -0.6834 -0.0576  0.2476
   86SOPE   H2R 8008   3.424   3.045   2.831  0.0732  1.3276  1.3785
   86SOPE   H2S 8009   3.540   2.999   2.952 -0.9116  1.7657 -0.4305
   86SOPE    C3 8010   3.699   2.705   2.651 -0.3250  0.4511  0.2967
   86SOPE    HX 8011   3.743   2.798   2.609  0.0721 -0.4829 -1.4483
   86SOPE    HY 8012   3.716   2.618   2.585  1.2789 -0.4959  1.9020
   86SOPE   O31 8013   3.758   2.680   2.785  0.2638  0.0377 -0.3672
   86SOPE   C31 8014   3.801   2.557   2.807 -0.0239 -0.7222 -0.2015
   86SOPE   O32 8015   3.809   2.466   2.729  0.3557 -0.3720  0.1794
   86SOPE   C32 8016   3.828   2.549   2.963 -0.1983  0.1577  0.7812
   86SOPE   H2X 8017   3.749   2.608   3.016  0.7685  1.1917  1.1028
   86SOPE   H2Y 8018   3.928   2.593   2.979 -0.4038  0.5270  1.0574
   86SOPE   C23 8019   3.326   2.989   3.014  0.0738  0.6141  0.5144
   86SOPE   H3R 8020   3.232   2.946   2.973  0.5714  1.8333 -2.1514
   86SOPE   H3S 8021   3.305   3.097   3.004 -0.6203  0.7967  3.2826
   86SOPE   C24 8022   3.356   2.958   3.159 -0.3034 -1.2222  0.2042
   86SOPE   H4R 8023   3.342   2.851   3.185 -0.3641 -0.8605  1.7269
   86SOPE   H4S 8024   3.464   2.976   3.179 -0.3416  0.2342 -0.6751
   86SOPE   C25 8025   3.279   3.066   3.242  0.1447 -0.3571  0.4350
   86SOPE   H5R 8026   3.320   3.072   3.345  2.2157 -0.0786 -0.3700
   86SOPE   H5S 8027   3.292   3.168   3.201 -0.4078 -0.7308 -0.7164
   86SOPE   C26 8028   3.129   3.017   3.253 -0.1866 -0.7264  0.2805
   86SOPE   H6R 8029   3.072   3.095   3.308 -0.3049 -1.8745  1.8628
   86SOPE   H6S 8030   3.081   3.017   3.152 -0.3146  0.6091  0.3245
   86SOPE   C27 8031   3.125   2.889   3.340 -0.1152 -0.3953 -0.2773
   86SOPE   H7R 8032   3.114   2.802   3.272 -0.8985 -0.8161  0.3685
   86SOPE   H7S 8033   3.222   2.883   3.395  0.0111 -0.8125 -0.5396
   86SOPE   C28 8034   3.009   2.895   3.442  0.1246  0.1102  0.1303
   86SOPE   H8R 8035   3.016   2.998   3.482  0.4060  0.7627 -1.4930
   86SOPE   H8S 8036   2.907   2.892   3.396 -0.0482 -0.0745  0.5202
   86SOPE   C29 8037   3.006   2.788   3.551 -0.2994  0.3148 -0.1227
   86SOPE   H91 8038   2.937   2.708   3.520  0.5635 -0.4224 -0.1730
   86SOPE  C210 8039   3.074   2.786   3.665  0.2062  0.0473  0.3850
   86SOPE  H101 8040   3.071   2.696   3.728  1.0337  0.1863  0.6422
   86SOPE  C211 8041   3.173   2.881   3.710 -0.2610  0.0866  0.0215
   86SOPE  H11R 8042   3.202   2.951   3.629 -1.0155 -0.7758 -1.0223
   86SOPE  H11S 8043   3.270   2.833   3.735 -0.4088  0.5506  1.6610
   86SOPE  C212 8044   3.114   2.980   3.817  0.6384 -0.2697  0.2406
   86SOPE  H12R 8045   3.063   3.069   3.773 -1.7326 -1.4134  0.5068
   86SOPE  H12S 8046   3.196   3.032   3.869 -0.1773 -0.8606  2.2268
   86SOPE  C213 8047   3.040   2.916   3.938 -0.1781 -0.0054 -0.5437
   86SOPE  H13R 8048   3.083   2.817   3.963 -2.9209 -1.4367 -1.1326
   86SOPE  H13S 8049   2.934   2.908   3.905 -0.9275 -2.7356  2.1170
   86SOPE  C214 8050   3.031   3.018   4.058  0.7258 -0.8871  0.6874
   86SOPE  H14R 8051   2.991   3.116   4.023 -0.7183 -2.3081 -1.9523
   86SOPE  H14S 8052   3.136   3.044   4.086  0.3253  2.0805 -0.1871
   86SOPE  C215 8053   2.938   2.969   4.169  0.5571  0.0727  0.2563
   86SOPE  H15R 8054   2.836   2.958   4.126  0.7780  0.5029 -0.3986
   86SOPE  H15S 8055   2.929   3.055   4.239 -1.0146  0.9529 -0.9680
   86SOPE  C216 8056   2.981   2.836   4.238  0.6179 -0.1783  0.0533
   86SOPE  H16R 8057   3.092   2.837   4.248  0.5151 -0.1747  1.3193
   86SOPE  H16S 8058   2.958   2.756   4.164  0.7821  0.7266 -0.9914
   86SOPE  C217 8059   2.905   2.805   4.367 -0.2807  0.3903 -0.1957
   86SOPE  H17R 8060   2.915   2.697   4.391 -0.8198  0.5124  0.6037
   86SOPE  H17S 8061   2.802   2.841   4.346  0.2149  1.9701 -0.0418
   86SOPE  C218 8062   2.961   2.876   4.492 -0.8381  0.3906  0.0782
   86SOPE  H18R 8063   3.067   2.848   4.513 -0.7850  1.1577  0.8955
   86SOPE  H18S 8064   2.892   2.861   4.577 -0.0168  1.8244  1.0443
   86SOPE  H18T 8065   2.954   2.984   4.465  0.7865  0.0439 -2.0397
   86SOPE   C33 8066   3.823   2.404   3.026 -0.1590 -0.7147  0.1652
   86SOPE   H3X 8067   3.906   2.357   2.969  0.5859  0.3132  0.3800
   86SOPE   H3Y 8068   3.723   2.361   3.003 -0.5521  0.7293 -1.0244
   86SOPE   C34 8069   3.846   2.404   3.177  0.0178 -1.1037 -0.0574
   86SOPE   H4X 8070   3.927   2.474   3.204 -0.9320  0.1055 -0.2771
   86SOPE   H4Y 8071   3.898   2.313   3.213  2.2690 -0.3015 -1.1249
   86SOPE   C35 8072   3.728   2.424   3.266  0.6674 -0.1985 -0.3275
   86SOPE   H5X 8073   3.661   2.337   3.252  1.4552 -0.4948 -2.5885
   86SOPE   H5Y 8074   3.662   2.511   3.242  3.0098  2.6592  2.6443
   86SOPE   C36 8075   3.770   2.445   3.414 -0.0830 -0.3550 -0.5977
   86SOPE   H6X 8076   3.803   2.550   3.429  0.0228 -0.6255  1.2765
   86SOPE   H6Y 8077   3.860   2.382   3.430  0.2255  0.3578  0.5921
   86SOPE   C37 8078   3.669   2.415   3.523 -0.2601  0.3419 -0.1447
   86SOPE   H7X 8079   3.646   2.307   3.512  2.2428 -0.1982 -0.6775
   86SOPE   H7Y 8080   3.579   2.479   3.509  0.0954  1.1436  1.0779
   86SOPE   C38 8081   3.722   2.425   3.666 -0.2439  0.2036 -0.1813
   86SOPE   H8X 8082   3.762   2.528   3.680  0.4608 -0.4917  4.1318
   86SOPE   H8Y 8083   3.808   2.356   3.671 -1.1244 -1.3443 -3.3692
   86SOPE   C39 8084   3.623   2.386   3.774 -0.7575 -0.0249 -0.8297
   86SOPE   H9X 8085   3.610   2.276   3.775  2.7456 -0.5598  0.7674
   86SOPE   H9Y 8086   3.525   2.438   3.763 -0.0691  1.6625  0.5746
   86SOPE  C310 8087   3.678   2.425   3.913  0.2621  0.1807 -1.2004
   86SOPE  H10X 8088   3.684   2.535   3.921  0.2066  0.1504 -0.6831
   86SOPE  H10Y 8089   3.785   2.398   3.928 -0.0301 -0.1686  0.5024
   86SOPE  C311 8090   3.600   2.363   4.039 -0.3046  0.3775 -0.4051
   86SOPE  H11X 8091   3.630   2.256   4.035 -0.7214  0.2910 -1.8717
   86SOPE  H11Y 8092   3.492   2.380   4.022 -0.3479  0.2768 -0.2319
   86SOPE  C312 8093   3.648   2.418   4.177  0.8990  0.2357 -0.4460
   86SOPE  H12X 8094   3.633   2.528   4.185 -0.8717  0.1493 -1.7684
   86SOPE  H12Y 8095   3.754   2.395   4.201  0.9136  1.7008  1.0738
   86SOPE  C313 8096   3.560   2.344   4.287  0.6002 -0.2668  0.1966
   86SOPE  H13X 8097   3.548   2.238   4.255  2.5845 -0.3378 -0.4229
   86SOPE  H13Y 8098   3.454   2.377   4.291  0.9693  1.9579 -3.3848
   86SOPE  C314 8099   3.616   2.350   4.437 -0.8343  0.9712  0.0970
   86SOPE  H14X 8100   3.603   2.457   4.463  0.4487  0.7393  1.8670
   86SOPE  H14Y 8101   3.723   2.319   4.436 -0.7432  1.2837 -0.2623
   86SOPE  C315 8102   3.539   2.259   4.530 -0.2490  0.2157 -0.0837
   86SOPE  H15X 8103   3.540   2.154   4.496 -0.2898 -0.2584  1.3332
   86SOPE  H15Y 8104   3.432   2.288   4.520 -1.1766 -2.7546  0.2735
   86SOPE  C316 8105   3.584   2.269   4.680  0.1215  0.4386  1.4101
   86SOPE  H16X 8106   3.515   2.215   4.748 -1.3675 -4.6131 -3.3438
   86SOPE  H16Y 8107   3.601   2.377   4.702  2.6348  0.1985  0.9758
   86SOPE  C317 8108   3.714   2.189   4.699 -0.8897  0.4855  0.1765
   86SOPE  H17X 8109   3.793   2.243   4.642  1.1160 -1.8717  0.5863
   86SOPE  H17Y 8110   3.719   2.088   4.652 -0.4688  0.7143 -0.2780
   86SOPE  C318 8111   3.748   2.179   4.850  0.5622 -0.3032  0.2354
   86SOPE  H18X 8112   3.857   2.160   4.861  0.1093 -2.6894  1.0766
   86SOPE  H18Y 8113   3.685   2.107   4.907 -0.8729  1.0161  0.3864
   86SOPE  H18Z 8114   3.722   2.282   4.884 -0.3667 -0.2067 -0.7212
   87SOPE     N 8115   3.484   1.970   2.369 -0.2011 -0.3932 -0.5133
   87SOPE   HN1 8116   3.519   1.891   2.311  0.7588 -1.2987  1.2194
   87SOPE   HN2 8117   3.460   1.936   2.464  0.1706  0.2998 -0.1613
   87SOPE   HN3 8118   3.393   1.995   2.324  0.4725 -0.1869 -1.8296
   87SOPE   C12 8119   3.579   2.080   2.375 -0.0406  0.4950 -0.2633
   87SOPE  H12A 8120   3.564   2.127   2.475 -1.4258 -0.4882 -0.0005
   87SOPE  H12B 8121   3.561   2.154   2.294 -0.9843  0.0204 -0.4928
   87SOPE   C11 8122   3.725   2.034   2.361 -0.1461 -0.6451 -0.1394
   87SOPE  H11A 8123   3.791   2.123   2.361 -0.1204 -0.6250  1.6226
   87SOPE  H11B 8124   3.736   1.979   2.265 -0.7481  0.0426 -0.6177
   87SOPE     P 8125   3.900   1.912   2.494  0.1319 -0.0206  0.0728
   87SOPE   O13 8126   3.946   1.847   2.368 -0.3935  0.2779 -0.1726
   87SOPE   O14 8127   3.910   1.824   2.608 -0.8848  0.2037 -0.1062
   87SOPE   O12 8128   3.749   1.955   2.472 -0.1503 -0.3231  0.0185
   87SOPE   O11 8129   3.980   2.044   2.514  0.1431  0.6938 -0.2737
   87SOPE    C1 8130   3.946   2.134   2.623  0.0889 -0.7552 -0.3988
   87SOPE    HA 8131   3.904   2.084   2.713  0.6838 -1.2040 -0.3660
   87SOPE    HB 8132   3.871   2.211   2.594  1.7996  1.2809  0.3365
   87SOPE    C2 8133   4.070   2.211   2.662 -1.2067  0.0661 -0.5762
   87SOPE    HS 8134   4.159   2.149   2.637 -0.4146  0.8015  0.3168
   87SOPE   O21 8135   4.064   2.241   2.807  0.2904 -0.6097  0.3873
   87SOPE   C21 8136   4.170   2.208   2.872  0.8163  0.0620 -0.5987
   87SOPE   O22 8137   4.282   2.185   2.833  0.0634 -0.8415  0.3549
   87SOPE   C22 8138   4.134   2.218   3.017  0.1300  0.2281 -0.8112
   87SOPE   H2R 8139   4.048   2.150   3.036  0.3416 -0.8616 -3.2860
   87SOPE   H2S 8140   4.094   2.321   3.025 -0.6397  0.2677 -3.9705
   87SOPE    C3 8141   4.079   2.342   2.581 -0.9292 -0.7354 -0.3338
   87SOPE    HX 8142   3.994   2.407   2.611 -0.1220  0.5938 -0.8338
   87SOPE    HY 8143   4.062   2.326   2.473 -0.7372  3.2781 -1.1338
   87SOPE   O31 8144   4.203   2.414   2.600 -0.2510  0.3617  0.2663
   87SOPE   C31 8145   4.190   2.544   2.627  0.7649  0.1024 -0.5299
   87SOPE   O32 8146   4.093   2.621   2.604 -0.5939  0.4941 -0.6068
   87SOPE   C32 8147   4.323   2.591   2.690  0.5642 -0.6637 -0.3397
   87SOPE   H2X 8148   4.402   2.579   2.613  3.2175  2.1209  1.7134
   87SOPE   H2Y 8149   4.344   2.532   2.782 -1.1649 -0.7680  0.0201
   87SOPE   C23 8150   4.246   2.189   3.115 -0.5754  0.2152 -0.8129
   87SOPE   H3R 8151   4.326   2.262   3.093 -0.7330  0.7682  0.3746
   87SOPE   H3S 8152   4.277   2.084   3.095 -0.1677  0.1073  0.3394
   87SOPE   C24 8153   4.202   2.209   3.264 -1.0139 -0.3912  0.1020
   87SOPE   H4R 8154   4.296   2.199   3.324 -0.6302  0.6094 -0.3065
   87SOPE   H4S 8155   4.160   2.308   3.293  2.5619  0.6964  2.2434
   87SOPE   C25 8156   4.102   2.099   3.314  0.2289  0.4528 -0.5771
   87SOPE   H5R 8157   4.008   2.134   3.266 -1.0403 -0.0309  1.4647
   87SOPE   H5S 8158   4.125   2.001   3.267  0.1028 -0.2449  0.7672
   87SOPE   C26 8159   4.083   2.089   3.464  0.8277 -0.9430 -0.0399
   87SOPE   H6R 8160   4.068   2.183   3.522 -0.4190 -0.7266 -0.6757
   87SOPE   H6S 8161   3.995   2.021   3.471 -0.3775  0.5220 -0.4554
   87SOPE   C27 8162   4.200   2.025   3.533  0.5827  0.2484  0.2929
   87SOPE   H7R 8163   4.211   1.923   3.489 -0.7886 -1.1778  2.9694
   87SOPE   H7S 8164   4.297   2.078   3.519  0.5128  0.5669  0.9818
   87SOPE   C28 8165   4.169   1.984   3.676 -0.2321 -0.2283  0.0266
   87SOPE   H8R 8166   4.070   1.935   3.687 -0.1690 -0.5089 -0.6212
   87SOPE   H8S 8167   4.243   1.905   3.699 -0.5839 -0.8033 -0.7861
   87SOPE   C29 8168   4.189   2.090   3.778  0.5371  0.0236 -0.2190
   87SOPE   H91 8169   4.290   2.132   3.769  1.2095 -1.5087 -0.1848
   87SOPE  C210 8170   4.111   2.134   3.886 -0.2501 -0.2282  0.5238
   87SOPE  H101 8171   4.150   2.217   3.946  0.7350 -0.9412  0.8857
   87SOPE  C211 8172   3.971   2.086   3.923  0.1292 -0.5654  0.0113
   87SOPE  H11R 8173   3.938   2.037   3.829  1.7153 -0.4235 -0.6564
   87SOPE  H11S 8174   3.916   2.177   3.954 -0.3897 -1.4147  1.6523
   87SOPE  C212 8175   3.977   1.994   4.041 -0.4187 -0.2325 -0.8569
   87SOPE  H12R 8176   4.077   1.949   4.057 -1.7787 -2.1357  5.4696
   87SOPE  H12S 8177   3.899   1.919   4.017 -2.1773  0.9327  0.9105
   87SOPE  C213 8178   3.951   2.054   4.186 -0.2310 -0.1786  0.8608
   87SOPE  H13R 8179   3.977   1.977   4.261  2.2463 -0.6555 -0.3645
   87SOPE  H13S 8180   3.843   2.079   4.178 -0.5647 -1.3003  1.6502
   87SOPE  C214 8181   4.039   2.179   4.218  0.0563  0.0254  0.5388
   87SOPE  H14R 8182   4.012   2.254   4.142 -0.8251 -1.5193 -0.7365
   87SOPE  H14S 8183   4.142   2.142   4.200 -0.2059 -1.1635  1.3492
   87SOPE  C215 8184   4.020   2.222   4.357  0.2191  0.0490  0.1308
   87SOPE  H15R 8185   4.027   2.139   4.430 -0.7026 -0.7419 -0.6562
   87SOPE  H15S 8186   3.919   2.269   4.359 -0.4872 -1.2273 -2.2294
   87SOPE  C216 8187   4.128   2.318   4.396  0.0704 -0.5016 -0.6413
   87SOPE  H16R 8188   4.118   2.411   4.335  1.1041  0.3149  0.3975
   87SOPE  H16S 8189   4.230   2.282   4.373  0.9818  2.6616 -2.0950
   87SOPE  C217 8190   4.128   2.360   4.546  0.5003  0.0551 -0.8695
   87SOPE  H17R 8191   4.152   2.273   4.610 -1.5472  1.1171  1.4965
   87SOPE  H17S 8192   4.022   2.385   4.569  0.5788 -0.3651 -0.0277
   87SOPE  C218 8193   4.224   2.474   4.571  0.2738 -0.1559 -0.1309
   87SOPE  H18R 8194   4.328   2.447   4.544  0.4613  0.7168 -0.2876
   87SOPE  H18S 8195   4.221   2.498   4.680 -2.0681 -1.1208  0.0790
   87SOPE  H18T 8196   4.188   2.565   4.518 -0.0425  0.3377  0.8962
   87SOPE   C33 8197   4.338   2.742   2.725 -0.5583  0.0574 -0.1423
   87SOPE   H3X 8198   4.333   2.803   2.632  0.6574  1.3961  0.6517
   87SOPE   H3Y 8199   4.439   2.750   2.770  0.0831 -0.1397 -1.4938
   87SOPE   C34 8200   4.234   2.804   2.825  0.1903 -0.8524 -0.1958
   87SOPE   H4X 8201   4.129   2.798   2.790  0.3041 -2.3927 -0.3157
   87SOPE   H4Y 8202   4.259   2.907   2.861 -1.0148 -1.0666  1.3633
   87SOPE   C35 8203   4.207   2.721   2.953 -0.4863 -0.3615 -0.5880
   87SOPE   H5X 8204   4.179   2.620   2.916  1.2870 -0.8044 -0.8555
   87SOPE   H5Y 8205   4.123   2.757   3.016 -0.4084 -0.2542 -0.5444
   87SOPE   C36 8206   4.324   2.711   3.051 -0.5152  0.1485  0.6422
   87SOPE   H6X 8207   4.337   2.813   3.092 -0.1493  0.0018  0.9016
   87SOPE   H6Y 8208   4.422   2.689   3.003  0.4580  1.6051  1.8718
   87SOPE   C37 8209   4.291   2.612   3.163 -0.3839  0.5055  0.0160
   87SOPE   H7X 8210   4.387   2.573   3.204 -2.1385 -3.1092  1.0933
   87SOPE   H7Y 8211   4.227   2.534   3.118  2.9296 -0.3146 -3.9415
   87SOPE   C38 8212   4.220   2.677   3.281  0.3651 -0.2452 -0.1773
   87SOPE   H8X 8213   4.136   2.746   3.255  0.5226  0.4250  1.0152
   87SOPE   H8Y 8214   4.298   2.736   3.334 -1.7884  1.9888  0.7147
   87SOPE   C39 8215   4.164   2.592   3.395  0.2358  0.2988  0.5637
   87SOPE   H9X 8216   4.251   2.534   3.432 -0.1691 -2.5579 -2.5137
   87SOPE   H9Y 8217   4.100   2.509   3.359  0.9847  0.2747 -0.7925
   87SOPE  C310 8218   4.093   2.683   3.493 -0.2394 -0.0817  0.5053
   87SOPE  H10X 8219   3.998   2.722   3.450 -0.0057  1.5709  1.3885
   87SOPE  H10Y 8220   4.157   2.772   3.509  0.8723 -0.6572 -0.6139
   87SOPE  C311 8221   4.058   2.613   3.618 -0.4938 -0.7135  0.1547
   87SOPE  H11X 8222   4.018   2.514   3.587  1.6247 -0.7842 -2.8976
   87SOPE  H11Y 8223   3.987   2.670   3.680 -0.4662 -1.8418  1.2542
   87SOPE  C312 8224   4.181   2.589   3.708 -1.0499  0.5623 -0.3850
   87SOPE  H12X 8225   4.231   2.683   3.738 -1.5167  0.4910  0.6595
   87SOPE  H12Y 8226   4.252   2.524   3.652  0.2446  1.4103  0.2342
   87SOPE  C313 8227   4.154   2.512   3.838 -0.3945  0.6749  0.5089
   87SOPE  H13X 8228   4.253   2.482   3.880  0.4758  1.9088 -0.5530
   87SOPE  H13Y 8229   4.077   2.433   3.835  0.1669  0.1032  0.9034
   87SOPE  C314 8230   4.110   2.611   3.952  0.2307  0.2014 -0.0289
   87SOPE  H14X 8231   4.014   2.656   3.919 -0.9262 -2.1075 -0.0051
   87SOPE  H14Y 8232   4.183   2.694   3.962 -0.3193  0.5970  0.7510
   87SOPE  C315 8233   4.092   2.545   4.089 -0.3792 -0.0848 -0.1415
   87SOPE  H15X 8234   4.191   2.504   4.120 -0.2372  1.1970  1.2121
   87SOPE  H15Y 8235   4.029   2.455   4.070 -0.4295  0.2348 -1.6409
   87SOPE  C316 8236   4.032   2.635   4.193 -0.0922 -0.7785  0.4428
   87SOPE  H16X 8237   4.110   2.677   4.261 -1.2427  1.1244  0.6452
   87SOPE  H16Y 8238   3.953   2.572   4.240 -2.6025 -1.0658 -3.6895
   87SOPE  C317 8239   3.962   2.762   4.146  0.3466 -0.2606 -0.0387
   87SOPE  H17X 8240   3.877   2.723   4.086  1.9224 -1.0333 -1.8635
   87SOPE  H17Y 8241   4.034   2.816   4.081  0.2136  0.1560  0.1553
   87SOPE  C318 8242   3.925   2.846   4.265 -0.4024 -0.2743 -0.2866
   87SOPE  H18X 8243   4.018   2.898   4.296  0.1319 -0.3289 -1.7186
   87SOPE  H18Y 8244   3.875   2.789   4.347 -0.9284  1.6637  0.8023
   87SOPE  H18Z 8245   3.845   2.918   4.236  0.0801 -0.1086 -1.2236
   88SOPE     N 8246   6.531   0.405   2.535  0.1417  0.2566  0.4964
   88SOPE   HN1 8247   6.503   0.476   2.465  2.8562  2.4402  1.4044
   88SOPE   HN2 8248   6.449   0.370   2.588 -0.7928  1.7049  0.0595
   88SOPE   HN3 8249   6.597   0.467   2.586  0.3866  2.3201 -2.0936
   88SOPE   C12 8250   6.583   0.285   2.456 -0.0842 -0.9255 -0.3162
   88SOPE  H12A 8251   6.629   0.218   2.533  0.0323 -3.8121 -2.7141
   88SOPE  H12B 8252   6.651   0.330   2.380 -0.6157  2.1274  0.8764
   88SOPE   C11 8253   6.473   0.212   2.389  0.6604  0.7352 -0.0534
   88SOPE  H11A 8254   6.423   0.150   2.467 -1.8682  0.8392 -1.4831
   88SOPE  H11B 8255   6.521   0.144   2.315  0.6697  0.8550 -0.1578
   88SOPE     P 8256   6.254   0.239   2.277  0.2783 -0.1406  0.6263
   88SOPE   O13 8257   6.271   0.096   2.310  0.3500 -0.6166 -0.4969
   88SOPE   O14 8258   6.228   0.285   2.134  0.0190  0.8563  0.5775
   88SOPE   O12 8259   6.386   0.304   2.322 -0.2283  0.8071  0.2353
   88SOPE   O11 8260   6.138   0.300   2.365 -0.1493  0.3886  0.3104
   88SOPE    C1 8261   6.143   0.438   2.407  0.2566  0.1231  0.2788
   88SOPE    HA 8262   6.049   0.487   2.374  0.9766  0.2756 -1.7228
   88SOPE    HB 8263   6.217   0.497   2.347  0.1738  0.4244  0.4705
   88SOPE    C2 8264   6.181   0.463   2.551 -0.4593  0.5015 -0.2239
   88SOPE    HS 8265   6.291   0.472   2.561 -0.4673  1.2137 -0.7172
   88SOPE   O21 8266   6.120   0.357   2.638 -0.2301 -0.2097  0.1582
   88SOPE   C21 8267   6.211   0.275   2.699  1.0030  0.0109  0.5379
   88SOPE   O22 8268   6.326   0.268   2.668 -0.6729  0.3090 -0.8935
   88SOPE   C22 8269   6.143   0.171   2.785  0.9434  0.3652 -0.4790
   88SOPE   H2R 8270   6.168   0.072   2.741  0.5793 -0.0142  0.1416
   88SOPE   H2S 8271   6.034   0.189   2.771  1.0527  1.0508 -0.4831
   88SOPE    C3 8272   6.121   0.593   2.602 -1.0174 -0.4781  0.2122
   88SOPE    HX 8273   6.011   0.585   2.592 -0.8658 -0.8908 -1.3477
   88SOPE    HY 8274   6.162   0.678   2.543  1.9593 -1.7727  0.2607
   88SOPE   O31 8275   6.158   0.605   2.739 -0.2013  0.3555 -0.0555
   88SOPE   C31 8276   6.088   0.705   2.801 -0.4439  0.4015  0.6919
   88SOPE   O32 8277   6.021   0.782   2.737  0.0417 -0.1745  0.1882
   88SOPE   C32 8278   6.102   0.696   2.947  0.3104 -0.1887 -0.1438
   88SOPE   H2X 8279   6.212   0.709   2.956  0.0758  1.8115  0.3044
   88SOPE   H2Y 8280   6.070   0.591   2.960 -1.8849  0.3060 -1.0631
   88SOPE   C23 8281   6.185   0.180   2.929  0.2196  0.2450 -1.0188
   88SOPE   H3R 8282   6.291   0.147   2.935 -0.2436 -1.0414  1.2921
   88SOPE   H3S 8283   6.112   0.123   2.991  2.0826 -0.2817  0.7836
   88SOPE   C24 8284   6.176   0.325   2.991  0.4538 -0.2410 -0.1735
   88SOPE   H4R 8285   6.258   0.383   2.944  0.4212 -1.0120 -1.2151
   88SOPE   H4S 8286   6.082   0.374   2.958 -0.3824 -1.2615  0.6267
   88SOPE   C25 8287   6.187   0.341   3.141 -0.3542 -0.3982 -0.0454
   88SOPE   H5R 8288   6.205   0.449   3.157 -4.2233  0.3939 -0.0942
   88SOPE   H5S 8289   6.091   0.322   3.193 -0.5975 -0.4441 -0.5043
   88SOPE   C26 8290   6.294   0.256   3.218  0.9670  0.3412 -0.4082
   88SOPE   H6R 8291   6.255   0.155   3.242  0.6726  0.2310 -1.3215
   88SOPE   H6S 8292   6.385   0.245   3.156 -0.5017  0.4162 -2.7160
   88SOPE   C27 8293   6.340   0.319   3.349 -0.0166 -0.6765 -0.2107
   88SOPE   H7R 8294   6.428   0.271   3.395  0.7665  0.4133 -0.5274
   88SOPE   H7S 8295   6.380   0.412   3.303 -0.4018  1.0623  2.7363
   88SOPE   C28 8296   6.236   0.367   3.454 -0.1046  0.4815  0.4224
   88SOPE   H8R 8297   6.272   0.465   3.492 -1.1592  0.8312  0.5677
   88SOPE   H8S 8298   6.142   0.384   3.397 -0.6451  0.1427  1.1928
   88SOPE   C29 8299   6.227   0.254   3.556  0.5687 -0.6920 -0.0409
   88SOPE   H91 8300   6.159   0.175   3.521 -4.3938  2.6298  1.1115
   88SOPE  C210 8301   6.280   0.244   3.677  0.2446  0.0686  0.3134
   88SOPE  H101 8302   6.268   0.150   3.732  0.6826  0.7784  1.6604
   88SOPE  C211 8303   6.357   0.354   3.748 -0.5396  0.4442 -0.0031
   88SOPE  H11R 8304   6.392   0.421   3.666  0.6108 -2.8371 -2.4186
   88SOPE  H11S 8305   6.445   0.302   3.791 -2.6194 -0.9113  2.9119
   88SOPE  C212 8306   6.290   0.421   3.869  0.0263 -0.1142 -0.1319
   88SOPE  H12R 8307   6.187   0.457   3.846  0.8065  3.1208  0.9244
   88SOPE  H12S 8308   6.339   0.520   3.881 -0.3369  0.1040 -0.4121
   88SOPE  C213 8309   6.294   0.350   4.011  0.5232 -0.0187  0.3308
   88SOPE  H13R 8310   6.266   0.244   3.993 -0.4101  0.4122 -0.9471
   88SOPE  H13S 8311   6.207   0.404   4.055  0.3014  0.1449 -0.2928
   88SOPE  C214 8312   6.419   0.370   4.097 -0.8548 -0.3964  0.6241
   88SOPE  H14R 8313   6.422   0.467   4.152 -0.8528 -0.2208  0.3167
   88SOPE  H14S 8314   6.502   0.359   4.025 -2.3513 -1.9107 -0.9726
   88SOPE  C215 8315   6.422   0.259   4.205  0.1472 -0.3862  0.3562
   88SOPE  H15R 8316   6.451   0.170   4.145  0.0155 -0.6325  0.6553
   88SOPE  H15S 8317   6.319   0.259   4.248  0.1294  2.9182  0.5725
   88SOPE  C216 8318   6.532   0.281   4.310 -0.7311  0.5019 -0.1324
   88SOPE  H16R 8319   6.522   0.213   4.397 -1.0592  0.1192 -0.4680
   88SOPE  H16S 8320   6.520   0.380   4.358 -1.8981  1.0506 -1.4970
   88SOPE  C217 8321   6.679   0.270   4.266 -0.1028  0.1598  0.2928
   88SOPE  H17R 8322   6.686   0.351   4.190  1.3070 -1.0984 -1.0004
   88SOPE  H17S 8323   6.701   0.176   4.211 -1.2971  0.9523 -1.6383
   88SOPE  C218 8324   6.778   0.301   4.378 -0.5881 -0.0622  0.6560
   88SOPE  H18R 8325   6.751   0.396   4.429  0.4478  0.9916 -0.7004
   88SOPE  H18S 8326   6.882   0.301   4.341 -0.4301 -1.8732  1.0101
   88SOPE  H18T 8327   6.783   0.231   4.464 -2.1292  0.4788  1.2152
   88SOPE   C33 8328   6.012   0.795   3.029 -0.1083 -0.0853 -0.1563
   88SOPE   H3X 8329   5.908   0.770   2.999 -0.4705  1.2537 -0.1214
   88SOPE   H3Y 8330   6.043   0.899   3.005  0.5583 -0.3612 -0.5157
   88SOPE   C34 8331   6.022   0.771   3.177 -0.6909 -0.7117 -0.6498
   88SOPE   H4X 8332   6.097   0.841   3.220 -2.2094 -0.6818  2.1681
   88SOPE   H4Y 8333   6.048   0.664   3.191  0.6907 -0.4667 -1.2065
   88SOPE   C35 8334   5.891   0.795   3.253  0.1789 -0.3424 -0.1612
   88SOPE   H5X 8335   5.805   0.730   3.225 -0.2215  0.6097 -1.2323
   88SOPE   H5Y 8336   5.848   0.893   3.223  0.9479  0.0728  0.0588
   88SOPE   C36 8337   5.911   0.796   3.405 -0.0461 -0.0873  0.2901
   88SOPE   H6X 8338   5.977   0.882   3.432  0.2000 -0.0741 -0.3421
   88SOPE   H6Y 8339   5.959   0.701   3.438 -3.0110 -1.9476 -0.3883
   88SOPE   C37 8340   5.787   0.799   3.486 -0.2135  0.0142 -0.6552
   88SOPE   H7X 8341   5.745   0.696   3.493 -2.4218  0.8650 -0.6331
   88SOPE   H7Y 8342   5.709   0.857   3.433  0.2730  1.2846 -0.0223
   88SOPE   C38 8343   5.814   0.859   3.633 -0.2256  0.7044 -0.3445
   88SOPE   H8X 8344   5.713   0.897   3.661 -1.8303 -4.2859  1.7885
   88SOPE   H8Y 8345   5.881   0.947   3.624 -0.8415  1.1695 -0.4540
   88SOPE   C39 8346   5.872   0.747   3.725  0.5241 -0.1318  0.2708
   88SOPE   H9X 8347   5.956   0.692   3.677  0.5702 -1.2687  1.5833
   88SOPE   H9Y 8348   5.795   0.672   3.751 -0.1134  0.7371  0.9631
   88SOPE  C310 8349   5.926   0.803   3.856  0.2466  0.1895 -0.2021
   88SOPE  H10X 8350   5.853   0.878   3.892 -1.5410 -1.9945  0.9573
   88SOPE  H10Y 8351   6.024   0.853   3.840 -0.2732  1.6699  1.0735
   88SOPE  C311 8352   5.934   0.690   3.963  0.4647 -0.5837  0.0864
   88SOPE  H11X 8353   5.971   0.593   3.922  0.4106 -0.7247  0.3684
   88SOPE  H11Y 8354   5.829   0.660   3.982  0.3539 -1.1679 -1.3482
   88SOPE  C312 8355   6.005   0.720   4.099 -0.1482  0.1757  0.1190
   88SOPE  H12X 8356   5.942   0.799   4.146 -0.3893  1.0853 -1.6635
   88SOPE  H12Y 8357   6.112   0.738   4.077  0.1336  0.8448  1.8448
   88SOPE  C313 8358   5.995   0.599   4.189  0.4781  1.1288 -0.4094
   88SOPE  H13X 8359   6.059   0.523   4.139 -1.4618 -0.4181 -0.6913
   88SOPE  H13Y 8360   5.896   0.554   4.211  0.7143  0.1979 -1.1421
   88SOPE  C314 8361   6.051   0.632   4.327  0.1598  0.2762 -0.5093
   88SOPE  H14X 8362   5.996   0.714   4.379  2.2987  0.2077  2.0960
   88SOPE  H14Y 8363   6.144   0.691   4.310 -0.7122  1.3192 -1.9084
   88SOPE  C315 8364   6.070   0.519   4.432  0.3414  0.3737  1.1167
   88SOPE  H15X 8365   6.137   0.449   4.378  1.1887  1.9980 -0.0253
   88SOPE  H15Y 8366   5.978   0.463   4.460 -0.3437  0.6198 -0.5334
   88SOPE  C316 8367   6.152   0.573   4.559  0.9414 -0.7350  0.2105
   88SOPE  H16X 8368   6.077   0.627   4.620  1.0498  0.8578 -0.9917
   88SOPE  H16Y 8369   6.238   0.638   4.530  0.8355 -1.0611 -0.9022
   88SOPE  C317 8370   6.197   0.459   4.639 -0.5301 -0.7887  0.3624
   88SOPE  H17X 8371   6.116   0.384   4.656 -0.3662 -1.4935 -1.7180
   88SOPE  H17Y 8372   6.229   0.509   4.733  1.3957 -0.4477 -0.4342
   88SOPE  C318 8373   6.314   0.385   4.575  0.0579 -0.1859 -0.6352
   88SOPE  H18X 8374   6.277   0.307   4.505 -0.2350  0.4190 -1.1594
   88SOPE  H18Y 8375   6.374   0.336   4.655 -0.6950 -0.5807 -0.2998
   88SOPE  H18Z 8376   6.367   0.460   4.513 -1.3913  1.6561  0.2726
   89SAPC     N 8377   3.144   4.553   7.473  0.4194  0.2376 -0.1996
   89SAPC   C12 8378   3.016   4.565   7.388  0.5326  0.8533  0.0059
   89SAPC  H12A 8379   2.934   4.561   7.459 -0.4921  0.7104 -1.1487
   89SAPC  H12B 8380   2.989   4.475   7.335  0.1188  0.1132  1.4299
   89SAPC   C13 8381   3.139   4.414   7.536  0.1862  0.0357 -0.3579
   89SAPC  H13A 8382   3.139   4.329   7.468 -0.5804  0.3124 -0.7191
   89SAPC  H13B 8383   3.229   4.398   7.594  1.1712  2.9826 -0.9039
   89SAPC  H13C 8384   3.060   4.396   7.607 -0.5193 -1.7058 -1.5192
   89SAPC   C14 8385   3.270   4.572   7.392  0.3897  0.0037 -0.0130
   89SAPC  H14A 8386   3.271   4.670   7.348 -0.0752  0.8169  1.7045
   89SAPC  H14B 8387   3.356   4.569   7.457  0.9825  0.8612 -0.7467
   89SAPC  H14C 8388   3.267   4.489   7.323 -0.3198 -1.2503  1.4752
   89SAPC   C15 8389   3.137   4.662   7.573 -0.2724  0.0938  0.6344
   89SAPC  H15A 8390   3.045   4.671   7.628 -1.1409  1.0648 -0.8853
   89SAPC  H15B 8391   3.206   4.630   7.649  0.8040 -0.8650 -0.6921
   89SAPC  H15C 8392   3.163   4.762   7.541 -0.7739  0.7191  2.1207
   89SAPC   C11 8393   3.012   4.682   7.288 -0.4288 -0.9592 -0.3944
   89SAPC  H11A 8394   3.040   4.773   7.346  1.9605 -1.5294 -0.5529
   89SAPC  H11B 8395   2.909   4.709   7.256 -0.5411 -1.5836 -0.5776
   89SAPC     P 8396   3.084   4.576   7.070  0.2048 -0.0062  0.6145
   89SAPC   O13 8397   2.943   4.572   7.019 -0.2864  0.0043 -0.2874
   89SAPC   O14 8398   3.192   4.595   6.969 -0.3082  0.5630  0.1127
   89SAPC   O12 8399   3.103   4.676   7.181  0.6722 -0.2767 -0.1079
   89SAPC   O11 8400   3.121   4.437   7.137  0.1120  0.0907 -0.1859
   89SAPC    C1 8401   3.223   4.352   7.088  0.6306  0.1065  0.2857
   89SAPC    HA 8402   3.320   4.405   7.071 -0.7852  1.8635 -3.3447
   89SAPC    HB 8403   3.243   4.277   7.168  1.5979 -0.2641 -0.2795
   89SAPC    C2 8404   3.176   4.247   6.984 -0.3256  0.3787  0.7252
   89SAPC    HS 8405   3.254   4.168   6.985 -1.1858 -0.5489 -1.0490
   89SAPC   O21 8406   3.164   4.309   6.858 -0.0662 -0.3855  0.3186
   89SAPC   C21 8407   3.273   4.337   6.784  0.1149  0.0608 -0.3902
   89SAPC   O22 8408   3.386   4.310   6.812 -0.1218  0.1522  0.3899
   89SAPC   C22 8409   3.230   4.417   6.666  0.4522  0.3389  0.7628
   89SAPC   H2R 8410   3.145   4.360   6.623  0.0688  1.3329  0.1594
   89SAPC   H2S 8411   3.178   4.505   6.708  0.9716  0.2742  1.5627
   89SAPC    C3 8412   3.043   4.191   7.030 -0.1203 -0.5281 -0.0829
   89SAPC    HX 8413   2.972   4.276   7.034 -0.9097 -1.1366 -0.6250
   89SAPC    HY 8414   3.039   4.137   7.127 -0.0652  0.7245  0.6388
   89SAPC   O31 8415   2.985   4.111   6.924  0.9957  0.6678 -0.1770
   89SAPC   C31 8416   3.043   3.991   6.915 -0.5058  0.1635  0.2801
   89SAPC   O32 8417   3.130   3.957   6.995 -0.4864 -0.5816  0.1895
   89SAPC   C32 8418   2.979   3.912   6.795  0.5799 -0.9969 -0.2018
   89SAPC   H2X 8419   2.912   3.986   6.745 -0.4732 -0.9589  1.2010
   89SAPC   H2Y 8420   2.921   3.824   6.831 -1.8249  0.1623 -0.9875
   89SAPC   C23 8421   3.333   4.440   6.558  0.1556  0.5382  0.0361
   89SAPC   H3R 8422   3.417   4.503   6.594  0.4211  0.0267  0.3016
   89SAPC   H3S 8423   3.283   4.504   6.481  1.1621 -0.8812 -1.8686
   89SAPC   C24 8424   3.383   4.311   6.489  0.2808 -0.4028 -0.1114
   89SAPC   H4R 8425   3.319   4.281   6.403  0.1460  2.0899 -0.9706
   89SAPC   H4S 8426   3.386   4.239   6.574 -0.6698 -2.7279 -1.9268
   89SAPC   C25 8427   3.525   4.315   6.446 -0.4387 -0.3387 -0.2283
   89SAPC   H5R 8428   3.596   4.343   6.526 -1.3787 -1.4947  1.0663
   89SAPC   C26 8429   3.553   4.301   6.320 -0.1711 -0.0877 -0.4476
   89SAPC   H6R 8430   3.659   4.319   6.296  0.3588  0.2364  1.9453
   89SAPC   C27 8431   3.460   4.273   6.203  0.1122  0.7079 -0.2832
   89SAPC   H7R 8432   3.407   4.368   6.182 -0.8545  0.3652  0.5193
   89SAPC   H7S 8433   3.376   4.207   6.236  0.9920 -0.4847 -0.3432
   89SAPC   C28 8434   3.519   4.211   6.075  1.0049 -0.7170  0.3929
   89SAPC   H8R 8435   3.531   4.102   6.063 -0.0527 -0.7443 -0.6421
   89SAPC   C29 8436   3.577   4.290   5.981  0.5880  0.2707 -0.7139
   89SAPC   H9R 8437   3.616   4.238   5.892  0.6182  1.5494 -1.4778
   89SAPC  C210 8438   3.579   4.438   5.981  0.3095  0.7930 -0.6135
   89SAPC  H10R 8439   3.582   4.493   6.078  2.9617 -0.2764  0.0050
   89SAPC  H10S 8440   3.499   4.467   5.911  0.4537  1.7702 -0.3800
   89SAPC  C211 8441   3.712   4.484   5.928  0.2050 -0.0193  0.0866
   89SAPC  H11R 8442   3.760   4.548   6.003  1.2104 -2.3820  1.5762
   89SAPC  C212 8443   3.745   4.487   5.799  0.3325  0.1751  0.4579
   89SAPC  H12R 8444   3.850   4.517   5.780  0.2783  0.5913  0.8037
   89SAPC  C213 8445   3.685   4.421   5.682 -0.3193  0.2847 -0.1001
   89SAPC  H13R 8446   3.667   4.505   5.611  1.2290 -0.0161 -0.8862
   89SAPC  H13S 8447   3.588   4.376   5.713  0.8098 -0.9879  1.8314
   89SAPC  C214 8448   3.781   4.322   5.619 -0.2858  0.3321  0.1580
   89SAPC  H14R 8449   3.889   4.320   5.639 -0.4151  1.1443  1.0305
   89SAPC  C215 8450   3.735   4.232   5.530  0.0643 -0.1991  0.8241
   89SAPC  H15R 8451   3.813   4.174   5.478  1.9382  2.5735  0.3525
   89SAPC  C216 8452   3.596   4.214   5.483  0.7207 -0.6236  0.4357
   89SAPC  H16R 8453   3.529   4.300   5.500  0.6726 -0.2237 -1.5265
   89SAPC  H16S 8454   3.545   4.124   5.524  0.4840 -1.0338 -0.7076
   89SAPC  C217 8455   3.586   4.202   5.329  0.9099  0.3865 -0.3549
   89SAPC  H17R 8456   3.496   4.139   5.312  0.3919  0.9733  0.1685
   89SAPC  H17S 8457   3.676   4.162   5.278 -0.3282 -1.7655 -1.0004
   89SAPC  C218 8458   3.543   4.341   5.273  0.1423  0.1424 -0.3506
   89SAPC  H18R 8459   3.622   4.404   5.318 -0.5571 -0.1687  1.4017
   89SAPC  H18S 8460   3.446   4.367   5.320 -0.2572 -1.9967  0.1310
   89SAPC  C219 8461   3.529   4.345   5.117 -0.0858 -0.3116 -0.0486
   89SAPC  H19R 8462   3.486   4.444   5.092  2.6447  1.1885  0.6972
   89SAPC  H19S 8463   3.445   4.279   5.088  1.1511 -0.6184 -3.3659
   89SAPC  C220 8464   3.652   4.304   5.029  0.0323 -0.3684 -0.1729
   89SAPC  H20R 8465   3.730   4.383   5.037  0.3631 -0.4723 -2.0569
   89SAPC  H20S 8466   3.620   4.283   4.925  0.9778 -0.4629 -0.4569
   89SAPC  H20T 8467   3.690   4.210   5.074 -0.8207  0.1972  1.8582
   89SAPC   C33 8468   3.098   3.863   6.703  0.5097 -0.0114 -0.2247
   89SAPC   H3X 8469   3.054   3.807   6.618 -0.7195  1.4421 -0.6012
   89SAPC   H3Y 8470   3.163   3.793   6.759  0.2411  0.7593  1.0917
   89SAPC   C34 8471   3.185   3.977   6.647 -0.1229  0.6435 -0.2219
   89SAPC   H4X 8472   3.245   3.927   6.567 -1.5830  1.7156 -2.0773
   89SAPC   H4Y 8473   3.244   4.021   6.730  0.7245 -2.3727  0.9144
   89SAPC   C35 8474   3.100   4.085   6.568 -0.1627 -0.0942  0.1855
   89SAPC   H5X 8475   3.167   4.164   6.529 -0.9167 -0.7923 -2.8664
   89SAPC   H5Y 8476   3.037   4.130   6.647 -1.0516  1.3112 -1.2747
   89SAPC   C36 8477   2.991   4.048   6.463 -0.2775 -0.3561  0.4889
   89SAPC   H6X 8478   2.907   4.119   6.450 -2.4790 -2.7092  1.0381
   89SAPC   H6Y 8479   2.959   3.946   6.495  0.2980 -2.0183 -3.5246
   89SAPC   C37 8480   3.057   4.013   6.326 -0.4021 -1.0897 -0.4476
   89SAPC   H7X 8481   3.128   3.928   6.336 -2.3848 -3.0139 -1.8180
   89SAPC   H7Y 8482   3.104   4.107   6.289 -0.8916  0.1912  1.9959
   89SAPC   C38 8483   2.949   3.960   6.233 -0.3060 -0.1990 -1.2572
   89SAPC   H8X 8484   2.890   4.046   6.197  1.5422  0.4543 -2.8850
   89SAPC   H8Y 8485   2.883   3.891   6.290  0.4662  0.1425  0.1082
   89SAPC   C39 8486   3.024   3.891   6.122  0.7128  0.0784 -0.3322
   89SAPC   H9X 8487   3.080   3.802   6.157  2.3837  1.2171  0.0393
   89SAPC   H9Y 8488   3.104   3.956   6.081  1.9243  0.1302  1.9584
   89SAPC  C310 8489   2.927   3.830   6.016 -0.1852  0.4804  0.6880
   89SAPC  H10X 8490   2.887   3.915   5.955  0.9779  1.3362  1.0884
   89SAPC  H10Y 8491   2.839   3.785   6.068 -1.5737  0.8214 -1.2161
   89SAPC  C311 8492   2.990   3.724   5.926  0.2279 -0.2540  0.3173
   89SAPC  H11X 8493   2.996   3.623   5.973 -2.2039 -0.7096 -0.2553
   89SAPC  H11Y 8494   3.091   3.766   5.905  0.6063 -2.1602 -2.1063
   89SAPC  C312 8495   2.925   3.714   5.784  0.1693 -0.5870 -0.4009
   89SAPC  H12X 8496   2.919   3.820   5.751 -0.2143 -0.7902 -1.0056
   89SAPC  H12Y 8497   2.820   3.677   5.779 -1.5593  3.8120 -1.6015
   89SAPC  C313 8498   3.008   3.635   5.679 -0.7697  0.3325 -0.6202
   89SAPC  H13X 8499   3.018   3.529   5.710 -1.4039  0.7909  1.2587
   89SAPC  H13Y 8500   3.111   3.674   5.663  0.2909 -2.8854 -2.5778
   89SAPC  C314 8501   2.939   3.636   5.542  0.4691 -0.3256 -0.1664
   89SAPC  H14X 8502   2.921   3.744   5.523 -1.0814 -0.5734 -0.2508
   89SAPC  H14Y 8503   2.845   3.580   5.556 -0.9050  0.7870 -3.7606
   89SAPC  C315 8504   3.018   3.579   5.427  0.1086 -0.1533  0.9638
   89SAPC  H15X 8505   3.015   3.468   5.434 -4.7851 -0.6811 -3.4398
   89SAPC  H15Y 8506   3.122   3.612   5.448  0.4519  0.5847 -1.5766
   89SAPC  C316 8507   2.978   3.629   5.284 -0.6299 -0.2901 -0.9203
   89SAPC  H16X 8508   2.980   3.739   5.268  0.2082  0.0264  1.0810
   89SAPC  H16Y 8509   2.882   3.579   5.259 -1.6171  0.4649  1.1777
   89SAPC  C317 8510   3.074   3.571   5.180 -0.5659  0.1009 -0.6754
   89SAPC  H17X 8511   3.042   3.465   5.181  2.1049 -0.8923  3.7932
   89SAPC  H17Y 8512   3.174   3.581   5.227 -0.6765 -2.7586  0.3516
   89SAPC  C318 8513   3.057   3.643   5.049 -0.1993 -0.0248  0.5033
   89SAPC  H18X 8514   3.158   3.667   5.010  0.0456 -0.2910  0.9670
   89SAPC  H18Y 8515   3.005   3.740   5.063 -0.4929  0.1420 -1.4001
   89SAPC  H18Z 8516   2.990   3.578   4.988 -0.1724 -0.3108  0.7733
   90SAPC     N 8517   3.590   1.720   6.839 -0.4069 -0.3645 -0.3101
   90SAPC   C12 8518   3.520   1.582   6.820  0.2057 -0.3805  0.3641
   90SAPC  H12A 8519   3.460   1.586   6.731 -2.4126 -1.0093  1.9775
   90SAPC  H12B 8520   3.455   1.559   6.904  0.6541 -0.6118  0.6526
   90SAPC   C13 8521   3.630   1.746   6.980  0.1770 -0.3513 -0.0584
   90SAPC  H13A 8522   3.696   1.665   7.008 -0.1301 -0.7573 -0.5100
   90SAPC  H13B 8523   3.685   1.839   6.984 -1.0550  0.4475 -1.1583
   90SAPC  H13C 8524   3.547   1.739   7.049  1.9797 -4.4606  2.0355
   90SAPC   C14 8525   3.706   1.733   6.745  0.5703  0.0145  0.4568
   90SAPC  H14A 8526   3.676   1.725   6.642 -0.2566  0.9727  0.6111
   90SAPC  H14B 8527   3.758   1.827   6.752  2.4862 -0.9855  0.4398
   90SAPC  H14C 8528   3.787   1.663   6.762  0.7378  0.3616  1.1305
   90SAPC   C15 8529   3.489   1.826   6.794  0.0664 -0.3821 -0.4975
   90SAPC  H15A 8530   3.549   1.916   6.795 -0.0399 -0.2911  0.9788
   90SAPC  H15B 8531   3.440   1.811   6.700 -0.9382  0.4578 -0.1263
   90SAPC  H15C 8532   3.415   1.843   6.871 -0.8226 -1.5575 -1.0739
   90SAPC   C11 8533   3.604   1.450   6.817 -0.2608 -0.1839 -0.1311
   90SAPC  H11A 8534   3.695   1.466   6.755 -0.2291  1.5447  0.3028
   90SAPC  H11B 8535   3.542   1.375   6.763  1.1725 -0.1456 -1.9641
   90SAPC     P 8536   3.525   1.339   7.041  0.2801 -0.2219  0.1733
   90SAPC   O13 8537   3.568   1.331   7.182 -0.0330 -0.1898 -0.0666
   90SAPC   O14 8538   3.393   1.405   7.024  0.4741 -0.3039 -0.1839
   90SAPC   O12 8539   3.643   1.401   6.950 -0.2582 -0.1286  0.1354
   90SAPC   O11 8540   3.503   1.194   6.991  0.4220 -0.9434  0.3351
   90SAPC    C1 8541   3.574   1.075   7.047  0.0780 -0.3281  0.2847
   90SAPC    HA 8542   3.632   1.095   7.140  1.8768 -2.4165 -0.3117
   90SAPC    HB 8543   3.491   1.009   7.081 -0.5045  1.0210  1.6444
   90SAPC    C2 8544   3.658   1.010   6.937 -0.4066  0.1771 -0.2402
   90SAPC    HS 8545   3.752   1.067   6.919 -0.0774  0.7486  2.7938
   90SAPC   O21 8546   3.572   0.982   6.824 -0.8377  0.1025  0.2708
   90SAPC   C21 8547   3.608   1.039   6.714 -0.1836  0.2621 -0.2694
   90SAPC   O22 8548   3.710   1.104   6.699  0.0161 -0.2222  0.3581
   90SAPC   C22 8549   3.500   1.000   6.614 -0.0338 -0.3000  0.3556
   90SAPC   H2R 8550   3.509   0.892   6.592 -0.0006 -0.2029 -0.1208
   90SAPC   H2S 8551   3.401   1.028   6.657 -0.4823 -2.1349  0.5825
   90SAPC    C3 8552   3.738   0.873   6.985 -0.2187  0.3951 -0.2752
   90SAPC    HX 8553   3.648   0.816   7.018  0.6941  0.7534  3.2788
   90SAPC    HY 8554   3.808   0.877   7.071  1.9261  0.5099 -1.9323
   90SAPC   O31 8555   3.792   0.799   6.880 -0.7062  0.7590  0.3888
   90SAPC   C31 8556   3.900   0.845   6.820  0.1869 -0.1032 -1.0204
   90SAPC   O32 8557   3.961   0.947   6.857 -0.0322 -0.1637 -0.1546
   90SAPC   C32 8558   3.944   0.750   6.722 -0.0831  0.3199  0.2567
   90SAPC   H2X 8559   3.858   0.720   6.658  1.0681 -1.4685 -0.5467
   90SAPC   H2Y 8560   3.979   0.660   6.777  1.8058  1.2142  0.5890
   90SAPC   C23 8561   3.523   1.091   6.489  0.3515  0.1249  0.2210
   90SAPC   H3R 8562   3.622   1.068   6.444 -0.3242 -2.1154 -0.2738
   90SAPC   H3S 8563   3.525   1.197   6.520 -1.4114  0.5764 -1.0397
   90SAPC   C24 8564   3.416   1.048   6.385  0.7143  0.5277 -0.2167
   90SAPC   H4R 8565   3.323   1.015   6.434  0.4916 -0.1024 -1.0301
   90SAPC   H4S 8566   3.447   0.948   6.346 -0.0873 -0.7110  2.1464
   90SAPC   C25 8567   3.406   1.154   6.285 -0.0991  0.5076  0.3971
   90SAPC   H5R 8568   3.374   1.246   6.335 -0.8907  0.0478  0.7605
   90SAPC   C26 8569   3.432   1.136   6.151  0.2178  0.1098  0.4443
   90SAPC   H6R 8570   3.437   1.225   6.087  0.4303 -1.1116 -1.3296
   90SAPC   C27 8571   3.468   1.009   6.081 -0.3650  0.1966  0.2228
   90SAPC   H7R 8572   3.416   1.007   5.983  1.3507  0.4249 -0.7275
   90SAPC   H7S 8573   3.436   0.919   6.137 -0.7115  0.6743  0.8041
   90SAPC   C28 8574   3.619   1.003   6.065 -0.6706 -0.2337 -0.1801
   90SAPC   H8R 8575   3.668   0.967   6.156 -0.8353 -0.0235 -0.0077
   90SAPC   C29 8576   3.691   1.029   5.952 -0.1631  0.0008  0.1098
   90SAPC   H9R 8577   3.800   1.020   5.949 -0.2948 -1.5147 -1.5672
   90SAPC  C210 8578   3.630   1.066   5.825  0.1858  0.6844  0.6650
   90SAPC  H10R 8579   3.709   1.110   5.760 -2.1963  1.5773 -1.8457
   90SAPC  H10S 8580   3.564   1.154   5.841  0.6729  1.2138 -0.1563
   90SAPC  C211 8581   3.543   0.960   5.752  0.6729 -0.5837  1.3546
   90SAPC  H11R 8582   3.532   0.868   5.810  3.2417 -1.7141  0.2128
   90SAPC  C212 8583   3.488   0.978   5.629 -0.6182 -0.5547 -0.2502
   90SAPC  H12R 8584   3.434   0.893   5.584  0.7028 -2.1072  0.9535
   90SAPC  C213 8585   3.496   1.099   5.546  0.4613 -0.4678  0.0483
   90SAPC  H13R 8586   3.605   1.112   5.530  0.8805 -2.7571  0.6494
   90SAPC  H13S 8587   3.457   1.181   5.610 -0.4546 -0.8624  0.0127
   90SAPC  C214 8588   3.415   1.083   5.422  0.0886 -0.8818  0.4837
   90SAPC  H14R 8589   3.311   1.118   5.432  0.3585  0.8763 -2.0157
   90SAPC  C215 8590   3.459   1.048   5.303  0.6307 -0.6397 -0.0451
   90SAPC  H15R 8591   3.381   1.035   5.227 -0.7040  0.4898  1.0570
   90SAPC  C216 8592   3.596   1.021   5.253 -0.6634  0.7257 -0.7245
   90SAPC  H16R 8593   3.617   0.912   5.263 -0.1854  0.5020 -3.4652
   90SAPC  H16S 8594   3.669   1.080   5.312 -0.3095  0.7151 -1.1438
   90SAPC  C217 8595   3.619   1.048   5.103  0.2477  0.1041  0.3979
   90SAPC  H17R 8596   3.565   0.969   5.047  1.2624 -0.6354  0.4247
   90SAPC  H17S 8597   3.728   1.043   5.081  0.4371 -2.1745  1.6255
   90SAPC  C218 8598   3.569   1.193   5.063  0.2155  0.1632 -0.9484
   90SAPC  H18R 8599   3.566   1.241   5.163  1.2842 -3.2659  0.9208
   90SAPC  H18S 8600   3.467   1.176   5.023 -0.0003 -0.4319 -0.1649
   90SAPC  C219 8601   3.652   1.262   4.963 -0.4360 -1.0777 -0.0766
   90SAPC  H19R 8602   3.605   1.359   4.937 -1.6365 -2.6944 -4.9749
   90SAPC  H19S 8603   3.661   1.213   4.864 -1.6561  1.1326 -1.3744
   90SAPC  C220 8604   3.799   1.289   5.000 -0.5551 -0.2589 -0.2656
   90SAPC  H20R 8605   3.860   1.196   5.007  1.2877  0.9760  1.4548
   90SAPC  H20S 8606   3.801   1.347   5.095 -0.5288  3.2136 -2.2120
   90SAPC  H20T 8607   3.848   1.357   4.926  0.6495  0.9534  1.5502
   90SAPC   C33 8608   4.048   0.807   6.623  0.5093 -0.4751  0.5737
   90SAPC   H3X 8609   4.106   0.730   6.567  0.4594  0.9494 -1.5223
   90SAPC   H3Y 8610   4.120   0.879   6.668  0.7495  0.2882 -0.9518
   90SAPC   C34 8611   3.976   0.884   6.505 -0.3414  0.5532  0.5370
   90SAPC   H4X 8612   3.936   0.974   6.555 -1.0430  0.8225 -0.4791
   90SAPC   H4Y 8613   3.890   0.830   6.460 -1.8532  4.2259 -1.4245
   90SAPC   C35 8614   4.061   0.939   6.395  0.6207  0.0330  0.5473
   90SAPC   H5X 8615   4.130   0.865   6.350  1.3828  1.1954 -0.2619
   90SAPC   H5Y 8616   4.124   1.024   6.428 -1.8249  1.4439  1.8596
   90SAPC   C36 8617   3.989   0.991   6.274  0.6972 -0.1363 -0.6479
   90SAPC   H6X 8618   3.913   1.064   6.309 -0.1226 -1.1896 -0.1682
   90SAPC   H6Y 8619   3.934   0.920   6.208  0.5648 -0.5521 -0.0943
   90SAPC   C37 8620   4.091   1.059   6.175 -0.1996  0.2193  0.1941
   90SAPC   H7X 8621   4.152   1.137   6.227  3.1564 -2.1040  0.0784
   90SAPC   H7Y 8622   4.038   1.113   6.094  1.5170  1.4640 -0.1611
   90SAPC   C38 8623   4.180   0.958   6.100  0.6394  0.3640  0.3711
   90SAPC   H8X 8624   4.122   0.872   6.059  1.7011 -0.5589  0.7575
   90SAPC   H8Y 8625   4.249   0.911   6.173  1.5357  2.2748  0.7973
   90SAPC   C39 8626   4.263   1.020   5.983 -0.1072  0.0081 -0.0641
   90SAPC   H9X 8627   4.349   0.951   5.975 -0.9808 -1.1282  0.0972
   90SAPC   H9Y 8628   4.296   1.123   6.008  0.9720 -0.0881 -1.0375
   90SAPC  C310 8629   4.182   1.024   5.840 -0.9189 -0.5370 -0.4247
   90SAPC  H10X 8630   4.075   1.048   5.852 -0.7322  0.0229  0.1631
   90SAPC  H10Y 8631   4.200   0.923   5.797  0.5904 -0.9709  1.1282
   90SAPC  C311 8632   4.230   1.132   5.744 -0.0800  0.4424  0.1017
   90SAPC  H11X 8633   4.226   1.229   5.798 -0.6240  1.3130 -1.4550
   90SAPC  H11Y 8634   4.157   1.125   5.661  0.4364  0.9495 -0.3981
   90SAPC  C312 8635   4.379   1.120   5.698 -0.0705 -0.3444  0.8729
   90SAPC  H12X 8636   4.392   1.020   5.650  0.6053 -0.0464  0.4203
   90SAPC  H12Y 8637   4.446   1.118   5.786  1.5105  1.0851 -0.2281
   90SAPC  C313 8638   4.412   1.213   5.582  0.3976  0.5878  0.2322
   90SAPC  H13X 8639   4.425   1.316   5.621  0.4197  0.7973 -0.3237
   90SAPC  H13Y 8640   4.325   1.208   5.513 -0.7588 -2.2263  1.7174
   90SAPC  C314 8641   4.538   1.164   5.514  0.3936  0.4352 -0.3680
   90SAPC  H14X 8642   4.512   1.069   5.463 -0.7138  0.5000  0.0446
   90SAPC  H14Y 8643   4.625   1.149   5.581 -0.4447  1.2547  0.9556
   90SAPC  C315 8644   4.586   1.258   5.408  0.5305  0.4209 -0.7916
   90SAPC  H15X 8645   4.625   1.349   5.459  1.2239 -0.5891  0.5529
   90SAPC  H15Y 8646   4.498   1.298   5.354  0.0811 -0.1994 -0.5423
   90SAPC  C316 8647   4.675   1.193   5.298 -0.1278 -0.3526  0.4035
   90SAPC  H16X 8648   4.641   1.087   5.293 -0.3528 -0.2901  0.6378
   90SAPC  H16Y 8649   4.783   1.204   5.322 -0.0371 -0.5401  0.0991
   90SAPC  C317 8650   4.657   1.255   5.155  0.8969 -0.0814  0.1167
   90SAPC  H17X 8651   4.549   1.261   5.129  0.5606  0.1526  1.5300
   90SAPC  H17Y 8652   4.701   1.193   5.074 -0.3776 -0.0678 -0.6264
   90SAPC  C318 8653   4.716   1.397   5.135 -0.3172 -0.3294 -0.3311
   90SAPC  H18X 8654   4.821   1.402   5.172 -0.7473 -0.7262  1.0335
   90SAPC  H18Y 8655   4.656   1.469   5.195 -1.2962  0.2466 -1.9632
   90SAPC  H18Z 8656   4.715   1.423   5.027  1.7792 -2.7730 -1.0245
   91SAPC     N 8657   6.375   3.978   6.641 -0.0965  0.8062  0.0894
   91SAPC   C12 8658   6.313   3.839   6.612  0.1177 -0.6521 -0.0052
   91SAPC  H12A 8659   6.349   3.814   6.513  1.9670 -0.4286  0.5693
   91SAPC  H12B 8660   6.206   3.845   6.608  0.1572 -0.5765 -1.7038
   91SAPC   C13 8661   6.334   4.047   6.772 -0.4063  1.0319  0.5654
   91SAPC  H13A 8662   6.390   4.136   6.796 -0.5527  1.0388  0.8868
   91SAPC  H13B 8663   6.230   4.076   6.771 -1.1272 -1.3062  1.3614
   91SAPC  H13C 8664   6.356   3.969   6.843  2.5459  2.2706  1.1811
   91SAPC   C14 8665   6.526   3.969   6.642 -0.5754 -0.3503  0.1963
   91SAPC  H14A 8666   6.572   4.064   6.664  0.3047 -0.8141  0.3878
   91SAPC  H14B 8667   6.554   3.911   6.729  0.5537 -1.4212 -0.8555
   91SAPC  H14C 8668   6.560   3.924   6.550  1.2841 -0.3143  0.8255
   91SAPC   C15 8669   6.329   4.057   6.523  0.1660  0.6396  0.7500
   91SAPC  H15A 8670   6.345   4.163   6.522 -0.2895  0.7220 -0.6765
   91SAPC  H15B 8671   6.378   4.017   6.435  1.4396  2.5760  0.5253
   91SAPC  H15C 8672   6.223   4.042   6.509  0.3435 -0.0819  0.0529
   91SAPC   C11 8673   6.354   3.732   6.711 -0.0199 -0.3463 -0.0554
   91SAPC  H11A 8674   6.283   3.650   6.691  0.3063 -1.1595  1.8728
   91SAPC  H11B 8675   6.339   3.782   6.809  1.8922  1.9793 -0.8406
   91SAPC     P 8676   6.527   3.610   6.571 -0.0305  0.1632 -0.0618
   91SAPC   O13 8677   6.665   3.570   6.571  0.3493  0.0420  0.2243
   91SAPC   O14 8678   6.431   3.497   6.565  0.0535 -0.8087  0.0835
   91SAPC   O12 8679   6.498   3.691   6.701  0.0230 -0.5792  0.2423
   91SAPC   O11 8680   6.495   3.695   6.451  0.0941  0.2366  0.3061
   91SAPC    C1 8681   6.593   3.766   6.371 -0.3763 -0.1062 -0.4740
   91SAPC    HA 8682   6.537   3.847   6.319  0.3143 -0.4291 -1.7595
   91SAPC    HB 8683   6.677   3.808   6.430 -0.4202 -0.5857 -0.0648
   91SAPC    C2 8684   6.660   3.692   6.253  0.2646 -0.0551  0.3373
   91SAPC    HS 8685   6.680   3.776   6.184 -1.1816 -0.0792 -0.1546
   91SAPC   O21 8686   6.584   3.586   6.191 -0.2292 -0.1976  0.2557
   91SAPC   C21 8687   6.457   3.608   6.146 -0.2401 -0.6626  0.7626
   91SAPC   O22 8688   6.413   3.716   6.116 -0.2854  0.6559 -0.0169
   91SAPC   C22 8689   6.381   3.477   6.146  0.4447  0.0029 -0.2867
   91SAPC   H2R 8690   6.453   3.398   6.117  1.5382  1.4517 -1.7373
   91SAPC   H2S 8691   6.352   3.458   6.251  0.1926 -0.7917 -0.4930
   91SAPC    C3 8692   6.798   3.639   6.283 -0.7653 -0.0447  0.0964
   91SAPC    HX 8693   6.793   3.567   6.368  0.5668  1.3060  1.3985
   91SAPC    HY 8694   6.853   3.727   6.323 -0.0188 -0.2094 -0.5328
   91SAPC   O31 8695   6.877   3.589   6.173  0.2722 -0.2359 -0.0652
   91SAPC   C31 8696   6.892   3.459   6.163 -0.3178  0.1109 -0.1998
   91SAPC   O32 8697   6.848   3.372   6.237  0.3733 -0.1805 -0.1402
   91SAPC   C32 8698   6.961   3.425   6.034 -0.1291  0.0158 -0.0146
   91SAPC   H2X 8699   6.994   3.521   5.988 -0.5005  0.0154 -0.2958
   91SAPC   H2Y 8700   6.880   3.384   5.969  2.0453 -1.6159 -1.8706
   91SAPC   C23 8701   6.261   3.481   6.048  0.4527  0.0488  0.4889
   91SAPC   H3R 8702   6.210   3.580   6.048 -0.7591 -0.5178 -1.7133
   91SAPC   H3S 8703   6.192   3.399   6.078 -0.4238 -0.1523 -1.9096
   91SAPC   C24 8704   6.302   3.450   5.903  0.4274  0.3576 -0.0942
   91SAPC   H4R 8705   6.337   3.345   5.917 -0.1942  0.2502  0.7819
   91SAPC   H4S 8706   6.391   3.503   5.863  1.0597 -0.0835  0.6773
   91SAPC   C25 8707   6.179   3.457   5.813 -0.0990 -0.5883 -0.0945
   91SAPC   H5R 8708   6.091   3.507   5.857  0.8844  3.3569 -2.1275
   91SAPC   C26 8709   6.171   3.429   5.687  0.4551  0.2484  0.0692
   91SAPC   H6R 8710   6.078   3.444   5.632  0.4003 -2.8556 -0.8794
   91SAPC   C27 8711   6.284   3.370   5.599  0.1300 -0.3476 -0.2208
   91SAPC   H7R 8712   6.261   3.265   5.568  0.8096 -1.0068  1.3825
   91SAPC   H7S 8713   6.374   3.349   5.662 -0.3034 -0.3221  0.4114
   91SAPC   C28 8714   6.333   3.447   5.484  0.0513 -0.1490  0.7765
   91SAPC   H8R 8715   6.409   3.521   5.514  0.0735 -0.6562  2.0118
   91SAPC   C29 8716   6.302   3.434   5.353 -0.0925 -0.0328 -0.0922
   91SAPC   H9R 8717   6.344   3.510   5.285 -0.1176  2.3634  2.3797
   91SAPC  C210 8718   6.209   3.337   5.290  0.1639  0.4676  0.2051
   91SAPC  H10R 8719   6.105   3.375   5.305 -0.6583 -1.1453 -1.0788
   91SAPC  H10S 8720   6.222   3.245   5.351  2.8460 -0.2582 -1.3100
   91SAPC  C211 8721   6.226   3.313   5.139 -0.2275  0.3510  0.2889
   91SAPC  H11R 8722   6.288   3.381   5.078  0.1632  1.8635  2.2575
   91SAPC  C212 8723   6.172   3.200   5.083  0.1983 -1.0946 -0.4773
   91SAPC  H12R 8724   6.188   3.182   4.975  0.5755 -0.3384 -0.5556
   91SAPC  C213 8725   6.090   3.099   5.156 -0.7509  0.3242 -0.1451
   91SAPC  H13R 8726   5.987   3.142   5.155 -0.6679  0.5697 -1.6533
   91SAPC  H13S 8727   6.124   3.091   5.261 -1.9322 -2.0814  0.1292
   91SAPC  C214 8728   6.091   2.960   5.098 -0.4752  0.4595 -0.1932
   91SAPC  H14R 8729   6.187   2.912   5.121 -0.6472  0.0068 -0.4063
   91SAPC  C215 8730   5.998   2.889   5.029 -0.0748  0.2233  0.1553
   91SAPC  H15R 8731   6.014   2.787   4.989 -1.3367  0.3699 -0.7788
   91SAPC  C216 8732   5.875   2.958   4.970 -0.5094  0.4673  0.1795
   91SAPC  H16R 8733   5.908   3.053   4.923 -1.3327  0.6101 -0.1301
   91SAPC  H16S 8734   5.797   2.967   5.048  0.4932 -1.5579  1.5080
   91SAPC  C217 8735   5.812   2.876   4.857 -0.4724  0.7345 -0.1535
   91SAPC  H17R 8736   5.885   2.856   4.775  2.1913  1.0912  2.0144
   91SAPC  H17S 8737   5.741   2.944   4.806  0.3443  2.7723  1.3098
   91SAPC  C218 8738   5.747   2.743   4.891 -0.4767  0.4307  0.7145
   91SAPC  H18R 8739   5.691   2.740   4.987 -2.8761  0.2169 -0.6035
   91SAPC  H18S 8740   5.820   2.660   4.889 -0.7859  0.1091  1.8081
   91SAPC  C219 8741   5.629   2.714   4.793 -0.3627  1.1501 -0.8751
   91SAPC  H19R 8742   5.669   2.717   4.689  0.3953  1.2898 -0.5872
   91SAPC  H19S 8743   5.553   2.794   4.804 -3.2703 -1.5378 -0.0075
   91SAPC  C220 8744   5.560   2.581   4.813  0.2335 -0.2975  0.3449
   91SAPC  H20R 8745   5.471   2.585   4.747  0.9686 -1.0967 -0.7399
   91SAPC  H20S 8746   5.526   2.563   4.917 -1.2158  0.7405  0.0820
   91SAPC  H20T 8747   5.629   2.504   4.772 -0.6814 -0.3586 -1.1764
   91SAPC   C33 8748   7.088   3.338   6.041  0.5603 -0.1582 -0.1009
   91SAPC   H3X 8749   7.072   3.229   6.058  1.5713 -0.3253 -0.1207
   91SAPC   H3Y 8750   7.141   3.378   6.130  1.2828 -1.8209  0.2522
   91SAPC   C34 8751   7.168   3.358   5.911  0.1337 -0.6394  0.5669
   91SAPC   H4X 8752   7.251   3.284   5.907  0.0919 -0.6940  0.6922
   91SAPC   H4Y 8753   7.217   3.458   5.922 -1.1891 -0.0650  1.4995
   91SAPC   C35 8754   7.079   3.345   5.788 -0.0754 -0.0950  0.8033
   91SAPC   H5X 8755   7.004   3.426   5.777  2.3042  2.1088 -0.5523
   91SAPC   H5Y 8756   7.024   3.249   5.798  0.8777 -0.4790  2.7363
   91SAPC   C36 8757   7.168   3.337   5.664 -0.9754  0.4905  0.4325
   91SAPC   H6X 8758   7.095   3.320   5.581 -0.3483 -0.2748  0.0169
   91SAPC   H6Y 8759   7.237   3.250   5.677  0.3200  1.3741 -0.2837
   91SAPC   C37 8760   7.248   3.460   5.628 -0.5081 -0.1453  0.0429
   91SAPC   H7X 8761   7.326   3.480   5.705 -2.0989 -0.8350  1.9065
   91SAPC   H7Y 8762   7.184   3.550   5.618  0.9415  0.9730  0.4239
   91SAPC   C38 8763   7.339   3.449   5.502  0.8356  1.1080 -0.0963
   91SAPC   H8X 8764   7.394   3.355   5.526 -0.7874  0.3460  0.7778
   91SAPC   H8Y 8765   7.414   3.531   5.496  2.0584 -0.0497 -1.8089
   91SAPC   C39 8766   7.241   3.451   5.376 -0.5582  0.2761 -0.3004
   91SAPC   H9X 8767   7.178   3.542   5.375  0.8609  1.3879  2.3187
   91SAPC   H9Y 8768   7.184   3.355   5.378 -0.1266 -0.1312 -3.1080
   91SAPC  C310 8769   7.309   3.455   5.236 -0.5789 -0.1778  0.0048
   91SAPC  H10X 8770   7.363   3.360   5.217  0.2951  0.5105 -1.0899
   91SAPC  H10Y 8771   7.388   3.532   5.253 -1.1805  0.0824  1.8417
   91SAPC  C311 8772   7.220   3.491   5.116  0.3940 -0.6144 -0.1210
   91SAPC  H11X 8773   7.181   3.591   5.146  0.6496 -0.0765 -1.4875
   91SAPC  H11Y 8774   7.133   3.423   5.110 -0.1330 -0.0177  0.5389
   91SAPC  C312 8775   7.282   3.492   4.979 -0.2831  0.0068 -0.5044
   91SAPC  H12X 8776   7.338   3.396   4.970 -1.2232 -0.4670 -1.7932
   91SAPC  H12Y 8777   7.348   3.580   4.975 -1.6305  1.1198  0.6159
   91SAPC  C313 8778   7.180   3.489   4.864  0.5211  0.2756 -0.9302
   91SAPC  H13X 8779   7.123   3.583   4.845  1.9528  1.1728 -0.9052
   91SAPC  H13Y 8780   7.102   3.414   4.890  0.2994  0.1442 -1.9492
   91SAPC  C314 8781   7.244   3.438   4.733  0.3518  0.1581 -0.5416
   91SAPC  H14X 8782   7.276   3.331   4.739  0.2062  0.1802  0.9887
   91SAPC  H14Y 8783   7.329   3.508   4.717  0.5332  0.0126 -0.2285
   91SAPC  C315 8784   7.148   3.445   4.607  0.1203 -0.0410 -0.3604
   91SAPC  H15X 8785   7.194   3.379   4.531  0.4437  1.8284 -1.8790
   91SAPC  H15Y 8786   7.132   3.549   4.569 -1.6945 -0.3390 -0.4960
   91SAPC  C316 8787   7.004   3.393   4.622 -0.0912  0.3117  0.8563
   91SAPC  H16X 8788   6.945   3.451   4.696 -1.0840 -0.4527  0.6865
   91SAPC  H16Y 8789   7.003   3.287   4.658  2.6083  0.5637  1.8893
   91SAPC  C317 8790   6.943   3.397   4.484 -0.4789  0.3234  0.3462
   91SAPC  H17X 8791   7.001   3.322   4.427  1.3709  0.9840  1.2805
   91SAPC  H17Y 8792   6.947   3.498   4.438 -2.8663  0.7261  0.8783
   91SAPC  C318 8793   6.793   3.357   4.480  0.2741  0.0216 -0.0930
   91SAPC  H18X 8794   6.778   3.251   4.510  1.2806 -0.7901 -2.2116
   91SAPC  H18Y 8795   6.760   3.364   4.374 -1.0979 -2.1158  0.1276
   91SAPC  H18Z 8796   6.734   3.428   4.541 -1.0448  1.6965 -3.1300
   92SAPC     N 8797   6.548   1.601   6.747 -0.6031  0.0511 -0.5079
   92SAPC   C12 8798   6.418   1.662   6.780  0.0117 -0.0752 -0.5896
   92SAPC  H12A 8799   6.337   1.591   6.771  0.6079 -0.7069 -1.0932
   92SAPC  H12B 8800   6.395   1.738   6.706 -0.2587 -0.7494 -1.2124
   92SAPC   C13 8801   6.543   1.545   6.608 -0.4087  0.2870  0.3625
   92SAPC  H13A 8802   6.458   1.480   6.595 -1.0156  1.2251 -0.4848
   92SAPC  H13B 8803   6.539   1.621   6.532  1.1876  0.5592  0.5077
   92SAPC  H13C 8804   6.636   1.494   6.586  0.3967  0.5679  2.8141
   92SAPC   C14 8805   6.657   1.704   6.752  0.4640 -0.0261  0.3305
   92SAPC  H14A 8806   6.757   1.664   6.745 -0.2747 -1.6825 -1.8567
   92SAPC  H14B 8807   6.648   1.773   6.669  0.0042 -2.2401 -1.5579
   92SAPC  H14C 8808   6.637   1.760   6.842 -2.0537 -1.0629  0.4996
   92SAPC   C15 8809   6.588   1.490   6.839  0.5313  0.6024 -0.2057
   92SAPC  H15A 8810   6.675   1.432   6.814  0.2208  0.0662 -0.0684
   92SAPC  H15B 8811   6.608   1.525   6.939  0.5845  2.6055 -0.8671
   92SAPC  H15C 8812   6.499   1.429   6.840  0.3005  0.9290  1.5367
   92SAPC   C11 8813   6.417   1.744   6.912  0.5780  0.3553 -0.6635
   92SAPC  H11A 8814   6.446   1.688   7.003  2.0479  1.5248 -0.3786
   92SAPC  H11B 8815   6.309   1.765   6.928  0.4186 -2.3591  2.9685
   92SAPC     P 8816   6.440   1.998   6.954 -0.0231  0.0398 -0.1775
   92SAPC   O13 8817   6.356   1.981   7.072 -0.5581  0.4706 -0.2646
   92SAPC   O14 8818   6.539   2.107   6.952 -0.0581  0.0517 -0.3655
   92SAPC   O12 8819   6.492   1.863   6.905  0.3763 -0.0966 -0.3132
   92SAPC   O11 8820   6.340   2.048   6.846 -0.6601 -0.5262 -0.2900
   92SAPC    C1 8821   6.376   2.086   6.709 -0.5836  0.9779  0.3003
   92SAPC    HA 8822   6.473   2.141   6.702  1.0677 -1.6442  0.9169
   92SAPC    HB 8823   6.373   1.994   6.646 -0.1674  1.3314 -0.2510
   92SAPC    C2 8824   6.277   2.181   6.649 -0.5341 -0.3849 -0.2564
   92SAPC    HS 8825   6.262   2.260   6.724 -0.0570 -0.0050 -0.5536
   92SAPC   O21 8826   6.158   2.101   6.629 -0.0596 -0.4912 -0.0827
   92SAPC   C21 8827   6.055   2.168   6.591  0.1245  0.2824 -0.0273
   92SAPC   O22 8828   6.061   2.290   6.576  0.3635 -0.1331 -0.6647
   92SAPC   C22 8829   5.937   2.080   6.570  1.1712 -0.2552 -0.5119
   92SAPC   H2R 8830   5.966   2.002   6.496 -2.4085 -2.5274  0.2533
   92SAPC   H2S 8831   5.904   2.037   6.667 -1.1286 -0.9557 -1.5218
   92SAPC    C3 8832   6.337   2.240   6.521  0.0038  0.4207  0.1226
   92SAPC    HX 8833   6.436   2.289   6.537  0.3841 -0.1284 -0.5008
   92SAPC    HY 8834   6.278   2.324   6.477 -0.7106 -1.1558 -2.0904
   92SAPC   O31 8835   6.371   2.140   6.424  0.2795 -0.6438 -0.0217
   92SAPC   C31 8836   6.281   2.106   6.335  0.0420  0.1519 -0.4107
   92SAPC   O32 8837   6.184   2.174   6.310  0.0591  0.4232 -0.6752
   92SAPC   C32 8838   6.319   1.977   6.266 -0.5731  0.3879 -0.2166
   92SAPC   H2X 8839   6.291   1.904   6.344 -2.4556  0.1313 -1.0736
   92SAPC   H2Y 8840   6.430   1.975   6.254 -0.6841 -1.5945 -1.3690
   92SAPC   C23 8841   5.820   2.160   6.504 -0.2856  0.5575  0.0618
   92SAPC   H3R 8842   5.857   2.199   6.406 -0.3759 -0.0930 -0.2344
   92SAPC   H3S 8843   5.790   2.249   6.563 -1.0808  0.0307  0.4538
   92SAPC   C24 8844   5.696   2.069   6.484  0.2150 -0.4830  0.2052
   92SAPC   H4R 8845   5.683   2.003   6.573 -3.3032  0.0067  0.2025
   92SAPC   H4S 8846   5.706   1.994   6.403 -0.9265 -0.9223  0.4428
   92SAPC   C25 8847   5.575   2.151   6.462  0.9263  0.6763 -0.2178
   92SAPC   H5R 8848   5.562   2.218   6.548  0.9405  1.6052 -0.9271
   92SAPC   C26 8849   5.499   2.147   6.351  0.2979 -0.0878 -0.5650
   92SAPC   H6R 8850   5.411   2.214   6.354 -0.9687 -1.6744 -1.0869
   92SAPC   C27 8851   5.519   2.074   6.225 -0.2318  0.4787 -0.0082
   92SAPC   H7R 8852   5.594   1.994   6.241 -0.7527  0.3130  1.8938
   92SAPC   H7S 8853   5.550   2.150   6.150 -0.7192  1.3569  0.6585
   92SAPC   C28 8854   5.401   2.001   6.177  0.3586 -0.1578  0.4220
   92SAPC   H8R 8855   5.359   1.932   6.251  0.8492  1.0961  1.9135
   92SAPC   C29 8856   5.358   1.989   6.053 -0.0272 -0.2181 -0.1556
   92SAPC   H9R 8857   5.269   1.925   6.044 -1.7935  2.3728 -2.7865
   92SAPC  C210 8858   5.421   2.049   5.932  0.3467 -0.4753  0.6901
   92SAPC  H10R 8859   5.512   2.111   5.949 -0.0113 -0.3031  2.1158
   92SAPC  H10S 8860   5.344   2.124   5.903 -0.3606 -0.6684  1.9845
   92SAPC  C211 8861   5.452   1.955   5.824 -0.0798 -0.4337  0.0412
   92SAPC  H11R 8862   5.473   1.854   5.861  0.7359  0.0404  0.8900
   92SAPC  C212 8863   5.439   1.979   5.690  0.5773 -0.4784 -0.4728
   92SAPC  H12R 8864   5.442   1.897   5.618 -0.6566  0.1349 -1.2552
   92SAPC  C213 8865   5.401   2.116   5.628 -0.6639 -0.3040 -0.0931
   92SAPC  H13R 8866   5.450   2.136   5.530 -1.8364  1.2980 -0.3981
   92SAPC  H13S 8867   5.444   2.205   5.678 -0.0625 -0.0937 -0.9612
   92SAPC  C214 8868   5.256   2.133   5.612  0.7801  0.7847  0.1614
   92SAPC  H14R 8869   5.204   2.173   5.701  1.8169  2.9551 -0.1433
   92SAPC  C215 8870   5.188   2.118   5.498  0.2047 -0.4428 -0.1330
   92SAPC  H15R 8871   5.078   2.118   5.501  0.1898 -2.1991  0.0916
   92SAPC  C216 8872   5.240   2.091   5.359  0.6304 -0.1200  0.4191
   92SAPC  H16R 8873   5.236   1.981   5.352  2.0514 -0.1645 -0.0526
   92SAPC  H16S 8874   5.348   2.118   5.353  0.9078 -1.3771 -0.7740
   92SAPC  C217 8875   5.165   2.176   5.255  0.2322 -1.0140 -0.5373
   92SAPC  H17R 8876   5.199   2.280   5.272 -2.9184  0.0872 -0.2950
   92SAPC  H17S 8877   5.054   2.180   5.265  0.3763  1.2501  1.0025
   92SAPC  C218 8878   5.191   2.132   5.110  0.4758 -0.1789  0.4979
   92SAPC  H18R 8879   5.162   2.026   5.100 -0.5356  0.1973 -0.8034
   92SAPC  H18S 8880   5.301   2.146   5.095  0.1996  0.9630 -0.6717
   92SAPC  C219 8881   5.133   2.227   4.998 -0.2702 -0.1946 -0.3483
   92SAPC  H19R 8882   5.161   2.333   5.017 -1.2959 -0.2862  2.0809
   92SAPC  H19S 8883   5.025   2.207   5.015 -0.2630  0.7862  0.9641
   92SAPC  C220 8884   5.181   2.176   4.863 -0.3373 -0.6081  0.0639
   92SAPC  H20R 8885   5.286   2.139   4.865  0.6226  1.8877 -0.6808
   92SAPC  H20S 8886   5.185   2.260   4.790  2.8189 -1.3970 -0.8262
   92SAPC  H20T 8887   5.114   2.098   4.821 -0.7589 -1.2586  1.8924
   92SAPC   C33 8888   6.246   1.959   6.129 -0.3822  0.6586  0.2570
   92SAPC   H3X 8889   6.271   2.048   6.067  1.0027  0.3829  0.4027
   92SAPC   H3Y 8890   6.135   1.964   6.138 -0.5105  1.3657 -1.4032
   92SAPC   C34 8891   6.286   1.834   6.047  0.1432  0.3728 -0.6814
   92SAPC   H4X 8892   6.235   1.746   6.091  0.8345  0.3488  0.0781
   92SAPC   H4Y 8893   6.393   1.807   6.060 -0.2557  0.2851  3.8776
   92SAPC   C35 8894   6.253   1.828   5.891  0.1986  0.4805 -0.0129
   92SAPC   H5X 8895   6.146   1.849   5.871  0.1361  0.5668  0.4181
   92SAPC   H5Y 8896   6.277   1.725   5.856  0.5596  1.0783 -1.6284
   92SAPC   C36 8897   6.330   1.932   5.807  0.1997 -0.7308 -0.1304
   92SAPC   H6X 8898   6.435   1.897   5.815  0.5447  0.5575  1.9629
   92SAPC   H6Y 8899   6.335   2.029   5.862  0.9269 -1.2833  0.8152
   92SAPC   C37 8900   6.273   1.943   5.670 -0.2667  0.8781  0.1264
   92SAPC   H7X 8901   6.164   1.963   5.668 -0.8922 -2.1314  0.2617
   92SAPC   H7Y 8902   6.280   1.837   5.639  0.6954  0.7715  0.6679
   92SAPC   C38 8903   6.355   2.031   5.569 -0.0873 -0.0801 -0.5688
   92SAPC   H8X 8904   6.456   2.039   5.614  0.7046 -3.6144 -1.4444
   92SAPC   H8Y 8905   6.322   2.137   5.572  0.9387  0.2314  1.5297
   92SAPC   C39 8906   6.367   1.985   5.421 -0.2301  0.7306 -0.2457
   92SAPC   H9X 8907   6.394   1.877   5.412 -1.5464  0.3895 -0.3081
   92SAPC   H9Y 8908   6.446   2.050   5.378  1.0088  1.8691  3.3864
   92SAPC  C310 8909   6.243   2.008   5.335 -0.0184 -0.9919 -0.2270
   92SAPC  H10X 8910   6.211   2.114   5.344  1.0979 -0.5794 -0.9507
   92SAPC  H10Y 8911   6.168   1.942   5.384  1.2783 -3.2523 -1.1461
   92SAPC  C311 8912   6.266   1.971   5.190  0.2412  0.7307  0.2202
   92SAPC  H11X 8913   6.319   1.875   5.179 -0.0175  0.7531 -1.3474
   92SAPC  H11Y 8914   6.336   2.039   5.137 -1.2111  0.6109 -1.9715
   92SAPC  C312 8915   6.138   1.957   5.101 -0.0007 -0.4864 -0.4641
   92SAPC  H12X 8916   6.093   2.057   5.087  1.2999  0.6094  2.3117
   92SAPC  H12Y 8917   6.069   1.899   5.168  0.3609  0.6050  0.9127
   92SAPC  C313 8918   6.156   1.871   4.982 -1.0206 -0.3619 -0.4352
   92SAPC  H13X 8919   6.197   1.775   5.021  2.0116  1.2348  0.6640
   92SAPC  H13Y 8920   6.233   1.912   4.913  0.4757  2.0126  2.4270
   92SAPC  C314 8921   6.033   1.849   4.900  0.2003 -0.1602  0.1882
   92SAPC  H14X 8922   5.992   1.946   4.863 -1.7006 -1.1619 -0.4782
   92SAPC  H14Y 8923   5.961   1.795   4.965 -0.9182 -1.1425 -1.7519
   92SAPC  C315 8924   6.054   1.776   4.776  0.3189 -0.1090  0.2966
   92SAPC  H15X 8925   6.131   1.697   4.792 -2.0770 -2.0365  3.7550
   92SAPC  H15Y 8926   6.088   1.852   4.702 -0.5304  1.4872  1.5037
   92SAPC  C316 8927   5.926   1.706   4.730  0.7264 -0.5064  1.0233
   92SAPC  H16X 8928   5.846   1.782   4.716  1.6343  0.3488  0.3559
   92SAPC  H16Y 8929   5.900   1.621   4.797 -0.2537  0.0398  1.3523
   92SAPC  C317 8930   5.940   1.634   4.594  0.4087 -0.2018  0.5932
   92SAPC  H17X 8931   5.872   1.546   4.588  1.5454 -1.1558  1.2562
   92SAPC  H17Y 8932   6.047   1.602   4.592  0.3176 -0.4918  0.1135
   92SAPC  C318 8933   5.912   1.732   4.475  1.1210  0.0212 -0.5048
   92SAPC  H18X 8934   5.905   1.678   4.379  0.9868 -1.5087  0.3406
   92SAPC  H18Y 8935   5.987   1.814   4.479  0.2429  0.7924  1.3078
   92SAPC  H18Z 8936   5.812   1.779   4.493  0.4956 -1.8287  1.1898
   93SAPC     N 8937   1.626   2.722   6.913 -0.4320 -0.4985  0.4580
   93SAPC   C12 8938   1.592   2.725   6.760 -0.2478  0.5167 -0.7411
   93SAPC  H12A 8939   1.668   2.687   6.693  0.7753  1.4987 -0.1684
   93SAPC  H12B 8940   1.603   2.830   6.738  3.3930  0.1699 -1.0539
   93SAPC   C13 8941   1.751   2.813   6.917 -0.4151  0.6621  0.6707
   93SAPC  H13A 8942   1.818   2.793   6.834  2.2798  0.0488  2.8423
   93SAPC  H13B 8943   1.721   2.916   6.913 -0.2419  0.7944  2.3393
   93SAPC  H13C 8944   1.816   2.803   7.002  0.6919 -1.8788 -0.3474
   93SAPC   C14 8945   1.520   2.776   6.998  1.1541  0.4377 -0.2381
   93SAPC  H14A 8946   1.487   2.871   6.959  0.1673  1.5980  3.0771
   93SAPC  H14B 8947   1.432   2.715   7.006  0.8488  1.0269  1.2129
   93SAPC  H14C 8948   1.543   2.800   7.101  0.5394  1.6910 -0.3753
   93SAPC   C15 8949   1.662   2.584   6.952  0.3622 -0.6631  1.2768
   93SAPC  H15A 8950   1.572   2.524   6.949 -1.3214  1.7296  1.0017
   93SAPC  H15B 8951   1.723   2.543   6.873 -1.3870 -1.2591  0.1723
   93SAPC  H15C 8952   1.706   2.581   7.051  1.0594 -0.1099  0.9927
   93SAPC   C11 8953   1.446   2.688   6.722  0.3316  1.3787 -0.0857
   93SAPC  H11A 8954   1.422   2.598   6.783  0.0163  1.3245 -0.2859
   93SAPC  H11B 8955   1.431   2.661   6.615  0.1477 -0.2934  0.3355
   93SAPC     P 8956   1.355   2.934   6.712 -0.0340  0.0900  0.5069
   93SAPC   O13 8957   1.224   3.004   6.696 -0.3028  0.4765  0.1530
   93SAPC   O14 8958   1.451   3.012   6.795  0.3835  0.8017  0.4008
   93SAPC   O12 8959   1.350   2.784   6.766 -0.3769 -0.9917  0.4886
   93SAPC   O11 8960   1.421   2.923   6.562 -0.3278  0.2714  0.0738
   93SAPC    C1 8961   1.444   3.047   6.494 -0.0166 -0.5959 -0.0427
   93SAPC    HA 8962   1.351   3.108   6.495 -0.7668 -1.6971 -0.9196
   93SAPC    HB 8963   1.524   3.098   6.552  1.7509 -3.2506  0.0523
   93SAPC    C2 8964   1.492   3.044   6.344 -1.0045 -0.3033 -0.1949
   93SAPC    HS 8965   1.531   3.145   6.321  2.1862 -1.3548  0.0414
   93SAPC   O21 8966   1.383   3.004   6.263  0.0449  0.7116  0.5895
   93SAPC   C21 8967   1.302   3.100   6.227  0.3487 -1.1603  0.3477
   93SAPC   O22 8968   1.306   3.214   6.272 -0.2760  0.5230 -0.1656
   93SAPC   C22 8969   1.196   3.053   6.124  0.2370  0.1389 -0.3181
   93SAPC   H2R 8970   1.196   2.942   6.128  0.8549  0.1050 -1.1044
   93SAPC   H2S 8971   1.093   3.085   6.153  0.4316 -0.8428  1.6763
   93SAPC    C3 8972   1.610   2.938   6.326  0.4507  0.0531 -0.1530
   93SAPC    HX 8973   1.563   2.839   6.345  2.8837 -0.7920  2.0679
   93SAPC    HY 8974   1.690   2.954   6.402  0.5127  2.1699 -0.6214
   93SAPC   O31 8975   1.657   2.924   6.187  0.3487  0.5915  0.2554
   93SAPC   C31 8976   1.746   3.013   6.157 -0.5771 -0.1530 -0.2291
   93SAPC   O32 8977   1.798   3.097   6.229 -0.4190  0.4089 -0.0443
   93SAPC   C32 8978   1.764   3.006   6.000 -0.3820  0.2549 -0.6493
   93SAPC   H2X 8979   1.734   3.103   5.956  1.3043  1.6476  1.1168
   93SAPC   H2Y 8980   1.705   2.920   5.960  0.3672 -0.5803 -0.0172
   93SAPC   C23 8981   1.231   3.115   5.991  0.0544  0.3051 -0.2222
   93SAPC   H3R 8982   1.223   3.226   5.995 -0.6510  0.3197 -1.5081
   93SAPC   H3S 8983   1.152   3.075   5.924  1.6199 -1.5773 -1.0504
   93SAPC   C24 8984   1.364   3.064   5.919  0.8962  0.2918  0.7972
   93SAPC   H4R 8985   1.450   3.109   5.971  0.0424  2.1226  0.7071
   93SAPC   H4S 8986   1.359   3.091   5.811  0.8676 -0.7400  0.5341
   93SAPC   C25 8987   1.382   2.914   5.933 -0.3678 -0.3947  1.1173
   93SAPC   H5R 8988   1.408   2.869   6.030 -0.7013  0.7832  1.7704
   93SAPC   C26 8989   1.347   2.827   5.829  0.1109  1.0937  0.3231
   93SAPC   H6R 8990   1.364   2.720   5.847 -0.4175  1.1312  1.0974
   93SAPC   C27 8991   1.288   2.854   5.689 -0.0502  0.1628 -0.7162
   93SAPC   H7R 8992   1.327   2.939   5.630 -0.2383 -1.4676 -3.3573
   93SAPC   H7S 8993   1.184   2.884   5.715 -0.4477 -3.4780  3.0904
   93SAPC   C28 8994   1.278   2.727   5.601 -0.0269  0.3234 -0.2451
   93SAPC   H8R 8995   1.341   2.643   5.635  0.8304  1.4919  1.1731
   93SAPC   C29 8996   1.196   2.698   5.495 -0.1367  0.3044 -0.1164
   93SAPC   H9R 8997   1.202   2.602   5.442 -1.4739  0.1803 -0.0858
   93SAPC  C210 8998   1.079   2.775   5.436 -0.4029  0.3835 -0.5971
   93SAPC  H10R 8999   0.990   2.755   5.498 -0.3897  1.4471 -0.2099
   93SAPC  H10S 9000   1.060   2.722   5.340  0.0607  0.6641 -0.8528
   93SAPC  C211 9001   1.094   2.927   5.400 -0.2081  0.7531 -0.2676
   93SAPC  H11R 9002   1.179   2.981   5.445 -0.8745  0.4486  1.4494
   93SAPC  C212 9003   1.028   2.978   5.297  0.1795  0.4897 -0.5184
   93SAPC  H12R 9004   1.056   3.083   5.281  1.6492  0.5788  2.0982
   93SAPC  C213 9005   0.919   2.915   5.218  0.3468 -0.5875  0.0354
   93SAPC  H13R 9006   0.886   2.817   5.258  0.2988  0.1979  2.0239
   93SAPC  H13S 9007   0.950   2.887   5.115  0.1730  1.1517 -0.5294
   93SAPC  C214 9008   0.795   3.014   5.205  0.0857 -0.5191  0.3440
   93SAPC  H14R 9009   0.797   3.105   5.268  0.3167  1.0225 -1.7796
   93SAPC  C215 9010   0.689   2.997   5.126  0.4291 -0.1710 -0.7912
   93SAPC  H15R 9011   0.604   3.067   5.135 -0.8570 -1.9536  3.3457
   93SAPC  C216 9012   0.680   2.884   5.024 -0.0223 -0.1397  0.6810
   93SAPC  H16R 9013   0.588   2.824   5.041  0.6703 -1.5854 -0.4522
   93SAPC  H16S 9014   0.757   2.804   5.034  2.0957  1.6372 -0.5612
   93SAPC  C217 9015   0.677   2.935   4.877 -0.2012  0.1528 -0.1860
   93SAPC  H17R 9016   0.666   2.848   4.810  0.2508 -2.0743  2.4292
   93SAPC  H17S 9017   0.775   2.985   4.861 -0.1755  0.0087 -0.4713
   93SAPC  C218 9018   0.571   3.036   4.851  0.5805  0.4574 -0.4493
   93SAPC  H18R 9019   0.563   3.057   4.742 -0.5439  0.9035 -0.2982
   93SAPC  H18S 9020   0.605   3.133   4.894  0.4018  1.4441 -2.4006
   93SAPC  C219 9021   0.424   3.001   4.899 -0.0843 -0.3502  0.2990
   93SAPC  H19R 9022   0.356   3.084   4.868 -0.7905 -0.6466  1.0139
   93SAPC  H19S 9023   0.425   2.996   5.010  1.0377  1.3726  0.4092
   93SAPC  C220 9024   0.365   2.868   4.858  0.4861  0.5796  0.5135
   93SAPC  H20R 9025   0.414   2.779   4.903  0.9503  0.1790 -0.7572
   93SAPC  H20S 9026   0.376   2.861   4.748 -1.0565 -0.9437  0.3941
   93SAPC  H20T 9027   0.255   2.870   4.874 -0.1571  0.2426 -3.0178
   93SAPC   C33 9028   1.910   2.996   5.954 -0.1894  0.4684 -0.1386
   93SAPC   H3X 9029   1.955   2.897   5.979  2.1709  1.4535 -0.1712
   93SAPC   H3Y 9030   1.977   3.064   6.011  0.6226  0.5624 -1.1842
   93SAPC   C34 9031   1.920   3.028   5.802 -0.0649 -0.1387 -0.0872
   93SAPC   H4X 9032   2.026   3.016   5.773 -0.3708 -0.3005 -1.2026
   93SAPC   H4Y 9033   1.893   3.135   5.793 -1.5812 -0.3171  1.7134
   93SAPC   C35 9034   1.836   2.932   5.712 -0.2010 -0.0586 -0.5399
   93SAPC   H5X 9035   1.800   2.846   5.772  2.0355  1.1331  2.8576
   93SAPC   H5Y 9036   1.887   2.877   5.630  0.3506 -0.8751  0.3202
   93SAPC   C36 9037   1.723   3.011   5.652  0.4461 -0.1602 -0.3000
   93SAPC   H6X 9038   1.678   3.084   5.722  0.1330 -0.0814 -0.5802
   93SAPC   H6Y 9039   1.642   2.944   5.618 -0.9955  1.0521  0.5915
   93SAPC   C37 9040   1.761   3.085   5.532 -0.8988  0.2611 -0.0020
   93SAPC   H7X 9041   1.786   3.005   5.459 -0.6821 -0.0547  0.4158
   93SAPC   H7Y 9042   1.848   3.153   5.546 -1.2751  0.8918 -0.6404
   93SAPC   C38 9043   1.640   3.150   5.468  0.1562 -0.6426  0.6527
   93SAPC   H8X 9044   1.619   3.250   5.513 -0.1008  0.1244 -1.0936
   93SAPC   H8Y 9045   1.555   3.084   5.494  0.6450 -2.3169 -1.7270
   93SAPC   C39 9046   1.652   3.163   5.311  0.1972 -0.6659  0.0830
   93SAPC   H9X 9047   1.694   3.068   5.270  0.0479 -0.3727 -0.7716
   93SAPC   H9Y 9048   1.731   3.237   5.287 -0.3063 -1.0987 -3.5258
   93SAPC  C310 9049   1.524   3.203   5.235  0.1354 -0.7838 -0.6337
   93SAPC  H10X 9050   1.507   3.312   5.249 -0.2720 -0.9652  0.4258
   93SAPC  H10Y 9051   1.429   3.161   5.274 -1.4948  1.1412 -2.3874
   93SAPC  C311 9052   1.532   3.179   5.089  0.4196 -0.1227  0.2524
   93SAPC  H11X 9053   1.568   3.074   5.078 -1.7229 -0.8947  0.2320
   93SAPC  H11Y 9054   1.597   3.249   5.032  0.7744 -1.5194 -1.1191
   93SAPC  C312 9055   1.395   3.173   5.026  0.1097 -0.2829 -0.2089
   93SAPC  H12X 9056   1.344   3.085   5.072 -0.2252  0.7761  1.4984
   93SAPC  H12Y 9057   1.408   3.144   4.919 -0.8387  0.5760 -0.5724
   93SAPC  C313 9058   1.313   3.303   5.026  0.8032 -0.2171  0.4796
   93SAPC  H13X 9059   1.377   3.388   4.995  2.0049 -0.7802  1.3547
   93SAPC  H13Y 9060   1.272   3.336   5.124  1.3719  1.3413  0.2270
   93SAPC  C314 9061   1.190   3.293   4.935  0.2090 -1.1117 -0.0718
   93SAPC  H14X 9062   1.116   3.372   4.960  1.3876 -0.2258  0.7362
   93SAPC  H14Y 9063   1.142   3.198   4.966  0.4838 -1.8411 -1.7675
   93SAPC  C315 9064   1.222   3.276   4.791  0.3677  0.6090  0.1093
   93SAPC  H15X 9065   1.232   3.167   4.772 -0.4231  0.5110  0.2256
   93SAPC  H15Y 9066   1.320   3.319   4.760  0.9847  0.7089  2.0677
   93SAPC  C316 9067   1.109   3.338   4.707 -0.3251  0.4933  0.9256
   93SAPC  H16X 9068   1.095   3.446   4.727 -0.5032  0.4628  0.9684
   93SAPC  H16Y 9069   1.011   3.288   4.725  0.2557 -0.2448  2.1932
   93SAPC  C317 9070   1.149   3.328   4.555  0.2761 -0.0129  0.1898
   93SAPC  H17X 9071   1.110   3.239   4.500 -0.1716  1.3938 -1.8684
   93SAPC  H17Y 9072   1.259   3.345   4.550  0.5079 -1.2686  0.7084
   93SAPC  C318 9073   1.087   3.457   4.492 -0.4257 -0.4029 -0.0240
   93SAPC  H18X 9074   1.138   3.548   4.531  1.5432 -1.8364  0.8782
   93SAPC  H18Y 9075   0.977   3.471   4.508 -0.8630 -1.6224 -1.6978
   93SAPC  H18Z 9076   1.107   3.469   4.384 -1.9337 -0.5063 -0.3476
   94SAPC     N 9077   0.264   0.214   7.442 -0.3601  0.3671 -0.5729
   94SAPC   C12 9078   0.247   0.164   7.297 -0.1933 -0.3881 -0.0061
   94SAPC  H12A 9079   0.346   0.127   7.275 -0.1121  0.5708 -1.3453
   94SAPC  H12B 9080   0.224   0.245   7.230 -0.9691 -1.3704 -0.9668
   94SAPC   C13 9081   0.296   0.106   7.539 -0.3097 -0.9495 -0.4383
   94SAPC  H13A 9082   0.327   0.143   7.636 -1.3277 -1.1536 -0.0222
   94SAPC  H13B 9083   0.207   0.048   7.560 -1.4564  1.2158  1.0399
   94SAPC  H13C 9084   0.376   0.040   7.508 -1.1674 -2.4622  0.4202
   94SAPC   C14 9085   0.383   0.309   7.441 -0.1359  0.2918 -0.5437
   94SAPC  H14A 9086   0.389   0.361   7.536  2.0918  1.2455 -1.1343
   94SAPC  H14B 9087   0.469   0.249   7.416  0.2264  0.2254  0.7640
   94SAPC  H14C 9088   0.371   0.379   7.360 -1.8940 -2.8442 -3.2644
   94SAPC   C15 9089   0.149   0.290   7.491 -0.0905  0.2556  0.1944
   94SAPC  H15A 9090   0.141   0.383   7.438  0.4501  0.0912 -0.1807
   94SAPC  H15B 9091   0.069   0.227   7.456  1.3353 -0.1062 -2.7228
   94SAPC  H15C 9092   0.135   0.308   7.597 -1.5007  1.9838 -0.2374
   94SAPC   C11 9093   0.135   0.059   7.267  0.2764  0.2938  0.0156
   94SAPC  H11A 9094   0.129  -0.029   7.334  0.9289 -0.0045 -0.3123
   94SAPC  H11B 9095   0.159   0.020   7.166  2.2119 -0.8922  0.8821
   94SAPC     P 9096  -0.040   0.218   7.163  0.2709  0.2640 -0.1441
   94SAPC   O13 9097  -0.182   0.243   7.189  0.5163  0.8901 -0.2590
   94SAPC   O14 9098   0.037   0.342   7.142 -0.6300 -0.3139 -0.0602
   94SAPC   O12 9099   0.008   0.124   7.277  0.1153 -0.4073  0.5425
   94SAPC   O11 9100  -0.030   0.124   7.031  0.3853  0.3710 -0.3812
   94SAPC    C1 9101  -0.105   0.006   7.017  0.0329 -0.0723 -0.4185
   94SAPC    HA 9102  -0.118  -0.061   7.105  0.6792 -0.1781 -0.3957
   94SAPC    HB 9103  -0.202   0.038   6.972 -0.4811  1.3234  1.5404
   94SAPC    C2 9104  -0.045  -0.089   6.917 -0.1327  0.1005  0.3954
   94SAPC    HS 9105   0.030  -0.142   6.979 -2.7434 -1.8251  2.1576
   94SAPC   O21 9106   0.004  -0.004   6.809 -0.5207 -0.6199 -0.8814
   94SAPC   C21 9107   0.123  -0.043   6.755  0.5546  0.1445  0.3226
   94SAPC   O22 9108   0.192  -0.136   6.797  0.3561  0.1684 -0.0525
   94SAPC   C22 9109   0.158   0.053   6.639 -0.3367  0.2882  0.4144
   94SAPC   H2R 9110   0.065   0.099   6.599 -0.8762  0.5034  1.8677
   94SAPC   H2S 9111   0.234   0.125   6.676  2.3841  0.7683 -5.0803
   94SAPC    C3 9112  -0.142  -0.201   6.852  0.8727  0.0468 -0.3354
   94SAPC    HX 9113  -0.221  -0.141   6.802 -0.9103  0.3737  2.6097
   94SAPC    HY 9114  -0.201  -0.251   6.931 -1.1866  2.6597 -0.0993
   94SAPC   O31 9115  -0.076  -0.288   6.760  0.6770  0.0152 -0.6394
   94SAPC   C31 9116  -0.009  -0.391   6.813  0.4544  0.1036 -0.3149
   94SAPC   O32 9117   0.014  -0.409   6.936 -0.1477  0.3934  0.6747
   94SAPC   C32 9118   0.056  -0.475   6.693 -0.3231  0.4247 -0.1536
   94SAPC   H2X 9119   0.023  -0.581   6.697  1.5358 -0.2211 -0.6474
   94SAPC   H2Y 9120   0.162  -0.468   6.725 -0.4177  1.1605  0.0183
   94SAPC   C23 9121   0.236  -0.020   6.522  0.2266 -1.2067 -0.1886
   94SAPC   H3R 9122   0.165  -0.087   6.469 -1.4378  1.7208 -1.9161
   94SAPC   H3S 9123   0.325  -0.065   6.572  0.7001  1.6636  1.8150
   94SAPC   C24 9124   0.297   0.066   6.413  0.6590  0.4097 -0.3706
   94SAPC   H4R 9125   0.358  -0.004   6.351 -0.3196 -0.6250 -0.1929
   94SAPC   H4S 9126   0.371   0.141   6.448  1.9073 -0.8642 -0.1652
   94SAPC   C25 9127   0.186   0.121   6.333  0.3706  0.1539 -0.2266
   94SAPC   H5R 9128   0.133   0.203   6.385  0.0839  0.0174 -0.3033
   94SAPC   C26 9129   0.150   0.083   6.212 -0.5131  0.0286  0.3438
   94SAPC   H6R 9130   0.078   0.139   6.151  0.9533  0.2770 -1.2185
   94SAPC   C27 9131   0.210  -0.036   6.142 -0.1337  0.4899  0.1968
   94SAPC   H7R 9132   0.142  -0.080   6.065  2.1266 -1.3300 -0.9010
   94SAPC   H7S 9133   0.228  -0.118   6.214 -0.7792  2.0396  2.2141
   94SAPC   C28 9134   0.336   0.003   6.067 -0.1893  0.1477  0.5692
   94SAPC   H8R 9135   0.424   0.003   6.133 -0.1621  0.2503  0.5329
   94SAPC   C29 9136   0.350   0.043   5.931  0.1842 -0.1448  0.3095
   94SAPC   H9R 9137   0.443   0.074   5.880 -0.7113  0.7850 -0.8416
   94SAPC  C210 9138   0.227   0.056   5.836 -0.3937  0.2440 -0.0848
   94SAPC  H10R 9139   0.255   0.138   5.767 -2.2132 -0.3465 -1.5830
   94SAPC  H10S 9140   0.135   0.105   5.875  0.2117  0.1184  1.6182
   94SAPC  C211 9141   0.208  -0.067   5.759 -0.7842 -0.1519 -0.4391
   94SAPC  H11R 9142   0.209  -0.158   5.821  5.8583  0.1389  0.5195
   94SAPC  C212 9143   0.204  -0.073   5.626  0.3508 -0.0235  0.4050
   94SAPC  H12R 9144   0.185  -0.172   5.581  3.3606 -0.2469 -0.6285
   94SAPC  C213 9145   0.235   0.038   5.520  0.7422  0.4065 -0.1613
   94SAPC  H13R 9146   0.232   0.131   5.580  0.3564 -0.5496  1.3645
   94SAPC  H13S 9147   0.160   0.048   5.438  3.5035  3.4723 -2.5800
   94SAPC  C214 9148   0.368   0.045   5.457 -0.3876  0.0705 -0.1110
   94SAPC  H14R 9149   0.449  -0.004   5.513 -0.9125  0.3071  0.8714
   94SAPC  C215 9150   0.399   0.098   5.340  0.6182 -0.1653 -0.1594
   94SAPC  H15R 9151   0.489   0.054   5.295 -0.1137 -1.8842 -0.0237
   94SAPC  C216 9152   0.308   0.171   5.243  0.9613 -0.1898  0.0634
   94SAPC  H16R 9153   0.338   0.278   5.239  3.4160 -0.7941  1.0922
   94SAPC  H16S 9154   0.206   0.168   5.288  0.9692 -1.2231  0.0471
   94SAPC  C217 9155   0.303   0.100   5.099  0.6206  0.0826  0.0263
   94SAPC  H17R 9156   0.218   0.135   5.036 -1.0212  0.3270  2.2562
   94SAPC  H17S 9157   0.298  -0.011   5.106 -0.1607  0.1542  0.8082
   94SAPC  C218 9158   0.436   0.120   5.019  0.0433 -0.0782  0.2981
   94SAPC  H18R 9159   0.525   0.100   5.082  0.2167 -0.6225 -0.1075
   94SAPC  H18S 9160   0.426   0.228   4.999 -4.1290 -0.1589  1.0326
   94SAPC  C219 9161   0.433   0.048   4.883 -0.8004 -0.0506  0.0247
   94SAPC  H19R 9162   0.341   0.073   4.826 -0.8070  2.9603  1.1382
   94SAPC  H19S 9163   0.416  -0.060   4.902 -2.0231  0.6326  3.7121
   94SAPC  C220 9164   0.559   0.078   4.794 -0.4636  0.1577  0.0445
   94SAPC  H20R 9165   0.553   0.180   4.750  0.5988 -0.0246 -0.5530
   94SAPC  H20S 9166   0.556   0.002   4.713 -0.9252 -1.1594  1.2439
   94SAPC  H20T 9167   0.656   0.071   4.848 -0.9270  0.6550  0.9748
   94SAPC   C33 9168   0.036  -0.408   6.555 -0.0494  0.0948 -0.0046
   94SAPC   H3X 9169   0.088  -0.310   6.549  1.2996 -0.4865  1.4390
   94SAPC   H3Y 9170  -0.071  -0.399   6.528  0.2627 -1.4086 -2.0343
   94SAPC   C34 9171   0.088  -0.499   6.446 -0.5612  0.2017 -0.0604
   94SAPC   H4X 9172   0.037  -0.598   6.447  0.8359 -0.5511  0.2473
   94SAPC   H4Y 9173   0.191  -0.527   6.477 -1.0791  0.0733  1.6650
   94SAPC   C35 9174   0.064  -0.460   6.303  0.5546 -0.6268 -0.3943
   94SAPC   H5X 9175   0.086  -0.353   6.282 -2.3579  0.0104 -0.5411
   94SAPC   H5Y 9176  -0.046  -0.452   6.298  0.5521  0.7342  1.1458
   94SAPC   C36 9177   0.122  -0.553   6.199  0.0180 -1.1880 -0.1052
   94SAPC   H6X 9178   0.070  -0.649   6.220 -2.7016  0.0969 -0.4688
   94SAPC   H6Y 9179   0.232  -0.555   6.216 -0.4184 -1.3667  3.3120
   94SAPC   C37 9180   0.097  -0.503   6.052 -0.3894 -0.1062 -0.2907
   94SAPC   H7X 9181   0.165  -0.418   6.033  1.6946 -1.7087 -0.4051
   94SAPC   H7Y 9182  -0.008  -0.471   6.037 -0.4596 -0.3463 -0.3143
   94SAPC   C38 9183   0.139  -0.614   5.952 -0.6247 -0.3356 -0.5816
   94SAPC   H8X 9184   0.065  -0.696   5.954 -0.5087 -0.4251  0.4286
   94SAPC   H8Y 9185   0.241  -0.649   5.977 -0.9817 -0.4302  0.8071
   94SAPC   C39 9186   0.149  -0.539   5.818 -0.3997 -0.0364 -0.4224
   94SAPC   H9X 9187   0.228  -0.462   5.831 -1.9084  1.0607  4.4445
   94SAPC   H9Y 9188   0.053  -0.489   5.793 -0.4341  0.6531  0.9948
   94SAPC  C310 9189   0.177  -0.637   5.704 -0.4508 -0.1431  0.7028
   94SAPC  H10X 9190   0.095  -0.713   5.702 -0.8842  0.3329  0.0231
   94SAPC  H10Y 9191   0.273  -0.692   5.717 -0.9284 -0.6315  2.3912
   94SAPC  C311 9192   0.165  -0.567   5.566  0.2050  0.4446  0.2918
   94SAPC  H11X 9193   0.224  -0.473   5.562  0.2634  0.6412  3.1813
   94SAPC  H11Y 9194   0.062  -0.526   5.555  0.7218  1.3951 -1.2539
   94SAPC  C312 9195   0.199  -0.658   5.449  0.9676 -0.1561  0.1153
   94SAPC  H12X 9196   0.141  -0.752   5.457 -1.5767  1.2649 -0.2831
   94SAPC  H12Y 9197   0.309  -0.670   5.459  0.9831 -0.4788 -0.4038
   94SAPC  C313 9198   0.177  -0.581   5.321 -0.0613 -0.2339 -0.0424
   94SAPC  H13X 9199   0.248  -0.496   5.314  2.0937 -2.0238 -1.6952
   94SAPC  H13Y 9200   0.069  -0.555   5.312 -0.6669 -2.4323  0.2847
   94SAPC  C314 9201   0.222  -0.659   5.193 -0.3795 -0.8371 -0.0869
   94SAPC  H14X 9202   0.176  -0.760   5.199  1.6429 -1.9139 -1.6885
   94SAPC  H14Y 9203   0.331  -0.674   5.179 -0.0816 -0.6503  1.7876
   94SAPC  C315 9204   0.168  -0.595   5.065 -0.1608  0.1047  0.4705
   94SAPC  H15X 9205   0.216  -0.497   5.044  0.3348 -0.2149  0.1008
   94SAPC  H15Y 9206   0.065  -0.578   5.103  0.8614  2.2650  2.5760
   94SAPC  C316 9207   0.191  -0.680   4.940 -0.5674  0.4950 -0.5170
   94SAPC  H16X 9208   0.153  -0.776   4.980 -1.5362  0.1492 -2.2151
   94SAPC  H16Y 9209   0.296  -0.696   4.909 -0.2139 -2.0726  1.6722
   94SAPC  C317 9210   0.099  -0.637   4.827  0.1224  0.2638 -0.3926
   94SAPC  H17X 9211  -0.007  -0.616   4.851 -0.5013 -0.8853 -1.9688
   94SAPC  H17Y 9212   0.095  -0.717   4.750  2.2827 -0.7456  0.4624
   94SAPC  C318 9213   0.152  -0.506   4.760 -0.6401  0.0302  0.3413
   94SAPC  H18X 9214   0.185  -0.429   4.833 -0.7091 -1.4731  2.0345
   94SAPC  H18Y 9215   0.065  -0.465   4.705 -1.7142 -1.4445  0.8792
   94SAPC  H18Z 9216   0.228  -0.526   4.681 -0.7502  2.0570 -0.3348
   95SAPC     N 9217   0.889   2.163   2.094  0.5244  0.3628 -0.0419
   95SAPC   C12 9218   1.015   2.252   2.084 -0.0621  0.6746  0.1724
   95SAPC  H12A 9219   1.058   2.263   2.182  4.2544  2.9390 -1.6548
   95SAPC  H12B 9220   0.990   2.348   2.041  0.0397  0.0703 -1.2924
   95SAPC   C13 9221   0.838   2.122   1.964  0.0271  0.3331 -0.0916
   95SAPC  H13A 9222   0.923   2.116   1.898  2.1592 -0.4703  2.5414
   95SAPC  H13B 9223   0.788   2.026   1.967 -1.9323  1.1046 -3.2386
   95SAPC  H13C 9224   0.759   2.185   1.926 -0.9113 -1.7726 -1.8526
   95SAPC   C14 9225   0.912   2.032   2.166  0.2338 -0.2630  0.1215
   95SAPC  H14A 9226   0.961   2.039   2.262 -0.4414  0.0166  0.4494
   95SAPC  H14B 9227   0.818   1.979   2.171  0.6543 -0.9283  1.7327
   95SAPC  H14C 9228   0.975   1.974   2.100 -2.1104 -0.2026 -2.3617
   95SAPC   C15 9229   0.784   2.224   2.177  0.0313 -0.4314  0.4498
   95SAPC  H15A 9230   0.823   2.260   2.271 -0.9390 -1.7527  1.4127
   95SAPC  H15B 9231   0.739   2.301   2.117  2.9744  0.5233 -0.6752
   95SAPC  H15C 9232   0.716   2.145   2.205 -2.7293  1.7736  0.3931
   95SAPC   C11 9233   1.142   2.211   1.999 -0.1380  0.0861 -0.1385
   95SAPC  H11A 9234   1.223   2.286   2.014 -0.3949  0.1122  1.2775
   95SAPC  H11B 9235   1.121   2.222   1.891 -0.7454  1.4844  0.1034
   95SAPC     P 9236   1.274   2.066   2.171  0.0064  0.0994 -0.3764
   95SAPC   O13 9237   1.266   1.923   2.211 -0.3728  0.0522  0.1211
   95SAPC   O14 9238   1.412   2.114   2.143  0.2773 -0.2652 -0.5569
   95SAPC   O12 9239   1.192   2.076   2.035  0.9040  0.0126  0.4528
   95SAPC   O11 9240   1.198   2.168   2.270 -0.1364 -0.1211 -0.4727
   95SAPC    C1 9241   1.270   2.269   2.343 -0.1783  0.4634 -1.0765
   95SAPC    HA 9242   1.352   2.313   2.283  0.6074 -1.4146 -1.4623
   95SAPC    HB 9243   1.199   2.351   2.368 -3.1311 -0.9734 -3.9725
   95SAPC    C2 9244   1.335   2.212   2.481  0.1011 -0.7009 -0.1774
   95SAPC    HS 9245   1.433   2.181   2.439  0.2802  1.4421 -1.4798
   95SAPC   O21 9246   1.262   2.102   2.534 -0.1746 -0.5715  0.4706
   95SAPC   C21 9247   1.315   2.029   2.629  0.8827  0.3067  0.5374
   95SAPC   O22 9248   1.428   2.033   2.671  0.0075 -0.4118 -0.2570
   95SAPC   C22 9249   1.215   1.929   2.673 -0.1701 -0.0344 -0.4970
   95SAPC   H2R 9250   1.119   1.977   2.700 -0.1422  0.8861 -1.9582
   95SAPC   H2S 9251   1.196   1.861   2.587  0.0983 -1.4582  0.5334
   95SAPC    C3 9252   1.353   2.328   2.589 -0.3678  0.1662 -1.0215
   95SAPC    HX 9253   1.420   2.401   2.539  2.6816 -0.3570  1.9473
   95SAPC    HY 9254   1.413   2.286   2.672 -1.1454  2.7064  0.9390
   95SAPC   O31 9255   1.227   2.384   2.636 -0.3109 -0.1024  0.6772
   95SAPC   C31 9256   1.200   2.398   2.764 -0.1238  0.1997  0.4360
   95SAPC   O32 9257   1.265   2.347   2.854  0.1019 -0.0410 -0.3218
   95SAPC   C32 9258   1.070   2.476   2.776  0.2235  0.3878 -0.1916
   95SAPC   H2X 9259   0.991   2.410   2.736  0.0993  0.1828  0.3766
   95SAPC   H2Y 9260   1.071   2.559   2.702  0.0146 -0.7836 -1.5499
   95SAPC   C23 9261   1.272   1.830   2.787 -0.0437 -0.0134 -0.9584
   95SAPC   H3R 9262   1.377   1.810   2.756 -0.1402  1.4505 -2.3615
   95SAPC   H3S 9263   1.223   1.731   2.799  0.3336 -0.2039 -0.9704
   95SAPC   C24 9264   1.261   1.896   2.926 -0.1471 -0.5074  0.4481
   95SAPC   H4R 9265   1.153   1.912   2.946 -0.5102  0.2968 -1.8566
   95SAPC   H4S 9266   1.307   1.997   2.916 -0.7216 -0.3489 -0.7778
   95SAPC   C25 9267   1.322   1.813   3.030  0.3586  0.6922 -0.5293
   95SAPC   H5R 9268   1.422   1.848   3.057  1.4524 -2.6744  0.2610
   95SAPC   C26 9269   1.267   1.711   3.099  0.3116 -0.0471  0.3569
   95SAPC   H6R 9270   1.330   1.642   3.157  1.4635  0.9516  0.3262
   95SAPC   C27 9271   1.125   1.666   3.070  0.1018  0.0239  0.0517
   95SAPC   H7R 9272   1.107   1.629   2.967 -0.9491 -0.4825  0.4031
   95SAPC   H7S 9273   1.062   1.755   3.089  0.9493  0.2772  1.9815
   95SAPC   C28 9274   1.078   1.561   3.157 -0.3512  0.2647 -1.3686
   95SAPC   H8R 9275   1.064   1.469   3.098 -4.6859  0.2413 -0.6037
   95SAPC   C29 9276   1.060   1.569   3.293  0.7326 -0.3550 -0.4370
   95SAPC   H9R 9277   1.014   1.481   3.341  1.3164 -0.5380 -0.2042
   95SAPC  C210 9278   1.067   1.687   3.389 -0.2480 -0.3725 -0.1935
   95SAPC  H10R 9279   0.965   1.729   3.394  0.5839  1.7311 -0.0300
   95SAPC  H10S 9280   1.118   1.775   3.344 -0.8954 -0.0010 -0.2054
   95SAPC  C211 9281   1.134   1.656   3.523  0.1638  0.0835 -0.2111
   95SAPC  H11R 9282   1.215   1.582   3.510 -1.2470 -1.4052 -0.9496
   95SAPC  C212 9283   1.096   1.719   3.637 -0.8481  0.2665 -0.1590
   95SAPC  H12R 9284   1.147   1.692   3.731 -1.7966  0.4456  0.4206
   95SAPC  C213 9285   0.978   1.810   3.647  0.0086  0.4227  0.0996
   95SAPC  H13R 9286   0.944   1.802   3.753  0.3703 -0.6029  0.1476
   95SAPC  H13S 9287   0.893   1.771   3.586 -1.0915  1.0477  1.1810
   95SAPC  C214 9288   1.005   1.952   3.601 -0.0682  0.2978  0.0736
   95SAPC  H14R 9289   1.111   1.981   3.592  0.1913 -0.8498 -0.8446
   95SAPC  C215 9290   0.911   2.028   3.547 -0.2905 -0.3040 -0.6731
   95SAPC  H15R 9291   0.945   2.124   3.506  1.3249  0.4765  2.2365
   95SAPC  C216 9292   0.763   2.003   3.526  0.3636 -0.5269 -0.4543
   95SAPC  H16R 9293   0.707   2.087   3.572  2.0172  0.1023  0.5097
   95SAPC  H16S 9294   0.735   1.914   3.587  0.5248 -1.4222 -1.6579
   95SAPC  C217 9295   0.725   1.962   3.384 -0.4212 -0.3704 -0.2024
   95SAPC  H17R 9296   0.615   1.944   3.375 -0.8554  0.2368  2.9717
   95SAPC  H17S 9297   0.767   1.862   3.361  0.3377  0.3983 -2.5008
   95SAPC  C218 9298   0.758   2.063   3.272  0.6555 -0.2705  0.7521
   95SAPC  H18R 9299   0.865   2.088   3.292  1.2213 -1.1702 -0.9402
   95SAPC  H18S 9300   0.697   2.155   3.274 -1.3650 -1.3769 -2.4711
   95SAPC  C219 9301   0.755   2.003   3.130  0.4981  0.3463  0.2683
   95SAPC  H19R 9302   0.653   2.033   3.098  0.3150  1.2029  1.5711
   95SAPC  H19S 9303   0.742   1.893   3.141  1.0378  0.1558 -0.8104
   95SAPC  C220 9304   0.869   2.043   3.030  0.1349  0.0447 -0.3442
   95SAPC  H20R 9305   0.845   2.138   2.979  0.6047  1.0135  1.1517
   95SAPC  H20S 9306   0.897   1.959   2.964  1.9850  0.0789  0.3270
   95SAPC  H20T 9307   0.962   2.063   3.088  1.8395 -2.3065 -2.0724
   95SAPC   C33 9308   1.026   2.520   2.924 -0.2358  0.7955  0.3311
   95SAPC   H3X 9309   0.943   2.594   2.920  1.3230  2.6447 -3.6974
   95SAPC   H3Y 9310   1.119   2.557   2.973  0.9892 -2.2294  0.4984
   95SAPC   C34 9311   0.982   2.399   3.011 -0.5834  0.2632  0.1285
   95SAPC   H4X 9312   1.059   2.319   3.006 -1.1630 -0.2393 -2.2128
   95SAPC   H4Y 9313   0.886   2.350   2.982 -0.2979 -1.2817  1.5903
   95SAPC   C35 9314   0.973   2.455   3.155  0.9260 -0.2926  0.1058
   95SAPC   H5X 9315   0.909   2.545   3.157  0.6999 -0.4690  1.9859
   95SAPC   H5Y 9316   1.074   2.498   3.172  0.5265  0.6139  0.2578
   95SAPC   C36 9317   0.934   2.356   3.263 -0.5472 -0.1643 -0.6284
   95SAPC   H6X 9318   1.007   2.275   3.241  0.5203  0.7648 -0.6800
   95SAPC   H6Y 9319   0.830   2.321   3.248  0.2363 -2.1533 -1.7107
   95SAPC   C37 9320   0.936   2.421   3.406  0.1265 -0.7075  0.0733
   95SAPC   H7X 9321   1.017   2.496   3.423 -0.7588  1.1903 -3.1988
   95SAPC   H7Y 9322   0.957   2.335   3.473  0.9093 -0.8918 -0.3966
   95SAPC   C38 9323   0.807   2.483   3.448  0.1583  0.2241  0.5890
   95SAPC   H8X 9324   0.719   2.421   3.420  0.2076 -0.3660  1.6973
   95SAPC   H8Y 9325   0.793   2.584   3.402  1.1094 -0.4599 -1.3128
   95SAPC   C39 9326   0.803   2.511   3.596  0.4123  0.1208  0.4893
   95SAPC   H9X 9327   0.899   2.548   3.639 -0.1481 -0.3864  2.2593
   95SAPC   H9Y 9328   0.780   2.418   3.653 -0.8658  0.0307 -0.1483
   95SAPC  C310 9329   0.689   2.608   3.645 -0.2278 -0.1220 -0.5028
   95SAPC  H10X 9330   0.592   2.562   3.619  0.0384 -0.7065 -0.4797
   95SAPC  H10Y 9331   0.705   2.710   3.602  0.8008 -0.2251 -0.4115
   95SAPC  C311 9332   0.690   2.620   3.798  0.1154 -0.3330  0.0660
   95SAPC  H11X 9333   0.708   2.726   3.825 -0.2283 -0.2942  0.1453
   95SAPC  H11Y 9334   0.777   2.559   3.833  0.2322 -1.3697 -1.9122
   95SAPC  C312 9335   0.573   2.552   3.870 -0.5945 -0.4796  0.0467
   95SAPC  H12X 9336   0.577   2.443   3.846 -0.3015 -0.6273  0.7384
   95SAPC  H12Y 9337   0.477   2.597   3.837  0.3066  2.2509  0.9393
   95SAPC  C313 9338   0.588   2.564   4.017  0.3380  0.1368 -0.1445
   95SAPC  H13X 9339   0.610   2.672   4.036 -1.5340  0.6998 -0.9386
   95SAPC  H13Y 9340   0.688   2.521   4.034  1.3166  2.4390  0.3837
   95SAPC  C314 9341   0.470   2.511   4.100  0.1189 -0.8896 -0.6289
   95SAPC  H14X 9342   0.425   2.420   4.056 -1.6640  0.5629 -1.9901
   95SAPC  H14Y 9343   0.390   2.588   4.096 -0.7675 -1.8014 -3.8078
   95SAPC  C315 9344   0.512   2.486   4.247  0.1172  0.0839 -0.9608
   95SAPC  H15X 9345   0.577   2.569   4.283 -0.8494  0.9318 -1.1213
   95SAPC  H15Y 9346   0.568   2.392   4.264 -0.7293 -0.5943 -1.8303
   95SAPC  C316 9347   0.383   2.462   4.334 -0.5288 -0.2398 -0.0731
   95SAPC  H16X 9348   0.411   2.418   4.433 -0.4406  0.1183  0.0647
   95SAPC  H16Y 9349   0.312   2.392   4.286 -2.4308  1.4266  0.1925
   95SAPC  C317 9350   0.289   2.591   4.351 -0.1363  0.0858 -1.5758
   95SAPC  H17X 9351   0.220   2.607   4.266 -2.5487  3.3275  0.7172
   95SAPC  H17Y 9352   0.345   2.687   4.354  0.8574 -0.4719 -1.6523
   95SAPC  C318 9353   0.202   2.585   4.477  0.6243  0.3455 -0.7074
   95SAPC  H18X 9354   0.147   2.678   4.505  0.1327 -0.3364  0.7144
   95SAPC  H18Y 9355   0.251   2.550   4.571 -3.4292  0.2913  1.5897
   95SAPC  H18Z 9356   0.129   2.502   4.484  0.1877  0.8463  2.1134
   96SAPC     N 9357   1.464   3.613   2.028  0.4753 -0.1501 -0.1441
   96SAPC   C12 9358   1.362   3.624   2.141 -0.0859  0.3758  0.5941
   96SAPC  H12A 9359   1.303   3.713   2.126  1.4317  1.4518  0.7564
   96SAPC  H12B 9360   1.421   3.636   2.231  0.9314 -0.7581  0.1065
   96SAPC   C13 9361   1.571   3.514   2.054  0.2426  0.3158 -0.2237
   96SAPC  H13A 9362   1.628   3.553   2.137  1.5388  0.0936 -0.9843
   96SAPC  H13B 9363   1.524   3.422   2.082 -0.0427  0.8795  1.2470
   96SAPC  H13C 9364   1.627   3.491   1.964 -1.2650 -0.2109 -1.0627
   96SAPC   C14 9365   1.394   3.565   1.904 -0.3459 -0.6007  0.0809
   96SAPC  H14A 9366   1.353   3.469   1.931 -0.0845 -0.3189  1.5570
   96SAPC  H14B 9367   1.310   3.627   1.878 -2.5707 -1.8587  3.5649
   96SAPC  H14C 9368   1.464   3.561   1.821  1.6266 -1.4375  1.7051
   96SAPC   C15 9369   1.530   3.750   2.016 -0.3631  0.4867  0.4704
   96SAPC  H15A 9370   1.467   3.838   2.006 -0.0909  0.4730 -2.3566
   96SAPC  H15B 9371   1.606   3.771   2.090  1.7941  1.7800 -1.9448
   96SAPC  H15C 9372   1.589   3.760   1.926 -1.1561  2.9367  0.1275
   96SAPC   C11 9373   1.272   3.500   2.183  0.4520 -0.7901  0.7920
   96SAPC  H11A 9374   1.180   3.484   2.123 -0.1339 -0.4280  1.5663
   96SAPC  H11B 9375   1.232   3.529   2.282 -0.7313 -2.7710  0.9335
   96SAPC     P 9376   1.375   3.300   2.328 -0.1487 -0.0561 -0.0637
   96SAPC   O13 9377   1.445   3.174   2.291 -0.5529  0.4285 -0.1376
   96SAPC   O14 9378   1.454   3.389   2.420  0.5001  0.6797  0.0539
   96SAPC   O12 9379   1.349   3.383   2.195  0.4111  0.2237 -0.1661
   96SAPC   O11 9380   1.232   3.276   2.388  0.1636  0.0868 -0.4128
   96SAPC    C1 9381   1.155   3.366   2.465 -0.1133  0.2908  0.3956
   96SAPC    HA 9382   1.197   3.468   2.474 -1.6965  1.1129 -1.0944
   96SAPC    HB 9383   1.055   3.383   2.421  0.2642  3.6103  0.5968
   96SAPC    C2 9384   1.131   3.305   2.607 -0.3965  1.0493 -0.7849
   96SAPC    HS 9385   1.075   3.369   2.679  2.9912  1.1480  2.0305
   96SAPC   O21 9386   1.269   3.284   2.661 -0.1021  0.8216 -0.4613
   96SAPC   C21 9387   1.325   3.389   2.711 -0.1694 -0.0915  0.0899
   96SAPC   O22 9388   1.278   3.494   2.730 -0.4472  0.1805  0.1600
   96SAPC   C22 9389   1.467   3.359   2.762  0.2582 -0.8799  0.0762
   96SAPC   H2R 9390   1.531   3.350   2.672  1.0000 -1.2522  0.6288
   96SAPC   H2S 9391   1.500   3.437   2.833 -0.0869 -1.2703  0.6738
   96SAPC    C3 9392   1.064   3.164   2.605 -0.1526 -0.4204  0.0576
   96SAPC    HX 9393   1.132   3.085   2.568 -0.1760 -0.8660  0.9544
   96SAPC    HY 9394   0.972   3.170   2.542 -0.3832 -3.0476  0.0341
   96SAPC   O31 9395   1.025   3.131   2.732  0.0222  0.1768  0.3681
   96SAPC   C31 9396   0.959   3.011   2.746 -0.5160  0.3553 -0.2570
   96SAPC   O32 9397   0.908   2.950   2.657  0.1236  0.0435  0.5290
   96SAPC   C32 9398   0.986   2.957   2.882 -0.4463  0.4477  0.4568
   96SAPC   H2X 9399   1.095   2.955   2.901 -0.5040 -2.3185  0.9718
   96SAPC   H2Y 9400   0.964   2.849   2.892 -0.5071  0.5801  2.2019
   96SAPC   C23 9401   1.475   3.217   2.830  0.2926  0.7775  0.6121
   96SAPC   H3R 9402   1.584   3.200   2.828  0.4433  1.5820 -2.0045
   96SAPC   H3S 9403   1.436   3.132   2.770  0.3906  2.3874 -1.8656
   96SAPC   C24 9404   1.424   3.223   2.977 -0.0374  0.6110  0.1139
   96SAPC   H4R 9405   1.313   3.233   2.978  0.1011  2.9325 -0.6892
   96SAPC   H4S 9406   1.472   3.303   3.037 -1.1095  2.1125 -0.9392
   96SAPC   C25 9407   1.455   3.090   3.046 -0.3372  0.0567 -0.4617
   96SAPC   H5R 9408   1.563   3.071   3.036 -0.6515 -1.9284 -0.5792
   96SAPC   C26 9409   1.380   3.004   3.119  0.2661 -0.1830  0.2704
   96SAPC   H6R 9410   1.423   2.913   3.162 -1.1061 -0.9165  0.1501
   96SAPC   C27 9411   1.231   3.021   3.151 -0.0407 -0.1315  0.3294
   96SAPC   H7R 9412   1.172   2.940   3.102  0.2299 -0.5019  0.6024
   96SAPC   H7S 9413   1.192   3.113   3.103  0.8523  0.0007 -0.1558
   96SAPC   C28 9414   1.217   3.027   3.298 -0.9187  0.2883 -0.2950
   96SAPC   H8R 9415   1.258   3.122   3.334  1.5960 -0.8477  0.0492
   96SAPC   C29 9416   1.181   2.927   3.383  0.3837 -0.6022 -0.1940
   96SAPC   H9R 9417   1.195   2.937   3.492  0.4227  0.2186 -0.2641
   96SAPC  C210 9418   1.133   2.787   3.349 -0.0997 -0.4757 -0.6413
   96SAPC  H10R 9419   1.115   2.787   3.240 -1.2441  1.7942 -0.5213
   96SAPC  H10S 9420   1.037   2.773   3.405  1.0937  1.3963  2.1048
   96SAPC  C211 9421   1.246   2.691   3.382  0.0281 -0.1240  0.9452
   96SAPC  H11R 9422   1.318   2.675   3.300 -0.8165 -0.9530  0.3435
   96SAPC  C212 9423   1.253   2.629   3.501  0.2722 -0.8115  1.0855
   96SAPC  H12R 9424   1.336   2.558   3.517  0.5586 -1.0180 -1.0383
   96SAPC  C213 9425   1.166   2.643   3.620  0.0832 -0.8844 -0.0676
   96SAPC  H13R 9426   1.135   2.540   3.647  0.9454 -0.9887  0.5443
   96SAPC  H13S 9427   1.072   2.699   3.597 -1.0554 -2.1638  1.3101
   96SAPC  C214 9428   1.242   2.707   3.736 -0.3643  0.3687 -0.0115
   96SAPC  H14R 9429   1.266   2.814   3.727 -0.9752  0.4465 -0.7794
   96SAPC  C215 9430   1.259   2.646   3.855 -0.2402 -0.5823  0.6741
   96SAPC  H15R 9431   1.310   2.698   3.937 -2.8703  2.6981  0.4604
   96SAPC  C216 9432   1.215   2.500   3.886 -0.1492 -0.9616  0.0921
   96SAPC  H16R 9433   1.293   2.464   3.957  2.2901  0.5862 -1.6570
   96SAPC  H16S 9434   1.219   2.436   3.795  3.6384 -1.8474  0.7049
   96SAPC  C217 9435   1.082   2.505   3.952  0.5966  0.0667 -0.1227
   96SAPC  H17R 9436   1.051   2.401   3.977 -0.5501  0.7047  1.2376
   96SAPC  H17S 9437   1.012   2.548   3.876  0.0937 -3.7378 -2.0620
   96SAPC  C218 9438   1.080   2.584   4.085  0.0684  0.0908 -0.5888
   96SAPC  H18R 9439   1.113   2.690   4.080  0.8817 -0.0541  1.0375
   96SAPC  H18S 9440   1.147   2.545   4.165 -0.7537 -3.3142 -1.3808
   96SAPC  C219 9441   0.934   2.591   4.144  0.4663  1.3651 -0.6688
   96SAPC  H19R 9442   0.869   2.640   4.068 -0.3677  0.0316 -0.8335
   96SAPC  H19S 9443   0.932   2.657   4.233  2.1080 -0.8784  1.1302
   96SAPC  C220 9444   0.889   2.457   4.196 -0.4572  0.2914 -0.3371
   96SAPC  H20R 9445   0.965   2.414   4.265 -1.1047 -0.2744  0.0252
   96SAPC  H20S 9446   0.858   2.386   4.116  0.2111  1.0143 -1.2590
   96SAPC  H20T 9447   0.802   2.470   4.263  0.6516 -1.6183  1.6063
   96SAPC   C33 9448   0.905   3.036   2.991 -0.0099  0.1391  0.6850
   96SAPC   H3X 9449   0.925   3.144   2.980 -0.6200  0.3807  1.8445
   96SAPC   H3Y 9450   0.936   3.003   3.093 -0.8180 -0.1392  0.8476
   96SAPC   C34 9451   0.752   3.027   2.986 -0.6709  0.0618  0.9307
   96SAPC   H4X 9452   0.725   3.066   2.886  0.3166 -0.1506  0.5624
   96SAPC   H4Y 9453   0.705   3.097   3.058  0.3846  0.4456  1.2684
   96SAPC   C35 9454   0.699   2.886   3.023  0.1021 -0.4115 -0.2667
   96SAPC   H5X 9455   0.698   2.873   3.133 -1.2000  3.1805  0.3027
   96SAPC   H5Y 9456   0.768   2.806   2.989  1.8799  0.3281  1.4406
   96SAPC   C36 9457   0.560   2.869   2.957  0.1624  0.2602 -0.1737
   96SAPC   H6X 9458   0.532   2.762   2.971 -0.5418  0.7253  2.2894
   96SAPC   H6Y 9459   0.582   2.879   2.848  0.7066 -0.1510 -0.1109
   96SAPC   C37 9460   0.460   2.955   3.026  0.0468 -0.3644  0.3933
   96SAPC   H7X 9461   0.440   3.051   2.975 -3.2890 -1.0570  0.1727
   96SAPC   H7Y 9462   0.497   2.973   3.129 -2.3312  1.8720  0.9664
   96SAPC   C38 9463   0.317   2.880   3.043  0.1281 -1.0940  0.5359
   96SAPC   H8X 9464   0.333   2.780   3.086  4.0133 -0.9635 -0.2881
   96SAPC   H8Y 9465   0.263   2.855   2.949 -0.9097  0.8089  0.5563
   96SAPC   C39 9466   0.217   2.959   3.133  0.2249 -0.4409 -0.0745
   96SAPC   H9X 9467   0.179   3.042   3.069 -0.3104 -0.3416  0.3584
   96SAPC   H9Y 9468   0.281   3.006   3.210 -0.8309  0.4747  0.2745
   96SAPC  C310 9469   0.105   2.869   3.176 -0.2336  0.2717 -0.9163
   96SAPC  H10X 9470   0.131   2.827   3.276 -2.3298 -0.3357 -0.5688
   96SAPC  H10Y 9471   0.078   2.782   3.112  0.3272 -0.6191  0.0175
   96SAPC  C311 9472  -0.027   2.949   3.205  0.3897 -0.1588 -0.5850
   96SAPC  H11X 9473  -0.052   3.000   3.110 -0.1300  1.1852  0.2380
   96SAPC  H11Y 9474   0.004   3.029   3.276  2.5978  0.3375 -2.0205
   96SAPC  C312 9475  -0.144   2.860   3.261 -0.6315  0.5870  0.4833
   96SAPC  H12X 9476  -0.167   2.780   3.187 -0.1368  0.7314  0.1687
   96SAPC  H12Y 9477  -0.232   2.928   3.267  1.3402  3.2084  1.2247
   96SAPC  C313 9478  -0.129   2.800   3.399  0.3172  0.4947 -0.7482
   96SAPC  H13X 9479  -0.051   2.856   3.455  0.7498  0.7546 -1.5860
   96SAPC  H13Y 9480  -0.089   2.697   3.392 -1.3103 -0.2186 -0.0173
   96SAPC  C314 9481  -0.257   2.800   3.478  0.2072 -0.1644 -0.0204
   96SAPC  H14X 9482  -0.325   2.735   3.419 -1.8141  0.4746  1.4634
   96SAPC  H14Y 9483  -0.291   2.906   3.471 -2.0085 -0.9041 -1.5654
   96SAPC  C315 9484  -0.247   2.744   3.617  0.2354 -0.6838  0.0221
   96SAPC  H15X 9485  -0.157   2.786   3.667 -1.5378  2.7144  0.5817
   96SAPC  H15Y 9486  -0.229   2.636   3.594 -1.1865 -0.5813 -1.8119
   96SAPC  C316 9487  -0.370   2.745   3.704 -0.2753  0.0574 -0.4884
   96SAPC  H16X 9488  -0.351   2.687   3.797 -0.7959  0.1501 -0.3229
   96SAPC  H16Y 9489  -0.454   2.687   3.659  0.0928  0.4050 -1.6566
   96SAPC  C317 9490  -0.416   2.884   3.739 -0.0134 -0.3547  0.4331
   96SAPC  H17X 9491  -0.462   2.920   3.644  2.0325  0.9758 -0.1323
   96SAPC  H17Y 9492  -0.325   2.944   3.761  0.1140  0.1811 -1.3718
   96SAPC  C318 9493  -0.504   2.893   3.862 -0.1507 -0.0736 -0.9170
   96SAPC  H18X 9494  -0.452   2.873   3.958 -2.2672 -2.8609 -0.2218
   96SAPC  H18Y 9495  -0.589   2.822   3.855 -0.5416  0.2746  0.0765
   96SAPC  H18Z 9496  -0.547   2.995   3.877  0.1800 -0.0723  0.0434
   97SAPC     N 9497   6.367   2.375   2.619 -0.8399  0.6312 -0.2983
   97SAPC   C12 9498   6.349   2.510   2.691 -0.2650 -0.5626 -0.3911
   97SAPC  H12A 9499   6.292   2.583   2.636  2.8089  1.4741 -1.1325
   97SAPC  H12B 9500   6.446   2.551   2.714  0.2551 -2.3557  0.8305
   97SAPC   C13 9501   6.475   2.388   2.520  0.6509 -0.0346 -0.0115
   97SAPC  H13A 9502   6.455   2.462   2.444  1.7935  0.2911 -0.0178
   97SAPC  H13B 9503   6.567   2.414   2.570  0.8642  0.6732 -0.7395
   97SAPC  H13C 9504   6.482   2.297   2.463  0.0694 -0.8166  1.1262
   97SAPC   C14 9505   6.421   2.273   2.727 -0.1780 -0.5141  0.6078
   97SAPC  H14A 9506   6.519   2.298   2.763  0.2638 -2.8008  1.2053
   97SAPC  H14B 9507   6.349   2.253   2.806 -3.6728  0.3858 -2.0937
   97SAPC  H14C 9508   6.422   2.175   2.680 -0.1407 -1.1541  1.8912
   97SAPC   C15 9509   6.241   2.323   2.567  0.6329 -0.4016 -0.4929
   97SAPC  H15A 9510   6.240   2.226   2.519 -0.0854 -0.8458  0.3683
   97SAPC  H15B 9511   6.165   2.329   2.644  1.2632 -0.0102  0.1094
   97SAPC  H15C 9512   6.217   2.398   2.494 -1.2665  0.1041  0.5807
   97SAPC   C11 9513   6.285   2.526   2.836  0.4465 -0.4456 -0.6049
   97SAPC  H11A 9514   6.295   2.632   2.865  0.6264 -0.0256 -2.1480
   97SAPC  H11B 9515   6.344   2.466   2.909 -0.7232  0.3591  1.0746
   97SAPC     P 9516   6.046   2.571   2.772  0.1746  0.1562 -0.0365
   97SAPC   O13 9517   6.104   2.652   2.663 -0.0339 -0.0276 -0.9573
   97SAPC   O14 9518   5.935   2.487   2.721 -0.3305 -0.9151  0.3308
   97SAPC   O12 9519   6.153   2.478   2.845 -0.3737 -0.1293  0.0619
   97SAPC   O11 9520   6.001   2.673   2.873  0.5467  0.3150 -0.3848
   97SAPC    C1 9521   5.992   2.653   3.011 -0.1000  0.2878 -0.3774
   97SAPC    HA 9522   6.089   2.656   3.064 -0.1000  0.4370 -0.3834
   97SAPC    HB 9523   5.935   2.732   3.065 -1.1482 -0.7378  0.0487
   97SAPC    C2 9524   5.924   2.524   3.060  0.3133 -0.9672 -0.6272
   97SAPC    HS 9525   5.991   2.440   3.032  0.0505 -1.1771 -0.6309
   97SAPC   O21 9526   5.792   2.504   2.996  0.4219 -0.1258 -0.3741
   97SAPC   C21 9527   5.754   2.374   2.992 -0.3001 -0.7889  0.0509
   97SAPC   O22 9528   5.821   2.283   3.036 -0.0931 -0.4374  0.4632
   97SAPC   C22 9529   5.612   2.372   2.951  0.4488 -0.3046  0.1941
   97SAPC   H2R 9530   5.558   2.457   2.998  1.1226  0.9880 -1.2963
   97SAPC   H2S 9531   5.614   2.414   2.848 -2.0092 -0.1761  0.1442
   97SAPC    C3 9532   5.917   2.515   3.217  0.0838  0.4391  0.3902
   97SAPC    HX 9533   5.887   2.410   3.239 -2.9539  0.9377 -0.8350
   97SAPC    HY 9534   5.830   2.579   3.242 -0.8211 -1.1638  1.5845
   97SAPC   O31 9535   6.039   2.554   3.283  0.1612  0.2327 -0.0860
   97SAPC   C31 9536   6.134   2.456   3.278  0.3544 -0.7485  0.2203
   97SAPC   O32 9537   6.129   2.361   3.203 -0.1412  0.0599  0.1355
   97SAPC   C32 9538   6.256   2.495   3.361  0.2351  0.5757 -1.2628
   97SAPC   H2X 9539   6.243   2.579   3.433  0.5285 -1.7278  1.6665
   97SAPC   H2Y 9540   6.329   2.520   3.281  0.5675  0.0064 -1.1438
   97SAPC   C23 9541   5.530   2.244   2.947  0.7959  0.3848 -0.1579
   97SAPC   H3R 9542   5.591   2.155   2.923 -1.2518 -1.6875  1.8311
   97SAPC   H3S 9543   5.459   2.251   2.862 -0.8922  0.4749  1.2043
   97SAPC   C24 9544   5.459   2.227   3.084 -0.4670  1.0132 -0.2800
   97SAPC   H4R 9545   5.373   2.159   3.070 -0.4323  1.0610 -0.7441
   97SAPC   H4S 9546   5.412   2.323   3.115  0.5226  0.9624  1.5302
   97SAPC   C25 9547   5.551   2.173   3.191  0.5251 -0.2618  0.0062
   97SAPC   H5R 9548   5.603   2.081   3.159  0.7053 -0.5778  1.1310
   97SAPC   C26 9549   5.587   2.226   3.308 -0.3907 -0.0550 -0.5288
   97SAPC   H6R 9550   5.664   2.163   3.354 -0.1805  0.3620 -0.3037
   97SAPC   C27 9551   5.532   2.356   3.360 -0.0753 -0.4496 -0.4568
   97SAPC   H7R 9552   5.425   2.339   3.382  0.6586 -0.6328  3.6444
   97SAPC   H7S 9553   5.535   2.424   3.272  0.2782 -0.3266 -0.3517
   97SAPC   C28 9554   5.609   2.427   3.471  0.6818  0.4497 -0.7341
   97SAPC   H8R 9555   5.686   2.490   3.425  3.0110 -2.0821 -0.5906
   97SAPC   C29 9556   5.597   2.414   3.604 -0.5333 -0.4605 -0.2486
   97SAPC   H9R 9557   5.656   2.467   3.681 -0.9231 -0.3509 -0.0236
   97SAPC  C210 9558   5.495   2.325   3.674  0.6416  0.8177 -0.1859
   97SAPC  H10R 9559   5.548   2.256   3.742 -2.0837 -1.8804 -0.5480
   97SAPC  H10S 9560   5.460   2.243   3.608 -1.4597 -0.6441  2.5711
   97SAPC  C211 9561   5.371   2.400   3.712 -0.0142  0.8633 -0.6462
   97SAPC  H11R 9562   5.293   2.410   3.634  1.6180  1.0632 -2.3166
   97SAPC  C212 9563   5.345   2.449   3.837  0.0109  0.2683  0.7449
   97SAPC  H12R 9564   5.248   2.500   3.843 -0.7804 -0.6919 -2.1778
   97SAPC  C213 9565   5.424   2.426   3.968  0.8441 -0.4624  0.0996
   97SAPC  H13R 9566   5.525   2.384   3.952  0.7338 -0.7681  0.2041
   97SAPC  H13S 9567   5.374   2.346   4.026  0.1785 -1.2617 -1.5095
   97SAPC  C214 9568   5.443   2.550   4.048 -0.1758 -0.0603 -0.0316
   97SAPC  H14R 9569   5.527   2.602   4.001 -0.2408  0.6787  0.6595
   97SAPC  C215 9570   5.382   2.600   4.153  0.7939 -0.7866  0.1422
   97SAPC  H15R 9571   5.410   2.699   4.193 -2.7588 -0.3536  1.9939
   97SAPC  C216 9572   5.258   2.542   4.220  0.2576  0.2800  1.1282
   97SAPC  H16R 9573   5.201   2.478   4.151  0.9447  1.6853 -0.8333
   97SAPC  H16S 9574   5.175   2.615   4.220  0.4499  0.7541 -3.5828
   97SAPC  C217 9575   5.294   2.483   4.357  0.1744  0.5226  0.1900
   97SAPC  H17R 9576   5.369   2.544   4.412  0.5486  0.4017 -0.1807
   97SAPC  H17S 9577   5.349   2.389   4.337 -0.9087  0.3258 -2.1437
   97SAPC  C218 9578   5.173   2.445   4.449 -0.3221 -0.2241 -0.2459
   97SAPC  H18R 9579   5.200   2.346   4.490 -1.5533 -0.1645  0.7573
   97SAPC  H18S 9580   5.086   2.443   4.380 -0.2702 -0.5389 -0.3037
   97SAPC  C219 9581   5.134   2.545   4.563 -0.0526 -0.0652  0.1036
   97SAPC  H19R 9582   5.110   2.643   4.517 -1.7680  0.1013  1.2915
   97SAPC  H19S 9583   5.224   2.548   4.628 -0.7176 -2.2883  1.2096
   97SAPC  C220 9584   5.014   2.498   4.649 -0.7845 -0.2214 -0.0576
   97SAPC  H20R 9585   4.927   2.474   4.584 -1.8327 -0.3155  1.3380
   97SAPC  H20S 9586   4.989   2.582   4.716 -1.4120 -2.2055  2.3571
   97SAPC  H20T 9587   5.032   2.417   4.723 -0.4644 -0.3120 -0.2306
   97SAPC   C33 9588   6.320   2.371   3.433 -0.1401  0.1599  0.0725
   97SAPC   H3X 9589   6.401   2.399   3.504 -1.2881 -1.1524  2.0096
   97SAPC   H3Y 9590   6.360   2.313   3.347  0.1835  1.9796 -1.0498
   97SAPC   C34 9591   6.223   2.281   3.512 -0.2166 -0.4319  0.3533
   97SAPC   H4X 9592   6.284   2.200   3.557 -1.1961 -1.1601  0.3860
   97SAPC   H4Y 9593   6.147   2.235   3.446  1.7562 -2.4185 -0.6244
   97SAPC   C35 9594   6.157   2.356   3.638 -1.1060  0.0449 -0.7925
   97SAPC   H5X 9595   6.085   2.437   3.613  0.9781  2.1583 -0.2917
   97SAPC   H5Y 9596   6.238   2.408   3.694  0.9227 -2.5208 -1.1413
   97SAPC   C36 9597   6.069   2.268   3.728 -0.6309 -0.3369 -0.1063
   97SAPC   H6X 9598   6.141   2.226   3.800 -0.8148  0.0434  0.3082
   97SAPC   H6Y 9599   6.020   2.188   3.668  2.5038 -1.2533 -1.6756
   97SAPC   C37 9600   5.963   2.347   3.808 -0.5001  0.5450  0.2200
   97SAPC   H7X 9601   5.894   2.385   3.729  0.8689  0.9813 -0.7968
   97SAPC   H7Y 9602   6.000   2.429   3.874 -0.4307 -0.7113  1.7943
   97SAPC   C38 9603   5.885   2.262   3.912  0.3645 -0.3312  0.6451
   97SAPC   H8X 9604   5.949   2.193   3.971  0.1535 -0.7535  0.3869
   97SAPC   H8Y 9605   5.813   2.193   3.862 -0.0743  0.5509  0.0368
   97SAPC   C39 9606   5.814   2.346   4.010  0.2574 -0.2599 -0.2641
   97SAPC   H9X 9607   5.743   2.414   3.959  0.9954  1.3012  0.7046
   97SAPC   H9Y 9608   5.889   2.414   4.057  0.5836 -1.1837  0.5820
   97SAPC  C310 9609   5.743   2.258   4.117  0.5280 -0.4342 -0.0119
   97SAPC  H10X 9610   5.670   2.198   4.059 -1.3585  1.3205  0.4090
   97SAPC  H10Y 9611   5.683   2.326   4.182  0.3375 -1.9151  1.4242
   97SAPC  C311 9612   5.833   2.179   4.208 -0.4952  0.4027 -0.1392
   97SAPC  H11X 9613   5.857   2.082   4.160 -0.7366  0.7051 -0.8909
   97SAPC  H11Y 9614   5.769   2.149   4.293  1.3987 -5.2089 -0.2836
   97SAPC  C312 9615   5.964   2.261   4.245 -0.1867  0.2476 -0.0485
   97SAPC  H12X 9616   5.951   2.372   4.249 -0.3672  0.2106  0.5407
   97SAPC  H12Y 9617   6.039   2.243   4.166 -1.4480 -2.9884 -0.6665
   97SAPC  C313 9618   6.033   2.232   4.381 -0.1587 -0.2143  0.1614
   97SAPC  H13X 9619   5.950   2.234   4.456  0.6118  0.1099  1.0268
   97SAPC  H13Y 9620   6.106   2.309   4.415  1.5159 -2.2426  1.4441
   97SAPC  C314 9621   6.094   2.092   4.380 -0.6733  0.4354 -0.7268
   97SAPC  H14X 9622   6.172   2.100   4.301 -0.5791  0.1631 -0.6644
   97SAPC  H14Y 9623   6.021   2.012   4.357  0.0312  0.1216 -1.9496
   97SAPC  C315 9624   6.176   2.059   4.511  0.6463 -0.3211 -0.2407
   97SAPC  H15X 9625   6.175   1.948   4.505  0.8776 -0.3129 -0.4880
   97SAPC  H15Y 9626   6.124   2.081   4.607  2.0561  1.1487  0.2263
   97SAPC  C316 9627   6.318   2.111   4.533  0.2584 -0.4633 -0.2973
   97SAPC  H16X 9628   6.318   2.217   4.567  1.2151 -1.0167  1.6139
   97SAPC  H16Y 9629   6.375   2.108   4.438 -1.7902 -0.6645 -1.5918
   97SAPC  C317 9630   6.400   2.016   4.619  0.1345 -0.3187 -0.4703
   97SAPC  H17X 9631   6.359   1.914   4.603  1.4589 -1.1770  1.2504
   97SAPC  H17Y 9632   6.382   2.031   4.727  1.0677  0.5158 -0.4171
   97SAPC  C318 9633   6.555   2.029   4.605  0.0437 -0.2325 -0.5739
   97SAPC  H18X 9634   6.586   1.992   4.505 -0.0861  0.4674 -0.8752
   97SAPC  H18Y 9635   6.602   1.963   4.681 -1.8097 -1.9060 -0.7681
   97SAPC  H18Z 9636   6.595   2.131   4.620  0.4655 -0.3114 -1.1321
   98SAPC     N 9637   3.929   3.447   1.829 -0.6128 -0.7102 -0.0518
   98SAPC   C12 9638   3.916   3.445   1.978  0.2756 -0.5963  0.8304
   98SAPC  H12A 9639   4.006   3.487   2.019  2.0075 -2.3017 -0.9601
   98SAPC  H12B 9640   3.913   3.343   2.014  2.3013 -1.1036 -0.2543
   98SAPC   C13 9641   3.921   3.584   1.773  0.3412 -0.8803 -0.3660
   98SAPC  H13A 9642   3.829   3.630   1.804 -0.0778 -1.0620 -1.3210
   98SAPC  H13B 9643   3.992   3.650   1.820 -1.4997  0.8031  0.1790
   98SAPC  H13C 9644   3.929   3.574   1.666  1.7004 -0.7528 -0.2978
   98SAPC   C14 9645   4.070   3.393   1.786 -0.3165  0.2736  0.2703
   98SAPC  H14A 9646   4.142   3.461   1.831  0.7300  1.8277 -3.3570
   98SAPC  H14B 9647   4.084   3.291   1.817  2.8487  0.6401  0.4199
   98SAPC  H14C 9648   4.087   3.398   1.680  0.6956  1.1860  0.4536
   98SAPC   C15 9649   3.831   3.360   1.760  0.2852 -0.1710  0.3360
   98SAPC  H15A 9650   3.841   3.256   1.788 -0.5899 -0.0390  1.1688
   98SAPC  H15B 9651   3.728   3.386   1.782  0.4116 -1.0714  2.1469
   98SAPC  H15C 9652   3.844   3.373   1.653  0.2557 -2.0029  0.0756
   98SAPC   C11 9653   3.796   3.519   2.032  0.8532 -0.2924 -0.1316
   98SAPC  H11A 9654   3.761   3.475   2.128 -0.9205 -1.9553 -1.4748
   98SAPC  H11B 9655   3.713   3.504   1.960  0.2914  1.2265  0.1733
   98SAPC     P 9656   3.900   3.719   2.146 -0.3893 -0.0836  0.1685
   98SAPC   O13 9657   4.037   3.663   2.137  0.2376 -0.1185 -0.3463
   98SAPC   O14 9658   3.888   3.868   2.126 -0.0516 -0.0537  0.1025
   98SAPC   O12 9659   3.813   3.659   2.032  0.0945  0.2035 -0.3199
   98SAPC   O11 9660   3.827   3.667   2.276 -0.1499 -0.1941  0.1221
   98SAPC    C1 9661   3.694   3.714   2.303 -0.2647  0.1700 -0.3960
   98SAPC    HA 9662   3.696   3.825   2.301 -2.3059  0.2278 -1.5695
   98SAPC    HB 9663   3.610   3.678   2.241 -0.9725  0.8044  0.1784
   98SAPC    C2 9664   3.658   3.677   2.451  0.5841  0.8224  0.3948
   98SAPC    HS 9665   3.553   3.703   2.477  0.0295 -0.6894 -0.2228
   98SAPC   O21 9666   3.750   3.741   2.542 -0.4568  0.8663  0.7579
   98SAPC   C21 9667   3.721   3.865   2.582  0.4810  0.3358 -0.3668
   98SAPC   O22 9668   3.630   3.934   2.537 -0.0062  0.1520 -0.5685
   98SAPC   C22 9669   3.825   3.908   2.687  0.1649  0.3872  0.3759
   98SAPC   H2R 9670   3.925   3.879   2.649 -0.7033 -0.9618 -0.9674
   98SAPC   H2S 9671   3.818   4.018   2.702  2.8162  0.4566  1.5975
   98SAPC    C3 9672   3.646   3.523   2.458  0.2098  0.2220 -0.5084
   98SAPC    HX 9673   3.746   3.481   2.431 -0.3788 -1.2367 -0.5309
   98SAPC    HY 9674   3.573   3.491   2.381  1.2555 -0.3617 -1.3002
   98SAPC   O31 9675   3.595   3.489   2.593  0.6054  0.2833  0.2769
   98SAPC   C31 9676   3.657   3.401   2.670 -0.8290  0.5414 -0.1732
   98SAPC   O32 9677   3.763   3.346   2.643  0.3927 -0.3341  0.0596
   98SAPC   C32 9678   3.582   3.375   2.801  0.7500  0.1350 -0.0175
   98SAPC   H2X 9679   3.630   3.299   2.866 -0.1009 -0.9620 -0.6255
   98SAPC   H2Y 9680   3.486   3.328   2.767  0.5677  0.1137  0.5159
   98SAPC   C23 9681   3.790   3.835   2.822  0.0088 -0.1825 -0.4771
   98SAPC   H3R 9682   3.879   3.851   2.887 -2.0328 -0.2676  2.5282
   98SAPC   H3S 9683   3.785   3.725   2.809  1.1694 -0.6178  2.1625
   98SAPC   C24 9684   3.663   3.887   2.895 -0.1267  0.4282  0.6540
   98SAPC   H4R 9685   3.585   3.858   2.820 -0.1953  1.0115  0.4978
   98SAPC   H4S 9686   3.662   3.998   2.889  2.3360  0.5361  1.2274
   98SAPC   C25 9687   3.641   3.830   3.031  0.0344  0.0633 -0.2529
   98SAPC   H5R 9688   3.613   3.724   3.037 -3.8472  0.9875  0.2353
   98SAPC   C26 9689   3.618   3.894   3.150  0.2915  0.2090 -0.4697
   98SAPC   H6R 9690   3.569   3.845   3.236 -1.4341 -1.2359 -2.1973
   98SAPC   C27 9691   3.612   4.047   3.164 -0.3733 -0.2619 -0.1160
   98SAPC   H7R 9692   3.572   4.075   3.263  0.7194 -2.4415  1.0255
   98SAPC   H7S 9693   3.550   4.091   3.083 -0.6688 -0.8877 -0.2403
   98SAPC   C28 9694   3.748   4.113   3.175  0.0537  0.1116  0.0049
   98SAPC   H8R 9695   3.760   4.177   3.086 -1.1946  2.2276  1.2724
   98SAPC   C29 9696   3.839   4.102   3.276 -0.5508  0.2260 -0.0961
   98SAPC   H9R 9697   3.928   4.166   3.266 -0.1382 -0.4490 -0.9145
   98SAPC  C210 9698   3.821   4.017   3.402  0.5111  0.1944  0.1045
   98SAPC  H10R 9699   3.910   3.953   3.417 -0.4717 -0.8245  1.9997
   98SAPC  H10S 9700   3.736   3.947   3.386  2.9177 -2.4512 -2.0776
   98SAPC  C211 9701   3.818   4.121   3.516  0.4106  0.3976 -0.0252
   98SAPC  H11R 9702   3.883   4.210   3.509  0.1908  0.4350 -1.9013
   98SAPC  C212 9703   3.738   4.106   3.625  0.0814  0.2305  0.9274
   98SAPC  H12R 9704   3.743   4.184   3.702  1.1739  0.7548  0.3439
   98SAPC  C213 9705   3.638   3.989   3.648 -0.3445 -0.0353  0.0610
   98SAPC  H13R 9706   3.616   3.984   3.757  2.1633  1.9083  0.7548
   98SAPC  H13S 9707   3.687   3.901   3.601  0.8307  1.1296 -0.9796
   98SAPC  C214 9708   3.507   4.008   3.584  0.8268 -0.4352 -0.3631
   98SAPC  H14R 9709   3.505   4.087   3.508 -2.1816  0.0568  0.0845
   98SAPC  C215 9710   3.394   3.939   3.613  0.0774  0.3683  1.0135
   98SAPC  H15R 9711   3.305   3.959   3.553  0.2790  1.4639  1.0679
   98SAPC  C216 9712   3.386   3.831   3.720  0.3125 -0.2773  0.2468
   98SAPC  H16R 9713   3.485   3.800   3.759  1.3409  0.7714 -1.3594
   98SAPC  H16S 9714   3.346   3.737   3.677  0.8625 -0.8872  1.0481
   98SAPC  C217 9715   3.297   3.862   3.841  0.1634  0.5049  0.2788
   98SAPC  H17R 9716   3.191   3.853   3.808 -0.0283  0.7356  0.8099
   98SAPC  H17S 9717   3.316   3.963   3.884  2.8262  0.3149 -0.2874
   98SAPC  C218 9718   3.331   3.773   3.963 -0.0327  0.7396  0.8665
   98SAPC  H18R 9719   3.431   3.800   4.003 -0.4085  2.0138  0.9890
   98SAPC  H18S 9720   3.331   3.666   3.933 -0.3577  1.1692 -0.7303
   98SAPC  C219 9721   3.235   3.790   4.083 -0.0673  0.4850 -0.5259
   98SAPC  H19R 9722   3.128   3.767   4.061 -0.1664 -0.2193  0.6224
   98SAPC  H19S 9723   3.239   3.897   4.113  4.1406  0.1064  0.8953
   98SAPC  C220 9724   3.285   3.705   4.208 -0.0829 -0.4644  0.2350
   98SAPC  H20R 9725   3.303   3.601   4.173  2.5179  0.1224 -0.3787
   98SAPC  H20S 9726   3.204   3.713   4.284 -0.7108  2.2287 -0.5767
   98SAPC  H20T 9727   3.381   3.746   4.245 -0.1350 -0.0531 -0.0728
   98SAPC   C33 9728   3.532   3.499   2.875  0.4312 -0.4204  0.1263
   98SAPC   H3X 9729   3.502   3.573   2.797 -0.7444  0.0327  0.9897
   98SAPC   H3Y 9730   3.620   3.544   2.926 -0.9373 -0.3090  2.5294
   98SAPC   C34 9731   3.420   3.462   2.956  0.5285  0.2452 -0.3800
   98SAPC   H4X 9732   3.428   3.351   2.966 -0.6839  0.2290  0.5522
   98SAPC   H4Y 9733   3.324   3.480   2.903  0.4668  0.0958 -0.3186
   98SAPC   C35 9734   3.428   3.519   3.094 -0.3857  0.3878  0.1497
   98SAPC   H5X 9735   3.408   3.628   3.095  0.3899  0.5405  0.1543
   98SAPC   H5Y 9736   3.532   3.498   3.130  0.6818  2.9223 -1.1670
   98SAPC   C36 9737   3.329   3.453   3.190 -0.1568  0.1313 -0.1518
   98SAPC   H6X 9738   3.363   3.348   3.200 -0.5094  0.0639  0.3957
   98SAPC   H6Y 9739   3.227   3.435   3.150 -0.4375 -3.5777  1.8295
   98SAPC   C37 9740   3.325   3.527   3.326  0.2600 -0.5953 -0.4163
   98SAPC   H7X 9741   3.250   3.609   3.318  0.7020 -0.2175 -0.6935
   98SAPC   H7Y 9742   3.423   3.577   3.338 -0.4329  0.5407  0.9347
   98SAPC   C38 9743   3.285   3.433   3.438 -0.2539  0.3145 -0.4251
   98SAPC   H8X 9744   3.315   3.488   3.529 -0.1084  0.4048 -0.5268
   98SAPC   H8Y 9745   3.342   3.338   3.424 -0.0019  0.2394  1.0155
   98SAPC   C39 9746   3.139   3.400   3.444  0.0957  0.1440 -0.5765
   98SAPC   H9X 9747   3.105   3.332   3.363 -1.0543 -0.2150  0.1878
   98SAPC   H9Y 9748   3.068   3.485   3.445 -0.8683 -0.6438 -0.3209
   98SAPC  C310 9749   3.094   3.329   3.577 -0.0366  0.2178 -1.0088
   98SAPC  H10X 9750   3.149   3.233   3.584  0.4237  0.5589  0.4951
   98SAPC  H10Y 9751   2.989   3.305   3.553  0.3720 -2.0287 -0.7913
   98SAPC  C311 9752   3.096   3.423   3.704  0.0782 -0.0566 -0.2662
   98SAPC  H11X 9753   3.048   3.518   3.672  2.7447  0.9469 -1.5397
   98SAPC  H11Y 9754   3.199   3.454   3.731 -0.9232  1.2379  2.4748
   98SAPC  C312 9755   3.034   3.370   3.833  0.2249 -0.2905  0.1634
   98SAPC  H12X 9756   3.080   3.272   3.856  0.7153 -0.7154 -2.3913
   98SAPC  H12Y 9757   2.929   3.349   3.801  0.2374  0.8615 -0.7178
   98SAPC  C313 9758   3.024   3.470   3.950  0.3586 -0.2357  0.1526
   98SAPC  H13X 9759   2.967   3.562   3.926 -2.9180 -1.7148  1.6185
   98SAPC  H13Y 9760   3.128   3.502   3.974  0.2814  0.9276 -0.9925
   98SAPC  C314 9761   2.974   3.412   4.073  0.2218  0.2942 -0.6909
   98SAPC  H14X 9762   3.030   3.319   4.097 -1.5515 -0.5497  0.4188
   98SAPC  H14Y 9763   2.869   3.382   4.058 -0.0069 -0.0116  1.2868
   98SAPC  C315 9764   2.987   3.496   4.196 -0.4453 -0.2032 -0.8051
   98SAPC  H15X 9765   2.954   3.602   4.188  2.7193  0.9989  0.5072
   98SAPC  H15Y 9766   3.090   3.507   4.235 -0.9714 -0.5563  0.7505
   98SAPC  C316 9767   2.912   3.435   4.318 -0.4451 -0.5461  0.2620
   98SAPC  H16X 9768   2.952   3.337   4.352 -2.1054 -0.7012  1.9299
   98SAPC  H16Y 9769   2.803   3.425   4.295 -0.1495 -1.9825 -0.6751
   98SAPC  C317 9770   2.899   3.506   4.456  0.4643 -0.4699  0.2437
   98SAPC  H17X 9771   2.894   3.421   4.527 -2.8213  0.0511  0.8427
   98SAPC  H17Y 9772   2.801   3.558   4.464  0.1641 -1.1343  1.0584
   98SAPC  C318 9773   3.007   3.614   4.502 -0.4332 -0.4570  0.4445
   98SAPC  H18X 9774   3.105   3.565   4.519  0.8727  1.2433 -1.6146
   98SAPC  H18Y 9775   2.976   3.670   4.593 -2.1276  0.9380 -0.9086
   98SAPC  H18Z 9776   3.019   3.691   4.422 -1.2450 -1.8018 -1.0224
   99SAPC     N 9777   0.122   5.989   2.208  0.0142  0.4783  0.5097
   99SAPC   C12 9778   0.152   5.924   2.343 -0.0580  0.2922  0.3462
   99SAPC  H12A 9779   0.240   5.861   2.334 -1.1835 -1.9947  3.6561
   99SAPC  H12B 9780   0.075   5.852   2.367 -1.1741  1.7405  1.2258
   99SAPC   C13 9781  -0.009   6.059   2.213 -0.2137  0.1085  0.6988
   99SAPC  H13A 9782  -0.086   5.984   2.221 -0.1793 -0.1069 -0.7370
   99SAPC  H13B 9783  -0.016   6.126   2.298 -0.5119  0.5921  0.2995
   99SAPC  H13C 9784  -0.026   6.122   2.127  1.0838 -1.5997 -0.8958
   99SAPC   C14 9785   0.225   6.098   2.178  0.4671  0.2030  0.7182
   99SAPC  H14A 9786   0.214   6.131   2.076  0.5309 -2.1005 -0.0955
   99SAPC  H14B 9787   0.211   6.183   2.243 -2.8257 -0.1664  0.6824
   99SAPC  H14C 9788   0.323   6.058   2.200  0.4381  0.6582  1.7198
   99SAPC   C15 9789   0.133   5.886   2.095 -0.6860  0.3434 -0.2810
   99SAPC  H15A 9790   0.056   5.811   2.110 -0.4309  0.1536  0.0756
   99SAPC  H15B 9791   0.108   5.929   1.999 -1.8000  2.2270  0.7908
   99SAPC  H15C 9792   0.226   5.831   2.092 -0.0137  1.4498 -0.2007
   99SAPC   C11 9793   0.168   6.008   2.468  0.3413 -0.2382  0.0172
   99SAPC  H11A 9794   0.158   5.942   2.558 -0.0293 -0.3537 -0.1078
   99SAPC  H11B 9795   0.086   6.082   2.457  1.6173  0.9792 -1.7899
   99SAPC     P 9796   0.421   6.023   2.508 -0.1424 -0.2862  0.1412
   99SAPC   O13 9797   0.406   5.873   2.495 -0.3938  0.5112  0.0516
   99SAPC   O14 9798   0.533   6.089   2.443 -0.9660 -0.5574  0.1802
   99SAPC   O12 9799   0.291   6.080   2.453 -0.3955  0.1451  0.0483
   99SAPC   O11 9800   0.420   6.061   2.660 -0.0931 -0.7286 -0.1943
   99SAPC    C1 9801   0.342   6.173   2.707 -0.7105  0.6608 -0.3192
   99SAPC    HA 9802   0.232   6.161   2.696 -0.6475 -1.8462  1.1425
   99SAPC    HB 9803   0.356   6.181   2.817  2.2151  1.0743 -0.6595
   99SAPC    C2 9804   0.384   6.312   2.658 -0.1998  0.4891  0.0333
   99SAPC    HS 9805   0.393   6.315   2.547 -3.9307 -2.5586 -0.5854
   99SAPC   O21 9806   0.509   6.345   2.731 -0.0113  0.0675  0.7620
   99SAPC   C21 9807   0.583   6.431   2.666 -0.0126  0.1295 -0.7081
   99SAPC   O22 9808   0.560   6.476   2.554 -0.3293 -0.1699  0.6754
   99SAPC   C22 9809   0.703   6.456   2.756  0.1946  0.4176 -0.5610
   99SAPC   H2R 9810   0.666   6.451   2.860 -1.8330  0.6645 -1.2283
   99SAPC   H2S 9811   0.781   6.376   2.755  0.8499  1.0347  0.0045
   99SAPC    C3 9812   0.278   6.421   2.684  0.2029 -0.7876  0.4416
   99SAPC    HX 9813   0.196   6.406   2.610 -0.7104  0.2265  1.2034
   99SAPC    HY 9814   0.318   6.520   2.654 -0.9337 -0.5651 -0.4403
   99SAPC   O31 9815   0.217   6.419   2.817 -0.1739 -0.1507 -0.4884
   99SAPC   C31 9816   0.254   6.522   2.903  1.0355 -0.0688  0.4210
   99SAPC   O32 9817   0.323   6.615   2.874  0.3015  0.0178 -0.6324
   99SAPC   C32 9818   0.177   6.509   3.029  0.5465  0.4468  0.7854
   99SAPC   H2X 9819   0.184   6.400   3.049  0.9827  0.3663  0.2343
   99SAPC   H2Y 9820   0.076   6.551   3.013  0.8152  0.4745 -1.0473
   99SAPC   C23 9821   0.784   6.586   2.737 -0.2911 -0.0179  0.2038
   99SAPC   H3R 9822   0.720   6.673   2.763  1.0346  0.7589  0.9773
   99SAPC   H3S 9823   0.819   6.596   2.632  0.2312  1.5426  0.4957
   99SAPC   C24 9824   0.913   6.601   2.822 -0.4716  0.4622  1.0488
   99SAPC   H4R 9825   0.966   6.509   2.789 -3.0577 -1.1894  1.1762
   99SAPC   H4S 9826   0.885   6.593   2.930 -3.9669 -0.9626  0.1602
   99SAPC   C25 9827   0.990   6.720   2.771  0.1321  0.4666  0.3811
   99SAPC   H5R 9828   0.987   6.730   2.661  0.2229 -0.3771  0.2951
   99SAPC   C26 9829   1.062   6.813   2.827  0.1016 -0.4176 -0.2317
   99SAPC   H6R 9830   1.117   6.892   2.775  2.1910 -1.4323  0.3135
   99SAPC   C27 9831   1.092   6.822   2.975 -0.6061  0.6814 -0.3829
   99SAPC   H7R 9832   1.200   6.807   2.996 -0.8784  0.4950  0.9876
   99SAPC   H7S 9833   1.039   6.747   3.038 -1.3676 -0.1766 -1.9878
   99SAPC   C28 9834   1.064   6.958   3.034 -0.0086 -0.7817 -0.9929
   99SAPC   H8R 9835   1.004   7.023   2.969  1.8707  0.7489 -1.2787
   99SAPC   C29 9836   1.102   7.003   3.155  0.4546 -0.2389 -0.1547
   99SAPC   H9R 9837   1.057   7.094   3.198  2.4326  0.2116  1.1035
   99SAPC  C210 9838   1.199   6.931   3.252  0.3554 -0.0125 -0.3487
   99SAPC  H10R 9839   1.284   6.878   3.205  0.6820 -1.3504  1.6568
   99SAPC  H10S 9840   1.144   6.849   3.303  2.0462 -1.5182 -0.8331
   99SAPC  C211 9841   1.255   7.024   3.352 -0.3321  0.0831  0.5135
   99SAPC  H11R 9842   1.329   7.094   3.311 -0.3391  0.5719  1.3048
   99SAPC  C212 9843   1.221   7.027   3.483 -0.5527  0.3016  0.4061
   99SAPC  H12R 9844   1.272   7.108   3.538 -2.6176 -0.1338  3.1799
   99SAPC  C213 9845   1.114   6.951   3.568 -0.3385  0.0091 -0.0840
   99SAPC  H13R 9846   1.103   6.849   3.526 -0.4346 -0.4908  1.1128
   99SAPC  H13S 9847   1.014   6.996   3.555 -0.2813 -0.0970 -0.9328
   99SAPC  C214 9848   1.157   6.935   3.712  0.2455 -0.3405  0.0825
   99SAPC  H14R 9849   1.176   6.830   3.738  2.1770 -0.6817 -2.3467
   99SAPC  C215 9850   1.166   7.034   3.800 -0.2156  0.1432 -0.2884
   99SAPC  H15R 9851   1.203   7.007   3.900 -1.4530  2.8950  1.0285
   99SAPC  C216 9852   1.133   7.180   3.779  0.0583 -0.1246 -0.2334
   99SAPC  H16R 9853   1.095   7.198   3.676  1.7758 -0.2730 -0.9400
   99SAPC  H16S 9854   1.224   7.243   3.790  0.8915 -1.3503  0.1276
   99SAPC  C217 9855   1.026   7.238   3.876 -0.3547 -0.4408  0.7360
   99SAPC  H17R 9856   1.023   7.347   3.855  1.1744 -0.1491  1.8338
   99SAPC  H17S 9857   1.060   7.224   3.981  1.0522  1.2965  0.5693
   99SAPC  C218 9858   0.891   7.183   3.842 -0.4951  0.6044 -0.2215
   99SAPC  H18R 9859   0.894   7.072   3.846  0.7886  0.5974 -0.6822
   99SAPC  H18S 9860   0.865   7.206   3.737 -0.3055  2.7268  0.1528
   99SAPC  C219 9861   0.786   7.219   3.943 -0.2546 -0.2097 -0.1191
   99SAPC  H19R 9862   0.770   7.328   3.930 -1.3661 -0.5186 -1.7058
   99SAPC  H19S 9863   0.822   7.211   4.048 -1.5576  2.9699  0.6825
   99SAPC  C220 9864   0.656   7.149   3.919 -0.6992 -0.9695  0.0654
   99SAPC  H20R 9865   0.661   7.108   3.816  3.4796 -0.5642 -0.0500
   99SAPC  H20S 9866   0.562   7.206   3.935 -1.9678 -3.3099  1.5090
   99SAPC  H20T 9867   0.641   7.052   3.972 -4.3112 -0.9061 -0.5483
   99SAPC   C33 9868   0.260   6.584   3.137  0.6663 -0.6717 -0.1704
   99SAPC   H3X 9869   0.249   6.695   3.133 -1.2178 -0.8683 -2.1885
   99SAPC   H3Y 9870   0.368   6.567   3.117  0.6400 -0.4945 -0.4711
   99SAPC   C34 9871   0.243   6.538   3.285 -0.4075  0.5607 -0.0163
   99SAPC   H4X 9872   0.312   6.600   3.346  0.9093 -0.5945 -0.2657
   99SAPC   H4Y 9873   0.270   6.431   3.302  0.0502  0.6089 -0.4207
   99SAPC   C35 9874   0.095   6.545   3.343 -0.3530  0.1324  0.2061
   99SAPC   H5X 9875   0.025   6.487   3.279 -0.9213  0.7768  0.2418
   99SAPC   H5Y 9876   0.060   6.650   3.341  0.3838  0.3911  0.3881
   99SAPC   C36 9877   0.073   6.498   3.492  0.7086 -0.0673 -0.0937
   99SAPC   H6X 9878   0.083   6.389   3.510  0.2139 -0.1403 -0.2487
   99SAPC   H6Y 9879  -0.031   6.520   3.527 -0.5451 -1.2300 -2.7875
   99SAPC   C37 9880   0.168   6.571   3.589 -0.0246 -0.1127 -1.4217
   99SAPC   H7X 9881   0.155   6.680   3.571  2.6164  0.2397 -1.5026
   99SAPC   H7Y 9882   0.277   6.550   3.582  0.1055  0.6727 -1.8516
   99SAPC   C38 9883   0.131   6.535   3.734 -0.7423  0.0069  0.3366
   99SAPC   H8X 9884   0.143   6.426   3.751  1.1241  0.1180 -0.0878
   99SAPC   H8Y 9885   0.028   6.572   3.755 -0.7726 -1.1887  2.6696
   99SAPC   C39 9886   0.231   6.588   3.840 -0.0962 -0.0856 -0.6202
   99SAPC   H9X 9887   0.244   6.697   3.825  1.3927 -0.3021 -0.9963
   99SAPC   H9Y 9888   0.329   6.543   3.813  0.2416 -0.2022  0.7365
   99SAPC  C310 9889   0.208   6.544   3.985  0.5464 -0.0179 -0.2365
   99SAPC  H10X 9890   0.192   6.435   4.002  0.1078  0.1907  0.7388
   99SAPC  H10Y 9891   0.108   6.591   3.999  0.7846  0.9746 -1.6684
   99SAPC  C311 9892   0.318   6.598   4.082 -0.5027  0.4325 -0.1253
   99SAPC  H11X 9893   0.307   6.709   4.077 -1.6054  0.3758  0.6435
   99SAPC  H11Y 9894   0.422   6.564   4.061 -0.3892  0.7432 -0.0716
   99SAPC  C312 9895   0.292   6.560   4.232 -0.0826 -0.0069  0.0561
   99SAPC  H12X 9896   0.377   6.575   4.301  1.3091 -3.4180 -0.7210
   99SAPC  H12Y 9897   0.274   6.450   4.235  0.9228 -0.2580 -2.0502
   99SAPC  C313 9898   0.173   6.643   4.284  0.0558  0.1508  0.0215
   99SAPC  H13X 9899   0.079   6.601   4.242 -0.1726  0.9994 -0.3360
   99SAPC  H13Y 9900   0.179   6.750   4.254  1.6829  0.8037  2.3913
   99SAPC  C314 9901   0.162   6.637   4.432 -0.0340 -0.1478  0.1946
   99SAPC  H14X 9902   0.261   6.653   4.478  0.4158  0.7896 -1.0447
   99SAPC  H14Y 9903   0.119   6.542   4.471  0.7017 -0.5560  0.0326
   99SAPC  C315 9904   0.077   6.747   4.504  0.2002  1.4442  0.1888
   99SAPC  H15X 9905  -0.028   6.724   4.476  0.9751 -0.3396 -1.5238
   99SAPC  H15Y 9906   0.107   6.845   4.462 -1.3266  0.9868 -2.1404
   99SAPC  C316 9907   0.082   6.733   4.652 -0.3908  0.3624  0.0103
   99SAPC  H16X 9908   0.185   6.767   4.678  0.3542 -0.8165 -1.2482
   99SAPC  H16Y 9909   0.067   6.634   4.700  3.1437 -0.5698 -0.4955
   99SAPC  C317 9910  -0.003   6.841   4.713 -0.1479 -0.2569 -0.1502
   99SAPC  H17X 9911  -0.012   6.925   4.640 -1.3329 -0.0132  0.2413
   99SAPC  H17Y 9912   0.038   6.878   4.809 -0.4957 -1.3657  0.4420
   99SAPC  C318 9913  -0.151   6.792   4.743  0.3552  0.0879 -0.4186
   99SAPC  H18X 9914  -0.209   6.863   4.806 -1.1915 -1.1424 -0.3790
   99SAPC  H18Y 9915  -0.150   6.691   4.791  0.5122 -0.5654 -1.7600
   99SAPC  H18Z 9916  -0.215   6.795   4.653 -1.2427  2.5607  0.6896
  100SAPC     N 9917   5.562   6.172   2.428 -0.2191 -0.2302 -0.2310
  100SAPC   C12 9918   5.638   6.061   2.367  0.4970  0.2586  0.6448
  100SAPC  H12A 9919   5.658   6.084   2.264 -0.7008  0.3234  0.4147
  100SAPC  H12B 9920   5.581   5.969   2.364 -0.4945  0.8038  1.8136
  100SAPC   C13 9921   5.438   6.196   2.353  0.1826  0.1545  0.1721
  100SAPC  H13A 9922   5.454   6.242   2.257 -1.6583 -1.5553 -1.0343
  100SAPC  H13B 9923   5.379   6.108   2.330  0.7739  0.1495 -1.4671
  100SAPC  H13C 9924   5.382   6.269   2.410  1.0852  0.2050  1.0187
  100SAPC   C14 9925   5.535   6.158   2.577  0.1599  0.6448  0.6283
  100SAPC  H14A 9926   5.475   6.241   2.612 -1.2810 -0.3645  0.6830
  100SAPC  H14B 9927   5.478   6.066   2.585  1.0462  0.0241 -0.0420
  100SAPC  H14C 9928   5.620   6.150   2.643 -0.7500 -2.7689  1.6447
  100SAPC   C15 9929   5.644   6.295   2.414  0.2655 -0.5876 -0.4117
  100SAPC  H15A 9930   5.723   6.291   2.488  0.0773 -0.3500 -0.1996
  100SAPC  H15B 9931   5.687   6.296   2.315 -0.4333  0.5928 -0.7236
  100SAPC  H15C 9932   5.594   6.390   2.419 -0.1294 -0.6996 -1.8539
  100SAPC   C11 9933   5.774   6.029   2.420 -0.3540 -0.2031  0.0433
  100SAPC  H11A 9934   5.763   5.965   2.510  1.1479 -0.8591 -0.2223
  100SAPC  H11B 9935   5.835   6.115   2.457  0.7816 -1.3362  0.8702
  100SAPC     P 9936   5.823   5.815   2.270  0.1866 -0.3010 -0.2431
  100SAPC   O13 9937   5.679   5.796   2.231  0.4414 -0.1448  0.2826
  100SAPC   O14 9938   5.917   5.784   2.162 -0.2461  0.1864  0.3394
  100SAPC   O12 9939   5.847   5.967   2.319 -0.6723  0.3337  0.3879
  100SAPC   O11 9940   5.869   5.743   2.401 -0.2445  0.2675 -0.3116
  100SAPC    C1 9941   5.792   5.634   2.460  0.5703 -0.0387  0.6437
  100SAPC    HA 9942   5.737   5.583   2.378  1.4295  2.0013 -1.3104
  100SAPC    HB 9943   5.865   5.554   2.485  0.0074 -1.3743 -1.6524
  100SAPC    C2 9944   5.706   5.670   2.584  0.5618  0.3298  0.1944
  100SAPC    HS 9945   5.614   5.724   2.553 -0.7035 -1.9089 -0.2019
  100SAPC   O21 9946   5.782   5.743   2.681 -0.2129 -0.1405  0.0037
  100SAPC   C21 9947   5.714   5.829   2.752  0.4487 -0.4256 -0.6018
  100SAPC   O22 9948   5.597   5.872   2.733  0.1773  0.4165  0.4302
  100SAPC   C22 9949   5.796   5.875   2.868 -0.0294 -0.4802 -0.2296
  100SAPC   H2R 9950   5.832   5.785   2.921  0.0921 -0.2273  0.1195
  100SAPC   H2S 9951   5.874   5.942   2.824 -0.6599 -0.5859 -1.5625
  100SAPC    C3 9952   5.664   5.534   2.650  0.2993  0.5481  0.3768
  100SAPC    HX 9953   5.738   5.471   2.704  0.4406 -1.3492 -1.8411
  100SAPC    HY 9954   5.628   5.475   2.563  0.1040  2.7092 -1.0909
  100SAPC   O31 9955   5.568   5.546   2.754 -0.1231  0.0312  0.0748
  100SAPC   C31 9956   5.447   5.582   2.711  0.9353  0.2864  0.7391
  100SAPC   O32 9957   5.415   5.588   2.594 -0.2561  0.1592  0.4914
  100SAPC   C32 9958   5.360   5.626   2.825  0.2592  0.6014 -0.0373
  100SAPC   H2X 9959   5.257   5.601   2.790 -0.1788  0.1045  1.5263
  100SAPC   H2Y 9960   5.375   5.736   2.827  1.8381  0.3896  1.6681
  100SAPC   C23 9961   5.737   5.972   2.982  0.3358 -0.7556 -0.4877
  100SAPC   H3R 9962   5.690   6.051   2.920  1.0240  0.3461  0.3521
  100SAPC   H3S 9963   5.813   6.030   3.039  0.2269  1.2596 -2.2719
  100SAPC   C24 9964   5.641   5.894   3.069 -0.5410  0.0546  0.1570
  100SAPC   H4R 9965   5.703   5.828   3.133 -1.4098 -0.2430  0.7106
  100SAPC   H4S 9966   5.575   5.831   3.005  1.5752 -0.7925 -1.3246
  100SAPC   C25 9967   5.561   5.988   3.155  0.8082  0.2665  0.4069
  100SAPC   H5R 9968   5.467   6.028   3.114  1.1671 -0.0404 -0.7827
  100SAPC   C26 9969   5.593   6.021   3.280  0.2391  0.7645  0.2920
  100SAPC   H6R 9970   5.524   6.095   3.325 -2.0938  0.0841 -1.9269
  100SAPC   C27 9971   5.710   5.976   3.359 -0.7783  0.6651 -0.1954
  100SAPC   H7R 9972   5.788   5.978   3.280 -0.2595  0.3680  0.3085
  100SAPC   H7S 9973   5.690   5.870   3.383  0.7737  0.6717  1.3720
  100SAPC   C28 9974   5.741   6.059   3.478 -0.0344  0.2826 -0.4141
  100SAPC   H8R 9975   5.788   6.157   3.459  1.1616 -0.4755 -1.5036
  100SAPC   C29 9976   5.739   6.029   3.615 -0.2284 -0.4135 -0.0696
  100SAPC   H9R 9977   5.754   6.109   3.689  0.8507  0.1393 -0.8524
  100SAPC  C210 9978   5.695   5.897   3.674  1.0179  0.7449  0.1409
  100SAPC  H10R 9979   5.658   5.833   3.591 -1.1336  1.6687  0.3159
  100SAPC  H10S 9980   5.608   5.909   3.743  1.0076 -0.2847  0.3216
  100SAPC  C211 9981   5.805   5.827   3.746  0.3218 -0.4631 -0.1325
  100SAPC  H11R 9982   5.900   5.812   3.691 -0.8955 -0.3249 -2.3725
  100SAPC  C212 9983   5.796   5.756   3.860 -0.1400 -0.6064  0.8746
  100SAPC  H12R 9984   5.887   5.720   3.910  1.0494  0.5173 -0.3847
  100SAPC  C213 9985   5.672   5.755   3.945  0.1341  0.0581 -0.4063
  100SAPC  H13R 9986   5.580   5.747   3.882 -1.0371  0.6907  1.1501
  100SAPC  H13S 9987   5.668   5.846   4.008  0.8326  0.4246 -0.8783
  100SAPC  C214 9988   5.684   5.632   4.035  0.1267  0.1701  0.0183
  100SAPC  H14R 9989   5.677   5.537   3.979 -1.7461 -0.1915  0.7810
  100SAPC  C215 9990   5.689   5.625   4.170  0.2362 -0.8725 -0.0008
  100SAPC  H15R 9991   5.686   5.524   4.215 -3.3753 -0.9725 -0.2035
  100SAPC  C216 9992   5.695   5.737   4.273  0.5824  0.5219  0.1585
  100SAPC  H16R 9993   5.622   5.739   4.356  1.9123  2.8888  1.3582
  100SAPC  H16S 9994   5.671   5.834   4.226 -0.0387  0.0126 -0.5991
  100SAPC  C217 9995   5.829   5.738   4.346  0.2703 -0.2404  0.2708
  100SAPC  H17R 9996   5.830   5.842   4.385  0.4645 -0.2007  0.1604
  100SAPC  H17S 9997   5.912   5.729   4.272  0.4517 -0.3185  0.4849
  100SAPC  C218 9998   5.850   5.628   4.449  0.6071  0.4239  0.0965
  100SAPC  H18R 9999   5.857   5.526   4.405  1.0143 -0.2448  1.6510
  100SAPC  H18S10000   5.757   5.621   4.510  1.5466  0.3639  1.5908
  100SAPC  C21910001   5.965   5.661   4.543  0.3386 -0.4710 -0.3990
  100SAPC  H19R10002   5.971   5.766   4.581  1.4320 -0.6602  0.0079
  100SAPC  H19S10003   6.056   5.644   4.482  0.3363  0.4046 -0.6632
  100SAPC  C22010004   5.961   5.569   4.661 -0.8358  0.2688 -0.6097
  100SAPC  H20R10005   5.979   5.464   4.632 -0.9164  0.1250 -0.1464
  100SAPC  H20S10006   5.866   5.576   4.720  0.0658  0.2791  0.9032
  100SAPC  H20T10007   6.043   5.590   4.733 -1.2101 -2.6527  0.8326
  100SAPC   C3310008   5.393   5.567   2.969 -0.0866  0.5551  1.5485
  100SAPC   H3X10009   5.500   5.594   2.975  0.3398 -0.6905  0.1346
  100SAPC   H3Y10010   5.389   5.457   2.964 -1.5781  0.6241 -1.0558
  100SAPC   C3410011   5.313   5.627   3.075  0.2252 -0.4521 -0.2599
  100SAPC   H4X10012   5.205   5.601   3.074  0.0138  0.3896  0.0085
  100SAPC   H4Y10013   5.314   5.738   3.069 -2.4817 -0.3973 -1.1334
  100SAPC   C3510014   5.370   5.582   3.208  0.2249  0.0591 -0.0671
  100SAPC   H5X10015   5.478   5.607   3.202 -0.2806  2.0527 -2.6953
  100SAPC   H5Y10016   5.356   5.473   3.220 -0.8549  0.3686  1.9772
  100SAPC   C3610017   5.297   5.653   3.325  0.3038 -0.1961 -0.6881
  100SAPC   H6X10018   5.192   5.672   3.295  0.1904  0.7554  0.2568
  100SAPC   H6Y10019   5.344   5.749   3.357 -1.4304  0.6673 -0.6169
  100SAPC   C3710020   5.293   5.567   3.450 -0.1550  0.1799 -0.1231
  100SAPC   H7X10021   5.392   5.560   3.500 -0.3357  1.6934  0.4944
  100SAPC   H7Y10022   5.267   5.463   3.419 -1.4831  0.1545  0.9498
  100SAPC   C3810023   5.187   5.603   3.561  0.1908  0.0540  0.0069
  100SAPC   H8X10024   5.090   5.588   3.509  0.8857  0.8666 -1.6004
  100SAPC   H8Y10025   5.191   5.714   3.569 -1.9002  0.4168 -2.5894
  100SAPC   C3910026   5.196   5.528   3.700  0.6117 -0.1653 -0.1524
  100SAPC   H9X10027   5.233   5.423   3.701 -0.9617 -0.7394 -0.2196
  100SAPC   H9Y10028   5.093   5.528   3.742  1.1407 -2.1770  1.3216
  100SAPC  C31010029   5.267   5.609   3.813  0.3852 -0.0303 -0.4367
  100SAPC  H10X10030   5.212   5.705   3.805  0.3267 -0.0457 -0.2323
  100SAPC  H10Y10031   5.372   5.643   3.797 -0.1848  2.0742 -0.0301
  100SAPC  C31110032   5.230   5.541   3.947 -0.1711  0.3129  0.8844
  100SAPC  H11X10033   5.300   5.460   3.976 -0.2065  0.5384  1.6268
  100SAPC  H11Y10034   5.122   5.514   3.947 -0.6719  2.1208  1.9990
  100SAPC  C31210035   5.250   5.649   4.062 -0.0174 -0.1814  1.0609
  100SAPC  H12X10036   5.167   5.722   4.050  2.1003  2.0353 -1.5986
  100SAPC  H12Y10037   5.343   5.710   4.054  0.6472 -1.0316  2.0863
  100SAPC  C31310038   5.249   5.593   4.204 -0.0836  0.2483 -0.2843
  100SAPC  H13X10039   5.328   5.515   4.199 -0.3144  0.0198 -0.3618
  100SAPC  H13Y10040   5.147   5.554   4.225  0.8332 -1.1281  1.9699
  100SAPC  C31410041   5.270   5.700   4.321  0.5976  0.6058 -0.0962
  100SAPC  H14X10042   5.218   5.792   4.285 -0.2644 -0.3235 -1.3115
  100SAPC  H14Y10043   5.378   5.724   4.322  0.8639 -0.5635 -0.1173
  100SAPC  C31510044   5.227   5.657   4.457 -0.4004  0.1151  0.4018
  100SAPC  H15X10045   5.304   5.583   4.488  1.9452  1.3303 -2.1220
  100SAPC  H15Y10046   5.124   5.614   4.457 -0.4109  0.1240  1.1191
  100SAPC  C31610047   5.219   5.771   4.561 -0.1279  0.6054 -0.2102
  100SAPC  H16X10048   5.166   5.859   4.520  1.0888  1.1905 -0.5509
  100SAPC  H16Y10049   5.323   5.795   4.593  0.0471 -0.7390  0.3063
  100SAPC  C31710050   5.147   5.722   4.687  1.3679  0.1591 -0.1388
  100SAPC  H17X10051   5.198   5.635   4.732  0.4787 -0.1225  0.3401
  100SAPC  H17Y10052   5.046   5.693   4.651  1.5610 -0.1632 -0.4272
  100SAPC  C31810053   5.140   5.826   4.803 -0.1241  0.1769 -0.0322
  100SAPC  H18X10054   5.246   5.838   4.835  0.2041  1.3862 -1.4457
  100SAPC  H18Y10055   5.083   5.784   4.888  0.4659 -0.1358  0.2133
  100SAPC  H18Z10056   5.088   5.921   4.777 -0.2969 -0.1507 -0.9312
  101OSM      N10057   2.548   5.722   7.206  0.2154 -0.1890  0.4837
  101OSM    C1510058   2.577   5.633   7.324 -0.5750  0.0914 -0.2358
  101OSM   H15A10059   2.560   5.530   7.300  0.7584  0.1892 -1.7768
  101OSM   H15B10060   2.520   5.664   7.411 -0.7346 -1.8058  0.3700
  101OSM   H15C10061   2.682   5.636   7.350 -1.3625  1.7294  3.5469
  101OSM    C1410062   2.391   5.725   7.198 -0.7477  0.5154 -0.3406
  101OSM   H14A10063   2.360   5.807   7.134  2.1300  1.2737 -0.9301
  101OSM   H14B10064   2.358   5.754   7.296 -0.7833  2.1435 -0.8004
  101OSM   H14C10065   2.355   5.633   7.154 -2.7286  1.0610  0.0346
  101OSM    C1310066   2.610   5.854   7.210  1.1944  0.5463  0.7634
  101OSM   H13A10067   2.717   5.853   7.197  1.4166 -0.3137  2.4345
  101OSM   H13B10068   2.586   5.896   7.306 -2.8123  0.3129  0.0112
  101OSM   H13C10069   2.569   5.916   7.131  0.0741 -0.4611  0.5318
  101OSM    C1210070   2.599   5.658   7.078 -0.6920 -0.1007 -0.7072
  101OSM   H12A10071   2.561   5.557   7.079  1.7469 -1.1083 -1.6682
  101OSM   H12B10072   2.706   5.648   7.086 -0.2499  2.1988 -2.6184
  101OSM    C1110073   2.571   5.728   6.943 -0.1790 -0.4010  0.3142
  101OSM   H11A10074   2.634   5.681   6.864 -2.1847  0.1859 -1.7354
  101OSM   H11B10075   2.604   5.834   6.943 -1.0567 -0.1124  1.3593
  101OSM      P10076   2.365   5.578   6.870  0.5175  0.4380 -0.0144
  101OSM    O1310077   2.414   5.466   6.963  0.4756 -0.0248 -0.6272
  101OSM    O1410078   2.220   5.587   6.848  0.1097  0.4420 -0.2346
  101OSM    O1110079   2.427   5.564   6.722 -1.0031  0.0935  0.0421
  101OSM    O1210080   2.434   5.715   6.915 -0.1193  0.7599 -0.0558
  101OSM    C1S10081   2.427   5.427   6.668 -1.0452 -0.0313  0.0115
  101OSM    H1S10082   2.342   5.369   6.709  0.0927 -1.8450 -0.0619
  101OSM    H1T10083   2.522   5.372   6.685  0.4591  1.9409 -1.4162
  101OSM     NF10084   2.378   5.291   6.459  0.4665 -0.2084 -0.0769
  101OSM    HNF10085   2.443   5.232   6.412 -1.2918  0.6375 -3.9808
  101OSM    C2S10086   2.424   5.422   6.511  0.6711  0.0798  0.0586
  101OSM    H2S10087   2.354   5.497   6.470  0.7998 -1.2937 -2.9257
  101OSM    C3S10088   2.565   5.465   6.461 -0.1252  0.7817 -0.6166
  101OSM    H3S10089   2.638   5.388   6.492 -1.0655 -0.3378 -1.1006
  101OSM     O310090   2.613   5.581   6.521  0.2823 -0.2251  0.2949
  101OSM    HO310091   2.562   5.598   6.601  1.3974  0.4521  0.8912
  101OSM    C4S10092   2.555   5.474   6.311 -0.0957  0.4421  0.1138
  101OSM    H4S10093   2.458   5.498   6.265  0.8029  2.5610 -0.7841
  101OSM    C5S10094   2.656   5.448   6.224 -0.1479  0.7683  0.3234
  101OSM    H5S10095   2.752   5.417   6.269 -0.8828  0.5437  1.7872
  101OSM    C6S10096   2.643   5.455   6.074 -0.8579 -0.1654 -0.2676
  101OSM    H6S10097   2.725   5.512   6.026  2.4014 -2.8942  1.6144
  101OSM    H6T10098   2.547   5.508   6.058 -1.6293 -0.9507  1.5038
  101OSM    C7S10099   2.643   5.319   6.013 -0.2625 -0.4327  0.2072
  101OSM    H7S10100   2.549   5.266   6.042 -0.5137 -0.5287 -0.7650
  101OSM    H7T10101   2.718   5.247   6.052 -0.7868 -0.6280  0.8821
  101OSM    C8S10102   2.652   5.311   5.858  0.5111  0.6339  0.4056
  101OSM    H8S10103   2.736   5.370   5.815  0.5566  0.8702  0.8082
  101OSM    H8T10104   2.562   5.347   5.804  1.4774 -1.5270 -2.9016
  101OSM    C9S10105   2.652   5.166   5.797 -0.2144  0.4334  0.0499
  101OSM    H9S10106   2.599   5.171   5.700  0.8652  2.4289 -0.4815
  101OSM    H9T10107   2.590   5.104   5.866  0.4081 -0.3095 -0.0532
  101OSM   C10S10108   2.789   5.104   5.773 -0.2487  0.4353 -0.2979
  101OSM   H10S10109   2.843   5.108   5.870  0.4709 -1.9110 -0.5470
  101OSM   H10T10110   2.847   5.171   5.706  1.0452 -1.6830 -1.3995
  101OSM   C11S10111   2.770   4.955   5.720 -0.0669  0.6578  0.5161
  101OSM   H11S10112   2.675   4.967   5.664  0.0619 -2.4102 -0.5586
  101OSM   H11T10113   2.744   4.883   5.801 -0.0040 -2.7824 -2.2983
  101OSM   C12S10114   2.888   4.902   5.630 -0.4085  0.2588  0.0645
  101OSM   H12S10115   2.969   4.879   5.702 -0.4455 -1.0167 -0.2757
  101OSM   H12T10116   2.915   4.981   5.558 -0.6282  0.6776  0.4348
  101OSM   C13S10117   2.831   4.782   5.550  0.3938 -0.5596  0.3281
  101OSM   H13S10118   2.908   4.725   5.493 -0.3720 -0.2813 -1.0267
  101OSM   H13T10119   2.752   4.817   5.480  0.9298  2.7697  1.2274
  101OSM   C14S10120   2.769   4.666   5.635  0.0100  0.0518 -0.3011
  101OSM   H14S10121   2.686   4.715   5.690  1.7272  0.4727  2.0748
  101OSM   H14T10122   2.840   4.625   5.709 -0.9821 -0.7947  0.2187
  101OSM   C15S10123   2.702   4.541   5.577  0.0994 -0.0555  0.4354
  101OSM   H15S10124   2.627   4.569   5.500 -1.3013 -0.7720  1.5173
  101OSM   H15T10125   2.638   4.495   5.655 -0.9509  2.1155  0.9552
  101OSM   C16S10126   2.801   4.446   5.509  0.0258  0.1462 -0.0657
  101OSM   H16S10127   2.851   4.387   5.589 -2.3812  0.5493  1.8925
  101OSM   H16T10128   2.872   4.479   5.431  0.2601 -1.1933 -0.4251
  101OSM   C17S10129   2.717   4.342   5.439 -0.2298 -0.1462  0.2218
  101OSM   H17S10130   2.683   4.381   5.341 -3.3869  2.2472  2.0646
  101OSM   H17T10131   2.621   4.336   5.495 -0.1621  2.3008  0.7001
  101OSM   C18S10132   2.785   4.204   5.423 -0.2429 -0.6425 -0.3251
  101OSM   H18S10133   2.708   4.131   5.389 -1.4675 -0.2098  1.3529
  101OSM   H18T10134   2.820   4.168   5.523  1.4510  3.3087  0.6959
  101OSM   H18U10135   2.866   4.218   5.348  2.1597 -3.1108  1.5620
  101OSM    C1F10136   2.246   5.258   6.452  0.4408 -0.3394 -0.6281
  101OSM     OF10137   2.163   5.338   6.486 -0.3805 -0.1514 -0.9586
  101OSM    C2F10138   2.208   5.120   6.395  0.3605 -0.4569  0.4897
  101OSM    H2F10139   2.139   5.060   6.458  0.7732 -3.1359 -1.4342
  101OSM    H2G10140   2.300   5.063   6.373 -0.7355 -2.0516 -0.1340
  101OSM    C3F10141   2.136   5.137   6.253 -0.4356  0.9905 -0.0533
  101OSM    H3F10142   2.034   5.173   6.278 -2.6109 -3.0919 -2.0303
  101OSM    H3G10143   2.124   5.036   6.209  2.5318  0.7165 -0.4128
  101OSM    C4F10144   2.218   5.207   6.150 -0.0039 -0.8744  0.8528
  101OSM    H4F10145   2.302   5.144   6.114 -0.8730 -1.9486  0.6337
  101OSM    H4G10146   2.267   5.291   6.203 -0.5557  0.4788 -0.6824
  101OSM    C5F10147   2.135   5.260   6.031 -0.4750 -0.0385  0.6036
  101OSM    H5F10148   2.055   5.330   6.064 -0.6083 -0.4133  1.0896
  101OSM    H5G10149   2.086   5.179   5.973 -1.3895  0.5807  0.4945
  101OSM    C6F10150   2.235   5.346   5.934 -0.2521  0.2106  0.2674
  101OSM    H6F10151   2.318   5.275   5.912 -0.8310 -0.8573  1.3592
  101OSM    H6G10152   2.281   5.424   5.998  2.0596 -1.8390  1.2631
  101OSM    C7F10153   2.161   5.393   5.802  0.2488 -0.5936 -0.3810
  101OSM    H7F10154   2.086   5.469   5.830 -0.8395 -1.5460 -0.6678
  101OSM    H7G10155   2.104   5.307   5.763  0.1694 -1.0471  0.6850
  101OSM    C8F10156   2.254   5.449   5.692  0.2770  0.2368  0.2361
  101OSM    H8F10157   2.347   5.388   5.687  1.0010  1.0466  2.3847
  101OSM    H8G10158   2.299   5.546   5.724 -0.0092  0.2090  0.7415
  101OSM    C9F10159   2.190   5.460   5.559 -0.0174 -0.2670 -0.3185
  101OSM    H9F10160   2.095   5.516   5.558  0.5110  0.6768  0.6400
  101OSM   C10F10161   2.216   5.387   5.450  0.0613  0.9568 -0.0795
  101OSM   H10F10162   2.170   5.408   5.352  0.3301 -0.6229 -0.5771
  101OSM   C11F10163   2.328   5.285   5.435 -0.2605 -0.3096 -1.0102
  101OSM   H11F10164   2.285   5.183   5.444  1.1331 -0.8629 -0.0863
  101OSM   H11G10165   2.403   5.291   5.517  0.3735 -0.2984 -1.5794
  101OSM   C12F10166   2.408   5.292   5.306  0.1936 -0.2431  0.1804
  101OSM   H12F10167   2.336   5.305   5.223  1.9772  0.5592 -1.2936
  101OSM   H12G10168   2.469   5.199   5.295  0.7167 -0.1910  2.2537
  101OSM   C13F10169   2.492   5.416   5.293  0.3727  0.0528  0.2143
  101OSM   H13F10170   2.438   5.510   5.315  0.3533  0.7169 -2.3874
  101OSM   H13G10171   2.522   5.433   5.188 -0.1746 -1.7532 -0.2610
  101OSM   C14F10172   2.611   5.419   5.390 -0.5595  0.6424  0.6401
  101OSM   H14F10173   2.584   5.395   5.495  1.2462  0.0289  1.0004
  101OSM   H14G10174   2.652   5.522   5.383  0.5735  0.1254 -1.1003
  101OSM   C15F10175   2.734   5.324   5.360  0.0348 -0.3009  0.0420
  101OSM   H15F10176   2.687   5.228   5.330 -0.3218 -0.0054 -0.3599
  101OSM   H15G10177   2.794   5.309   5.452  0.5627 -0.5162 -0.3328
  101OSM   C16F10178   2.825   5.380   5.248  0.0015  0.4914 -0.5257
  101OSM   H16F10179   2.909   5.435   5.295 -0.1871  0.3750 -0.0480
  101OSM   H16G10180   2.771   5.461   5.194 -1.4737 -0.8611 -1.1580
  101OSM   C17F10181   2.879   5.268   5.151 -0.0410 -0.1618  0.3467
  101OSM   H17F10182   2.950   5.313   5.078 -0.8135  2.3505  1.0548
  101OSM   H17G10183   2.782   5.234   5.110 -0.1001  1.8689 -1.3711
  101OSM   C18F10184   2.955   5.162   5.232  0.0378  0.1280 -0.7506
  101OSM   H18F10185   3.004   5.199   5.324  0.2602 -1.4378 -0.2043
  101OSM   H18G10186   3.028   5.105   5.171  0.3637 -2.0674  1.5159
  101OSM   H18H10187   2.889   5.078   5.264  0.8139  0.4083  1.7892
  102OSM      N10188   2.927   2.414   6.998  0.0535 -0.1139 -0.6614
  102OSM    C1510189   2.962   2.297   7.080 -0.3092  0.7408 -0.1286
  102OSM   H15A10190   3.015   2.328   7.168  1.5698  1.4480 -1.4443
  102OSM   H15B10191   3.032   2.233   7.028 -1.2326 -0.4397  0.0293
  102OSM   H15C10192   2.876   2.237   7.105  0.0334  1.3849  2.9545
  102OSM    C1410193   2.926   2.377   6.853 -0.3801 -0.0787  0.0046
  102OSM   H14A10194   2.876   2.462   6.808  1.6169  1.2357  0.1516
  102OSM   H14B10195   2.861   2.294   6.831  0.3173  0.1932 -3.7551
  102OSM   H14C10196   3.028   2.369   6.817 -0.2594 -0.9641  0.5114
  102OSM    C1310197   2.785   2.458   7.029  0.8742 -0.0539  0.8287
  102OSM   H13A10198   2.770   2.550   6.974 -0.3914  0.5527  2.0939
  102OSM   H13B10199   2.769   2.496   7.129  1.0234  2.9388 -0.1687
  102OSM   H13C10200   2.718   2.380   6.997  3.4789 -2.6281  1.2777
  102OSM    C1210201   3.008   2.537   7.025 -0.3061 -0.0607 -0.0572
  102OSM   H12A10202   3.105   2.493   7.009 -0.8554 -0.5486 -2.6033
  102OSM   H12B10203   3.010   2.572   7.127  1.0924 -1.6542  0.5154
  102OSM    C1110204   2.992   2.655   6.927  0.0393 -0.7633  0.0354
  102OSM   H11A10205   2.998   2.629   6.819  2.4907 -1.1188  0.1978
  102OSM   H11B10206   3.077   2.723   6.945  0.6219 -1.8088  1.3634
  102OSM      P10207   2.807   2.827   7.043 -0.0277  0.3392 -0.1998
  102OSM    O1310208   2.658   2.813   7.058 -0.3454 -0.6028  0.1372
  102OSM    O1410209   2.883   2.814   7.173  0.6575 -0.3552 -0.6802
  102OSM    O1110210   2.831   2.959   6.974  0.0337 -0.5123 -0.0394
  102OSM    O1210211   2.864   2.719   6.944 -0.6325  0.4385 -0.3574
  102OSM    C1S10212   2.847   2.983   6.837 -0.2223 -0.1697  0.3210
  102OSM    H1S10213   2.757   2.966   6.775  1.7509 -1.0081 -2.5243
  102OSM    H1T10214   2.916   2.905   6.796  0.5146  0.6909 -0.1122
  102OSM     NF10215   2.924   3.161   6.666  0.4671  0.1087 -0.1465
  102OSM    HNF10216   3.021   3.162   6.644  0.3895  0.4165 -0.4881
  102OSM    C2S10217   2.902   3.133   6.809  0.0469  1.0736 -0.8468
  102OSM    H2S10218   2.819   3.200   6.840 -0.5043  0.1021 -0.1863
  102OSM    C3S10219   3.021   3.175   6.896  0.3934 -0.2525  0.7945
  102OSM    H3S10220   3.113   3.120   6.866  0.7197  0.7980 -0.2582
  102OSM     O310221   2.999   3.168   7.034  0.1000  0.1576 -0.5859
  102OSM    HO310222   2.932   3.100   7.038 -1.9627  2.1264  0.8628
  102OSM    C4S10223   3.060   3.323   6.867 -0.2537  0.0437 -0.0605
  102OSM    H4S10224   2.975   3.392   6.876  2.9612  4.4538 -0.2759
  102OSM    C5S10225   3.175   3.373   6.823  0.0143 -0.6646 -0.7173
  102OSM    H5S10226   3.262   3.309   6.801  2.3651  2.4329 -1.2516
  102OSM    C6S10227   3.196   3.520   6.790 -0.0476  0.0548 -0.0004
  102OSM    H6S10228   3.274   3.566   6.854 -0.7164 -1.4763  2.0121
  102OSM    H6T10229   3.101   3.579   6.792 -1.1981 -1.7477  1.0904
  102OSM    C7S10230   3.256   3.538   6.649  0.2262  0.8228  0.1460
  102OSM    H7S10231   3.360   3.504   6.668 -1.0004 -3.6143 -0.1695
  102OSM    H7T10232   3.267   3.646   6.625  3.2403  0.8219  1.0969
  102OSM    C8S10233   3.191   3.462   6.532  0.4553  0.5984 -0.6034
  102OSM    H8S10234   3.081   3.467   6.551  0.6835  1.9448  0.5861
  102OSM    H8T10235   3.219   3.356   6.548  0.0507  0.6706  0.8116
  102OSM    C9S10236   3.243   3.511   6.391  0.4020 -0.1011 -0.0599
  102OSM    H9S10237   3.353   3.513   6.397  0.8613  0.4956 -4.7785
  102OSM    H9T10238   3.210   3.617   6.388 -0.2342 -0.2605  0.8835
  102OSM   C10S10239   3.224   3.413   6.279  0.1194  0.5104 -0.0666
  102OSM   H10S10240   3.124   3.364   6.280  1.0199 -1.4251  0.5593
  102OSM   H10T10241   3.290   3.325   6.295  1.1798  1.0014 -1.4800
  102OSM   C11S10242   3.258   3.471   6.143  0.1382 -0.1421 -0.0871
  102OSM   H11S10243   3.352   3.530   6.158  0.6563 -1.1929  0.9360
  102OSM   H11T10244   3.176   3.542   6.118  0.3096  0.3848  0.7914
  102OSM   C12S10245   3.274   3.359   6.035  0.3626 -0.4377 -0.7705
  102OSM   H12S10246   3.188   3.290   6.051  0.5906 -0.1485  2.2718
  102OSM   H12T10247   3.360   3.291   6.052  0.9337 -0.2843 -2.7487
  102OSM   C13S10248   3.287   3.424   5.898  0.0119 -0.7588 -0.4164
  102OSM   H13S10249   3.348   3.513   5.922 -0.5602 -0.7449  1.1094
  102OSM   H13T10250   3.187   3.452   5.860  0.5588  1.0791 -0.5866
  102OSM   C14S10251   3.354   3.322   5.801  0.0234 -0.4318  0.8237
  102OSM   H14S10252   3.316   3.218   5.798  0.6970 -0.6657 -1.5245
  102OSM   H14T10253   3.462   3.317   5.828  0.3228  0.2479 -0.2050
  102OSM   C15S10254   3.353   3.379   5.663  0.1736  0.4174 -0.2583
  102OSM   H15S10255   3.394   3.482   5.667  2.3818 -0.4361  0.9904
  102OSM   H15T10256   3.254   3.380   5.612  0.0457  0.0484 -0.0213
  102OSM   C16S10257   3.435   3.296   5.567 -0.1176 -0.1231  0.1158
  102OSM   H16S10258   3.403   3.190   5.580  3.8998 -1.5049  0.1796
  102OSM   H16T10259   3.541   3.292   5.600  0.3396 -3.2201 -1.3019
  102OSM   C17S10260   3.422   3.326   5.415 -0.1520  0.1342  0.4248
  102OSM   H17S10261   3.473   3.425   5.407 -1.1982  0.8596  2.1607
  102OSM   H17T10262   3.324   3.324   5.364  0.1114 -2.9307 -0.1693
  102OSM   C18S10263   3.493   3.237   5.315 -0.1010  0.7817 -0.6909
  102OSM   H18S10264   3.592   3.207   5.354 -0.2651  0.5455 -0.4564
  102OSM   H18T10265   3.505   3.286   5.216  0.3687  1.0194 -0.5196
  102OSM   H18U10266   3.434   3.144   5.304 -1.0961  1.0137  2.0364
  102OSM    C1F10267   2.830   3.144   6.572 -0.2980  0.0950 -0.0218
  102OSM     OF10268   2.713   3.118   6.598 -0.1277  0.0815  0.3509
  102OSM    C2F10269   2.871   3.157   6.422 -0.0525 -0.3443  0.0263
  102OSM    H2F10270   2.982   3.156   6.412  0.3156  1.7931  2.5638
  102OSM    H2G10271   2.837   3.253   6.377 -3.2604 -1.5263 -0.3069
  102OSM    C3F10272   2.796   3.047   6.347  0.1930  0.0452  0.3604
  102OSM    H3F10273   2.686   3.062   6.357 -0.0926 -2.1565  0.9486
  102OSM    H3G10274   2.826   2.945   6.379 -0.0115 -0.9678 -2.3533
  102OSM    C4F10275   2.843   3.060   6.203  0.3260  0.2220 -0.1247
  102OSM    H4F10276   2.953   3.048   6.207  0.3810  0.7770  0.1148
  102OSM    H4G10277   2.807   3.154   6.156 -1.5874  0.4347  1.6240
  102OSM    C5F10278   2.783   2.944   6.119  0.2813  0.8462  0.2484
  102OSM    H5F10279   2.672   2.948   6.116  0.3171  1.4393 -1.1815
  102OSM    H5G10280   2.811   2.856   6.181 -0.2704 -0.0830 -0.7850
  102OSM    C6F10281   2.850   2.923   5.982 -0.4055 -0.1102 -0.1841
  102OSM    H6F10282   2.832   2.822   5.938 -2.3073  0.9698 -2.1493
  102OSM    H6G10283   2.960   2.924   5.995 -0.5644  0.4107  1.2278
  102OSM    C7F10284   2.799   3.008   5.867  0.3055  0.5455  0.0240
  102OSM    H7F10285   2.813   3.116   5.894 -0.4632  2.0351 -4.7298
  102OSM    H7G10286   2.691   2.984   5.861  0.4930 -1.1906  2.2502
  102OSM    C8F10287   2.877   2.982   5.737 -0.1528  0.5065  0.1202
  102OSM    H8F10288   2.807   3.019   5.658  2.0925  1.3376 -1.5880
  102OSM    H8G10289   2.878   2.871   5.728 -3.1622  0.4253 -0.0836
  102OSM    C9F10290   3.017   3.037   5.727  0.0564  0.7708 -0.3228
  102OSM    H9F10291   3.069   3.035   5.824  1.3780  0.8697 -0.9968
  102OSM   C10F10292   3.073   3.099   5.622 -0.0267  0.1727 -0.3201
  102OSM   H10F10293   3.175   3.139   5.635 -0.0357  0.7344 -1.7207
  102OSM   C11F10294   3.012   3.122   5.482 -0.4377  0.1421  0.5849
  102OSM   H11F10295   2.981   3.228   5.467 -1.1215 -0.0210  0.8136
  102OSM   H11G10296   2.922   3.059   5.474 -0.6982  0.7330 -2.3549
  102OSM   C12F10297   3.106   3.081   5.364 -0.2471 -0.5273 -0.9267
  102OSM   H12F10298   3.198   3.140   5.381  0.1904 -1.8942  1.9925
  102OSM   H12G10299   3.052   3.099   5.268 -0.3908 -0.2061 -0.7861
  102OSM   C13F10300   3.147   2.936   5.378  0.1689  0.1458 -0.2796
  102OSM   H13F10301   3.056   2.873   5.368 -0.6553  1.0431  1.2028
  102OSM   H13G10302   3.184   2.910   5.480  1.8931 -1.7298 -1.3071
  102OSM   C14F10303   3.257   2.889   5.280 -0.0706  0.0200  0.3855
  102OSM   H14F10304   3.286   2.782   5.292 -1.0734 -0.0352  2.8252
  102OSM   H14G10305   3.353   2.943   5.295 -0.4936  1.0890 -0.5958
  102OSM   C15F10306   3.211   2.898   5.126  0.9935  0.4538 -0.8265
  102OSM   H15F10307   3.185   3.005   5.108 -0.4069  0.0433 -1.4403
  102OSM   H15G10308   3.123   2.831   5.121  2.2484 -1.5573  2.0863
  102OSM   C16F10309   3.321   2.869   5.018  0.3507  0.4736  0.1856
  102OSM   H16F10310   3.376   2.778   5.049 -4.7178 -2.4910  1.7121
  102OSM   H16G10311   3.393   2.953   5.011  0.8773  0.0576  0.5211
  102OSM   C17F10312   3.245   2.854   4.884  0.6426  0.2518  0.2939
  102OSM   H17F10313   3.179   2.941   4.864  0.5166 -0.3630 -2.3840
  102OSM   H17G10314   3.173   2.770   4.892  0.6529  0.1706 -0.4249
  102OSM   C18F10315   3.344   2.830   4.762  0.7456  0.3653  0.1509
  102OSM   H18F10316   3.292   2.821   4.664  0.0285  0.6422  0.4984
  102OSM   H18G10317   3.393   2.733   4.785 -3.4827 -1.9082  0.5901
  102OSM   H18H10318   3.432   2.898   4.759  1.4123 -0.4306  0.9675
  103OSM      N10319   2.502   6.505   6.773 -0.3304 -0.2186 -0.3417
  103OSM    C1510320   2.406   6.525   6.663 -0.2343  0.1913 -0.6568
  103OSM   H15A10321   2.447   6.593   6.589 -2.9364  1.1834 -1.3692
  103OSM   H15B10322   2.312   6.570   6.692  0.0568  0.8800 -0.7496
  103OSM   H15C10323   2.391   6.435   6.604  2.0078 -0.8917  0.3022
  103OSM    C1410324   2.569   6.634   6.815 -0.0551  0.2624 -0.3030
  103OSM   H14A10325   2.489   6.690   6.861  0.8474  0.8486  0.5850
  103OSM   H14B10326   2.622   6.691   6.740 -0.6996 -0.1513 -1.0969
  103OSM   H14C10327   2.632   6.623   6.901 -3.4404 -1.6528  2.1803
  103OSM    C1310328   2.428   6.447   6.884 -0.0620 -0.3789 -0.3179
  103OSM   H13A10329   2.350   6.514   6.919  0.2483  0.6227 -1.4900
  103OSM   H13B10330   2.494   6.419   6.965 -2.5116 -3.5131  0.8098
  103OSM   H13C10331   2.375   6.356   6.858 -2.3927  0.9016 -0.2892
  103OSM    C1210332   2.608   6.403   6.729  0.0474 -0.6700  0.0494
  103OSM   H12A10333   2.635   6.420   6.626 -0.3035 -0.5409 -0.0232
  103OSM   H12B10334   2.553   6.310   6.726 -1.9247  0.4416 -0.6352
  103OSM    C1110335   2.721   6.370   6.830  0.8051 -0.8290 -0.5173
  103OSM   H11A10336   2.758   6.468   6.867 -0.9161 -0.1277 -0.5739
  103OSM   H11B10337   2.813   6.319   6.795  2.4958 -0.1433  2.5917
  103OSM      P10338   2.655   6.136   6.928  0.3959  0.6063 -0.0546
  103OSM    O1310339   2.779   6.095   6.997 -0.4374  0.1935  0.1555
  103OSM    O1410340   2.524   6.089   6.986  0.0484  0.0263  0.3238
  103OSM    O1110341   2.671   6.106   6.777  0.1122  0.0573  0.2526
  103OSM    O1210342   2.657   6.297   6.935 -0.6373  0.3980 -0.6669
  103OSM    C1S10343   2.555   6.082   6.687 -0.4073 -0.0324  1.2515
  103OSM    H1S10344   2.484   6.167   6.699  1.1814  1.6082 -0.4013
  103OSM    H1T10345   2.511   5.986   6.719  0.7881 -0.3377  2.0385
  103OSM     NF10346   2.479   6.083   6.449  0.0641 -0.2059  0.3439
  103OSM    HNF10347   2.448   5.998   6.408 -2.0633  2.3296 -3.9608
  103OSM    C2S10348   2.599   6.081   6.541  0.0681  0.2026  0.0351
  103OSM    H2S10349   2.663   6.168   6.517 -0.6626  0.4245 -1.1591
  103OSM    C3S10350   2.703   5.961   6.520  0.7132  0.2687  0.2046
  103OSM    H3S10351   2.650   5.873   6.563  3.7675 -1.8201  0.0031
  103OSM     O310352   2.820   5.960   6.598 -0.2313  0.1606  0.3377
  103OSM    HO310353   2.809   5.995   6.687  3.8045  1.8937  0.3552
  103OSM    C4S10354   2.730   5.951   6.370  0.5344  0.5078  1.0377
  103OSM    H4S10355   2.796   6.024   6.320 -0.5573  0.4042 -0.6508
  103OSM    C5S10356   2.687   5.848   6.291  0.4240 -0.0865  0.2781
  103OSM    H5S10357   2.625   5.767   6.333  0.1806 -0.4968 -0.8479
  103OSM    C6S10358   2.718   5.827   6.147 -0.6157 -1.1540  0.5127
  103OSM    H6S10359   2.751   5.723   6.129 -0.9149 -1.0640 -0.6371
  103OSM    H6T10360   2.802   5.885   6.104 -1.9472 -2.0346 -3.7647
  103OSM    C7S10361   2.597   5.863   6.057  0.4065  0.1314  0.6092
  103OSM    H7S10362   2.569   5.970   6.058 -1.8218 -0.3391 -1.8390
  103OSM    H7T10363   2.518   5.801   6.105  1.0184 -1.8022 -0.7256
  103OSM    C8S10364   2.615   5.817   5.910 -0.3217  0.2815 -0.6349
  103OSM    H8S10365   2.620   5.706   5.903 -2.5007 -0.1114  2.3312
  103OSM    H8T10366   2.704   5.870   5.870 -0.1363  0.5924  0.1704
  103OSM    C9S10367   2.493   5.857   5.832 -0.6011 -0.0295  0.1276
  103OSM    H9S10368   2.488   5.968   5.836  3.8234  0.5290 -2.9007
  103OSM    H9T10369   2.400   5.803   5.861 -0.7209 -0.8829 -1.6952
  103OSM   C10S10370   2.490   5.832   5.677  0.4060  0.2651  0.6985
  103OSM   H10S10371   2.491   5.723   5.653  0.5761  0.5417 -0.5826
  103OSM   H10T10372   2.584   5.872   5.634 -0.6228  1.1000 -0.8603
  103OSM   C11S10373   2.368   5.891   5.609  0.5334  0.2714 -0.3471
  103OSM   H11S10374   2.389   5.999   5.599 -0.3395  0.3157 -2.0658
  103OSM   H11T10375   2.279   5.875   5.674  0.7210 -0.2479 -0.2088
  103OSM   C12S10376   2.323   5.822   5.473  0.0358  0.3328  0.7001
  103OSM   H12S10377   2.235   5.880   5.438  0.6116  0.3094 -0.9221
  103OSM   H12T10378   2.298   5.714   5.480  2.2978 -0.3872 -1.0049
  103OSM   C13S10379   2.438   5.829   5.367  0.3157  0.0151  0.4274
  103OSM   H13S10380   2.405   5.773   5.277 -1.4000  0.2908  0.8540
  103OSM   H13T10381   2.520   5.766   5.408  0.8085 -0.7952 -1.6366
  103OSM   C14S10382   2.481   5.972   5.328 -0.2661  0.3945  0.7532
  103OSM   H14S10383   2.513   6.041   5.409  0.0910  2.1613 -0.8193
  103OSM   H14T10384   2.395   6.024   5.280  0.6466 -1.0062 -2.7655
  103OSM   C15S10385   2.590   5.969   5.223  1.4490 -0.5713  0.2184
  103OSM   H15S10386   2.682   5.913   5.253  2.2756 -0.1702 -1.4468
  103OSM   H15T10387   2.615   6.075   5.202 -0.3401  0.0505  1.0800
  103OSM   C16S10388   2.553   5.918   5.083  0.4143  0.1704 -0.5223
  103OSM   H16S10389   2.451   5.958   5.067 -0.1919 -1.0056  0.2035
  103OSM   H16T10390   2.536   5.808   5.089  2.0413 -0.0999 -0.3912
  103OSM   C17S10391   2.645   5.972   4.978  0.2524 -0.4370  0.0757
  103OSM   H17S10392   2.749   5.936   4.990  1.1255  0.7430 -3.0299
  103OSM   H17T10393   2.644   6.083   4.973 -0.2475 -0.3628  1.3855
  103OSM   C18S10394   2.598   5.935   4.840  0.1665  0.0387 -0.2461
  103OSM   H18S10395   2.633   5.832   4.820  0.3109 -0.2596  1.4297
  103OSM   H18T10396   2.650   5.991   4.759  3.2159 -1.0153  0.8551
  103OSM   H18U10397   2.488   5.951   4.835  0.2351  0.3361 -0.9011
  103OSM    C1F10398   2.411   6.192   6.429  0.4056 -0.1043  0.4173
  103OSM     OF10399   2.457   6.304   6.457  0.4930  0.0379 -0.8913
  103OSM    C2F10400   2.277   6.184   6.370  0.0264 -0.7266  0.0596
  103OSM    H2F10401   2.203   6.182   6.452  0.3690  0.8036  0.4509
  103OSM    H2G10402   2.259   6.087   6.320 -1.3671 -0.4542 -0.0193
  103OSM    C3F10403   2.227   6.295   6.272  0.3975  0.5750 -0.3213
  103OSM    H3F10404   2.241   6.389   6.329  1.8547 -0.5400  1.2763
  103OSM    H3G10405   2.121   6.285   6.240 -0.0637  3.8246 -0.1299
  103OSM    C4F10406   2.307   6.287   6.134 -0.1936 -0.0085  0.5693
  103OSM    H4F10407   2.334   6.181   6.114  2.3808  0.4487  1.1938
  103OSM    H4G10408   2.407   6.333   6.152 -0.4136  1.1164 -0.8811
  103OSM    C5F10409   2.221   6.357   6.030 -0.5026 -0.7758 -0.1290
  103OSM    H5F10410   2.209   6.465   6.055 -1.1111  0.0697 -3.6525
  103OSM    H5G10411   2.118   6.315   6.026 -1.3492  1.2909 -1.2473
  103OSM    C6F10412   2.293   6.334   5.898 -0.4404 -0.0851  0.1154
  103OSM    H6F10413   2.270   6.228   5.872  0.6108 -0.3560  0.2592
  103OSM    H6G10414   2.403   6.342   5.909 -0.4090 -2.8024  3.6108
  103OSM    C7F10415   2.243   6.434   5.791 -0.4959  0.4331 -0.3251
  103OSM    H7F10416   2.285   6.537   5.797  2.4304 -0.5999 -1.3256
  103OSM    H7G10417   2.134   6.453   5.795 -0.3724  0.9353  1.1524
  103OSM    C8F10418   2.256   6.357   5.654  0.5484  1.1938 -0.2323
  103OSM    H8F10419   2.199   6.407   5.573  1.5408  1.9651 -0.4747
  103OSM    H8G10420   2.210   6.256   5.656  0.1465  1.3640 -0.5806
  103OSM    C9F10421   2.400   6.350   5.599 -0.2124 -0.0314 -0.0864
  103OSM    H9F10422   2.479   6.344   5.676 -0.8127  0.4753  0.5874
  103OSM   C10F10423   2.423   6.365   5.465 -0.0116 -0.7262 -0.0383
  103OSM   H10F10424   2.528   6.361   5.433 -0.1556  3.6834 -1.7187
  103OSM   C11F10425   2.318   6.387   5.361 -0.3812 -0.7434  0.4818
  103OSM   H11F10426   2.315   6.498   5.357 -0.9576 -0.7611 -3.0272
  103OSM   H11G10427   2.214   6.357   5.384 -0.0698 -3.5003 -1.2799
  103OSM   C12F10428   2.363   6.337   5.217 -0.7328 -0.1629 -0.4871
  103OSM   H12F10429   2.353   6.226   5.210 -2.8579 -0.2729  2.5244
  103OSM   H12G10430   2.466   6.373   5.198 -1.2403  2.6939  1.5893
  103OSM   C13F10431   2.272   6.389   5.104 -0.5230  0.8018  0.0052
  103OSM   H13F10432   2.266   6.499   5.105  0.9846  0.9276  2.2189
  103OSM   H13G10433   2.169   6.355   5.128 -0.2595  0.5123  0.7493
  103OSM   C14F10434   2.296   6.341   4.953  0.1865 -0.3858 -0.7623
  103OSM   H14F10435   2.377   6.266   4.964 -0.1265 -0.7201 -0.7440
  103OSM   H14G10436   2.328   6.430   4.895 -1.6661  1.2631  0.6188
  103OSM   C15F10437   2.170   6.291   4.881  0.0646 -0.1856  0.1616
  103OSM   H15F10438   2.076   6.348   4.898 -0.6840 -0.8329 -1.5774
  103OSM   H15G10439   2.152   6.185   4.909  1.1327  0.0798  1.9900
  103OSM   C16F10440   2.191   6.285   4.726  0.0395  0.2253  0.1219
  103OSM   H16F10441   2.173   6.383   4.676 -0.4426 -0.2881 -0.7444
  103OSM   H16G10442   2.111   6.218   4.687  1.4670 -1.7510  0.4158
  103OSM   C17F10443   2.312   6.214   4.665  0.0245 -0.0450  0.2135
  103OSM   H17F10444   2.308   6.103   4.676  0.8379 -0.2264 -1.1312
  103OSM   H17G10445   2.410   6.250   4.702  1.2986 -1.3856 -1.6556
  103OSM   C18F10446   2.314   6.235   4.513  0.4877 -0.5483  0.5346
  103OSM   H18F10447   2.222   6.232   4.451  1.5122  1.5521 -1.2131
  103OSM   H18G10448   2.381   6.168   4.456 -1.8729 -1.8806 -0.8462
  103OSM   H18H10449   2.344   6.340   4.492 -1.4369  0.3852  2.0281
  104OSM      N10450   3.452   5.923   7.030  0.1668  0.1603 -0.4643
  104OSM    C1510451   3.378   6.042   7.055 -0.6603 -0.0816  0.7212
  104OSM   H15A10452   3.307   6.059   6.975 -2.2140 -1.1517  1.8326
  104OSM   H15B10453   3.450   6.122   7.061 -0.6717  0.2124 -1.8037
  104OSM   H15C10454   3.324   6.045   7.148 -1.0365  2.9680  0.5193
  104OSM    C1410455   3.551   5.905   7.138  0.4215  0.0721  0.1607
  104OSM   H14A10456   3.642   5.956   7.108 -1.7814  3.2270 -1.7260
  104OSM   H14B10457   3.567   5.798   7.143 -0.4880 -0.0832 -0.1563
  104OSM   H14C10458   3.515   5.937   7.234 -2.3865  0.8465 -1.0582
  104OSM    C1310459   3.350   5.811   7.038  0.9076 -0.1497 -0.2935
  104OSM   H13A10460   3.307   5.804   7.137 -0.1463 -1.3126 -0.7922
  104OSM   H13B10461   3.395   5.714   7.020 -1.7053 -0.9594 -3.5146
  104OSM   H13C10462   3.267   5.815   6.968 -1.6221 -2.8755  2.2568
  104OSM    C1210463   3.516   5.925   6.895 -0.1344  0.3248  0.1976
  104OSM   H12A10464   3.576   6.014   6.885 -0.3114  0.3887 -0.3332
  104OSM   H12B10465   3.436   5.942   6.824 -0.0495  1.1366  0.2901
  104OSM    C1110466   3.605   5.799   6.859  0.4719 -0.4328  0.2541
  104OSM   H11A10467   3.636   5.799   6.752  1.3804  4.3110  0.2648
  104OSM   H11B10468   3.547   5.705   6.864  0.6285 -0.6671 -1.6446
  104OSM      P10469   3.846   5.874   6.929  0.4195 -0.0706  0.3192
  104OSM    O1310470   3.805   6.017   6.948 -0.1095 -0.1585 -0.2616
  104OSM    O1410471   3.946   5.815   7.023 -0.3969  0.1404  0.6126
  104OSM    O1110472   3.902   5.858   6.781  0.1104 -0.1836 -0.1040
  104OSM    O1210473   3.721   5.786   6.942 -0.0319 -0.4105  0.0633
  104OSM    C1S10474   3.927   5.735   6.721 -0.3249  0.8358  0.5015
  104OSM    H1S10475   3.838   5.669   6.732 -0.5068  0.9245 -0.4019
  104OSM    H1T10476   4.020   5.690   6.762  0.4300  2.1076  0.2263
  104OSM     NF10477   3.980   5.625   6.501 -0.2617 -0.4191  0.4949
  104OSM    HNF10478   4.060   5.606   6.445 -0.3297 -0.9264  0.5685
  104OSM    C2S10479   3.965   5.755   6.566  0.7274 -0.6268  0.2446
  104OSM    H2S10480   3.876   5.809   6.528  1.1272  0.1354  0.3626
  104OSM    C3S10481   4.080   5.855   6.551  0.2296 -0.8399 -0.2829
  104OSM    H3S10482   4.177   5.809   6.580  0.6271  0.4479  0.5266
  104OSM     O310483   4.077   5.976   6.630  0.4865  0.5249 -0.4341
  104OSM    HO310484   3.999   5.962   6.685  0.4188 -1.4723 -0.9463
  104OSM    C4S10485   4.087   5.890   6.408  1.1343 -0.4660  0.5112
  104OSM    H4S10486   4.155   5.834   6.342  0.1826  0.5993 -1.4593
  104OSM    C5S10487   4.032   5.995   6.342  0.0022 -0.1875  0.4071
  104OSM    H5S10488   3.970   6.072   6.390 -2.3576 -2.1267  0.7016
  104OSM    C6S10489   4.056   6.015   6.198 -0.3702 -1.1198  0.0465
  104OSM    H6S10490   4.147   6.078   6.184  0.2485 -1.8906  0.4464
  104OSM    H6T10491   3.973   6.081   6.164  2.0445  0.9697 -2.2986
  104OSM    C7S10492   4.064   5.892   6.103  0.6594  0.1116 -0.0269
  104OSM    H7S10493   3.980   5.825   6.130 -0.5104  1.2893 -0.6485
  104OSM    H7T10494   4.157   5.837   6.129  1.5627  1.1450 -0.9870
  104OSM    C8S10495   4.050   5.938   5.954 -0.3568 -0.2070 -0.2489
  104OSM    H8S10496   3.961   6.001   5.937  0.1136  0.4384 -0.3621
  104OSM    H8T10497   4.034   5.856   5.882  0.0651 -1.2370  0.7936
  104OSM    C9S10498   4.168   6.018   5.899  0.7923 -0.0063  1.1043
  104OSM    H9S10499   4.254   5.949   5.902 -0.4107 -1.5662  0.7824
  104OSM    H9T10500   4.190   6.104   5.966 -0.4322  0.8091  0.5061
  104OSM   C10S10501   4.139   6.064   5.752 -0.3496 -0.2231 -0.0392
  104OSM   H10S10502   4.041   6.115   5.759 -0.6839 -1.0821  2.2082
  104OSM   H10T10503   4.132   5.975   5.685  4.0931  0.0059 -1.1692
  104OSM   C11S10504   4.245   6.167   5.706  0.6146  0.0141 -0.1220
  104OSM   H11S10505   4.313   6.106   5.642  0.1176 -1.1018  0.3783
  104OSM   H11T10506   4.291   6.211   5.797 -0.5195  0.7391  0.1142
  104OSM   C12S10507   4.196   6.283   5.623  0.4705 -0.8588  0.0694
  104OSM   H12S10508   4.292   6.335   5.600  0.3317  0.8919  3.0057
  104OSM   H12T10509   4.129   6.346   5.685  0.1262  1.2749 -2.2755
  104OSM   C13S10510   4.120   6.237   5.498 -0.5165  0.2207  0.8831
  104OSM   H13S10511   4.011   6.243   5.514 -0.7441 -3.1278  1.3294
  104OSM   H13T10512   4.135   6.129   5.476 -0.2635  0.0556  1.8083
  104OSM   C14S10513   4.152   6.328   5.380  0.2126 -0.1173  0.1272
  104OSM   H14S10514   4.260   6.347   5.364 -0.0889  2.3612  0.6371
  104OSM   H14T10515   4.097   6.425   5.382 -0.4005 -0.4409 -0.6399
  104OSM   C15S10516   4.100   6.248   5.251  0.1872 -0.0285  0.0059
  104OSM   H15S10517   3.994   6.225   5.274  0.2222  0.8537  1.1161
  104OSM   H15T10518   4.152   6.150   5.245 -0.8812 -0.5904 -0.4726
  104OSM   C16S10519   4.110   6.322   5.117  0.4829 -0.3038 -0.0914
  104OSM   H16S10520   4.208   6.374   5.105  1.0983 -0.8527  2.0783
  104OSM   H16T10521   4.031   6.401   5.118 -0.2671 -1.0487  0.1140
  104OSM   C17S10522   4.084   6.230   4.994  0.4225 -0.2341  0.0160
  104OSM   H17S10523   3.988   6.180   5.019  0.3271  0.5979  1.4114
  104OSM   H17T10524   4.157   6.147   4.996  1.5899  0.7818  1.4846
  104OSM   C18S10525   4.081   6.299   4.857 -0.5467  0.2457  0.6994
  104OSM   H18S10526   4.037   6.400   4.869 -1.0075  0.1917 -0.4053
  104OSM   H18T10527   4.019   6.240   4.786  0.4996  0.1889 -0.1850
  104OSM   H18U10528   4.183   6.311   4.814  0.2849 -2.0728  1.8749
  104OSM    C1F10529   3.885   5.540   6.493  0.3062  0.4532  0.0541
  104OSM     OF10530   3.770   5.569   6.524  0.4349  0.3684  0.3394
  104OSM    C2F10531   3.939   5.409   6.448 -0.1297 -0.0156  0.3208
  104OSM    H2F10532   3.877   5.325   6.485 -1.7860  0.9259 -0.2321
  104OSM    H2G10533   4.042   5.406   6.489 -0.9149  2.6024  2.8326
  104OSM    C3F10534   3.925   5.411   6.299 -0.8470  0.2035  0.5355
  104OSM    H3F10535   3.992   5.488   6.254 -2.5414  1.2538 -0.2803
  104OSM    H3G10536   3.821   5.442   6.278 -0.7372  0.0772 -0.2434
  104OSM    C4F10537   3.941   5.274   6.235  0.1662 -0.0711  0.0578
  104OSM    H4F10538   3.876   5.194   6.277 -0.8162  2.3728  3.6770
  104OSM    H4G10539   4.044   5.243   6.262  0.2470  2.0193  2.5988
  104OSM    C5F10540   3.931   5.267   6.080  0.0880 -0.2192 -0.6993
  104OSM    H5F10541   4.009   5.329   6.032 -0.6087  0.2999 -1.1780
  104OSM    H5G10542   3.833   5.309   6.050  0.2022  0.3331 -0.3013
  104OSM    C6F10543   3.921   5.120   6.021 -0.0584  0.3726 -0.3294
  104OSM    H6F10544   3.836   5.074   6.077  0.0290 -0.0697 -0.5607
  104OSM    H6G10545   4.020   5.075   6.043  1.6100  3.5394 -0.7975
  104OSM    C7F10546   3.900   5.105   5.869 -0.1049  0.8581 -0.4243
  104OSM    H7F10547   3.985   5.156   5.818  1.5469 -1.1147  0.2353
  104OSM    H7G10548   3.814   5.155   5.820 -0.1778  1.3644  0.2025
  104OSM    C8F10549   3.898   4.960   5.811  0.0229  0.5241  0.9266
  104OSM    H8F10550   3.966   4.887   5.861  0.1537  0.3215  0.4578
  104OSM    H8G10551   3.929   4.967   5.705 -0.2759 -0.5087  0.7522
  104OSM    C9F10552   3.767   4.888   5.801  0.0074  0.6356  0.3155
  104OSM    H9F10553   3.720   4.876   5.900  0.7671 -2.3561  0.4243
  104OSM   C10F10554   3.693   4.848   5.694 -0.4945  0.1499  0.1793
  104OSM   H10F10555   3.594   4.806   5.717 -1.0379  2.4097  2.3755
  104OSM   C11F10556   3.742   4.861   5.544 -0.1192  1.2269  0.0205
  104OSM   H11F10557   3.835   4.800   5.546 -0.4758  0.6752 -0.0353
  104OSM   H11G10558   3.760   4.968   5.518  0.9412  0.5271 -2.3561
  104OSM   C12F10559   3.659   4.800   5.427 -0.4389  0.0264 -1.1683
  104OSM   H12F10560   3.557   4.844   5.426 -0.7151 -0.5851 -0.6985
  104OSM   H12G10561   3.637   4.695   5.458 -0.5984  0.3425 -0.1720
  104OSM   C13F10562   3.733   4.807   5.291 -0.1462  0.1877 -0.1171
  104OSM   H13F10563   3.841   4.779   5.289 -0.9054 -3.1724 -1.1732
  104OSM   H13G10564   3.737   4.913   5.258 -0.3316  0.1901 -0.1288
  104OSM   C14F10565   3.653   4.715   5.193 -0.3163  1.2182  0.1425
  104OSM   H14F10566   3.545   4.732   5.209 -0.7549 -2.1929  1.6613
  104OSM   H14G10567   3.674   4.609   5.218  0.5902  0.9243 -1.6657
  104OSM   C15F10568   3.700   4.737   5.051 -0.0119 -0.2780 -0.7236
  104OSM   H15F10569   3.658   4.651   4.995  2.3914 -2.1053  0.1010
  104OSM   H15G10570   3.809   4.716   5.052  0.0396 -0.2756  1.9676
  104OSM   C16F10571   3.668   4.878   4.990  0.2628  0.1031  0.4986
  104OSM   H16F10572   3.741   4.943   5.043 -1.7142 -0.4132  4.1828
  104OSM   H16G10573   3.565   4.900   5.023  0.0507 -1.1713  0.7207
  104OSM   C17F10574   3.652   4.884   4.834 -0.3271  0.1361  0.3082
  104OSM   H17F10575   3.754   4.872   4.790 -1.1455 -0.5131 -1.5139
  104OSM   H17G10576   3.609   4.981   4.802 -1.1957 -0.5378 -0.6018
  104OSM   C18F10577   3.563   4.777   4.776  0.4929 -0.4446  0.6477
  104OSM   H18F10578   3.599   4.673   4.791 -1.3862 -1.2126  0.1589
  104OSM   H18G10579   3.546   4.799   4.669  1.1674  0.6388  0.7485
  104OSM   H18H10580   3.465   4.780   4.828 -0.5419 -3.0368 -0.9418
  105OSM      N10581   4.445   6.111   7.273 -0.9162 -0.0554  0.2291
  105OSM    C1510582   4.521   6.010   7.349  0.1599  0.3945  0.1307
  105OSM   H15A10583   4.516   6.032   7.454  1.2315  2.6547 -0.2428
  105OSM   H15B10584   4.623   6.014   7.313  0.9336  0.4253  2.2350
  105OSM   H15C10585   4.479   5.910   7.343  0.3543  0.3491 -0.6440
  105OSM    C1410586   4.300   6.124   7.313 -0.5318  0.5782  0.1208
  105OSM   H14A10587   4.298   6.155   7.416 -1.3295  1.1123 -0.0442
  105OSM   H14B10588   4.239   6.036   7.317 -0.7884  0.7708  0.5752
  105OSM   H14C10589   4.240   6.196   7.259 -2.7539  0.0256  1.7099
  105OSM    C1310590   4.502   6.244   7.304 -0.3505 -0.5489 -0.0111
  105OSM   H13A10591   4.609   6.236   7.291 -0.4268 -1.5169 -0.1240
  105OSM   H13B10592   4.478   6.278   7.403 -0.2103 -0.4570 -0.0091
  105OSM   H13C10593   4.466   6.326   7.245 -1.0101 -0.2377  0.8143
  105OSM    C1210594   4.468   6.080   7.123 -0.0488  0.2788 -0.2824
  105OSM   H12A10595   4.435   6.165   7.066 -0.5539  0.9296  0.9233
  105OSM   H12B10596   4.397   6.002   7.099 -1.7405  2.3115 -2.3056
  105OSM    C1110597   4.609   6.041   7.066  0.0781  0.1483  0.0824
  105OSM   H11A10598   4.691   6.105   7.106 -0.0562  0.0052  0.5967
  105OSM   H11B10599   4.602   6.056   6.956 -0.1689  0.1968  0.1049
  105OSM      P10600   4.582   5.771   7.050 -0.2676  0.3251  0.0728
  105OSM    O1310601   4.647   5.654   7.101 -0.1662  0.3329 -0.2713
  105OSM    O1410602   4.436   5.773   7.068 -0.4055  0.2387 -0.2107
  105OSM    O1110603   4.596   5.782   6.896  0.3331  0.3094 -0.2539
  105OSM    O1210604   4.635   5.907   7.112 -0.1771  0.4866 -0.2383
  105OSM    C1S10605   4.714   5.827   6.830 -1.0753  0.2526  0.6484
  105OSM    H1S10606   4.794   5.750   6.838  1.2879  2.5058  0.3274
  105OSM    H1T10607   4.759   5.913   6.885  1.8822 -0.5151 -0.3820
  105OSM     NF10608   4.827   5.883   6.611  0.4608 -0.0225  0.5932
  105OSM    HNF10609   4.844   5.978   6.586  1.1813  0.4184  2.5976
  105OSM    C2S10610   4.695   5.852   6.674 -0.3341  0.3743 -0.2663
  105OSM    H2S10611   4.658   5.757   6.630  0.2697  0.9776 -2.1827
  105OSM    C3S10612   4.582   5.957   6.658  0.3966 -0.5577  0.5914
  105OSM    H3S10613   4.625   6.052   6.697 -2.0988 -0.1649  2.7085
  105OSM     O310614   4.464   5.938   6.739  0.5316  0.1851 -0.2927
  105OSM    HO310615   4.488   5.864   6.796 -1.1743  0.3818  0.7382
  105OSM    C4S10616   4.543   5.971   6.515 -1.0316 -0.6181 -0.6403
  105OSM    H4S10617   4.604   6.045   6.461 -2.4752  0.7104 -0.5273
  105OSM    C5S10618   4.449   5.906   6.443  0.4369  0.3970  0.8411
  105OSM    H5S10619   4.405   5.816   6.490  2.1521 -1.4562 -0.8906
  105OSM    C6S10620   4.428   5.910   6.289  0.3513  0.3300 -0.1039
  105OSM    H6S10621   4.327   5.949   6.264 -0.0321 -0.5782  0.0163
  105OSM    H6T10622   4.422   5.804   6.259  1.5408 -0.0954  1.0777
  105OSM    C7S10623   4.546   5.975   6.218 -0.3646  0.4890  0.2027
  105OSM    H7S10624   4.635   5.913   6.244  0.2002 -0.0514 -2.6545
  105OSM    H7T10625   4.561   6.079   6.255 -1.4173  1.1403 -1.1189
  105OSM    C8S10626   4.517   5.969   6.066 -0.6816 -0.6743 -0.6172
  105OSM    H8S10627   4.421   6.024   6.058 -0.8964 -0.2574  2.9976
  105OSM    H8T10628   4.494   5.862   6.046  0.9726 -0.7172 -2.6123
  105OSM    C9S10629   4.617   6.023   5.961  0.1471  0.4871  1.0663
  105OSM    H9S10630   4.722   5.986   5.966  0.4993  1.4358  0.9790
  105OSM    H9T10631   4.631   6.130   5.988 -0.3866  0.7235  0.4510
  105OSM   C10S10632   4.565   6.032   5.818  0.5957  0.5376 -0.1950
  105OSM   H10S10633   4.485   6.108   5.806  1.3533  1.6601  1.5402
  105OSM   H10T10634   4.516   5.933   5.802  0.6095  0.5055 -0.0430
  105OSM   C11S10635   4.673   6.053   5.722  0.0636 -0.0365  0.2574
  105OSM   H11S10636   4.756   5.980   5.737  0.7286  0.6202 -0.1136
  105OSM   H11T10637   4.713   6.155   5.739  0.7129 -0.4614  1.3623
  105OSM   C12S10638   4.622   6.034   5.580 -0.1344  0.0548 -0.6133
  105OSM   H12S10639   4.535   6.097   5.554 -0.5663  0.2876  1.2444
  105OSM   H12T10640   4.599   5.926   5.574  0.2920 -0.2233  1.7662
  105OSM   C13S10641   4.730   6.062   5.476 -0.0207  0.2264 -0.5785
  105OSM   H13S10642   4.813   5.990   5.492  0.2514  0.9105  1.2591
  105OSM   H13T10643   4.773   6.163   5.492 -2.6140  1.0230  2.2077
  105OSM   C14S10644   4.674   6.046   5.333 -0.6174 -0.5455  0.1398
  105OSM   H14S10645   4.580   6.104   5.328 -0.7314 -0.7510 -0.1467
  105OSM   H14T10646   4.648   5.939   5.317  1.4405 -1.8408  4.2037
  105OSM   C15S10647   4.773   6.094   5.224 -0.3511 -0.5029 -0.8543
  105OSM   H15S10648   4.872   6.045   5.228  1.0421  1.4264 -5.2811
  105OSM   H15T10649   4.778   6.203   5.245 -0.6530 -0.8229  1.1028
  105OSM   C16S10650   4.726   6.064   5.082  0.3427 -0.1368 -0.4163
  105OSM   H16S10651   4.721   5.956   5.056 -1.0539  0.0560 -1.0506
  105OSM   H16T10652   4.809   6.110   5.024  0.1520 -0.2083 -0.7501
  105OSM   C17S10653   4.592   6.124   5.035  0.0640 -0.5542  0.2409
  105OSM   H17S10654   4.522   6.095   5.116 -0.3598  0.0312  0.0882
  105OSM   H17T10655   4.566   6.085   4.934  1.2519 -0.8627  0.0422
  105OSM   C18S10656   4.603   6.277   5.027  0.0768  0.9974  0.3436
  105OSM   H18S10657   4.507   6.313   4.985 -0.3316 -0.4658 -0.0130
  105OSM   H18T10658   4.699   6.287   4.972  0.5861 -0.7889  0.8587
  105OSM   H18U10659   4.612   6.318   5.130 -1.9953  0.3801  0.8078
  105OSM    C1F10660   4.928   5.808   6.593  0.2427  0.0478 -0.5697
  105OSM     OF10661   4.922   5.684   6.622  0.0746  0.1691  0.1606
  105OSM    C2F10662   5.051   5.872   6.536 -0.0889  0.0085  0.2546
  105OSM    H2F10663   5.053   5.967   6.593 -2.6344  1.2099 -1.4594
  105OSM    H2G10664   5.045   5.893   6.427 -0.5873  1.9729  0.6316
  105OSM    C3F10665   5.188   5.800   6.555 -0.4380  0.3252 -0.6807
  105OSM    H3F10666   5.184   5.697   6.515  0.7780  0.0150 -0.0331
  105OSM    H3G10667   5.193   5.791   6.666 -0.9853  0.7904 -0.6106
  105OSM    C4F10668   5.294   5.884   6.486  1.0434 -0.9819  0.4759
  105OSM    H4F10669   5.381   5.848   6.545 -0.8629  0.3859  4.4192
  105OSM    H4G10670   5.293   5.994   6.499 -1.0802 -1.0282  0.9587
  105OSM    C5F10671   5.308   5.851   6.338  0.2517 -0.0603  0.0251
  105OSM    H5F10672   5.226   5.913   6.296  2.4531  2.4643 -0.8313
  105OSM    H5G10673   5.282   5.745   6.321  0.0680  0.2438 -1.7241
  105OSM    C6F10674   5.446   5.883   6.277  0.3199  0.2768  0.6158
  105OSM    H6F10675   5.518   5.846   6.353  0.9181 -1.5495 -0.7487
  105OSM    H6G10676   5.456   5.994   6.274  1.2650  0.2255  1.4385
  105OSM    C7F10677   5.478   5.823   6.139  0.1280  0.6127 -0.6501
  105OSM    H7F10678   5.492   5.716   6.165 -3.1905  0.4671  1.1171
  105OSM    H7G10679   5.577   5.855   6.098  0.4607 -1.9384 -2.0620
  105OSM    C8F10680   5.373   5.844   6.021 -0.4827 -0.0049 -0.3445
  105OSM    H8F10681   5.359   5.953   6.008 -0.1774  0.0717 -0.0571
  105OSM    H8G10682   5.273   5.811   6.058 -0.2883  0.1665  0.3524
  105OSM    C9F10683   5.417   5.772   5.900  0.8191  0.3191 -0.2249
  105OSM    H9F10684   5.389   5.666   5.904  3.3680 -0.3697  1.9891
  105OSM   C10F10685   5.478   5.830   5.796  0.0785  1.2414 -0.2108
  105OSM   H10F10686   5.528   5.761   5.726  3.9271  1.0195  2.4047
  105OSM   C11F10687   5.520   5.972   5.781  0.2664  0.5268  0.1209
  105OSM   H11F10688   5.550   6.020   5.876  1.1210  2.0142 -0.8567
  105OSM   H11G10689   5.444   6.026   5.719  1.4149  0.6037 -1.2725
  105OSM   C12F10690   5.646   5.983   5.699 -0.0305  0.6045  0.1711
  105OSM   H12F10691   5.724   5.916   5.741 -2.5364 -2.8290 -0.2728
  105OSM   H12G10692   5.689   6.086   5.700  2.2751 -0.2870  0.2778
  105OSM   C13F10693   5.613   5.962   5.556 -0.4412 -0.4074 -0.2861
  105OSM   H13F10694   5.521   6.019   5.530 -0.2428 -0.4835 -1.1994
  105OSM   H13G10695   5.574   5.859   5.544 -0.5435 -0.7088  2.1653
  105OSM   C14F10696   5.738   5.976   5.462  0.6128 -1.3696 -0.0486
  105OSM   H14F10697   5.809   5.894   5.487  0.9620 -0.4659  2.2153
  105OSM   H14G10698   5.780   6.074   5.492  1.4734 -1.8073  0.2087
  105OSM   C15F10699   5.718   5.975   5.310  0.6836 -0.0751 -0.2183
  105OSM   H15F10700   5.634   6.046   5.295 -0.0367 -0.8270  0.1644
  105OSM   H15G10701   5.691   5.879   5.260  1.9409 -0.2008 -0.7026
  105OSM   C16F10702   5.833   6.048   5.239 -0.4330 -0.6479 -0.0693
  105OSM   H16F10703   5.916   5.975   5.243  0.4819  0.4086  1.4347
  105OSM   H16G10704   5.870   6.134   5.299  0.2384 -0.3712 -0.8789
  105OSM   C17F10705   5.800   6.084   5.099  0.1993 -0.3669  0.6307
  105OSM   H17F10706   5.886   6.135   5.050 -0.6787  1.9558  1.3807
  105OSM   H17G10707   5.721   6.162   5.095  0.3199 -0.2945 -0.5859
  105OSM   C18F10708   5.752   5.972   5.007 -0.5670 -0.3018 -0.5709
  105OSM   H18F10709   5.665   5.919   5.051 -0.1984 -1.6012 -1.3691
  105OSM   H18G10710   5.831   5.895   4.995  1.0297  1.4390 -1.7917
  105OSM   H18H10711   5.716   6.011   4.910 -0.1765  2.3879  0.2718
  106OSM      N10712   3.278   3.227   7.386 -0.0377 -0.1738  0.1346
  106OSM    C1510713   3.389   3.123   7.403 -0.6217  0.5304  0.1882
  106OSM   H15A10714   3.469   3.148   7.335 -3.3293 -0.8340 -3.8045
  106OSM   H15B10715   3.353   3.039   7.347 -0.0921  0.9062 -0.7401
  106OSM   H15C10716   3.416   3.098   7.505 -0.5052  4.9808  1.4939
  106OSM    C1410717   3.161   3.165   7.458 -0.0235 -0.0966  0.4496
  106OSM   H14A10718   3.119   3.088   7.394 -1.4622 -1.0297  2.4252
  106OSM   H14B10719   3.083   3.236   7.482  0.0453 -0.2736  1.2261
  106OSM   H14C10720   3.185   3.118   7.552  1.2786 -0.3859 -0.0132
  106OSM    C1310721   3.318   3.348   7.463 -0.8892 -0.3281 -0.3276
  106OSM   H13A10722   3.402   3.402   7.421 -0.3751 -0.8984 -0.0491
  106OSM   H13B10723   3.348   3.315   7.561  2.9699 -0.1669 -1.3191
  106OSM   H13C10724   3.236   3.418   7.472 -2.6950 -2.3386 -0.3165
  106OSM    C1210725   3.259   3.252   7.238 -1.0209 -0.5300 -0.2476
  106OSM   H12A10726   3.193   3.336   7.226  0.8312  0.9915 -0.2188
  106OSM   H12B10727   3.223   3.166   7.183 -1.7217  0.7925 -1.9552
  106OSM    C1110728   3.397   3.298   7.175 -0.1585 -0.2792  0.7337
  106OSM   H11A10729   3.436   3.389   7.226 -0.7652  1.8878 -2.3157
  106OSM   H11B10730   3.371   3.340   7.075  1.7431 -1.2779 -0.2486
  106OSM      P10731   3.482   3.067   7.081 -0.4273 -0.1463  0.2782
  106OSM    O1310732   3.611   2.994   7.074  0.9110 -0.1496 -0.4941
  106OSM    O1410733   3.357   3.003   7.119 -0.3229  0.5777  0.5829
  106OSM    O1110734   3.463   3.110   6.930 -0.0634 -0.4873 -0.2471
  106OSM    O1210735   3.504   3.205   7.162  0.4367  0.1732  0.5003
  106OSM    C1S10736   3.419   3.008   6.840  0.0590 -0.9826  0.0431
  106OSM    H1S10737   3.315   2.974   6.856  0.1100 -1.0590  0.2201
  106OSM    H1T10738   3.496   2.927   6.847  0.4002 -0.7611 -0.9776
  106OSM     NF10739   3.371   2.973   6.605  0.2020  0.0067  0.3051
  106OSM    HNF10740   3.435   2.899   6.583 -0.3049  0.0287 -1.3611
  106OSM    C2S10741   3.431   3.066   6.692 -0.2503 -0.3544 -0.3674
  106OSM    H2S10742   3.379   3.163   6.682 -0.8358 -0.7712 -1.5543
  106OSM    C3S10743   3.579   3.095   6.653  0.3560 -0.3560  0.5362
  106OSM    H3S10744   3.618   2.991   6.646  1.5789  0.1481 -0.4654
  106OSM     O310745   3.649   3.166   6.753 -0.9507 -0.0847  0.3266
  106OSM    HO310746   3.597   3.152   6.832 -0.4050  1.7396  1.0533
  106OSM    C4S10747   3.603   3.151   6.514 -0.8011 -0.4877 -0.1144
  106OSM    H4S10748   3.589   3.080   6.432  0.7486 -2.3389  1.1359
  106OSM    C5S10749   3.597   3.285   6.475  0.0658  0.5609 -0.4039
  106OSM    H5S10750   3.564   3.351   6.556 -0.7982 -0.7134  0.3278
  106OSM    C6S10751   3.598   3.331   6.336  0.0050 -0.3890 -0.6478
  106OSM    H6S10752   3.565   3.437   6.335  3.0651  0.7350  1.9651
  106OSM    H6T10753   3.531   3.274   6.267  0.2991  1.6866 -2.7981
  106OSM    C7S10754   3.740   3.343   6.282  0.4557  0.0692 -0.4197
  106OSM    H7S10755   3.782   3.241   6.268  2.0366  0.3780  1.5717
  106OSM    H7T10756   3.805   3.415   6.337 -1.5245  3.2587 -1.9709
  106OSM    C8S10757   3.719   3.412   6.146  0.6665 -0.4246 -0.5454
  106OSM    H8S10758   3.812   3.469   6.126  0.0512  0.6311 -0.4507
  106OSM    H8T10759   3.631   3.481   6.146  1.1634  0.2255 -1.5340
  106OSM    C9S10760   3.704   3.314   6.037  0.0853 -0.0177  0.3857
  106OSM    H9S10761   3.605   3.264   6.046  1.0650 -2.2437 -0.5071
  106OSM    H9T10762   3.770   3.226   6.052  0.0314 -0.0930  0.1852
  106OSM   C10S10763   3.732   3.364   5.893  0.0926 -0.1542 -0.6554
  106OSM   H10S10764   3.649   3.430   5.861  1.1008  1.2995 -0.3661
  106OSM   H10T10765   3.731   3.282   5.819 -3.4062 -0.8631 -0.0013
  106OSM   C11S10766   3.875   3.432   5.872  0.3104  0.9922 -0.0394
  106OSM   H11S10767   3.951   3.355   5.898 -1.7164 -1.0617  0.1605
  106OSM   H11T10768   3.881   3.526   5.929  1.2898  1.8639 -1.5157
  106OSM   C12S10769   3.893   3.471   5.726 -0.6610 -0.0414 -0.3909
  106OSM   H12S10770   3.820   3.550   5.699  0.1465  0.5482 -0.8548
  106OSM   H12T10771   3.880   3.383   5.659 -2.1080 -0.5973  0.5637
  106OSM   C13S10772   4.035   3.531   5.702 -0.1268 -0.0009  0.0087
  106OSM   H13S10773   4.111   3.452   5.717  0.3123  0.5691  0.8478
  106OSM   H13T10774   4.052   3.612   5.776  2.8131  0.8243 -1.4428
  106OSM   C14S10775   4.038   3.602   5.564 -0.5591  0.1245  0.2636
  106OSM   H14S10776   4.139   3.642   5.542 -0.9941  1.0746 -0.0664
  106OSM   H14T10777   3.969   3.689   5.570 -0.3581  0.2946  0.0927
  106OSM   C15S10778   4.006   3.518   5.439 -0.0858 -0.6361  0.0966
  106OSM   H15S10779   3.914   3.458   5.455 -1.0056  0.2864 -1.5232
  106OSM   H15T10780   4.090   3.447   5.423 -1.4688 -2.2726 -0.2344
  106OSM   C16S10781   3.986   3.604   5.319 -0.0500  0.2694  0.1235
  106OSM   H16S10782   4.082   3.654   5.293 -0.4412  0.3600 -1.1816
  106OSM   H16T10783   3.912   3.684   5.338  0.2934 -0.2858  5.1696
  106OSM   C17S10784   3.937   3.523   5.197  0.4325 -0.0033 -0.1674
  106OSM   H17S10785   3.833   3.554   5.174  0.4801  1.3101  1.2669
  106OSM   H17T10786   3.944   3.414   5.216 -0.0123 -0.0535 -0.2707
  106OSM   C18S10787   4.026   3.552   5.071  0.3462  0.2523 -0.3179
  106OSM   H18S10788   4.022   3.660   5.044  3.5942  1.1289  2.1100
  106OSM   H18T10789   3.984   3.495   4.985 -0.2600 -0.4080  0.3966
  106OSM   H18U10790   4.127   3.506   5.077 -0.4761 -1.7674 -0.8924
  106OSM    C1F10791   3.244   2.954   6.590  0.0166 -0.3567  0.7137
  106OSM     OF10792   3.162   3.045   6.611  0.0984  0.2472  0.4820
  106OSM    C2F10793   3.197   2.808   6.547  0.6017 -0.3081  0.3929
  106OSM    H2F10794   3.210   2.740   6.634  0.1003 -0.8149  0.0769
  106OSM    H2G10795   3.264   2.782   6.463 -0.0455  1.0200 -0.5919
  106OSM    C3F10796   3.044   2.795   6.503 -0.1283 -0.1795 -0.3762
  106OSM    H3F10797   3.047   2.843   6.403 -0.4186  0.1027 -0.2511
  106OSM    H3G10798   2.988   2.859   6.574  0.7006 -0.6049  0.6988
  106OSM    C4F10799   2.994   2.654   6.500  0.0087  0.4164  0.3516
  106OSM    H4F10800   2.884   2.653   6.485  0.1777  0.5491 -0.9363
  106OSM    H4G10801   3.016   2.605   6.598  1.7729 -2.3908 -1.3191
  106OSM    C5F10802   3.053   2.574   6.386 -0.3466  0.0057  0.5215
  106OSM    H5F10803   3.040   2.475   6.435 -1.6212  0.8075  1.8573
  106OSM    H5G10804   3.164   2.582   6.387 -0.3277 -0.2103  0.3998
  106OSM    C6F10805   2.978   2.610   6.257  0.0962 -0.2964 -0.2240
  106OSM    H6F10806   2.994   2.716   6.227 -1.4493 -0.4277 -1.6781
  106OSM    H6G10807   2.871   2.609   6.284  0.0761 -0.7044 -0.3040
  106OSM    C7F10808   3.005   2.506   6.147  0.0922 -0.1760  0.2868
  106OSM    H7F10809   2.915   2.500   6.082  0.8063  0.7300 -0.8065
  106OSM    H7G10810   3.016   2.416   6.212  1.9922 -0.3083 -0.1382
  106OSM    C8F10811   3.131   2.542   6.073  0.0571  1.0275  1.1441
  106OSM    H8F10812   3.220   2.561   6.136 -0.0758  2.6491  0.8888
  106OSM    H8G10813   3.114   2.640   6.023  1.6264  1.3857  1.2615
  106OSM    C9F10814   3.174   2.435   5.973  0.0873 -0.1372  0.8696
  106OSM    H9F10815   3.229   2.349   6.012  1.5365  0.7562  0.8650
  106OSM   C10F10816   3.164   2.444   5.839 -0.3858 -0.2939 -0.2974
  106OSM   H10F10817   3.210   2.356   5.790 -1.8906 -0.4709 -1.4899
  106OSM   C11F10818   3.102   2.558   5.753 -0.4847  0.3469 -0.3782
  106OSM   H11F10819   3.182   2.603   5.691  0.5547 -0.8894  0.0142
  106OSM   H11G10820   3.049   2.633   5.815  0.2076  0.1191  0.5070
  106OSM   C12F10821   2.985   2.495   5.668  0.3430 -0.3052  1.0176
  106OSM   H12F10822   2.930   2.577   5.618 -1.4260 -0.8184  2.0363
  106OSM   H12G10823   2.909   2.447   5.733 -2.8388 -2.2517 -3.6082
  106OSM   C13F10824   3.038   2.391   5.569  0.2459  0.5521 -0.4914
  106OSM   H13F10825   3.048   2.290   5.614 -1.0401  0.9078  0.6386
  106OSM   H13G10826   3.139   2.423   5.535  2.2190 -2.7434  1.6634
  106OSM   C14F10827   2.937   2.378   5.454  0.2563  0.2168  0.5841
  106OSM   H14F10828   2.956   2.470   5.395 -0.0174  0.4063  0.7915
  106OSM   H14G10829   2.834   2.390   5.492 -0.6420  0.3626 -1.7674
  106OSM   C15F10830   2.958   2.243   5.379 -0.7671  0.0448 -0.0328
  106OSM   H15F10831   2.940   2.154   5.443  2.8973  0.5056  1.9465
  106OSM   H15G10832   3.064   2.234   5.344 -0.9692  0.5909 -0.8052
  106OSM   C16F10833   2.861   2.235   5.256  0.6562  0.4068  0.6934
  106OSM   H16F10834   2.756   2.221   5.289  0.0702  0.1060 -1.1812
  106OSM   H16G10835   2.889   2.146   5.195 -0.2818  0.3745  0.2967
  106OSM   C17F10836   2.868   2.356   5.163  0.4631 -0.9122 -0.0439
  106OSM   H17F10837   2.975   2.367   5.132  0.9099 -2.7757  0.7379
  106OSM   H17G10838   2.834   2.448   5.214 -0.9574 -1.4773  0.0737
  106OSM   C18F10839   2.791   2.339   5.028  0.2105  0.5395 -0.4427
  106OSM   H18F10840   2.807   2.425   4.960 -0.8322  1.5559  0.5628
  106OSM   H18G10841   2.681   2.347   5.041  0.3706  0.5888  1.1231
  106OSM   H18H10842   2.805   2.241   4.977 -1.0844 -0.6131  1.2907
  107OSM      N10843   4.770   2.289   7.260  0.2784  0.3121 -0.0445
  107OSM    C1510844   4.790   2.309   7.409 -0.1266 -0.3908  0.6898
  107OSM   H15A10845   4.876   2.255   7.445  2.6263  2.0229 -1.6521
  107OSM   H15B10846   4.700   2.271   7.455 -0.3541 -2.7808 -1.4975
  107OSM   H15C10847   4.797   2.417   7.419  0.0433 -0.2225 -0.9792
  107OSM    C1410848   4.795   2.149   7.227  0.0904 -0.4275  0.6125
  107OSM   H14A10849   4.777   2.122   7.124  5.8459 -0.6582 -0.6225
  107OSM   H14B10850   4.735   2.074   7.276 -0.5339 -0.6528 -0.4668
  107OSM   H14C10851   4.896   2.120   7.251  0.4164 -1.8753 -2.1304
  107OSM    C1310852   4.630   2.332   7.220 -0.5782  0.5290 -0.1169
  107OSM   H13A10853   4.616   2.438   7.237 -2.6278  0.3731 -0.5129
  107OSM   H13B10854   4.554   2.270   7.267  0.2591  0.2244  0.8744
  107OSM   H13C10855   4.614   2.318   7.114 -1.6282 -2.3470  0.3236
  107OSM    C1210856   4.870   2.382   7.185  0.3575 -0.8963  0.4849
  107OSM   H12A10857   4.828   2.395   7.086 -0.7927  2.9232  1.3129
  107OSM   H12B10858   4.966   2.340   7.158  1.0329  0.8734 -0.0141
  107OSM    C1110859   4.892   2.527   7.237  0.2888 -0.8189 -0.8500
  107OSM   H11A10860   4.975   2.578   7.182  0.3734 -0.6497 -0.5669
  107OSM   H11B10861   4.917   2.524   7.345 -3.9271 -3.3366  0.2945
  107OSM      P10862   4.724   2.666   7.098  0.6347  0.1757  0.4934
  107OSM    O1310863   4.601   2.597   7.056  0.2574  0.4979 -0.0190
  107OSM    O1410864   4.721   2.816   7.109 -0.1772  0.0914 -0.2801
  107OSM    O1110865   4.842   2.637   6.991 -0.6191 -0.5312 -0.6799
  107OSM    O1210866   4.775   2.602   7.232  0.4279  0.4859 -0.3018
  107OSM    C1S10867   4.841   2.544   6.887  0.2102 -0.3373  0.1825
  107OSM    H1S10868   4.757   2.475   6.909 -0.8697  1.0580  0.6019
  107OSM    H1T10869   4.934   2.484   6.873  0.0481  0.1480 -4.4643
  107OSM     NF10870   4.837   2.507   6.637 -0.0151  0.3771  0.7011
  107OSM    HNF10871   4.917   2.493   6.579 -1.6981 -0.9458 -1.4470
  107OSM    C2S10872   4.831   2.607   6.739 -0.3259 -0.5472 -0.1473
  107OSM    H2S10873   4.735   2.662   6.728  0.8990  1.7334 -0.1717
  107OSM    C3S10874   4.942   2.721   6.726  0.3742  0.6456  0.0812
  107OSM    H3S10875   5.035   2.677   6.766  0.5891 -0.0797 -1.1740
  107OSM     O310876   4.922   2.832   6.815  0.4146 -0.1676  0.0465
  107OSM    HO310877   4.878   2.790   6.890 -1.5525 -1.9015 -1.9685
  107OSM    C4S10878   4.952   2.772   6.597  0.0029  0.5644  0.0971
  107OSM    H4S10879   4.867   2.838   6.573 -0.3065  0.1027 -0.0864
  107OSM    C5S10880   5.051   2.741   6.512  0.2988  0.6601 -0.4853
  107OSM    H5S10881   5.121   2.661   6.541 -0.7976 -0.4462 -0.8221
  107OSM    C6S10882   5.063   2.804   6.375  0.5248  0.1334  0.4153
  107OSM    H6S10883   5.069   2.729   6.294 -0.5815  0.5475 -0.0708
  107OSM    H6T10884   5.149   2.874   6.372  1.3114 -0.8292 -1.0666
  107OSM    C7S10885   4.941   2.892   6.333 -0.4674 -0.5072  0.6673
  107OSM    H7S10886   4.936   2.984   6.394  1.2446 -0.1564  0.3023
  107OSM    H7T10887   4.848   2.831   6.338 -0.5764 -0.4703 -0.6357
  107OSM    C8S10888   4.959   2.933   6.186  0.2057 -0.4872  0.2807
  107OSM    H8S10889   4.933   2.857   6.110  1.8402 -0.3153 -0.4733
  107OSM    H8T10890   5.062   2.969   6.168  0.3002 -1.3606 -1.0330
  107OSM    C9S10891   4.871   3.048   6.142  0.6471  0.0259 -0.6267
  107OSM    H9S10892   4.879   3.140   6.203 -0.9272  0.3700 -0.9120
  107OSM    H9T10893   4.765   3.021   6.161  0.5300  0.3799 -0.7824
  107OSM   C10S10894   4.886   3.087   5.992 -0.0047 -0.6038 -0.2680
  107OSM   H10S10895   4.858   2.999   5.930 -0.9238 -0.8727  0.5212
  107OSM   H10T10896   4.988   3.116   5.958 -0.6752  0.5328 -1.4040
  107OSM   C11S10897   4.808   3.218   5.961 -0.1129 -0.5500  0.4768
  107OSM   H11S10898   4.852   3.283   6.040  0.5453 -0.7158  0.2529
  107OSM   H11T10899   4.700   3.202   5.981 -0.7462 -0.4763 -2.4440
  107OSM   C12S10900   4.833   3.273   5.819  0.0047 -0.2646  0.0607
  107OSM   H12S10901   4.901   3.201   5.767  0.9495 -0.5923  1.6817
  107OSM   H12T10902   4.889   3.367   5.837 -2.0224  0.5330  2.7526
  107OSM   C13S10903   4.713   3.305   5.736  0.0386  0.2568 -0.5052
  107OSM   H13S10904   4.649   3.389   5.768 -1.1114 -0.0168 -1.9742
  107OSM   H13T10905   4.646   3.217   5.747  0.0634  0.2708 -0.2269
  107OSM   C14S10906   4.752   3.337   5.593  0.2735 -0.4054  0.3929
  107OSM   H14S10907   4.834   3.266   5.566 -0.1762 -0.6086 -0.4587
  107OSM   H14T10908   4.802   3.435   5.578  0.1241 -0.4922 -0.7558
  107OSM   C15S10909   4.642   3.308   5.487 -0.1797 -0.8438 -0.1375
  107OSM   H15S10910   4.576   3.226   5.521  0.8780 -0.7188  2.4001
  107OSM   H15T10911   4.692   3.287   5.390 -2.2324  0.9181 -1.6803
  107OSM   C16S10912   4.554   3.430   5.455 -0.0677 -0.2460 -0.1816
  107OSM   H16S10913   4.617   3.518   5.432  0.9344 -1.3811 -2.0157
  107OSM   H16T10914   4.491   3.446   5.545 -0.0872  0.4307 -0.3133
  107OSM   C17S10915   4.467   3.405   5.340 -0.3385  1.0936  0.8944
  107OSM   H17S10916   4.416   3.308   5.359  0.3445  0.7679  1.1258
  107OSM   H17T10917   4.529   3.387   5.249  2.5702  1.5002  2.6637
  107OSM   C18S10918   4.362   3.506   5.305  0.4594 -0.2917 -0.0273
  107OSM   H18S10919   4.312   3.476   5.211  0.7868 -0.2415 -0.2208
  107OSM   H18T10920   4.418   3.602   5.296 -1.0859  0.4307 -2.8396
  107OSM   H18U10921   4.288   3.520   5.387 -0.4425  2.8023 -1.2375
  107OSM    C1F10922   4.726   2.439   6.604  0.3247  0.1946  0.1785
  107OSM     OF10923   4.617   2.448   6.664 -0.1866  0.1992 -0.5878
  107OSM    C2F10924   4.746   2.350   6.484 -0.1492 -0.3104  0.3920
  107OSM    H2F10925   4.691   2.254   6.498  0.5837 -0.6477  1.0492
  107OSM    H2G10926   4.855   2.328   6.474 -0.4270 -1.3378 -0.6850
  107OSM    C3F10927   4.679   2.428   6.365 -0.2054 -0.4733 -0.9836
  107OSM    H3F10928   4.726   2.528   6.351 -0.0726 -0.0380  1.8683
  107OSM    H3G10929   4.570   2.441   6.375 -0.3153 -0.9652 -1.4755
  107OSM    C4F10930   4.677   2.342   6.243  0.5532 -0.2969  0.5037
  107OSM    H4F10931   4.612   2.252   6.253 -2.4851  0.7046 -5.4457
  107OSM    H4G10932   4.780   2.303   6.239  0.8493  0.2830  1.9509
  107OSM    C5F10933   4.612   2.401   6.111 -0.5135 -0.0905  0.3884
  107OSM    H5F10934   4.675   2.487   6.080 -0.1418 -0.9141 -1.2280
  107OSM    H5G10935   4.516   2.445   6.144 -0.5579  0.0715  0.0469
  107OSM    C6F10936   4.610   2.290   5.996 -0.7020  0.4127  0.3841
  107OSM    H6F10937   4.530   2.229   6.042  0.0862  1.4460  3.3527
  107OSM    H6G10938   4.706   2.235   5.983  1.0971  3.4561 -0.2301
  107OSM    C7F10939   4.584   2.344   5.859 -0.1973  0.1257  0.0013
  107OSM    H7F10940   4.663   2.415   5.826  0.4878 -1.4568 -2.0452
  107OSM    H7G10941   4.501   2.417   5.866  0.2121  0.4391  3.5508
  107OSM    C8F10942   4.587   2.230   5.749 -0.2207 -0.5210 -0.2950
  107OSM    H8F10943   4.495   2.174   5.775  0.9931 -1.7642  1.5173
  107OSM    H8G10944   4.675   2.163   5.756 -1.3806 -2.5974 -3.2206
  107OSM    C9F10945   4.579   2.283   5.610  0.0210 -0.0305  0.3743
  107OSM    H9F10946   4.637   2.374   5.592  0.4172 -0.3908 -0.1900
  107OSM   C10F10947   4.497   2.238   5.513  0.2455 -0.9941  0.9872
  107OSM   H10F10948   4.494   2.291   5.416  0.6901  1.7458  2.3768
  107OSM   C11F10949   4.392   2.129   5.532 -0.2148 -0.2778  0.8186
  107OSM   H11F10950   4.293   2.165   5.567  0.3412  2.1627  0.1253
  107OSM   H11G10951   4.427   2.056   5.608 -0.7500  0.3182  1.6528
  107OSM   C12F10952   4.379   2.045   5.397  0.8174 -0.5969  0.0203
  107OSM   H12F10953   4.338   2.108   5.315  1.8775  1.8478  1.2848
  107OSM   H12G10954   4.300   1.968   5.414 -0.1225  0.0771 -1.1277
  107OSM   C13F10955   4.508   1.965   5.354  0.0978 -0.4244  0.4165
  107OSM   H13F10956   4.533   1.883   5.424  1.5835 -0.0212  0.4038
  107OSM   H13G10957   4.593   2.036   5.368 -0.3451  0.6180 -1.7124
  107OSM   C14F10958   4.490   1.894   5.222  0.3319  0.6140 -0.1745
  107OSM   H14F10959   4.472   1.971   5.144 -0.9230  1.0351  0.4984
  107OSM   H14G10960   4.392   1.843   5.236 -0.0325  1.3794  0.1625
  107OSM   C15F10961   4.607   1.806   5.180 -0.7396  0.7779  0.1082
  107OSM   H15F10962   4.638   1.735   5.260  2.1834  1.7282 -0.0668
  107OSM   H15G10963   4.685   1.877   5.146  0.5934 -0.3020  0.8012
  107OSM   C16F10964   4.587   1.718   5.050  0.1906  0.1724  0.2971
  107OSM   H16F10965   4.659   1.634   5.051 -0.4710 -0.4013  0.9367
  107OSM   H16G10966   4.599   1.770   4.953  0.4898 -1.3949 -0.5304
  107OSM   C17F10967   4.456   1.642   5.050 -0.5300  0.5508 -0.2466
  107OSM   H17F10968   4.368   1.708   5.036 -0.9805 -0.4172 -2.3069
  107OSM   H17G10969   4.446   1.580   5.142 -0.1147  1.3805  0.3772
  107OSM   C18F10970   4.417   1.552   4.929  0.2426 -0.0455  0.0527
  107OSM   H18F10971   4.473   1.456   4.930  2.1215  1.0066  0.8384
  107OSM   H18G10972   4.442   1.590   4.827 -1.5354 -0.3870 -0.5519
  107OSM   H18H10973   4.312   1.516   4.932 -0.5674  2.0015 -1.3210
  108OSM      N10974   0.458   3.563   6.854 -0.4345 -0.0838 -0.1883
  108OSM    C1510975   0.607   3.574   6.862  0.1517  0.3120  0.0476
  108OSM   H15A10976   0.646   3.561   6.962  0.4951 -2.4660 -0.3438
  108OSM   H15B10977   0.639   3.670   6.824 -1.4554  0.7868 -0.1942
  108OSM   H15C10978   0.656   3.497   6.803 -2.2429 -0.8918 -0.4922
  108OSM    C1410979   0.421   3.414   6.887 -0.0473 -0.6276 -0.4969
  108OSM   H14A10980   0.316   3.392   6.891 -0.4726  1.4327  0.4129
  108OSM   H14B10981   0.451   3.376   6.983 -2.1319  1.5480  1.1163
  108OSM   H14C10982   0.477   3.352   6.818  0.5603 -1.5804  0.8142
  108OSM    C1310983   0.401   3.645   6.959 -0.3945  0.9406 -0.1674
  108OSM   H13A10984   0.295   3.666   6.952 -0.7303  0.2094  2.0286
  108OSM   H13B10985   0.438   3.747   6.954  0.3679  0.9403  3.1596
  108OSM   H13C10986   0.425   3.601   7.054 -0.8044 -0.8540 -0.8590
  108OSM    C1210987   0.399   3.594   6.713 -0.0780 -0.0215 -0.0984
  108OSM   H12A10988   0.292   3.584   6.727 -0.3513  0.0067 -1.9794
  108OSM   H12B10989   0.410   3.511   6.646 -0.2482 -0.2555  0.1582
  108OSM    C1110990   0.428   3.733   6.651  0.4294  0.3648 -0.8177
  108OSM   H11A10991   0.366   3.747   6.560  2.0588  1.4359 -1.8178
  108OSM   H11B10992   0.533   3.733   6.615  1.0546  2.2634  0.8505
  108OSM      P10993   0.277   3.911   6.758  0.1261 -0.2348 -0.2883
  108OSM    O1310994   0.162   3.815   6.774  0.1603 -0.0479  0.8228
  108OSM    O1410995   0.294   4.009   6.863 -0.1889  0.0412 -0.7718
  108OSM    O1110996   0.265   3.977   6.623  0.1856 -0.6458 -0.1142
  108OSM    O1210997   0.417   3.836   6.744  0.4235 -0.0001  0.0232
  108OSM    C1S10998   0.361   4.045   6.544  0.0025 -0.1715  0.2619
  108OSM    H1S10999   0.462   4.009   6.572 -0.4304 -1.0160  0.8094
  108OSM    H1T11000   0.356   4.155   6.554  2.9524  0.0499  0.1685
  108OSM     NF11001   0.441   4.057   6.306  0.1537 -0.0381  0.2415
  108OSM    HNF11002   0.414   4.130   6.243 -0.9040  0.3925  1.1571
  108OSM    C2S11003   0.331   4.011   6.396  0.2448 -0.2103 -0.1589
  108OSM    H2S11004   0.335   3.900   6.396  1.1229 -0.1976 -0.9392
  108OSM    C3S11005   0.191   4.050   6.356 -0.2086  0.2935  0.2267
  108OSM    H3S11006   0.178   4.159   6.342 -0.0416 -0.0688 -3.9642
  108OSM     O311007   0.085   3.997   6.439 -0.0050  0.5246  0.0268
  108OSM    HO311008   0.130   3.973   6.520  1.1099 -0.1412 -0.7691
  108OSM    C4S11009   0.168   3.991   6.221  1.0901 -0.5185  0.0494
  108OSM    H4S11010   0.177   3.881   6.221 -1.5587 -0.8117  1.4258
  108OSM    C5S11011   0.143   4.061   6.109 -0.1074 -0.5647  0.1042
  108OSM    H5S11012   0.156   4.170   6.110  2.5290 -0.7794  2.4118
  108OSM    C6S11013   0.106   4.010   5.972 -0.1910  0.2383 -0.0758
  108OSM    H6S11014   0.185   4.042   5.901 -1.3223  0.8682 -1.0984
  108OSM    H6T11015   0.013   4.055   5.931 -0.9973 -0.8607  0.4832
  108OSM    C7S11016   0.080   3.855   5.963  0.2755  0.1791  0.6938
  108OSM    H7S11017   0.022   3.827   6.054 -2.4047  3.0277  0.0539
  108OSM    H7T11018   0.182   3.811   5.966  0.6164  0.3802 -3.0226
  108OSM    C8S11019   0.008   3.822   5.825 -0.1185 -0.3605 -0.1888
  108OSM    H8S11020  -0.076   3.894   5.826  1.0803  1.0839  0.9634
  108OSM    H8T11021  -0.025   3.717   5.831 -0.7918 -0.0685  2.1083
  108OSM    C9S11022   0.105   3.855   5.707 -0.7329  0.6832  0.7907
  108OSM    H9S11023   0.140   3.756   5.671 -1.0747  0.7432  0.2800
  108OSM    H9T11024   0.188   3.910   5.756  1.4525 -2.2057  0.5972
  108OSM   C10S11025   0.033   3.923   5.591 -0.3960 -0.2365  0.4181
  108OSM   H10S11026  -0.008   4.023   5.619  1.5906  0.1089  2.4087
  108OSM   H10T11027  -0.045   3.852   5.557  0.3710  0.3552 -2.9631
  108OSM   C11S11028   0.122   3.937   5.463 -0.4960 -0.0571  0.4550
  108OSM   H11S11029   0.186   3.846   5.458 -0.3070  0.1381 -1.0658
  108OSM   H11T11030   0.191   4.022   5.481 -1.1628  1.0050 -1.6659
  108OSM   C12S11031   0.056   3.954   5.329  0.7810 -1.0023  0.9063
  108OSM   H12S11032  -0.013   3.868   5.312 -1.0945  0.3154  1.4383
  108OSM   H12T11033   0.124   3.934   5.244 -1.0330 -2.5221 -0.2754
  108OSM   C13S11034  -0.017   4.096   5.317 -0.9883  0.5294  0.6257
  108OSM   H13S11035   0.067   4.161   5.288  0.4283 -1.6311 -0.4047
  108OSM   H13T11036  -0.046   4.137   5.416  0.6044  1.8654  0.5713
  108OSM   C14S11037  -0.139   4.100   5.222 -0.1511 -0.1737  0.1474
  108OSM   H14S11038  -0.169   4.207   5.226 -0.1413 -0.1225 -0.8226
  108OSM   H14T11039  -0.226   4.042   5.260 -2.0097  2.1455 -0.3067
  108OSM   C15S11040  -0.109   4.043   5.078 -0.0470  0.3428 -0.7652
  108OSM   H15S11041  -0.088   3.935   5.095 -1.2408  0.4919  2.2462
  108OSM   H15T11042  -0.020   4.097   5.037  2.3353 -1.2443  1.9198
  108OSM   C16S11043  -0.232   4.067   4.991  0.1624  0.8931 -1.0019
  108OSM   H16S11044  -0.323   4.016   5.030  0.0723 -0.4683 -2.8419
  108OSM   H16T11045  -0.202   4.009   4.901  0.1925  0.9091 -1.0024
  108OSM   C17S11046  -0.253   4.217   4.950  0.2291 -0.0602  0.1619
  108OSM   H17S11047  -0.152   4.260   4.932 -0.0302  0.8341  0.7774
  108OSM   H17T11048  -0.309   4.275   5.026 -3.0096 -1.2556 -1.1545
  108OSM   C18S11049  -0.353   4.229   4.827 -0.0508  0.7852 -0.0946
  108OSM   H18S11050  -0.288   4.233   4.736  1.6214  0.4472  1.0383
  108OSM   H18T11051  -0.413   4.323   4.830  0.0271  0.8661 -0.8484
  108OSM   H18U11052  -0.416   4.138   4.834  0.8599  0.2627  1.7774
  108OSM    C1F11053   0.568   4.014   6.319 -1.0938  0.3737 -0.2090
  108OSM     OF11054   0.594   3.918   6.390  0.3957 -0.1737  0.2457
  108OSM    C2F11055   0.676   4.094   6.257  0.8933 -0.4537 -0.5950
  108OSM    H2F11056   0.692   4.193   6.306 -0.0408  0.7552 -2.6117
  108OSM    H2G11057   0.662   4.102   6.147 -0.5774 -1.0541 -0.4714
  108OSM    C3F11058   0.805   4.015   6.277  0.1615  0.3504 -0.3275
  108OSM    H3F11059   0.793   3.911   6.240 -1.6403  0.6413 -0.6554
  108OSM    H3G11060   0.829   4.006   6.385 -0.1688 -0.6268 -0.3277
  108OSM    C4F11061   0.930   4.075   6.212  0.1401  0.3833  0.6229
  108OSM    H4F11062   1.014   4.035   6.273 -0.7051 -0.4160  1.2823
  108OSM    H4G11063   0.939   4.185   6.228  0.2760  0.5442 -0.4324
  108OSM    C5F11064   0.954   4.027   6.060  0.3873 -0.3046 -0.9729
  108OSM    H5F11065   0.878   4.067   5.990 -0.1546 -1.3750 -1.0155
  108OSM    H5G11066   0.951   3.916   6.061  1.6626 -0.3587 -0.5433
  108OSM    C6F11067   1.098   4.057   6.019  0.7899  0.7274 -0.1310
  108OSM    H6F11068   1.173   4.048   6.100  1.5400  1.0888 -0.7652
  108OSM    H6G11069   1.092   4.167   6.005 -1.8622  0.7487  0.6080
  108OSM    C7F11070   1.148   3.980   5.900 -0.7436 -0.0726  0.1315
  108OSM    H7F11071   1.133   3.880   5.946 -0.6798  0.6088  1.6602
  108OSM    H7G11072   1.257   3.993   5.882 -1.2806  0.8029 -3.1705
  108OSM    C8F11073   1.066   3.979   5.766  0.2525 -0.1697 -0.1587
  108OSM    H8F11074   0.959   3.967   5.794 -0.5403  1.3455 -2.2582
  108OSM    H8G11075   1.086   3.888   5.706  0.5773 -0.1080 -0.1465
  108OSM    C9F11076   1.079   4.100   5.672 -0.0128 -0.2909  0.5734
  108OSM    H9F11077   1.135   4.186   5.710  1.9305 -0.8404 -0.8932
  108OSM   C10F11078   1.020   4.105   5.553  1.1353 -0.5531  0.6261
  108OSM   H10F11079   1.039   4.191   5.488  0.8260 -1.9420 -1.3759
  108OSM   C11F11080   0.934   3.999   5.491  0.4370  0.3127  0.4559
  108OSM   H11F11081   0.828   4.029   5.505  0.3674  0.3553 -0.1339
  108OSM   H11G11082   0.955   3.901   5.539  1.2416 -0.1838 -0.8445
  108OSM   C12F11083   0.959   3.987   5.331  0.4794 -0.2047  0.4355
  108OSM   H12F11084   1.061   3.949   5.306  0.2502 -2.3143  2.3944
  108OSM   H12G11085   0.955   4.094   5.302  4.2822  0.9655  3.4157
  108OSM   C13F11086   0.844   3.906   5.258  0.4781  0.1589 -0.4002
  108OSM   H13F11087   0.757   3.971   5.282  2.1546  2.3391  0.1741
  108OSM   H13G11088   0.850   3.806   5.305  1.1867  0.1007 -0.6004
  108OSM   C14F11089   0.862   3.889   5.102 -0.4417  0.5394  0.4997
  108OSM   H14F11090   0.772   3.840   5.058  0.0320  0.1923 -0.0938
  108OSM   H14G11091   0.943   3.816   5.082 -0.3749 -0.7414  4.5399
  108OSM   C15F11092   0.874   4.029   5.027  0.2793 -0.2537 -0.4321
  108OSM   H15F11093   0.966   4.079   5.065  0.9405 -1.8276  0.1092
  108OSM   H15G11094   0.782   4.086   5.054 -1.8556 -3.3054 -0.7269
  108OSM   C16F11095   0.884   4.025   4.867  1.0286  0.1048  0.1205
  108OSM   H16F11096   0.946   3.938   4.836  1.5049  1.2035 -2.1819
  108OSM   H16G11097   0.938   4.115   4.831 -0.6528  0.4232 -1.7651
  108OSM   C17F11098   0.748   4.004   4.799  0.0740  0.0019 -0.2940
  108OSM   H17F11099   0.701   3.927   4.865 -0.0791 -1.6583 -2.2320
  108OSM   H17G11100   0.764   3.957   4.699 -0.5408 -2.3886  0.6620
  108OSM   C18F11101   0.665   4.128   4.785 -0.3678 -0.3738  0.1453
  108OSM   H18F11102   0.567   4.107   4.736 -0.3220 -1.1956  0.3947
  108OSM   H18G11103   0.717   4.204   4.722  0.5888  0.0970  1.4613
  108OSM   H18H11104   0.645   4.184   4.879  1.5068  2.4197 -0.9693
  109OSM      N11105   1.965   4.369   7.012 -0.8214 -0.8332  0.2306
  109OSM    C1511106   1.853   4.448   6.944  0.5426 -0.3122  0.4797
  109OSM   H15A11107   1.819   4.398   6.855  0.3275 -1.4674  1.1919
  109OSM   H15B11108   1.887   4.544   6.907 -0.0540 -0.0980  0.4828
  109OSM   H15C11109   1.762   4.458   7.002 -1.3941 -1.8976 -2.0510
  109OSM    C1411110   1.996   4.423   7.152 -0.4508 -0.9405  0.7298
  109OSM   H14A11111   2.043   4.520   7.148 -0.4824 -0.9525 -0.3284
  109OSM   H14B11112   2.069   4.355   7.193  0.4349  2.2131  4.9353
  109OSM   H14C11113   1.910   4.425   7.217 -0.0653 -0.0573  1.2346
  109OSM    C1311114   1.928   4.229   7.032 -0.3629  0.5424  0.5526
  109OSM   H13A11115   1.887   4.184   6.942  1.5964 -0.7316  0.2191
  109OSM   H13B11116   1.859   4.220   7.114  0.7326  0.1864  1.4459
  109OSM   H13C11117   2.013   4.166   7.053  1.1890  2.4537  0.2867
  109OSM    C1211118   2.087   4.375   6.916  0.5199 -0.1723  0.3076
  109OSM   H12A11119   2.106   4.478   6.889  1.7851 -0.4332  0.1478
  109OSM   H12B11120   2.057   4.327   6.824 -2.8405  1.3101  0.4782
  109OSM    C1111121   2.222   4.319   6.958  0.1956  0.4978  0.2319
  109OSM   H11A11122   2.284   4.338   6.867  1.7640 -0.6780  1.0120
  109OSM   H11B11123   2.224   4.210   6.975 -1.8157  0.0594 -1.8778
  109OSM      P11124   2.341   4.533   7.068 -0.0495 -0.0501 -0.1647
  109OSM    O1311125   2.226   4.617   7.109 -0.2257 -0.3817  0.0395
  109OSM    O1411126   2.459   4.547   7.148  0.1379 -0.8115  0.0785
  109OSM    O1111127   2.369   4.572   6.919  0.8698  0.1800  0.3650
  109OSM    O1211128   2.291   4.381   7.067  0.3840 -0.4752  0.0855
  109OSM    C1S11129   2.477   4.505   6.851 -0.3019  0.6941 -0.1511
  109OSM    H1S11130   2.473   4.397   6.876  2.2504 -0.1636 -2.8609
  109OSM    H1T11131   2.570   4.558   6.879 -0.0753  1.1583 -1.6795
  109OSM     NF11132   2.563   4.444   6.630 -0.8184  0.2374  0.4460
  109OSM    HNF11133   2.636   4.502   6.595 -1.4699  0.5642 -0.4301
  109OSM    C2S11134   2.458   4.519   6.690  0.0530 -0.5024 -1.0203
  109OSM    H2S11135   2.358   4.482   6.659 -0.1523  0.3779 -1.4244
  109OSM    C3S11136   2.469   4.674   6.652  0.8107  0.2205  0.4783
  109OSM    H3S11137   2.563   4.706   6.702 -0.9926  3.0256  2.3540
  109OSM     O311138   2.372   4.755   6.713  0.3720  0.0353 -0.2188
  109OSM    HO311139   2.345   4.707   6.792 -1.0399  0.8381 -0.1715
  109OSM    C4S11140   2.478   4.690   6.504  0.0071  0.7366 -0.7337
  109OSM    H4S11141   2.574   4.737   6.476  1.0130 -0.0404  1.2375
  109OSM    C5S11142   2.373   4.694   6.420 -0.5885 -0.2093  0.6418
  109OSM    H5S11143   2.273   4.705   6.466 -2.0740 -0.6332 -2.2280
  109OSM    C6S11144   2.380   4.734   6.267 -0.2830  0.0518  0.2339
  109OSM    H6S11145   2.287   4.792   6.247 -2.3199 -1.8832  3.2994
  109OSM    H6T11146   2.376   4.645   6.200 -2.1218 -0.6594  1.1976
  109OSM    C7S11147   2.502   4.821   6.211  0.1004  0.7775 -0.6983
  109OSM    H7S11148   2.600   4.781   6.245  0.6498  2.2682 -0.4457
  109OSM    H7T11149   2.487   4.924   6.250 -0.8136  0.8000 -1.0744
  109OSM    C8S11150   2.514   4.831   6.057 -0.6203 -0.0417  0.4041
  109OSM    H8S11151   2.530   4.727   6.023  2.1738  0.2450  0.5872
  109OSM    H8T11152   2.598   4.904   6.049 -1.4033  0.7011 -1.6770
  109OSM    C9S11153   2.392   4.895   6.001  1.0893 -0.5652  0.1832
  109OSM    H9S11154   2.397   5.006   6.001 -0.7569 -0.4423 -0.0472
  109OSM    H9T11155   2.297   4.878   6.056  0.6337 -1.5768 -0.8799
  109OSM   C10S11156   2.370   4.864   5.852  0.3511 -0.0759  0.2425
  109OSM   H10S11157   2.345   4.756   5.845  0.8812 -0.0955 -3.2519
  109OSM   H10T11158   2.471   4.881   5.808 -0.3276 -0.7280 -1.7202
  109OSM   C11S11159   2.266   4.947   5.773 -0.0875  0.4572  0.3902
  109OSM   H11S11160   2.294   5.053   5.783  0.8942  0.2825 -0.4222
  109OSM   H11T11161   2.164   4.924   5.813  0.8391 -1.7431  1.6588
  109OSM   C12S11162   2.270   4.907   5.620  0.1645 -0.0603 -0.3480
  109OSM   H12S11163   2.207   4.983   5.570  0.1644  0.6943  0.7858
  109OSM   H12T11164   2.219   4.808   5.616 -0.0344  0.0837 -2.4318
  109OSM   C13S11165   2.402   4.904   5.546 -0.6799  0.0014 -0.5094
  109OSM   H13S11166   2.469   4.821   5.575 -0.2424  0.5993  0.2294
  109OSM   H13T11167   2.458   4.997   5.570  0.4986 -0.6962 -0.4817
  109OSM   C14S11168   2.384   4.884   5.391  0.2442  0.6312 -0.8536
  109OSM   H14S11169   2.302   4.948   5.351 -0.6259 -0.6641 -1.2082
  109OSM   H14T11170   2.357   4.778   5.373  0.7182  0.5056 -0.8416
  109OSM   C15S11171   2.521   4.902   5.329  0.3604 -0.1011  0.1534
  109OSM   H15S11172   2.574   4.811   5.365  0.7965  0.1950  0.2646
  109OSM   H15T11173   2.575   4.991   5.367  0.2239 -0.2853  0.7834
  109OSM   C16S11174   2.513   4.915   5.174  0.1661  0.5880 -0.1683
  109OSM   H16S11175   2.458   5.004   5.138 -0.3886  0.3077 -0.0217
  109OSM   H16T11176   2.456   4.828   5.135 -0.4972 -0.2262  2.4433
  109OSM   C17S11177   2.660   4.903   5.110  0.6189  0.0839  0.1740
  109OSM   H17S11178   2.710   4.999   5.134 -0.2380  0.4933  0.3706
  109OSM   H17T11179   2.656   4.908   4.999  1.2084  0.2740  0.1564
  109OSM   C18S11180   2.751   4.784   5.148  0.0158  1.1490  0.2770
  109OSM   H18S11181   2.693   4.691   5.171  0.3091  1.1804  1.1750
  109OSM   H18T11182   2.812   4.807   5.238 -1.9287 -1.0980  2.3218
  109OSM   H18U11183   2.815   4.767   5.059 -2.0253 -1.0045 -0.9141
  109OSM    C1F11184   2.567   4.307   6.643 -0.8485 -0.6214  0.0665
  109OSM     OF11185   2.473   4.245   6.697 -0.4254 -1.0086  0.0911
  109OSM    C2F11186   2.687   4.236   6.573  0.0728 -1.1313 -0.3666
  109OSM    H2F11187   2.769   4.237   6.648  0.9581  0.8959 -1.2788
  109OSM    H2G11188   2.726   4.290   6.484  2.7586 -0.9149  0.8723
  109OSM    C3F11189   2.645   4.092   6.537 -0.1142 -0.8467  0.0569
  109OSM    H3F11190   2.566   4.040   6.595 -2.0351  0.7372 -0.9751
  109OSM    H3G11191   2.729   4.020   6.530  0.1723 -0.4223 -1.2109
  109OSM    C4F11192   2.592   4.088   6.392  0.2445 -0.6223  0.6619
  109OSM    H4F11193   2.665   4.140   6.328 -2.1100  0.7895 -1.0291
  109OSM    H4G11194   2.503   4.155   6.382  2.1087  1.9750  0.4591
  109OSM    C5F11195   2.562   3.947   6.345 -0.0091 -0.1634 -1.0040
  109OSM    H5F11196   2.478   3.899   6.399 -0.5309 -1.4012 -2.8140
  109OSM    H5G11197   2.651   3.883   6.362 -0.0904  0.0372  0.2512
  109OSM    C6F11198   2.538   3.960   6.193  0.2203  0.0767  0.4202
  109OSM    H6F11199   2.608   4.024   6.134 -0.3638  0.1211 -0.2339
  109OSM    H6G11200   2.438   4.006   6.179 -0.5418 -1.5589  0.2166
  109OSM    C7F11201   2.545   3.821   6.120 -0.3793 -0.3027  0.3183
  109OSM    H7F11202   2.518   3.745   6.197 -0.1009 -3.1084 -2.1796
  109OSM    H7G11203   2.649   3.804   6.086  0.1500  0.8265  1.2851
  109OSM    C8F11204   2.440   3.808   5.998 -0.3502 -0.0266 -0.4477
  109OSM    H8F11205   2.337   3.824   6.037 -0.6202 -1.9465 -0.2318
  109OSM    H8G11206   2.433   3.699   5.975  0.1979  0.3056 -2.3158
  109OSM    C9F11207   2.481   3.888   5.876  0.1248  0.2462 -0.0734
  109OSM    H9F11208   2.505   3.992   5.906  0.5269 -0.5309  2.6097
  109OSM   C10F11209   2.508   3.848   5.752 -0.3751 -0.0086 -0.6634
  109OSM   H10F11210   2.540   3.919   5.674 -1.6498  0.0175 -1.1903
  109OSM   C11F11211   2.526   3.708   5.707  0.5448 -0.4124  0.2204
  109OSM   H11F11212   2.520   3.635   5.791 -0.5187  0.9130  1.3348
  109OSM   H11G11213   2.628   3.689   5.667  0.7702  0.3758  0.3951
  109OSM   C12F11214   2.438   3.683   5.584 -0.5032 -0.7639  0.3541
  109OSM   H12F11215   2.333   3.687   5.618 -0.4753 -2.7798  0.8486
  109OSM   H12G11216   2.446   3.583   5.535  2.6107 -0.7140  0.5399
  109OSM   C13F11217   2.438   3.780   5.464  0.2496  0.2820  0.5449
  109OSM   H13F11218   2.416   3.881   5.505  1.5553  0.5501  0.6408
  109OSM   H13G11219   2.365   3.754   5.385  1.0694 -0.5974  0.0503
  109OSM   C14F11220   2.568   3.776   5.383 -0.6714 -0.4966 -0.0805
  109OSM   H14F11221   2.573   3.670   5.353 -1.4445 -0.7589  0.6707
  109OSM   H14G11222   2.649   3.789   5.458  0.2884 -2.3531 -0.7268
  109OSM   C15F11223   2.588   3.878   5.266  0.5272  0.2664 -0.3570
  109OSM   H15F11224   2.695   3.876   5.233  0.5757 -0.1303 -0.1834
  109OSM   H15G11225   2.563   3.974   5.315  0.6917 -0.3053  0.8659
  109OSM   C16F11226   2.497   3.857   5.144  0.4676 -0.0102  0.1370
  109OSM   H16F11227   2.528   3.936   5.073 -0.5485  0.0437 -0.2691
  109OSM   H16G11228   2.392   3.885   5.170  0.6961  0.4022  0.6296
  109OSM   C17F11229   2.521   3.728   5.070 -0.2942  0.7906  0.9353
  109OSM   H17F11230   2.437   3.701   5.004  0.0970  2.1310 -0.1655
  109OSM   H17G11231   2.539   3.649   5.146  0.4422  0.1890  0.1656
  109OSM   C18F11232   2.646   3.734   4.978  0.1541  0.7023 -0.1924
  109OSM   H18F11233   2.644   3.654   4.901 -1.3388 -0.2886  0.8083
  109OSM   H18G11234   2.744   3.729   5.029  1.0832 -2.0267 -2.0398
  109OSM   H18H11235   2.641   3.830   4.923 -1.6211  0.6020 -0.2770
  110OSM      N11236   0.998   1.468   6.858  0.5886  0.0840  0.7207
  110OSM    C1511237   0.855   1.441   6.882 -0.1842 -0.2177  0.3256
  110OSM   H15A11238   0.819   1.507   6.959  2.4067  2.0555 -0.2468
  110OSM   H15B11239   0.836   1.339   6.912 -1.9793 -0.5044 -1.5452
  110OSM   H15C11240   0.803   1.454   6.788  1.2597  1.0867 -0.3233
  110OSM    C1411241   1.010   1.603   6.802 -0.0224  0.1127 -0.5908
  110OSM   H14A11242   1.114   1.630   6.787 -0.0529  1.4589  1.2580
  110OSM   H14B11243   0.967   1.668   6.878 -0.2695  0.7990 -1.3076
  110OSM   H14C11244   0.962   1.621   6.707  1.4191  2.4676 -0.9386
  110OSM    C1311245   1.074   1.442   6.985  0.0555  0.5384 -0.4521
  110OSM   H13A11246   1.180   1.458   6.968  0.3802 -1.3598 -0.4930
  110OSM   H13B11247   1.073   1.338   7.017  1.0654  0.4538 -0.6538
  110OSM   H13C11248   1.044   1.500   7.071 -1.6120  0.6461 -1.0777
  110OSM    C1211249   1.056   1.358   6.765 -0.1152 -0.2718  0.5146
  110OSM   H12A11250   1.057   1.262   6.816  1.1429 -0.9097 -0.6423
  110OSM   H12B11251   1.160   1.383   6.749  0.1549 -1.9186 -0.6216
  110OSM    C1111252   0.981   1.343   6.631  0.1910  0.0557  0.2687
  110OSM   H11A11253   1.040   1.299   6.548 -1.1759 -1.5305  0.0900
  110OSM   H11B11254   0.949   1.444   6.597  1.7145  0.4827  0.0422
  110OSM      P11255   0.884   1.104   6.654  0.0799  0.5799  0.2214
  110OSM    O1311256   0.980   1.059   6.758 -0.0116 -0.1507 -0.1707
  110OSM    O1411257   0.746   1.054   6.675 -0.4294 -0.5434 -0.7788
  110OSM    O1111258   0.934   1.066   6.505  0.2217  0.5716 -0.5997
  110OSM    O1211259   0.872   1.260   6.650 -0.2377 -0.7715  0.4641
  110OSM    C1S11260   0.841   1.101   6.407 -0.6440 -0.4190  0.3010
  110OSM    H1S11261   0.844   1.211   6.397  2.1872 -0.2603  1.8877
  110OSM    H1T11262   0.736   1.072   6.428 -0.0888 -1.4575  1.8492
  110OSM     NF11263   0.788   1.096   6.175  0.2097  0.3020  0.3805
  110OSM    HNF11264   0.706   1.049   6.145  1.1284 -2.1798  1.4961
  110OSM    C2S11265   0.867   1.028   6.272  0.2413  1.0067 -0.0831
  110OSM    H2S11266   0.972   1.050   6.244  0.9613 -3.6755 -2.0120
  110OSM    C3S11267   0.846   0.873   6.284  0.5161 -0.4745  0.3050
  110OSM    H3S11268   0.738   0.867   6.309  0.7042 -0.6292  1.0917
  110OSM     O311269   0.904   0.819   6.398  0.6833  0.1812 -0.1236
  110OSM    HO311270   0.920   0.891   6.460  1.4601  0.1280 -0.2432
  110OSM    C4S11271   0.898   0.804   6.157 -0.2770  0.1419 -0.3030
  110OSM    H4S11272   1.002   0.836   6.143 -0.8100  2.3258  0.3257
  110OSM    C5S11273   0.840   0.706   6.082  0.6198 -0.0641 -0.1534
  110OSM    H5S11274   0.742   0.664   6.109  0.7348 -0.9566 -1.0665
  110OSM    C6S11275   0.902   0.646   5.956 -0.2119 -0.2307  0.5856
  110OSM    H6S11276   0.821   0.632   5.881  0.4648 -3.9789  0.4064
  110OSM    H6T11277   0.929   0.540   5.974  0.8500 -0.0765 -0.0361
  110OSM    C7S11278   1.021   0.724   5.893 -0.1819  0.6969  0.3247
  110OSM    H7S11279   1.108   0.714   5.962  0.8678 -3.0689 -1.3209
  110OSM    H7T11280   0.997   0.832   5.877  3.1815  1.3357 -1.2849
  110OSM    C8S11281   1.079   0.669   5.765  0.0952  0.3254  0.2858
  110OSM    H8S11282   1.084   0.558   5.760 -3.1142  0.0090  1.3992
  110OSM    H8T11283   1.174   0.723   5.750  0.4594  0.4081  2.5576
  110OSM    C9S11284   0.999   0.717   5.645 -0.6193 -0.2117  0.4958
  110OSM    H9S11285   0.978   0.826   5.644  0.5789  0.0356 -0.6908
  110OSM    H9T11286   0.904   0.660   5.643 -0.4708 -0.4545  0.2820
  110OSM   C10S11287   1.076   0.682   5.513  0.3676 -0.5265  0.0792
  110OSM   H10S11288   1.097   0.573   5.511  0.1051 -0.5707 -0.7092
  110OSM   H10T11289   1.176   0.728   5.528 -0.1886  0.6469  0.2733
  110OSM   C11S11290   1.008   0.737   5.387  0.2213 -0.6343 -0.1401
  110OSM   H11S11291   1.011   0.847   5.397  0.7675 -0.4863 -1.6120
  110OSM   H11T11292   0.904   0.701   5.374 -0.0836  0.5183 -1.0421
  110OSM   C12S11293   1.074   0.697   5.249 -0.9217 -0.2146 -0.4017
  110OSM   H12S11294   1.050   0.591   5.228  2.4895 -1.1842  0.0481
  110OSM   H12T11295   1.180   0.704   5.282 -0.8782  1.9179 -0.8539
  110OSM   C13S11296   1.052   0.798   5.137  0.2800  0.3896  0.1932
  110OSM   H13S11297   1.104   0.894   5.156  3.8648 -0.9632 -1.8895
  110OSM   H13T11298   0.946   0.831   5.127  0.0142 -0.1317  1.2241
  110OSM   C14S11299   1.105   0.752   4.999 -0.0265 -0.1912 -0.1727
  110OSM   H14S11300   1.111   0.841   4.933 -1.5101  1.2390  1.4914
  110OSM   H14T11301   1.037   0.673   4.959  0.4553 -0.0485 -1.3101
  110OSM   C15S11302   1.239   0.684   5.013 -0.4711  0.0594 -0.3004
  110OSM   H15S11303   1.234   0.594   5.078  2.2984  0.4077  0.4886
  110OSM   H15T11304   1.317   0.747   5.060  0.6147 -1.1539 -0.4396
  110OSM   C16S11305   1.287   0.642   4.870 -0.1263  0.9014 -0.4351
  110OSM   H16S11306   1.197   0.602   4.819 -1.0215 -1.3327  2.5618
  110OSM   H16T11307   1.351   0.554   4.894 -0.7231  0.7158  0.4962
  110OSM   C17S11308   1.351   0.754   4.788 -0.1575 -0.5372  0.2783
  110OSM   H17S11309   1.450   0.787   4.824  0.0960 -0.7017 -0.2583
  110OSM   H17T11310   1.286   0.842   4.808  0.2552 -0.0710 -0.4064
  110OSM   C18S11311   1.340   0.739   4.637  0.0541  0.5240 -0.2184
  110OSM   H18S11312   1.236   0.709   4.612 -0.0828  1.2017 -0.4722
  110OSM   H18T11313   1.408   0.660   4.599 -0.0042  0.0285  0.6927
  110OSM   H18U11314   1.356   0.839   4.590  3.2597  0.8046  1.2459
  110OSM    C1F11315   0.831   1.215   6.128 -0.0799  0.1134 -0.6339
  110OSM     OF11316   0.943   1.247   6.152 -0.5699 -0.1137  0.6577
  110OSM    C2F11317   0.727   1.291   6.052 -0.0702  0.6786  0.2510
  110OSM    H2F11318   0.638   1.303   6.117  1.5676  2.0481  2.4228
  110OSM    H2G11319   0.697   1.239   5.959 -0.2392 -1.1338  1.2705
  110OSM    C3F11320   0.775   1.436   6.012  0.0753  0.4664  0.2275
  110OSM    H3F11321   0.851   1.439   5.930 -2.1224  2.0802 -1.8940
  110OSM    H3G11322   0.825   1.479   6.101  3.6712 -2.9165  0.1202
  110OSM    C4F11323   0.661   1.529   5.964  0.4250 -0.5181  1.2310
  110OSM    H4F11324   0.717   1.623   5.950  1.8000 -1.0741  2.6608
  110OSM    H4G11325   0.586   1.537   6.046 -1.4243  1.1680 -0.5190
  110OSM    C5F11326   0.590   1.479   5.833  0.3684  0.5503 -0.3206
  110OSM    H5F11327   0.542   1.379   5.846  1.8714 -0.3431 -1.3450
  110OSM    H5G11328   0.663   1.472   5.749 -0.2068 -0.1729 -0.7672
  110OSM    C6F11329   0.465   1.566   5.789  0.2038 -0.8392 -0.2880
  110OSM    H6F11330   0.495   1.673   5.799  1.1194 -1.0984 -0.2059
  110OSM    H6G11331   0.377   1.552   5.855 -0.4582  2.5946 -0.2437
  110OSM    C7F11332   0.408   1.515   5.655 -0.5948 -0.3880  0.3304
  110OSM    H7F11333   0.420   1.405   5.654  3.4437 -0.1170  0.0657
  110OSM    H7G11334   0.480   1.569   5.589  0.1874  0.7705  2.0591
  110OSM    C8F11335   0.258   1.552   5.636 -0.4877  0.1116  0.2540
  110OSM    H8F11336   0.194   1.493   5.704  1.1329 -1.4092  0.5091
  110OSM    H8G11337   0.238   1.508   5.536 -1.2316  1.7241 -0.3411
  110OSM    C9F11338   0.236   1.704   5.648  0.2486  0.0742 -0.7079
  110OSM    H9F11339   0.174   1.723   5.737  0.1214 -0.5840 -0.6499
  110OSM   C10F11340   0.280   1.806   5.570 -0.0869 -0.0214  0.1844
  110OSM   H10F11341   0.247   1.910   5.586  1.8340  0.9839 -1.8713
  110OSM   C11F11342   0.348   1.789   5.441  0.0247  0.4110 -0.0910
  110OSM   H11F11343   0.364   1.679   5.431  1.7327  0.4869  1.3245
  110OSM   H11G11344   0.455   1.819   5.445  0.3306 -0.4452 -1.1171
  110OSM   C12F11345   0.285   1.857   5.318  0.1519  0.6601  0.3916
  110OSM   H12F11346   0.252   1.963   5.330  0.5927  0.7338  0.9838
  110OSM   H12G11347   0.182   1.818   5.305  0.9463 -1.6871  0.7726
  110OSM   C13F11348   0.369   1.830   5.191 -0.2768  0.2401  0.3437
  110OSM   H13F11349   0.389   1.721   5.186 -2.0629 -0.1598  0.9196
  110OSM   H13G11350   0.465   1.884   5.200 -0.5604  0.6308  1.1928
  110OSM   C14F11351   0.299   1.858   5.056  0.1787 -0.3775  0.0733
  110OSM   H14F11352   0.378   1.845   4.979  0.8859 -0.9273  0.8644
  110OSM   H14G11353   0.266   1.964   5.048  2.2223  0.1900 -1.7845
  110OSM   C15F11354   0.179   1.761   5.028 -0.7025 -0.3853 -0.2764
  110OSM   H15F11355   0.100   1.762   5.106 -0.8675 -1.7138 -0.4088
  110OSM   H15G11356   0.230   1.663   5.024  0.3286  0.1728 -1.3865
  110OSM   C16F11357   0.098   1.792   4.901 -0.0714  0.3901  0.0132
  110OSM   H16F11358   0.046   1.888   4.923 -0.2351 -0.0865  1.9006
  110OSM   H16G11359   0.024   1.709   4.897  0.3448 -0.0336  0.9454
  110OSM   C17F11360   0.182   1.790   4.774 -0.4757  0.8339  0.0050
  110OSM   H17F11361   0.216   1.685   4.764 -2.0496 -0.3530  4.6414
  110OSM   H17G11362   0.276   1.849   4.787  0.0980 -0.2461  0.8694
  110OSM   C18F11363   0.113   1.835   4.654  0.7688 -0.6652  0.7663
  110OSM   H18F11364   0.176   1.823   4.564  0.9402 -0.1696  0.8149
  110OSM   H18G11365   0.065   1.935   4.664 -2.5775 -2.1450  0.5177
  110OSM   H18H11366   0.036   1.762   4.623 -0.5125  1.2322 -0.7819
  111OSM      N11367   6.174   0.508   7.186  0.0353  0.3409  0.6879
  111OSM    C1511368   6.280   0.413   7.228  0.5143  0.7506  0.3722
  111OSM   H15A11369   6.276   0.330   7.159  0.8818  0.5420  0.5962
  111OSM   H15B11370   6.266   0.375   7.328  0.8056 -2.0814 -0.5762
  111OSM   H15C11371   6.375   0.464   7.219 -1.3137  4.1474 -1.8451
  111OSM    C1411372   6.036   0.458   7.210 -0.3280  0.0297  0.4245
  111OSM   H14A11373   5.954   0.521   7.177  1.8340  2.0791 -1.4285
  111OSM   H14B11374   6.017   0.433   7.313 -0.5568  0.2007  0.4262
  111OSM   H14C11375   6.019   0.367   7.153  2.2781 -0.1888 -0.1023
  111OSM    C1311376   6.201   0.642   7.241  0.0338 -0.6227 -0.1020
  111OSM   H13A11377   6.301   0.681   7.228 -0.1320  0.1058  0.7494
  111OSM   H13B11378   6.175   0.645   7.345  1.4205  2.6160  0.2655
  111OSM   H13C11379   6.137   0.713   7.191  0.3508 -0.2753 -0.0181
  111OSM    C1211380   6.196   0.518   7.033 -0.7514 -0.5363  0.5103
  111OSM   H12A11381   6.290   0.569   7.015  0.2196 -1.7020  2.0713
  111OSM   H12B11382   6.121   0.590   7.002  0.6157  0.5644 -0.3876
  111OSM    C1111383   6.185   0.400   6.942  1.0158  0.3845  0.6294
  111OSM   H11A11384   6.153   0.427   6.839  2.5742 -2.1885 -0.6307
  111OSM   H11B11385   6.101   0.333   6.971  1.7715 -0.0027  2.0205
  111OSM      P11386   6.432   0.390   6.867  0.0253 -0.5274  0.0099
  111OSM    O1311387   6.491   0.500   6.949  0.3024 -0.0803 -0.4867
  111OSM    O1411388   6.520   0.281   6.832  0.2592 -0.1356 -0.4515
  111OSM    O1111389   6.371   0.461   6.742 -0.0278  0.1669  0.3971
  111OSM    O1211390   6.307   0.329   6.948 -0.4022 -0.1817  0.2008
  111OSM    C1S11391   6.460   0.539   6.660 -0.0800  0.7274  0.5941
  111OSM    H1S11392   6.550   0.479   6.633 -0.9256 -1.2971  2.0127
  111OSM    H1T11393   6.492   0.632   6.712  1.1039 -0.7682  2.7249
  111OSM     NF11394   6.478   0.640   6.434 -0.0912  0.3223  0.1427
  111OSM    HNF11395   6.491   0.738   6.426  1.9973  0.3144  2.2811
  111OSM    C2S11396   6.383   0.583   6.534 -0.1166 -0.3976  0.1701
  111OSM    H2S11397   6.334   0.491   6.496  1.2820 -0.6914 -1.0119
  111OSM    C3S11398   6.272   0.687   6.570 -0.3987  0.1252  0.1867
  111OSM    H3S11399   6.321   0.775   6.617  1.9853 -1.5470  1.0443
  111OSM     O311400   6.178   0.657   6.674  0.1489 -0.1377 -0.6948
  111OSM    HO311401   6.217   0.578   6.712  0.5358  0.1518 -0.4816
  111OSM    C4S11402   6.188   0.728   6.449  0.3753  0.2046 -0.1606
  111OSM    H4S11403   6.240   0.811   6.399 -2.7688  2.9079  0.6584
  111OSM    C5S11404   6.069   0.672   6.402 -0.5079 -0.1010  0.6352
  111OSM    H5S11405   6.023   0.593   6.463 -1.1111  1.0325  1.7187
  111OSM    C6S11406   6.006   0.699   6.274 -0.2834  0.3351 -0.1954
  111OSM    H6S11407   5.924   0.774   6.282  0.5505  1.4309 -1.4472
  111OSM    H6T11408   5.980   0.598   6.236  1.1654 -0.7211  1.4948
  111OSM    C7S11409   6.098   0.756   6.167  0.0053 -0.3416  0.1281
  111OSM    H7S11410   6.179   0.688   6.131 -1.8308 -2.2229 -0.6373
  111OSM    H7T11411   6.153   0.848   6.197  3.0140 -1.8582 -0.2877
  111OSM    C8S11412   6.013   0.773   6.038 -0.5431 -0.0129 -0.7469
  111OSM    H8S11413   5.940   0.857   6.048  1.0434  1.3879 -0.3955
  111OSM    H8T11414   5.955   0.680   6.024 -1.2141  0.3710 -0.5674
  111OSM    C9S11415   6.099   0.795   5.917  0.3144  0.0465 -0.0686
  111OSM    H9S11416   6.170   0.710   5.911  1.9755  1.1397  2.3297
  111OSM    H9T11417   6.164   0.886   5.917 -0.5243  0.6826  1.3643
  111OSM   C10S11418   6.015   0.793   5.787 -0.0610  0.2067 -0.0221
  111OSM   H10S11419   5.929   0.864   5.795  0.1866  0.6144 -0.9044
  111OSM   H10T11420   5.979   0.691   5.763  0.8183  0.0712 -0.8083
  111OSM   C11S11421   6.092   0.843   5.662 -0.0209  0.3419 -0.2665
  111OSM   H11S11422   6.183   0.781   5.650  0.4747  1.5202 -3.6403
  111OSM   H11T11423   6.113   0.951   5.678 -1.4062  0.5376  0.3986
  111OSM   C12S11424   6.003   0.840   5.536  0.1133 -0.2938  0.2147
  111OSM   H12S11425   5.926   0.916   5.560  0.7997  0.6022 -0.3792
  111OSM   H12T11426   5.934   0.753   5.533 -0.4123  0.0813  1.0461
  111OSM   C13S11427   6.080   0.870   5.411 -0.1959  0.5212  0.1680
  111OSM   H13S11428   6.170   0.806   5.407 -0.6064 -0.0104 -1.0523
  111OSM   H13T11429   6.112   0.976   5.422  1.1169  0.0020  1.8921
  111OSM   C14S11430   6.010   0.843   5.278  0.1001 -0.0097 -0.1665
  111OSM   H14S11431   5.910   0.888   5.298 -0.1030 -0.6696  0.3441
  111OSM   H14T11432   6.006   0.733   5.264 -3.0434  0.1827 -1.6082
  111OSM   C15S11433   6.097   0.899   5.164 -0.0541  0.0457 -0.0273
  111OSM   H15S11434   6.176   0.824   5.140 -0.3863 -0.1272 -0.5901
  111OSM   H15T11435   6.148   0.995   5.185  1.5037 -0.4201 -1.4962
  111OSM   C16S11436   6.021   0.923   5.038 -0.1371  0.1503 -0.0838
  111OSM   H16S11437   5.930   0.986   5.050 -0.8226 -0.7799 -0.3153
  111OSM   H16T11438   5.977   0.829   4.998  0.3601 -0.7933  1.5142
  111OSM   C17S11439   6.109   0.980   4.926  0.0377 -0.6903  0.4405
  111OSM   H17S11440   6.193   0.909   4.917 -0.2448 -1.1967  1.5800
  111OSM   H17T11441   6.150   1.080   4.953 -1.6767  0.8263 -2.2040
  111OSM   C18S11442   6.040   0.991   4.790  0.3220 -0.3214 -0.3526
  111OSM   H18S11443   6.098   1.067   4.733  2.3071 -1.4056  0.1385
  111OSM   H18T11444   5.933   1.020   4.783  0.4752  0.5749  0.7891
  111OSM   H18U11445   6.049   0.897   4.731  1.8122 -1.3532  1.3935
  111OSM    C1F11446   6.554   0.562   6.357  0.3580  0.3924  0.4721
  111OSM     OF11447   6.601   0.458   6.401 -0.0756  0.0091  0.5886
  111OSM    C2F11448   6.591   0.606   6.216 -0.2937 -0.0496 -0.0890
  111OSM    H2F11449   6.685   0.665   6.228 -0.3062  0.3258 -1.6355
  111OSM    H2G11450   6.512   0.662   6.162 -0.6590 -0.0590  0.4306
  111OSM    C3F11451   6.612   0.486   6.124  0.2389  0.9805  1.0153
  111OSM    H3F11452   6.531   0.410   6.134  0.9429 -0.1916 -1.4504
  111OSM    H3G11453   6.702   0.432   6.160  2.0691  2.8266 -0.5691
  111OSM    C4F11454   6.663   0.510   5.981  0.2953 -0.7197 -0.4788
  111OSM    H4F11455   6.723   0.604   5.982  1.0332 -1.1523  1.9227
  111OSM    H4G11456   6.569   0.521   5.923 -0.0224  1.2251  0.3142
  111OSM    C5F11457   6.743   0.393   5.933  0.5181 -0.0279  0.0875
  111OSM    H5F11458   6.671   0.308   5.925 -1.5513  1.7585 -1.6073
  111OSM    H5G11459   6.827   0.384   6.005 -0.5218  0.3242  1.3844
  111OSM    C6F11460   6.799   0.426   5.793 -0.7106 -0.5906 -0.6540
  111OSM    H6F11461   6.854   0.331   5.774  0.1559 -0.9391  2.9083
  111OSM    H6G11462   6.874   0.508   5.804 -0.8093 -0.5577 -0.2103
  111OSM    C7F11463   6.705   0.445   5.676  0.4322 -0.1182  0.5872
  111OSM    H7F11464   6.629   0.525   5.693 -0.0644 -0.5648  0.5172
  111OSM    H7G11465   6.631   0.363   5.665 -1.1682  1.2784  0.4495
  111OSM    C8F11466   6.778   0.470   5.543 -0.5269  0.1054 -0.1632
  111OSM    H8F11467   6.808   0.577   5.531  1.0129 -0.4871 -2.2624
  111OSM    H8G11468   6.703   0.458   5.461 -2.2773 -4.0149  1.8032
  111OSM    C9F11469   6.897   0.383   5.509  0.0510  0.1918 -0.2699
  111OSM    H9F11470   6.883   0.278   5.536 -3.0968  0.0397 -2.0628
  111OSM   C10F11471   6.999   0.421   5.429 -0.2517  0.2566  0.6420
  111OSM   H10F11472   7.070   0.341   5.403 -1.1437  0.3098 -2.2552
  111OSM   C11F11473   7.040   0.553   5.364 -0.1045  0.3875  0.4404
  111OSM   H11F11474   7.142   0.588   5.391  0.3687  0.4522 -1.2995
  111OSM   H11G11475   6.965   0.632   5.388 -0.2193  0.2066  0.6798
  111OSM   C12F11476   7.026   0.529   5.210  0.7440  0.2018  0.1820
  111OSM   H12F11477   7.115   0.469   5.182  1.1471 -0.0517  1.9403
  111OSM   H12G11478   7.041   0.627   5.159  0.5106  0.8258  1.2896
  111OSM   C13F11479   6.893   0.460   5.165 -0.4154  0.0673  0.1407
  111OSM   H13F11480   6.803   0.490   5.222  0.6182 -0.8177  2.3765
  111OSM   H13G11481   6.917   0.351   5.174  2.4036  0.6375  0.7238
  111OSM   C14F11482   6.863   0.477   5.020  0.8220 -0.2539 -0.7354
  111OSM   H14F11483   6.919   0.565   4.982  2.1747 -0.3507  0.8749
  111OSM   H14G11484   6.754   0.500   5.018  0.9972  0.5630 -1.7232
  111OSM   C15F11485   6.902   0.363   4.931  0.3286 -0.0742 -0.1938
  111OSM   H15F11486   6.881   0.264   4.977 -0.5025 -0.3893 -1.1832
  111OSM   H15G11487   7.012   0.360   4.917  0.3151  0.2917 -0.3852
  111OSM   C16F11488   6.826   0.362   4.802 -0.2615 -0.2822 -0.1867
  111OSM   H16F11489   6.874   0.281   4.742  1.0591 -0.5993  1.2120
  111OSM   H16G11490   6.851   0.450   4.739 -0.0185 -0.4002 -0.2586
  111OSM   C17F11491   6.679   0.327   4.816  0.2017 -0.8765 -0.5328
  111OSM   H17F11492   6.612   0.406   4.856  0.7587 -1.7562  2.4078
  111OSM   H17G11493   6.668   0.247   4.892 -2.3731  0.2590  0.3934
  111OSM   C18F11494   6.612   0.279   4.693  0.2678  0.3108 -0.1634
  111OSM   H18F11495   6.671   0.194   4.651  1.7579  0.6383  1.1943
  111OSM   H18G11496   6.598   0.354   4.612  0.6298 -1.0645 -1.5562
  111OSM   H18H11497   6.521   0.223   4.726  1.2326  0.0957  2.2992
  112OSM      N11498   2.652   3.161   7.308  0.1772 -0.4524  0.6762
  112OSM    C1511499   2.763   3.072   7.348 -0.0359 -0.1439  0.3311
  112OSM   H15A11500   2.857   3.100   7.303 -1.0446 -0.6119 -2.2479
  112OSM   H15B11501   2.742   2.972   7.314  1.5033 -0.0021 -1.1225
  112OSM   H15C11502   2.772   3.069   7.456  0.7151  1.8283  0.3630
  112OSM    C1411503   2.683   3.290   7.364  0.3126  0.2805  0.0992
  112OSM   H14A11504   2.774   3.337   7.329  1.1062 -0.6847  0.8039
  112OSM   H14B11505   2.688   3.282   7.471  4.1999  3.0034  0.3318
  112OSM   H14C11506   2.608   3.366   7.346  0.7957  0.6021 -0.6024
  112OSM    C1311507   2.653   3.172   7.155 -0.2658 -0.1077 -0.1800
  112OSM   H13A11508   2.561   3.224   7.130  0.1926  0.3802 -0.8852
  112OSM   H13B11509   2.647   3.078   7.101 -1.6162 -0.1152 -0.0602
  112OSM   H13C11510   2.728   3.232   7.106 -0.3752 -0.9333 -1.3928
  112OSM    C1211511   2.515   3.111   7.351 -0.2662 -0.6096 -0.0312
  112OSM   H12A11512   2.514   3.091   7.457 -1.2537  0.1020  0.1069
  112OSM   H12B11513   2.483   3.017   7.308 -0.1703 -1.5119  1.7758
  112OSM    C1111514   2.393   3.204   7.308  0.1777 -0.2362 -0.3424
  112OSM   H11A11515   2.414   3.309   7.338  0.2308  1.3148 -4.9756
  112OSM   H11B11516   2.305   3.167   7.365 -1.8821  2.7346 -1.3266
  112OSM      P11517   2.231   3.270   7.109  0.0270 -0.0314  0.4241
  112OSM    O1311518   2.129   3.164   7.103  0.2971 -0.1523 -0.2516
  112OSM    O1411519   2.195   3.385   7.192  0.5569 -0.3022  0.0482
  112OSM    O1111520   2.259   3.324   6.964 -0.1877 -0.1463 -0.3773
  112OSM    O1211521   2.366   3.207   7.165 -0.0376 -0.1465  0.4009
  112OSM    C1S11522   2.323   3.234   6.867 -0.0121  0.4372  0.1575
  112OSM    H1S11523   2.247   3.167   6.820 -1.1717  1.8579 -0.0835
  112OSM    H1T11524   2.390   3.162   6.917  2.0966  2.4258  0.3782
  112OSM     NF11525   2.446   3.219   6.644  0.2322 -0.0101 -0.3549
  112OSM    HNF11526   2.533   3.169   6.640 -0.8215 -2.0632  0.5529
  112OSM    C2S11527   2.422   3.308   6.761  0.3414 -0.0868 -0.0939
  112OSM    H2S11528   2.371   3.402   6.731 -0.3963 -0.4650 -0.0465
  112OSM    C3S11529   2.553   3.368   6.828  0.1677  0.3552  0.3033
  112OSM    H3S11530   2.603   3.274   6.857 -3.6838 -1.3032  2.3612
  112OSM     O311531   2.534   3.431   6.958 -0.0377 -0.0883  0.0881
  112OSM    HO311532   2.442   3.413   6.977  0.2530 -1.0725  0.6006
  112OSM    C4S11533   2.630   3.448   6.728 -0.1252 -0.0634  0.4664
  112OSM    H4S11534   2.676   3.388   6.648  0.1539  2.8037 -1.6679
  112OSM    C5S11535   2.655   3.582   6.735  0.2508  0.0029  0.3768
  112OSM    H5S11536   2.620   3.639   6.823  3.6142  0.1849  1.7672
  112OSM    C6S11537   2.735   3.676   6.645 -0.1269  0.1071  0.0180
  112OSM    H6S11538   2.824   3.718   6.696  0.6369 -1.0033 -0.3602
  112OSM    H6T11539   2.665   3.760   6.623  1.3275  1.2271 -0.5639
  112OSM    C7S11540   2.794   3.623   6.506 -0.6920  0.3764  0.1728
  112OSM    H7S11541   2.855   3.532   6.529 -1.1814  0.2512  1.0491
  112OSM    H7T11542   2.863   3.696   6.460  1.7208 -1.7718  0.1049
  112OSM    C8S11543   2.697   3.581   6.397  0.7242  0.1127 -0.1555
  112OSM    H8S11544   2.621   3.657   6.372  1.0269  0.5597  0.2819
  112OSM    H8T11545   2.636   3.493   6.427 -2.8602  2.0368 -1.1651
  112OSM    C9S11546   2.772   3.537   6.269  0.1644 -0.4040  0.2750
  112OSM    H9S11547   2.856   3.468   6.294  1.3209  0.9132  0.1883
  112OSM    H9T11548   2.815   3.623   6.213  0.2119 -0.1180  0.7439
  112OSM   C10S11549   2.678   3.462   6.167  0.0498  0.1841  0.5493
  112OSM   H10S11550   2.588   3.525   6.150  0.7673  1.1825  0.3494
  112OSM   H10T11551   2.630   3.370   6.206 -3.5444  1.4408 -0.4926
  112OSM   C11S11552   2.744   3.440   6.032 -0.0351 -0.9460  0.0804
  112OSM   H11S11553   2.819   3.359   6.041  3.0927  1.7723  0.5569
  112OSM   H11T11554   2.795   3.533   5.997 -0.3143 -0.9296 -0.2826
  112OSM   C12S11555   2.640   3.400   5.922  0.1371  0.6368  0.3120
  112OSM   H12S11556   2.560   3.473   5.898  0.3615  1.1757  1.1547
  112OSM   H12T11557   2.585   3.314   5.966  0.3633  0.1495 -0.3343
  112OSM   C13S11558   2.708   3.360   5.789 -0.2913 -0.7727  0.5364
  112OSM   H13S11559   2.798   3.297   5.805 -1.3758 -2.4311  0.3091
  112OSM   H13T11560   2.753   3.455   5.754 -0.7719 -0.4028  0.9123
  112OSM   C14S11561   2.628   3.286   5.679  0.0316  0.8850 -0.4667
  112OSM   H14S11562   2.528   3.333   5.674 -0.9732 -1.2080 -1.1202
  112OSM   H14T11563   2.611   3.186   5.723  0.6327  0.7121 -0.6056
  112OSM   C15S11564   2.688   3.279   5.539 -0.1657  0.7700 -0.0975
  112OSM   H15S11565   2.769   3.204   5.548 -0.8893  0.1056  1.0887
  112OSM   H15T11566   2.723   3.383   5.521 -0.4540  1.2848  2.0615
  112OSM   C16S11567   2.600   3.229   5.430 -0.2437 -0.1169  0.7035
  112OSM   H16S11568   2.492   3.258   5.433  0.1688  1.5233  0.8724
  112OSM   H16T11569   2.600   3.118   5.424 -2.7865 -0.1802  0.8280
  112OSM   C17S11570   2.652   3.292   5.294  0.3584  0.4852 -0.6247
  112OSM   H17S11571   2.749   3.254   5.257  0.4939 -0.8243  0.9434
  112OSM   H17T11572   2.657   3.402   5.302  1.8442  0.4271 -0.5013
  112OSM   C18S11573   2.549   3.252   5.185 -0.6961 -0.2793 -0.3757
  112OSM   H18S11574   2.455   3.308   5.204 -1.3629 -1.3742 -0.3046
  112OSM   H18T11575   2.522   3.144   5.184 -0.9341 -0.2413  0.6198
  112OSM   H18U11576   2.585   3.284   5.085 -0.7602  1.2273  0.0546
  112OSM    C1F11577   2.347   3.174   6.568 -0.6728  0.4229  0.8025
  112OSM     OF11578   2.237   3.225   6.579 -0.0382 -0.3823  0.4141
  112OSM    C2F11579   2.384   3.070   6.458  0.7257  0.2369 -0.4300
  112OSM    H2F11580   2.349   2.967   6.479  0.9517  0.3869  0.7884
  112OSM    H2G11581   2.495   3.064   6.454  0.7932  1.3148 -0.4794
  112OSM    C3F11582   2.316   3.121   6.324 -0.5665  0.4057 -0.2190
  112OSM    H3F11583   2.348   3.225   6.303 -0.8364  0.6435  0.5421
  112OSM    H3G11584   2.206   3.135   6.331 -0.3968  1.0888  1.4705
  112OSM    C4F11585   2.362   3.031   6.205  0.1810  0.2634  0.5917
  112OSM    H4F11586   2.301   2.939   6.204  0.9986 -0.2839 -0.8132
  112OSM    H4G11587   2.469   3.006   6.224  0.3842  1.1824  0.7004
  112OSM    C5F11588   2.335   3.091   6.071 -0.0973 -1.0474  0.1385
  112OSM    H5F11589   2.397   3.176   6.038 -1.4743 -0.5671 -1.3220
  112OSM    H5G11590   2.230   3.124   6.088  0.0411 -0.7091  0.3339
  112OSM    C6F11591   2.339   2.984   5.952  0.6881  0.1490  0.3321
  112OSM    H6F11592   2.260   2.908   5.971  1.4561 -1.2877 -1.8864
  112OSM    H6G11593   2.439   2.937   5.952 -0.7410 -3.2083  0.6684
  112OSM    C7F11594   2.309   3.050   5.821  0.4140 -0.5587  0.1945
  112OSM    H7F11595   2.378   3.132   5.793  0.9313 -1.9965 -3.1851
  112OSM    H7G11596   2.214   3.107   5.818  0.2243 -0.9168 -1.6611
  112OSM    C8F11597   2.306   2.932   5.712  0.4890  0.2641 -0.3030
  112OSM    H8F11598   2.214   2.871   5.728  0.7559 -0.3760 -1.1870
  112OSM    H8G11599   2.393   2.871   5.746 -0.3437  0.3706  2.2582
  112OSM    C9F11600   2.326   2.994   5.576 -0.5758 -0.4282  0.6987
  112OSM    H9F11601   2.401   3.074   5.578  2.6054 -2.8180 -3.8781
  112OSM   C10F11602   2.256   2.966   5.460 -0.5614  0.2055 -0.4208
  112OSM   H10F11603   2.271   3.031   5.372  1.8095 -1.5559 -1.4479
  112OSM   C11F11604   2.156   2.855   5.446  0.0225  0.2156 -0.3779
  112OSM   H11F11605   2.146   2.799   5.541  2.3407  0.1420 -0.1246
  112OSM   H11G11606   2.200   2.776   5.381 -0.3065 -0.6188  0.3989
  112OSM   C12F11607   2.031   2.903   5.378 -0.7483  0.1750 -0.1885
  112OSM   H12F11608   2.010   3.004   5.420 -1.2577  0.1471 -0.3673
  112OSM   H12G11609   1.948   2.834   5.404 -1.5649  1.3381  0.3821
  112OSM   C13F11610   2.058   2.930   5.227  0.1684  0.3959  0.2166
  112OSM   H13F11611   2.052   2.828   5.183 -3.2127  0.9334 -0.9020
  112OSM   H13G11612   2.160   2.973   5.219  1.2659 -1.8286  1.3808
  112OSM   C14F11613   1.954   3.016   5.161 -1.1380  0.2767 -0.7686
  112OSM   H14F11614   1.938   3.102   5.230 -1.6915 -1.0288  0.7922
  112OSM   H14G11615   1.857   2.965   5.143 -0.7421 -0.4567 -0.8631
  112OSM   C15F11616   1.979   3.090   5.025 -0.9449  0.4984 -0.3090
  112OSM   H15F11617   1.993   3.017   4.942  2.9028  1.6274 -0.8581
  112OSM   H15G11618   2.073   3.147   5.041 -0.0876 -1.0873  0.4357
  112OSM   C16F11619   1.865   3.179   4.993 -0.5937  0.0583  0.1056
  112OSM   H16F11620   1.834   3.221   5.091  0.6109  0.0775  0.4954
  112OSM   H16G11621   1.771   3.123   4.974 -0.1831 -0.9239  0.8745
  112OSM   C17F11622   1.893   3.288   4.886  0.6662 -0.3059  0.5343
  112OSM   H17F11623   1.925   3.245   4.788 -0.2610  0.7380 -0.2557
  112OSM   H17G11624   1.968   3.360   4.925  0.6798 -0.7942  1.4331
  112OSM   C18F11625   1.767   3.366   4.853  0.5211  0.1342  0.6421
  112OSM   H18F11626   1.793   3.435   4.770 -0.1390 -0.5097 -0.1115
  112OSM   H18G11627   1.728   3.421   4.941 -0.4565  0.3049  0.1076
  112OSM   H18H11628   1.683   3.303   4.817 -0.7255  2.3161 -0.4436
  113OSM      N11629   6.058   4.653   6.998 -1.3717 -0.2328 -0.3559
  113OSM    C1511630   6.032   4.647   7.147  0.1356  0.0654  0.2566
  113OSM   H15A11631   5.967   4.726   7.178  1.4721  1.7077 -0.9192
  113OSM   H15B11632   6.126   4.674   7.193 -0.2564  1.1077  0.4682
  113OSM   H15C11633   6.013   4.546   7.181  2.5895 -0.1202  1.3328
  113OSM    C1411634   6.135   4.783   6.972 -0.0888 -0.4946  0.0075
  113OSM   H14A11635   6.067   4.863   6.998  0.1023 -0.4274  0.3055
  113OSM   H14B11636   6.168   4.791   6.869 -1.9357  1.3432 -0.5082
  113OSM   H14C11637   6.225   4.793   7.030 -1.4022  0.8012  1.9656
  113OSM    C1311638   6.150   4.540   6.963  0.5258 -0.3499  0.3491
  113OSM   H13A11639   6.099   4.445   6.969 -1.0491  0.4831  0.5863
  113OSM   H13B11640   6.239   4.540   7.023 -0.3358 -0.4461  1.6522
  113OSM   H13C11641   6.170   4.553   6.857  0.8176  0.9432  0.5429
  113OSM    C1211642   5.935   4.640   6.916 -0.4726  0.6321 -0.3660
  113OSM   H12A11643   5.874   4.562   6.959 -0.9369  0.7495 -0.8062
  113OSM   H12B11644   5.949   4.615   6.812 -1.7045  0.8270 -0.5907
  113OSM    C1111645   5.851   4.765   6.916 -0.0699  0.0729 -0.4358
  113OSM   H11A11646   5.834   4.789   7.023  0.5583 -1.5985  0.0691
  113OSM   H11B11647   5.755   4.727   6.874  0.9914 -3.3269 -0.0838
  113OSM      P11648   5.889   4.896   6.686  0.0911 -0.1077  0.1574
  113OSM    O1311649   5.753   4.925   6.650 -0.5823 -0.6499  0.4664
  113OSM    O1411650   5.997   5.001   6.656 -0.2097  0.1243 -0.0144
  113OSM    O1111651   5.933   4.746   6.642  0.3142 -0.0563 -0.1325
  113OSM    O1211652   5.884   4.875   6.843  0.1215  0.1344 -0.1158
  113OSM    C1S11653   5.837   4.641   6.609 -0.4865 -0.1627  0.0371
  113OSM    H1S11654   5.741   4.654   6.663  0.2613  0.0548  1.3632
  113OSM    H1T11655   5.881   4.544   6.640  0.4505  0.3691  0.3901
  113OSM     NF11656   5.721   4.520   6.425  0.0770  0.2284  0.7001
  113OSM    HNF11657   5.767   4.433   6.409  0.1232  0.7923 -3.3251
  113OSM    C2S11658   5.813   4.628   6.453 -0.4527  0.3463  0.1015
  113OSM    H2S11659   5.774   4.727   6.422  0.3622  1.1015  1.4110
  113OSM    C3S11660   5.950   4.602   6.380 -0.2754  0.2168  0.3464
  113OSM    H3S11661   6.001   4.506   6.399 -1.4734 -0.6906 -0.7986
  113OSM     O311662   6.047   4.702   6.401 -0.5326  0.4090 -0.3857
  113OSM    HO311663   6.050   4.717   6.496  2.4945 -0.2160 -0.2941
  113OSM    C4S11664   5.931   4.603   6.232 -0.1629  0.0679 -0.0072
  113OSM    H4S11665   5.903   4.705   6.202  0.4584  1.1036  2.7394
  113OSM    C5S11666   5.950   4.501   6.146  0.1209 -0.1145 -0.5880
  113OSM    H5S11667   5.989   4.404   6.181 -2.2361 -1.0820 -0.4480
  113OSM    C6S11668   5.926   4.522   6.000  0.7701  0.1659  0.7118
  113OSM    H6S11669   5.880   4.618   5.969  0.3021 -0.2558  0.0595
  113OSM    H6T11670   5.844   4.449   5.979  2.6970 -1.8821 -0.0373
  113OSM    C7S11671   6.046   4.482   5.912  0.7810 -1.2622  0.4428
  113OSM    H7S11672   6.098   4.388   5.941  2.3324 -0.9349 -1.0897
  113OSM    H7T11673   6.120   4.565   5.919 -0.4909 -0.0427 -0.0397
  113OSM    C8S11674   6.013   4.467   5.757  0.6477  0.0279 -0.4417
  113OSM    H8S11675   5.948   4.552   5.728 -0.2400 -0.1906  0.8125
  113OSM    H8T11676   5.964   4.367   5.750  0.0167  0.1695  1.4653
  113OSM    C9S11677   6.130   4.458   5.665 -0.4459 -0.5186 -0.1036
  113OSM    H9S11678   6.197   4.373   5.691 -1.2336 -1.1917 -0.2428
  113OSM    H9T11679   6.193   4.549   5.679 -1.6358  0.4185 -0.6427
  113OSM   C10S11680   6.073   4.453   5.522 -0.4631 -0.7750 -0.4322
  113OSM   H10S11681   6.015   4.547   5.506  1.8239  1.0528  1.2660
  113OSM   H10T11682   6.012   4.362   5.502 -1.3598 -0.0946 -0.8794
  113OSM   C11S11683   6.183   4.443   5.416 -0.5680 -0.3551  0.6071
  113OSM   H11S11684   6.258   4.524   5.427  0.6514 -0.5791 -4.0513
  113OSM   H11T11685   6.145   4.455   5.313  1.8610  0.0225 -0.2925
  113OSM   C12S11686   6.267   4.311   5.421  0.3865  0.7089 -0.0414
  113OSM   H12S11687   6.200   4.224   5.435 -0.4575  1.3660  0.0336
  113OSM   H12T11688   6.337   4.311   5.507  0.1328 -2.8979  0.3226
  113OSM   C13S11689   6.356   4.285   5.296  0.1088  0.9088  0.0009
  113OSM   H13S11690   6.411   4.190   5.314 -3.3004 -1.4231 -0.9894
  113OSM   H13T11691   6.420   4.375   5.281  0.1775  0.7559 -0.6547
  113OSM   C14S11692   6.275   4.267   5.169  0.5144 -0.5588  0.7558
  113OSM   H14S11693   6.339   4.245   5.081  2.9377  0.9323  2.0391
  113OSM   H14T11694   6.214   4.354   5.136  0.6162 -0.1856  1.5468
  113OSM   C15S11695   6.164   4.159   5.179 -1.2029 -0.0936  0.3951
  113OSM   H15S11696   6.086   4.195   5.250 -0.1596  2.1295  0.4919
  113OSM   H15T11697   6.202   4.064   5.224  1.0082 -0.4484 -1.9868
  113OSM   C16S11698   6.111   4.127   5.044  0.2853  0.6286  0.3289
  113OSM   H16S11699   6.186   4.091   4.971 -1.2216  0.5169 -1.2427
  113OSM   H16T11700   6.078   4.223   4.997 -3.9616 -0.7604  0.0268
  113OSM   C17S11701   5.978   4.035   5.038  0.4114 -0.3952 -0.7984
  113OSM   H17S11702   5.903   4.094   5.095  1.1796  0.6964 -0.8979
  113OSM   H17T11703   6.005   3.945   5.098 -1.1976 -0.7750 -0.5926
  113OSM   C18S11704   5.917   3.994   4.905 -0.0079 -1.2173  0.3004
  113OSM   H18S11705   5.989   3.949   4.833  0.2354  1.5460 -1.3096
  113OSM   H18T11706   5.880   4.081   4.847 -0.0954 -2.0659 -0.9582
  113OSM   H18U11707   5.822   3.936   4.915 -0.4931 -0.5762 -0.4362
  113OSM    C1F11708   5.589   4.534   6.433 -0.7151 -0.1080 -0.0819
  113OSM     OF11709   5.543   4.637   6.481  0.3423 -0.3709  0.1332
  113OSM    C2F11710   5.492   4.432   6.390  0.2614 -0.0680 -0.2667
  113OSM    H2F11711   5.456   4.389   6.486  0.3505 -0.0168 -0.2097
  113OSM    H2G11712   5.546   4.351   6.336 -1.9944 -1.3360 -0.7332
  113OSM    C3F11713   5.364   4.487   6.311  0.3406  0.0462  0.4132
  113OSM    H3F11714   5.314   4.559   6.379  0.8011  0.1861  0.6066
  113OSM    H3G11715   5.288   4.408   6.294 -0.1851  0.2393  1.7828
  113OSM    C4F11716   5.397   4.565   6.193 -0.0140 -0.3796  0.0228
  113OSM    H4F11717   5.467   4.648   6.212  1.4081 -1.7428  1.0013
  113OSM    H4G11718   5.306   4.617   6.155 -0.0797 -0.5906 -0.1167
  113OSM    C5F11719   5.453   4.475   6.081 -0.6223 -0.1338  0.4648
  113OSM    H5F11720   5.388   4.387   6.063  0.4201 -0.8675  0.1664
  113OSM    H5G11721   5.553   4.431   6.103 -0.1056  0.1789 -1.1915
  113OSM    C6F11722   5.477   4.548   5.945 -0.4848 -1.4629  0.6182
  113OSM    H6F11723   5.561   4.619   5.956 -0.1297 -1.7780 -0.0267
  113OSM    H6G11724   5.395   4.612   5.905  0.0821 -1.1297 -0.0249
  113OSM    C7F11725   5.514   4.460   5.825  0.2173  0.4988  0.8318
  113OSM    H7F11726   5.443   4.374   5.819  2.5393 -1.4978  0.6057
  113OSM    H7G11727   5.616   4.415   5.828 -0.3886 -1.0790 -0.4263
  113OSM    C8F11728   5.504   4.531   5.692 -0.0054 -0.0039 -0.0970
  113OSM    H8F11729   5.575   4.617   5.700  0.8487 -0.7615  0.6669
  113OSM    H8G11730   5.400   4.565   5.671 -0.1401  0.3393  1.0642
  113OSM    C9F11731   5.550   4.448   5.575  0.0061  0.0667  0.0138
  113OSM    H9F11732   5.642   4.388   5.590 -0.1615 -0.3971 -0.7698
  113OSM   C10F11733   5.491   4.435   5.451 -0.5239 -0.3954 -0.5914
  113OSM   H10F11734   5.539   4.370   5.376 -1.2003  0.8704 -2.1576
  113OSM   C11F11735   5.371   4.514   5.402 -0.0251 -0.1186  0.0499
  113OSM   H11F11736   5.317   4.569   5.483 -0.1663  0.0373 -0.1491
  113OSM   H11G11737   5.305   4.437   5.356  1.0630 -1.0074 -0.0557
  113OSM   C12F11738   5.425   4.613   5.293  0.6130  0.5399 -0.1523
  113OSM   H12F11739   5.482   4.552   5.220 -1.0181 -2.2174  0.6846
  113OSM   H12G11740   5.495   4.689   5.332  0.2927 -0.1627  1.9720
  113OSM   C13F11741   5.319   4.656   5.192 -0.7224  0.0280  0.3668
  113OSM   H13F11742   5.277   4.571   5.135  0.4078  0.7357 -1.6162
  113OSM   H13G11743   5.353   4.731   5.118 -2.0706  1.6242  1.2905
  113OSM   C14F11744   5.201   4.728   5.260 -0.6540  0.0697 -0.6908
  113OSM   H14F11745   5.221   4.837   5.270 -1.5407  0.2238 -0.5338
  113OSM   H14G11746   5.179   4.679   5.357  1.6803  0.8115  0.2732
  113OSM   C15F11747   5.068   4.718   5.182 -0.0131  1.0281 -0.3053
  113OSM   H15F11748   4.990   4.730   5.259 -1.7637  0.5629 -1.9308
  113OSM   H15G11749   5.065   4.614   5.144 -2.1775  0.6476  0.7563
  113OSM   C16F11750   5.069   4.812   5.062 -0.6544 -0.2023 -0.4078
  113OSM   H16F11751   5.161   4.784   5.006  0.4067 -0.0077  1.1499
  113OSM   H16G11752   5.078   4.916   5.101  0.9916 -0.1268 -0.9115
  113OSM   C17F11753   4.944   4.806   4.964  0.5394 -0.3807 -0.8921
  113OSM   H17F11754   4.854   4.837   5.022  2.1909  0.0173  1.6298
  113OSM   H17G11755   4.933   4.699   4.935  0.0795 -0.3495 -0.8413
  113OSM   C18F11756   4.961   4.904   4.847 -0.1621  0.2153 -0.9468
  113OSM   H18F11757   4.960   5.004   4.895  1.8208 -0.6464  1.0558
  113OSM   H18G11758   4.877   4.894   4.775 -0.7019  1.7892 -0.5744
  113OSM   H18H11759   5.060   4.899   4.798 -0.2642  3.3212 -1.6613
  114OSM      N11760   0.762   4.224   6.967  0.8250 -0.0152 -0.4700
  114OSM    C1511761   0.775   4.368   7.032  0.3251 -0.1357 -0.1579
  114OSM   H15A11762   0.698   4.406   7.097  0.9651 -1.1195  1.2254
  114OSM   H15B11763   0.786   4.445   6.957 -0.0835 -0.5293 -0.6337
  114OSM   H15C11764   0.868   4.371   7.087 -0.5928  0.5856  1.4193
  114OSM    C1411765   0.888   4.202   6.887  0.2859  0.4838  0.8114
  114OSM   H14A11766   0.973   4.176   6.949  0.9009  0.7784  0.1141
  114OSM   H14B11767   0.913   4.285   6.823  0.8437  0.4016  0.9195
  114OSM   H14C11768   0.870   4.121   6.818  1.5664  0.8562  0.0138
  114OSM    C1311769   0.766   4.134   7.082  0.4224 -0.0305 -0.3325
  114OSM   H13A11770   0.768   4.030   7.053  1.2222  0.6523 -3.0507
  114OSM   H13B11771   0.679   4.160   7.140  0.3159 -0.8859 -0.1082
  114OSM   H13C11772   0.860   4.147   7.134  0.5093 -0.4074 -0.3952
  114OSM    C1211773   0.636   4.223   6.889 -0.2540  0.0260 -0.4593
  114OSM   H12A11774   0.565   4.293   6.932 -1.1995 -0.7283 -0.7399
  114OSM   H12B11775   0.590   4.125   6.886 -0.1184 -0.0215 -1.6984
  114OSM    C1111776   0.641   4.272   6.740 -0.3620  0.5060 -0.4941
  114OSM   H11A11777   0.539   4.265   6.696 -0.2948  0.1570 -0.6029
  114OSM   H11B11778   0.702   4.193   6.691  1.7241  0.4305  2.0274
  114OSM      P11779   0.620   4.524   6.713  0.6453 -0.1781  0.5824
  114OSM    O1311780   0.529   4.550   6.823  0.3644 -0.1623 -0.1186
  114OSM    O1411781   0.703   4.629   6.661  0.2429 -0.4455  0.1682
  114OSM    O1111782   0.535   4.482   6.582  0.3894  0.7196 -0.0586
  114OSM    O1211783   0.705   4.400   6.715  0.3244  0.2853  0.1123
  114OSM    C1S11784   0.603   4.468   6.457  0.2557  0.0361 -1.0927
  114OSM    H1S11785   0.596   4.364   6.419 -2.7084  0.4777 -2.0071
  114OSM    H1T11786   0.709   4.500   6.471  0.8953 -2.3536 -0.0535
  114OSM     NF11787   0.596   4.530   6.220 -0.8941 -0.3182  0.0013
  114OSM    HNF11788   0.668   4.591   6.188 -0.5620 -0.0679  1.1932
  114OSM    C2S11789   0.534   4.563   6.346  1.1022  0.3982  0.1367
  114OSM    H2S11790   0.429   4.528   6.339  2.0102 -3.0108  1.5919
  114OSM    C3S11791   0.537   4.715   6.383 -0.2814  0.2945 -0.1667
  114OSM    H3S11792   0.644   4.742   6.400 -0.1886  0.2524 -0.6803
  114OSM     O311793   0.468   4.753   6.499 -0.6789 -0.0594 -0.1301
  114OSM    HO311794   0.439   4.676   6.548 -0.0171  0.1453  0.5980
  114OSM    C4S11795   0.499   4.808   6.272  1.0133 -0.3317  0.7524
  114OSM    H4S11796   0.593   4.831   6.219  1.4262 -0.3817  1.4467
  114OSM    C5S11797   0.381   4.840   6.219 -0.4274 -0.4575 -0.1712
  114OSM    H5S11798   0.290   4.800   6.267  0.5355 -0.1045  2.0612
  114OSM    C6S11799   0.361   4.922   6.090  0.2328 -0.0030 -0.9761
  114OSM    H6S11800   0.291   5.006   6.108 -1.1323 -1.2364 -0.3413
  114OSM    H6T11801   0.312   4.862   6.011 -2.0658 -0.1363  0.4510
  114OSM    C7S11802   0.506   4.972   6.038  0.6882  0.2815 -0.0795
  114OSM    H7S11803   0.569   4.883   6.019  0.4233  0.0135  0.2647
  114OSM    H7T11804   0.557   5.049   6.100 -0.1888  1.0000 -0.2192
  114OSM    C8S11805   0.488   5.057   5.903  0.1492  0.1230  0.7351
  114OSM    H8S11806   0.579   5.116   5.882  0.4685 -0.1965  1.2063
  114OSM    H8T11807   0.406   5.131   5.913  0.6240  0.2908  5.1915
  114OSM    C9S11808   0.459   4.968   5.776 -0.3903 -0.5856  0.5331
  114OSM    H9S11809   0.380   4.896   5.807  0.7036 -1.6692  0.8955
  114OSM    H9T11810   0.558   4.930   5.742  0.8413  2.3869  0.5246
  114OSM   C10S11811   0.413   5.045   5.649  0.1047  0.1556 -1.2385
  114OSM   H10S11812   0.410   5.155   5.660  1.2906  0.0193  1.1733
  114OSM   H10T11813   0.309   5.017   5.621 -1.4419  4.4817 -0.6041
  114OSM   C11S11814   0.503   5.019   5.523  0.1688 -0.0071 -0.3211
  114OSM   H11S11815   0.494   4.909   5.509 -0.2352  0.0599 -0.6101
  114OSM   H11T11816   0.607   5.038   5.557  0.1920 -0.4175 -0.1488
  114OSM   C12S11817   0.460   5.112   5.405  0.2641  0.2000 -0.7418
  114OSM   H12S11818   0.486   5.214   5.439 -1.9158  0.7829 -0.6670
  114OSM   H12T11819   0.350   5.101   5.391 -0.0828  0.4359  1.4008
  114OSM   C13S11820   0.530   5.084   5.261  0.2134  0.4531  0.2556
  114OSM   H13S11821   0.641   5.082   5.269  0.1540  0.3358  1.0757
  114OSM   H13T11822   0.516   5.167   5.189  1.5202 -0.1822 -0.7999
  114OSM   C14S11823   0.493   4.949   5.205  0.1607 -0.3344  0.5262
  114OSM   H14S11824   0.384   4.938   5.224  0.4454  0.2132  2.8405
  114OSM   H14T11825   0.532   4.870   5.273  1.0899 -0.0663  0.3129
  114OSM   C15S11826   0.521   4.931   5.059 -0.0377  0.8118  0.2521
  114OSM   H15S11827   0.625   4.892   5.055 -0.8044 -1.6946  2.0007
  114OSM   H15T11828   0.502   5.032   5.016 -3.4431  1.0774  2.0393
  114OSM   C16S11829   0.428   4.826   4.996 -0.3510 -0.1835 -0.1442
  114OSM   H16S11830   0.327   4.854   5.032 -0.1710  0.4443 -0.1061
  114OSM   H16T11831   0.452   4.723   5.029 -0.5654 -1.0206 -2.3972
  114OSM   C17S11832   0.420   4.836   4.846 -0.5852 -0.0006  0.1217
  114OSM   H17S11833   0.401   4.940   4.810  2.4410  0.0866 -1.6005
  114OSM   H17T11834   0.329   4.785   4.809  0.1828  0.1672 -2.1591
  114OSM   C18S11835   0.535   4.783   4.764  0.3600 -0.6113  0.1902
  114OSM   H18S11836   0.517   4.786   4.655  0.0926 -0.5484  0.2347
  114OSM   H18T11837   0.548   4.675   4.785  1.3327 -0.7905 -1.2519
  114OSM   H18U11838   0.630   4.838   4.779  1.5886 -1.4548 -3.5011
  114OSM    C1F11839   0.565   4.419   6.153  0.8952 -0.2243  0.2333
  114OSM     OF11840   0.464   4.346   6.179 -0.1490 -0.1669 -0.0614
  114OSM    C2F11841   0.652   4.407   6.037  0.8447  0.3191 -0.6966
  114OSM    H2F11842   0.669   4.298   6.026  1.5813  0.5745 -2.5919
  114OSM    H2G11843   0.754   4.451   6.049  0.7430  0.4335 -0.2684
  114OSM    C3F11844   0.587   4.455   5.906 -0.2845  0.2601 -0.2149
  114OSM    H3F11845   0.590   4.565   5.921 -0.1257 -0.0442  2.5849
  114OSM    H3G11846   0.481   4.427   5.887 -0.8596  2.8282 -1.2138
  114OSM    C4F11847   0.662   4.411   5.779 -0.4147  0.4474 -0.1926
  114OSM    H4F11848   0.668   4.300   5.777  2.0465  0.5164 -0.1206
  114OSM    H4G11849   0.769   4.441   5.784 -0.5413  1.4668 -2.4034
  114OSM    C5F11850   0.612   4.465   5.647  0.1971  0.0732  0.0990
  114OSM    H5F11851   0.639   4.573   5.644  0.8451 -0.0225  1.5545
  114OSM    H5G11852   0.502   4.454   5.639  0.0204  2.5110 -2.8372
  114OSM    C6F11853   0.666   4.388   5.525  0.6256  0.3404  0.5018
  114OSM    H6F11854   0.618   4.290   5.541  0.5467  0.3471  0.3077
  114OSM    H6G11855   0.777   4.391   5.534  0.7732 -1.1283 -0.6448
  114OSM    C7F11856   0.626   4.451   5.380  0.6129  0.2665 -0.1218
  114OSM    H7F11857   0.661   4.556   5.387  0.0768  0.5086 -0.9574
  114OSM    H7G11858   0.515   4.458   5.379  0.6439  0.8100 -0.1855
  114OSM    C8F11859   0.673   4.375   5.254 -0.3288 -0.4218  0.1671
  114OSM    H8F11860   0.654   4.266   5.256  0.6317 -0.7046 -2.3243
  114OSM    H8G11861   0.783   4.389   5.256 -0.6338  3.2566 -0.6165
  114OSM    C9F11862   0.613   4.431   5.122  0.2305 -0.1075 -0.2246
  114OSM    H9F11863   0.513   4.397   5.093  0.2976  1.8291 -3.1751
  114OSM   C10F11864   0.667   4.529   5.050  0.1748  0.3506  0.2802
  114OSM   H10F11865   0.611   4.577   4.969  0.3910  0.4225  0.1710
  114OSM   C11F11866   0.795   4.599   5.079 -0.0066 -0.3893  0.2866
  114OSM   H11F11867   0.857   4.548   5.156 -0.3973  1.2685  1.7771
  114OSM   H11G11868   0.773   4.690   5.140 -1.9975 -0.5516 -0.1268
  114OSM   C12F11869   0.876   4.630   4.953 -0.2695  0.2572 -0.6466
  114OSM   H12F11870   0.955   4.701   4.987 -0.7320  0.7299 -0.5510
  114OSM   H12G11871   0.830   4.694   4.875 -1.1886 -1.4574 -1.5672
  114OSM   C13F11872   0.939   4.505   4.895 -0.6178 -0.2634  0.0021
  114OSM   H13F11873   0.866   4.435   4.850  0.7808 -0.8652 -1.4452
  114OSM   H13G11874   0.988   4.451   4.979  1.3304  0.9266 -0.3089
  114OSM   C14F11875   1.039   4.545   4.791 -0.2328 -0.3980  0.0669
  114OSM   H14F11876   1.133   4.582   4.838  0.7250 -2.0507 -0.4523
  114OSM   H14G11877   0.999   4.633   4.738 -0.7417 -0.8452 -0.3055
  114OSM   C15F11878   1.055   4.441   4.678 -0.3111  0.0467 -0.0346
  114OSM   H15F11879   0.962   4.409   4.626  0.4020 -1.8882 -0.2014
  114OSM   H15G11880   1.085   4.349   4.732 -0.3565  0.0900  0.0634
  114OSM   C16F11881   1.175   4.472   4.583 -0.8991 -0.0898  0.0142
  114OSM   H16F11882   1.203   4.377   4.533 -0.5856  0.5796 -1.1160
  114OSM   H16G11883   1.264   4.497   4.645  0.8573  0.3328 -2.5231
  114OSM   C17F11884   1.164   4.583   4.470  0.7026  0.5066 -0.4392
  114OSM   H17F11885   1.260   4.581   4.414  0.0759 -0.2440 -1.5310
  114OSM   H17G11886   1.159   4.680   4.523 -2.6206  0.9072 -1.2868
  114OSM   C18F11887   1.044   4.551   4.378 -0.2108  0.6151 -0.4736
  114OSM   H18F11888   1.065   4.449   4.341  3.7216  0.4509  1.7123
  114OSM   H18G11889   1.041   4.628   4.298 -0.3599 -0.2952 -1.3629
  114OSM   H18H11890   0.950   4.548   4.438  0.1676 -0.2236  0.0945
  115OSM      N11891   5.208   5.512   7.135 -0.1634  0.2160 -0.2253
  115OSM    C1511892   5.064   5.544   7.116  0.5871 -0.0594  0.0805
  115OSM   H15A11893   5.054   5.648   7.144  3.4103 -0.2347  2.1522
  115OSM   H15B11894   5.005   5.486   7.186  1.9660  0.0964  1.4285
  115OSM   H15C11895   5.028   5.523   7.017 -3.0791 -2.7606  1.7434
  115OSM    C1411896   5.239   5.527   7.282 -0.1849  0.3584 -0.0660
  115OSM   H14A11897   5.226   5.630   7.309 -1.8631  0.7147 -1.9844
  115OSM   H14B11898   5.343   5.502   7.294 -0.1844  0.3034 -0.1798
  115OSM   H14C11899   5.164   5.472   7.337 -0.1086  0.8524  0.5408
  115OSM    C1311900   5.232   5.370   7.096  0.3692  1.2754 -0.2596
  115OSM   H13A11901   5.215   5.357   6.990  2.2707  2.9284 -0.8410
  115OSM   H13B11902   5.167   5.307   7.155  0.3172  0.1273 -1.4958
  115OSM   H13C11903   5.331   5.334   7.116  0.2261  1.5666  1.0283
  115OSM    C1211904   5.294   5.605   7.043  0.7685  0.4255  0.2846
  115OSM   H12A11905   5.282   5.592   6.937  3.0617 -2.0057  0.2100
  115OSM   H12B11906   5.397   5.573   7.051  0.0735 -2.1011 -0.1781
  115OSM    C1111907   5.291   5.760   7.064  0.0128 -0.1973 -1.3958
  115OSM   H11A11908   5.185   5.791   7.071  0.3709  0.7766  0.2852
  115OSM   H11B11909   5.335   5.807   6.974  2.0299 -0.9019 -0.8362
  115OSM      P11910   5.526   5.797   7.182  0.2606  0.2487  0.4321
  115OSM    O1311911   5.570   5.899   7.275  0.3272  0.2390  0.2643
  115OSM    O1411912   5.572   5.660   7.204  0.3738 -0.0433  0.9144
  115OSM    O1111913   5.570   5.843   7.041 -0.1211 -0.7254 -0.2096
  115OSM    O1211914   5.367   5.792   7.187  0.1775 -0.8496  0.5068
  115OSM    C1S11915   5.595   5.748   6.935  0.2156  0.9186 -0.5312
  115OSM    H1S11916   5.539   5.655   6.958  0.0292  1.3051  0.6573
  115OSM    H1T11917   5.702   5.724   6.957 -0.1936  0.9918  1.8248
  115OSM     NF11918   5.599   5.711   6.685  0.1931  0.3696 -0.5024
  115OSM    HNF11919   5.668   5.735   6.616 -2.6578  0.4366 -3.6083
  115OSM    C2S11920   5.582   5.810   6.791  0.7657  0.0782  0.5994
  115OSM    H2S11921   5.477   5.844   6.780  0.0280 -1.5394  2.1293
  115OSM    C3S11922   5.675   5.935   6.777  0.1655 -0.4081 -0.6587
  115OSM    H3S11923   5.779   5.897   6.782  0.7060  1.0978 -0.1018
  115OSM     O311924   5.675   6.028   6.885 -0.4304 -0.3143  0.1876
  115OSM    HO311925   5.630   5.977   6.953 -3.0749  1.3557 -0.1423
  115OSM    C4S11926   5.655   6.003   6.646 -0.5058  0.1780  0.0130
  115OSM    H4S11927   5.553   5.995   6.605  0.3367 -1.8830 -1.8772
  115OSM    C5S11928   5.745   6.066   6.568 -0.7371 -0.4162  0.7891
  115OSM    H5S11929   5.849   6.064   6.605 -0.5679 -4.7508  0.5490
  115OSM    C6S11930   5.719   6.112   6.431 -0.0497 -0.0513  0.1038
  115OSM    H6S11931   5.743   6.220   6.430 -0.3549  0.0155 -0.1305
  115OSM    H6T11932   5.611   6.120   6.407 -0.2179  0.0553  0.8850
  115OSM    C7S11933   5.797   6.045   6.316 -0.4817 -0.2534  0.4093
  115OSM    H7S11934   5.793   5.934   6.323  1.3634 -0.3402  0.5685
  115OSM    H7T11935   5.904   6.072   6.324 -0.1642 -0.0307 -3.0711
  115OSM    C8S11936   5.763   6.096   6.166  0.4762 -0.4779  0.2028
  115OSM    H8S11937   5.761   6.207   6.162 -0.1077 -0.5041 -0.4183
  115OSM    H8T11938   5.666   6.056   6.129  0.6430 -0.4240 -0.3037
  115OSM    C9S11939   5.876   6.045   6.078 -0.3317 -0.2823  0.2966
  115OSM    H9S11940   5.852   5.940   6.047  1.3624 -1.6059  3.0940
  115OSM    H9T11941   5.979   6.048   6.120 -0.9644  1.5881  1.8518
  115OSM   C10S11942   5.887   6.129   5.944 -0.2623 -0.1819  0.2643
  115OSM   H10S11943   5.889   6.238   5.966 -0.1660 -0.4544  1.7128
  115OSM   H10T11944   5.794   6.113   5.885 -0.7675 -0.9227  1.2293
  115OSM   C11S11945   6.011   6.092   5.867 -0.7585 -0.2026 -0.1824
  115OSM   H11S11946   6.021   5.982   5.853  0.6089 -0.1648  0.2926
  115OSM   H11T11947   6.101   6.112   5.929 -0.1744 -0.7257 -0.8268
  115OSM   C12S11948   6.023   6.160   5.732 -0.1928  0.1538  0.4217
  115OSM   H12S11949   5.932   6.223   5.734 -2.0032 -2.3131  1.5240
  115OSM   H12T11950   5.978   6.097   5.653 -0.3980 -2.1269  2.2433
  115OSM   C13S11951   6.158   6.219   5.697  0.1899 -0.2663 -0.4304
  115OSM   H13S11952   6.221   6.129   5.677 -0.9399 -1.2058  0.1035
  115OSM   H13T11953   6.213   6.261   5.784  2.2856  0.6770 -2.1181
  115OSM   C14S11954   6.155   6.329   5.586 -0.4803 -0.2995  0.4603
  115OSM   H14S11955   6.256   6.375   5.593 -1.2075  1.1974  1.4702
  115OSM   H14T11956   6.084   6.411   5.609  1.4832  0.9107  2.6262
  115OSM   C15S11957   6.128   6.270   5.443 -0.6896  0.0145 -0.8810
  115OSM   H15S11958   6.022   6.238   5.439  0.0767 -2.5063 -2.4767
  115OSM   H15T11959   6.197   6.184   5.432  0.4711  0.5261  1.6033
  115OSM   C16S11960   6.155   6.371   5.336  0.1808  0.1343  0.2261
  115OSM   H16S11961   6.265   6.388   5.343 -0.1823  2.6897  0.6284
  115OSM   H16T11962   6.103   6.466   5.359  0.3233  0.5795 -1.2064
  115OSM   C17S11963   6.112   6.326   5.195  0.3987 -0.0719  0.2826
  115OSM   H17S11964   6.004   6.302   5.199  0.4556 -0.1784  1.3341
  115OSM   H17T11965   6.169   6.235   5.168  0.7925  0.1672  0.2902
  115OSM   C18S11966   6.124   6.431   5.081 -0.1746  0.3959  0.0663
  115OSM   H18S11967   6.060   6.521   5.088 -0.0591  0.3424  3.3410
  115OSM   H18T11968   6.099   6.383   4.984 -0.7458  1.3942 -0.2895
  115OSM   H18U11969   6.228   6.460   5.056  0.1147 -0.4192  0.2780
  115OSM    C1F11970   5.519   5.610   6.662 -0.2226  0.1735 -0.0154
  115OSM     OF11971   5.446   5.557   6.749 -0.1279  0.3121  0.0808
  115OSM    C2F11972   5.532   5.556   6.532  0.5199  0.5646 -0.0631
  115OSM    H2F11973   5.637   5.520   6.527  0.8512  0.8447  2.9097
  115OSM    H2G11974   5.513   5.635   6.456 -1.0045  0.7043  0.4283
  115OSM    C3F11975   5.438   5.437   6.512  0.3880  0.1262  0.1407
  115OSM    H3F11976   5.333   5.465   6.534  0.7231  1.4663  0.1284
  115OSM    H3G11977   5.482   5.358   6.576  0.8546  0.1396 -0.1578
  115OSM    C4F11978   5.455   5.381   6.373 -0.4654 -0.3389  0.0012
  115OSM    H4F11979   5.462   5.270   6.377  0.4469 -0.2549  3.0267
  115OSM    H4G11980   5.554   5.409   6.331 -1.1744  0.9439 -0.8735
  115OSM    C5F11981   5.357   5.431   6.262 -0.4747 -0.0787 -0.3810
  115OSM    H5F11982   5.355   5.541   6.277  1.2394 -0.0554 -0.1725
  115OSM    H5G11983   5.252   5.403   6.285 -0.7296  0.5711 -0.7353
  115OSM    C6F11984   5.387   5.385   6.118 -0.4567  0.1671  0.2703
  115OSM    H6F11985   5.400   5.275   6.114  2.3604  0.4338 -0.7110
  115OSM    H6G11986   5.482   5.431   6.083 -0.2489 -1.0390 -0.8626
  115OSM    C7F11987   5.278   5.429   6.016 -0.0584 -0.2947 -0.2430
  115OSM    H7F11988   5.268   5.540   6.012  1.8307 -0.1165 -1.8619
  115OSM    H7G11989   5.179   5.392   6.048 -0.6137  0.4089 -1.1098
  115OSM    C8F11990   5.304   5.383   5.868 -0.5800 -0.6445  0.5437
  115OSM    H8F11991   5.347   5.281   5.878  1.3333  0.2024  1.5694
  115OSM    H8G11992   5.386   5.445   5.827 -1.0560  1.1256  2.0933
  115OSM    C9F11993   5.187   5.371   5.779  0.5875 -0.3137 -0.1912
  115OSM    H9F11994   5.124   5.285   5.805  0.9585 -0.3108  0.7458
  115OSM   C10F11995   5.146   5.442   5.677  0.0289 -0.8300  0.1331
  115OSM   H10F11996   5.060   5.412   5.616 -0.0866  0.9624 -0.6381
  115OSM   C11F11997   5.230   5.557   5.620  0.3755  0.4345 -0.2335
  115OSM   H11F11998   5.302   5.604   5.690  2.0928 -0.4585 -1.3137
  115OSM   H11G11999   5.157   5.636   5.591  0.5476  0.3390 -0.9457
  115OSM   C12F12000   5.306   5.518   5.490 -0.0636 -0.0292  0.4548
  115OSM   H12F12001   5.236   5.472   5.417  0.4721 -0.4950  0.2324
  115OSM   H12G12002   5.383   5.440   5.506 -0.2369 -0.2992 -0.0036
  115OSM   C13F12003   5.369   5.643   5.424  0.6717  0.0534 -0.0568
  115OSM   H13F12004   5.425   5.703   5.499  1.2725 -0.2528 -0.2461
  115OSM   H13G12005   5.290   5.709   5.381  2.9800  1.5062 -2.4022
  115OSM   C14F12006   5.466   5.603   5.311 -0.1199  0.7886  0.4007
  115OSM   H14F12007   5.509   5.509   5.352 -0.7156  0.9675  1.4743
  115OSM   H14G12008   5.530   5.693   5.308  0.1723  0.6923  2.2977
  115OSM   C15F12009   5.412   5.573   5.169  0.5487 -0.1500  0.2256
  115OSM   H15F12010   5.307   5.607   5.160  0.7553  0.7059  0.9250
  115OSM   H15G12011   5.421   5.464   5.148 -0.2500 -0.0497 -0.7190
  115OSM   C16F12012   5.490   5.648   5.056 -0.0651  0.2182  0.2835
  115OSM   H16F12013   5.596   5.617   5.067 -0.1951 -0.4662 -0.2804
  115OSM   H16G12014   5.488   5.757   5.077 -0.0577  0.5123 -1.1308
  115OSM   C17F12015   5.452   5.607   4.916  0.2700 -0.2606  0.2710
  115OSM   H17F12016   5.343   5.628   4.907 -0.0410 -0.7723  2.2741
  115OSM   H17G12017   5.463   5.499   4.894  1.7452 -0.5542  2.1989
  115OSM   C18F12018   5.524   5.692   4.816 -0.4233  0.6451 -0.3008
  115OSM   H18F12019   5.632   5.680   4.838 -0.4110 -2.3390 -1.5677
  115OSM   H18G12020   5.484   5.796   4.811  1.6422  1.4579 -0.8150
  115OSM   H18H12021   5.504   5.643   4.718 -1.1195  0.8494 -0.2651
  116OSM      N12022   0.538   4.925   6.838 -0.1125  0.7872 -0.7330
  116OSM    C1512023   0.571   4.821   6.936  0.2075  0.7258  0.9570
  116OSM   H15A12024   0.556   4.723   6.894 -1.3253  1.6881 -0.9047
  116OSM   H15B12025   0.512   4.832   7.026  0.8018  1.5762  1.2606
  116OSM   H15C12026   0.674   4.829   6.969  0.9381 -0.3092 -0.8857
  116OSM    C1412027   0.388   4.923   6.822 -0.3360  0.3311 -0.6073
  116OSM   H14A12028   0.354   4.824   6.794  2.9120 -1.1492  0.1749
  116OSM   H14B12029   0.359   5.003   6.756  0.2124  1.4134  0.4130
  116OSM   H14C12030   0.339   4.936   6.917 -0.2275 -2.5588 -0.0704
  116OSM    C1312031   0.578   5.051   6.904  0.1053  0.7843 -0.5936
  116OSM   H13A12032   0.530   5.136   6.860  0.6180  1.1009 -0.5515
  116OSM   H13B12033   0.686   5.047   6.902  0.1535  1.7990 -0.1618
  116OSM   H13C12034   0.542   5.062   7.005 -0.7463 -2.2575 -0.4653
  116OSM    C1212035   0.605   4.905   6.704 -0.0985  0.6175 -0.4013
  116OSM   H12A12036   0.562   4.818   6.656  0.9464  0.0586 -0.3402
  116OSM   H12B12037   0.708   4.877   6.718 -0.2401  0.7709  1.0506
  116OSM    C1112038   0.591   5.019   6.607 -0.1033  0.6760 -0.7978
  116OSM   H11A12039   0.484   5.046   6.602 -0.2472  0.5906  1.3153
  116OSM   H11B12040   0.620   4.985   6.505 -1.9145 -0.4858 -0.9745
  116OSM      P12041   0.818   5.149   6.638  0.0640 -0.2715 -0.0304
  116OSM    O1312042   0.877   5.281   6.676  0.3973  0.0686  0.3728
  116OSM    O1412043   0.862   5.033   6.720  0.1516 -0.3211 -0.0536
  116OSM    O1112044   0.842   5.116   6.482 -0.1194 -0.6619 -0.6541
  116OSM    O1212045   0.659   5.139   6.648  0.2680  0.1909 -0.7267
  116OSM    C1S12046   0.975   5.067   6.452  0.4203 -0.1655 -0.3893
  116OSM    H1S12047   0.990   4.965   6.494  0.2720 -0.1374 -0.2667
  116OSM    H1T12048   1.059   5.129   6.491  2.0143 -2.8277  0.7104
  116OSM     NF12049   1.107   4.960   6.263  0.2743  0.0339  0.0381
  116OSM    HNF12050   1.184   5.000   6.214 -0.5624  1.1030 -0.4471
  116OSM    C2S12051   0.988   5.048   6.294 -0.2211 -0.2817  0.4641
  116OSM    H2S12052   0.895   4.997   6.261 -0.1965 -0.9809  1.4294
  116OSM    C3S12053   0.994   5.190   6.222  0.3581  0.0277 -0.5757
  116OSM    H3S12054   1.088   5.242   6.252  0.1473  2.1297 -3.1511
  116OSM     O312055   0.889   5.277   6.274  0.1989  0.7071 -0.0958
  116OSM    HO312056   0.851   5.215   6.336  0.0008  1.0077  0.0820
  116OSM    C4S12057   0.996   5.193   6.072  0.0230  0.1179  0.0511
  116OSM    H4S12058   1.096   5.222   6.037  0.8204 -0.3615  1.8297
  116OSM    C5S12059   0.887   5.180   5.989  0.1141 -0.0450 -0.5590
  116OSM    H5S12060   0.786   5.158   6.025 -0.9015 -0.3088 -3.3731
  116OSM    C6S12061   0.892   5.188   5.833  0.5689  0.3174 -0.5028
  116OSM    H6S12062   0.975   5.254   5.800 -0.5635  2.3416  0.4299
  116OSM    H6T12063   0.796   5.233   5.798 -0.3260 -0.3680  0.9555
  116OSM    C7S12064   0.913   5.054   5.776 -0.3947 -0.1806 -0.7136
  116OSM    H7S12065   0.827   4.988   5.802  1.1328 -2.4461 -1.0702
  116OSM    H7T12066   0.993   4.997   5.828 -0.5221  0.0846 -0.2175
  116OSM    C8S12067   0.936   5.047   5.621 -0.4932 -0.2612  0.0414
  116OSM    H8S12068   0.838   5.052   5.568 -1.9160 -0.3954  2.5239
  116OSM    H8T12069   0.985   4.950   5.595 -0.9604  0.1698 -2.8343
  116OSM    C9S12070   1.014   5.166   5.567 -0.2812 -0.1372  0.3422
  116OSM    H9S12071   1.109   5.168   5.624 -1.0775  0.7478  1.6874
  116OSM    H9T12072   0.963   5.263   5.585  2.2245  1.6236 -1.3555
  116OSM   C10S12073   1.061   5.153   5.415  0.1926  0.0718  0.1354
  116OSM   H10S12074   1.132   5.238   5.402 -0.7774  0.8298 -0.3257
  116OSM   H10T12075   0.980   5.177   5.344  0.5523 -1.3558 -0.7917
  116OSM   C11S12076   1.118   5.014   5.377  0.8497  0.2535 -0.1040
  116OSM   H11S12077   1.051   4.932   5.409  1.8375 -0.0265  1.3357
  116OSM   H11T12078   1.210   4.998   5.438 -0.3441  0.9959  1.9747
  116OSM   C12S12079   1.141   4.998   5.231  0.0717  0.0026 -0.1199
  116OSM   H12S12080   1.185   5.096   5.203  2.3859 -0.4047  1.7754
  116OSM   H12T12081   1.045   4.985   5.176  0.8068  0.3605 -1.5084
  116OSM   C13S12082   1.225   4.882   5.197  0.2176  0.4711 -0.1986
  116OSM   H13S12083   1.175   4.783   5.204 -1.3294  1.2625  0.4317
  116OSM   H13T12084   1.315   4.877   5.262 -0.3873  0.4226  0.6675
  116OSM   C14S12085   1.264   4.889   5.045 -0.6183  0.1718  0.0718
  116OSM   H14S12086   1.316   4.983   5.018  1.4740 -0.4605  1.6442
  116OSM   H14T12087   1.172   4.884   4.983 -1.1891  0.0363  0.9160
  116OSM   C15S12088   1.357   4.768   5.013  0.1598  0.4326  0.4273
  116OSM   H15S12089   1.312   4.670   5.040 -1.5066  0.2931 -2.5414
  116OSM   H15T12090   1.448   4.779   5.076  0.1324  1.1351  0.3495
  116OSM   C16S12091   1.390   4.746   4.865  0.8718  0.8301  0.3508
  116OSM   H16S12092   1.455   4.825   4.821  0.5054  0.8283 -0.2041
  116OSM   H16T12093   1.296   4.739   4.807  1.6218 -0.0980 -0.7866
  116OSM   C17S12094   1.458   4.611   4.843  0.4212  0.4004  0.1879
  116OSM   H17S12095   1.385   4.527   4.842 -0.8018  1.4329 -0.5956
  116OSM   H17T12096   1.529   4.596   4.927  0.8128  1.1507 -0.0004
  116OSM   C18S12097   1.530   4.598   4.711  0.6703 -0.0880  0.4083
  116OSM   H18S12098   1.635   4.635   4.716  0.7671  0.3071 -2.6691
  116OSM   H18T12099   1.482   4.651   4.626  0.3515  2.6132  2.1700
  116OSM   H18U12100   1.549   4.493   4.678  1.0928 -0.8079  2.7119
  116OSM    C1F12101   1.113   4.829   6.301  0.3796 -0.4935 -0.0865
  116OSM     OF12102   1.012   4.765   6.339 -0.6561 -0.2732 -0.5321
  116OSM    C2F12103   1.245   4.764   6.291  0.5127  0.6125  0.2734
  116OSM    H2F12104   1.309   4.799   6.375  2.6147 -2.5008  0.1191
  116OSM    H2G12105   1.291   4.793   6.195 -1.4352  1.2739 -0.5251
  116OSM    C3F12106   1.227   4.612   6.289  0.0526  0.0212 -0.0198
  116OSM    H3F12107   1.178   4.583   6.384  1.1123  0.7071  0.7692
  116OSM    H3G12108   1.331   4.574   6.282  0.1993  0.4146 -0.0031
  116OSM    C4F12109   1.152   4.548   6.176 -0.4786  0.3130 -0.0719
  116OSM    H4F12110   1.044   4.574   6.181 -0.4339  0.7671 -1.1706
  116OSM    H4G12111   1.162   4.440   6.199 -0.0479  0.3784  0.0488
  116OSM    C5F12112   1.188   4.585   6.036 -0.5075  0.3794 -0.0199
  116OSM    H5F12113   1.297   4.563   6.027 -0.0901  2.5721 -0.8282
  116OSM    H5G12114   1.189   4.692   6.007  1.0390  0.0260 -1.4607
  116OSM    C6F12115   1.118   4.494   5.935 -0.3316  0.5823  0.0150
  116OSM    H6F12116   1.007   4.494   5.932 -0.3415 -1.1088 -0.3344
  116OSM    H6G12117   1.151   4.391   5.960 -0.7969  0.5389  0.4530
  116OSM    C7F12118   1.166   4.523   5.796  0.4146  0.9567 -0.0952
  116OSM    H7F12119   1.134   4.438   5.731 -0.1507  1.6195 -0.6999
  116OSM    H7G12120   1.276   4.517   5.784  0.6380  0.2972  1.9944
  116OSM    C8F12121   1.128   4.659   5.734  0.2482 -0.1094  0.9301
  116OSM    H8F12122   1.204   4.691   5.659  0.1165  1.3418  1.4009
  116OSM    H8G12123   1.116   4.737   5.812  0.2938 -0.8302  1.6801
  116OSM    C9F12124   0.992   4.640   5.672 -0.0145 -0.1722  0.1043
  116OSM    H9F12125   0.903   4.612   5.729  0.5402 -2.4229 -0.0389
  116OSM   C10F12126   0.968   4.633   5.536  0.1175 -0.2141 -0.1058
  116OSM   H10F12127   0.866   4.625   5.496  0.1410  0.5669 -0.3395
  116OSM   C11F12128   1.068   4.648   5.424 -0.1612  0.2548 -0.0159
  116OSM   H11F12129   1.158   4.709   5.446 -0.0461  0.0507  0.0724
  116OSM   H11G12130   1.011   4.702   5.345  0.6099  0.6095 -0.3358
  116OSM   C12F12131   1.103   4.508   5.367 -0.2812  0.0823 -0.3175
  116OSM   H12F12132   1.010   4.470   5.320 -1.3802  1.8294  0.3421
  116OSM   H12G12133   1.145   4.436   5.441 -0.4734 -0.4895 -0.7558
  116OSM   C13F12134   1.205   4.523   5.248  0.0440  0.2473  0.1614
  116OSM   H13F12135   1.275   4.609   5.256  0.0266  0.2506  0.2774
  116OSM   H13G12136   1.137   4.547   5.164  0.3922  1.5719  0.2309
  116OSM   C14F12137   1.278   4.393   5.234  0.2231  0.0802  0.6943
  116OSM   H14F12138   1.281   4.324   5.321  0.1491 -4.7568 -2.6913
  116OSM   H14G12139   1.382   4.405   5.197 -0.4470  3.9559 -0.3553
  116OSM   C15F12140   1.199   4.291   5.147 -1.1339  0.2476  0.6890
  116OSM   H15F12141   1.167   4.337   5.052  0.7334  1.0318  0.4059
  116OSM   H15G12142   1.108   4.255   5.200 -1.1290 -0.0715  0.4817
  116OSM   C16F12143   1.281   4.159   5.149  0.2174  0.1502 -0.5221
  116OSM   H16F12144   1.224   4.098   5.222  2.0365  0.6348  1.3822
  116OSM   H16G12145   1.381   4.174   5.196  0.0616 -1.8560  0.5552
  116OSM   C17F12146   1.307   4.088   5.015  0.7905 -0.7383 -0.0027
  116OSM   H17F12147   1.209   4.076   4.964  0.5306  0.1370  0.2593
  116OSM   H17G12148   1.352   3.990   5.040  0.5751 -0.2226  2.7028
  116OSM   C18F12149   1.411   4.170   4.930 -0.5985  0.7032 -0.0234
  116OSM   H18F12150   1.509   4.176   4.983 -0.9521 -1.3086  0.9276
  116OSM   H18G12151   1.362   4.267   4.906  1.5859  0.7861 -5.7723
  116OSM   H18H12152   1.421   4.124   4.830  0.0507  2.5787 -0.8731
  117OSM      N12153   0.074   0.690   6.859  0.2091  0.1291 -0.3111
  117OSM    C1512154   0.159   0.794   6.933 -0.3117  0.0299  0.2056
  117OSM   H15A12155   0.237   0.744   6.989 -1.3137 -1.4525  0.3287
  117OSM   H15B12156   0.099   0.844   7.008 -1.5895 -1.5357  0.2863
  117OSM   H15C12157   0.196   0.871   6.867 -0.7160  0.1602  0.1268
  117OSM    C1412158   0.157   0.600   6.782 -0.2728  0.4952 -0.1311
  117OSM   H14A12159   0.204   0.652   6.699  0.2212 -0.1286 -0.2460
  117OSM   H14B12160   0.104   0.513   6.747  2.4129 -1.3206  0.0423
  117OSM   H14C12161   0.239   0.571   6.845  0.1939  1.0588 -0.4690
  117OSM    C1312162  -0.011   0.623   6.963 -0.7683  0.3631 -0.5905
  117OSM   H13A12163   0.049   0.560   7.027 -1.9877 -2.6863 -2.2378
  117OSM   H13B12164  -0.077   0.550   6.917 -1.7031  1.4829 -1.1049
  117OSM   H13C12165  -0.064   0.698   7.020  1.5507  1.6665 -0.0425
  117OSM    C1212166  -0.032   0.754   6.771  0.5386 -0.6663  1.3137
  117OSM   H12A12167  -0.093   0.678   6.724 -1.9832  2.0595 -0.1953
  117OSM   H12B12168   0.026   0.802   6.694  2.3422 -1.7222  1.9547
  117OSM    C1112169  -0.129   0.872   6.816  0.2897 -0.3969  0.1811
  117OSM   H11A12170  -0.181   0.849   6.912  1.5561 -3.4527  0.2720
  117OSM   H11B12171  -0.206   0.860   6.737  0.7120 -1.2886 -0.1164
  117OSM      P12172  -0.132   1.115   6.858  0.4730  0.3316 -0.1358
  117OSM    O1312173  -0.157   1.097   7.001  0.0947 -0.3599 -0.4763
  117OSM    O1412174  -0.073   1.238   6.804  0.0171 -0.2412 -0.4034
  117OSM    O1112175  -0.283   1.103   6.805 -0.0842  0.0880 -0.2100
  117OSM    O1212176  -0.048   0.988   6.802 -0.0912 -0.0312 -0.6329
  117OSM    C1S12177  -0.287   1.124   6.663 -0.3028  0.5678  0.4217
  117OSM    H1S12178  -0.241   1.038   6.608 -0.1521 -0.6380  2.3333
  117OSM    H1T12179  -0.241   1.219   6.628  0.8983 -0.6247 -1.4496
  117OSM     NF12180  -0.434   1.129   6.458 -0.6748  1.0907  0.4993
  117OSM    HNF12181  -0.425   1.215   6.408  0.6414  0.8857  0.3274
  117OSM    C2S12182  -0.428   1.132   6.604  0.4624 -0.1728  0.6398
  117OSM    H2S12183  -0.481   1.040   6.636 -1.2790  1.3418  2.4283
  117OSM    C3S12184  -0.515   1.248   6.673  0.1973 -0.3812 -0.6404
  117OSM    H3S12185  -0.463   1.343   6.650 -1.2311 -0.0548 -2.7608
  117OSM     O312186  -0.509   1.258   6.815  0.1164 -0.1131  0.2430
  117OSM    HO312187  -0.429   1.211   6.837  1.0612  1.0268 -0.6271
  117OSM    C4S12188  -0.659   1.261   6.635 -0.1037 -0.0371  0.3256
  117OSM    H4S12189  -0.715   1.166   6.646  0.2501 -0.6936 -2.6681
  117OSM    C5S12190  -0.731   1.364   6.585 -0.5419  0.1968  0.0210
  117OSM    H5S12191  -0.674   1.457   6.569 -0.8352  0.5889  1.2048
  117OSM    C6S12192  -0.866   1.368   6.527  0.1488 -0.0546 -0.3569
  117OSM    H6S12193  -0.925   1.435   6.592  0.7124 -0.4334  0.5549
  117OSM    H6T12194  -0.913   1.268   6.543  3.0401 -1.4008  0.3916
  117OSM    C7S12195  -0.876   1.394   6.377  0.3562 -0.9073  0.5249
  117OSM    H7S12196  -0.839   1.496   6.353  1.8459 -2.0460 -2.5823
  117OSM    H7T12197  -0.984   1.393   6.350  0.3107 -1.9491  0.7090
  117OSM    C8S12198  -0.802   1.299   6.283  0.0497 -1.0118 -0.2975
  117OSM    H8S12199  -0.808   1.204   6.341  0.1856  0.7612  2.8948
  117OSM    H8T12200  -0.696   1.334   6.283  0.6768 -2.8143 -0.8673
  117OSM    C9S12201  -0.856   1.267   6.147 -0.5371  0.0340  0.5237
  117OSM    H9S12202  -0.892   1.361   6.101  2.0968  1.6094  1.4357
  117OSM    H9T12203  -0.945   1.202   6.159 -1.2952  1.0717  0.6350
  117OSM   C10S12204  -0.749   1.201   6.052 -0.7434 -0.1985 -0.0449
  117OSM   H10S12205  -0.802   1.137   5.978 -0.3202 -1.9766  1.1218
  117OSM   H10T12206  -0.696   1.126   6.114 -1.7056  0.9070  2.2238
  117OSM   C11S12207  -0.651   1.297   5.984  0.6480 -0.1472  0.0887
  117OSM   H11S12208  -0.606   1.358   6.065 -0.9134  0.8048  0.2798
  117OSM   H11T12209  -0.710   1.364   5.919  3.8234  0.6934 -2.1254
  117OSM   C12S12210  -0.558   1.235   5.877 -0.0881 -0.5826  0.0795
  117OSM   H12S12211  -0.604   1.136   5.855  0.4362 -0.9893  0.7454
  117OSM   H12T12212  -0.457   1.219   5.920  0.1949 -0.0380 -0.3848
  117OSM   C13S12213  -0.560   1.316   5.747  0.4227 -0.5978  0.7697
  117OSM   H13S12214  -0.515   1.416   5.766 -0.3442 -0.5636  2.6603
  117OSM   H13T12215  -0.662   1.313   5.705  0.8651 -1.5807 -0.3008
  117OSM   C14S12216  -0.484   1.242   5.630 -0.0207  0.2552 -0.0148
  117OSM   H14S12217  -0.497   1.134   5.655 -0.8777  0.4523  0.4538
  117OSM   H14T12218  -0.380   1.277   5.642  0.4872 -0.8139 -1.1383
  117OSM   C15S12219  -0.540   1.272   5.485 -0.0403 -0.7078 -0.9083
  117OSM   H15S12220  -0.645   1.238   5.498 -0.0581  0.0978  1.5872
  117OSM   H15T12221  -0.496   1.209   5.404  1.7369 -0.1925 -0.3809
  117OSM   C16S12222  -0.517   1.417   5.437  0.2803 -0.6860  0.0036
  117OSM   H16S12223  -0.444   1.418   5.354  1.0971  2.8204  0.5948
  117OSM   H16T12224  -0.468   1.472   5.520 -1.4745 -1.2865  1.5240
  117OSM   C17S12225  -0.645   1.502   5.398  0.0460  0.8187  0.4063
  117OSM   H17S12226  -0.682   1.525   5.500  0.9970 -2.1522  1.5460
  117OSM   H17T12227  -0.721   1.449   5.338  0.2089  1.3792 -0.3044
  117OSM   C18S12228  -0.600   1.628   5.320 -0.2662  0.6681 -0.7984
  117OSM   H18S12229  -0.593   1.613   5.211 -1.0046  1.0565 -0.9052
  117OSM   H18T12230  -0.500   1.659   5.357  0.0457 -2.2305  1.1926
  117OSM   H18U12231  -0.670   1.712   5.340  0.0277  0.6027  0.6244
  117OSM    C1F12232  -0.405   1.023   6.382 -0.0052 -0.2709  0.5922
  117OSM     OF12233  -0.358   0.921   6.429  0.2352  0.0371 -0.1617
  117OSM    C2F12234  -0.443   1.039   6.236 -0.6840  0.6245 -0.8212
  117OSM    H2F12235  -0.481   1.142   6.219 -0.8518  0.5877 -0.6696
  117OSM    H2G12236  -0.518   0.961   6.211 -0.3672  0.5125 -1.4345
  117OSM    C3F12237  -0.316   1.027   6.142 -0.1827  0.5604 -0.0412
  117OSM    H3F12238  -0.247   0.956   6.192 -1.9330 -0.5589  0.8970
  117OSM    H3G12239  -0.271   1.127   6.129  2.0740 -0.4493 -0.3679
  117OSM    C4F12240  -0.359   0.973   5.998 -0.4439 -0.7004 -0.6579
  117OSM    H4F12241  -0.452   1.021   5.961  0.0435  0.5828 -0.2556
  117OSM    H4G12242  -0.392   0.868   6.015  0.4120 -0.6164  1.8579
  117OSM    C5F12243  -0.253   0.983   5.891  0.1788  0.6329 -0.4239
  117OSM    H5F12244  -0.155   0.954   5.934 -0.9154 -0.8447  1.2007
  117OSM    H5G12245  -0.240   1.089   5.861 -1.1024  0.6697 -0.9165
  117OSM    C6F12246  -0.308   0.903   5.769  0.1144  0.0450 -1.1746
  117OSM    H6F12247  -0.404   0.948   5.736 -0.4453 -2.2030 -2.8330
  117OSM    H6G12248  -0.313   0.794   5.788  2.1632 -0.0331 -0.7931
  117OSM    C7F12249  -0.213   0.912   5.647  0.4426 -0.1175  0.0201
  117OSM    H7F12250  -0.120   0.854   5.664 -0.2114 -2.4589 -3.3987
  117OSM    H7G12251  -0.186   1.018   5.623 -0.6112  0.6343  1.9241
  117OSM    C8F12252  -0.265   0.844   5.513  0.1265  0.1875 -0.3891
  117OSM    H8F12253  -0.285   0.739   5.542 -0.3398  0.7676  1.5434
  117OSM    H8G12254  -0.181   0.841   5.441  1.0429  1.6736  0.5706
  117OSM    C9F12255  -0.392   0.892   5.452 -0.3182  0.2855 -0.1423
  117OSM    H9F12256  -0.483   0.876   5.510 -0.8382 -0.3046 -1.0935
  117OSM   C10F12257  -0.411   0.954   5.333  0.6066 -0.9824  0.4447
  117OSM   H10F12258  -0.512   0.987   5.306  0.7081  0.3417  1.5949
  117OSM   C11F12259  -0.319   0.972   5.219 -0.8354 -0.1141  0.1886
  117OSM   H11F12260  -0.232   0.905   5.233 -0.6187  0.5986  2.7680
  117OSM   H11G12261  -0.292   1.077   5.194 -1.1216  0.2851  1.4731
  117OSM   C12F12262  -0.392   0.922   5.091 -0.9592  0.9516 -0.0399
  117OSM   H12F12263  -0.492   0.967   5.072 -1.8294 -1.1566 -0.7289
  117OSM   H12G12264  -0.403   0.813   5.110  1.3992  0.7217  0.3574
  117OSM   C13F12265  -0.312   0.937   4.963 -0.6717  0.1419  0.1424
  117OSM   H13F12266  -0.208   0.898   4.970 -0.4024  1.0020  1.2194
  117OSM   H13G12267  -0.311   1.043   4.930 -1.1382 -0.0152 -0.4027
  117OSM   C14F12268  -0.384   0.867   4.846 -0.3303 -0.8481  0.3261
  117OSM   H14F12269  -0.486   0.908   4.835 -0.0358  0.8342  3.0671
  117OSM   H14G12270  -0.389   0.761   4.881  1.4209 -0.6052  1.5013
  117OSM   C15F12271  -0.304   0.883   4.725  0.1258 -0.2087  0.1059
  117OSM   H15F12272  -0.197   0.868   4.751  0.0560 -0.8070  0.0593
  117OSM   H15G12273  -0.316   0.981   4.675  1.4179 -0.2475 -0.3079
  117OSM   C16F12274  -0.333   0.768   4.620  0.4614  0.3101  0.2910
  117OSM   H16F12275  -0.427   0.794   4.567  1.9062  0.2224 -2.5093
  117OSM   H16G12276  -0.350   0.669   4.668 -0.2359 -0.3706 -1.2645
  117OSM   C17F12277  -0.232   0.758   4.508  0.3338 -0.0223  0.2908
  117OSM   H17F12278  -0.148   0.702   4.555  1.3476  1.1688 -0.0371
  117OSM   H17G12279  -0.199   0.861   4.483  1.2183 -0.7714 -1.8595
  117OSM   C18F12280  -0.289   0.669   4.396 -0.1516 -0.1134 -0.7761
  117OSM   H18F12281  -0.356   0.735   4.337 -0.9507  0.1210  0.3757
  117OSM   H18G12282  -0.351   0.587   4.436 -1.7955  1.6612  0.4992
  117OSM   H18H12283  -0.204   0.635   4.332  0.8234  2.6030 -1.0801
  118OSM      N12284   0.068   5.248   7.456  0.1013 -0.1577  1.0274
  118OSM    C1512285   0.015   5.384   7.461 -0.8781 -0.4249 -0.2969
  118OSM   H15A12286   0.044   5.437   7.371 -1.7613  0.0480 -0.3133
  118OSM   H15B12287   0.045   5.443   7.547 -0.1654 -1.4561  0.1773
  118OSM   H15C12288  -0.092   5.381   7.475 -0.4920 -1.6464  3.3590
  118OSM    C1412289   0.194   5.255   7.384 -0.3151  0.5455 -0.5147
  118OSM   H14A12290   0.253   5.333   7.429  0.2426 -0.0132 -0.2740
  118OSM   H14B12291   0.171   5.269   7.279  0.3117  2.2458 -0.4551
  118OSM   H14C12292   0.252   5.165   7.384 -1.3846 -0.1631 -0.5582
  118OSM    C1312293   0.083   5.203   7.589 -0.2294  0.5087 -0.0972
  118OSM   H13A12294  -0.010   5.198   7.644  0.5449 -0.8591  1.1672
  118OSM   H13B12295   0.150   5.265   7.647 -1.7723  1.6155  0.5907
  118OSM   H13C12296   0.126   5.105   7.603 -2.2173 -0.2427  1.2373
  118OSM    C1212297  -0.022   5.155   7.376  0.4729  0.2524  0.4444
  118OSM   H12A12298  -0.112   5.139   7.433 -0.9084  0.9099 -1.4450
  118OSM   H12B12299   0.018   5.055   7.367 -1.5607 -0.6813  1.2150
  118OSM    C1112300  -0.039   5.197   7.231 -0.2702  0.4433 -0.2162
  118OSM   H11A12301  -0.076   5.301   7.231  1.7986  1.3387  3.1859
  118OSM   H11B12302  -0.121   5.145   7.177 -2.1173  2.1125  0.8340
  118OSM      P12303   0.118   5.021   7.108 -0.1627 -0.2266 -0.4615
  118OSM    O1312304   0.262   5.015   7.097  0.3123 -0.4305  0.1262
  118OSM    O1412305   0.045   4.929   7.198  0.4346 -0.1603  0.0068
  118OSM    O1112306   0.059   5.014   6.964 -0.3436  0.2117 -0.8035
  118OSM    O1212307   0.078   5.171   7.146 -0.2557  0.7201  0.0571
  118OSM    C1S12308  -0.006   5.129   6.907 -0.2741  1.3651 -0.1240
  118OSM    H1S12309   0.056   5.222   6.905 -1.0607  1.9565  1.5993
  118OSM    H1T12310  -0.105   5.141   6.955 -0.2889  1.4094 -0.1651
  118OSM     NF12311  -0.147   5.202   6.718  0.6461  0.6723  0.2530
  118OSM    HNF12312  -0.240   5.169   6.704  1.3543 -1.4144  0.1419
  118OSM    C2S12313  -0.045   5.102   6.754  0.3844 -0.0644  0.5531
  118OSM    H2S12314   0.046   5.119   6.692  1.0201 -0.2296  1.4344
  118OSM    C3S12315  -0.101   4.963   6.727  0.2033  0.4229 -0.4616
  118OSM    H3S12316  -0.195   4.962   6.786  1.9847  0.2246  2.5969
  118OSM     O312317  -0.002   4.865   6.764 -0.7743  0.3870 -0.0042
  118OSM    HO312318   0.058   4.908   6.826 -0.9244 -0.1189  0.5063
  118OSM    C4S12319  -0.142   4.942   6.582  1.5511  0.8157  1.1427
  118OSM    H4S12320  -0.240   4.897   6.560  1.7103  1.6979 -1.8998
  118OSM    C5S12321  -0.066   4.956   6.475 -0.6208  0.0197  0.0596
  118OSM    H5S12322   0.042   4.970   6.492 -0.4167 -2.1952  0.8401
  118OSM    C6S12323  -0.086   4.915   6.331  0.1769  0.0942  0.0156
  118OSM    H6S12324  -0.191   4.884   6.313 -0.4655  0.8850  2.1283
  118OSM    H6T12325  -0.032   4.820   6.310 -2.1462 -1.0872 -0.9364
  118OSM    C7S12326  -0.049   5.022   6.225 -0.4020  0.7328  0.6315
  118OSM    H7S12327   0.062   5.029   6.224 -0.1721 -2.0445  0.3399
  118OSM    H7T12328  -0.089   5.126   6.232  0.2125  1.0574 -0.4049
  118OSM    C8S12329  -0.090   4.969   6.082 -0.4243 -0.1263 -0.4989
  118OSM    H8S12330  -0.201   4.972   6.084 -0.4030  1.6401  0.8691
  118OSM    H8T12331  -0.041   4.871   6.065  0.2173  0.2223 -0.6998
  118OSM    C9S12332  -0.037   5.059   5.966 -1.1219 -0.1293  0.3327
  118OSM    H9S12333   0.066   5.078   6.004 -1.2943 -0.7202  1.1371
  118OSM    H9T12334  -0.101   5.150   5.965 -1.0843 -0.0693  1.8108
  118OSM   C10S12335  -0.051   4.986   5.831  0.2161  0.2258  1.0307
  118OSM   H10S12336  -0.158   4.971   5.803  0.4813  0.0327  0.0871
  118OSM   H10T12337  -0.005   4.885   5.835 -1.3838 -0.5240  1.5913
  118OSM   C11S12338   0.020   5.068   5.722 -0.4053 -0.2080 -0.9702
  118OSM   H11S12339   0.127   5.062   5.751 -0.5240 -0.1119 -0.4998
  118OSM   H11T12340  -0.025   5.169   5.730  2.1737  1.0033 -0.6372
  118OSM   C12S12341  -0.018   5.023   5.583 -0.4219 -0.0593  0.1336
  118OSM   H12S12342  -0.128   5.018   5.575 -0.3900  1.6756 -1.9069
  118OSM   H12T12343   0.019   4.921   5.556 -1.8157  0.1467 -2.8423
  118OSM   C13S12344   0.017   5.120   5.474 -0.6712 -1.1431  0.0304
  118OSM   H13S12345   0.124   5.148   5.463 -1.1390  0.4557 -0.7903
  118OSM   H13T12346  -0.043   5.208   5.506 -0.7988 -1.8660  1.8656
  118OSM   C14S12347  -0.013   5.062   5.335  0.1018  0.0399  0.4230
  118OSM   H14S12348  -0.120   5.031   5.339 -0.3136  1.4051  0.5093
  118OSM   H14T12349   0.053   4.979   5.302  1.1692  0.3608  1.6559
  118OSM   C15S12350   0.008   5.173   5.232 -0.1974  0.0248 -0.3937
  118OSM   H15S12351  -0.028   5.268   5.277  0.8926  0.7634 -1.0251
  118OSM   H15T12352  -0.049   5.152   5.140 -0.3844 -2.2498  0.1791
  118OSM   C16S12353   0.157   5.184   5.198 -0.8258  0.9845  0.4084
  118OSM   H16S12354   0.193   5.087   5.158 -2.0960  0.8844 -0.5814
  118OSM   H16T12355   0.216   5.210   5.288  0.0444 -4.0564  1.6022
  118OSM   C17S12356   0.190   5.296   5.092  0.2568  0.3904 -0.8622
  118OSM   H17S12357   0.294   5.272   5.060  0.2332 -1.2456  0.1357
  118OSM   H17T12358   0.189   5.394   5.143  0.8964  0.1184 -0.3089
  118OSM   C18S12359   0.111   5.303   4.959  0.4712  0.0731  0.0724
  118OSM   H18S12360   0.136   5.401   4.913  1.7667  0.2848  1.1457
  118OSM   H18T12361   0.001   5.301   4.970  0.3859 -0.4431 -0.7444
  118OSM   H18U12362   0.137   5.222   4.887  0.3282  0.1962 -0.1176
  118OSM    C1F12363  -0.113   5.319   6.684 -0.1254 -0.8486  0.2344
  118OSM     OF12364   0.003   5.359   6.689  0.0786  0.3022 -0.0490
  118OSM    C2F12365  -0.224   5.401   6.624 -0.5086 -0.4819  0.0522
  118OSM    H2F12366  -0.294   5.429   6.706  0.0619 -1.3363  0.8565
  118OSM    H2G12367  -0.284   5.339   6.554  0.3768 -1.9065  0.5017
  118OSM    C3F12368  -0.180   5.527   6.542 -0.2572 -0.5273 -0.1908
  118OSM    H3F12369  -0.132   5.498   6.445 -0.7751  1.7163 -1.1726
  118OSM    H3G12370  -0.115   5.593   6.603  1.0463 -0.3199 -1.7120
  118OSM    C4F12371  -0.304   5.616   6.509  0.8415  0.7693 -0.1943
  118OSM    H4F12372  -0.366   5.633   6.599 -0.6813 -0.9411 -0.8588
  118OSM    H4G12373  -0.365   5.554   6.440  1.5234 -0.2409  0.0908
  118OSM    C5F12374  -0.261   5.744   6.425 -0.6524 -0.0482  0.6058
  118OSM    H5F12375  -0.227   5.820   6.499 -1.1658 -0.3028  1.1137
  118OSM    H5G12376  -0.358   5.773   6.378 -1.4233 -1.9094  0.9603
  118OSM    C6F12377  -0.158   5.721   6.316  0.2584  0.0195 -0.0508
  118OSM    H6F12378  -0.177   5.633   6.251  1.0174  1.4207 -2.2791
  118OSM    H6G12379  -0.064   5.705   6.374 -0.3712 -0.3983  0.8795
  118OSM    C7F12380  -0.139   5.844   6.224 -0.1673 -0.2301  0.2204
  118OSM    H7F12381  -0.129   5.931   6.292 -3.9555  0.6010 -0.0280
  118OSM    H7G12382  -0.231   5.867   6.165  1.1242  0.9900 -1.4277
  118OSM    C8F12383  -0.032   5.831   6.117 -1.1091  0.4375  0.3416
  118OSM    H8F12384   0.054   5.778   6.163 -0.3979 -0.7613 -2.1772
  118OSM    H8G12385  -0.002   5.933   6.082 -2.1664  0.7274  0.2548
  118OSM    C9F12386  -0.064   5.733   6.007 -0.6921  0.1263 -0.3412
  118OSM    H9F12387  -0.050   5.628   6.035  1.6438  0.6695  0.6925
  118OSM   C10F12388  -0.080   5.761   5.881 -0.4047 -0.4261 -0.0367
  118OSM   H10F12389  -0.091   5.679   5.808  1.8544  0.8096 -1.8784
  118OSM   C11F12390  -0.087   5.900   5.825 -0.5873  0.2972 -0.6240
  118OSM   H11F12391  -0.042   5.977   5.891  0.0816 -2.8857  2.9564
  118OSM   H11G12392  -0.194   5.931   5.823  0.0718  2.7812 -1.7104
  118OSM   C12F12393  -0.042   5.916   5.680 -0.3104  0.2480  0.3428
  118OSM   H12F12394   0.069   5.903   5.683 -0.1230  1.4182 -0.5565
  118OSM   H12G12395  -0.054   6.022   5.647  2.6484  0.5111 -0.1937
  118OSM   C13F12396  -0.114   5.813   5.579 -0.9070 -0.2771 -0.2829
  118OSM   H13F12397  -0.221   5.824   5.610 -0.4674 -0.0998  1.2536
  118OSM   H13G12398  -0.084   5.709   5.600 -0.2051 -0.2990 -1.3538
  118OSM   C14F12399  -0.085   5.857   5.441  0.3289  0.2800  0.1382
  118OSM   H14F12400   0.025   5.876   5.436  0.3244  0.2160 -0.2607
  118OSM   H14G12401  -0.139   5.951   5.416 -0.6102 -0.1755  0.4455
  118OSM   C15F12402  -0.121   5.761   5.334  0.6498 -0.1344  0.0478
  118OSM   H15F12403  -0.225   5.723   5.342  0.4624  0.3434 -0.1393
  118OSM   H15G12404  -0.068   5.663   5.342 -0.6622 -0.7905  1.0251
  118OSM   C16F12405  -0.105   5.835   5.198  0.5963 -0.3271 -0.1577
  118OSM   H16F12406  -0.005   5.883   5.201  0.2040  0.5482 -0.7848
  118OSM   H16G12407  -0.185   5.911   5.201  0.6984 -0.2510  0.9060
  118OSM   C17F12408  -0.108   5.742   5.086  0.9204 -0.0660 -0.2106
  118OSM   H17F12409  -0.211   5.701   5.083  0.4990  0.5420  2.7327
  118OSM   H17G12410  -0.046   5.655   5.116  0.8634 -0.2208 -0.5413
  118OSM   C18F12411  -0.062   5.807   4.956  0.2076  0.6407  0.3383
  118OSM   H18F12412  -0.070   5.727   4.879 -1.6266 -1.8342  2.8739
  118OSM   H18G12413   0.044   5.840   4.967  1.0338 -1.7300  0.0341
  118OSM   H18H12414  -0.122   5.894   4.922  0.4022  0.1776 -1.2741
  119OSM      N12415   4.116   2.200   7.261 -0.1096 -0.3263 -0.3709
  119OSM    C1512416   4.189   2.174   7.391 -0.1468 -0.1243 -0.1271
  119OSM   H15A12417   4.294   2.201   7.384 -0.0547 -0.1970  0.9419
  119OSM   H15B12418   4.187   2.071   7.420  2.0839 -0.3395 -0.5213
  119OSM   H15C12419   4.149   2.231   7.474  1.3568  0.9663 -0.1099
  119OSM    C1412420   3.977   2.152   7.285 -0.7963 -0.0750  0.0568
  119OSM   H14A12421   3.922   2.188   7.200  0.8321  0.7711 -0.6871
  119OSM   H14B12422   3.937   2.213   7.365 -1.0635  1.8834 -1.5061
  119OSM   H14C12423   3.962   2.048   7.309 -0.3567 -0.0134  0.6339
  119OSM    C1312424   4.121   2.344   7.248  0.4548 -0.6117 -0.2738
  119OSM   H13A12425   4.054   2.378   7.170 -0.7488 -2.8088 -0.3001
  119OSM   H13B12426   4.217   2.390   7.234  0.8828 -1.5635 -0.5310
  119OSM   H13C12427   4.084   2.392   7.338 -0.8645  0.6661 -1.4426
  119OSM    C1212428   4.183   2.138   7.142 -0.2252  0.7313  0.3636
  119OSM   H12A12429   4.137   2.163   7.047  0.7301  1.7097  0.1352
  119OSM   H12B12430   4.175   2.032   7.161 -0.7112  0.8225  0.6763
  119OSM    C1112431   4.334   2.165   7.125 -0.4462 -0.0258 -0.1380
  119OSM   H11A12432   4.339   2.275   7.134 -0.4158 -0.1436  1.6249
  119OSM   H11B12433   4.364   2.142   7.021 -1.5077  1.1061 -0.7133
  119OSM      P12434   4.454   1.958   7.216  0.1030 -0.2158 -0.2170
  119OSM    O1312435   4.564   1.933   7.314  0.8806  0.4191  0.1352
  119OSM    O1412436   4.325   1.891   7.236 -0.1307  0.1089  0.1063
  119OSM    O1112437   4.505   1.939   7.070 -0.1236  0.0294 -0.2465
  119OSM    O1212438   4.414   2.112   7.223 -0.5390  0.0900  0.1408
  119OSM    C1S12439   4.611   1.858   7.021  0.5025 -0.0732 -0.4800
  119OSM    H1S12440   4.612   1.768   7.086 -1.4006  0.4622  0.3620
  119OSM    H1T12441   4.713   1.900   7.033  0.5828  0.2623 -2.0875
  119OSM     NF12442   4.730   1.779   6.829 -0.4269 -0.4816 -0.2860
  119OSM    HNF12443   4.769   1.849   6.768  0.2903 -0.3665  0.2851
  119OSM    C2S12444   4.601   1.818   6.871 -0.0751  0.2352 -0.5076
  119OSM    H2S12445   4.538   1.727   6.858  0.2720 -0.0483 -0.2376
  119OSM    C3S12446   4.533   1.934   6.792  0.7427  0.7285 -0.3038
  119OSM    H3S12447   4.598   2.024   6.795  2.4482 -0.4511  2.5064
  119OSM     O312448   4.404   1.970   6.836 -0.6372  0.5958  0.6293
  119OSM    HO312449   4.402   1.935   6.925  2.3295  1.3457  1.0962
  119OSM    C4S12450   4.527   1.883   6.646 -0.4021 -0.2357 -0.1384
  119OSM    H4S12451   4.617   1.912   6.590 -1.0655 -1.6756 -2.0371
  119OSM    C5S12452   4.436   1.816   6.574  0.5743 -0.2403  0.0333
  119OSM    H5S12453   4.350   1.774   6.628  0.2534 -0.8189 -0.9189
  119OSM    C6S12454   4.451   1.809   6.422 -0.1742 -0.1841 -0.2289
  119OSM    H6S12455   4.360   1.762   6.379 -1.4932  0.1067  2.0476
  119OSM    H6T12456   4.547   1.755   6.406 -0.3483 -1.5475  2.6717
  119OSM    C7S12457   4.452   1.949   6.356  0.8164 -0.6263  0.3671
  119OSM    H7S12458   4.523   2.014   6.412  0.8872 -0.2601 -0.1377
  119OSM    H7T12459   4.352   1.996   6.364  1.6524  1.9466 -2.2740
  119OSM    C8S12460   4.502   1.942   6.211 -0.2966  0.3166 -0.2818
  119OSM    H8S12461   4.600   1.892   6.222 -0.4191 -0.1194 -1.0896
  119OSM    H8T12462   4.519   2.050   6.187 -0.3547  0.6170  0.9553
  119OSM    C9S12463   4.401   1.871   6.114 -0.7826 -0.1503  0.2050
  119OSM    H9S12464   4.297   1.904   6.140 -0.8648 -0.2942  0.0548
  119OSM    H9T12465   4.403   1.765   6.147 -0.3657  0.1529  1.1870
  119OSM   C10S12466   4.435   1.894   5.968  0.2357  0.2485 -0.0300
  119OSM   H10S12467   4.540   1.865   5.946  0.5136  0.4686  0.9563
  119OSM   H10T12468   4.415   1.995   5.925  1.8207 -1.0428 -4.3910
  119OSM   C11S12469   4.349   1.786   5.889 -0.5653  0.1502  0.4670
  119OSM   H11S12470   4.245   1.822   5.906 -0.7945  0.8222 -1.9781
  119OSM   H11T12471   4.369   1.688   5.936  2.3286 -0.0582 -0.9905
  119OSM   C12S12472   4.381   1.779   5.743 -1.2465  0.0781  0.0545
  119OSM   H12S12473   4.492   1.769   5.742 -1.4029 -1.9714 -0.7913
  119OSM   H12T12474   4.342   1.868   5.690 -1.7843 -1.3086 -1.9639
  119OSM   C13S12475   4.317   1.657   5.682  0.3151  0.3359  0.3983
  119OSM   H13S12476   4.213   1.655   5.719 -0.1137 -0.2673 -0.7770
  119OSM   H13T12477   4.353   1.560   5.723 -1.3840 -0.0411  1.0360
  119OSM   C14S12478   4.316   1.649   5.535 -0.3948 -0.3732  0.3456
  119OSM   H14S12479   4.423   1.634   5.507 -0.6163 -0.3455 -0.5644
  119OSM   H14T12480   4.283   1.748   5.497 -0.4620 -0.9475 -1.1606
  119OSM   C15S12481   4.223   1.543   5.478 -0.1127  0.2904 -0.2172
  119OSM   H15S12482   4.117   1.571   5.495 -1.0552 -1.8005 -2.0097
  119OSM   H15T12483   4.244   1.445   5.526  1.8068  1.0108  0.5011
  119OSM   C16S12484   4.239   1.527   5.327  1.0453 -0.2260 -0.3030
  119OSM   H16S12485   4.345   1.505   5.301  0.2591 -1.8042 -2.5056
  119OSM   H16T12486   4.202   1.620   5.278  0.8923 -0.6034 -0.9168
  119OSM   C17S12487   4.144   1.418   5.289  0.0173  0.0839  0.5552
  119OSM   H17S12488   4.038   1.438   5.316 -0.3420 -2.0762  0.9400
  119OSM   H17T12489   4.167   1.326   5.347 -1.1954 -0.5010  0.1474
  119OSM   C18S12490   4.152   1.367   5.141 -0.1686 -0.2620 -0.2055
  119OSM   H18S12491   4.261   1.361   5.117 -0.3205  0.1299 -1.0314
  119OSM   H18T12492   4.106   1.455   5.091 -1.3772 -0.4956  0.4723
  119OSM   H18U12493   4.110   1.267   5.122  0.3581 -0.4726 -0.2946
  119OSM    C1F12494   4.812   1.679   6.866 -0.0690 -0.2329 -0.0704
  119OSM     OF12495   4.794   1.611   6.969  0.3979  0.3028  0.1272
  119OSM    C2F12496   4.931   1.656   6.777  0.8124 -0.1811 -0.6034
  119OSM    H2F12497   5.019   1.693   6.834  0.7202 -0.7628 -0.0761
  119OSM    H2G12498   4.897   1.716   6.689 -0.3212 -0.9581 -0.7193
  119OSM    C3F12499   4.957   1.514   6.748 -0.0512 -0.0177  0.3030
  119OSM    H3F12500   4.973   1.464   6.846 -1.5366  2.4430  1.9014
  119OSM    H3G12501   5.053   1.514   6.692  0.4591  0.8552  1.1505
  119OSM    C4F12502   4.843   1.436   6.682 -0.1196  0.0634  0.0174
  119OSM    H4F12503   4.756   1.448   6.750 -0.0164 -0.3836  0.2298
  119OSM    H4G12504   4.866   1.328   6.671  1.1217  0.4217 -1.2182
  119OSM    C5F12505   4.797   1.479   6.534 -0.1149  0.1240 -0.5286
  119OSM    H5F12506   4.771   1.587   6.543 -2.8207 -0.4893 -0.3882
  119OSM    H5G12507   4.704   1.427   6.503  0.1096 -0.5336 -0.1143
  119OSM    C6F12508   4.906   1.467   6.432 -0.0695  0.3482  0.0529
  119OSM    H6F12509   4.947   1.364   6.427 -0.4383  0.0911  1.6056
  119OSM    H6G12510   5.003   1.517   6.454 -0.3942  0.1020  2.3199
  119OSM    C7F12511   4.874   1.509   6.284 -0.3552 -0.6955  0.6132
  119OSM    H7F12512   4.786   1.445   6.261 -0.5370 -1.1297  2.3986
  119OSM    H7G12513   4.954   1.474   6.215 -0.6770  0.8472 -0.5896
  119OSM    C8F12514   4.836   1.664   6.266  0.6459 -0.1494 -0.5912
  119OSM    H8F12515   4.736   1.679   6.312  1.0088  2.8987 -0.6564
  119OSM    H8G12516   4.811   1.672   6.158 -1.2249  0.0932 -0.1735
  119OSM    C9F12517   4.929   1.766   6.331  0.1468  0.4040  0.6998
  119OSM    H9F12518   4.958   1.734   6.432  0.7070 -2.3264 -0.2445
  119OSM   C10F12519   4.969   1.881   6.272  0.1099 -0.0516 -0.1223
  119OSM   H10F12520   5.034   1.950   6.326 -1.2633  0.2141  1.2462
  119OSM   C11F12521   4.895   1.928   6.148 -0.4560 -0.2612  0.3134
  119OSM   H11F12522   4.887   2.038   6.162  3.1073 -0.0642  1.8703
  119OSM   H11G12523   4.792   1.887   6.141  0.1382 -1.6959 -0.5763
  119OSM   C12F12524   4.964   1.894   6.014  0.1309 -0.5855 -0.7809
  119OSM   H12F12525   4.960   1.784   6.000  1.4725 -0.4608 -2.4501
  119OSM   H12G12526   5.071   1.923   6.014 -0.5031  1.9596  0.0097
  119OSM   C13F12527   4.893   1.963   5.892 -0.4092 -0.2451  0.4656
  119OSM   H13F12528   4.939   2.064   5.884 -0.4455 -0.1399  1.4459
  119OSM   H13G12529   4.783   1.970   5.906 -0.2051  0.1877  2.1098
  119OSM   C14F12530   4.934   1.888   5.764  0.4398 -0.9920  0.5354
  119OSM   H14F12531   4.912   1.780   5.778 -0.3844 -0.8785  0.1832
  119OSM   H14G12532   5.038   1.918   5.741 -0.3646  0.3378 -1.7341
  119OSM   C15F12533   4.855   1.936   5.642  0.5678  0.8594 -1.0190
  119OSM   H15F12534   4.848   2.047   5.631  1.4739  1.0358 -0.0290
  119OSM   H15G12535   4.752   1.904   5.669  1.7087 -0.4707  2.2642
  119OSM   C16F12536   4.909   1.887   5.508 -0.3552 -0.2899  0.2952
  119OSM   H16F12537   5.013   1.923   5.492 -0.5364  0.1535  0.1177
  119OSM   H16G12538   4.854   1.936   5.425 -0.1391 -1.9725 -0.9105
  119OSM   C17F12539   4.907   1.732   5.487 -0.0909 -0.8216 -0.3197
  119OSM   H17F12540   4.805   1.696   5.510 -0.0623 -1.2694 -0.8748
  119OSM   H17G12541   4.981   1.686   5.557  0.8812  0.4460 -0.4666
  119OSM   C18F12542   4.927   1.687   5.344 -0.0318 -0.1188 -0.2611
  119OSM   H18F12543   4.857   1.736   5.274  0.8878 -0.2050 -1.2600
  119OSM   H18G12544   4.920   1.576   5.333  1.4704 -0.2835  0.2345
  119OSM   H18H12545   5.016   1.726   5.290 -1.7527  0.6886 -2.6786
  120OSM      N12546   5.274   0.377   7.194  0.2394  0.6502  0.4754
  120OSM    C1512547   5.346   0.477   7.272  0.9385 -0.1971 -0.0847
  120OSM   H15A12548   5.286   0.561   7.304  1.4308  0.5346 -1.0118
  120OSM   H15B12549   5.432   0.518   7.221  1.8209 -0.8519  0.8204
  120OSM   H15C12550   5.378   0.421   7.359  0.8135 -0.3269 -0.1226
  120OSM    C1412551   5.164   0.310   7.264  0.2836  0.2012  0.0133
  120OSM   H14A12552   5.141   0.218   7.213  1.9743  0.2077 -0.8264
  120OSM   H14B12553   5.074   0.369   7.274  1.1247  1.5377 -0.0207
  120OSM   H14C12554   5.195   0.289   7.365 -0.4534  1.2703  0.4778
  120OSM    C1312555   5.228   0.437   7.075  0.3024 -0.8384  0.1107
  120OSM   H13A12556   5.303   0.484   7.013 -0.6966 -2.6629 -2.6628
  120OSM   H13B12557   5.159   0.516   7.101 -2.6434 -3.1329 -0.1544
  120OSM   H13C12558   5.168   0.378   7.007  0.3431  0.8909 -1.5143
  120OSM    C1212559   5.376   0.261   7.153  1.1088  0.0553  0.4636
  120OSM   H12A12560   5.460   0.307   7.103  1.3592 -0.9385 -0.0442
  120OSM   H12B12561   5.322   0.199   7.083 -1.2241  2.3467  0.0836
  120OSM    C1112562   5.443   0.175   7.264  0.1521  0.2389  0.1342
  120OSM   H11A12563   5.491   0.239   7.341  1.8785 -2.1905  1.2090
  120OSM   H11B12564   5.524   0.127   7.206  0.5970  1.5024 -0.3352
  120OSM      P12565   5.342  -0.064   7.273 -0.6727  0.7570 -0.5933
  120OSM    O1312566   5.448  -0.138   7.337 -0.3942  0.2963 -1.1005
  120OSM    O1412567   5.207  -0.122   7.301 -0.6541  0.9891 -0.2111
  120OSM    O1112568   5.373  -0.042   7.122  0.4693 -0.6358  0.0397
  120OSM    O1212569   5.347   0.086   7.327  0.6708  0.4713  0.0899
  120OSM    C1S12570   5.274  -0.047   7.023 -0.1839 -0.3982 -0.2145
  120OSM    H1S12571   5.204   0.037   7.043  1.3907  1.4378 -2.0509
  120OSM    H1T12572   5.222  -0.145   7.031 -1.1531  0.1596  0.6315
  120OSM     NF12573   5.227   0.004   6.784 -0.2276 -0.4342  0.5285
  120OSM    HNF12574   5.192  -0.072   6.731  1.5313 -1.1097  0.2432
  120OSM    C2S12575   5.335  -0.042   6.879 -0.0030 -0.0294  0.5753
  120OSM    H2S12576   5.402   0.047   6.879 -1.3115  0.9935  0.7090
  120OSM    C3S12577   5.405  -0.176   6.839 -0.2778 -0.7029  0.6366
  120OSM    H3S12578   5.330  -0.249   6.801  1.1494 -0.7807 -2.2715
  120OSM     O312579   5.486  -0.226   6.949  0.0861  0.6775  0.2550
  120OSM    HO312580   5.461  -0.173   7.025  0.3010  0.4782  0.4655
  120OSM    C4S12581   5.488  -0.157   6.714  0.1465 -1.2941  0.0697
  120OSM    H4S12582   5.567  -0.081   6.721  0.3718 -1.4688 -0.4734
  120OSM    C5S12583   5.479  -0.222   6.592 -0.3174  0.0076 -0.7886
  120OSM    H5S12584   5.405  -0.301   6.576  1.3439 -1.6357 -0.6342
  120OSM    C6S12585   5.566  -0.188   6.478 -0.2128 -0.0411  0.2455
  120OSM    H6S12586   5.547  -0.260   6.396 -1.4221 -1.7444  1.9420
  120OSM    H6T12587   5.674  -0.195   6.503 -0.4303 -0.7358  1.0259
  120OSM    C7S12588   5.534  -0.053   6.426  0.3261 -0.2758 -0.1265
  120OSM    H7S12589   5.549   0.016   6.511 -3.7324 -4.0889  4.2675
  120OSM    H7T12590   5.428  -0.044   6.395 -0.3410 -1.0640  1.7715
  120OSM    C8S12591   5.619  -0.032   6.300  0.3381 -0.3749 -1.2896
  120OSM    H8S12592   5.668  -0.126   6.268  0.5774 -0.4538 -0.7053
  120OSM    H8T12593   5.704   0.037   6.318  0.2377 -0.8378  1.3647
  120OSM    C9S12594   5.540   0.012   6.167  0.2635  0.5129  0.7606
  120OSM    H9S12595   5.496   0.113   6.179 -0.1233  0.4555 -0.1537
  120OSM    H9T12596   5.451  -0.053   6.150 -0.9993  2.2159  0.5519
  120OSM   C10S12597   5.627   0.006   6.040 -0.4903  0.3290 -0.2924
  120OSM   H10S12598   5.644  -0.102   6.026 -0.0531  0.6228 -2.3683
  120OSM   H10T12599   5.717   0.071   6.036 -1.1821  1.4019  0.6525
  120OSM   C11S12600   5.554   0.052   5.924 -0.5965  0.1000  0.1503
  120OSM   H11S12601   5.540   0.162   5.935 -2.3356 -0.3061  2.6522
  120OSM   H11T12602   5.451   0.012   5.922 -0.4495 -0.2504 -0.6581
  120OSM   C12S12603   5.618   0.026   5.786 -0.0811  0.2523 -0.3231
  120OSM   H12S12604   5.644  -0.082   5.780 -0.0086  0.2685 -0.3040
  120OSM   H12T12605   5.706   0.093   5.788 -0.5052  0.8206  1.2595
  120OSM   C13S12606   5.533   0.069   5.665  0.2627 -0.6557 -0.8796
  120OSM   H13S12607   5.442   0.005   5.664  0.2022 -0.6145  0.3244
  120OSM   H13T12608   5.594   0.036   5.578 -0.7548 -2.9835 -0.8048
  120OSM   C14S12609   5.486   0.214   5.665  0.0608  0.0559 -0.1991
  120OSM   H14S12610   5.553   0.261   5.741 -0.2684  0.4160 -0.1318
  120OSM   H14T12611   5.381   0.213   5.701  0.0084 -0.1668 -0.3551
  120OSM   C15S12612   5.513   0.281   5.527  0.1514 -1.0514  0.2011
  120OSM   H15S12613   5.434   0.358   5.508  0.8845 -0.5121 -0.7818
  120OSM   H15T12614   5.489   0.203   5.452  3.2346 -0.1232 -1.9577
  120OSM   C16S12615   5.652   0.331   5.505 -0.1589 -0.0875  0.3414
  120OSM   H16S12616   5.727   0.250   5.495 -0.7341 -0.6810  0.7334
  120OSM   H16T12617   5.694   0.400   5.580 -0.3559  1.0831 -0.5979
  120OSM   C17S12618   5.664   0.421   5.378 -0.1246  0.0320 -0.5783
  120OSM   H17S12619   5.591   0.504   5.385 -2.9353 -2.2404 -1.1095
  120OSM   H17T12620   5.639   0.360   5.289 -1.3292  1.5094 -1.2747
  120OSM   C18S12621   5.809   0.464   5.338 -0.1660 -0.5437  0.3589
  120OSM   H18S12622   5.844   0.549   5.400  2.4887 -1.0330 -0.3228
  120OSM   H18T12623   5.807   0.504   5.234  2.7914  1.3891  0.9229
  120OSM   H18U12624   5.870   0.371   5.340  1.2261  0.1828 -2.4938
  120OSM    C1F12625   5.171   0.118   6.787 -0.4644 -0.7066  0.0919
  120OSM     OF12626   5.220   0.210   6.848  0.0050 -0.3763 -0.0325
  120OSM    C2F12627   5.046   0.118   6.711 -0.5173 -0.2800 -0.0790
  120OSM    H2F12628   5.001   0.021   6.737  1.0917 -0.6218  1.6694
  120OSM    H2G12629   5.047   0.128   6.600 -1.9316  0.3582 -0.0548
  120OSM    C3F12630   4.946   0.233   6.747 -0.8670 -0.1778  0.5012
  120OSM    H3F12631   4.946   0.254   6.856  1.3765 -0.6521  0.6469
  120OSM    H3G12632   4.845   0.197   6.718 -1.1432 -1.2487  2.5658
  120OSM    C4F12633   4.954   0.371   6.678  0.4476 -0.1732 -0.2163
  120OSM    H4F12634   5.059   0.406   6.683  0.6247 -0.5951 -0.8777
  120OSM    H4G12635   4.887   0.435   6.740 -2.7342 -3.1265 -0.3133
  120OSM    C5F12636   4.909   0.372   6.532 -0.0626  0.1386 -0.0220
  120OSM    H5F12637   4.807   0.330   6.517  0.1249 -0.5720  0.6410
  120OSM    H5G12638   4.981   0.317   6.468  0.7984  0.6500  0.4962
  120OSM    C6F12639   4.904   0.513   6.469 -0.4542 -0.0773  0.6995
  120OSM    H6F12640   5.003   0.562   6.474 -0.4311  0.0989 -0.8542
  120OSM    H6G12641   4.830   0.574   6.525  1.0415  3.2171 -0.6725
  120OSM    C7F12642   4.870   0.502   6.317  0.9825 -0.0587  0.2778
  120OSM    H7F12643   4.778   0.441   6.304  0.9483 -0.0458  0.4590
  120OSM    H7G12644   4.949   0.442   6.267 -0.8609 -3.0161  0.6709
  120OSM    C8F12645   4.838   0.638   6.248 -0.0187  0.2096 -0.2949
  120OSM    H8F12646   4.776   0.690   6.325 -0.5787 -1.8679  0.7363
  120OSM    H8G12647   4.790   0.618   6.150  0.2543  4.0933 -1.3748
  120OSM    C9F12648   4.958   0.725   6.232 -0.2318 -0.6602  0.6947
  120OSM    H9F12649   5.031   0.721   6.314  1.2376 -5.0158 -0.5472
  120OSM   C10F12650   4.972   0.796   6.117 -0.0454  0.4687  0.6585
  120OSM   H10F12651   5.063   0.859   6.117  0.6430 -0.4862  0.3305
  120OSM   C11F12652   4.883   0.821   5.994  0.4150  0.2131 -0.7480
  120OSM   H11F12653   4.901   0.923   5.952  2.2506 -0.2210 -1.1138
  120OSM   H11G12654   4.776   0.810   6.021  0.5785  0.2434 -0.0635
  120OSM   C12F12655   4.918   0.709   5.900  0.4816  0.0900  0.0763
  120OSM   H12F12656   4.896   0.605   5.935  1.2581 -0.5020 -1.1378
  120OSM   H12G12657   5.025   0.700   5.874  0.1330 -1.3564 -1.0153
  120OSM   C13F12658   4.832   0.707   5.771  0.8992 -0.1487 -0.0536
  120OSM   H13F12659   4.724   0.687   5.789  1.2069  0.5858  3.2406
  120OSM   H13G12660   4.879   0.622   5.718  1.6525  1.1373 -1.5492
  120OSM   C14F12661   4.836   0.835   5.680 -0.2140  0.1751  0.2934
  120OSM   H14F12662   4.782   0.921   5.725  1.1529  2.9962 -3.0091
  120OSM   H14G12663   4.776   0.822   5.588 -1.1049 -2.0952  1.1312
  120OSM   C15F12664   4.981   0.878   5.649 -0.1953 -0.1024  0.2737
  120OSM   H15F12665   5.018   0.794   5.586  1.6434  0.9026 -0.0316
  120OSM   H15G12666   5.038   0.892   5.743 -1.4699  0.9737  0.9035
  120OSM   C16F12667   4.983   1.011   5.574  0.3308  0.2998 -0.4660
  120OSM   H16F12668   4.929   1.088   5.633 -0.9465 -0.9142  0.0113
  120OSM   H16G12669   4.932   1.009   5.476 -0.1152 -1.3741 -0.2180
  120OSM   C17F12670   5.126   1.046   5.541 -1.1267  0.2160 -0.1360
  120OSM   H17F12671   5.152   0.981   5.456  0.9819  1.6464 -0.6793
  120OSM   H17G12672   5.191   1.014   5.625 -1.9899  1.3149  0.9950
  120OSM   C18F12673   5.146   1.189   5.509  0.0835  0.7397 -0.0601
  120OSM   H18F12674   5.117   1.199   5.402  3.8847  2.2966 -1.1347
  120OSM   H18G12675   5.251   1.226   5.503  0.2425  1.0124  3.0457
  120OSM   H18H12676   5.079   1.253   5.571  0.2808  0.9046 -0.0158
  121OSM      N12677   5.545   3.659   6.915 -0.1525 -0.2992 -0.1780
  121OSM    C1512678   5.449   3.706   7.026 -0.5771 -0.4478 -0.0520
  121OSM   H15A12679   5.494   3.686   7.122 -2.3051  0.3416  0.9753
  121OSM   H15B12680   5.350   3.662   7.021 -0.9237  0.2244  0.7038
  121OSM   H15C12681   5.440   3.814   7.026 -4.3046 -0.5611 -2.6845
  121OSM    C1412682   5.550   3.508   6.909 -0.0721 -0.4843 -0.3609
  121OSM   H14A12683   5.597   3.463   6.995  0.4901 -0.6830 -0.7642
  121OSM   H14B12684   5.613   3.482   6.824  0.5740 -0.6926  0.1725
  121OSM   H14C12685   5.457   3.453   6.910  0.0076 -0.6927  2.4471
  121OSM    C1312686   5.506   3.719   6.785 -0.1706  0.9685 -0.3956
  121OSM   H13A12687   5.414   3.686   6.738  0.3902 -0.2060 -0.7013
  121OSM   H13B12688   5.594   3.703   6.724  0.8208  0.6609  1.0784
  121OSM   H13C12689   5.494   3.826   6.793 -2.3601  0.8541 -1.4213
  121OSM    C1212690   5.691   3.705   6.941  0.9027 -0.0400 -0.5150
  121OSM   H12A12691   5.760   3.660   6.871  1.7442  0.5462 -0.0825
  121OSM   H12B12692   5.716   3.662   7.036  0.4327 -2.6058 -1.4679
  121OSM    C1112693   5.725   3.860   6.928 -0.2858  0.4864  0.5206
  121OSM   H11A12694   5.728   3.882   6.819 -3.6260 -1.9621 -0.2224
  121OSM   H11B12695   5.830   3.876   6.961  0.0169 -1.0405  0.3672
  121OSM      P12696   5.570   4.075   6.934  0.3282 -0.3925  0.0326
  121OSM    O1312697   5.476   4.153   7.019  0.7420  0.4005  0.4823
  121OSM    O1412698   5.674   4.160   6.879 -0.0315 -0.0479 -0.2229
  121OSM    O1112699   5.486   4.014   6.819 -0.3194 -0.7229 -0.0164
  121OSM    O1212700   5.637   3.949   7.009 -0.6220 -0.2164  0.3742
  121OSM    C1S12701   5.362   4.073   6.769  0.2488  0.5190  0.1088
  121OSM    H1S12702   5.346   4.176   6.807 -0.5881  1.3667 -2.3163
  121OSM    H1T12703   5.274   4.007   6.785 -1.6577  2.9523  0.2309
  121OSM     NF12704   5.209   4.134   6.582 -0.2938  0.3067  0.7673
  121OSM    HNF12705   5.137   4.066   6.573 -0.8350  0.7950  1.3031
  121OSM    C2S12706   5.347   4.102   6.607  0.0080 -0.5722 -0.6466
  121OSM    H2S12707   5.410   4.189   6.580  0.6103 -0.9651 -0.5234
  121OSM    C3S12708   5.413   3.982   6.536  0.7279  0.9380  0.3137
  121OSM    H3S12709   5.359   3.895   6.580  2.0564  0.3694  0.8622
  121OSM     O312710   5.546   3.943   6.580  0.2325  0.3993  0.2761
  121OSM    HO312711   5.564   3.977   6.668  1.8133 -1.7297  0.8525
  121OSM    C4S12712   5.407   3.993   6.390  0.5679  0.5238  0.7584
  121OSM    H4S12713   5.322   3.934   6.355  1.5826  0.2967 -1.5586
  121OSM    C5S12714   5.491   4.058   6.303 -0.7658 -0.1785  0.7214
  121OSM    H5S12715   5.576   4.112   6.347 -0.3226  1.2559 -1.7282
  121OSM    C6S12716   5.480   4.067   6.145  0.6294  0.3747 -0.3034
  121OSM    H6S12717   5.562   4.121   6.092  1.1162 -0.1841 -0.1304
  121OSM    H6T12718   5.392   4.129   6.117  0.8555  1.4221  1.1446
  121OSM    C7S12719   5.468   3.937   6.065  0.6154  0.3305 -0.2076
  121OSM    H7S12720   5.366   3.891   6.069  0.8538 -0.2596 -0.7318
  121OSM    H7T12721   5.549   3.868   6.095  0.0377  0.2791  1.3382
  121OSM    C8S12722   5.484   3.952   5.916  0.2719 -0.0645  0.7253
  121OSM    H8S12723   5.515   3.852   5.878 -2.3899 -0.9064  0.6036
  121OSM    H8T12724   5.551   4.036   5.888 -0.1142 -0.5359 -1.8621
  121OSM    C9S12725   5.350   3.980   5.832 -0.0172 -0.4823 -0.5276
  121OSM    H9S12726   5.314   4.076   5.875  0.3825 -0.8247  0.6337
  121OSM    H9T12727   5.266   3.914   5.864  0.9770 -0.5083  2.3640
  121OSM   C10S12728   5.366   4.001   5.685 -0.3884 -0.6994  0.6081
  121OSM   H10S12729   5.385   3.904   5.635  1.0440 -0.1810  0.0840
  121OSM   H10T12730   5.456   4.067   5.680  0.0597 -1.3856 -0.7775
  121OSM   C11S12731   5.251   4.086   5.624 -0.2983  0.1270 -0.1112
  121OSM   H11S12732   5.260   4.192   5.655  0.9368 -0.2564  0.9078
  121OSM   H11T12733   5.155   4.046   5.663  0.0872  1.0494  1.9383
  121OSM   C12S12734   5.253   4.069   5.473  0.4144  0.0019 -0.5466
  121OSM   H12S12735   5.355   4.097   5.439 -0.3394  1.3827 -1.7691
  121OSM   H12T12736   5.181   4.135   5.420  2.3734  2.0900 -0.7727
  121OSM   C13S12737   5.234   3.922   5.418  0.1817 -0.2886 -0.6175
  121OSM   H13S12738   5.136   3.887   5.458  1.5115 -1.4487  1.8758
  121OSM   H13T12739   5.299   3.841   5.459 -1.7992 -1.5192  0.2773
  121OSM   C14S12740   5.240   3.928   5.268 -0.0134 -0.4285 -0.2015
  121OSM   H14S12741   5.340   3.957   5.229  0.7158 -1.6508  0.6791
  121OSM   H14T12742   5.169   4.009   5.241  2.1106  2.3020  1.8089
  121OSM   C15S12743   5.181   3.800   5.200 -0.0385  0.5904 -0.4697
  121OSM   H15S12744   5.078   3.789   5.239  0.1670  1.9570  0.5193
  121OSM   H15T12745   5.246   3.712   5.222  0.5910  1.4583  1.3493
  121OSM   C16S12746   5.165   3.809   5.050 -0.8458  0.3867 -0.3050
  121OSM   H16S12747   5.150   3.704   5.016  0.6419  0.2520 -0.5808
  121OSM   H16T12748   5.262   3.844   5.009  2.3993 -3.6163  3.0249
  121OSM   C17S12749   5.043   3.887   5.002 -0.0259  0.0344  0.3406
  121OSM   H17S12750   5.055   3.995   5.022 -3.2861  0.8946 -1.6230
  121OSM   H17T12751   4.953   3.857   5.059  0.8603 -0.4143  1.5297
  121OSM   C18S12752   5.007   3.864   4.857 -0.0292 -0.1633 -0.2909
  121OSM   H18S12753   5.098   3.911   4.813  0.8271 -1.8511 -0.3724
  121OSM   H18T12754   4.916   3.922   4.828 -2.8337 -2.2390  3.4307
  121OSM   H18U12755   4.992   3.761   4.821 -0.0095  0.3030 -1.6892
  121OSM    C1F12756   5.161   4.259   6.602 -0.2066  0.5615 -0.0816
  121OSM     OF12757   5.240   4.342   6.646  0.0275 -0.2720  0.6242
  121OSM    C2F12758   5.017   4.284   6.570 -1.2068 -0.1212  0.2331
  121OSM    H2F12759   5.009   4.391   6.600  0.5315  0.2507 -0.5043
  121OSM    H2G12760   4.963   4.221   6.644  1.7686 -1.6496  1.2733
  121OSM    C3F12761   4.961   4.272   6.427  0.7985 -0.3012 -0.3219
  121OSM    H3F12762   4.854   4.301   6.435  0.5134 -0.8824 -1.7636
  121OSM    H3G12763   4.975   4.165   6.404  0.8583 -0.1303 -1.1216
  121OSM    C4F12764   5.020   4.345   6.302 -0.3964  0.0914 -0.1836
  121OSM    H4F12765   5.119   4.295   6.288  0.3384  1.6536 -0.7377
  121OSM    H4G12766   5.041   4.451   6.325  1.0342  0.2151 -1.8587
  121OSM    C5F12767   4.941   4.339   6.175 -0.0239 -0.0670 -0.1260
  121OSM    H5F12768   4.842   4.386   6.192 -0.5880 -1.9810  2.6147
  121OSM    H5G12769   4.913   4.235   6.148  0.7103 -0.1934 -0.4240
  121OSM    C6F12770   5.018   4.394   6.048 -0.4633  0.5924  0.8250
  121OSM    H6F12771   5.112   4.336   6.054  0.3007  1.5357 -1.2418
  121OSM    H6G12772   5.048   4.501   6.058  1.1759  0.3106 -0.6262
  121OSM    C7F12773   4.956   4.354   5.914  0.4430 -0.4289 -0.3180
  121OSM    H7F12774   4.883   4.433   5.887  1.0958 -0.4254 -2.2045
  121OSM    H7G12775   4.903   4.257   5.924  1.3998 -0.8095  1.8479
  121OSM    C8F12776   5.055   4.342   5.799  0.2532  0.8285  0.2116
  121OSM    H8F12777   5.007   4.287   5.716  0.0563 -2.3105  2.2102
  121OSM    H8G12778   5.141   4.279   5.832 -0.7506 -1.8765 -1.9109
  121OSM    C9F12779   5.127   4.468   5.764  0.0018  0.5207 -0.4169
  121OSM    H9F12780   5.210   4.496   5.831 -0.1906  2.2045 -0.8377
  121OSM   C10F12781   5.095   4.555   5.666  0.4936  0.3264  0.0166
  121OSM   H10F12782   5.153   4.648   5.656  1.7580 -0.5659 -1.4719
  121OSM   C11F12783   4.980   4.525   5.574  0.0729  0.4665 -0.7894
  121OSM   H11F12784   4.939   4.619   5.533  0.7669  0.6218 -1.1467
  121OSM   H11G12785   4.896   4.470   5.622  1.3978 -2.1351 -1.2323
  121OSM   C12F12786   5.007   4.423   5.460 -0.0051  0.1782  0.1356
  121OSM   H12F12787   5.039   4.327   5.506  3.8637  2.0257  1.7775
  121OSM   H12G12788   5.094   4.438   5.393 -0.8279 -2.4416 -1.6884
  121OSM   C13F12789   4.886   4.411   5.360 -0.1413 -0.3212 -0.7913
  121OSM   H13F12790   4.853   4.504   5.308 -0.6492  0.0598  0.2010
  121OSM   H13G12791   4.799   4.363   5.409 -1.8682  0.0177 -3.3194
  121OSM   C14F12792   4.936   4.327   5.243  0.1877 -0.3823  0.5927
  121OSM   H14F12793   4.943   4.225   5.287 -2.1592 -0.9567 -0.2302
  121OSM   H14G12794   5.029   4.372   5.201 -1.1105  2.8118  0.8414
  121OSM   C15F12795   4.840   4.325   5.125 -0.1452  0.3927  0.2893
  121OSM   H15F12796   4.814   4.428   5.092  1.8541  1.3835  1.5674
  121OSM   H15G12797   4.743   4.284   5.160  0.4685 -0.7073  0.7449
  121OSM   C16F12798   4.897   4.240   5.011  0.4681 -0.2105 -0.7951
  121OSM   H16F12799   4.889   4.136   5.050 -0.9766  0.4248  0.7764
  121OSM   H16G12800   5.006   4.259   5.004  0.2851  1.1863 -0.2457
  121OSM   C17F12801   4.814   4.255   4.879 -0.2880 -0.5924  0.6242
  121OSM   H17F12802   4.706   4.267   4.902 -0.3441  1.3296 -0.4016
  121OSM   H17G12803   4.841   4.168   4.816  0.1375 -0.2900  0.3851
  121OSM   C18F12804   4.845   4.381   4.797 -0.3817  0.1250  0.4853
  121OSM   H18F12805   4.830   4.479   4.846 -0.0858  0.0098  0.8135
  121OSM   H18G12806   4.782   4.386   4.706 -1.1102 -0.6046  0.9318
  121OSM   H18H12807   4.953   4.379   4.770  0.1763  0.3351  2.5267
  122OSM      N12808   5.457   6.274   7.173 -0.1540  0.3804  0.0004
  122OSM    C1512809   5.395   6.138   7.194 -0.4911 -0.1234 -0.4921
  122OSM   H15A12810   5.469   6.066   7.227 -1.3011 -1.0408 -0.6544
  122OSM   H15B12811   5.342   6.094   7.111 -2.0132 -1.5783  1.1753
  122OSM   H15C12812   5.325   6.148   7.275  1.0411  2.6144  0.6538
  122OSM    C1412813   5.516   6.313   7.305 -0.6715 -0.2171  0.0191
  122OSM   H14A12814   5.575   6.404   7.311 -0.4499 -0.2833 -0.9620
  122OSM   H14B12815   5.568   6.227   7.344  0.7764  0.0035 -1.3007
  122OSM   H14C12816   5.435   6.327   7.374  0.1902  3.5841  0.4903
  122OSM    C1312817   5.562   6.269   7.065 -0.1880 -0.0247  0.2922
  122OSM   H13A12818   5.539   6.223   6.970  1.0119  0.5335 -0.2822
  122OSM   H13B12819   5.643   6.205   7.097  0.2421 -0.5390 -1.6877
  122OSM   H13C12820   5.605   6.365   7.043  2.0386 -1.0574 -0.1015
  122OSM    C1212821   5.350   6.374   7.134  0.1712  0.0845  0.9057
  122OSM   H12A12822   5.394   6.472   7.132 -0.0346  0.1993 -2.3295
  122OSM   H12B12823   5.272   6.382   7.208  1.0135  1.2560  1.7045
  122OSM    C1112824   5.279   6.345   6.995  0.2188 -0.3027 -0.1862
  122OSM   H11A12825   5.364   6.332   6.926  1.2490 -0.1299  1.0189
  122OSM   H11B12826   5.223   6.430   6.949 -2.0626 -1.4322  0.3360
  122OSM      P12827   5.054   6.219   7.011 -0.0867  0.3404 -0.2285
  122OSM    O1312828   5.019   6.073   7.024 -0.1154 -0.0103 -0.0432
  122OSM    O1412829   5.029   6.297   7.130  0.1083  1.1883  0.0436
  122OSM    O1112830   4.996   6.291   6.889 -0.4363 -0.3571  0.3710
  122OSM    O1212831   5.213   6.219   6.990  0.4248 -0.2912 -0.1256
  122OSM    C1S12832   5.020   6.251   6.752 -0.5089  0.2101  0.8160
  122OSM    H1S12833   4.957   6.161   6.732 -1.1367  0.7440  0.3481
  122OSM    H1T12834   5.124   6.237   6.718 -1.0746 -0.2111 -0.8324
  122OSM     NF12835   4.978   6.322   6.505 -0.0452  0.5874 -0.6180
  122OSM    HNF12836   5.057   6.360   6.457 -1.2635  1.6753 -1.8406
  122OSM    C2S12837   4.965   6.361   6.650 -0.9321 -0.5316 -0.5647
  122OSM    H2S12838   4.860   6.366   6.687  0.0183 -0.6790  2.4838
  122OSM    C3S12839   5.025   6.503   6.676 -0.4508 -0.2677  0.0935
  122OSM    H3S12840   5.133   6.486   6.654 -0.1602  1.2727  0.2093
  122OSM     O312841   5.022   6.538   6.816  0.1571  0.0639 -0.3846
  122OSM    HO312842   5.008   6.462   6.872  3.1984  1.2104  2.2527
  122OSM    C4S12843   4.974   6.614   6.585 -0.0916 -0.3072 -0.6354
  122OSM    H4S12844   4.866   6.630   6.582  0.0794  2.5763  2.3850
  122OSM    C5S12845   5.049   6.693   6.500  0.1026 -0.0908 -0.3376
  122OSM    H5S12846   5.158   6.686   6.493  0.6018  2.9092  2.1513
  122OSM    C6S12847   4.995   6.786   6.393  0.1082 -0.2739 -0.7342
  122OSM    H6S12848   4.959   6.885   6.429  2.8979  0.1237  1.2553
  122OSM    H6T12849   4.908   6.734   6.348  0.5777 -2.2857  0.5352
  122OSM    C7S12850   5.099   6.803   6.278  0.2123  0.1867  0.0717
  122OSM    H7S12851   5.143   6.709   6.239 -0.7797  0.4649 -1.9000
  122OSM    H7T12852   5.172   6.880   6.309 -0.5866  0.4899  1.2887
  122OSM    C8S12853   5.044   6.871   6.155  0.5270  0.1935  0.8650
  122OSM    H8S12854   4.987   6.960   6.188  2.0041  2.3905 -1.9949
  122OSM    H8T12855   4.984   6.803   6.091  1.3783 -0.9507  1.2624
  122OSM    C9S12856   5.152   6.932   6.068 -0.3878 -0.6175 -0.3869
  122OSM    H9S12857   5.202   6.864   5.996  0.7052  0.7439 -0.9559
  122OSM    H9T12858   5.221   6.985   6.138 -0.3944  1.3609 -1.7987
  122OSM   C10S12859   5.097   7.045   5.978 -0.3170  0.2661  0.4661
  122OSM   H10S12860   5.162   7.134   5.981  3.5782 -2.1588 -2.7217
  122OSM   H10T12861   4.997   7.078   6.015 -0.4682 -0.0350  0.3293
  122OSM   C11S12862   5.077   6.997   5.830  0.2902  0.8452 -0.0647
  122OSM   H11S12863   4.972   6.961   5.823 -0.1600  1.6553  1.7963
  122OSM   H11T12864   5.143   6.914   5.798 -1.6852 -0.5150 -0.8058
  122OSM   C12S12865   5.092   7.103   5.726 -0.1891 -0.1462  0.3035
  122OSM   H12S12866   5.195   7.140   5.742  0.6586 -1.4624 -1.7098
  122OSM   H12T12867   5.024   7.190   5.738  2.0898  1.8308 -0.4774
  122OSM   C13S12868   5.087   7.040   5.582  0.7308 -0.6313 -0.9830
  122OSM   H13S12869   4.986   7.000   5.560  0.5424 -2.4743  2.5971
  122OSM   H13T12870   5.153   6.950   5.580  0.7761 -0.6213 -0.1408
  122OSM   C14S12871   5.129   7.151   5.478  0.4576 -0.1335 -0.4971
  122OSM   H14S12872   5.143   7.108   5.377  3.0754 -0.7880  0.0772
  122OSM   H14T12873   5.227   7.193   5.508  1.1310 -2.6376  1.1700
  122OSM   C15S12874   5.022   7.262   5.478 -0.5198  0.2622  0.6766
  122OSM   H15S12875   5.000   7.320   5.570 -1.5891  0.7739  0.1226
  122OSM   H15T12876   4.925   7.209   5.467 -0.5272  0.3733  0.1461
  122OSM   C16S12877   5.055   7.371   5.382  0.0320  0.2108 -0.3717
  122OSM   H16S12878   5.158   7.350   5.347 -0.2770 -1.1169 -0.5289
  122OSM   H16T12879   5.068   7.467   5.437  1.0732 -0.5621  0.7984
  122OSM   C17S12880   4.963   7.377   5.260 -1.1313  0.5105 -0.2407
  122OSM   H17S12881   5.010   7.449   5.190 -0.6846  0.7220  0.2713
  122OSM   H17T12882   4.874   7.429   5.301 -1.6857 -1.6723  1.5919
  122OSM   C18S12883   4.934   7.247   5.187  0.4235  0.0745 -0.1183
  122OSM   H18S12884   5.031   7.200   5.160  0.0351 -0.0045 -1.4461
  122OSM   H18T12885   4.883   7.255   5.089  0.4740 -1.3864 -0.2835
  122OSM   H18U12886   4.889   7.188   5.270  0.9040 -1.2210 -0.7546
  122OSM    C1F12887   4.934   6.205   6.458  0.1763 -0.1829 -0.5300
  122OSM     OF12888   4.866   6.124   6.525 -0.0783  0.2653 -0.0570
  122OSM    C2F12889   4.980   6.169   6.318 -0.2795 -0.0682 -0.1888
  122OSM    H2F12890   5.091   6.158   6.324  0.0447  1.0431 -2.6358
  122OSM    H2G12891   4.975   6.253   6.245  1.8826 -0.7678 -1.2390
  122OSM    C3F12892   4.897   6.057   6.249 -0.0099 -0.4425 -0.2195
  122OSM    H3F12893   4.797   6.092   6.213  0.9974  1.9536 -0.8854
  122OSM    H3G12894   4.880   5.983   6.330 -1.0630  0.3439  0.3079
  122OSM    C4F12895   4.965   6.010   6.119  0.1733 -0.2217  0.0167
  122OSM    H4F12896   4.901   5.925   6.085 -0.2061  0.1088 -0.1103
  122OSM    H4G12897   5.055   5.957   6.156 -0.6034  0.7558  3.7429
  122OSM    C5F12898   4.988   6.109   6.011 -0.4175 -0.6978 -0.1868
  122OSM    H5F12899   5.053   6.191   6.048 -1.5639  0.9169 -1.5708
  122OSM    H5G12900   4.888   6.153   5.988 -0.3619 -0.7522 -0.5372
  122OSM    C6F12901   5.051   6.052   5.887 -0.2830  0.6760  0.8357
  122OSM    H6F12902   5.012   5.950   5.866  1.7868 -0.1439  0.8032
  122OSM    H6G12903   5.160   6.043   5.903 -0.1208 -0.8024 -0.9032
  122OSM    C7F12904   5.031   6.139   5.763  0.6223 -0.8738  0.7548
  122OSM    H7F12905   5.009   6.244   5.789 -0.8809 -1.1796  0.8320
  122OSM    H7G12906   4.931   6.117   5.720  0.8335 -0.4953  0.0395
  122OSM    C8F12907   5.141   6.126   5.655  0.1417 -0.1558 -0.1034
  122OSM    H8F12908   5.232   6.161   5.709 -1.2078  3.2609  0.1661
  122OSM    H8G12909   5.123   6.196   5.570  1.2993  1.2910  0.8019
  122OSM    C9F12910   5.153   5.982   5.606  0.2209  0.4902  1.2163
  122OSM    H9F12911   5.165   5.906   5.685 -1.4696 -1.0369  0.0715
  122OSM   C10F12912   5.147   5.931   5.483  0.2268  0.3018 -0.0649
  122OSM   H10F12913   5.146   5.822   5.469  1.8988  0.1831  0.4460
  122OSM   C11F12914   5.139   6.007   5.352  0.7747  0.4440  0.3653
  122OSM   H11F12915   5.129   6.116   5.371  1.8592  0.8465 -1.1739
  122OSM   H11G12916   5.048   5.973   5.297  1.2683  0.1230 -0.2673
  122OSM   C12F12917   5.253   6.000   5.255  0.0447  0.8666  0.2832
  122OSM   H12F12918   5.260   5.893   5.225 -1.8911  0.8221 -0.1744
  122OSM   H12G12919   5.349   6.043   5.291  1.6595 -0.5978 -2.0100
  122OSM   C13F12920   5.220   6.079   5.124 -0.3605 -0.7542 -0.3707
  122OSM   H13F12921   5.134   6.039   5.067 -0.6733 -1.7099  0.7193
  122OSM   H13G12922   5.308   6.082   5.056 -0.1744  0.9982 -0.0881
  122OSM   C14F12923   5.190   6.230   5.138  0.2985 -0.5230 -0.0208
  122OSM   H14F12924   5.279   6.289   5.170  0.3270 -0.3697 -0.3831
  122OSM   H14G12925   5.109   6.248   5.212 -0.5357  0.5858 -1.1707
  122OSM   C15F12926   5.143   6.289   4.997  0.6340 -0.5872 -0.2675
  122OSM   H15F12927   5.051   6.233   4.968 -0.8751  1.1614  0.9763
  122OSM   H15G12928   5.217   6.265   4.918 -0.5497  0.6332 -1.8236
  122OSM   C16F12929   5.112   6.439   4.991 -0.9560 -0.1711  0.3428
  122OSM   H16F12930   5.208   6.492   5.006 -1.3538  0.4717  0.6414
  122OSM   H16G12931   5.052   6.462   5.082 -2.0714 -1.1792 -0.1078
  122OSM   C17F12932   5.041   6.464   4.854 -0.3358 -0.6338 -0.6740
  122OSM   H17F12933   4.974   6.552   4.849  0.3697 -0.1182 -1.3669
  122OSM   H17G12934   4.970   6.379   4.841 -0.4315 -0.7518  0.4976
  122OSM   C18F12935   5.141   6.497   4.739  0.2112 -0.0969  0.8013
  122OSM   H18F12936   5.194   6.589   4.772  0.3883 -0.0478  0.3866
  122OSM   H18G12937   5.082   6.523   4.649 -0.8016  4.4777  2.5067
  122OSM   H18H12938   5.199   6.406   4.712 -2.3875 -1.6247  0.0563
  123OSM      N12939   6.805   4.383   1.946  0.8921 -0.1477  0.4429
  123OSM    C1512940   6.865   4.330   1.813  0.0062  1.1612  0.4335
  123OSM   H15A12941   6.821   4.232   1.801  2.0550 -0.0090  1.7055
  123OSM   H15B12942   6.972   4.322   1.828 -0.3238 -0.4289  2.4967
  123OSM   H15C12943   6.837   4.399   1.736  0.9331  1.2645  0.1808
  123OSM    C1412944   6.815   4.532   1.949 -0.4059 -0.9644 -0.7222
  123OSM   H14A12945   6.778   4.574   2.041  0.9147 -0.0760 -0.5563
  123OSM   H14B12946   6.767   4.583   1.867 -3.2656  0.4611  1.6369
  123OSM   H14C12947   6.920   4.558   1.946 -0.0539 -1.9462  1.3257
  123OSM    C1312948   6.659   4.345   1.940  0.0111  0.0300 -0.2428
  123OSM   H13A12949   6.604   4.379   2.026 -0.1108 -1.8193  0.4379
  123OSM   H13B12950   6.643   4.239   1.936 -1.7134  0.3070 -2.3687
  123OSM   H13C12951   6.610   4.385   1.852  1.1823 -0.3652 -1.0975
  123OSM    C1212952   6.878   4.326   2.063  0.8435 -0.2388 -0.2848
  123OSM   H12A12953   6.980   4.361   2.067  1.4632 -2.0386  1.4872
  123OSM   H12B12954   6.880   4.219   2.050  2.3116  0.0155 -2.8136
  123OSM    C1112955   6.821   4.352   2.203 -0.1770  0.6407 -0.4533
  123OSM   H11A12956   6.827   4.460   2.229 -1.6318  0.4573  0.8046
  123OSM   H11B12957   6.882   4.293   2.275 -1.3122 -2.7691 -2.0834
  123OSM      P12958   6.637   4.156   2.228 -0.3893 -0.0710 -0.2117
  123OSM    O1312959   6.496   4.151   2.181 -0.5923 -0.2857 -0.5530
  123OSM    O1412960   6.732   4.064   2.158  0.4968 -0.6920 -0.3128
  123OSM    O1112961   6.643   4.124   2.386  0.3949  0.0469  0.2783
  123OSM    O1212962   6.691   4.307   2.222 -0.4309 -0.1938  0.5353
  123OSM    C1S12963   6.674   4.219   2.489 -0.7294  0.1949  0.8885
  123OSM    H1S12964   6.629   4.318   2.467  0.4937  0.5444 -0.1261
  123OSM    H1T12965   6.784   4.235   2.487 -0.6089 -0.6175  0.5807
  123OSM     NF12966   6.657   4.288   2.724 -0.7895  0.9653 -0.1998
  123OSM    HNF12967   6.729   4.281   2.794 -0.4598 -2.7944 -0.7329
  123OSM    C2S12968   6.648   4.172   2.629  0.4036  0.3092  0.4402
  123OSM    H2S12969   6.546   4.129   2.627  0.2886  0.5971 -1.2345
  123OSM    C3S12970   6.744   4.056   2.668  0.1051 -0.1482 -0.1783
  123OSM    H3S12971   6.851   4.086   2.673 -0.0548  0.3260  0.4238
  123OSM     O312972   6.764   3.958   2.565  0.0213  0.0716 -0.4680
  123OSM    HO312973   6.733   4.005   2.487  1.1382  1.8143  0.0829
  123OSM    C4S12974   6.706   3.990   2.802 -0.0994 -0.0292  0.1464
  123OSM    H4S12975   6.751   4.041   2.887  0.5078 -1.3527  0.6466
  123OSM    C5S12976   6.636   3.876   2.819  0.3720  0.0386 -0.1081
  123OSM    H5S12977   6.605   3.826   2.726  1.3792  2.7992 -2.0696
  123OSM    C6S12978   6.610   3.806   2.953  0.1079  0.0070 -0.1031
  123OSM    H6S12979   6.648   3.703   2.969  0.0690  0.2639  1.7712
  123OSM    H6T12980   6.500   3.796   2.971  0.1289 -0.4373 -0.1894
  123OSM    C7S12981   6.667   3.870   3.086  0.2964  0.9212  0.3078
  123OSM    H7S12982   6.660   3.981   3.097  2.4358  1.0739  0.5662
  123OSM    H7T12983   6.774   3.839   3.091  0.1757 -0.5934 -3.5123
  123OSM    C8S12984   6.597   3.822   3.216 -0.5000 -0.1128  0.0398
  123OSM    H8S12985   6.577   3.714   3.197  0.5090 -0.2393 -0.3862
  123OSM    H8T12986   6.511   3.884   3.247  0.5953  1.0943  0.7381
  123OSM    C9S12987   6.700   3.841   3.330 -0.3286  0.1774  0.0613
  123OSM    H9S12988   6.758   3.931   3.304  0.4466 -0.3131  0.0587
  123OSM    H9T12989   6.759   3.747   3.336 -0.2606  0.1827 -0.4834
  123OSM   C10S12990   6.644   3.867   3.472 -0.1185 -0.7233  0.7424
  123OSM   H10S12991   6.716   3.868   3.556  2.4524  0.7373 -1.3309
  123OSM   H10T12992   6.566   3.790   3.493 -0.0792 -0.4946  1.7702
  123OSM   C11S12993   6.575   4.005   3.486 -0.6943 -0.7192  0.3149
  123OSM   H11S12994   6.480   3.999   3.428  0.3770  1.3425 -1.8556
  123OSM   H11T12995   6.635   4.092   3.452 -0.2361 -0.0696  2.6205
  123OSM   C12S12996   6.544   4.037   3.627  0.0307  0.1654 -0.0020
  123OSM   H12S12997   6.638   4.066   3.679 -0.3858  1.7206 -0.0865
  123OSM   H12T12998   6.486   3.949   3.663  0.3307  0.3657  1.0162
  123OSM   C13S12999   6.454   4.156   3.637  0.0517  0.5515 -0.3438
  123OSM   H13S13000   6.365   4.147   3.571  0.8585 -2.2601 -1.1908
  123OSM   H13T13001   6.504   4.247   3.599  0.7902 -0.7661 -2.7282
  123OSM   C14S13002   6.406   4.181   3.779 -0.5864 -0.4584 -0.2512
  123OSM   H14S13003   6.334   4.104   3.814 -1.4275  1.3458  2.3393
  123OSM   H14T13004   6.360   4.282   3.776  0.2717 -0.0375  0.2949
  123OSM   C15S13005   6.509   4.177   3.896  0.0387 -0.2578 -0.0447
  123OSM   H15S13006   6.587   4.256   3.897  1.0504 -1.2298  0.4930
  123OSM   H15T13007   6.567   4.082   3.898  0.6469  0.0351 -1.9685
  123OSM   C16S13008   6.437   4.194   4.033 -0.7520  0.1288  0.3731
  123OSM   H16S13009   6.351   4.123   4.037  0.2989 -1.2493 -0.8033
  123OSM   H16T13010   6.397   4.298   4.027  1.8025  1.2432  1.4922
  123OSM   C17S13011   6.526   4.189   4.154 -1.3270  0.5460  0.5540
  123OSM   H17S13012   6.615   4.124   4.134 -0.7066  1.7210 -0.6473
  123OSM   H17T13013   6.474   4.158   4.247  0.6519 -2.0218  0.9327
  123OSM   C18S13014   6.589   4.324   4.181  0.2408  0.3684 -0.3739
  123OSM   H18S13015   6.595   4.383   4.086  1.3537  1.8448  0.5597
  123OSM   H18T13016   6.692   4.311   4.219 -1.0636 -1.8261  2.8463
  123OSM   H18U13017   6.524   4.376   4.255 -2.0737 -1.4666 -0.9782
  123OSM    C1F13018   6.572   4.390   2.730  0.7272  0.6339 -0.0313
  123OSM     OF13019   6.465   4.382   2.662 -0.0699 -0.2091 -0.5990
  123OSM    C2F13020   6.614   4.511   2.810 -0.1833  0.6274  0.1573
  123OSM    H2F13021   6.621   4.598   2.740  0.4816  0.3806 -0.0855
  123OSM    H2G13022   6.712   4.498   2.861  0.3281  1.7952 -0.4681
  123OSM    C3F13023   6.499   4.541   2.910  0.4564  0.1467  0.4600
  123OSM    H3F13024   6.435   4.454   2.934  1.6195 -1.2208 -1.2119
  123OSM    H3G13025   6.439   4.630   2.880  3.4460  2.4671  0.9279
  123OSM    C4F13026   6.557   4.579   3.048  0.0216  0.1224  0.4600
  123OSM    H4F13027   6.640   4.509   3.071 -1.1416 -1.7917 -0.8216
  123OSM    H4G13028   6.491   4.573   3.137  2.4611 -0.2733  2.3587
  123OSM    C5F13029   6.607   4.721   3.055 -0.2483  0.6130 -0.0502
  123OSM    H5F13030   6.515   4.783   3.056 -0.4589  0.3578 -1.5827
  123OSM    H5G13031   6.664   4.741   2.962  1.1346  1.3493  0.9023
  123OSM    C6F13032   6.688   4.743   3.184  0.2459  0.0665 -0.4357
  123OSM    H6F13033   6.746   4.653   3.213  1.0289  0.7731  0.2547
  123OSM    H6G13034   6.618   4.758   3.269  0.2997  0.9479 -0.5349
  123OSM    C7F13035   6.787   4.861   3.167 -0.2486  0.2506 -0.2114
  123OSM    H7F13036   6.724   4.951   3.157  0.4198  0.6195 -1.2101
  123OSM    H7G13037   6.841   4.837   3.073  0.2679  0.4300  0.0336
  123OSM    C8F13038   6.875   4.863   3.292  0.5663  0.4652  0.0802
  123OSM    H8F13039   6.969   4.920   3.281  1.5343 -1.2161 -0.7362
  123OSM    H8G13040   6.915   4.763   3.319  1.4190  1.3723  2.4357
  123OSM    C9F13041   6.792   4.922   3.406  0.0262 -0.8654 -0.2342
  123OSM    H9F13042   6.722   5.002   3.377 -0.5905  0.1166  3.4008
  123OSM   C10F13043   6.784   4.875   3.536 -0.3060 -0.2615  0.9401
  123OSM   H10F13044   6.720   4.932   3.605 -0.8240  0.1120  0.1741
  123OSM   C11F13045   6.867   4.758   3.589 -0.1035 -0.6251  0.2437
  123OSM   H11F13046   6.941   4.722   3.515 -0.1067  0.9701 -0.5831
  123OSM   H11G13047   6.799   4.671   3.599 -0.9921  0.0295  0.1124
  123OSM   C12F13048   6.935   4.787   3.720  0.1847 -0.0918 -0.6890
  123OSM   H12F13049   6.985   4.691   3.745  1.1970 -0.3799 -3.4196
  123OSM   H12G13050   6.852   4.809   3.790 -1.2935 -1.0195 -2.0761
  123OSM   C13F13051   7.022   4.911   3.703  0.0344 -0.2226  0.2506
  123OSM   H13F13052   6.974   5.011   3.701 -1.2940 -0.7952  1.6337
  123OSM   H13G13053   7.065   4.900   3.601  1.2829 -1.5787  0.8788
  123OSM   C14F13054   7.132   4.913   3.815  0.0082 -0.1915  0.0606
  123OSM   H14F13055   7.210   4.983   3.780 -0.5153  0.2091 -0.3262
  123OSM   H14G13056   7.176   4.811   3.823 -3.6457 -1.8283  2.3602
  123OSM   C15F13057   7.088   4.953   3.960  0.1369 -0.2568 -0.0540
  123OSM   H15F13058   7.008   4.883   3.991  1.3676 -0.9481  1.7327
  123OSM   H15G13059   7.033   5.049   3.963  0.9136  0.1819  0.6064
  123OSM   C16F13060   7.197   4.945   4.061  0.3332  0.1983  0.4873
  123OSM   H16F13061   7.272   5.025   4.044  0.3651 -0.1662 -1.2257
  123OSM   H16G13062   7.247   4.846   4.066 -0.9820 -0.4577  0.8795
  123OSM   C17F13063   7.142   4.968   4.200  0.3452 -0.1298 -1.0292
  123OSM   H17F13064   7.059   4.897   4.219 -0.7392  0.9310 -1.6400
  123OSM   H17G13065   7.095   5.069   4.211 -1.9467 -1.0497 -1.6822
  123OSM   C18F13066   7.246   4.951   4.312 -0.1168 -0.1753  0.3124
  123OSM   H18F13067   7.298   4.853   4.307  0.4301  0.0690  1.0622
  123OSM   H18G13068   7.193   4.942   4.410 -1.3148 -0.3736 -0.3331
  123OSM   H18H13069   7.316   5.037   4.308 -1.4104  0.9561  0.9287
  124OSM      N13070   6.197   5.540   2.251  0.5641  0.0541  0.3844
  124OSM    C1513071   6.321   5.463   2.232 -0.1349 -1.1007  0.2328
  124OSM   H15A13072   6.325   5.381   2.302 -0.9816 -1.0119  0.3884
  124OSM   H15B13073   6.411   5.521   2.242 -0.6892 -0.5032  2.0120
  124OSM   H15C13074   6.331   5.427   2.130  0.7900  0.1285 -0.1381
  124OSM    C1413075   6.089   5.453   2.192 -0.1351  0.6510 -0.6534
  124OSM   H14A13076   6.081   5.356   2.239 -2.0972  0.3509 -1.5025
  124OSM   H14B13077   6.097   5.440   2.085 -1.9660  1.8726 -0.9857
  124OSM   H14C13078   5.990   5.492   2.208 -0.5992 -1.1156  1.1612
  124OSM    C1313079   6.171   5.577   2.398 -0.4575  0.5966  0.0892
  124OSM   H13A13080   6.237   5.654   2.434 -2.7033  1.9420  1.5789
  124OSM   H13B13081   6.166   5.494   2.467  0.6418 -0.1142 -0.6509
  124OSM   H13C13082   6.067   5.606   2.403 -0.7884 -0.6527  1.3960
  124OSM    C1213083   6.194   5.670   2.155  0.8425  0.1131  0.6249
  124OSM   H12A13084   6.093   5.708   2.149  0.8498 -0.0201 -4.1653
  124OSM   H12B13085   6.224   5.654   2.053 -1.5839  0.1594 -0.1447
  124OSM    C1113086   6.294   5.777   2.198 -0.0111  0.3188  0.6500
  124OSM   H11A13087   6.280   5.790   2.308 -3.1347 -0.1777  0.3908
  124OSM   H11B13088   6.278   5.866   2.134 -0.1545 -1.0850 -1.3568
  124OSM      P13089   6.560   5.793   2.223  0.0983 -0.0811 -0.1677
  124OSM    O1313090   6.657   5.691   2.267  0.6381  0.0650  0.4824
  124OSM    O1413091   6.619   5.888   2.123  0.3978 -0.1974 -0.2062
  124OSM    O1113092   6.512   5.862   2.358  0.0477  1.4172  0.3689
  124OSM    O1213093   6.431   5.731   2.168 -0.2590 -0.0578 -0.3347
  124OSM    C1S13094   6.601   5.935   2.437 -0.7530  0.2139 -0.3124
  124OSM    H1S13095   6.588   6.040   2.406 -2.9445 -0.0181 -0.3207
  124OSM    H1T13096   6.709   5.916   2.418  0.1068  1.6019  2.6631
  124OSM     NF13097   6.683   6.014   2.662 -0.0187  0.1895  0.1389
  124OSM    HNF13098   6.737   5.977   2.737  0.9323  0.1746 -0.5370
  124OSM    C2S13099   6.584   5.929   2.599 -0.6505  0.0812 -0.4756
  124OSM    H2S13100   6.485   5.975   2.620 -0.6530 -0.7365  1.4821
  124OSM    C3S13101   6.579   5.790   2.664  0.0588  0.3143  0.1987
  124OSM    H3S13102   6.683   5.752   2.655 -0.0320  0.3097 -0.9624
  124OSM     O313103   6.495   5.691   2.590  0.2817 -0.2533 -0.3404
  124OSM    HO313104   6.483   5.741   2.508 -1.2594  1.6953  0.9789
  124OSM    C4S13105   6.544   5.800   2.812  0.4535 -0.3904  0.1954
  124OSM    H4S13106   6.627   5.788   2.883  0.1227 -1.4926  0.4078
  124OSM    C5S13107   6.418   5.804   2.860  0.2415 -0.0625 -0.0474
  124OSM    H5S13108   6.339   5.779   2.788 -0.6920  0.6121  0.7256
  124OSM    C6S13109   6.388   5.801   3.006 -0.0946 -0.0813 -0.0202
  124OSM    H6S13110   6.343   5.706   3.041  0.0182 -0.2660 -0.3727
  124OSM    H6T13111   6.308   5.876   3.025  1.2096  1.7382 -1.3165
  124OSM    C7S13112   6.501   5.838   3.110  0.3217 -0.1359 -0.1247
  124OSM    H7S13113   6.532   5.942   3.089  0.2828 -0.5566 -2.6427
  124OSM    H7T13114   6.592   5.775   3.112  1.8664  2.0187  1.0496
  124OSM    C8S13115   6.440   5.813   3.249  0.3163 -0.1437  0.2970
  124OSM    H8S13116   6.405   5.708   3.249  0.7521 -0.2898 -0.0411
  124OSM    H8T13117   6.362   5.885   3.284 -0.4983 -1.6301  1.6718
  124OSM    C9S13118   6.551   5.826   3.356 -0.4443  1.1963  0.3372
  124OSM    H9S13119   6.618   5.910   3.326  0.5272 -0.2018 -1.5821
  124OSM    H9T13120   6.614   5.734   3.360 -0.4897  1.0123 -2.1835
  124OSM   C10S13121   6.500   5.855   3.504  0.1959  0.4174 -0.1063
  124OSM   H10S13122   6.456   5.755   3.528  1.8974 -0.7373 -1.4972
  124OSM   H10T13123   6.420   5.931   3.512  0.7221  1.0704 -0.9209
  124OSM   C11S13124   6.604   5.888   3.605 -0.2640 -0.4933 -0.5400
  124OSM   H11S13125   6.635   5.995   3.600 -0.4270 -0.4841 -1.5664
  124OSM   H11T13126   6.697   5.831   3.580 -0.6729 -1.2122 -0.4489
  124OSM   C12S13127   6.561   5.866   3.751  0.4609  0.3468 -0.2008
  124OSM   H12S13128   6.524   5.762   3.761 -0.1594  0.4035 -1.6495
  124OSM   H12T13129   6.477   5.931   3.784  1.5364  0.8568  1.7291
  124OSM   C13S13130   6.674   5.901   3.860  0.2856  0.2747 -0.1524
  124OSM   H13S13131   6.701   6.009   3.858 -0.4867  0.4772 -2.1539
  124OSM   H13T13132   6.758   5.845   3.813  0.6981  0.5041  0.3048
  124OSM   C14S13133   6.656   5.842   3.996 -0.5587 -0.4274 -0.2864
  124OSM   H14S13134   6.639   5.732   3.997  1.9478 -0.9164  2.3934
  124OSM   H14T13135   6.557   5.872   4.038 -1.1546 -1.0887 -1.1892
  124OSM   C15S13136   6.774   5.873   4.100  0.3603  0.1525  0.0521
  124OSM   H15S13137   6.813   5.977   4.098  2.3892 -0.5470  0.6811
  124OSM   H15T13138   6.844   5.804   4.048  0.4143  2.7438 -3.7753
  124OSM   C16S13139   6.730   5.819   4.237 -0.1273 -0.7259 -0.0512
  124OSM   H16S13140   6.694   5.716   4.217 -0.8628 -0.4581 -0.1397
  124OSM   H16T13141   6.652   5.887   4.278  1.0138  0.9257 -0.4998
  124OSM   C17S13142   6.840   5.801   4.343  0.3357 -0.0586  0.4704
  124OSM   H17S13143   6.887   5.900   4.362  0.3905 -0.2255  1.2520
  124OSM   H17T13144   6.921   5.743   4.294 -0.4663 -0.2462 -0.6729
  124OSM   C18S13145   6.796   5.744   4.479 -0.7887  0.1205 -0.7026
  124OSM   H18S13146   6.865   5.691   4.548 -2.3555  0.8165  1.5273
  124OSM   H18T13147   6.716   5.670   4.458  0.2667 -2.1005  2.3042
  124OSM   H18U13148   6.740   5.820   4.537 -2.3765 -0.4704 -1.4110
  124OSM    C1F13149   6.705   6.147   2.637 -0.1987  0.0902  0.3594
  124OSM     OF13150   6.660   6.206   2.544  0.1108 -0.6738 -0.0244
  124OSM    C2F13151   6.787   6.221   2.738 -0.2080  0.2288  0.4723
  124OSM    H2F13152   6.856   6.278   2.672 -2.5200  0.2308 -2.1444
  124OSM    H2G13153   6.844   6.148   2.799  1.2800  0.2163 -0.8496
  124OSM    C3F13154   6.701   6.322   2.818  0.4009 -0.2492  0.5509
  124OSM    H3F13155   6.623   6.376   2.761 -0.9766 -1.4912  1.1966
  124OSM    H3G13156   6.772   6.400   2.851 -0.7347  1.8679 -1.6970
  124OSM    C4F13157   6.617   6.252   2.933 -0.2925 -0.4725 -0.1843
  124OSM    H4F13158   6.686   6.193   2.996 -2.0021 -1.3644  0.9301
  124OSM    H4G13159   6.552   6.172   2.890  0.0309  0.5374 -2.7382
  124OSM    C5F13160   6.541   6.351   3.023 -0.1409 -0.3358 -1.0258
  124OSM    H5F13161   6.443   6.374   2.975  0.5565 -0.6945 -2.6975
  124OSM    H5G13162   6.599   6.446   3.026 -0.4064 -0.1798  2.4092
  124OSM    C6F13163   6.501   6.309   3.168 -0.6360  0.0258 -0.2127
  124OSM    H6F13164   6.432   6.223   3.160 -0.3779 -0.3643  1.4441
  124OSM    H6G13165   6.441   6.395   3.205  0.2573  0.8273 -0.5822
  124OSM    C7F13166   6.617   6.272   3.261 -0.0013 -0.8943 -0.5545
  124OSM    H7F13167   6.672   6.363   3.295  1.6534 -0.8733 -3.0414
  124OSM    H7G13168   6.693   6.221   3.197  0.2395  1.0193 -1.8762
  124OSM    C8F13169   6.580   6.199   3.385  0.3344 -0.5916  0.3198
  124OSM    H8F13170   6.667   6.153   3.437 -0.1742 -3.1513 -0.9690
  124OSM    H8G13171   6.511   6.120   3.349 -0.3239 -0.9332  2.2247
  124OSM    C9F13172   6.494   6.284   3.472 -0.3459 -0.6087 -0.6254
  124OSM    H9F13173   6.388   6.286   3.441 -1.0114 -0.8627  1.5037
  124OSM   C10F13174   6.521   6.342   3.593  0.0639  0.0380  0.2651
  124OSM   H10F13175   6.432   6.385   3.642 -1.3267 -1.2398 -1.0195
  124OSM   C11F13176   6.646   6.351   3.668  0.2833 -0.1513 -0.4236
  124OSM   H11F13177   6.664   6.461   3.666 -1.4660  0.1918  0.7055
  124OSM   H11G13178   6.728   6.300   3.613  2.9735  3.9130 -0.6406
  124OSM   C12F13179   6.619   6.297   3.815 -0.3060  0.2472 -0.1278
  124OSM   H12F13180   6.580   6.193   3.809 -1.0769  0.4824  0.5813
  124OSM   H12G13181   6.555   6.366   3.874 -0.1450  0.3178 -0.0335
  124OSM   C13F13182   6.738   6.297   3.911 -1.0138  0.1917 -0.0929
  124OSM   H13F13183   6.794   6.392   3.918  0.3540 -0.7261  3.3076
  124OSM   H13G13184   6.815   6.224   3.878  0.7409  0.4724  3.0508
  124OSM   C14F13185   6.696   6.275   4.059  0.8126 -0.4672 -0.3361
  124OSM   H14F13186   6.649   6.175   4.069 -0.8252  0.2170 -0.7254
  124OSM   H14G13187   6.617   6.345   4.094  1.8434  0.0505  1.0154
  124OSM   C15F13188   6.812   6.273   4.151 -0.6944 -0.4847 -0.2474
  124OSM   H15F13189   6.869   6.367   4.133 -2.9966  1.1458  0.4943
  124OSM   H15G13190   6.883   6.197   4.112  1.0028  1.0407 -0.2798
  124OSM   C16F13191   6.779   6.242   4.301  0.0305  0.1828 -0.6146
  124OSM   H16F13192   6.777   6.132   4.318  1.5411  0.3642  1.0269
  124OSM   H16G13193   6.681   6.288   4.324 -0.1708 -0.1376 -0.8158
  124OSM   C17F13194   6.872   6.293   4.412 -0.7110  0.0131  0.4119
  124OSM   H17F13195   6.823   6.273   4.510 -0.2708  1.7083  1.0007
  124OSM   H17G13196   6.868   6.403   4.401  3.9709  0.2031 -1.8006
  124OSM   C18F13197   7.013   6.242   4.385 -1.0234 -0.7283 -0.4909
  124OSM   H18F13198   7.005   6.132   4.396 -2.8586 -0.4948  1.2039
  124OSM   H18G13199   7.090   6.279   4.457 -0.3693 -0.9968 -1.0433
  124OSM   H18H13200   7.036   6.264   4.279  1.9988 -3.8583 -0.6725
  125OSM      N13201   1.739   2.963   2.416 -0.4568 -0.4857  1.2380
  125OSM    C1513202   1.671   3.082   2.472  0.1417  0.2763 -0.5555
  125OSM   H15A13203   1.739   3.158   2.506 -0.7289  1.0609 -0.5461
  125OSM   H15B13204   1.610   3.057   2.558 -0.2203 -0.0830 -0.9149
  125OSM   H15C13205   1.603   3.121   2.398 -0.5327 -3.2464 -2.0061
  125OSM    C1413206   1.645   2.890   2.328  0.3788  0.6171  0.2118
  125OSM   H14A13207   1.702   2.817   2.273  0.9623 -1.3008  3.1424
  125OSM   H14B13208   1.597   2.950   2.252  0.1265  0.5906  0.3469
  125OSM   H14C13209   1.567   2.841   2.384 -0.3594  2.6349  1.0682
  125OSM    C1313210   1.848   3.012   2.319 -0.0861  0.3651  0.0946
  125OSM   H13A13211   1.916   3.086   2.359  1.8934 -0.7786 -0.9917
  125OSM   H13B13212   1.813   3.053   2.226 -0.3234  0.2250  0.1200
  125OSM   H13C13213   1.915   2.931   2.295  2.5015  2.5193 -0.3967
  125OSM    C1213214   1.800   2.869   2.523  0.5490  0.1301  0.9166
  125OSM   H12A13215   1.718   2.838   2.585  0.1513 -1.0788 -0.1673
  125OSM   H12B13216   1.865   2.935   2.579  0.9013  0.3182  0.2980
  125OSM    C1113217   1.877   2.741   2.491 -0.6841  0.1754  0.3854
  125OSM   H11A13218   1.813   2.675   2.428 -0.2128 -0.8354  0.9546
  125OSM   H11B13219   1.903   2.689   2.585  0.7103  1.1520  0.5609
  125OSM      P13220   2.136   2.718   2.440 -0.2501  0.0769 -0.2265
  125OSM    O1313221   2.129   2.569   2.434  0.8966 -0.0668  0.0129
  125OSM    O1413222   2.227   2.780   2.336  0.5672  0.2886 -0.2992
  125OSM    O1113223   2.189   2.768   2.586  0.3437 -0.1524  0.3427
  125OSM    O1213224   1.991   2.774   2.415 -0.0335  0.0008 -0.3640
  125OSM    C1S13225   2.175   2.909   2.604  0.8140  0.4855  0.6408
  125OSM    H1S13226   2.072   2.942   2.576  1.6328  3.5523  0.9037
  125OSM    H1T13227   2.258   2.966   2.557  0.0935  1.1890  0.1834
  125OSM     NF13228   2.135   3.068   2.795  0.5327 -0.1042 -0.1909
  125OSM    HNF13229   2.193   3.141   2.829 -0.3435  1.5967 -2.0893
  125OSM    C2S13230   2.180   2.938   2.758  0.2372  0.5476  0.2054
  125OSM    H2S13231   2.111   2.864   2.804 -0.8956  0.6532 -1.2495
  125OSM    C3S13232   2.309   2.891   2.822  0.0115 -0.4538  0.0996
  125OSM    H3S13233   2.380   2.960   2.772 -1.3221  0.0833 -1.1302
  125OSM     O313234   2.338   2.753   2.795 -0.1760  0.2022  0.5628
  125OSM    HO313235   2.280   2.728   2.723  0.5118 -3.6705  1.1378
  125OSM    C4S13236   2.309   2.911   2.963  0.2507 -0.5462 -0.7491
  125OSM    H4S13237   2.253   2.829   3.009 -0.6323  0.1555 -0.5574
  125OSM    C5S13238   2.360   3.013   3.038 -0.5698 -0.1517 -0.3833
  125OSM    H5S13239   2.412   3.097   2.988  1.2539 -1.4266 -0.7281
  125OSM    C6S13240   2.354   3.011   3.184  0.3097  0.0653 -0.6354
  125OSM    H6S13241   2.448   3.053   3.227 -0.3162 -0.1775  1.0322
  125OSM    H6T13242   2.353   2.911   3.233  4.3206 -0.5970 -1.5768
  125OSM    C7S13243   2.240   3.092   3.238 -0.0372 -0.3070  0.2414
  125OSM    H7S13244   2.151   3.045   3.189 -1.1313  0.5091  1.3943
  125OSM    H7T13245   2.247   3.197   3.201  3.9430 -0.0806  1.1575
  125OSM    C8S13246   2.216   3.084   3.392  0.0276  0.1566  0.2091
  125OSM    H8S13247   2.308   3.105   3.452  0.2080 -0.4486  0.1477
  125OSM    H8T13248   2.172   2.985   3.415 -2.9032  1.1814 -0.5935
  125OSM    C9S13249   2.103   3.177   3.425 -0.1722 -0.3589  0.0638
  125OSM    H9S13250   2.043   3.166   3.333  3.1640  0.0349 -2.3616
  125OSM    H9T13251   2.151   3.277   3.428  0.8250 -0.8265  2.4711
  125OSM   C10S13252   2.013   3.148   3.547  0.3321  0.0072 -0.1224
  125OSM   H10S13253   1.978   3.042   3.545 -2.8970  0.9776 -0.0897
  125OSM   H10T13254   1.921   3.208   3.537 -0.7177 -1.0590  2.2704
  125OSM   C11S13255   2.090   3.168   3.672  0.2378 -0.2130  0.0417
  125OSM   H11S13256   2.159   3.254   3.658 -1.6332  1.5024  0.9182
  125OSM   H11T13257   2.156   3.079   3.683 -0.4593 -0.7601 -0.1277
  125OSM   C12S13258   1.993   3.196   3.797  0.9074 -0.0782 -0.3422
  125OSM   H12S13259   1.916   3.117   3.812 -0.9385  1.3139 -1.8506
  125OSM   H12T13260   1.926   3.281   3.770  3.2139  1.4034 -1.8095
  125OSM   C13S13261   2.070   3.206   3.920 -0.0577 -0.2677 -0.2370
  125OSM   H13S13262   2.128   3.300   3.905  1.2044 -1.3084 -2.2750
  125OSM   H13T13263   2.137   3.119   3.938  0.4037  0.2563  0.6950
  125OSM   C14S13264   1.991   3.214   4.047  0.0821  0.2935 -0.0039
  125OSM   H14S13265   1.940   3.116   4.047  1.2752 -0.3506 -0.9075
  125OSM   H14T13266   1.913   3.290   4.024  1.4405  1.4911 -0.8377
  125OSM   C15S13267   2.067   3.261   4.176 -0.0439 -0.1318 -0.1529
  125OSM   H15S13268   2.129   3.347   4.142  0.5233 -0.3121  0.4102
  125OSM   H15T13269   2.124   3.172   4.210 -0.9842 -0.5933  0.2489
  125OSM   C16S13270   1.972   3.294   4.285  0.2588 -0.4074 -0.3785
  125OSM   H16S13271   1.929   3.205   4.337  0.6586  0.9648  2.5390
  125OSM   H16T13272   1.883   3.344   4.243 -0.6675 -1.7343 -0.0397
  125OSM   C17S13273   2.019   3.397   4.393  0.5143  0.3208  0.1373
  125OSM   H17S13274   2.069   3.475   4.332 -2.5388  0.8453 -1.9291
  125OSM   H17T13275   2.094   3.348   4.459  0.0985 -1.3388 -0.5832
  125OSM   C18S13276   1.909   3.462   4.478  0.3113  0.3553  0.0942
  125OSM   H18S13277   1.843   3.515   4.405 -1.5640 -2.7759 -0.6506
  125OSM   H18T13278   1.958   3.524   4.556 -0.3840 -1.3636  1.9675
  125OSM   H18U13279   1.838   3.395   4.531 -0.4837  0.2929 -1.0051
  125OSM    C1F13280   2.003   3.097   2.778  0.2166 -0.7901 -0.2853
  125OSM     OF13281   1.918   3.015   2.749  0.1585 -0.1338 -0.0714
  125OSM    C2F13282   1.965   3.238   2.814  0.0679  0.7520  0.0123
  125OSM    H2F13283   1.914   3.273   2.722 -2.3412  0.8960  1.3111
  125OSM    H2G13284   2.059   3.293   2.836 -0.4153  0.5465  2.9687
  125OSM    C3F13285   1.880   3.257   2.948 -0.0657  0.2040  0.4864
  125OSM    H3F13286   1.923   3.200   3.033 -0.0281 -2.9247 -1.4604
  125OSM    H3G13287   1.779   3.214   2.931  0.5045 -0.8098 -0.4520
  125OSM    C4F13288   1.878   3.410   2.977 -0.4865 -0.5923 -0.6677
  125OSM    H4F13289   1.864   3.450   2.874 -2.6460 -2.5519 -1.2109
  125OSM    H4G13290   1.971   3.448   3.024  0.1868 -2.4383 -0.4105
  125OSM    C5F13291   1.767   3.462   3.082  0.3163 -0.8692 -0.1050
  125OSM    H5F13292   1.673   3.451   3.024 -0.7915  3.1164  0.6644
  125OSM    H5G13293   1.804   3.564   3.102  2.1418 -1.8219  1.7461
  125OSM    C6F13294   1.751   3.373   3.212  0.1307 -0.3917 -0.2046
  125OSM    H6F13295   1.850   3.377   3.264  0.8179 -0.5160 -1.4574
  125OSM    H6G13296   1.752   3.266   3.181  1.6187 -0.3136 -0.5054
  125OSM    C7F13297   1.627   3.404   3.299 -0.0890 -0.2485 -0.3429
  125OSM    H7F13298   1.542   3.405   3.227  1.1022  0.5030 -1.8014
  125OSM    H7G13299   1.617   3.503   3.347 -2.6938 -1.2974  1.5051
  125OSM    C8F13300   1.616   3.293   3.412 -0.1306  0.2189  0.6727
  125OSM    H8F13301   1.701   3.314   3.481 -0.3570 -2.5138  1.9172
  125OSM    H8G13302   1.632   3.192   3.367 -0.9716 -0.4890  1.9041
  125OSM    C9F13303   1.478   3.283   3.471  0.2157 -0.9583  0.0180
  125OSM    H9F13304   1.393   3.297   3.403  0.1357  4.5163  0.8120
  125OSM   C10F13305   1.453   3.313   3.603  0.6401 -0.4999  0.4364
  125OSM   H10F13306   1.352   3.318   3.648  0.3480 -0.1355 -0.2494
  125OSM   C11F13307   1.550   3.345   3.716  0.1403 -0.0282  0.0522
  125OSM   H11F13308   1.638   3.406   3.685 -0.5196  0.8668 -0.1175
  125OSM   H11G13309   1.591   3.248   3.750  0.1504 -0.0204  0.0626
  125OSM   C12F13310   1.471   3.388   3.837  0.2221  0.6004 -0.6458
  125OSM   H12F13311   1.395   3.310   3.856 -0.4450  1.0412 -1.4390
  125OSM   H12G13312   1.427   3.489   3.821 -2.1591  0.0265  1.6454
  125OSM   C13F13313   1.563   3.407   3.958 -0.4106  0.2529 -0.7317
  125OSM   H13F13314   1.650   3.476   3.947  0.9831 -1.6433 -2.2615
  125OSM   H13G13315   1.625   3.315   3.964  0.8632  1.1121  0.0350
  125OSM   C14F13316   1.486   3.439   4.086  0.2843 -0.2703 -0.3133
  125OSM   H14F13317   1.388   3.386   4.098 -0.9065  1.3592 -2.2792
  125OSM   H14G13318   1.467   3.548   4.094  2.3788  0.0566  1.0354
  125OSM   C15F13319   1.559   3.389   4.214  0.7544 -0.3512  0.2436
  125OSM   H15F13320   1.664   3.425   4.207  0.9627 -1.1927 -1.7601
  125OSM   H15G13321   1.560   3.278   4.223 -0.3516 -0.4784 -0.9551
  125OSM   C16F13322   1.488   3.450   4.334 -0.7038 -0.4353 -0.8422
  125OSM   H16F13323   1.379   3.454   4.316 -1.0911  0.2544  1.2873
  125OSM   H16G13324   1.507   3.559   4.335 -0.3267 -0.4770  1.0833
  125OSM   C17F13325   1.514   3.388   4.470  0.1287 -0.0478 -0.2363
  125OSM   H17F13326   1.616   3.343   4.468  0.2571  0.1980  0.6262
  125OSM   H17G13327   1.450   3.300   4.492 -0.6401  0.7201  0.6842
  125OSM   C18F13328   1.490   3.493   4.581 -0.3909 -0.4922 -0.1700
  125OSM   H18F13329   1.478   3.592   4.532  0.1158  0.3854  1.3984
  125OSM   H18G13330   1.585   3.500   4.639  1.0390  2.1516 -2.5482
  125OSM   H18H13331   1.409   3.466   4.652  0.2705 -1.6925  0.1429
  126OSM      N13332   0.053   1.329   2.123  0.5056 -0.6218  1.0756
  126OSM    C1513333   0.103   1.464   2.079  0.4720 -0.1579  0.4091
  126OSM   H15A13334   0.029   1.542   2.092 -2.3888 -2.5239 -0.7389
  126OSM   H15B13335   0.120   1.464   1.972  0.4782  3.6840  0.2500
  126OSM   H15C13336   0.197   1.489   2.126  0.8996 -2.6241  1.0158
  126OSM    C1413337  -0.072   1.308   2.035 -0.4970  0.2957  0.7386
  126OSM   H14A13338  -0.088   1.201   2.034 -0.6508  0.3185  0.7267
  126OSM   H14B13339  -0.065   1.360   1.941 -0.8772  0.3287  0.7275
  126OSM   H14C13340  -0.159   1.347   2.086 -1.0722 -1.3249  1.0428
  126OSM    C1313341   0.162   1.236   2.086  0.3466  0.2785 -0.0660
  126OSM   H13A13342   0.258   1.267   2.126 -0.1014  2.2814 -0.4211
  126OSM   H13B13343   0.168   1.223   1.979 -1.1782  0.0834 -0.1442
  126OSM   H13C13344   0.126   1.135   2.097  1.4210 -0.2144 -0.9002
  126OSM    C1213345   0.031   1.319   2.266 -0.1647 -0.5856 -0.2405
  126OSM   H12A13346   0.120   1.354   2.317 -1.6102  0.2799  1.8298
  126OSM   H12B13347  -0.012   1.227   2.303 -2.3772  0.3505 -0.3662
  126OSM    C1113348  -0.070   1.420   2.331 -0.2613  0.0918  0.8726
  126OSM   H11A13349  -0.026   1.519   2.305  2.6192 -1.2476  0.3166
  126OSM   H11B13350  -0.064   1.411   2.441 -0.1308  0.2419  0.8784
  126OSM      P13351  -0.284   1.270   2.314  0.0016  0.5383 -0.3035
  126OSM    O1313352  -0.403   1.255   2.231  0.5808  0.5601 -0.6704
  126OSM    O1413353  -0.198   1.151   2.320  0.0859 -0.5065 -0.1602
  126OSM    O1113354  -0.326   1.314   2.460 -0.5371 -0.1226 -0.2975
  126OSM    O1213355  -0.202   1.400   2.272 -0.3139 -0.1360  0.1743
  126OSM    C1S13356  -0.275   1.239   2.570  0.5721  0.2537  0.1181
  126OSM    H1S13357  -0.164   1.238   2.569  0.6683  2.7693  0.2415
  126OSM    H1T13358  -0.312   1.135   2.564  0.0005  0.4294  0.4380
  126OSM     NF13359  -0.211   1.283   2.815 -0.2321 -0.7624 -0.4817
  126OSM    HNF13360  -0.250   1.256   2.903 -1.0615 -1.1525 -0.9541
  126OSM    C2S13361  -0.299   1.318   2.705  0.8521  0.3739 -0.1711
  126OSM    H2S13362  -0.265   1.420   2.680  0.5957  0.3921 -0.4582
  126OSM    C3S13363  -0.449   1.311   2.739 -0.7709 -0.0101  0.2370
  126OSM    H3S13364  -0.491   1.208   2.731 -1.5832  0.1545  1.8592
  126OSM     O313365  -0.524   1.399   2.655 -0.0370  0.3302 -1.0057
  126OSM    HO313366  -0.451   1.442   2.611  1.6303 -0.5980  0.6816
  126OSM    C4S13367  -0.481   1.358   2.878  0.2626 -0.0119  0.0107
  126OSM    H4S13368  -0.431   1.451   2.908 -1.6744  1.4738 -1.0790
  126OSM    C5S13369  -0.539   1.292   2.980  0.0107 -0.3494  0.6763
  126OSM    H5S13370  -0.578   1.189   2.972 -0.4995 -0.2160  1.3718
  126OSM    C6S13371  -0.536   1.338   3.122  0.2806  0.1726 -0.5006
  126OSM    H6S13372  -0.501   1.247   3.176 -2.4155 -1.1048 -0.7678
  126OSM    H6T13373  -0.640   1.349   3.159  0.5204  2.4724 -0.3336
  126OSM    C7S13374  -0.453   1.460   3.165  0.3300  0.9546 -0.3192
  126OSM    H7S13375  -0.497   1.554   3.125  0.5942  1.1499 -0.1497
  126OSM    H7T13376  -0.350   1.477   3.128 -1.1371  4.0437 -3.6863
  126OSM    C8S13377  -0.456   1.477   3.319  0.5856  0.0397  0.2660
  126OSM    H8S13378  -0.561   1.470   3.353  0.2982  0.8850 -0.4144
  126OSM    H8T13379  -0.420   1.579   3.344 -2.8513  1.7546 -1.1354
  126OSM    C9S13380  -0.363   1.383   3.394  0.1631 -0.6776 -0.0344
  126OSM    H9S13381  -0.270   1.378   3.335 -1.1161  1.6786 -2.4866
  126OSM    H9T13382  -0.416   1.286   3.390  1.5864 -1.6730  2.7157
  126OSM   C10S13383  -0.333   1.418   3.541 -0.5082  0.0592 -0.5755
  126OSM   H10S13384  -0.301   1.524   3.552 -1.5971  0.3321  0.2843
  126OSM   H10T13385  -0.265   1.339   3.578 -1.4842 -0.8397 -0.6496
  126OSM   C11S13386  -0.451   1.398   3.635  0.3507  0.4214  0.2585
  126OSM   H11S13387  -0.483   1.296   3.602  3.4744  0.2074 -2.6407
  126OSM   H11T13388  -0.525   1.480   3.623  0.4326  0.5255  0.4596
  126OSM   C12S13389  -0.406   1.401   3.784  0.1331 -0.9834  0.6467
  126OSM   H12S13390  -0.380   1.509   3.789 -1.4762 -0.4932 -0.6928
  126OSM   H12T13391  -0.316   1.339   3.804  1.3801 -0.8202 -3.5881
  126OSM   C13S13392  -0.526   1.386   3.873  0.1254 -0.5677 -0.1636
  126OSM   H13S13393  -0.569   1.286   3.850 -2.6854 -0.0340  2.1620
  126OSM   H13T13394  -0.607   1.459   3.849 -0.9474 -1.2149  1.3420
  126OSM   C14S13395  -0.480   1.403   4.022  0.2968 -0.5788  0.9580
  126OSM   H14S13396  -0.400   1.479   4.021  0.5908 -0.8617 -0.8635
  126OSM   H14T13397  -0.455   1.307   4.073 -1.3372 -0.3930  2.2154
  126OSM   C15S13398  -0.596   1.443   4.123 -0.7646 -0.2090  0.6639
  126OSM   H15S13399  -0.662   1.361   4.157 -0.2884 -1.1359 -0.5909
  126OSM   H15T13400  -0.660   1.511   4.063 -0.9186  0.5860  1.6942
  126OSM   C16S13401  -0.540   1.524   4.240 -0.6145 -0.8022  0.2218
  126OSM   H16S13402  -0.482   1.604   4.188 -2.8072  0.3247 -0.6054
  126OSM   H16T13403  -0.469   1.462   4.298 -0.3620  0.5134  1.3672
  126OSM   C17S13404  -0.638   1.587   4.338  0.2233  0.5118  0.5420
  126OSM   H17S13405  -0.691   1.506   4.393 -1.4182  1.4785  0.4702
  126OSM   H17T13406  -0.705   1.644   4.270  1.2115  0.0701 -0.8362
  126OSM   C18S13407  -0.577   1.677   4.440  0.5115 -0.6405 -0.1648
  126OSM   H18S13408  -0.651   1.737   4.496 -0.9120 -0.4304 -2.1447
  126OSM   H18T13409  -0.523   1.751   4.378 -2.6470  0.6302 -1.6321
  126OSM   H18U13410  -0.507   1.624   4.508  2.7220  1.5153 -0.6274
  126OSM    C1F13411  -0.084   1.291   2.805 -1.4834 -0.9511 -0.3824
  126OSM     OF13412  -0.018   1.345   2.718 -0.5021  0.0820 -0.2310
  126OSM    C2F13413  -0.004   1.229   2.920  0.5167  0.2139 -0.3637
  126OSM    H2F13414   0.087   1.178   2.883  1.3145  0.6730  0.9065
  126OSM    H2G13415  -0.076   1.164   2.974 -0.1872  1.9292  0.8676
  126OSM    C3F13416   0.060   1.328   3.016 -0.4750 -0.8811 -0.4174
  126OSM    H3F13417   0.152   1.378   2.979 -0.3335 -1.0437 -0.2851
  126OSM    H3G13418   0.085   1.261   3.102 -1.0889 -0.2773  0.2479
  126OSM    C4F13419  -0.026   1.443   3.074  0.0549  0.4596 -0.1872
  126OSM    H4F13420  -0.126   1.418   3.115  0.0094  0.8397 -0.0587
  126OSM    H4G13421  -0.045   1.522   2.999  1.8107  0.9662 -0.1509
  126OSM    C5F13422   0.043   1.514   3.190 -0.0806 -0.3402 -0.0753
  126OSM    H5F13423   0.138   1.558   3.152  0.1239 -0.5464  0.1908
  126OSM    H5G13424   0.067   1.450   3.277  1.0966  0.0150 -0.1185
  126OSM    C6F13425  -0.029   1.645   3.240  0.3843  0.4884 -0.0545
  126OSM    H6F13426  -0.140   1.641   3.252  0.4681  0.4829  0.7276
  126OSM    H6G13427  -0.017   1.713   3.153 -1.8820  0.5195 -0.4025
  126OSM    C7F13428   0.024   1.701   3.375  0.7112  0.1938  0.4196
  126OSM    H7F13429  -0.006   1.807   3.363 -0.9764 -0.4129 -1.3118
  126OSM    H7G13430   0.135   1.696   3.368  0.6051 -3.2887 -1.0746
  126OSM    C8F13431  -0.043   1.631   3.501 -0.6719 -0.1466 -0.5436
  126OSM    H8F13432  -0.027   1.522   3.489  2.8463  0.3441 -1.4892
  126OSM    H8G13433  -0.149   1.663   3.497 -0.3819  0.8964 -0.2860
  126OSM    C9F13434   0.033   1.678   3.628  0.0997  0.3634  0.1183
  126OSM    H9F13435   0.100   1.764   3.617 -0.4617  0.5764 -2.1768
  126OSM   C10F13436   0.021   1.624   3.749 -0.5646  0.2370  0.1407
  126OSM   H10F13437   0.070   1.670   3.836 -1.4520 -0.3799  0.9922
  126OSM   C11F13438  -0.075   1.515   3.803  0.1371 -0.0793  0.9250
  126OSM   H11F13439  -0.095   1.438   3.725  2.0363  1.2375 -0.9727
  126OSM   H11G13440  -0.177   1.556   3.819 -0.6655 -1.5714 -0.1017
  126OSM   C12F13441  -0.025   1.436   3.928  0.9094 -0.5027  0.3064
  126OSM   H12F13442   0.070   1.380   3.915  1.4068  0.1317  1.1555
  126OSM   H12G13443  -0.089   1.346   3.944  1.4678 -1.2030 -1.1360
  126OSM   C13F13444  -0.022   1.515   4.057 -0.9829 -1.1766 -0.0816
  126OSM   H13F13445  -0.117   1.573   4.066 -0.3753 -0.4194  1.8054
  126OSM   H13G13446   0.062   1.586   4.046 -1.7170 -0.4150 -1.0806
  126OSM   C14F13447   0.008   1.425   4.177 -0.3621 -0.7760 -0.0294
  126OSM   H14F13448   0.071   1.493   4.238  0.3706  1.0913 -2.6595
  126OSM   H14G13449   0.071   1.337   4.150 -0.0163 -0.5019 -0.1349
  126OSM   C15F13450  -0.113   1.381   4.257  0.0300  0.0352  0.3566
  126OSM   H15F13451  -0.086   1.324   4.349  1.9130 -0.4972 -0.4778
  126OSM   H15G13452  -0.169   1.311   4.191 -0.9060  0.4558  0.6898
  126OSM   C16F13453  -0.201   1.497   4.306 -0.1585  0.5628 -0.2830
  126OSM   H16F13454  -0.278   1.452   4.373  2.5670 -1.2123  1.8842
  126OSM   H16G13455  -0.244   1.561   4.226  0.5603  1.1512 -0.2133
  126OSM   C17F13456  -0.112   1.601   4.386 -0.8430 -0.0264 -0.2593
  126OSM   H17F13457  -0.043   1.652   4.315  0.7316 -2.6278 -0.7325
  126OSM   H17G13458  -0.071   1.542   4.471 -1.1311 -1.6335 -1.1846
  126OSM   C18F13459  -0.206   1.702   4.461  0.1222 -1.3566 -0.1901
  126OSM   H18F13460  -0.272   1.653   4.536  0.0893  2.5043  2.6160
  126OSM   H18G13461  -0.278   1.761   4.401  0.7830  2.1614  2.2040
  126OSM   H18H13462  -0.142   1.773   4.518 -0.7631  1.1883 -2.1693
  127OSM      N13463   5.750   4.741   2.112 -0.0644  0.0782  0.6995
  127OSM    C1513464   5.872   4.711   2.040 -0.5136 -0.0618  0.5770
  127OSM   H15A13465   5.867   4.730   1.934  0.1284 -0.7738  0.4104
  127OSM   H15B13466   5.897   4.607   2.048  0.3305  0.1249  0.4364
  127OSM   H15C13467   5.954   4.770   2.078 -0.7815 -0.2572  1.4942
  127OSM    C1413468   5.673   4.835   2.025  0.3556 -0.2629  0.7238
  127OSM   H14A13469   5.645   4.793   1.930  1.9209 -0.4051  0.3028
  127OSM   H14B13470   5.732   4.921   1.996  1.8051 -0.8809  1.7508
  127OSM   H14C13471   5.579   4.873   2.065 -0.6023 -1.3376 -0.4187
  127OSM    C1313472   5.670   4.618   2.133 -0.8131  0.5847 -0.8421
  127OSM   H13A13473   5.724   4.559   2.206 -0.9460 -0.8875 -1.8802
  127OSM   H13B13474   5.656   4.552   2.049  1.0091  1.8881 -2.2535
  127OSM   H13C13475   5.572   4.638   2.174 -0.9556  0.2689 -1.0290
  127OSM    C1213476   5.778   4.803   2.248  0.0973 -0.3709 -0.3321
  127OSM   H12A13477   5.861   4.750   2.293  0.5554 -1.0756 -1.9227
  127OSM   H12B13478   5.693   4.787   2.313  1.8358 -0.0179  2.1661
  127OSM    C1113479   5.817   4.950   2.259  0.3116 -0.5338 -0.9230
  127OSM   H11A13480   5.821   4.964   2.369  0.6418 -1.1122 -0.8577
  127OSM   H11B13481   5.738   5.021   2.228  2.8589  3.0528  0.0818
  127OSM      P13482   6.061   5.039   2.274 -0.0704 -0.0539 -0.4294
  127OSM    O1313483   6.183   5.012   2.194  0.0496  0.0754  0.2550
  127OSM    O1413484   6.041   5.176   2.315  0.0849  0.1188 -0.7882
  127OSM    O1113485   6.053   4.941   2.398 -0.7339  1.2440  0.1011
  127OSM    O1213486   5.939   4.995   2.195 -0.1111 -0.1985 -0.1600
  127OSM    C1S13487   6.135   4.972   2.515 -0.1168 -0.0715  0.2127
  127OSM    H1S13488   6.097   5.064   2.566 -0.9271 -0.4144  0.2465
  127OSM    H1T13489   6.242   4.986   2.489 -0.0701  1.4985  1.0817
  127OSM     NF13490   6.212   4.906   2.738 -0.9361 -0.3280 -0.0024
  127OSM    HNF13491   6.308   4.877   2.735 -0.6361  0.6665 -1.0522
  127OSM    C2S13492   6.130   4.864   2.623 -0.4579  0.1893 -0.5086
  127OSM    H2S13493   6.025   4.854   2.660  0.0870  1.4250  1.5538
  127OSM    C3S13494   6.154   4.718   2.570  0.4006  0.0823 -0.1029
  127OSM    H3S13495   6.265   4.714   2.562  0.3778  0.5943 -0.6928
  127OSM     O313496   6.099   4.692   2.444  0.8356  0.4316  0.0813
  127OSM    HO313497   6.084   4.784   2.422  1.8842  0.7305  0.5173
  127OSM    C4S13498   6.109   4.612   2.667 -0.0673  0.6001  0.1908
  127OSM    H4S13499   6.001   4.593   2.651  0.3686 -1.5046 -0.5297
  127OSM    C5S13500   6.177   4.525   2.741 -0.0448  0.2630  0.1359
  127OSM    H5S13501   6.287   4.536   2.741 -0.1889  2.7024 -1.8824
  127OSM    C6S13502   6.110   4.416   2.820 -0.1370  0.8273 -0.1274
  127OSM    H6S13503   6.190   4.341   2.837 -1.0444  0.0609  0.9239
  127OSM    H6T13504   6.032   4.364   2.761 -2.0160  1.7462  1.4118
  127OSM    C7S13505   6.044   4.455   2.959 -0.0007  0.0911  0.2799
  127OSM    H7S13506   5.963   4.528   2.938 -3.5809 -1.6802  5.7699
  127OSM    H7T13507   6.113   4.505   3.030  2.6290 -0.4831 -1.6746
  127OSM    C8S13508   5.992   4.338   3.030  0.2091  0.5535 -0.1795
  127OSM    H8S13509   6.084   4.284   3.061 -0.0523  0.5451  0.5946
  127OSM    H8T13510   5.941   4.258   2.971  2.5569  0.2796 -1.9809
  127OSM    C9S13511   5.903   4.360   3.160 -0.1907 -0.0444  0.5835
  127OSM    H9S13512   5.882   4.257   3.198  0.9884 -1.8431 -3.0850
  127OSM    H9T13513   5.814   4.414   3.123  1.2813  4.2234  2.6962
  127OSM   C10S13514   5.973   4.444   3.271 -0.1377 -0.1305  0.4535
  127OSM   H10S13515   5.983   4.551   3.242  0.9285 -0.6903 -1.4176
  127OSM   H10T13516   6.076   4.409   3.292  0.2560 -0.3452 -1.6513
  127OSM   C11S13517   5.890   4.436   3.400 -1.0286  0.0646  0.0692
  127OSM   H11S13518   5.885   4.330   3.434  0.4601  0.1137  0.4999
  127OSM   H11T13519   5.788   4.476   3.381 -1.0438  0.1335  0.3052
  127OSM   C12S13520   5.968   4.511   3.512 -0.2788 -0.3448  0.2500
  127OSM   H12S13521   5.971   4.621   3.503  1.5337 -0.2229  1.7890
  127OSM   H12T13522   6.074   4.481   3.518 -0.0215  0.7327  1.5941
  127OSM   C13S13523   5.903   4.478   3.647  0.1108 -0.3047  0.6036
  127OSM   H13S13524   5.893   4.367   3.648 -1.5745 -0.2238 -1.0223
  127OSM   H13T13525   5.803   4.524   3.660 -0.4786 -1.3447 -0.0413
  127OSM   C14S13526   5.995   4.515   3.759 -0.3914  0.2042 -0.2431
  127OSM   H14S13527   6.003   4.625   3.771 -1.6854  0.3345 -0.4608
  127OSM   H14T13528   6.101   4.483   3.746 -1.1290 -1.8615 -1.7101
  127OSM   C15S13529   5.960   4.459   3.897  0.3851 -0.3719 -0.3334
  127OSM   H15S13530   6.037   4.486   3.973  0.2060  0.2310 -0.3630
  127OSM   H15T13531   5.966   4.349   3.882 -0.6533 -0.2100 -2.1713
  127OSM   C16S13532   5.821   4.491   3.937  0.4469 -0.5335 -0.2360
  127OSM   H16S13533   5.758   4.441   3.860 -0.1728  1.7443 -1.2932
  127OSM   H16T13534   5.793   4.598   3.930  0.3095 -0.6720 -2.9927
  127OSM   C17S13535   5.788   4.438   4.073 -0.4733 -0.5449  0.5157
  127OSM   H17S13536   5.818   4.332   4.066  2.9036  0.3811 -1.1288
  127OSM   H17T13537   5.680   4.459   4.086  0.0728  1.8310  1.8447
  127OSM   C18S13538   5.857   4.509   4.185 -0.0609 -0.6400  0.4576
  127OSM   H18S13539   5.873   4.615   4.158 -1.4660 -0.7970 -1.1686
  127OSM   H18T13540   5.961   4.470   4.189  1.6880  3.4945  0.5607
  127OSM   H18U13541   5.810   4.500   4.285 -0.2137  1.6888  0.6408
  127OSM    C1F13542   6.186   5.001   2.821 -0.3186 -1.1961 -0.6758
  127OSM     OF13543   6.071   5.044   2.828 -0.1208  0.1040 -0.0437
  127OSM    C2F13544   6.298   5.050   2.918  0.7817  0.8886  0.5653
  127OSM    H2F13545   6.290   5.159   2.940  0.0123  0.3620  3.1710
  127OSM    H2G13546   6.394   5.029   2.865 -0.3520  2.8145 -2.5301
  127OSM    C3F13547   6.293   4.985   3.052 -0.7121  0.0637 -0.3388
  127OSM    H3F13548   6.329   4.880   3.045  2.7082  1.0734  0.1934
  127OSM    H3G13549   6.190   4.981   3.093 -0.0260  1.4333  1.6525
  127OSM    C4F13550   6.391   5.058   3.147 -0.2333 -0.4213 -0.7164
  127OSM    H4F13551   6.367   5.166   3.149  1.1846 -0.0869 -0.8304
  127OSM    H4G13552   6.497   5.054   3.115  0.0560  1.2924 -0.0768
  127OSM    C5F13553   6.370   5.003   3.289 -0.2910  0.1766 -0.1046
  127OSM    H5F13554   6.400   4.896   3.292 -0.3187  0.1797  1.2291
  127OSM    H5G13555   6.261   5.019   3.308 -0.0270  1.2405  0.6587
  127OSM    C6F13556   6.422   5.093   3.399 -0.1611  0.6909  0.4059
  127OSM    H6F13557   6.389   5.196   3.374  0.3846  0.3546 -1.9780
  127OSM    H6G13558   6.533   5.100   3.400  0.0477 -0.9347 -2.2224
  127OSM    C7F13559   6.359   5.054   3.539 -0.6987  0.0478 -0.0271
  127OSM    H7F13560   6.355   4.943   3.545 -2.0157  0.0447 -0.7578
  127OSM    H7G13561   6.255   5.093   3.543 -1.6044 -2.1022 -0.9113
  127OSM    C8F13562   6.443   5.116   3.654  0.4360 -0.1541  0.0160
  127OSM    H8F13563   6.433   5.226   3.649  1.2716 -0.0221  1.0594
  127OSM    H8G13564   6.550   5.090   3.640  0.5217 -0.4158  1.0883
  127OSM    C9F13565   6.397   5.068   3.797 -0.4318 -0.0162 -0.9641
  127OSM    H9F13566   6.295   5.091   3.832 -1.1244  0.2529 -3.0460
  127OSM   C10F13567   6.470   5.013   3.895 -1.5345  0.0708 -0.5921
  127OSM   H10F13568   6.420   4.974   3.985  0.3353 -0.2300  0.3609
  127OSM   C11F13569   6.617   4.968   3.881  0.1836  0.2857  0.1024
  127OSM   H11F13570   6.657   5.020   3.791  3.8515 -4.1054 -1.2076
  127OSM   H11G13571   6.613   4.860   3.853 -0.9399  1.0366 -3.0032
  127OSM   C12F13572   6.714   5.000   3.995  0.4571 -0.0641 -0.5615
  127OSM   H12F13573   6.718   5.110   4.013 -1.1236 -0.1039  0.2462
  127OSM   H12G13574   6.817   4.968   3.969  0.3016 -0.0937 -1.1571
  127OSM   C13F13575   6.680   4.935   4.131 -0.4829  0.1035 -0.2538
  127OSM   H13F13576   6.694   4.825   4.126  0.5924  0.2573 -1.1876
  127OSM   H13G13577   6.570   4.946   4.138 -0.7031 -2.4500  1.7281
  127OSM   C14F13578   6.762   4.990   4.248 -0.0377  0.1393  0.7801
  127OSM   H14F13579   6.733   5.094   4.273  0.3784  0.6151 -0.6327
  127OSM   H14G13580   6.864   4.996   4.204 -0.8930 -0.8038 -1.4975
  127OSM   C15F13581   6.756   4.901   4.372 -0.0097  0.0525 -0.1610
  127OSM   H15F13582   6.803   4.801   4.359  1.8097  0.7388  0.8366
  127OSM   H15G13583   6.647   4.884   4.382 -0.2701  0.1338 -2.3913
  127OSM   C16F13584   6.816   4.959   4.499  0.4106 -0.4128  0.0150
  127OSM   H16F13585   6.784   5.061   4.527 -1.4940 -0.3148 -2.2225
  127OSM   H16G13586   6.924   4.964   4.471  0.4225  0.4626  0.1930
  127OSM   C17F13587   6.808   4.864   4.617 -0.3633  0.4021 -0.0132
  127OSM   H17F13588   6.896   4.883   4.681 -1.3419  1.0234  1.1800
  127OSM   H17G13589   6.821   4.758   4.585 -1.9487  0.3724 -0.6579
  127OSM   C18F13590   6.682   4.874   4.703 -0.1106  0.2597 -0.1898
  127OSM   H18F13591   6.690   4.800   4.785  0.7292  1.3183  0.7327
  127OSM   H18G13592   6.590   4.855   4.644 -1.2261  0.9131  1.2652
  127OSM   H18H13593   6.669   4.977   4.743 -0.2639 -0.6701  2.3554
  128OSM      N13594   6.540   3.704   2.235  0.6813  0.2079 -0.1488
  128OSM    C1513595   6.480   3.574   2.291 -0.0567 -0.2217  0.1974
  128OSM   H15A13596   6.432   3.590   2.386 -0.9633 -0.9658 -0.1249
  128OSM   H15B13597   6.555   3.498   2.307 -1.1464 -1.5001 -0.6362
  128OSM   H15C13598   6.409   3.539   2.218 -1.6902  3.4005 -0.1476
  128OSM    C1413599   6.684   3.721   2.292  0.4742  0.0887  0.3059
  128OSM   H14A13600   6.678   3.746   2.397  0.2493  0.2954  0.2456
  128OSM   H14B13601   6.733   3.802   2.240 -3.6004  1.0333 -2.4832
  128OSM   H14C13602   6.745   3.634   2.276  2.8944  1.3153  2.1875
  128OSM    C1313603   6.541   3.677   2.087 -1.1857  0.2778 -0.0010
  128OSM   H13A13604   6.600   3.589   2.062 -1.1575  0.2519  0.1572
  128OSM   H13B13605   6.587   3.760   2.035  0.0644 -1.4066 -1.7483
  128OSM   H13C13606   6.442   3.657   2.050 -0.2395 -0.3932 -2.3548
  128OSM    C1213607   6.444   3.822   2.271 -0.3117 -0.0536  0.3823
  128OSM   H12A13608   6.351   3.811   2.217 -0.8504 -0.9241  1.4472
  128OSM   H12B13609   6.486   3.911   2.226 -2.5642  1.8391  1.7783
  128OSM    C1113610   6.405   3.836   2.415  0.2417 -0.7618 -0.1953
  128OSM   H11A13611   6.354   3.934   2.416  2.1728  0.3604 -1.9580
  128OSM   H11B13612   6.499   3.843   2.473 -0.3101  2.0589  0.5132
  128OSM      P13613   6.160   3.738   2.410 -0.0940 -0.3361  0.4846
  128OSM    O1313614   6.153   3.803   2.278 -0.1227  0.5544  0.7222
  128OSM    O1413615   6.104   3.604   2.419  0.2341  0.5658  0.4162
  128OSM    O1113616   6.092   3.831   2.526 -0.3056  0.3441 -0.4177
  128OSM    O1213617   6.310   3.731   2.458 -0.1380  0.3905  0.3281
  128OSM    C1S13618   6.066   3.777   2.660  0.0526  0.5302  0.1708
  128OSM    H1S13619   6.073   3.666   2.653  2.8189  0.7290 -1.4952
  128OSM    H1T13620   5.967   3.817   2.691 -0.0368  1.7411 -1.5339
  128OSM     NF13621   6.168   3.752   2.888 -0.0793  0.1292  0.1436
  128OSM    HNF13622   6.149   3.806   2.970  0.8221 -1.6001  1.5598
  128OSM    C2S13623   6.171   3.826   2.765  0.1014  0.1117 -0.5680
  128OSM    H2S13624   6.271   3.800   2.725 -0.0592  1.8030 -2.1982
  128OSM    C3S13625   6.156   3.979   2.782 -0.3551  0.4397  0.3585
  128OSM    H3S13626   6.061   3.991   2.838 -0.1885 -0.9793  0.9898
  128OSM     O313627   6.147   4.045   2.654 -0.0071  0.5007 -0.2427
  128OSM    HO313628   6.121   3.975   2.592 -0.3604 -0.0110  0.4732
  128OSM    C4S13629   6.271   4.042   2.857  0.1840  0.0090 -0.2897
  128OSM    H4S13630   6.361   4.069   2.800  0.6644  1.4653  1.1133
  128OSM    C5S13631   6.268   4.091   2.982 -0.4689 -0.6667 -0.4742
  128OSM    H5S13632   6.168   4.084   3.029 -1.5247  0.6894 -2.3748
  128OSM    C6S13633   6.380   4.168   3.049  0.4433 -0.5636 -0.2508
  128OSM    H6S13634   6.435   4.233   2.978 -1.0570  3.1795  1.6920
  128OSM    H6T13635   6.454   4.102   3.099  1.0052 -0.3113 -0.7386
  128OSM    C7S13636   6.330   4.261   3.162 -0.1525 -0.2694 -1.4142
  128OSM    H7S13637   6.251   4.212   3.222  1.1520 -2.0693 -1.0682
  128OSM    H7T13638   6.293   4.354   3.113 -1.2314  1.6600  2.5886
  128OSM    C8S13639   6.437   4.301   3.259 -0.9724 -0.2153 -1.1515
  128OSM    H8S13640   6.519   4.348   3.201 -0.5502 -0.8265 -1.0640
  128OSM    H8T13641   6.477   4.217   3.320 -0.9642  1.4804  1.3706
  128OSM    C9S13642   6.382   4.393   3.364  0.2402  0.4086  0.2678
  128OSM    H9S13643   6.315   4.327   3.422 -0.6287 -0.0271 -1.1738
  128OSM    H9T13644   6.311   4.470   3.326 -0.0183 -0.7158 -1.6266
  128OSM   C10S13645   6.486   4.468   3.448 -0.3108  0.7541 -0.5410
  128OSM   H10S13646   6.543   4.545   3.392  0.9733 -0.6318 -1.2248
  128OSM   H10T13647   6.559   4.391   3.483 -0.3864  0.1977 -1.5811
  128OSM   C11S13648   6.430   4.531   3.573 -0.8108 -0.3969 -0.6038
  128OSM   H11S13649   6.370   4.453   3.625 -0.9672 -0.6208 -1.1168
  128OSM   H11T13650   6.348   4.600   3.541 -0.7000 -0.7619 -1.7057
  128OSM   C12S13651   6.521   4.593   3.673 -0.4430 -0.1353  0.1475
  128OSM   H12S13652   6.543   4.693   3.629  1.2221 -1.3323 -1.8765
  128OSM   H12T13653   6.614   4.535   3.688  1.9557  2.7031 -2.3871
  128OSM   C13S13654   6.468   4.609   3.813  0.7559 -0.1198  0.0182
  128OSM   H13S13655   6.537   4.670   3.875  0.7559  1.3145 -1.3412
  128OSM   H13T13656   6.471   4.510   3.863  1.1128 -0.6175 -0.9573
  128OSM   C14S13657   6.326   4.665   3.836 -0.2757  0.0116  0.1318
  128OSM   H14S13658   6.258   4.614   3.764 -0.3611  3.1724 -2.2485
  128OSM   H14T13659   6.331   4.775   3.825 -2.0772  0.0512 -0.5753
  128OSM   C15S13660   6.278   4.630   3.978  0.2409  0.1512 -0.8342
  128OSM   H15S13661   6.287   4.523   4.008  2.0217  0.8007  1.2330
  128OSM   H15T13662   6.168   4.644   3.970  0.1195  1.1695  1.7478
  128OSM   C16S13663   6.335   4.706   4.094 -0.3282 -0.0621  1.0165
  128OSM   H16S13664   6.327   4.812   4.061  0.3449 -0.6376 -1.1625
  128OSM   H16T13665   6.440   4.677   4.111 -0.0273  0.5688  0.2998
  128OSM   C17S13666   6.260   4.680   4.225 -0.4804 -0.3996  0.4795
  128OSM   H17S13667   6.244   4.571   4.242  1.0047 -0.5546  1.0501
  128OSM   H17T13668   6.155   4.712   4.212 -0.3980 -0.3507 -0.1351
  128OSM   C18S13669   6.310   4.758   4.340  0.2430 -0.2966 -0.2592
  128OSM   H18S13670   6.403   4.704   4.367  0.2775 -1.6158 -2.7005
  128OSM   H18T13671   6.234   4.765   4.420  0.3443 -0.4201 -0.1517
  128OSM   H18U13672   6.336   4.858   4.299 -0.4237 -0.4471 -1.0790
  128OSM    C1F13673   6.198   3.619   2.911 -0.2606 -0.3411  0.3936
  128OSM     OF13674   6.259   3.556   2.825 -0.0578 -0.1256 -0.1774
  128OSM    C2F13675   6.133   3.547   3.036  0.3711  0.3559 -0.1514
  128OSM    H2F13676   6.085   3.450   3.009  0.6953 -0.6577  2.6210
  128OSM    H2G13677   6.050   3.614   3.068 -0.8505 -1.0452 -0.2724
  128OSM    C3F13678   6.237   3.509   3.148  0.8517 -0.3028  0.6322
  128OSM    H3F13679   6.279   3.600   3.196  1.8703 -1.4967  2.0696
  128OSM    H3G13680   6.318   3.458   3.091  0.8015  0.3300 -0.0340
  128OSM    C4F13681   6.156   3.418   3.245 -0.9621 -0.1969 -0.1719
  128OSM    H4F13682   6.112   3.332   3.190  0.6031 -1.4635  0.4873
  128OSM    H4G13683   6.072   3.477   3.287 -0.1353  1.3894 -0.6727
  128OSM    C5F13684   6.244   3.366   3.362  0.1838  0.7498 -0.3487
  128OSM    H5F13685   6.322   3.440   3.388 -0.9317  1.2084  1.8506
  128OSM    H5G13686   6.294   3.277   3.318 -0.6483  0.1300 -0.0554
  128OSM    C6F13687   6.158   3.329   3.482 -0.4211  0.0186 -0.4357
  128OSM    H6F13688   6.222   3.261   3.542  0.6040  1.0898 -0.2947
  128OSM    H6G13689   6.061   3.279   3.457 -1.2007  1.2938 -0.0578
  128OSM    C7F13690   6.142   3.449   3.574 -0.4859 -0.5369 -0.4982
  128OSM    H7F13691   6.088   3.530   3.520  1.3868  0.7635 -0.5370
  128OSM    H7G13692   6.241   3.495   3.596 -0.8665  0.6996 -1.2609
  128OSM    C8F13693   6.079   3.403   3.707  0.6264 -0.7585 -0.0857
  128OSM    H8F13694   5.976   3.373   3.679 -0.5289 -1.3022  4.0915
  128OSM    H8G13695   6.071   3.495   3.768 -0.6335 -0.7284 -0.2868
  128OSM    C9F13696   6.152   3.297   3.792  1.0285  0.3411  0.1541
  128OSM    H9F13697   6.171   3.199   3.745  4.5011  0.9208  0.0646
  128OSM   C10F13698   6.212   3.326   3.903 -0.2210  0.6663  0.0380
  128OSM   H10F13699   6.266   3.243   3.952  0.7463  1.5184  0.4458
  128OSM   C11F13700   6.213   3.458   3.967  0.0556  0.0955 -0.0175
  128OSM   H11F13701   6.109   3.488   3.992  0.1127 -1.0339  1.8176
  128OSM   H11G13702   6.277   3.530   3.912 -1.2635 -0.3356 -2.2656
  128OSM   C12F13703   6.287   3.434   4.105  0.1492 -0.6699  0.5560
  128OSM   H12F13704   6.386   3.385   4.092  0.1085 -1.3045  2.3509
  128OSM   H12G13705   6.232   3.352   4.156 -1.5821 -1.5575 -2.5161
  128OSM   C13F13706   6.302   3.552   4.200  0.4361  0.0539 -0.2791
  128OSM   H13F13707   6.195   3.576   4.218  0.7257  0.3523  1.1197
  128OSM   H13G13708   6.346   3.638   4.146  1.4962 -0.9992 -1.1665
  128OSM   C14F13709   6.382   3.521   4.330  0.5860 -0.3933  1.0827
  128OSM   H14F13710   6.448   3.432   4.318  2.8353  1.4810 -1.8551
  128OSM   H14G13711   6.304   3.501   4.407  0.5851  0.9649  1.4549
  128OSM   C15F13712   6.491   3.623   4.363 -0.0715 -0.5492 -0.0651
  128OSM   H15F13713   6.556   3.630   4.272 -0.1175 -0.1001 -0.0618
  128OSM   H15G13714   6.556   3.590   4.447 -0.5834 -3.7009 -0.7687
  128OSM   C16F13715   6.427   3.757   4.396 -0.2887  0.1073  0.2458
  128OSM   H16F13716   6.354   3.742   4.478  2.1392  0.2048  2.5518
  128OSM   H16G13717   6.370   3.800   4.311 -1.7454  1.1806  1.6968
  128OSM   C17F13718   6.529   3.858   4.435 -0.1727 -0.0251  0.1371
  128OSM   H17F13719   6.617   3.873   4.369  0.5960 -4.0642 -0.0267
  128OSM   H17G13720   6.555   3.818   4.536  1.3029  1.8702  0.5699
  128OSM   C18F13721   6.469   4.000   4.448  0.0621 -0.5324 -0.3110
  128OSM   H18F13722   6.553   4.071   4.463  0.2356 -1.1874  2.1855
  128OSM   H18G13723   6.398   4.015   4.531  1.4881  0.2976  0.8087
  128OSM   H18H13724   6.415   4.015   4.352  0.2576 -2.9991 -0.8917
  129OSM      N13725   1.856   5.041   2.128 -0.1070 -0.9322  0.0237
  129OSM    C1513726   1.771   4.951   2.055  0.3750 -0.2871 -0.1821
  129OSM   H15A13727   1.822   4.922   1.964  1.6521  0.6860  0.1850
  129OSM   H15B13728   1.677   5.000   2.036  0.7310  0.5925  0.2580
  129OSM   H15C13729   1.745   4.860   2.107  0.3426  0.7444  1.6645
  129OSM    C1413730   1.997   4.982   2.115  0.0422  0.9151 -0.3273
  129OSM   H14A13731   2.064   5.025   2.188 -0.2866  1.4631 -0.3332
  129OSM   H14B13732   2.031   4.990   2.013 -2.2817  0.2175 -1.2115
  129OSM   H14C13733   1.989   4.878   2.143  1.4131  1.2056  1.2955
  129OSM    C1313734   1.867   5.177   2.060 -1.0212 -0.3635 -0.3412
  129OSM   H13A13735   1.879   5.169   1.953  1.8531 -1.0417 -0.0626
  129OSM   H13B13736   1.957   5.223   2.098  0.4628 -3.7718  0.6668
  129OSM   H13C13737   1.788   5.241   2.095  0.6705  0.4143  2.3941
  129OSM    C1213738   1.810   5.065   2.271 -0.4242  0.3326  0.1312
  129OSM   H12A13739   1.874   5.143   2.310 -0.6560  0.5296  0.1182
  129OSM   H12B13740   1.831   4.973   2.324  0.7600 -0.1807 -1.1735
  129OSM    C1113741   1.653   5.094   2.288 -0.7477  0.4700 -0.3133
  129OSM   H11A13742   1.632   5.099   2.397 -0.8773  0.9397 -0.3594
  129OSM   H11B13743   1.587   5.009   2.262 -0.6995 -0.7676  3.0775
  129OSM      P13744   1.620   5.358   2.267  0.0217 -0.3736  0.3310
  129OSM    O1313745   1.737   5.408   2.191 -0.0243 -0.0416  0.0011
  129OSM    O1413746   1.495   5.432   2.250  0.1474  0.1171 -0.6479
  129OSM    O1113747   1.662   5.356   2.418 -0.2679  0.2515  0.0463
  129OSM    O1213748   1.592   5.206   2.228  0.1330  0.6929 -0.1563
  129OSM    C1S13749   1.561   5.383   2.522 -0.2358  0.2058  0.2028
  129OSM    H1S13750   1.474   5.318   2.501  0.9217 -0.7348 -1.9183
  129OSM    H1T13751   1.524   5.488   2.522  3.3606  1.6841 -3.2619
  129OSM     NF13752   1.498   5.366   2.758 -0.1341 -0.3050  0.3565
  129OSM    HNF13753   1.501   5.447   2.817  0.1497  0.3793 -0.5773
  129OSM    C2S13754   1.616   5.344   2.671  0.6806  0.2722  0.0412
  129OSM    H2S13755   1.640   5.235   2.674  1.1100  0.3805  1.0583
  129OSM    C3S13756   1.744   5.429   2.705  0.1479 -0.3252 -0.9612
  129OSM    H3S13757   1.713   5.535   2.702  0.4167 -0.2260 -0.4383
  129OSM     O313758   1.840   5.419   2.606  0.7253 -0.3256 -0.1174
  129OSM    HO313759   1.793   5.389   2.528 -1.2557  1.5424  0.2593
  129OSM    C4S13760   1.817   5.386   2.833 -0.0411 -0.0427 -0.4168
  129OSM    H4S13761   1.886   5.300   2.820  3.4893  2.3799  0.6731
  129OSM    C5S13762   1.809   5.452   2.951 -0.4704 -0.1297 -0.2833
  129OSM    H5S13763   1.746   5.542   2.958 -3.0335 -1.7883 -0.5670
  129OSM    C6S13764   1.880   5.420   3.078  0.5622  0.2907  0.1060
  129OSM    H6S13765   1.791   5.416   3.144  0.5637  1.1159  0.1729
  129OSM    H6T13766   1.936   5.508   3.114 -0.8210  0.6794  1.4000
  129OSM    C7S13767   1.967   5.291   3.097 -0.5600  1.1740  0.4114
  129OSM    H7S13768   2.067   5.294   3.049 -0.2521 -0.0995  0.9108
  129OSM    H7T13769   1.923   5.196   3.060  0.3186  0.7459  0.4432
  129OSM    C8S13770   1.997   5.279   3.246 -0.2344  0.8940 -0.2135
  129OSM    H8S13771   1.896   5.279   3.293 -0.8112 -3.2593 -1.0813
  129OSM    H8T13772   2.047   5.373   3.279 -3.3713  3.4566 -2.0533
  129OSM    C9S13773   2.072   5.152   3.268 -0.0518 -0.1339 -0.3232
  129OSM    H9S13774   2.168   5.164   3.214 -0.3587  1.3159 -0.5726
  129OSM    H9T13775   2.026   5.059   3.228  0.1418 -0.5599  0.4324
  129OSM   C10S13776   2.098   5.131   3.414 -0.4076 -0.3675 -0.3745
  129OSM   H10S13777   2.145   5.223   3.453  0.9190 -1.2659  0.2245
  129OSM   H10T13778   2.173   5.049   3.424 -0.7355 -0.6299 -0.0075
  129OSM   C11S13779   1.973   5.096   3.497  0.0734 -0.0166  0.1102
  129OSM   H11S13780   1.892   5.168   3.473 -1.0257 -1.9984 -2.6273
  129OSM   H11T13781   1.998   5.093   3.606  1.4005 -0.6132 -0.1913
  129OSM   C12S13782   1.922   4.953   3.463  0.2262 -0.1868 -0.3214
  129OSM   H12S13783   2.001   4.878   3.482  0.3316  0.3649  1.6266
  129OSM   H12T13784   1.893   4.949   3.356 -1.1494 -0.7839  0.0605
  129OSM   C13S13785   1.796   4.927   3.557 -0.0206  0.2649  0.4564
  129OSM   H13S13786   1.724   4.858   3.506 -0.0599  0.6744 -0.0464
  129OSM   H13T13787   1.731   5.015   3.575 -0.6536  0.6535 -3.0095
  129OSM   C14S13788   1.835   4.867   3.693  0.1979  0.1536 -0.6679
  129OSM   H14S13789   1.911   4.927   3.747  0.8412 -0.6157 -0.6870
  129OSM   H14T13790   1.884   4.769   3.674  1.1709  0.2951  0.9196
  129OSM   C15S13791   1.707   4.858   3.775 -0.2112 -0.0314  0.8824
  129OSM   H15S13792   1.635   4.803   3.710 -1.1167  0.1996  1.6884
  129OSM   H15T13793   1.674   4.958   3.809 -0.2486  1.0096 -1.9471
  129OSM   C16S13794   1.736   4.768   3.893 -0.5513  0.2964 -0.0353
  129OSM   H16S13795   1.830   4.805   3.939  0.7219 -0.1060 -2.1930
  129OSM   H16T13796   1.762   4.672   3.844 -0.8439  1.4820 -2.6535
  129OSM   C17S13797   1.626   4.744   3.996  0.1553 -0.2407  0.5498
  129OSM   H17S13798   1.533   4.693   3.965  0.5121  1.0116 -3.0044
  129OSM   H17T13799   1.601   4.847   4.032  0.7270  1.2190 -2.8833
  129OSM   C18S13800   1.680   4.669   4.122 -0.5663  0.2098  0.4857
  129OSM   H18S13801   1.781   4.708   4.147  0.0031 -0.8344 -0.1068
  129OSM   H18T13802   1.694   4.561   4.099  0.9224  0.3887  0.4594
  129OSM   H18U13803   1.622   4.674   4.216  0.1112 -3.2193  1.2156
  129OSM    C1F13804   1.384   5.294   2.757  0.1182 -0.3935  0.6524
  129OSM     OF13805   1.374   5.191   2.687  0.6246 -0.2402  0.4401
  129OSM    C2F13806   1.268   5.347   2.837  0.4627 -0.1875  0.2196
  129OSM    H2F13807   1.194   5.389   2.766 -0.5685 -0.8488  0.8627
  129OSM    H2G13808   1.311   5.425   2.903  1.7565 -0.9729  0.3507
  129OSM    C3F13809   1.196   5.240   2.922 -0.1587 -0.1110  0.6439
  129OSM    H3F13810   1.273   5.178   2.973  0.2074 -1.9673 -1.9708
  129OSM    H3G13811   1.146   5.172   2.849  0.1894 -0.7330  0.9704
  129OSM    C4F13812   1.107   5.293   3.034  0.2087 -0.2973 -0.2479
  129OSM    H4F13813   1.017   5.327   2.980  0.6318  2.4079  0.5941
  129OSM    H4G13814   1.143   5.385   3.085 -0.8081 -1.2183  2.2998
  129OSM    C5F13815   1.053   5.193   3.142 -0.1064  0.4135  0.2470
  129OSM    H5F13816   1.138   5.127   3.171 -1.6437 -1.5715  0.3990
  129OSM    H5G13817   0.973   5.126   3.104 -0.0588  0.3785  0.2060
  129OSM    C6F13818   1.000   5.269   3.263  0.2749 -1.1284 -0.1794
  129OSM    H6F13819   0.933   5.355   3.240 -0.0407 -1.2136  0.3921
  129OSM    H6G13820   1.082   5.316   3.322  0.3112 -0.2681 -0.8884
  129OSM    C7F13821   0.906   5.192   3.353 -0.6178  0.2579  0.6065
  129OSM    H7F13822   0.914   5.082   3.340 -1.5886  0.3091 -0.6250
  129OSM    H7G13823   0.802   5.213   3.319 -0.8301 -1.9943 -0.3373
  129OSM    C8F13824   0.915   5.220   3.499 -0.6722  0.0249  0.4094
  129OSM    H8F13825   1.000   5.171   3.550  0.4183  1.6842  0.2587
  129OSM    H8G13826   0.831   5.162   3.543 -0.9514 -0.5025 -0.7921
  129OSM    C9F13827   0.902   5.368   3.522 -0.1641  0.1488 -0.0498
  129OSM    H9F13828   0.834   5.419   3.451 -0.4295 -0.5438 -0.2980
  129OSM   C10F13829   0.974   5.451   3.599  0.2875 -0.3204  0.1372
  129OSM   H10F13830   0.954   5.559   3.606  0.4676 -0.3389  1.0441
  129OSM   C11F13831   1.088   5.403   3.687 -0.0982  0.0940 -0.3669
  129OSM   H11F13832   1.175   5.470   3.671  0.8356 -1.2092 -0.9245
  129OSM   H11G13833   1.121   5.297   3.692 -0.1402  0.0172 -1.4106
  129OSM   C12F13834   1.026   5.429   3.827  0.1910 -0.3499  0.6541
  129OSM   H12F13835   0.951   5.347   3.835  1.9601 -2.1116  0.0888
  129OSM   H12G13836   0.967   5.523   3.831 -0.5986 -0.8596  2.0834
  129OSM   C13F13837   1.118   5.436   3.943  0.0032 -0.5594  0.3282
  129OSM   H13F13838   1.197   5.514   3.933  1.3073 -2.0329 -1.7917
  129OSM   H13G13839   1.172   5.341   3.963  2.5421  0.8737  0.6899
  129OSM   C14F13840   1.034   5.457   4.070  0.0846 -0.5078  0.5018
  129OSM   H14F13841   0.948   5.386   4.070  0.3413 -0.9425 -2.3914
  129OSM   H14G13842   0.994   5.560   4.078  0.3773 -0.4529  1.3177
  129OSM   C15F13843   1.125   5.427   4.190 -0.1901 -0.3290 -0.4812
  129OSM   H15F13844   1.216   5.489   4.177 -1.2780  1.2024 -1.1217
  129OSM   H15G13845   1.164   5.323   4.181  3.8626  1.2306 -4.3305
  129OSM   C16F13846   1.071   5.452   4.328  0.3973 -0.2634  0.0598
  129OSM   H16F13847   0.982   5.387   4.335  1.7493 -2.3637 -1.0223
  129OSM   H16G13848   1.039   5.556   4.349 -0.1831 -0.4968  0.3628
  129OSM   C17F13849   1.153   5.411   4.460 -0.2045 -0.3520 -0.0462
  129OSM   H17F13850   1.241   5.479   4.451 -0.5220  0.1027  0.2548
  129OSM   H17G13851   1.198   5.312   4.440  0.5182 -0.4584  1.9393
  129OSM   C18F13852   1.078   5.422   4.594 -0.4490  0.3277 -0.3474
  129OSM   H18F13853   1.151   5.398   4.675  0.1714  0.6934 -0.7956
  129OSM   H18G13854   0.977   5.376   4.599 -0.6205  0.6660 -0.6766
  129OSM   H18H13855   1.041   5.526   4.597 -1.9422 -0.1702 -0.8100
  130OSM      N13856   2.765   5.071   2.231 -0.3100  0.4111  0.7996
  130OSM    C1513857   2.873   5.138   2.136  0.4136  1.1146 -0.1377
  130OSM   H15A13858   2.926   5.207   2.200 -0.9255 -1.5844  4.3487
  130OSM   H15B13859   2.820   5.191   2.058 -0.1176  2.9081  1.3518
  130OSM   H15C13860   2.937   5.063   2.093 -0.9181  0.4354 -1.0022
  130OSM    C1413861   2.712   4.951   2.161  0.3527 -0.3371 -0.1612
  130OSM   H14A13862   2.620   4.927   2.211 -0.7493 -0.3263 -2.0664
  130OSM   H14B13863   2.786   4.873   2.150  1.8912  1.1221 -0.5532
  130OSM   H14C13864   2.674   4.972   2.062  1.4773  0.5101 -0.4390
  130OSM    C1313865   2.839   5.017   2.351  1.2306  0.0003  0.6910
  130OSM   H13A13866   2.927   4.963   2.320  2.3017  2.4207 -0.6984
  130OSM   H13B13867   2.778   4.946   2.407 -2.5779  2.2446 -0.2740
  130OSM   H13C13868   2.851   5.097   2.422 -1.1505  0.1056  1.0691
  130OSM    C1213869   2.656   5.167   2.264 -0.2012  0.3227 -0.1255
  130OSM   H12A13870   2.604   5.202   2.176 -0.0985 -0.8497 -0.6743
  130OSM   H12B13871   2.704   5.256   2.302 -2.0475  0.5294  1.8957
  130OSM    C1113872   2.561   5.126   2.377 -0.1481 -0.3584 -0.0317
  130OSM   H11A13873   2.507   5.220   2.400  2.0678  1.2486 -0.9525
  130OSM   H11B13874   2.616   5.095   2.468  1.0937  1.2415 -0.1760
  130OSM      P13875   2.341   5.047   2.264 -0.5350  0.2434  0.4708
  130OSM    O1313876   2.352   5.162   2.173 -0.6442  0.4805  0.0040
  130OSM    O1413877   2.286   4.916   2.213 -0.1589  0.0959 -0.7090
  130OSM    O1113878   2.238   5.090   2.379 -0.1147 -0.0320  0.7160
  130OSM    O1213879   2.472   5.024   2.340 -0.3503  0.1828 -0.1205
  130OSM    C1S13880   2.245   5.028   2.507 -0.0084 -0.6449  0.1215
  130OSM    H1S13881   2.290   4.927   2.513 -0.8502 -0.9880  1.2787
  130OSM    H1T13882   2.140   5.019   2.544  0.1325 -0.1866  0.6527
  130OSM     NF13883   2.332   5.047   2.742 -0.6140  0.2903 -0.6371
  130OSM    HNF13884   2.275   5.085   2.814 -0.3312  1.2711 -0.9122
  130OSM    C2S13885   2.319   5.118   2.615 -1.3163  0.1361  0.3880
  130OSM    H2S13886   2.422   5.136   2.576 -2.0429 -2.0639 -2.9193
  130OSM    C3S13887   2.258   5.262   2.626 -0.8582 -0.7643  0.3034
  130OSM    H3S13888   2.149   5.243   2.640 -1.3145 -0.0489 -1.8483
  130OSM     O313889   2.265   5.340   2.504 -0.5395 -0.2221  0.1054
  130OSM    HO313890   2.275   5.266   2.443  0.0090  0.1257 -0.2309
  130OSM    C4S13891   2.325   5.343   2.732  0.5783  0.1743  0.3156
  130OSM    H4S13892   2.428   5.373   2.712  0.6328 -0.0718  0.2243
  130OSM    C5S13893   2.259   5.404   2.828  0.3552  0.1383 -0.3026
  130OSM    H5S13894   2.155   5.379   2.851  0.0221  0.9850 -0.8624
  130OSM    C6S13895   2.325   5.496   2.927  0.0936  0.2714  0.4263
  130OSM    H6S13896   2.253   5.578   2.949 -0.5448  0.2945 -1.5486
  130OSM    H6T13897   2.414   5.546   2.884 -0.2258 -1.4675 -2.5535
  130OSM    C7S13898   2.375   5.420   3.055 -0.0635  0.2350 -0.5657
  130OSM    H7S13899   2.484   5.399   3.059 -0.2407 -0.6274  2.7872
  130OSM    H7T13900   2.312   5.329   3.062  0.3439 -0.1079 -1.2232
  130OSM    C8S13901   2.356   5.499   3.186  0.3609  1.2897  0.1580
  130OSM    H8S13902   2.250   5.528   3.206  0.5049  0.3000  2.8119
  130OSM    H8T13903   2.419   5.591   3.185  1.0831  0.7970 -0.0456
  130OSM    C9S13904   2.405   5.414   3.305 -0.1834 -0.8904 -0.8355
  130OSM    H9S13905   2.496   5.356   3.281 -0.5730 -0.8566 -2.5722
  130OSM    H9T13906   2.329   5.334   3.315 -0.8506 -0.2302 -0.4835
  130OSM   C10S13907   2.427   5.501   3.427 -0.3406 -0.1955 -0.8327
  130OSM   H10S13908   2.325   5.540   3.445 -0.6701 -0.1882 -2.5247
  130OSM   H10T13909   2.486   5.588   3.391  0.7779 -0.1717  0.9328
  130OSM   C11S13910   2.477   5.430   3.555  0.3194 -0.3648  0.2112
  130OSM   H11S13911   2.585   5.409   3.539  0.2463  0.1957 -1.1433
  130OSM   H11T13912   2.427   5.331   3.565  0.9591 -1.0065 -2.3492
  130OSM   C12S13913   2.480   5.514   3.686 -0.5430  0.0012  0.3650
  130OSM   H12S13914   2.384   5.566   3.706 -1.2604 -1.2671  0.3279
  130OSM   H12T13915   2.561   5.589   3.673  0.7636 -1.1140  1.7148
  130OSM   C13S13916   2.518   5.414   3.806 -0.1778 -1.1041 -0.0708
  130OSM   H13S13917   2.617   5.366   3.792 -0.2595 -1.1136 -0.6684
  130OSM   H13T13918   2.448   5.330   3.785 -1.0608  0.1495 -2.5816
  130OSM   C14S13919   2.516   5.486   3.942  0.1801 -0.1837 -1.0066
  130OSM   H14S13920   2.416   5.527   3.969  1.2382  1.9458 -0.1148
  130OSM   H14T13921   2.589   5.570   3.945  0.5896 -0.5571 -0.0834
  130OSM   C15S13922   2.575   5.398   4.052 -0.3029 -0.1401  0.1031
  130OSM   H15S13923   2.598   5.467   4.136 -0.1790  0.2652 -0.2566
  130OSM   H15T13924   2.679   5.366   4.032  0.3229  2.0573 -0.4031
  130OSM   C16S13925   2.479   5.286   4.088  0.6514 -0.1371  0.7456
  130OSM   H16S13926   2.485   5.219   3.999 -0.9128  0.5400  0.0905
  130OSM   H16T13927   2.378   5.331   4.073  0.0298 -0.9040  2.3883
  130OSM   C17S13928   2.485   5.212   4.216 -0.1000  0.1964 -0.2624
  130OSM   H17S13929   2.446   5.275   4.300 -1.8722 -0.3575 -0.6137
  130OSM   H17T13930   2.585   5.168   4.231 -0.8206 -2.3976 -2.3418
  130OSM   C18S13931   2.387   5.095   4.193  0.2348 -0.1877  0.4819
  130OSM   H18S13932   2.415   5.030   4.108 -2.9098 -2.5928  1.1022
  130OSM   H18T13933   2.289   5.145   4.174  1.1147  2.3962  2.2607
  130OSM   H18U13934   2.371   5.032   4.283 -1.5742  2.0021  1.8267
  130OSM    C1F13935   2.409   4.936   2.768 -0.3743 -0.5821 -0.6758
  130OSM     OF13936   2.482   4.894   2.674  0.5084  1.1074 -0.1118
  130OSM    C2F13937   2.395   4.867   2.902 -0.7698 -0.7266  0.0820
  130OSM    H2F13938   2.481   4.799   2.919 -0.1919  0.4130  2.0114
  130OSM    H2G13939   2.304   4.805   2.911 -0.8729 -0.7941 -1.2449
  130OSM    C3F13940   2.416   4.954   3.020 -0.6531 -0.6770  0.6755
  130OSM    H3F13941   2.348   5.041   3.031  2.0132  1.6809 -0.1666
  130OSM    H3G13942   2.521   4.992   3.017 -0.4592 -1.2794 -1.8526
  130OSM    C4F13943   2.404   4.881   3.153 -0.2808  0.1639 -0.6900
  130OSM    H4F13944   2.479   4.799   3.150 -0.5163 -0.0160 -2.8785
  130OSM    H4G13945   2.302   4.836   3.160  0.9052 -2.6163  0.3433
  130OSM    C5F13946   2.427   4.972   3.262 -0.6200  0.3836 -0.2766
  130OSM    H5F13947   2.350   5.053   3.257 -1.4005 -0.3055  0.2412
  130OSM    H5G13948   2.513   5.041   3.256 -1.0965  0.9882 -0.3268
  130OSM    C6F13949   2.426   4.905   3.404  0.4476 -0.2779 -0.5277
  130OSM    H6F13950   2.504   4.826   3.408 -1.1718 -1.9286 -0.1413
  130OSM    H6G13951   2.327   4.866   3.436  0.9146  1.1158  3.1175
  130OSM    C7F13952   2.459   5.009   3.510  0.4997  0.0366  0.3111
  130OSM    H7F13953   2.378   5.084   3.527 -1.1279 -1.2123 -1.4589
  130OSM    H7G13954   2.548   5.067   3.477  1.7485 -1.9062  0.0909
  130OSM    C8F13955   2.503   4.937   3.640  0.2303 -0.0664  0.1948
  130OSM    H8F13956   2.581   4.861   3.618  0.8004  1.1450 -2.2427
  130OSM    H8G13957   2.412   4.886   3.681  0.2660 -2.2328 -2.1639
  130OSM    C9F13958   2.553   5.036   3.742  0.0013  0.7445  0.0589
  130OSM    H9F13959   2.471   5.100   3.778 -0.6758  0.5608 -1.1126
  130OSM   C10F13960   2.679   5.069   3.771 -1.1731 -0.4603 -0.8148
  130OSM   H10F13961   2.694   5.131   3.861 -0.8013 -0.4812 -0.8606
  130OSM   C11F13962   2.805   5.002   3.714  0.1235 -0.0178 -0.2335
  130OSM   H11F13963   2.787   4.940   3.624 -1.5032 -0.2879  0.2470
  130OSM   H11G13964   2.835   4.930   3.792  0.2877 -1.3155 -1.4541
  130OSM   C12F13965   2.920   5.106   3.688 -0.4238 -0.3049  0.0836
  130OSM   H12F13966   3.012   5.044   3.678 -1.9167 -2.4795 -1.1316
  130OSM   H12G13967   2.929   5.153   3.788  0.4867 -1.6865  0.6883
  130OSM   C13F13968   2.897   5.211   3.572 -0.4437  0.0970  0.1247
  130OSM   H13F13969   2.972   5.292   3.579  1.1498 -1.2302 -0.8881
  130OSM   H13G13970   2.798   5.260   3.586 -1.4904 -1.8561 -0.0684
  130OSM   C14F13971   2.896   5.141   3.435 -0.2501  0.2057 -0.6010
  130OSM   H14F13972   2.817   5.064   3.447  0.8076 -0.8312 -0.0597
  130OSM   H14G13973   2.992   5.087   3.425 -0.1296  0.4677 -0.8818
  130OSM   C15F13974   2.858   5.222   3.310 -0.0920  0.2655 -0.1775
  130OSM   H15F13975   2.934   5.302   3.309 -1.6717  1.8288  0.2069
  130OSM   H15G13976   2.754   5.261   3.313 -0.8905 -1.7763  1.2037
  130OSM   C16F13977   2.867   5.134   3.181 -0.6258  0.5716 -0.3292
  130OSM   H16F13978   2.811   5.040   3.203  2.5617 -1.9336 -2.0591
  130OSM   H16G13979   2.973   5.104   3.170 -1.0345 -1.7365  1.2324
  130OSM   C17F13980   2.824   5.205   3.043 -0.2442  0.4506 -0.1677
  130OSM   H17F13981   2.895   5.290   3.033 -0.2534  0.6369  1.2437
  130OSM   H17G13982   2.728   5.254   3.068  0.5238  2.1603 -0.4230
  130OSM   C18F13983   2.821   5.115   2.919  0.1212 -0.1333  0.0548
  130OSM   H18F13984   2.745   5.036   2.938 -1.9361  2.0391  1.3547
  130OSM   H18G13985   2.921   5.070   2.899  0.7677 -0.4262  3.4053
  130OSM   H18H13986   2.779   5.163   2.828  2.0200  0.6800 -0.4472
  131OSM      N13987   4.411   2.942   2.123  0.1752 -0.3569  0.5605
  131OSM    C1513988   4.266   2.950   2.112  0.2059  0.3715 -0.1087
  131OSM   H15A13989   4.227   2.859   2.071 -0.6293  0.7703 -0.2244
  131OSM   H15B13990   4.240   3.034   2.048  0.2571  1.8203  1.6801
  131OSM   H15C13991   4.220   2.956   2.210  1.5760 -2.0056  0.7674
  131OSM    C1413992   4.460   2.906   1.985  0.8247 -0.5988  0.3308
  131OSM   H14A13993   4.567   2.894   1.976  0.9469  0.4315  0.2894
  131OSM   H14B13994   4.436   2.990   1.921 -0.6953  0.6022  2.3696
  131OSM   H14C13995   4.409   2.815   1.957 -1.6722 -0.6244  4.2512
  131OSM    C1313996   4.460   3.073   2.171 -0.6595 -0.8192 -0.9731
  131OSM   H13A13997   4.397   3.100   2.255 -0.2273  2.1676 -1.4922
  131OSM   H13B13998   4.451   3.153   2.099 -1.5351  1.3071  1.3481
  131OSM   H13C13999   4.565   3.064   2.195 -1.2395 -1.4088  1.6686
  131OSM    C1214000   4.446   2.842   2.232 -0.2733 -0.3683 -1.0741
  131OSM   H12A14001   4.399   2.747   2.211 -1.5685 -0.6515  2.3664
  131OSM   H12B14002   4.410   2.882   2.326  0.0972 -1.1879 -0.5649
  131OSM    C1114003   4.593   2.796   2.263  0.6400 -0.0684 -0.0089
  131OSM   H11A14004   4.583   2.719   2.343 -0.1559  1.0188  0.9813
  131OSM   H11B14005   4.660   2.873   2.308  0.2640  0.2155  0.0728
  131OSM      P14006   4.798   2.759   2.098 -0.0416 -0.2137 -0.1686
  131OSM    O1314007   4.837   2.649   2.012  0.1871  0.3758  0.3771
  131OSM    O1414008   4.821   2.898   2.050 -0.3100 -0.4898  0.0317
  131OSM    O1114009   4.887   2.744   2.224 -0.3324 -0.6311  0.0541
  131OSM    O1214010   4.650   2.744   2.140  0.2409  0.7823  0.3255
  131OSM    C1S14011   4.882   2.617   2.291 -0.1015 -0.4264  0.3213
  131OSM    H1S14012   4.944   2.539   2.242 -1.1044 -1.3302  0.4630
  131OSM    H1T14013   4.782   2.572   2.308 -0.0386 -0.4973  0.4995
  131OSM     NF14014   4.962   2.491   2.482 -0.2699  0.1168 -0.3209
  131OSM    HNF14015   4.898   2.460   2.551  0.6796 -1.0806  0.0451
  131OSM    C2S14016   4.951   2.628   2.430 -0.1523 -0.1198 -0.1145
  131OSM    H2S14017   5.050   2.678   2.421 -1.0636  1.9508  0.9018
  131OSM    C3S14018   4.878   2.738   2.523 -0.2850  0.6170  0.3657
  131OSM    H3S14019   4.768   2.727   2.515 -0.2210  0.9628 -1.1664
  131OSM     O314020   4.891   2.869   2.472 -0.2201 -0.1563  0.0880
  131OSM    HO314021   4.921   2.852   2.382  0.0347 -0.2053  0.1824
  131OSM    C4S14022   4.907   2.744   2.674 -0.4252 -0.4056  0.0519
  131OSM    H4S14023   4.998   2.801   2.698 -1.3103  0.5861  1.2213
  131OSM    C5S14024   4.821   2.699   2.768  0.1088  0.2015  0.4405
  131OSM    H5S14025   4.720   2.669   2.737  0.7934  0.0212 -1.7196
  131OSM    C6S14026   4.845   2.700   2.920 -0.6991  0.2026  0.0486
  131OSM    H6S14027   4.950   2.734   2.937  0.7831 -3.5339 -0.6345
  131OSM    H6T14028   4.849   2.594   2.955  2.6282  0.4648  0.8915
  131OSM    C7S14029   4.748   2.787   3.008  0.5922  0.3446 -0.0545
  131OSM    H7S14030   4.644   2.760   2.980  0.8319 -0.8956  0.2240
  131OSM    H7T14031   4.775   2.894   2.994 -0.4427  0.5435 -0.6660
  131OSM    C8S14032   4.767   2.749   3.155  0.2528 -0.4438 -0.2158
  131OSM    H8S14033   4.869   2.771   3.193 -0.6273  1.6261  1.1762
  131OSM    H8T14034   4.757   2.638   3.160  1.4633 -0.5893 -0.9144
  131OSM    C9S14035   4.653   2.803   3.251 -0.0290  0.4816 -0.5032
  131OSM    H9S14036   4.562   2.766   3.198 -0.3038  0.0923  0.2313
  131OSM    H9T14037   4.660   2.914   3.257  2.1270  0.2964  2.2136
  131OSM   C10S14038   4.679   2.742   3.393  0.3709  0.0954  0.2794
  131OSM   H10S14039   4.784   2.771   3.414  0.2958  0.6573 -0.0840
  131OSM   H10T14040   4.682   2.631   3.397 -1.0293  0.0159 -0.1125
  131OSM   C11S14041   4.592   2.795   3.502 -0.0688  0.2058 -0.7464
  131OSM   H11S14042   4.486   2.800   3.468 -0.4485  1.8432  0.5766
  131OSM   H11T14043   4.622   2.901   3.512  2.0866 -0.4485  0.0935
  131OSM   C12S14044   4.619   2.751   3.646  0.3165  0.0977  0.0792
  131OSM   H12S14045   4.727   2.746   3.670  0.6749  0.3095 -1.4255
  131OSM   H12T14046   4.576   2.649   3.656 -0.2233  0.3587  0.5268
  131OSM   C13S14047   4.544   2.841   3.749 -0.0654  0.7529 -0.0484
  131OSM   H13S14048   4.437   2.820   3.731 -0.2340  1.4162  0.1568
  131OSM   H13T14049   4.573   2.948   3.738  0.3274  0.6394 -0.1596
  131OSM   C14S14050   4.572   2.791   3.886  0.5707 -0.2017  0.3009
  131OSM   H14S14051   4.679   2.807   3.910 -0.2306  2.0689  2.9481
  131OSM   H14T14052   4.560   2.681   3.879 -0.7375 -0.0517 -0.1622
  131OSM   C15S14053   4.488   2.854   3.994 -0.2825  0.1198  0.6264
  131OSM   H15S14054   4.380   2.841   3.974 -0.1092 -2.1809  0.9467
  131OSM   H15T14055   4.514   2.961   4.006 -1.6607  0.6580 -0.8180
  131OSM   C16S14056   4.522   2.793   4.135 -0.0227 -0.8062  0.1187
  131OSM   H16S14057   4.623   2.825   4.167 -0.4086 -0.6529  1.2511
  131OSM   H16T14058   4.517   2.682   4.131 -0.1091 -0.7779 -0.6853
  131OSM   C17S14059   4.429   2.841   4.242  0.1123  0.1195  0.0912
  131OSM   H17S14060   4.329   2.806   4.211  0.3596 -0.0824 -0.4848
  131OSM   H17T14061   4.428   2.952   4.241 -1.2067  0.1224 -0.3148
  131OSM   C18S14062   4.453   2.804   4.393  0.5378  0.1613 -0.1048
  131OSM   H18S14063   4.472   2.695   4.402  2.1690  0.3213 -1.1355
  131OSM   H18T14064   4.363   2.837   4.448 -0.6211  1.7336 -2.7251
  131OSM   H18U14065   4.538   2.865   4.431  0.7777 -0.7488  0.8461
  131OSM    C1F14066   5.052   2.397   2.438  0.1406 -0.4390  0.0717
  131OSM     OF14067   5.143   2.430   2.362  0.3876  0.1391  0.3566
  131OSM    C2F14068   5.027   2.256   2.479  0.0256 -0.3545 -0.5248
  131OSM    H2F14069   5.019   2.196   2.386 -2.9908 -0.0252 -0.5531
  131OSM    H2G14070   4.931   2.266   2.534  0.5701 -0.7603  0.5235
  131OSM    C3F14071   5.136   2.190   2.570  0.3001  0.6590 -0.3976
  131OSM    H3F14072   5.167   2.262   2.649  0.4645 -1.0771  1.1970
  131OSM    H3G14073   5.225   2.174   2.505 -0.0059  1.2559 -0.9737
  131OSM    C4F14074   5.091   2.064   2.626 -0.3330  0.4618 -0.0986
  131OSM    H4F14075   5.038   1.996   2.556  0.1465  1.2653 -1.2701
  131OSM    H4G14076   5.005   2.089   2.692 -0.6686  0.7956 -0.6508
  131OSM    C5F14077   5.194   1.996   2.717  0.3845  0.1573  1.2011
  131OSM    H5F14078   5.290   2.000   2.661 -1.5627  2.5570 -2.3457
  131OSM    H5G14079   5.154   1.895   2.741  0.2744  0.1312  0.9045
  131OSM    C6F14080   5.229   2.076   2.847 -0.4116  1.0212 -0.0244
  131OSM    H6F14081   5.267   2.175   2.814 -1.7861  1.1282 -1.3588
  131OSM    H6G14082   5.320   2.029   2.890 -0.8507 -1.0265 -1.2023
  131OSM    C7F14083   5.124   2.105   2.960  0.8427  0.8239 -0.1889
  131OSM    H7F14084   5.025   2.110   2.910  0.6702 -0.1682  0.0327
  131OSM    H7G14085   5.141   2.206   3.003 -0.3027 -0.0293  2.4693
  131OSM    C8F14086   5.126   1.990   3.064  0.4593 -0.1008 -0.2084
  131OSM    H8F14087   5.226   1.993   3.112 -1.0994  0.6743  3.3528
  131OSM    H8G14088   5.106   1.901   3.001 -3.1009 -2.0155  3.1762
  131OSM    C9F14089   5.018   2.008   3.169  0.6492  0.3166 -0.3795
  131OSM    H9F14090   4.917   1.971   3.144  1.4839 -3.1390  0.6906
  131OSM   C10F14091   5.039   2.063   3.288 -0.4401  0.2937 -0.6464
  131OSM   H10F14092   4.951   2.071   3.353 -1.1629  1.9116 -1.7528
  131OSM   C11F14093   5.168   2.106   3.356 -0.4609 -0.5795  0.4211
  131OSM   H11F14094   5.180   2.216   3.350  0.5377 -0.7167 -0.4206
  131OSM   H11G14095   5.258   2.055   3.317 -0.2007 -1.0470  1.5841
  131OSM   C12F14096   5.157   2.076   3.511  0.1491 -0.2406  0.2198
  131OSM   H12F14097   5.261   2.082   3.549  0.1489  1.8816  0.0453
  131OSM   H12G14098   5.115   1.974   3.523 -0.6521  0.0849  0.2655
  131OSM   C13F14099   5.070   2.185   3.579  0.0864  0.2292  0.4085
  131OSM   H13F14100   4.977   2.208   3.522 -0.5290 -1.4308  0.6868
  131OSM   H13G14101   5.133   2.276   3.579  0.8024 -0.2611  0.4441
  131OSM   C14F14102   5.011   2.157   3.720  0.6888  0.0467 -0.4222
  131OSM   H14F14103   4.942   2.070   3.710  1.7895 -0.8709 -0.2529
  131OSM   H14G14104   4.944   2.243   3.744  0.0997  0.2589 -2.5753
  131OSM   C15F14105   5.119   2.143   3.823 -0.1468 -0.1826 -0.0379
  131OSM   H15F14106   5.196   2.223   3.827  0.6188 -0.9542  1.5887
  131OSM   H15G14107   5.172   2.046   3.815  0.4237 -0.0192  1.3555
  131OSM   C16F14108   5.052   2.136   3.964  0.6093  0.0065  0.1896
  131OSM   H16F14109   5.130   2.124   4.043  0.9397 -1.5336 -0.3162
  131OSM   H16G14110   4.977   2.054   3.966 -0.4253  0.9268 -0.4006
  131OSM   C17F14111   4.971   2.251   4.012 -0.1791 -0.0720  0.0908
  131OSM   H17F14112   4.872   2.245   3.963 -0.2159 -2.1504  0.3272
  131OSM   H17G14113   5.022   2.348   3.991 -0.5590 -0.0330 -0.6653
  131OSM   C18F14114   4.958   2.229   4.163 -0.4348  0.0691  0.5959
  131OSM   H18F14115   4.878   2.289   4.211 -1.0272 -0.9056  0.8447
  131OSM   H18G14116   5.053   2.269   4.203 -0.0518  0.3663 -0.5551
  131OSM   H18H14117   4.948   2.122   4.188  0.5300  0.3022  2.0676
  132OSM      N14118   5.249   2.623   1.949  0.4866  0.3185 -0.0358
  132OSM    C1514119   5.312   2.742   1.883  0.0768  0.8646 -0.2298
  132OSM   H15A14120   5.384   2.708   1.810  1.6259  2.3499  0.5373
  132OSM   H15B14121   5.356   2.814   1.950 -0.2971 -0.2429  1.2670
  132OSM   H15C14122   5.231   2.780   1.823 -1.0387 -0.1833  0.5810
  132OSM    C1414123   5.158   2.551   1.848  0.0432 -0.0845  0.2653
  132OSM   H14A14124   5.127   2.453   1.881  2.6770 -1.1356 -0.1511
  132OSM   H14B14125   5.208   2.520   1.757 -1.0259 -0.6260 -0.1527
  132OSM   H14C14126   5.073   2.615   1.828  1.3029  1.3551 -0.6981
  132OSM    C1314127   5.361   2.530   1.989 -0.3225  0.1404  0.0609
  132OSM   H13A14128   5.320   2.470   2.068  0.8116 -0.9780 -0.1582
  132OSM   H13B14129   5.452   2.580   2.021  0.0263  0.0757 -0.7876
  132OSM   H13C14130   5.397   2.477   1.902  3.1583  2.5948 -0.2275
  132OSM    C1214131   5.163   2.668   2.066  0.5112 -0.4682  0.1747
  132OSM   H12A14132   5.123   2.579   2.112  0.6739 -0.2098  0.8321
  132OSM   H12B14133   5.076   2.725   2.034 -0.0633 -1.6119 -0.3422
  132OSM    C1114134   5.235   2.754   2.175 -0.6478  0.0610  0.0507
  132OSM   H11A14135   5.336   2.714   2.195 -0.3074  0.0132 -1.6520
  132OSM   H11B14136   5.176   2.738   2.268 -0.4587  0.3875  0.2277
  132OSM      P14137   5.265   2.998   2.256  0.2239 -0.4397  0.0645
  132OSM    O1314138   5.309   3.116   2.186  0.3841 -0.2830 -0.0259
  132OSM    O1414139   5.145   3.001   2.337 -0.1701 -0.5708 -0.7990
  132OSM    O1114140   5.379   2.933   2.351 -0.4885 -0.6319 -0.7221
  132OSM    O1214141   5.238   2.891   2.146  0.4592 -0.4877  0.0552
  132OSM    C1S14142   5.376   2.985   2.488  0.1145 -0.0949 -0.0334
  132OSM    H1S14143   5.334   3.088   2.491  0.2633  0.2466 -4.1417
  132OSM    H1T14144   5.482   2.990   2.520  0.1266 -0.7639  0.0374
  132OSM     NF14145   5.288   2.972   2.723 -0.4358  0.1051  0.2119
  132OSM    HNF14146   5.366   2.978   2.785  0.8674 -0.8909 -1.2537
  132OSM    C2S14147   5.318   2.894   2.601 -0.9123  0.0111 -0.9242
  132OSM    H2S14148   5.224   2.860   2.552 -0.9618 -0.9812 -0.1554
  132OSM    C3S14149   5.408   2.767   2.617 -0.3385 -1.0725  0.2568
  132OSM    H3S14150   5.506   2.800   2.658 -0.6166  1.8316 -1.1570
  132OSM     O314151   5.445   2.690   2.498 -0.5580 -0.5248  0.1510
  132OSM    HO314152   5.449   2.749   2.422  3.2532 -0.0480  0.5155
  132OSM    C4S14153   5.363   2.674   2.732  0.1203 -0.2343 -0.4233
  132OSM    H4S14154   5.426   2.683   2.821  0.3656  1.6081 -0.7407
  132OSM    C5S14155   5.271   2.568   2.724 -0.1043 -0.7744 -0.2622
  132OSM    H5S14156   5.218   2.541   2.631 -2.7871  1.2367  0.5407
  132OSM    C6S14157   5.227   2.487   2.844  0.1401  0.4519 -0.7654
  132OSM    H6S14158   5.311   2.420   2.874  0.2240  0.7640 -0.2905
  132OSM    H6T14159   5.135   2.436   2.808 -1.3297  2.3981  0.0651
  132OSM    C7S14160   5.201   2.577   2.965 -0.3212 -0.0912 -0.2047
  132OSM    H7S14161   5.112   2.641   2.946 -1.1629 -0.9762  0.6150
  132OSM    H7T14162   5.289   2.638   2.992 -1.5006  1.0312  1.2572
  132OSM    C8S14163   5.164   2.499   3.100  0.4734  0.7386  0.2503
  132OSM    H8S14164   5.209   2.400   3.119 -0.1718  0.8189  2.6162
  132OSM    H8T14165   5.056   2.473   3.102  0.2693  1.5833  1.0680
  132OSM    C9S14166   5.189   2.582   3.227  0.1237  0.4125  0.0586
  132OSM    H9S14167   5.129   2.674   3.215 -1.9201 -0.4080  2.8763
  132OSM    H9T14168   5.297   2.606   3.238  0.1126 -0.0566  1.3221
  132OSM   C10S14169   5.136   2.509   3.360  0.0792 -0.6047  0.1773
  132OSM   H10S14170   5.217   2.436   3.382  1.2278  0.6396  0.2371
  132OSM   H10T14171   5.038   2.466   3.330 -0.4146  0.8137 -0.3214
  132OSM   C11S14172   5.109   2.614   3.466 -0.1282 -0.7830 -0.5035
  132OSM   H11S14173   5.039   2.691   3.427  0.5478  0.6682  0.9992
  132OSM   H11T14174   5.203   2.670   3.486  1.6801 -3.0281 -2.1315
  132OSM   C12S14175   5.054   2.562   3.592 -0.5354  0.2602 -0.6340
  132OSM   H12S14176   5.108   2.470   3.625  2.6541  2.0031 -0.5597
  132OSM   H12T14177   4.951   2.528   3.567 -1.5858 -1.9870  5.1141
  132OSM   C13S14178   5.040   2.665   3.711 -0.6754 -0.5542  0.2729
  132OSM   H13S14179   4.980   2.754   3.684 -2.6020 -1.8257  0.1427
  132OSM   H13T14180   5.139   2.699   3.748 -0.2920  1.4523 -2.3454
  132OSM   C14S14181   4.970   2.598   3.829 -0.1970  0.4996 -0.3979
  132OSM   H14S14182   5.026   2.504   3.848  0.2520  0.9165  0.4246
  132OSM   H14T14183   4.868   2.576   3.790  0.0131  0.2049 -0.7814
  132OSM   C15S14184   4.960   2.693   3.950  0.2444 -0.5451  0.2557
  132OSM   H15S14185   4.895   2.777   3.915 -2.2545 -1.7415  1.7731
  132OSM   H15T14186   5.062   2.725   3.980 -0.2129  0.0405  1.2238
  132OSM   C16S14187   4.902   2.628   4.081 -0.5243  0.3255  0.6194
  132OSM   H16S14188   4.961   2.536   4.101  0.5189  0.0855 -2.8097
  132OSM   H16T14189   4.794   2.609   4.063 -0.3463  0.9319 -1.3196
  132OSM   C17S14190   4.903   2.728   4.191 -0.7983 -0.0751 -0.5980
  132OSM   H17S14191   4.853   2.822   4.160  0.6305  1.4516  1.4837
  132OSM   H17T14192   5.011   2.744   4.213 -0.8725 -0.2309 -0.1107
  132OSM   C18S14193   4.841   2.663   4.314 -0.2536  0.0176 -0.2607
  132OSM   H18S14194   4.890   2.566   4.338 -1.3339  0.0216  2.3899
  132OSM   H18T14195   4.735   2.641   4.289 -0.7013  0.2416  1.3178
  132OSM   H18U14196   4.841   2.731   4.402 -0.1942 -0.3352  0.0121
  132OSM    C1F14197   5.191   3.071   2.730  0.6933  0.1343  0.1520
  132OSM     OF14198   5.115   3.085   2.637  0.1803 -0.0718 -0.1627
  132OSM    C2F14199   5.215   3.168   2.837  0.0055 -0.7501 -0.4200
  132OSM    H2F14200   5.276   3.245   2.785  0.1144 -0.5781 -0.0417
  132OSM    H2G14201   5.267   3.135   2.929  1.0724 -0.9463 -1.0685
  132OSM    C3F14202   5.078   3.237   2.878  0.0384  0.0043 -0.2208
  132OSM    H3F14203   5.036   3.295   2.793 -1.9442 -1.6767 -0.5040
  132OSM    H3G14204   5.105   3.307   2.959 -0.3087 -1.9355  1.6683
  132OSM    C4F14205   4.974   3.138   2.942 -0.8102  0.6841 -0.2168
  132OSM    H4F14206   4.934   3.065   2.868 -1.3539  0.2895  0.4591
  132OSM    H4G14207   4.890   3.198   2.984 -0.3932  1.0502  0.1006
  132OSM    C5F14208   5.033   3.057   3.066  0.6039 -0.3169  0.6285
  132OSM    H5F14209   5.126   3.004   3.037  1.5713  1.4864  0.3133
  132OSM    H5G14210   4.962   2.979   3.102  0.0856 -0.3308 -0.3633
  132OSM    C6F14211   5.076   3.147   3.183  0.6657 -0.1594 -0.2182
  132OSM    H6F14212   5.157   3.215   3.150 -0.6586  0.6144 -2.0980
  132OSM    H6G14213   5.108   3.086   3.270 -0.7906  2.5276  2.3894
  132OSM    C7F14214   4.973   3.244   3.247  0.7110 -0.0989  0.1564
  132OSM    H7F14215   4.933   3.313   3.170  0.6555 -0.2947  0.0094
  132OSM    H7G14216   5.021   3.307   3.325 -2.7912  0.3715  2.1596
  132OSM    C8F14217   4.860   3.171   3.321  0.3477 -0.6871  0.1200
  132OSM    H8F14218   4.776   3.139   3.256 -0.0255 -1.5888  1.0208
  132OSM    H8G14219   4.804   3.255   3.367 -2.1441 -0.6190 -2.7212
  132OSM    C9F14220   4.900   3.053   3.409 -0.0836 -0.4250 -1.0171
  132OSM    H9F14221   4.884   2.955   3.359  0.0864 -1.0553  0.1326
  132OSM   C10F14222   4.935   3.055   3.542 -0.5082  0.4858 -0.0743
  132OSM   H10F14223   4.954   2.957   3.588  0.4390 -0.0788 -1.5828
  132OSM   C11F14224   4.934   3.186   3.619 -0.3318 -0.0179  0.0905
  132OSM   H11F14225   4.893   3.278   3.571  1.7586  2.0863  2.0271
  132OSM   H11G14226   5.034   3.216   3.657 -1.3935  2.5132  1.1467
  132OSM   C12F14227   4.853   3.160   3.746  0.9476 -0.0508  0.0937
  132OSM   H12F14228   4.903   3.084   3.809  0.3159  0.1104  0.8134
  132OSM   H12G14229   4.750   3.125   3.720  0.3735  2.1589 -0.8705
  132OSM   C13F14230   4.820   3.289   3.829 -0.0795  0.4147 -0.4994
  132OSM   H13F14231   4.755   3.349   3.761 -0.5276 -1.6335 -1.9395
  132OSM   H13G14232   4.919   3.336   3.847 -0.0492  0.1489  0.0566
  132OSM   C14F14233   4.739   3.265   3.963  0.3576  0.6393  0.6498
  132OSM   H14F14234   4.642   3.222   3.931  1.1971 -0.6734 -0.2194
  132OSM   H14G14235   4.712   3.362   4.010 -3.6628  0.7374 -1.4332
  132OSM   C15F14236   4.810   3.168   4.065  0.6049 -0.5499 -0.9473
  132OSM   H15F14237   4.865   3.093   4.005 -0.0791 -0.0524 -2.2258
  132OSM   H15G14238   4.732   3.120   4.128  1.3159 -1.6614 -0.8965
  132OSM   C16F14239   4.912   3.238   4.150  0.0850  0.2001 -0.5288
  132OSM   H16F14240   4.990   3.281   4.084 -1.7360  0.8876 -2.3268
  132OSM   H16G14241   4.966   3.154   4.199 -0.0358 -1.2822 -2.7801
  132OSM   C17F14242   4.867   3.355   4.248  0.0710 -0.6377  0.0461
  132OSM   H17F14243   4.772   3.319   4.293  0.9432 -1.0791  1.6028
  132OSM   H17G14244   4.845   3.446   4.188 -0.2093 -1.2312 -0.7685
  132OSM   C18F14245   4.967   3.379   4.362 -0.3140  0.1997  0.7290
  132OSM   H18F14246   4.983   3.274   4.396 -0.8006 -1.4829 -3.6401
  132OSM   H18G14247   4.919   3.434   4.446 -2.0876 -0.0824 -0.0615
  132OSM   H18H14248   5.054   3.438   4.325 -1.0329  0.8824  0.0856
  133OSM      N14249   2.666   3.202   2.078  0.3651 -0.1265  0.2505
  133OSM    C1514250   2.687   3.278   2.207  0.3043 -0.7984  0.6189
  133OSM   H15A14251   2.769   3.347   2.199 -1.7736  1.8203  0.5718
  133OSM   H15B14252   2.712   3.198   2.275  1.2670 -1.7012 -0.7378
  133OSM   H15C14253   2.595   3.322   2.243 -0.0373 -0.2644 -0.8573
  133OSM    C1414254   2.632   3.296   1.966  0.2426 -0.3129  0.3277
  133OSM   H14A14255   2.619   3.261   1.865 -0.5878  2.3876 -0.5824
  133OSM   H14B14256   2.711   3.370   1.965  1.1131 -1.2116  0.3704
  133OSM   H14C14257   2.545   3.352   1.995  0.4714  0.3758 -0.2900
  133OSM    C1314258   2.805   3.140   2.049  0.3823 -0.0268  1.1009
  133OSM   H13A14259   2.877   3.220   2.033 -0.9393  1.2896  1.4830
  133OSM   H13B14260   2.810   3.092   1.952  0.8554 -0.9540  1.5796
  133OSM   H13C14261   2.844   3.078   2.127 -2.0063  0.0292  2.4372
  133OSM    C1214262   2.561   3.096   2.098  0.2106 -0.1208 -0.2305
  133OSM   H12A14263   2.565   3.027   2.015 -1.7482  0.1053 -0.5465
  133OSM   H12B14264   2.461   3.135   2.104 -0.9396 -2.3455 -2.9295
  133OSM    C1114265   2.574   3.002   2.230 -0.0350 -0.5354 -0.1451
  133OSM   H11A14266   2.489   2.931   2.225 -0.2305 -0.2898 -0.3657
  133OSM   H11B14267   2.566   3.055   2.327 -1.8185 -1.1622  0.0872
  133OSM      P14268   2.804   2.913   2.336  0.1032  0.1006  0.0404
  133OSM    O1314269   2.858   2.771   2.340 -0.1224 -0.3656  0.3694
  133OSM    O1414270   2.900   3.027   2.332  0.4878  0.6214  0.2050
  133OSM    O1114271   2.718   2.935   2.468  0.1550 -0.1141  0.2877
  133OSM    O1214272   2.688   2.924   2.230  0.3543 -0.0530 -0.2317
  133OSM    C1S14273   2.612   2.849   2.505  0.1105 -0.4565 -0.0954
  133OSM    H1S14274   2.569   2.787   2.423 -0.9253  1.5081 -1.0929
  133OSM    H1T14275   2.535   2.912   2.555 -0.2997 -0.9523 -0.0943
  133OSM     NF14276   2.558   2.645   2.629  0.4748 -0.0960  0.4514
  133OSM    HNF14277   2.488   2.663   2.697 -0.0950  0.9514 -0.3831
  133OSM    C2S14278   2.653   2.752   2.616  0.0054  0.1770 -0.0079
  133OSM    H2S14279   2.742   2.699   2.575  0.7603  0.7413  0.8703
  133OSM    C3S14280   2.683   2.827   2.752  0.5290  0.4568  0.3473
  133OSM    H3S14281   2.584   2.876   2.766 -0.9052 -1.5261 -1.9859
  133OSM     O314282   2.789   2.921   2.748  0.2704 -0.4261 -0.4672
  133OSM    HO314283   2.784   2.956   2.659  1.8910 -1.2875 -0.9310
  133OSM    C4S14284   2.692   2.735   2.876 -0.2729  0.7857 -0.3391
  133OSM    H4S14285   2.601   2.721   2.937  0.7619 -0.6507  0.9797
  133OSM    C5S14286   2.801   2.662   2.921 -0.4202 -0.2682  0.0147
  133OSM    H5S14287   2.888   2.646   2.855 -1.2936 -0.2090 -1.1807
  133OSM    C6S14288   2.799   2.575   3.049  0.1600 -0.0499  0.1043
  133OSM    H6S14289   2.895   2.569   3.104  1.8996 -3.3238 -2.8996
  133OSM    H6T14290   2.781   2.468   3.028 -0.0385 -0.1380  0.7376
  133OSM    C7S14291   2.713   2.628   3.153  0.4665 -0.2773  0.5696
  133OSM    H7S14292   2.605   2.621   3.128  0.8428  0.3619 -1.3871
  133OSM    H7T14293   2.725   2.736   3.176 -0.0777  0.4052 -2.0260
  133OSM    C8S14294   2.727   2.558   3.293  0.0275 -0.0095  0.1274
  133OSM    H8S14295   2.833   2.581   3.318 -0.1882 -0.2635  1.3762
  133OSM    H8T14296   2.727   2.449   3.271  1.5401 -0.1365  0.6906
  133OSM    C9S14297   2.619   2.604   3.394 -0.1097 -0.3270  0.0455
  133OSM    H9S14298   2.520   2.571   3.357 -1.4617  2.3910  0.9360
  133OSM    H9T14299   2.632   2.715   3.391 -1.9853 -0.0627  0.2264
  133OSM   C10S14300   2.635   2.551   3.541  0.1637 -0.2475 -0.0974
  133OSM   H10S14301   2.742   2.558   3.571 -0.5017  2.2837  2.0150
  133OSM   H10T14302   2.600   2.450   3.569  0.8911 -0.9579 -1.6559
  133OSM   C11S14303   2.573   2.660   3.633 -0.0045 -0.6205  0.3023
  133OSM   H11S14304   2.471   2.687   3.597 -0.1712 -1.2885  0.2577
  133OSM   H11T14305   2.623   2.759   3.639  2.6369 -1.7928 -0.8946
  133OSM   C12S14306   2.573   2.600   3.773  1.0613  0.0595 -0.8320
  133OSM   H12S14307   2.558   2.490   3.780 -1.4332  0.4355  1.6437
  133OSM   H12T14308   2.478   2.639   3.814  1.7092 -0.6899  1.5667
  133OSM   C13S14309   2.695   2.632   3.862  0.4490 -0.3623 -0.4180
  133OSM   H13S14310   2.682   2.735   3.903 -1.9035 -1.3595  1.5891
  133OSM   H13T14311   2.785   2.629   3.796  1.7482 -0.3072  1.2833
  133OSM   C14S14312   2.713   2.544   3.986  0.1077  0.0219 -0.2699
  133OSM   H14S14313   2.810   2.563   4.035  1.0174  0.6981 -2.2369
  133OSM   H14T14314   2.717   2.440   3.946 -1.6849  0.1162 -0.7898
  133OSM   C15S14315   2.598   2.560   4.089  0.3318  0.1974  0.2698
  133OSM   H15S14316   2.498   2.528   4.053  0.1552  0.3457  0.6293
  133OSM   H15T14317   2.590   2.669   4.112  1.4573  0.8917 -2.2433
  133OSM   C16S14318   2.629   2.491   4.225  0.1115 -0.3587 -0.5927
  133OSM   H16S14319   2.735   2.522   4.242  0.5852 -2.4624  0.7277
  133OSM   H16T14320   2.630   2.384   4.192  2.3164 -0.5525 -0.0593
  133OSM   C17S14321   2.546   2.508   4.349 -0.7837 -0.1633 -0.0341
  133OSM   H17S14322   2.595   2.449   4.429 -0.1151 -1.2335 -1.1962
  133OSM   H17T14323   2.448   2.468   4.316 -0.7674  0.5231 -0.9507
  133OSM   C18S14324   2.503   2.648   4.390 -0.5172  0.1942 -0.0077
  133OSM   H18S14325   2.594   2.711   4.395  0.0955 -0.6705 -0.0973
  133OSM   H18T14326   2.452   2.638   4.488  0.5376 -2.8342  0.3407
  133OSM   H18U14327   2.431   2.696   4.321 -1.9762 -2.7311 -0.7174
  133OSM    C1F14328   2.534   2.541   2.550  0.5425 -0.6786  0.5755
  133OSM     OF14329   2.592   2.538   2.440  0.4148  0.2501  0.5903
  133OSM    C2F14330   2.437   2.435   2.595 -0.4129  0.2993  0.0408
  133OSM    H2F14331   2.384   2.401   2.504  1.4690 -1.6657 -0.3856
  133OSM    H2G14332   2.367   2.487   2.664 -0.6085  1.4874 -1.0123
  133OSM    C3F14333   2.518   2.324   2.663 -0.1009 -0.2329 -0.0258
  133OSM    H3F14334   2.601   2.360   2.728  1.2745 -3.5164  0.2062
  133OSM    H3G14335   2.565   2.269   2.579 -1.9933 -1.4923 -0.3288
  133OSM    C4F14336   2.423   2.224   2.730 -0.0915  0.7511  0.8644
  133OSM    H4F14337   2.488   2.141   2.765 -0.6036 -0.0361 -0.0289
  133OSM    H4G14338   2.347   2.186   2.659 -0.2152  1.7032  0.4703
  133OSM    C5F14339   2.363   2.282   2.858 -0.0206 -0.3553  0.4030
  133OSM    H5F14340   2.312   2.204   2.918  0.3289 -0.3703  0.6832
  133OSM    H5G14341   2.296   2.363   2.823  1.6730  0.8517 -0.2254
  133OSM    C6F14342   2.457   2.354   2.961  0.3613  0.3295 -0.1112
  133OSM    H6F14343   2.452   2.459   2.924 -1.0778 -0.2433 -1.6673
  133OSM    H6G14344   2.559   2.312   2.946  0.6449  1.3468 -1.2572
  133OSM    C7F14345   2.431   2.322   3.105 -0.2650 -0.3031  0.0877
  133OSM    H7F14346   2.516   2.357   3.167 -1.8434  1.1631  1.5233
  133OSM    H7G14347   2.433   2.213   3.125 -0.5191 -0.0402  1.7078
  133OSM    C8F14348   2.295   2.374   3.160 -0.3887 -0.6454 -0.1691
  133OSM    H8F14349   2.210   2.312   3.126 -0.7446 -0.0547 -0.3623
  133OSM    H8G14350   2.283   2.476   3.117 -0.3580 -0.8431 -0.6486
  133OSM    C9F14351   2.301   2.377   3.315 -0.2832 -0.0892 -0.1912
  133OSM    H9F14352   2.390   2.326   3.356 -0.3635 -1.2641 -1.4060
  133OSM   C10F14353   2.213   2.429   3.400 -0.4857  0.3006 -0.1032
  133OSM   H10F14354   2.233   2.429   3.509 -1.4046  1.4411  0.0913
  133OSM   C11F14355   2.089   2.498   3.357  0.2529 -0.5752 -0.6301
  133OSM   H11F14356   1.998   2.461   3.409 -0.9579 -0.4374 -2.5225
  133OSM   H11G14357   2.067   2.476   3.250 -0.7115 -1.2000 -0.3226
  133OSM   C12F14358   2.099   2.653   3.380  0.5185  0.7925  0.5532
  133OSM   H12F14359   2.012   2.700   3.330 -1.3903 -2.1947  0.8318
  133OSM   H12G14360   2.189   2.693   3.327  0.2678  0.2166 -0.3398
  133OSM   C13F14361   2.100   2.691   3.532 -0.0950 -0.0006  0.3525
  133OSM   H13F14362   2.086   2.800   3.525  4.1782  0.6239 -2.3382
  133OSM   H13G14363   2.202   2.688   3.575 -0.4609 -0.9031  1.1981
  133OSM   C14F14364   2.006   2.631   3.631  0.6611  0.9239  0.3745
  133OSM   H14F14365   2.018   2.523   3.650 -0.5084  0.5238 -0.9792
  133OSM   H14G14366   1.907   2.645   3.583  0.2479 -1.7307  0.3414
  133OSM   C15F14367   2.005   2.715   3.770 -0.6262  0.2992  0.8381
  133OSM   H15F14368   1.925   2.687   3.842 -0.2595 -2.9641  0.1329
  133OSM   H15G14369   1.970   2.816   3.739  0.6678  0.4832 -0.0887
  133OSM   C16F14370   2.143   2.720   3.833 -0.9534  0.3369 -0.4783
  133OSM   H16F14371   2.207   2.778   3.763 -0.6636  0.6401  0.0319
  133OSM   H16G14372   2.186   2.619   3.852 -2.6833  0.2605  4.3520
  133OSM   C17F14373   2.140   2.777   3.983  0.3499  0.3272 -0.0872
  133OSM   H17F14374   2.079   2.703   4.038 -0.7064  1.3731  0.1707
  133OSM   H17G14375   2.084   2.873   3.989 -1.2525 -0.6546  1.4652
  133OSM   C18F14376   2.282   2.781   4.045 -0.1498 -0.2430 -0.3771
  133OSM   H18F14377   2.343   2.689   4.051  0.5343  0.1950 -0.4564
  133OSM   H18G14378   2.276   2.825   4.147  0.0398  0.1482 -0.5292
  133OSM   H18H14379   2.349   2.850   3.989 -0.3629 -0.1704 -0.5439
  134OSM      N14380   2.686   6.491   2.210  0.0133  0.0628 -0.1549
  134OSM    C1514381   2.711   6.563   2.337 -0.5109 -0.6872  0.0417
  134OSM   H15A14382   2.638   6.638   2.364 -1.7733 -2.0166  0.4133
  134OSM   H15B14383   2.809   6.609   2.330  1.3383 -3.8148  2.3753
  134OSM   H15C14384   2.727   6.492   2.417 -0.5450 -2.9962 -1.8882
  134OSM    C1414385   2.569   6.398   2.209  0.0759  0.1051  0.3286
  134OSM   H14A14386   2.545   6.380   2.105 -0.7119  2.7588 -0.0205
  134OSM   H14B14387   2.490   6.447   2.264  1.4923  2.1355  0.6683
  134OSM   H14C14388   2.591   6.299   2.246 -0.6507 -0.3305 -0.3752
  134OSM    C1314389   2.662   6.591   2.098 -0.6058  0.0003  0.8345
  134OSM   H13A14390   2.745   6.660   2.107  0.9211 -1.3118 -1.7419
  134OSM   H13B14391   2.574   6.653   2.098 -0.3582  0.6572 -3.2140
  134OSM   H13C14392   2.649   6.551   1.998 -1.6881 -3.0868  2.0906
  134OSM    C1214393   2.815   6.416   2.169 -0.0206 -0.2678 -0.4785
  134OSM   H12A14394   2.791   6.362   2.079 -3.7179 -0.6818  0.6097
  134OSM   H12B14395   2.829   6.332   2.235 -1.3814 -1.0158 -1.1114
  134OSM    C1114396   2.941   6.493   2.149  0.1272 -0.2324 -0.2415
  134OSM   H11A14397   2.924   6.574   2.075 -0.1568  1.2446  1.3525
  134OSM   H11B14398   3.017   6.425   2.107  1.4741  1.3456 -0.4636
  134OSM      P14399   3.074   6.475   2.368 -0.1297  0.1342 -0.0658
  134OSM    O1314400   2.990   6.376   2.436 -0.1453  0.4797  0.5668
  134OSM    O1414401   3.202   6.428   2.306  0.2073  0.2960  0.3933
  134OSM    O1114402   3.115   6.585   2.475  0.3081  0.0440  0.1666
  134OSM    O1214403   2.986   6.564   2.265  0.2661 -0.2353  0.0233
  134OSM    C1S14404   3.003   6.648   2.547 -0.4964  0.7115 -0.0089
  134OSM    H1S14405   2.914   6.581   2.558  1.5047 -1.7961  2.3050
  134OSM    H1T14406   2.963   6.739   2.497 -0.1469  0.8658 -0.0116
  134OSM     NF14407   2.950   6.705   2.788  0.3501  0.1518  0.8411
  134OSM    HNF14408   2.943   6.800   2.817  1.1244  0.6130 -0.3515
  134OSM    C2S14409   3.058   6.676   2.697 -0.6368  0.3070 -0.0767
  134OSM    H2S14410   3.102   6.580   2.733 -0.9599  0.9477  2.2034
  134OSM    C3S14411   3.166   6.785   2.686  0.0136  0.0426 -0.5738
  134OSM    H3S14412   3.120   6.885   2.675  1.1216  0.5605 -0.5835
  134OSM     O314413   3.254   6.778   2.573  0.8184 -0.3963  0.1219
  134OSM    HO314414   3.212   6.709   2.522 -0.0264 -0.9534  1.5141
  134OSM    C4S14415   3.252   6.795   2.807  0.3709  0.5896  0.4501
  134OSM    H4S14416   3.319   6.709   2.820 -0.7540 -1.0318 -3.3810
  134OSM    C5S14417   3.251   6.906   2.889 -0.9280  0.5810 -0.6393
  134OSM    H5S14418   3.192   6.997   2.866  0.6129  1.8764  0.3108
  134OSM    C6S14419   3.329   6.913   3.020  0.1853 -0.6307  0.1760
  134OSM    H6S14420   3.313   7.018   3.054  2.2725 -0.4841  0.8494
  134OSM    H6T14421   3.438   6.925   3.000 -0.0785  1.3787 -0.2966
  134OSM    C7S14422   3.295   6.799   3.115 -1.2767 -0.2033 -0.0921
  134OSM    H7S14423   3.344   6.712   3.068 -0.3335  0.1250  0.2703
  134OSM    H7T14424   3.186   6.778   3.112 -1.2907 -0.7475  2.5719
  134OSM    C8S14425   3.348   6.819   3.252  0.2579  0.1512  0.6823
  134OSM    H8S14426   3.432   6.892   3.245  1.8763 -1.7477 -0.5277
  134OSM    H8T14427   3.392   6.723   3.287  0.8282 -0.0064 -0.4096
  134OSM    C9S14428   3.231   6.854   3.345  0.5033  0.0966  0.1703
  134OSM    H9S14429   3.143   6.798   3.305 -0.3592  0.1011  1.9379
  134OSM    H9T14430   3.216   6.964   3.336  2.2146  0.1723 -2.6438
  134OSM   C10S14431   3.256   6.805   3.485 -0.4888  0.3756  0.2929
  134OSM   H10S14432   3.349   6.855   3.519  0.4996 -1.7001  0.7754
  134OSM   H10T14433   3.279   6.697   3.478 -1.6536  0.1473 -0.3406
  134OSM   C11S14434   3.128   6.817   3.570  0.2448 -0.4401  0.5132
  134OSM   H11S14435   3.156   6.779   3.671 -0.4929 -2.7913 -0.1040
  134OSM   H11T14436   3.038   6.760   3.539  0.3787 -0.7777  0.7281
  134OSM   C12S14437   3.091   6.965   3.599  0.4125 -0.4093  0.1006
  134OSM   H12S14438   3.014   6.969   3.678  0.4240  1.4505  0.0606
  134OSM   H12T14439   3.062   7.031   3.514  1.0812 -1.2997 -0.8474
  134OSM   C13S14440   3.211   7.040   3.671  0.4958 -0.2226 -0.3168
  134OSM   H13S14441   3.292   7.047   3.595 -0.6308  2.5186 -1.3905
  134OSM   H13T14442   3.246   6.982   3.759 -2.6722 -0.4771  0.9349
  134OSM   C14S14443   3.204   7.191   3.706  0.2306  0.5994  0.6004
  134OSM   H14S14444   3.123   7.208   3.779 -0.1205  1.1785  0.0791
  134OSM   H14T14445   3.169   7.252   3.620  1.1038  0.6236  0.2488
  134OSM   C15S14446   3.336   7.246   3.757  0.0289  0.3246  0.5348
  134OSM   H15S14447   3.311   7.350   3.787  0.2949  0.6649 -0.3831
  134OSM   H15T14448   3.405   7.257   3.670  1.2881 -1.9227  1.1799
  134OSM   C16S14449   3.385   7.160   3.872  0.1720 -0.2521  0.1500
  134OSM   H16S14450   3.434   7.067   3.836 -1.3948 -0.5654 -1.3303
  134OSM   H16T14451   3.301   7.130   3.938 -0.3562 -0.3678 -0.5611
  134OSM   C17S14452   3.473   7.237   3.970  0.0853 -0.1932 -0.4808
  134OSM   H17S14453   3.424   7.327   4.013 -0.5987 -1.0574  0.6045
  134OSM   H17T14454   3.556   7.280   3.911 -0.6513 -0.0527 -1.4398
  134OSM   C18S14455   3.534   7.155   4.086 -0.7464 -0.7650 -0.6107
  134OSM   H18S14456   3.574   7.057   4.051 -0.1198 -0.6761 -0.1644
  134OSM   H18T14457   3.454   7.134   4.160 -0.3663  2.4670  0.8965
  134OSM   H18U14458   3.622   7.204   4.133  0.1655 -2.3512 -0.5907
  134OSM    C1F14459   2.866   6.610   2.827 -0.2661  0.7018  0.3416
  134OSM     OF14460   2.882   6.494   2.785  0.0020 -0.6408 -0.0858
  134OSM    C2F14461   2.752   6.645   2.914 -0.5325 -0.4903  0.0690
  134OSM    H2F14462   2.653   6.630   2.867 -0.8668 -1.1217  0.9601
  134OSM    H2G14463   2.755   6.755   2.934  1.2017 -0.4003 -0.5300
  134OSM    C3F14464   2.765   6.549   3.034  1.2427  0.1238 -0.2383
  134OSM    H3F14465   2.862   6.571   3.083 -0.1375  1.3305  2.1473
  134OSM    H3G14466   2.763   6.444   2.998  0.0770  0.4998 -1.3686
  134OSM    C4F14467   2.650   6.566   3.130 -0.0211 -0.3314 -0.0361
  134OSM    H4F14468   2.558   6.523   3.084  0.4224 -0.2708 -0.9953
  134OSM    H4G14469   2.635   6.675   3.145  1.9138 -0.3019  2.4908
  134OSM    C5F14470   2.677   6.512   3.274 -0.5521 -0.1496  0.1850
  134OSM    H5F14471   2.768   6.449   3.286  0.6130  1.3011 -0.5603
  134OSM    H5G14472   2.587   6.454   3.303 -1.6613  0.3858 -2.0215
  134OSM    C6F14473   2.691   6.632   3.360 -0.5083  0.3734 -0.0876
  134OSM    H6F14474   2.600   6.692   3.340 -1.2265  0.1168  2.1230
  134OSM    H6G14475   2.769   6.703   3.324 -0.2684  1.7311  2.7861
  134OSM    C7F14476   2.695   6.616   3.510  0.4773 -0.1524  0.2977
  134OSM    H7F14477   2.777   6.546   3.535 -0.4864 -1.7704 -0.8515
  134OSM    H7G14478   2.604   6.561   3.543 -1.0003  2.6895  1.3809
  134OSM    C8F14479   2.710   6.747   3.594  0.4720 -0.3778 -0.2567
  134OSM    H8F14480   2.616   6.804   3.608  0.4895 -0.4586  0.2103
  134OSM    H8G14481   2.774   6.819   3.537  0.1237  1.6627  1.7584
  134OSM    C9F14482   2.772   6.733   3.726 -0.0570  0.2942 -0.7092
  134OSM    H9F14483   2.881   6.713   3.727  0.0432  0.4163 -3.1270
  134OSM   C10F14484   2.712   6.737   3.851 -0.3288  0.8303 -0.0473
  134OSM   H10F14485   2.784   6.747   3.934  2.7789  0.0800 -2.4516
  134OSM   C11F14486   2.569   6.743   3.889 -0.4706 -0.5838  0.2556
  134OSM   H11F14487   2.512   6.733   3.794  1.8775  0.9338 -1.4210
  134OSM   H11G14488   2.551   6.848   3.921  1.5010  0.2540 -1.2015
  134OSM   C12F14489   2.541   6.641   3.990  0.0214  0.5408 -0.6189
  134OSM   H12F14490   2.581   6.677   4.087  0.8846 -0.1648 -0.6975
  134OSM   H12G14491   2.589   6.543   3.970 -0.3151  0.6147 -1.8873
  134OSM   C13F14492   2.389   6.621   4.018  0.3651  0.0317 -0.0036
  134OSM   H13F14493   2.346   6.584   3.923  0.6497 -1.0653  0.2806
  134OSM   H13G14494   2.348   6.724   4.027 -0.5771 -0.2918 -0.4930
  134OSM   C14F14495   2.354   6.524   4.133  0.5503 -0.3203  0.0590
  134OSM   H14F14496   2.401   6.562   4.226 -0.3448 -1.5376  1.0546
  134OSM   H14G14497   2.406   6.434   4.095  0.3505 -0.3289 -0.2011
  134OSM   C15F14498   2.202   6.509   4.160  0.3196  0.4549  0.0750
  134OSM   H15F14499   2.150   6.605   4.178 -0.6905 -0.0977  0.2289
  134OSM   H15G14500   2.192   6.461   4.260  1.5250  2.1581  1.0541
  134OSM   C16F14501   2.113   6.450   4.047 -0.0743 -0.5111 -0.2936
  134OSM   H16F14502   2.147   6.346   4.029  0.7705 -0.0203 -1.6630
  134OSM   H16G14503   2.128   6.512   3.956 -3.4760  1.4464  0.3047
  134OSM   C17F14504   1.955   6.436   4.064 -0.5176 -0.3530  0.1217
  134OSM   H17F14505   1.911   6.402   3.968 -0.8944  0.2038  0.0941
  134OSM   H17G14506   1.906   6.535   4.077  2.4865  1.5178 -1.4567
  134OSM   C18F14507   1.912   6.338   4.170 -0.0274  0.5739  0.7399
  134OSM   H18F14508   1.997   6.278   4.208  1.3555  2.2543  0.4038
  134OSM   H18G14509   1.834   6.277   4.120 -0.3148  1.2980  0.2865
  134OSM   H18H14510   1.866   6.394   4.253 -0.8761  1.2358 -0.1546
  135OSM      N14511   4.888   3.673   2.666  0.4618 -0.9393 -0.3124
  135OSM    C1514512   4.856   3.564   2.574 -0.5411  0.9907 -0.8713
  135OSM   H15A14513   4.828   3.596   2.475 -0.5191  0.0096 -1.2124
  135OSM   H15B14514   4.779   3.496   2.608 -0.6854  0.6461 -1.8515
  135OSM   H15C14515   4.945   3.502   2.562 -0.0688  1.2358  1.0213
  135OSM    C1414516   4.958   3.623   2.792  0.4123  0.8804 -0.4191
  135OSM   H14A14517   4.983   3.704   2.860  0.2716  1.6189 -1.2234
  135OSM   H14B14518   5.048   3.565   2.778 -0.0893 -0.3526  1.2593
  135OSM   H14C14519   4.884   3.562   2.841  0.3760  0.9173 -0.4279
  135OSM    C1314520   4.973   3.767   2.592  0.3487  0.6091  0.0954
  135OSM   H13A14521   4.921   3.798   2.503 -1.9967  0.0482  1.1849
  135OSM   H13B14522   5.058   3.720   2.545 -1.2021 -1.8539 -0.4383
  135OSM   H13C14523   5.002   3.847   2.658 -1.3840  2.0385 -0.7961
  135OSM    C1214524   4.751   3.737   2.705  0.0204  0.3108 -0.0271
  135OSM   H12A14525   4.681   3.654   2.705  2.6390 -2.0586 -0.4248
  135OSM   H12B14526   4.708   3.795   2.625 -0.2676  1.1667  0.7360
  135OSM    C1114527   4.750   3.824   2.835  0.4650 -0.1872  0.0129
  135OSM   H11A14528   4.787   3.758   2.915  0.2295 -1.2632 -0.7350
  135OSM   H11B14529   4.650   3.854   2.873  0.9224  2.1674 -0.4990
  135OSM      P14530   4.782   4.076   2.763 -0.0646  0.2668 -0.4477
  135OSM    O1314531   4.844   4.093   2.635  0.2357  0.0594  0.1159
  135OSM    O1414532   4.637   4.074   2.757  0.0515 -0.7067  0.3442
  135OSM    O1114533   4.837   4.184   2.867  0.2744 -0.4356 -0.0008
  135OSM    O1214534   4.832   3.941   2.825  0.1706 -0.0755 -0.5322
  135OSM    C1S14535   4.806   4.174   3.003  0.0304  0.6605 -0.5658
  135OSM    H1S14536   4.885   4.110   3.048  2.3830  3.0267 -1.0474
  135OSM    H1T14537   4.706   4.130   3.026  0.0505  1.6200  1.5842
  135OSM     NF14538   4.818   4.280   3.216  0.0546  0.6723 -1.0523
  135OSM    HNF14539   4.735   4.319   3.254 -0.9773 -1.1574 -1.3480
  135OSM    C2S14540   4.823   4.304   3.074 -0.3872  0.2072 -1.0705
  135OSM    H2S14541   4.928   4.332   3.047  0.6156  0.7177  2.7380
  135OSM    C3S14542   4.728   4.419   3.025 -0.2253  1.1020  0.3896
  135OSM    H3S14543   4.628   4.384   3.057  0.2068 -0.1229  0.4675
  135OSM     O314544   4.725   4.428   2.882  0.2758  0.8020 -0.7254
  135OSM    HO314545   4.796   4.371   2.849  1.6219  1.5827  0.6622
  135OSM    C4S14546   4.767   4.546   3.089 -0.2328 -1.4529  0.8352
  135OSM    H4S14547   4.856   4.596   3.048 -0.4002 -1.0323  0.9876
  135OSM    C5S14548   4.691   4.626   3.161 -0.4272  0.1752 -0.3508
  135OSM    H5S14549   4.595   4.579   3.188 -1.2940  1.2160 -1.5349
  135OSM    C6S14550   4.735   4.759   3.209  0.0412 -0.4921 -0.2616
  135OSM    H6S14551   4.654   4.796   3.275  1.9568  0.9235  1.4374
  135OSM    H6T14552   4.737   4.828   3.121  2.6548 -2.4080 -1.8608
  135OSM    C7S14553   4.870   4.772   3.284  1.0369  0.1522  0.4697
  135OSM    H7S14554   4.879   4.882   3.300  0.8028 -0.0724  2.5117
  135OSM    H7T14555   4.951   4.727   3.224  0.0199 -0.3587 -0.5480
  135OSM    C8S14556   4.879   4.695   3.417  0.3345 -0.5825  0.1048
  135OSM    H8S14557   4.980   4.714   3.459 -0.0486 -0.4644  1.0108
  135OSM    H8T14558   4.873   4.586   3.399 -1.9443 -0.4254 -0.4193
  135OSM    C9S14559   4.772   4.720   3.516 -0.5780  0.3804 -0.4491
  135OSM    H9S14560   4.667   4.696   3.486 -0.4284  0.7195 -1.2689
  135OSM    H9T14561   4.755   4.829   3.534 -1.1343  0.4836 -1.5178
  135OSM   C10S14562   4.811   4.666   3.646  0.0913  0.5672 -0.0394
  135OSM   H10S14563   4.910   4.704   3.678  1.0677 -1.7158 -0.1332
  135OSM   H10T14564   4.836   4.558   3.631  2.9698  0.9413  1.3313
  135OSM   C11S14565   4.693   4.681   3.743 -0.6511 -1.2791 -0.8464
  135OSM   H11S14566   4.609   4.615   3.710  0.7424 -2.4231 -2.2399
  135OSM   H11T14567   4.663   4.788   3.740  0.9652 -0.7377  0.7762
  135OSM   C12S14568   4.745   4.642   3.886 -0.0195 -0.2117 -0.0795
  135OSM   H12S14569   4.800   4.546   3.888  1.4135  0.5764  2.7428
  135OSM   H12T14570   4.651   4.633   3.945  0.6005 -0.0028  0.9694
  135OSM   C13S14571   4.833   4.731   3.972  0.0940  0.3543  0.1801
  135OSM   H13S14572   4.799   4.834   3.948  0.8429 -0.1139 -3.6335
  135OSM   H13T14573   4.943   4.730   3.955  0.2909  4.8765 -0.0135
  135OSM   C14S14574   4.819   4.679   4.122 -0.4988 -0.4408  0.3191
  135OSM   H14S14575   4.870   4.580   4.123 -0.4070 -0.4321 -1.1060
  135OSM   H14T14576   4.715   4.666   4.157 -0.6041 -0.3871  0.0295
  135OSM   C15S14577   4.903   4.770   4.207 -0.6445 -0.1943  0.7934
  135OSM   H15S14578   4.879   4.875   4.178 -0.9627 -0.5488 -0.2952
  135OSM   H15T14579   5.007   4.746   4.178 -1.0045 -2.7135  1.3758
  135OSM   C16S14580   4.903   4.738   4.359 -0.0313  0.0430 -0.1001
  135OSM   H16S14581   4.800   4.754   4.398  0.6251  1.2464  1.2533
  135OSM   H16T14582   4.966   4.818   4.404 -0.5683  1.3118 -1.5015
  135OSM   C17S14583   4.958   4.605   4.417  0.0544  0.2258 -0.5851
  135OSM   H17S14584   5.044   4.574   4.354  0.8398  1.1665 -0.0127
  135OSM   H17T14585   4.894   4.514   4.413 -0.4443  0.4973  0.6841
  135OSM   C18S14586   5.015   4.629   4.559 -0.6269  0.1853 -0.3456
  135OSM   H18S14587   5.098   4.701   4.548  0.0035 -0.4978 -0.1466
  135OSM   H18T14588   5.062   4.539   4.605  0.0557  1.0318  0.6456
  135OSM   H18U14589   4.946   4.678   4.631  0.4862  0.6935  0.3855
  135OSM    C1F14590   4.910   4.221   3.293  0.3405 -0.2046 -0.9449
  135OSM     OF14591   5.011   4.184   3.245 -0.7540 -0.4341  0.3177
  135OSM    C2F14592   4.888   4.234   3.439 -0.2208  0.6960 -0.0504
  135OSM    H2F14593   4.788   4.200   3.473 -1.2706  3.2103 -0.3912
  135OSM    H2G14594   4.890   4.342   3.468 -2.7965  1.2017 -1.3874
  135OSM    C3F14595   4.998   4.147   3.509  0.7876  0.2672 -0.6534
  135OSM    H3F14596   5.099   4.176   3.472  0.7796  1.4753  0.2121
  135OSM    H3G14597   4.985   4.044   3.471  1.4644  0.1035 -0.4656
  135OSM    C4F14598   4.995   4.142   3.668 -0.3398  0.2505 -0.2814
  135OSM    H4F14599   5.001   4.250   3.690  1.5854  0.5244 -1.8090
  135OSM    H4G14600   5.091   4.096   3.701  1.1663  2.5815 -1.1070
  135OSM    C5F14601   4.862   4.086   3.717 -0.2050 -0.3636  0.3495
  135OSM    H5F14602   4.851   3.990   3.663 -1.2195 -0.4400  0.6735
  135OSM    H5G14603   4.785   4.159   3.684 -0.8323 -0.6096  1.2307
  135OSM    C6F14604   4.858   4.049   3.862 -0.0803 -0.5377 -0.6764
  135OSM    H6F14605   4.946   3.984   3.882  2.5693  2.5917 -1.4703
  135OSM    H6G14606   4.770   3.986   3.888 -1.6723  1.3212 -1.3433
  135OSM    C7F14607   4.855   4.176   3.952  0.0828 -0.2438 -0.0862
  135OSM    H7F14608   4.770   4.237   3.914 -1.2814 -0.3079  2.6054
  135OSM    H7G14609   4.941   4.245   3.939  1.4100 -1.6042  1.0284
  135OSM    C8F14610   4.839   4.150   4.103  0.1816  0.8447  0.6907
  135OSM    H8F14611   4.742   4.096   4.115  0.3632  0.6395  1.2978
  135OSM    H8G14612   4.819   4.247   4.153 -1.8829  0.4199  0.8147
  135OSM    C9F14613   4.942   4.064   4.167 -0.0773  0.2441  0.1942
  135OSM    H9F14614   4.999   4.001   4.098 -0.4901  0.6374 -0.5124
  135OSM   C10F14615   4.997   4.076   4.292 -0.3563 -0.3782 -0.6954
  135OSM   H10F14616   5.073   4.001   4.317 -0.3375  0.2369  1.2772
  135OSM   C11F14617   4.955   4.172   4.396  0.4693  0.2707  0.0059
  135OSM   H11F14618   4.886   4.119   4.465  0.8541 -0.5434 -0.2302
  135OSM   H11G14619   4.903   4.252   4.338  0.1917  2.0685  2.5455
  135OSM   C12F14620   5.075   4.232   4.466 -0.4604 -0.3146 -0.5951
  135OSM   H12F14621   5.055   4.337   4.495  1.4710 -0.4544  1.4792
  135OSM   H12G14622   5.166   4.231   4.402  0.7274  1.8234  0.9378
  135OSM   C13F14623   5.111   4.165   4.593  0.7165  0.5115 -0.1546
  135OSM   H13F14624   5.131   4.059   4.567 -0.0214  0.0398  1.1032
  135OSM   H13G14625   5.021   4.176   4.658  1.6049 -1.9774  1.6685
  135OSM   C14F14626   5.227   4.239   4.662 -0.3275 -0.5152  0.1491
  135OSM   H14F14627   5.202   4.341   4.697  2.0448 -0.7678  3.0341
  135OSM   H14G14628   5.314   4.242   4.593  0.3945 -1.5951  0.9724
  135OSM   C15F14629   5.269   4.171   4.792  0.4318  0.1510 -0.7087
  135OSM   H15F14630   5.289   4.062   4.782 -0.3811 -0.2948  1.8589
  135OSM   H15G14631   5.177   4.175   4.854  0.9900  2.2887  0.0689
  135OSM   C16F14632   5.391   4.238   4.863 -0.5140 -0.0194  0.6696
  135OSM   H16F14633   5.364   4.346   4.869 -0.6805 -0.1455  3.0732
  135OSM   H16G14634   5.479   4.236   4.795 -0.0660  1.9240  1.1302
  135OSM   C17F14635   5.438   4.191   5.001  0.2143  0.0316 -0.3244
  135OSM   H17F14636   5.543   4.216   5.027  0.6968 -1.6643 -0.5100
  135OSM   H17G14637   5.442   4.080   4.995 -0.3692 -0.1592  1.8706
  135OSM   C18F14638   5.343   4.233   5.124 -0.0975  0.7093 -0.0964
  135OSM   H18F14639   5.372   4.182   5.218 -0.9154 -0.1691 -0.3074
  135OSM   H18G14640   5.235   4.212   5.112 -0.1379  1.1465 -0.5430
  135OSM   H18H14641   5.335   4.343   5.142 -0.3680  0.5123  1.0703
  136OSM      N14642   0.932   0.345   2.246  0.5079 -0.3545  1.0006
  136OSM    C1514643   1.026   0.375   2.358  1.0663 -0.0181 -0.0166
  136OSM   H15A14644   1.010   0.304   2.437  2.2805 -0.4588 -0.1408
  136OSM   H15B14645   1.004   0.471   2.401  3.4086  0.3400  0.4806
  136OSM   H15C14646   1.132   0.363   2.343  1.6609  2.3213  1.7677
  136OSM    C1414647   0.958   0.450   2.145  0.4722 -0.0656 -0.2445
  136OSM   H14A14648   1.063   0.455   2.121  0.6550  0.3942  0.6105
  136OSM   H14B14649   0.938   0.550   2.181 -0.7305 -1.0512  2.0177
  136OSM   H14C14650   0.897   0.430   2.057 -0.5736 -2.8595  0.9992
  136OSM    C1314651   0.978   0.221   2.177 -0.5236 -0.0889  0.1132
  136OSM   H13A14652   0.954   0.133   2.236  1.5111 -1.6843 -1.2774
  136OSM   H13B14653   1.086   0.223   2.173 -0.4902 -1.4748 -0.4643
  136OSM   H13C14654   0.942   0.223   2.075  1.0393  1.3785 -0.4503
  136OSM    C1214655   0.793   0.353   2.281  0.0759  0.8953  0.3128
  136OSM   H12A14656   0.737   0.351   2.189  2.0492  2.0971 -0.9962
  136OSM   H12B14657   0.769   0.450   2.322 -1.4917  0.1587  1.2255
  136OSM    C1114658   0.731   0.252   2.382 -0.2450  0.2754  0.1264
  136OSM   H11A14659   0.623   0.269   2.401 -0.3647 -0.9555  0.6012
  136OSM   H11B14660   0.780   0.267   2.480 -0.1743 -1.2606  0.3470
  136OSM      P14661   0.640   0.036   2.268  0.0899  0.1491 -0.5414
  136OSM    O1314662   0.606   0.113   2.148  0.2590  0.0400  0.0502
  136OSM    O1414663   0.700  -0.099   2.241 -0.2278  0.0513 -0.0320
  136OSM    O1114664   0.517   0.016   2.363 -0.3481 -0.0309 -0.8392
  136OSM    O1214665   0.751   0.114   2.352 -0.4709  0.0644  0.4285
  136OSM    C1S14666   0.535  -0.029   2.495 -0.4482 -0.0215 -0.0788
  136OSM    H1S14667   0.622   0.020   2.544 -0.7085  1.5266 -1.1012
  136OSM    H1T14668   0.561  -0.137   2.495 -0.7981 -0.1678  2.1882
  136OSM     NF14669   0.452  -0.031   2.736  0.3228  0.4556 -0.2702
  136OSM    HNF14670   0.408  -0.111   2.776  0.0066  2.2089  3.1989
  136OSM    C2S14671   0.414   0.003   2.594 -0.1550 -1.0851 -0.4785
  136OSM    H2S14672   0.401   0.113   2.589  0.5036 -1.0044 -0.4213
  136OSM    C3S14673   0.287  -0.055   2.546  0.0158 -0.6502 -1.1377
  136OSM    H3S14674   0.296  -0.163   2.569 -1.9642 -0.0116  4.0286
  136OSM     O314675   0.256  -0.039   2.405 -0.3002 -0.1742 -0.0319
  136OSM    HO314676   0.343  -0.029   2.366 -0.0621  0.1183  0.5645
  136OSM    C4S14677   0.177  -0.008   2.631 -0.4239  0.3519  0.8692
  136OSM    H4S14678   0.183  -0.073   2.719  1.6234  0.2309  0.6816
  136OSM    C5S14679   0.102   0.102   2.622 -0.2361 -0.4433 -0.1595
  136OSM    H5S14680   0.110   0.190   2.557 -0.0037  0.9624  1.6849
  136OSM    C6S14681   0.002   0.132   2.730  1.1491  0.2519 -0.2313
  136OSM    H6S14682  -0.097   0.093   2.698 -0.0797  2.2349  0.9422
  136OSM    H6T14683  -0.026   0.239   2.723 -1.5432 -0.3727  0.0456
  136OSM    C7S14684   0.044   0.096   2.876 -0.3592 -0.5849 -0.4899
  136OSM    H7S14685   0.070  -0.012   2.875  2.5378  0.0240 -2.5520
  136OSM    H7T14686  -0.041   0.107   2.947 -0.0905 -0.2223 -0.2185
  136OSM    C8S14687   0.163   0.183   2.928 -0.6185 -0.5488  0.1980
  136OSM    H8S14688   0.136   0.290   2.944  2.6078  0.1862  1.3896
  136OSM    H8T14689   0.243   0.161   2.854 -0.8873 -3.8524  0.7453
  136OSM    C9S14690   0.214   0.148   3.066  0.3527 -0.3238  0.2475
  136OSM    H9S14691   0.317   0.187   3.081  1.6665 -3.1429 -0.7201
  136OSM    H9T14692   0.229   0.038   3.063 -0.1481 -0.3802 -0.3611
  136OSM   C10S14693   0.127   0.194   3.181  0.6066  0.3518 -0.4858
  136OSM   H10S14694   0.027   0.145   3.178  0.8737 -0.2151 -0.1706
  136OSM   H10T14695   0.113   0.304   3.167 -0.5982  0.7815  2.9747
  136OSM   C11S14696   0.194   0.176   3.323  0.4831 -0.5187  1.1853
  136OSM   H11S14697   0.125   0.213   3.402 -0.9618  2.9366 -1.4447
  136OSM   H11T14698   0.289   0.234   3.323  0.5763 -0.6083 -0.6995
  136OSM   C12S14699   0.236   0.036   3.372 -0.9648  0.1834  0.3385
  136OSM   H12S14700   0.301  -0.009   3.294 -1.8189  0.6871 -0.6884
  136OSM   H12T14701   0.155  -0.036   3.393 -0.5918  0.2040  2.0364
  136OSM   C13S14702   0.334   0.041   3.498 -0.1436  0.2842  0.0462
  136OSM   H13S14703   0.432   0.076   3.460  0.1521  0.5000  0.9801
  136OSM   H13T14704   0.354  -0.063   3.529  0.5823  0.3430 -0.2178
  136OSM   C14S14705   0.277   0.139   3.611  0.3138  1.0715 -0.2687
  136OSM   H14S14706   0.171   0.107   3.621  0.5893  0.1411 -0.1839
  136OSM   H14T14707   0.291   0.245   3.583  2.8802  0.5694 -1.1190
  136OSM   C15S14708   0.347   0.121   3.743  0.3702 -0.5351 -0.2477
  136OSM   H15S14709   0.447   0.171   3.740  0.4453 -0.6152  0.7448
  136OSM   H15T14710   0.376   0.014   3.755  3.1327  0.3213  1.7289
  136OSM   C16S14711   0.264   0.179   3.854 -1.0212  0.0743 -0.0874
  136OSM   H16S14712   0.239   0.281   3.819 -0.8774  0.2354  0.2772
  136OSM   H16T14713   0.317   0.189   3.950  1.3038  1.1400 -1.4060
  136OSM   C17S14714   0.127   0.114   3.885 -0.4379  0.4992 -0.2046
  136OSM   H17S14715   0.137   0.003   3.879  0.1196  0.5677 -0.7089
  136OSM   H17T14716   0.061   0.149   3.803 -0.4547  0.9735  0.0081
  136OSM   C18S14717   0.081   0.169   4.021 -0.4084  0.3918 -0.3469
  136OSM   H18S14718   0.063   0.279   4.015  0.7658  0.7430  1.8082
  136OSM   H18T14719   0.163   0.150   4.093 -0.3667 -0.6356 -0.6465
  136OSM   H18U14720  -0.004   0.105   4.054  1.8661 -1.6559  1.9682
  136OSM    C1F14721   0.542   0.034   2.814 -0.0296  0.4651  0.0358
  136OSM     OF14722   0.604   0.137   2.772 -0.0953  0.0933  0.1117
  136OSM    C2F14723   0.556  -0.019   2.950  0.2885  0.5532  0.6608
  136OSM    H2F14724   0.560  -0.130   2.943  1.8163  0.5502  1.0551
  136OSM    H2G14725   0.459   0.005   2.998 -0.7513 -0.7498 -0.7149
  136OSM    C3F14726   0.669   0.053   3.030  0.6301 -0.6088  0.0559
  136OSM    H3F14727   0.664   0.164   3.030 -1.7190 -0.6769  0.0566
  136OSM    H3G14728   0.763   0.032   2.975 -0.5456 -2.1003 -1.4949
  136OSM    C4F14729   0.675   0.009   3.180 -0.2470  0.1053  0.3756
  136OSM    H4F14730   0.583   0.033   3.237 -3.3214 -1.7724 -3.2711
  136OSM    H4G14731   0.750   0.073   3.230 -1.2411 -0.6738  2.9946
  136OSM    C5F14732   0.713  -0.144   3.189  1.1388  0.0581 -0.2520
  136OSM    H5F14733   0.796  -0.159   3.117  0.0367 -2.3861 -1.1296
  136OSM    H5G14734   0.626  -0.207   3.161 -1.1889  2.1665  1.7107
  136OSM    C6F14735   0.763  -0.193   3.323 -0.1992 -0.1324 -0.2684
  136OSM    H6F14736   0.856  -0.136   3.345 -0.6421 -0.1768  1.9879
  136OSM    H6G14737   0.779  -0.302   3.328 -3.1781 -0.6266  0.8615
  136OSM    C7F14738   0.661  -0.167   3.433 -0.6087 -0.5250 -0.0713
  136OSM    H7F14739   0.579  -0.240   3.414 -1.2072  0.4683 -1.4992
  136OSM    H7G14740   0.623  -0.063   3.434 -0.7408 -0.5760  1.0403
  136OSM    C8F14741   0.703  -0.190   3.581  0.2509  0.2356 -0.0097
  136OSM    H8F14742   0.771  -0.109   3.614  2.2991 -2.0096  1.5723
  136OSM    H8G14743   0.758  -0.286   3.585 -1.8297 -0.9787  1.1133
  136OSM    C9F14744   0.586  -0.197   3.678 -0.7344 -0.2379  0.3795
  136OSM    H9F14745   0.490  -0.229   3.633  0.0051 -1.1137 -0.6294
  136OSM   C10F14746   0.593  -0.162   3.808 -0.9395  0.0729  0.0932
  136OSM   H10F14747   0.512  -0.166   3.883  0.2921  0.6467  1.4985
  136OSM   C11F14748   0.715  -0.102   3.867 -0.5485  0.4729 -0.3192
  136OSM   H11F14749   0.708   0.008   3.849  0.7506  1.1481  2.6991
  136OSM   H11G14750   0.812  -0.141   3.830 -0.5565 -0.0174  0.1574
  136OSM   C12F14751   0.729  -0.115   4.020  0.3656 -0.5474  0.4165
  136OSM   H12F14752   0.734  -0.222   4.047  0.8437 -1.1230 -1.7499
  136OSM   H12G14753   0.636  -0.076   4.067 -0.5319  0.2594 -1.8874
  136OSM   C13F14754   0.853  -0.054   4.082  0.0306 -0.9532 -0.7444
  136OSM   H13F14755   0.869   0.050   4.044  1.0490 -1.6630 -2.3768
  136OSM   H13G14756   0.934  -0.122   4.048  0.5232 -0.4443 -0.6080
  136OSM   C14F14757   0.874  -0.032   4.231 -0.2914 -0.3482  0.4572
  136OSM   H14F14758   0.807   0.051   4.261 -1.1725 -1.7516  2.5964
  136OSM   H14G14759   0.981  -0.008   4.246 -0.0113  0.1060 -1.8724
  136OSM   C15F14760   0.817  -0.138   4.320 -0.2469 -0.0302  0.8862
  136OSM   H15F14761   0.893  -0.219   4.325  1.2299  1.2834  0.3148
  136OSM   H15G14762   0.719  -0.172   4.279 -0.3557  2.3804 -1.0123
  136OSM   C16F14763   0.785  -0.090   4.464  0.7287  0.3386  0.0143
  136OSM   H16F14764   0.720  -0.162   4.519  2.6288 -3.0535 -1.8320
  136OSM   H16G14765   0.731   0.007   4.462 -0.3738 -0.2389 -2.9216
  136OSM   C17F14766   0.915  -0.081   4.553 -0.0357  0.6735 -0.3409
  136OSM   H17F14767   1.001  -0.035   4.498  0.5804 -2.2345 -2.0247
  136OSM   H17G14768   0.957  -0.182   4.571 -1.1696  0.1472 -0.5473
  136OSM   C18F14769   0.896  -0.008   4.688 -0.9057 -0.0352  0.7894
  136OSM   H18F14770   0.835   0.081   4.660 -0.9838 -0.0753  0.8297
  136OSM   H18G14771   0.991   0.020   4.737  0.4871 -0.6066 -1.4401
  136OSM   H18H14772   0.828  -0.057   4.762 -0.4923 -0.8713  0.6303
  137OSM      N14773   4.614   6.236   2.425 -0.6064 -0.1304  0.0298
  137OSM    C1514774   4.756   6.184   2.446  0.2914  0.4151 -0.1977
  137OSM   H15A14775   4.760   6.077   2.438 -0.0893  0.2431  1.5114
  137OSM   H15B14776   4.784   6.194   2.550  3.0508 -2.5988 -0.5066
  137OSM   H15C14777   4.826   6.232   2.379  2.7268 -1.8640  0.5399
  137OSM    C1414778   4.589   6.235   2.276  0.1685 -0.2829  0.0237
  137OSM   H14A14779   4.499   6.293   2.257  1.4035  1.8818  0.4523
  137OSM   H14B14780   4.572   6.139   2.230  1.3976 -0.9428  0.9032
  137OSM   H14C14781   4.670   6.281   2.221  0.3964 -1.1974 -0.4258
  137OSM    C1314782   4.518   6.144   2.487 -0.4574  0.1398  0.5676
  137OSM   H13A14783   4.539   6.044   2.452  1.1858  0.4466  0.5822
  137OSM   H13B14784   4.415   6.152   2.457 -0.9445 -1.7561  1.5652
  137OSM   H13C14785   4.530   6.139   2.594  0.2197  1.5489  0.5781
  137OSM    C1214786   4.596   6.373   2.483  1.0877  0.1477  0.0312
  137OSM   H12A14787   4.491   6.398   2.474  0.7250 -1.6076 -1.0751
  137OSM   H12B14788   4.646   6.445   2.419 -1.6033  1.3060 -0.9397
  137OSM    C1114789   4.643   6.396   2.620 -0.0815  0.6180  0.1307
  137OSM   H11A14790   4.752   6.380   2.610 -0.6078 -2.8291 -1.4884
  137OSM   H11B14791   4.608   6.318   2.692  0.0758 -0.2607 -0.7169
  137OSM      P14792   4.467   6.556   2.714 -0.0022 -0.3226  0.3973
  137OSM    O1314793   4.469   6.702   2.729 -0.0398  0.1966  0.5112
  137OSM    O1414794   4.375   6.493   2.620 -0.0412 -0.2932 -0.4087
  137OSM    O1114795   4.448   6.482   2.851 -0.2045  0.5742  0.1354
  137OSM    O1214796   4.608   6.527   2.657  0.0466  0.5784 -0.5856
  137OSM    C1S14797   4.394   6.550   2.964 -0.0342  0.0863 -0.8699
  137OSM    H1S14798   4.297   6.592   2.932  0.0590 -0.6818 -2.2420
  137OSM    H1T14799   4.472   6.620   3.000  1.1355  0.0011 -3.0091
  137OSM     NF14800   4.262   6.495   3.173  0.3560  0.1317 -0.1074
  137OSM    HNF14801   4.290   6.502   3.269 -3.6177  1.4974  1.1293
  137OSM    C2S14802   4.357   6.442   3.075 -0.2952  0.1049 -0.1687
  137OSM    H2S14803   4.303   6.362   3.019  1.0496 -2.1578  1.5951
  137OSM    C3S14804   4.482   6.368   3.136  0.2016  0.2176  0.6777
  137OSM    H3S14805   4.548   6.447   3.178  2.8367 -1.4067 -0.1517
  137OSM     O314806   4.570   6.326   3.034  0.0376  0.4444 -0.0406
  137OSM    HO314807   4.536   6.364   2.952  1.3802 -1.9331 -1.8382
  137OSM    C4S14808   4.439   6.257   3.225 -0.1401  0.0562 -0.2369
  137OSM    H4S14809   4.424   6.166   3.164 -1.4112  0.5419 -0.6870
  137OSM    C5S14810   4.422   6.255   3.355 -0.3238  0.0478  0.3207
  137OSM    H5S14811   4.456   6.344   3.410  0.8104 -0.1000 -0.1060
  137OSM    C6S14812   4.370   6.141   3.441  0.1302  0.3540 -0.4967
  137OSM    H6S14813   4.357   6.043   3.390  1.4434 -0.2562  0.2989
  137OSM    H6T14814   4.275   6.170   3.490  1.3482  0.5924  1.8642
  137OSM    C7S14815   4.468   6.094   3.559 -0.0462  0.3837 -0.0852
  137OSM    H7S14816   4.547   6.041   3.501 -2.9595 -4.1833 -0.3439
  137OSM    H7T14817   4.422   6.019   3.626  1.8708 -3.0384 -2.3039
  137OSM    C8S14818   4.513   6.212   3.653  0.1699 -0.0200  0.1450
  137OSM    H8S14819   4.558   6.298   3.600  1.4505  0.0445  1.2701
  137OSM    H8T14820   4.604   6.181   3.710  0.6053 -1.1808 -1.1121
  137OSM    C9S14821   4.407   6.278   3.743 -0.8712  1.1025 -0.4551
  137OSM    H9S14822   4.334   6.197   3.766 -0.3193  0.0698 -2.1124
  137OSM    H9T14823   4.350   6.358   3.692 -0.6629  1.4971 -0.0755
  137OSM   C10S14824   4.465   6.340   3.876  0.4527 -0.0810 -0.1370
  137OSM   H10S14825   4.388   6.402   3.928  0.1340 -0.5220 -0.0765
  137OSM   H10T14826   4.550   6.399   3.838 -0.2370 -0.0325 -1.6913
  137OSM   C11S14827   4.520   6.231   3.973 -0.5585  0.1120 -0.2552
  137OSM   H11S14828   4.580   6.150   3.926  0.4387 -0.3155  1.6890
  137OSM   H11T14829   4.424   6.191   4.012 -0.6902  1.5864  1.0174
  137OSM   C12S14830   4.607   6.268   4.090 -0.1135 -0.7305 -0.0626
  137OSM   H12S14831   4.554   6.360   4.123  1.4973  1.3240 -2.7159
  137OSM   H12T14832   4.706   6.301   4.052 -1.1075 -0.0843 -2.2668
  137OSM   C13S14833   4.608   6.173   4.207 -0.8372  0.0138 -0.6848
  137OSM   H13S14834   4.514   6.113   4.206 -1.8838  1.5515 -2.1706
  137OSM   H13T14835   4.606   6.223   4.306 -0.7622 -2.6274  0.7386
  137OSM   C14S14836   4.722   6.073   4.198 -0.4267 -0.0117  1.0204
  137OSM   H14S14837   4.718   6.034   4.095 -0.7650  0.6831  0.7644
  137OSM   H14T14838   4.702   5.984   4.261  1.8528  0.2631  2.2544
  137OSM   C15S14839   4.857   6.133   4.235 -0.6322 -0.0066 -0.0157
  137OSM   H15S14840   4.879   6.224   4.175  0.2477  1.2193  2.0717
  137OSM   H15T14841   4.937   6.057   4.216 -0.2796  0.1001  0.9999
  137OSM   C16S14842   4.871   6.171   4.385 -0.1495  0.3639  0.5213
  137OSM   H16S14843   4.789   6.241   4.411 -0.2293 -0.3464  2.3423
  137OSM   H16T14844   4.965   6.225   4.409  0.9032 -0.8387 -0.7749
  137OSM   C17S14845   4.856   6.061   4.498 -0.2836 -0.8328 -0.2555
  137OSM   H17S14846   4.922   5.973   4.484 -0.8394 -1.2481 -0.3056
  137OSM   H17T14847   4.756   6.018   4.478  0.1878 -0.9991 -2.5235
  137OSM   C18S14848   4.883   6.120   4.639  0.0492 -0.1665  0.2712
  137OSM   H18S14849   4.796   6.174   4.682 -0.2923 -0.2808 -0.2631
  137OSM   H18T14850   4.966   6.194   4.639  0.6419 -0.7294  2.8613
  137OSM   H18U14851   4.906   6.045   4.718 -0.2109  0.7726  1.2669
  137OSM    C1F14852   4.137   6.518   3.146 -0.2160  0.6957 -0.2002
  137OSM     OF14853   4.095   6.501   3.031 -0.1326 -0.9036  0.1457
  137OSM    C2F14854   4.050   6.561   3.264 -0.4749  0.5920  0.2034
  137OSM    H2F14855   3.958   6.499   3.259 -0.2869  0.3183  0.1680
  137OSM    H2G14856   4.015   6.664   3.239 -0.1524  0.6335 -0.0808
  137OSM    C3F14857   4.109   6.552   3.404 -0.0706  0.2361 -0.4329
  137OSM    H3F14858   4.208   6.602   3.408 -0.5678  1.1599  0.6225
  137OSM    H3G14859   4.119   6.446   3.435 -1.9908  0.5026  1.2889
  137OSM    C4F14860   4.022   6.632   3.506 -0.2179 -0.1056 -0.3248
  137OSM    H4F14861   3.921   6.586   3.503 -0.6799  0.9245 -1.0710
  137OSM    H4G14862   4.017   6.734   3.463  0.8061  0.5689  1.0508
  137OSM    C5F14863   4.077   6.655   3.648 -0.7034  0.7043  0.0156
  137OSM    H5F14864   4.080   6.556   3.698  1.7164  0.3094 -0.7697
  137OSM    H5G14865   4.013   6.726   3.704 -1.9765  0.2756 -0.8653
  137OSM    C6F14866   4.224   6.703   3.655  0.0577 -0.1050 -0.0842
  137OSM    H6F14867   4.236   6.804   3.610 -1.6757  0.3513  0.4022
  137OSM    H6G14868   4.301   6.634   3.613  0.5791  0.5877 -0.2861
  137OSM    C7F14869   4.270   6.723   3.804  1.1654  0.4975 -0.4127
  137OSM    H7F14870   4.266   6.622   3.850 -0.0386  1.7314  2.4029
  137OSM    H7G14871   4.203   6.786   3.866  0.1287 -0.9431 -0.0118
  137OSM    C8F14872   4.409   6.784   3.825 -0.2513  0.4355 -0.2050
  137OSM    H8F14873   4.413   6.802   3.935  1.6083 -0.1006 -0.1405
  137OSM    H8G14874   4.415   6.876   3.764  0.4055  0.2834 -0.3831
  137OSM    C9F14875   4.531   6.706   3.773 -0.8050  0.5016 -0.0461
  137OSM    H9F14876   4.530   6.672   3.668 -1.0876 -0.4846  0.2621
  137OSM   C10F14877   4.649   6.695   3.837 -0.0203 -0.2959  0.3701
  137OSM   H10F14878   4.717   6.630   3.781 -1.7536 -0.3845 -1.7649
  137OSM   C11F14879   4.685   6.729   3.978 -0.0810  0.4706  0.4405
  137OSM   H11F14880   4.604   6.791   4.022  0.4316  0.4270  1.4615
  137OSM   H11G14881   4.769   6.801   3.980  0.1112  0.3465 -1.3287
  137OSM   C12F14882   4.703   6.612   4.074 -0.6980 -0.2177  0.1994
  137OSM   H12F14883   4.786   6.547   4.040 -0.9139 -0.6759  0.5320
  137OSM   H12G14884   4.608   6.555   4.077 -1.6501  1.3241  2.9225
  137OSM   C13F14885   4.731   6.656   4.217  0.0503 -0.3122 -0.4538
  137OSM   H13F14886   4.653   6.729   4.248 -0.9453 -1.3588 -0.4149
  137OSM   H13G14887   4.826   6.712   4.226 -1.0097  2.1021 -2.9316
  137OSM   C14F14888   4.724   6.538   4.317  0.0509  0.4466  0.1925
  137OSM   H14F14889   4.801   6.465   4.284  0.4323  0.1619  1.6709
  137OSM   H14G14890   4.628   6.484   4.303  0.1144  0.2315  0.5854
  137OSM   C15F14891   4.757   6.588   4.464  0.1724  0.3114 -0.0489
  137OSM   H15F14892   4.732   6.696   4.457  0.3727  0.3857  0.3419
  137OSM   H15G14893   4.862   6.561   4.486 -0.1451  0.5645  1.9943
  137OSM   C16F14894   4.668   6.502   4.548  0.0971 -0.0427  0.3655
  137OSM   H16F14895   4.699   6.396   4.555  1.9055  0.5333  1.6290
  137OSM   H16G14896   4.562   6.513   4.515 -1.1442 -0.5805  3.7330
  137OSM   C17F14897   4.680   6.551   4.696 -0.1267 -0.3126  0.2209
  137OSM   H17F14898   4.695   6.660   4.705  0.2701 -0.4971  2.1044
  137OSM   H17G14899   4.772   6.500   4.731  0.6458  0.1649 -1.0381
  137OSM   C18F14900   4.559   6.497   4.784  0.3113 -0.1192  0.3582
  137OSM   H18F14901   4.571   6.387   4.795  1.1412 -0.0431  0.3202
  137OSM   H18G14902   4.456   6.525   4.754 -0.1675  0.6485  2.5681
  137OSM   H18H14903   4.579   6.542   4.883 -0.1129 -2.3620  1.5334
  138OSM      N14904   3.382   2.533   2.081  0.3749  0.4646  0.2220
  138OSM    C1514905   3.503   2.443   2.076  0.0672  0.1930  0.1148
  138OSM   H15A14906   3.477   2.346   2.117  2.2596 -0.0993  0.9141
  138OSM   H15B14907   3.579   2.472   2.147  1.1907  0.1505 -1.0359
  138OSM   H15C14908   3.543   2.440   1.976  0.6093  1.1645  0.2908
  138OSM    C1414909   3.413   2.669   2.014 -0.2428  0.1867  0.4078
  138OSM   H14A14910   3.492   2.722   2.066  0.8462  0.1134 -1.0935
  138OSM   H14B14911   3.321   2.724   2.007 -1.1339 -1.2037  0.9040
  138OSM   H14C14912   3.444   2.650   1.912  0.1085 -1.3069  0.7650
  138OSM    C1314913   3.276   2.468   2.004  0.2477  0.3584 -1.1390
  138OSM   H13A14914   3.257   2.373   2.053  0.8469  1.0663  0.5085
  138OSM   H13B14915   3.285   2.445   1.898 -3.0780 -2.4627 -0.9975
  138OSM   H13C14916   3.181   2.515   2.025  0.0230 -1.1649  1.8127
  138OSM    C1214917   3.329   2.555   2.220 -0.0665 -0.0430  0.0857
  138OSM   H12A14918   3.233   2.605   2.217  0.0808  0.2118 -0.6865
  138OSM   H12B14919   3.402   2.619   2.267 -1.5949  0.8503  1.3316
  138OSM    C1114920   3.298   2.424   2.307 -0.3238  0.1382  0.1742
  138OSM   H11A14921   3.249   2.457   2.401  0.4637 -2.0799  1.4241
  138OSM   H11B14922   3.392   2.370   2.330 -0.0719  0.0023 -1.0696
  138OSM      P14923   3.181   2.197   2.291 -0.3822 -0.3002  0.6705
  138OSM    O1314924   3.039   2.168   2.285 -0.3078 -0.0622 -0.4303
  138OSM    O1414925   3.272   2.108   2.215 -0.0565  0.4186 -0.2011
  138OSM    O1114926   3.226   2.187   2.441 -0.3389  0.0749 -0.4172
  138OSM    O1214927   3.202   2.340   2.242 -0.3058  0.3983  0.5605
  138OSM    C1S14928   3.149   2.208   2.554 -0.7088  0.0105 -0.6276
  138OSM    H1S14929   3.072   2.129   2.544  0.5683 -1.0220 -3.8526
  138OSM    H1T14930   3.114   2.313   2.561 -0.3853  0.0828 -0.0721
  138OSM     NF14931   3.124   2.181   2.802 -0.1356  0.0667  0.0667
  138OSM    HNF14932   3.140   2.242   2.879 -0.4261 -2.3479  2.2059
  138OSM    C2S14933   3.219   2.177   2.694  0.1866 -0.6283  0.3449
  138OSM    H2S14934   3.249   2.070   2.694  0.2151 -0.6234  0.9399
  138OSM    C3S14935   3.347   2.257   2.720 -0.2569 -0.3978 -0.2887
  138OSM    H3S14936   3.307   2.339   2.784 -0.1801 -1.0061  0.5529
  138OSM     O314937   3.415   2.311   2.610  0.1015 -0.0634  0.4932
  138OSM    HO314938   3.361   2.274   2.539 -0.7266 -1.0527  1.6033
  138OSM    C4S14939   3.432   2.188   2.823 -0.1231 -0.6814 -0.6156
  138OSM    H4S14940   3.395   2.202   2.926 -0.5165  1.0580 -0.9516
  138OSM    C5S14941   3.543   2.115   2.802  0.4929 -0.8403  0.0803
  138OSM    H5S14942   3.576   2.095   2.699 -0.3603  1.5651 -0.7371
  138OSM    C6S14943   3.624   2.051   2.909  0.2148  0.1590 -0.0393
  138OSM    H6S14944   3.722   2.101   2.925  0.9388 -1.2311 -0.0311
  138OSM    H6T14945   3.650   1.945   2.892 -0.4113 -0.0342  0.1551
  138OSM    C7S14946   3.558   2.059   3.053 -0.3744  0.5239  0.2710
  138OSM    H7S14947   3.455   2.018   3.061  0.3030 -0.9304  3.3584
  138OSM    H7T14948   3.556   2.164   3.092 -0.0184  0.7653 -0.3510
  138OSM    C8S14949   3.643   1.979   3.158  0.0850  0.2508 -0.1273
  138OSM    H8S14950   3.750   1.974   3.128  0.6316 -0.1110  1.8017
  138OSM    H8T14951   3.597   1.878   3.151 -0.0658  0.3039  0.0866
  138OSM    C9S14952   3.631   2.029   3.301 -0.3235  0.2852 -0.4860
  138OSM    H9S14953   3.522   2.036   3.321 -0.7125  3.0732 -2.8743
  138OSM    H9T14954   3.661   2.136   3.304  0.4260  0.1730 -2.6126
  138OSM   C10S14955   3.708   1.937   3.399 -0.2784  0.1425 -0.3098
  138OSM   H10S14956   3.817   1.951   3.381 -0.3381 -0.8514 -1.6481
  138OSM   H10T14957   3.690   1.830   3.375 -2.3476 -0.0576  1.7585
  138OSM   C11S14958   3.678   1.964   3.550 -0.6480 -0.3677 -0.8006
  138OSM   H11S14959   3.694   2.069   3.583 -0.8250 -0.2903 -0.9585
  138OSM   H11T14960   3.753   1.914   3.615 -0.8226 -1.2203 -1.2444
  138OSM   C12S14961   3.541   1.928   3.592  0.2131  0.2769  0.1172
  138OSM   H12S14962   3.519   1.820   3.577 -0.1127  0.1968  1.1107
  138OSM   H12T14963   3.473   1.992   3.532 -0.3869  1.5550  2.0529
  138OSM   C13S14964   3.501   1.972   3.733 -0.2500  0.1757 -0.1944
  138OSM   H13S14965   3.391   1.979   3.751 -0.2291 -0.2389  0.1117
  138OSM   H13T14966   3.537   2.076   3.741 -0.3902  0.1112  1.5537
  138OSM   C14S14967   3.546   1.878   3.840  0.3735 -0.5840 -0.0330
  138OSM   H14S14968   3.656   1.862   3.830  0.1149 -0.8080 -3.8639
  138OSM   H14T14969   3.497   1.779   3.830  1.6776 -1.0673 -2.7464
  138OSM   C15S14970   3.530   1.942   3.979 -0.5924  0.0604  0.4036
  138OSM   H15S14971   3.421   1.954   3.997 -0.4184  1.1376  0.8010
  138OSM   H15T14972   3.575   2.044   3.976 -1.5529  0.4719 -2.0909
  138OSM   C16S14973   3.602   1.856   4.082  0.8402 -0.0668  0.0765
  138OSM   H16S14974   3.706   1.895   4.084  0.8144  0.0484 -0.5595
  138OSM   H16T14975   3.598   1.748   4.058 -2.4795  0.1962 -1.0626
  138OSM   C17S14976   3.540   1.878   4.214  0.3961  0.2875 -0.5460
  138OSM   H17S14977   3.439   1.833   4.222  0.7787 -0.4908  0.0593
  138OSM   H17T14978   3.538   1.985   4.245  0.8591  0.2463 -0.3659
  138OSM   C18S14979   3.608   1.793   4.327  0.2420 -0.5514 -0.3765
  138OSM   H18S14980   3.705   1.841   4.354 -0.5772 -0.4002  2.6617
  138OSM   H18T14981   3.648   1.693   4.300 -0.4746 -0.7449 -0.7339
  138OSM   H18U14982   3.546   1.799   4.420 -0.4437  0.2263 -0.8705
  138OSM    C1F14983   3.018   2.102   2.804  1.1481  0.5297  0.2098
  138OSM     OF14984   3.013   1.990   2.753  0.1443 -0.2461 -0.1355
  138OSM    C2F14985   2.891   2.168   2.849 -0.1294 -0.1629 -0.2710
  138OSM    H2F14986   2.893   2.267   2.800 -0.6246 -1.1161 -2.3222
  138OSM    H2G14987   2.900   2.187   2.958 -4.3387 -0.0925  0.2184
  138OSM    C3F14988   2.766   2.107   2.797 -0.4224  0.2480  0.0598
  138OSM    H3F14989   2.762   2.110   2.686 -0.3064 -0.8841  0.0143
  138OSM    H3G14990   2.686   2.180   2.825  0.0574  0.7833  0.0654
  138OSM    C4F14991   2.734   1.960   2.844 -0.0326  0.3516 -0.2700
  138OSM    H4F14992   2.794   1.886   2.787 -0.6533  0.3849 -0.9811
  138OSM    H4G14993   2.631   1.924   2.826  0.2409 -0.2475 -0.6749
  138OSM    C5F14994   2.763   1.930   2.990  0.9103  0.1621  0.3076
  138OSM    H5F14995   2.868   1.955   3.014  2.0952 -2.5438 -1.4964
  138OSM    H5G14996   2.757   1.819   2.999  3.3184 -0.1113 -0.6379
  138OSM    C6F14997   2.674   1.992   3.102 -0.6694  0.0446 -0.3277
  138OSM    H6F14998   2.570   1.965   3.076 -1.0905  1.7757 -0.5248
  138OSM    H6G14999   2.676   2.103   3.095 -2.6909  0.0765 -0.8902
  138OSM    C7F15000   2.738   1.955   3.233  0.1337 -0.4885 -0.0658
  138OSM    H7F15001   2.846   1.976   3.225 -0.1753  1.2183 -0.1042
  138OSM    H7G15002   2.715   1.850   3.263 -1.8919  0.3226  1.4941
  138OSM    C8F15003   2.677   2.039   3.349 -0.0103 -1.1908 -0.7053
  138OSM    H8F15004   2.567   2.031   3.341  0.1396 -2.5641 -1.5623
  138OSM    H8G15005   2.698   2.145   3.320 -0.8152 -1.2659 -1.5902
  138OSM    C9F15006   2.728   2.012   3.486 -0.6158  0.8764  0.3533
  138OSM    H9F15007   2.835   2.033   3.504 -1.1202  2.1804  2.1480
  138OSM   C10F15008   2.654   1.961   3.586 -0.4898  0.1556  0.1389
  138OSM   H10F15009   2.699   1.954   3.686 -2.9514  0.8941  1.3817
  138OSM   C11F15010   2.509   1.924   3.590 -0.0224  0.2108 -0.3760
  138OSM   H11F15011   2.502   1.818   3.623 -0.9316  0.3595 -0.0629
  138OSM   H11G15012   2.463   1.934   3.489 -0.9421  2.8036  0.2120
  138OSM   C12F15013   2.441   2.012   3.699  0.5330  0.8208  0.1874
  138OSM   H12F15014   2.497   2.002   3.794  2.5230  2.3841 -0.7432
  138OSM   H12G15015   2.331   2.002   3.706  0.3415  0.8021 -2.0848
  138OSM   C13F15016   2.464   2.156   3.672 -0.2536 -0.2070  0.9680
  138OSM   H13F15017   2.451   2.176   3.563 -3.1722 -2.1192  0.8525
  138OSM   H13G15018   2.557   2.199   3.714  1.4449 -2.9268  0.1996
  138OSM   C14F15019   2.358   2.244   3.734  0.0871  0.5386  0.4263
  138OSM   H14F15020   2.255   2.209   3.710  0.4958 -1.4497  1.3642
  138OSM   H14G15021   2.363   2.347   3.692  1.8591 -0.3375 -1.6933
  138OSM   C15F15022   2.365   2.245   3.889  0.2193 -0.4008  0.0197
  138OSM   H15F15023   2.474   2.262   3.904  0.1843  1.6151 -1.5518
  138OSM   H15G15024   2.332   2.146   3.925 -0.3885 -0.2322 -0.0744
  138OSM   C16F15025   2.274   2.348   3.959 -0.1492  0.1972 -0.4196
  138OSM   H16F15026   2.170   2.338   3.923  0.1272  0.5053 -1.3331
  138OSM   H16G15027   2.297   2.455   3.938 -0.8105  0.6991  1.2146
  138OSM   C17F15028   2.264   2.328   4.109 -0.2679  0.1283 -0.1289
  138OSM   H17F15029   2.364   2.308   4.154 -0.1527 -1.8997 -1.1705
  138OSM   H17G15030   2.193   2.243   4.119  1.8836 -1.8534 -0.8634
  138OSM   C18F15031   2.215   2.450   4.189  0.5568 -0.0477 -0.3733
  138OSM   H18F15032   2.214   2.423   4.297 -1.6481  1.6919  0.1242
  138OSM   H18G15033   2.111   2.470   4.154  1.5091 -0.7478 -4.0300
  138OSM   H18H15034   2.278   2.542   4.187 -1.2299  1.3972  2.5547
  139OSM      N15035   5.766   4.051   2.558 -0.3745  0.1838  0.1711
  139OSM    C1515036   5.720   3.914   2.598  0.2255  0.0709  0.1427
  139OSM   H15A15037   5.802   3.857   2.641  0.3743 -0.1821 -0.4694
  139OSM   H15B15038   5.675   3.862   2.515  0.6696 -1.0124  0.5538
  139OSM   H15C15039   5.651   3.948   2.674  1.2883  0.9300  0.7549
  139OSM    C1415040   5.815   4.111   2.687 -0.2454  1.0135 -0.8196
  139OSM   H14A15041   5.742   4.089   2.763 -1.8938  0.5181 -2.4609
  139OSM   H14B15042   5.830   4.218   2.682  0.6799  1.1378  2.5283
  139OSM   H14C15043   5.911   4.075   2.719 -1.7464 -1.0027  1.8168
  139OSM    C1315044   5.868   4.036   2.447 -0.4463 -0.3603  0.1416
  139OSM   H13A15045   5.817   4.005   2.358  0.2270 -0.1855 -0.3135
  139OSM   H13B15046   5.945   3.964   2.471  0.7339  0.6630 -0.4722
  139OSM   H13C15047   5.914   4.129   2.419 -2.0722  0.2431 -0.5888
  139OSM    C1215048   5.649   4.133   2.511 -0.5790 -0.0777 -0.1292
  139OSM   H12A15049   5.608   4.089   2.421 -0.1300 -2.4838  0.7493
  139OSM   H12B15050   5.686   4.232   2.490 -1.7170  0.4434  0.2436
  139OSM    C1115051   5.522   4.141   2.594 -0.4449  0.3663  0.0580
  139OSM   H11A15052   5.461   4.225   2.552  0.6378  1.7920  1.2431
  139OSM   H11B15053   5.540   4.188   2.693  0.7751  0.5688 -0.2525
  139OSM      P15054   5.292   4.004   2.604  0.1328  0.6120 -0.1052
  139OSM    O1315055   5.236   4.065   2.481  0.3010  0.0128 -0.2806
  139OSM    O1415056   5.251   3.864   2.634 -0.3358  0.0871 -0.2013
  139OSM    O1115057   5.251   4.085   2.735  0.2797 -0.3349 -0.1953
  139OSM    O1215058   5.454   4.014   2.611  0.0259 -0.0286  0.5362
  139OSM    C1S15059   5.155   4.031   2.825 -0.1209  0.1200 -0.0565
  139OSM    H1S15060   5.096   3.945   2.789  0.1455  0.4301 -1.2760
  139OSM    H1T15061   5.075   4.106   2.845  0.4221  0.3408  1.4782
  139OSM     NF15062   5.128   3.972   3.069 -0.4020  0.4600 -0.3828
  139OSM    HNF15063   5.075   4.039   3.122 -2.5568 -0.5911 -1.0866
  139OSM    C2S15064   5.226   4.010   2.969 -0.4688  0.6158 -0.2150
  139OSM    H2S15065   5.293   3.922   2.959 -0.7717  0.0728  1.8768
  139OSM    C3S15066   5.297   4.141   3.015  0.1065  0.3697 -0.6387
  139OSM    H3S15067   5.214   4.212   3.035 -0.7518  0.1080 -2.8563
  139OSM     O315068   5.369   4.219   2.920  0.2648 -0.4327  0.4329
  139OSM    HO315069   5.338   4.180   2.838 -0.6665 -2.0405  1.4956
  139OSM    C4S15070   5.369   4.119   3.141 -0.4631  0.7473 -0.4254
  139OSM    H4S15071   5.313   4.099   3.233  1.7981  1.1375  1.1174
  139OSM    C5S15072   5.500   4.108   3.158  0.0290 -0.4312  0.1057
  139OSM    H5S15073   5.565   4.106   3.069  1.7686 -0.3541  1.3065
  139OSM    C6S15074   5.559   4.068   3.288 -0.3156  0.4689 -1.2481
  139OSM    H6S15075   5.666   4.099   3.284  0.1889 -0.8386  0.6257
  139OSM    H6T15076   5.555   3.959   3.308  0.4697  0.6964  0.2916
  139OSM    C7S15077   5.496   4.145   3.406 -0.1154 -0.0702 -0.0283
  139OSM    H7S15078   5.390   4.114   3.422 -0.5685  1.5550  0.2368
  139OSM    H7T15079   5.500   4.254   3.385  1.6311 -0.2199 -0.6741
  139OSM    C8S15080   5.578   4.124   3.532 -0.3848 -0.3394  0.0461
  139OSM    H8S15081   5.686   4.148   3.522 -0.2482  0.7437  2.9803
  139OSM    H8T15082   5.577   4.014   3.550  0.3141 -0.4817 -0.7539
  139OSM    C9S15083   5.524   4.202   3.655  0.3827 -0.4966 -0.4116
  139OSM    H9S15084   5.414   4.183   3.663  0.2383  0.0381 -1.0848
  139OSM    H9T15085   5.540   4.311   3.648 -0.8949 -0.3125 -0.6472
  139OSM   C10S15086   5.580   4.150   3.790 -1.1372 -0.4840 -0.3275
  139OSM   H10S15087   5.690   4.162   3.796 -1.0465 -1.7177  0.8227
  139OSM   H10T15088   5.574   4.040   3.795  2.7521 -0.8981 -1.6071
  139OSM   C11S15089   5.515   4.219   3.910  0.0282  0.2012  0.3472
  139OSM   H11S15090   5.405   4.209   3.901 -0.3844  0.8090  3.4256
  139OSM   H11T15091   5.541   4.327   3.906  0.2996  0.1774  1.1893
  139OSM   C12S15092   5.547   4.161   4.039 -0.5394 -0.0272  0.3506
  139OSM   H12S15093   5.644   4.212   4.061  0.0083 -1.2788  0.9729
  139OSM   H12T15094   5.556   4.051   4.027 -1.0694 -0.3077  2.2144
  139OSM   C13S15095   5.446   4.203   4.151  0.0383  0.3220  0.0060
  139OSM   H13S15096   5.343   4.184   4.115  0.3015 -0.3318 -0.4291
  139OSM   H13T15097   5.459   4.311   4.175 -1.5875  0.1015  2.1684
  139OSM   C14S15098   5.478   4.123   4.278 -0.3899 -0.4964  0.6177
  139OSM   H14S15099   5.463   4.014   4.262  1.5935 -0.8992  1.2269
  139OSM   H14T15100   5.396   4.140   4.351 -0.3421 -1.1593  0.8286
  139OSM   C15S15101   5.608   4.168   4.338  0.4745  0.0354 -0.7749
  139OSM   H15S15102   5.608   4.279   4.353  1.0678 -0.0779  0.1731
  139OSM   H15T15103   5.689   4.147   4.266  1.2918 -0.8671  0.3857
  139OSM   C16S15104   5.628   4.091   4.474 -0.4656  0.0401  0.3940
  139OSM   H16S15105   5.650   3.985   4.449 -2.2171 -0.4135  0.6396
  139OSM   H16T15106   5.531   4.099   4.527 -0.2534  2.0369  0.5696
  139OSM   C17S15107   5.737   4.157   4.559  0.2705 -0.0389 -0.2502
  139OSM   H17S15108   5.832   4.161   4.502 -0.2451  0.0102 -1.1260
  139OSM   H17T15109   5.766   4.104   4.652 -1.4145 -0.7846 -0.1195
  139OSM   C18S15110   5.698   4.303   4.602 -0.1786  0.0452 -0.3627
  139OSM   H18S15111   5.743   4.376   4.531  2.7570  1.3363  2.5368
  139OSM   H18T15112   5.741   4.320   4.703  1.1282  3.5726 -1.3502
  139OSM   H18U15113   5.588   4.312   4.609 -0.3402 -1.0949 -1.1778
  139OSM    C1F15114   5.079   3.855   3.069 -0.7041  0.8139  0.4342
  139OSM     OF15115   5.114   3.771   2.992  0.3743  0.5909  0.1929
  139OSM    C2F15116   4.964   3.828   3.163  0.2414  0.2302 -0.2094
  139OSM    H2F15117   4.876   3.814   3.098 -0.8018 -0.1690  1.2280
  139OSM    H2G15118   4.946   3.916   3.229 -1.2863  0.4008 -0.8071
  139OSM    C3F15119   4.985   3.709   3.249 -0.4901  0.1504  0.4675
  139OSM    H3F15120   5.090   3.704   3.283  0.2197  1.2630 -1.3589
  139OSM    H3G15121   4.958   3.619   3.190  1.2309 -0.3873  0.4702
  139OSM    C4F15122   4.886   3.705   3.364  0.6056  0.4107 -0.2432
  139OSM    H4F15123   4.789   3.711   3.309  0.6026 -0.7865 -0.3798
  139OSM    H4G15124   4.884   3.798   3.426  0.5030  0.2531 -0.0055
  139OSM    C5F15125   4.885   3.574   3.440  0.3234 -0.2483 -0.4618
  139OSM    H5F15126   4.989   3.554   3.474  0.6813  0.1983 -1.2774
  139OSM    H5G15127   4.843   3.497   3.371  3.5895  0.7301 -3.8738
  139OSM    C6F15128   4.795   3.573   3.566  0.8492  0.1857  0.4923
  139OSM    H6F15129   4.785   3.469   3.602 -0.5929  0.6603  1.5602
  139OSM    H6G15130   4.689   3.598   3.542  0.2063 -1.1295  1.8261
  139OSM    C7F15131   4.851   3.657   3.685  0.3079 -0.1020 -0.8653
  139OSM    H7F15132   4.891   3.754   3.649  3.8507 -0.9120  0.4694
  139OSM    H7G15133   4.947   3.620   3.727 -0.2729 -0.4784  0.1773
  139OSM    C8F15134   4.758   3.672   3.803  0.5963  0.3678  0.2356
  139OSM    H8F15135   4.723   3.567   3.818  1.6157 -0.4053 -2.2541
  139OSM    H8G15136   4.664   3.714   3.760 -1.1856 -2.0111  1.5374
  139OSM    C9F15137   4.817   3.732   3.929  0.0586 -0.4020  0.4219
  139OSM    H9F15138   4.924   3.757   3.930 -0.0786  0.2392  1.7975
  139OSM   C10F15139   4.738   3.745   4.039  0.1054 -0.1038  0.5199
  139OSM   H10F15140   4.781   3.804   4.122 -0.8401  1.2924  0.0634
  139OSM   C11F15141   4.603   3.695   4.065  0.1367  0.7489 -0.3171
  139OSM   H11F15142   4.603   3.601   4.125  0.3069  0.5341 -0.6522
  139OSM   H11G15143   4.546   3.679   3.972  1.2623 -0.0163 -0.9062
  139OSM   C12F15144   4.544   3.808   4.150 -0.3962 -0.1636 -0.0043
  139OSM   H12F15145   4.573   3.910   4.116 -0.4920 -0.8943 -2.4251
  139OSM   H12G15146   4.574   3.812   4.257 -1.8531  0.2010  0.4027
  139OSM   C13F15147   4.395   3.816   4.162  0.6147  0.5409 -0.4692
  139OSM   H13F15148   4.350   3.774   4.069  1.8329 -0.0966 -0.7882
  139OSM   H13G15149   4.353   3.919   4.166  1.7364  0.9603  1.5549
  139OSM   C14F15150   4.337   3.741   4.289  0.0780 -1.0149 -0.2287
  139OSM   H14F15151   4.400   3.779   4.372  1.1228 -2.0305 -0.5214
  139OSM   H14G15152   4.335   3.630   4.281  2.1130 -1.0784 -0.5292
  139OSM   C15F15153   4.193   3.781   4.305  0.3434 -0.8457 -0.1063
  139OSM   H15F15154   4.140   3.768   4.208 -1.5218  1.2506  0.5572
  139OSM   H15G15155   4.177   3.888   4.328 -1.7697 -1.4947  1.7600
  139OSM   C16F15156   4.122   3.697   4.406  0.4585 -0.3172 -0.1835
  139OSM   H16F15157   4.143   3.591   4.380  1.5561 -0.0172 -0.5642
  139OSM   H16G15158   4.013   3.710   4.421  0.0716 -3.3954  0.4793
  139OSM   C17F15159   4.177   3.719   4.547  0.3590  0.0805 -0.0373
  139OSM   H17F15160   4.175   3.830   4.554 -0.1457  0.3122 -2.8755
  139OSM   H17G15161   4.280   3.678   4.555  0.2503 -0.3527 -0.8112
  139OSM   C18F15162   4.095   3.655   4.652  1.3874  0.5073 -0.3373
  139OSM   H18F15163   3.987   3.682   4.657  0.7931 -1.6968 -0.0452
  139OSM   H18G15164   4.138   3.682   4.750 -1.2519 -0.1409  1.1055
  139OSM   H18H15165   4.107   3.545   4.636  1.9406  0.6918 -1.2736
  140OSM      N15166   4.383   1.946   2.020 -0.0539  0.5295 -0.6688
  140OSM    C1515167   4.318   1.817   1.970  0.1781 -0.4021  0.3561
  140OSM   H15A15168   4.373   1.726   1.991 -1.6302 -2.0094 -1.4833
  140OSM   H15B15169   4.306   1.820   1.862 -2.4036  1.9549  0.6144
  140OSM   H15C15170   4.218   1.806   2.008  0.2446  0.1130  0.6813
  140OSM    C1415171   4.281   2.047   1.991 -0.0207 -0.2917  0.1672
  140OSM   H14A15172   4.317   2.144   2.022 -0.9948  0.5799 -1.2978
  140OSM   H14B15173   4.189   2.014   2.038 -0.1666  0.5902  0.5268
  140OSM   H14C15174   4.263   2.065   1.886  0.6076  1.0705  0.2766
  140OSM    C1315175   4.405   1.931   2.167 -0.0522  0.7047  0.2069
  140OSM   H13A15176   4.425   1.829   2.197 -1.7326  1.0382  2.8001
  140OSM   H13B15177   4.323   1.965   2.229 -0.0232  0.2936  0.4778
  140OSM   H13C15178   4.494   1.984   2.199 -0.2576  1.2683 -0.1433
  140OSM    C1215179   4.514   1.976   1.956 -0.8624  0.0302  0.2709
  140OSM   H12A15180   4.507   1.982   1.848  1.0206  2.4089  0.1912
  140OSM   H12B15181   4.584   1.896   1.974  2.0294  1.6173 -2.7664
  140OSM    C1115182   4.587   2.116   1.989 -0.2620  0.0474 -0.2913
  140OSM   H11A15183   4.507   2.191   1.972  1.3060  1.8229 -0.1857
  140OSM   H11B15184   4.673   2.138   1.922  0.4599 -0.1357  0.5540
  140OSM      P15185   4.704   2.226   2.201  0.0015 -0.2587  0.1578
  140OSM    O1315186   4.842   2.231   2.164  0.0489 -0.3661  0.7534
  140OSM    O1415187   4.622   2.348   2.180 -0.3176  0.2599 -0.5634
  140OSM    O1115188   4.692   2.196   2.356 -0.3617  0.2784 -0.2421
  140OSM    O1215189   4.635   2.107   2.121 -0.4320  0.5376 -0.2298
  140OSM    C1S15190   4.571   2.138   2.415 -0.6284  1.0096 -0.7136
  140OSM    H1S15191   4.564   2.031   2.386 -2.3812  0.9178 -0.1065
  140OSM    H1T15192   4.475   2.180   2.376  0.1601  1.5567 -2.1071
  140OSM     NF15193   4.464   2.082   2.641  0.6460 -0.1141  0.1215
  140OSM    HNF15194   4.392   2.129   2.691 -1.5358 -1.5827 -1.4624
  140OSM    C2S15195   4.573   2.150   2.574 -0.4669  0.3095 -0.0680
  140OSM    H2S15196   4.668   2.102   2.604  0.5121  2.5302  0.5616
  140OSM    C3S15197   4.596   2.304   2.616  0.1953 -0.1649 -0.3236
  140OSM    H3S15198   4.506   2.368   2.610  1.3275  1.4173 -1.2140
  140OSM     O315199   4.691   2.372   2.530  0.4727  0.0686 -0.0200
  140OSM    HO315200   4.696   2.322   2.448 -0.6045  1.6390 -1.0979
  140OSM    C4S15201   4.640   2.303   2.765  0.4130  0.1363  0.2196
  140OSM    H4S15202   4.556   2.304   2.836 -0.1541 -0.8247 -0.4122
  140OSM    C5S15203   4.762   2.305   2.814 -0.8556 -1.2308  0.0720
  140OSM    H5S15204   4.847   2.311   2.745 -0.3250 -0.7330  0.7467
  140OSM    C6S15205   4.799   2.303   2.961  0.3611  0.2835 -0.1062
  140OSM    H6S15206   4.881   2.376   2.978  0.0474  0.7874 -0.7305
  140OSM    H6T15207   4.839   2.201   2.978  0.0494  0.4793  2.0697
  140OSM    C7S15208   4.681   2.324   3.054  0.3310  0.0482 -0.7174
  140OSM    H7S15209   4.626   2.228   3.044  3.1402 -1.4802 -2.7044
  140OSM    H7T15210   4.623   2.417   3.035 -0.0535 -0.1105 -0.3399
  140OSM    C8S15211   4.730   2.329   3.202  0.3962 -0.1434  0.1241
  140OSM    H8S15212   4.793   2.416   3.232  0.3159 -0.3184  0.8173
  140OSM    H8T15213   4.797   2.241   3.210 -1.4283 -1.5612  0.5155
  140OSM    C9S15214   4.616   2.322   3.306 -0.7161  0.1431 -0.0193
  140OSM    H9S15215   4.540   2.242   3.294 -1.3793  0.5952  1.0095
  140OSM    H9T15216   4.539   2.403   3.302 -1.4437 -0.4746  1.1079
  140OSM   C10S15217   4.672   2.321   3.445 -0.0943 -0.0013 -0.0370
  140OSM   H10S15218   4.745   2.398   3.477 -0.0245 -0.0002 -0.2023
  140OSM   H10T15219   4.712   2.220   3.470  2.0057  1.1356  1.4856
  140OSM   C11S15220   4.565   2.340   3.550  0.0722  0.2114 -0.1153
  140OSM   H11S15221   4.498   2.253   3.536 -2.0743  1.9367 -1.0930
  140OSM   H11T15222   4.506   2.433   3.535 -0.9956 -0.4558 -0.1564
  140OSM   C12S15223   4.623   2.348   3.694  0.1118 -0.3883 -0.5543
  140OSM   H12S15224   4.700   2.428   3.697  1.6283 -1.7269 -1.9165
  140OSM   H12T15225   4.681   2.255   3.711 -0.5182 -0.6919 -0.0228
  140OSM   C13S15226   4.516   2.367   3.802 -0.7899 -0.1679  0.3637
  140OSM   H13S15227   4.438   2.289   3.790 -0.5346 -0.3740 -0.0210
  140OSM   H13T15228   4.473   2.469   3.799 -1.5781 -0.5095 -0.3083
  140OSM   C14S15229   4.577   2.360   3.943 -0.6320 -0.1992 -0.5452
  140OSM   H14S15230   4.645   2.445   3.961  0.5367 -1.8252  3.7496
  140OSM   H14T15231   4.639   2.268   3.948  0.0610  0.3293  1.5552
  140OSM   C15S15232   4.483   2.364   4.062 -0.6544 -0.1316  0.3101
  140OSM   H15S15233   4.417   2.274   4.066 -2.0107  0.8783  2.1748
  140OSM   H15T15234   4.410   2.448   4.064 -2.7653 -1.8591  0.4792
  140OSM   C16S15235   4.561   2.375   4.195 -0.4229  0.0625  0.0394
  140OSM   H16S15236   4.499   2.450   4.250 -2.6085 -0.8613 -1.0385
  140OSM   H16T15237   4.657   2.430   4.181 -0.3015 -0.4272 -1.1800
  140OSM   C17S15238   4.590   2.246   4.278 -0.4251 -0.2834  0.7852
  140OSM   H17S15239   4.679   2.201   4.229  0.0231  1.4268 -0.0291
  140OSM   H17T15240   4.505   2.176   4.265 -1.0086  0.6499 -0.6739
  140OSM   C18S15241   4.611   2.261   4.425 -0.3241 -0.0789 -0.2598
  140OSM   H18S15242   4.700   2.323   4.448 -0.7498  0.4022  0.0839
  140OSM   H18T15243   4.616   2.159   4.469 -0.3541  0.4530  0.9902
  140OSM   H18U15244   4.524   2.315   4.465  1.5611  1.9911  1.2659
  140OSM    C1F15245   4.443   1.949   2.635 -0.7180 -0.5225 -0.5490
  140OSM     OF15246   4.531   1.881   2.586 -0.7525  0.5215  0.3755
  140OSM    C2F15247   4.319   1.894   2.688 -0.0695  0.0608 -0.5250
  140OSM    H2F15248   4.264   1.853   2.600 -0.5533  0.4053 -0.3911
  140OSM    H2G15249   4.260   1.984   2.719 -0.4069  0.6927 -2.7927
  140OSM    C3F15250   4.345   1.786   2.795 -0.0260  0.1499  0.3936
  140OSM    H3F15251   4.399   1.696   2.758 -1.3833 -1.1459  1.4402
  140OSM    H3G15252   4.247   1.742   2.822 -0.0623 -0.2000 -0.2890
  140OSM    C4F15253   4.434   1.824   2.914  0.3148 -0.2756  0.1832
  140OSM    H4F15254   4.404   1.923   2.955  0.8612  0.6568 -1.5759
  140OSM    H4G15255   4.538   1.835   2.878 -0.3357 -0.0350 -1.7363
  140OSM    C5F15256   4.424   1.734   3.037 -0.3408 -0.5787  0.3149
  140OSM    H5F15257   4.439   1.628   3.008  0.4977 -0.9254  1.9192
  140OSM    H5G15258   4.318   1.744   3.069  0.1656 -2.2071  2.7644
  140OSM    C6F15259   4.502   1.773   3.167  0.3586  0.0998  0.6986
  140OSM    H6F15260   4.611   1.760   3.154  0.3728 -1.9913  2.4651
  140OSM    H6G15261   4.486   1.691   3.239  0.1410 -1.8716 -1.4849
  140OSM    C7F15262   4.465   1.911   3.217 -0.4446  0.2449 -0.1691
  140OSM    H7F15263   4.355   1.926   3.228 -0.6534 -1.5680  0.6766
  140OSM    H7G15264   4.512   1.988   3.152 -1.7179  1.0019 -0.2339
  140OSM    C8F15265   4.531   1.933   3.357 -0.2392 -0.9129 -0.6717
  140OSM    H8F15266   4.471   1.877   3.432 -2.0919  4.2495  2.2383
  140OSM    H8G15267   4.505   2.035   3.394  0.8384 -0.6619 -0.5664
  140OSM    C9F15268   4.682   1.934   3.377  0.6018 -0.1399  0.3138
  140OSM    H9F15269   4.745   1.952   3.288  1.4283 -0.5827  0.7978
  140OSM   C10F15270   4.747   1.869   3.479 -0.3528  0.0121 -0.2712
  140OSM   H10F15271   4.855   1.884   3.489 -0.1212 -1.1971 -0.7771
  140OSM   C11F15272   4.683   1.806   3.604  0.4217  0.8342 -0.0063
  140OSM   H11F15273   4.729   1.711   3.638 -1.8724 -0.1822  0.4045
  140OSM   H11G15274   4.578   1.789   3.573 -0.1067  1.7320  1.2136
  140OSM   C12F15275   4.664   1.900   3.720  0.7994  0.2478 -0.0732
  140OSM   H12F15276   4.609   1.993   3.691 -1.4205 -1.2746 -1.0050
  140OSM   H12G15277   4.765   1.928   3.754  0.4227  1.4769  0.0947
  140OSM   C13F15278   4.585   1.851   3.834 -0.6968 -0.6157  0.2062
  140OSM   H13F15279   4.616   1.750   3.868 -1.9892 -1.0498  0.1704
  140OSM   H13G15280   4.480   1.837   3.800 -0.8007  0.0224  0.2613
  140OSM   C14F15281   4.580   1.959   3.949  0.5490 -0.2778 -0.4944
  140OSM   H14F15282   4.530   2.052   3.912 -0.9782 -0.8465  0.0625
  140OSM   H14G15283   4.688   1.980   3.967  0.6870 -2.1052  1.0515
  140OSM   C15F15284   4.505   1.907   4.077  0.0686 -0.0139 -0.3763
  140OSM   H15F15285   4.445   1.817   4.051  0.7924 -0.6710  0.1722
  140OSM   H15G15286   4.438   1.980   4.127 -1.3203 -1.0177 -0.7174
  140OSM   C16F15287   4.601   1.852   4.189 -0.4138 -0.0630 -0.8782
  140OSM   H16F15288   4.670   1.932   4.223  0.4325 -0.8327 -0.7545
  140OSM   H16G15289   4.667   1.776   4.142  0.6824 -0.6682  1.5054
  140OSM   C17F15290   4.532   1.785   4.309  0.2935  0.4241  0.0499
  140OSM   H17F15291   4.479   1.690   4.288  0.1422  0.1845  1.3947
  140OSM   H17G15292   4.454   1.845   4.361  1.2636  1.0738  0.7948
  140OSM   C18F15293   4.641   1.752   4.411  0.7807 -0.1838 -0.0864
  140OSM   H18F15294   4.692   1.846   4.443  0.7055  0.0078 -0.5292
  140OSM   H18G15295   4.709   1.666   4.394  2.2056 -0.2638  4.4804
  140OSM   H18H15296   4.596   1.715   4.506  1.3786 -2.2712 -0.5720
  141OSM      N15297   5.128   4.435   2.573 -0.0230 -0.2351  0.3067
  141OSM    C1515298   4.993   4.381   2.544  0.2931 -0.5761  0.3826
  141OSM   H15A15299   4.915   4.433   2.598  0.7163  2.6533 -1.8406
  141OSM   H15B15300   4.978   4.276   2.566 -1.5649 -0.3880  0.1846
  141OSM   H15C15301   4.970   4.391   2.439 -1.9343 -0.7809  0.7991
  141OSM    C1415302   5.180   4.399   2.711 -0.2897  0.1784  0.2443
  141OSM   H14A15303   5.197   4.292   2.706  0.5310  0.2478  1.0998
  141OSM   H14B15304   5.115   4.422   2.794  2.0050  2.3457  1.6081
  141OSM   H14C15305   5.270   4.454   2.733  1.8526 -2.4905 -1.2110
  141OSM    C1315306   5.224   4.371   2.467 -0.8457  0.7292  0.2428
  141OSM   H13A15307   5.200   4.384   2.362  0.9115 -0.1770 -0.3215
  141OSM   H13B15308   5.248   4.270   2.494  0.2937  0.7348 -0.6715
  141OSM   H13C15309   5.316   4.427   2.476 -1.4047  1.4704  1.6453
  141OSM    C1215310   5.123   4.588   2.555  0.3106  0.2583 -0.6095
  141OSM   H12A15311   5.050   4.626   2.625  0.8852 -0.2491  0.2795
  141OSM   H12B15312   5.102   4.597   2.449  1.6017 -0.3818 -0.9332
  141OSM    C1115313   5.247   4.666   2.592 -0.2895  0.0676 -0.9463
  141OSM   H11A15314   5.286   4.630   2.689  3.3548  0.4404 -2.0920
  141OSM   H11B15315   5.234   4.773   2.617 -1.2718  0.2381 -2.0784
  141OSM      P15316   5.351   4.738   2.381  0.1171 -0.0710 -0.1373
  141OSM    O1315317   5.372   4.672   2.251  0.0567 -0.0544  0.3368
  141OSM    O1415318   5.233   4.834   2.386  0.2359  0.7575 -0.4580
  141OSM    O1115319   5.484   4.806   2.426 -0.3249  0.7773  0.3063
  141OSM    O1215320   5.346   4.636   2.502 -0.6017  0.0931 -0.0712
  141OSM    C1S15321   5.504   4.920   2.506  0.8478 -0.5005 -0.2487
  141OSM    H1S15322   5.406   4.972   2.518  1.7681  1.4170 -0.6603
  141OSM    H1T15323   5.572   4.993   2.457  1.7304  2.0603  4.2580
  141OSM     NF15324   5.583   4.992   2.736  0.5746 -0.6713 -0.1728
  141OSM    HNF15325   5.675   5.011   2.771  0.1993  2.1772 -0.4800
  141OSM    C2S15326   5.559   4.879   2.648 -0.5354 -0.1041  0.0225
  141OSM    H2S15327   5.475   4.830   2.702 -0.6345 -0.7768 -0.7201
  141OSM    C3S15328   5.685   4.784   2.644  0.9487 -0.3971  0.0280
  141OSM    H3S15329   5.763   4.845   2.594 -0.8461  1.2058 -0.9350
  141OSM     O315330   5.667   4.664   2.556  0.3473 -0.4053  0.0747
  141OSM    HO315331   5.579   4.683   2.521  0.0846 -1.3654  0.1974
  141OSM    C4S15332   5.725   4.735   2.784 -0.3445  0.0553 -0.1672
  141OSM    H4S15333   5.676   4.642   2.817 -1.1869  0.2751 -0.7683
  141OSM    C5S15334   5.815   4.797   2.862  0.2867  0.1116  0.3164
  141OSM    H5S15335   5.882   4.873   2.818  0.3932 -0.2728 -0.2063
  141OSM    C6S15336   5.862   4.752   2.992 -0.6038 -0.2092  0.3817
  141OSM    H6S15337   5.970   4.728   2.982 -1.0999 -2.9957  0.8869
  141OSM    H6T15338   5.812   4.658   3.024  0.2455 -1.1927 -1.0643
  141OSM    C7S15339   5.855   4.869   3.087  0.7759  0.0821  0.4296
  141OSM    H7S15340   5.756   4.919   3.093  0.3093 -0.8648  1.0086
  141OSM    H7T15341   5.935   4.942   3.063  0.0604  1.1094  1.1025
  141OSM    C8S15342   5.887   4.831   3.228 -0.4148  0.2232  0.1602
  141OSM    H8S15343   5.993   4.802   3.238 -0.4233  0.6990  1.8257
  141OSM    H8T15344   5.822   4.750   3.268  1.1470 -1.0208  0.2431
  141OSM    C9S15345   5.879   4.953   3.319  0.6204 -0.2730  0.8356
  141OSM    H9S15346   5.776   4.993   3.332  0.3930 -0.2656 -0.8209
  141OSM    H9T15347   5.936   5.037   3.273 -2.9506  1.1981 -1.3316
  141OSM   C10S15348   5.926   4.922   3.461 -1.0345 -0.1668  1.0213
  141OSM   H10S15349   6.037   4.917   3.459 -0.9677 -0.6978 -3.2881
  141OSM   H10T15350   5.887   4.827   3.503  0.8890 -1.0533  0.9335
  141OSM   C11S15351   5.893   5.032   3.567 -0.5786  0.3951  0.0016
  141OSM   H11S15352   5.787   5.026   3.601 -0.1613  0.0656  1.2904
  141OSM   H11T15353   5.910   5.132   3.521  2.4680  0.6874  1.5212
  141OSM   C12S15354   5.977   5.023   3.689 -0.0758 -0.2557 -0.0081
  141OSM   H12S15355   5.979   5.120   3.744 -0.4503  0.0841 -0.5833
  141OSM   H12T15356   6.083   5.015   3.657 -0.4006  1.1343 -1.5672
  141OSM   C13S15357   5.948   4.905   3.787 -0.1635 -0.0524  0.3548
  141OSM   H13S15358   5.966   4.813   3.726 -1.2155 -1.4660  2.0921
  141OSM   H13T15359   5.839   4.902   3.811 -0.4204 -1.3803 -0.8175
  141OSM   C14S15360   6.024   4.889   3.915 -0.3183  1.0350  0.9423
  141OSM   H14S15361   6.132   4.906   3.895 -0.5433  0.9238 -0.5386
  141OSM   H14T15362   6.013   4.788   3.959  0.7726 -1.1878 -3.3152
  141OSM   C15S15363   5.969   4.986   4.013  0.4241 -0.1511 -0.4351
  141OSM   H15S15364   5.873   4.941   4.047 -0.8890  1.2996 -1.9921
  141OSM   H15T15365   5.945   5.083   3.965 -2.5029 -0.3728  0.3563
  141OSM   C16S15366   6.056   5.027   4.132 -0.7211  0.2587  0.2952
  141OSM   H16S15367   6.141   5.078   4.082 -1.0440  0.8748  0.3624
  141OSM   H16T15368   6.109   4.942   4.181 -0.9032  0.2655  0.5073
  141OSM   C17S15369   5.987   5.115   4.231  0.1704 -0.0753  0.8741
  141OSM   H17S15370   5.894   5.065   4.265 -0.3878 -0.2265 -0.7878
  141OSM   H17T15371   5.956   5.204   4.173  0.5336  0.1501  1.0208
  141OSM   C18S15372   6.077   5.155   4.347 -0.0986  0.8128 -0.1894
  141OSM   H18S15373   6.105   5.055   4.386  1.0474  0.0702 -2.6957
  141OSM   H18T15374   6.036   5.202   4.439  1.5649 -0.8402  1.4996
  141OSM   H18U15375   6.168   5.210   4.312  0.2521 -0.0062 -0.5922
  141OSM    C1F15376   5.481   5.080   2.766 -0.6426  1.1388  0.9272
  141OSM     OF15377   5.365   5.051   2.736  0.0428 -0.1614 -0.0286
  141OSM    C2F15378   5.513   5.217   2.823 -0.0156 -0.4401 -0.0965
  141OSM    H2F15379   5.429   5.243   2.890 -1.0544 -0.6884 -1.2575
  141OSM    H2G15380   5.506   5.286   2.736  1.2816 -1.2965 -0.9322
  141OSM    C3F15381   5.656   5.242   2.884  0.2101  0.1814  0.6547
  141OSM    H3F15382   5.672   5.351   2.897  0.9589 -0.0292  1.6047
  141OSM    H3G15383   5.740   5.206   2.821  1.5268  2.0307  1.2642
  141OSM    C4F15384   5.665   5.186   3.030 -0.0472 -0.8706  0.6113
  141OSM    H4F15385   5.770   5.185   3.063 -0.2151  0.4481  1.2463
  141OSM    H4G15386   5.639   5.078   3.034 -0.8781 -0.6692  0.9272
  141OSM    C5F15387   5.578   5.265   3.128  0.5478 -0.3384  0.2086
  141OSM    H5F15388   5.471   5.251   3.099  0.8914  1.0578 -1.9850
  141OSM    H5G15389   5.606   5.372   3.123  1.1923 -0.5283 -0.4703
  141OSM    C6F15390   5.595   5.228   3.276 -0.5274 -0.0363  0.3740
  141OSM    H6F15391   5.696   5.262   3.306 -1.1193  0.3195  2.0381
  141OSM    H6G15392   5.585   5.118   3.291  1.2698 -0.7673 -2.8746
  141OSM    C7F15393   5.484   5.291   3.356 -0.4466 -0.2555 -0.9623
  141OSM    H7F15394   5.378   5.273   3.329 -0.9454 -0.1993  0.8237
  141OSM    H7G15395   5.507   5.400   3.361 -1.2610 -0.1072 -0.2533
  141OSM    C8F15396   5.505   5.233   3.500 -0.1948 -0.4827 -0.0607
  141OSM    H8F15397   5.519   5.123   3.489  0.3561 -0.5702  1.2752
  141OSM    H8G15398   5.412   5.252   3.556 -1.2664 -4.4986 -0.1570
  141OSM    C9F15399   5.634   5.280   3.568  1.1169 -0.2565  0.3140
  141OSM    H9F15400   5.725   5.272   3.506  0.5809  0.2554 -0.5521
  141OSM   C10F15401   5.639   5.344   3.685 -0.2675 -0.2747 -0.4840
  141OSM   H10F15402   5.731   5.388   3.727  0.2489 -2.5379  0.9250
  141OSM   C11F15403   5.523   5.352   3.783 -0.4810 -0.2151  0.5533
  141OSM   H11F15404   5.438   5.393   3.724  0.9680  1.4285 -0.4778
  141OSM   H11G15405   5.539   5.434   3.856  1.3903  0.5202 -0.6367
  141OSM   C12F15406   5.492   5.231   3.868  0.0145 -0.5037  0.3872
  141OSM   H12F15407   5.523   5.140   3.812  3.0079 -1.1192  2.7642
  141OSM   H12G15408   5.382   5.228   3.887 -0.4825 -3.3936 -2.1610
  141OSM   C13F15409   5.577   5.218   3.997  0.2519 -0.1963  0.1301
  141OSM   H13F15410   5.674   5.272   4.004 -0.4819  1.1097  0.6557
  141OSM   H13G15411   5.589   5.110   4.017  0.0008  0.1675  2.5954
  141OSM   C14F15412   5.502   5.272   4.121  0.3951  0.0568  0.7537
  141OSM   H14F15413   5.394   5.247   4.112  1.2930 -4.1741  0.0694
  141OSM   H14G15414   5.507   5.383   4.119  0.1260  0.0670 -0.4511
  141OSM   C15F15415   5.563   5.227   4.254 -0.4292 -0.0529 -0.4891
  141OSM   H15F15416   5.673   5.234   4.237 -0.8119  1.9009 -2.6368
  141OSM   H15G15417   5.549   5.118   4.272 -1.1514  0.0116 -0.6281
  141OSM   C16F15418   5.516   5.311   4.374  0.1060  0.0784  0.7956
  141OSM   H16F15419   5.408   5.331   4.364  0.7283  3.9484  0.2024
  141OSM   H16G15420   5.555   5.415   4.370  0.4559  0.1248  3.4036
  141OSM   C17F15421   5.561   5.254   4.514 -0.2611 -1.1349  0.2698
  141OSM   H17F15422   5.485   5.178   4.541 -1.6478 -0.8630 -2.6020
  141OSM   H17G15423   5.539   5.337   4.585  2.4032  0.1137 -0.2306
  141OSM   C18F15424   5.702   5.190   4.522 -0.2225 -0.8906  0.3481
  141OSM   H18F15425   5.779   5.267   4.500 -1.4493  0.3355  0.1750
  141OSM   H18G15426   5.704   5.106   4.450  1.8079 -0.8319  0.2767
  141OSM   H18H15427   5.741   5.149   4.618  0.4865  0.2051  0.5436
  142OSM      N15428   0.751   1.004   1.752 -0.4393  0.5509 -0.0868
  142OSM    C1515429   0.898   0.997   1.792 -0.3245  0.3867 -0.0458
  142OSM   H15A15430   0.911   0.955   1.891 -0.9258  0.3322  0.0155
  142OSM   H15B15431   0.942   1.096   1.797  1.3083 -0.3687  1.3829
  142OSM   H15C15432   0.950   0.929   1.727  1.0136  0.7441  0.6273
  142OSM    C1415433   0.738   1.074   1.613 -0.1217  0.1772 -0.2690
  142OSM   H14A15434   0.636   1.079   1.576  0.6731 -0.7054 -2.7720
  142OSM   H14B15435   0.794   1.013   1.545 -0.3836 -2.6417  1.8478
  142OSM   H14C15436   0.769   1.177   1.617 -0.0377  0.1439 -0.0219
  142OSM    C1315437   0.702   0.861   1.746 -0.2417  1.0001  0.0797
  142OSM   H13A15438   0.741   0.803   1.663 -2.0663 -1.9066  1.0778
  142OSM   H13B15439   0.595   0.870   1.733 -0.2237  1.0118 -0.0657
  142OSM   H13C15440   0.738   0.813   1.836  1.4440  1.0316 -0.5378
  142OSM    C1215441   0.676   1.079   1.864  0.0722  0.2973 -0.3096
  142OSM   H12A15442   0.580   1.111   1.827  0.2142  1.8338  0.5682
  142OSM   H12B15443   0.738   1.167   1.876 -0.9731  1.1262 -0.9047
  142OSM    C1115444   0.658   1.020   2.010  0.4909 -1.0309 -0.7705
  142OSM   H11A15445   0.635   0.912   2.020  0.5520 -0.9415  0.4526
  142OSM   H11B15446   0.567   1.074   2.043  1.3851 -0.7769  1.4185
  142OSM      P15447   0.788   1.195   2.171 -0.3377  0.3146 -0.2156
  142OSM    O1315448   0.888   1.167   2.269  0.3405  0.0474 -0.2403
  142OSM    O1415449   0.816   1.307   2.075  0.3775 -0.1911  0.2353
  142OSM    O1115450   0.653   1.225   2.242 -0.4549 -0.1634  0.0608
  142OSM    O1215451   0.764   1.062   2.090  0.0407 -0.4252 -0.3339
  142OSM    C1S15452   0.608   1.146   2.351  1.1642  0.6046 -0.3276
  142OSM    H1S15453   0.679   1.067   2.387 -0.3520 -1.0930 -0.8910
  142OSM    H1T15454   0.528   1.081   2.309  1.1615  1.2271 -1.3090
  142OSM     NF15455   0.521   1.118   2.578  0.2064 -0.2211  0.5633
  142OSM    HNF15456   0.428   1.083   2.588  0.4433 -0.2429  3.5908
  142OSM    C2S15457   0.551   1.222   2.471  0.5125  0.7528  0.2590
  142OSM    H2S15458   0.637   1.281   2.508  0.5268  0.5833  0.5017
  142OSM    C3S15459   0.430   1.311   2.426  0.2013 -0.2153  0.6224
  142OSM    H3S15460   0.348   1.240   2.401  1.1505 -1.7748  1.7746
  142OSM     O315461   0.446   1.381   2.305 -0.6096 -0.8513 -0.0143
  142OSM    HO315462   0.538   1.364   2.285  0.2423  1.0533  1.9279
  142OSM    C4S15463   0.386   1.388   2.546  0.2907 -0.0482  0.7079
  142OSM    H4S15464   0.296   1.349   2.597  0.1789  0.6877  1.0768
  142OSM    C5S15465   0.443   1.505   2.590 -0.4801  0.4836 -0.1071
  142OSM    H5S15466   0.530   1.536   2.531 -1.0876  0.9706 -0.7745
  142OSM    C6S15467   0.409   1.594   2.708 -0.7421  0.5019  0.1569
  142OSM    H6S15468   0.448   1.694   2.678 -1.5927  0.4216 -1.2936
  142OSM    H6T15469   0.459   1.563   2.802 -2.0629  2.0624  1.4460
  142OSM    C7S15470   0.259   1.594   2.752 -0.1360  0.4072 -0.1274
  142OSM    H7S15471   0.249   1.492   2.795  0.2072  1.3708  2.4466
  142OSM    H7T15472   0.196   1.601   2.661  2.1038 -1.2247 -1.9333
  142OSM    C8S15473   0.218   1.686   2.866  0.4958  0.4074 -0.8894
  142OSM    H8S15474   0.284   1.666   2.953 -0.4664  1.5016  0.1225
  142OSM    H8T15475   0.113   1.669   2.896  0.4731  0.5581 -0.8810
  142OSM    C9S15476   0.229   1.831   2.834  0.5228 -0.8318  0.6847
  142OSM    H9S15477   0.161   1.865   2.753  1.7861  0.8159  0.2637
  142OSM    H9T15478   0.335   1.861   2.820 -0.2305  1.0365 -1.5878
  142OSM   C10S15479   0.186   1.925   2.947 -0.4181 -0.5196  0.1576
  142OSM   H10S15480   0.092   1.878   2.982 -0.0483  0.4130  2.5677
  142OSM   H10T15481   0.154   2.024   2.907 -0.8223 -0.5466  0.4104
  142OSM   C11S15482   0.284   1.944   3.059 -0.4505 -0.7746  0.0280
  142OSM   H11S15483   0.392   1.954   3.035 -0.6068  0.5907 -0.2180
  142OSM   H11T15484   0.290   1.851   3.118  0.9364 -0.2609  0.7374
  142OSM   C12S15485   0.241   2.047   3.171  0.6039 -0.7539  0.0269
  142OSM   H12S15486   0.147   2.017   3.221  0.5652 -2.0872 -0.7988
  142OSM   H12T15487   0.224   2.151   3.137 -4.3076 -0.8108  1.5048
  142OSM   C13S15488   0.344   2.048   3.286 -0.5301 -0.0090  0.6560
  142OSM   H13S15489   0.437   2.090   3.240 -0.9798 -0.6117 -0.8666
  142OSM   H13T15490   0.364   1.945   3.323  0.0178  0.7210  2.5027
  142OSM   C14S15491   0.310   2.141   3.399 -0.0346 -0.2127 -0.5207
  142OSM   H14S15492   0.244   2.087   3.470  1.9120  1.7207  2.9776
  142OSM   H14T15493   0.247   2.226   3.364  1.2256  0.2345 -1.8114
  142OSM   C15S15494   0.433   2.205   3.475 -0.3115  0.9265  1.0789
  142OSM   H15S15495   0.464   2.292   3.414  2.1401  0.3739  1.4514
  142OSM   H15T15496   0.525   2.142   3.479  1.4059  3.2537  0.2609
  142OSM   C16S15497   0.386   2.270   3.613 -0.8855  0.7957  0.1133
  142OSM   H16S15498   0.297   2.336   3.601 -1.5018  0.0465  0.5040
  142OSM   H16T15499   0.473   2.333   3.644  0.0578 -0.7440  0.7370
  142OSM   C17S15500   0.352   2.164   3.725 -0.0435 -0.0563  0.5569
  142OSM   H17S15501   0.417   2.074   3.713 -1.1112 -0.9786  1.4630
  142OSM   H17T15502   0.249   2.129   3.707  0.5609 -2.0740  0.7350
  142OSM   C18S15503   0.376   2.210   3.873 -0.0508  0.4059 -0.2107
  142OSM   H18S15504   0.310   2.298   3.886 -0.6576  0.0714 -0.9255
  142OSM   H18T15505   0.485   2.229   3.881 -0.1612  1.5473 -1.1933
  142OSM   H18U15506   0.348   2.139   3.954 -0.6697  1.2492  0.3213
  142OSM    C1F15507   0.619   1.087   2.663 -0.0787 -0.0587 -0.4089
  142OSM     OF15508   0.736   1.122   2.643  0.4773  0.7129 -0.0792
  142OSM    C2F15509   0.593   1.014   2.793  0.2606  0.2286  0.1160
  142OSM    H2F15510   0.535   0.923   2.768 -2.4280  2.1991 -1.3649
  142OSM    H2G15511   0.525   1.072   2.860 -0.3825 -0.8715  0.4473
  142OSM    C3F15512   0.722   0.995   2.881  0.3383 -0.1286  0.2137
  142OSM    H3F15513   0.773   1.093   2.891  1.4354 -0.6501 -0.1182
  142OSM    H3G15514   0.788   0.922   2.829  2.5561  0.2322  2.3879
  142OSM    C4F15515   0.680   0.944   3.017  0.1958 -0.1749 -0.1121
  142OSM    H4F15516   0.766   0.893   3.065 -0.2980 -0.3608  0.5951
  142OSM    H4G15517   0.594   0.876   3.003 -0.8904  1.0885  0.2304
  142OSM    C5F15518   0.627   1.057   3.117 -0.3978  0.6173  0.0703
  142OSM    H5F15519   0.531   1.098   3.078 -0.4859  0.2604 -0.0994
  142OSM    H5G15520   0.699   1.141   3.112 -0.1247  0.5095  1.7453
  142OSM    C6F15521   0.606   1.004   3.259 -0.3923 -0.2992  0.1505
  142OSM    H6F15522   0.698   0.957   3.300  1.6181  2.0881 -1.3534
  142OSM    H6G15523   0.525   0.928   3.260 -0.7604  0.0877 -0.1407
  142OSM    C7F15524   0.566   1.120   3.356  0.1241 -0.1552 -0.5229
  142OSM    H7F15525   0.508   1.196   3.299 -0.9532  0.2951  1.1020
  142OSM    H7G15526   0.660   1.171   3.389  0.6263  1.0147 -3.4296
  142OSM    C8F15527   0.488   1.069   3.476  0.5148 -0.0799 -0.0499
  142OSM    H8F15528   0.401   1.010   3.441  0.0041 -0.0898  1.1858
  142OSM    H8G15529   0.458   1.158   3.535 -0.5395  0.5894 -1.5384
  142OSM    C9F15530   0.565   0.988   3.576 -0.9821  0.3330 -0.2196
  142OSM    H9F15531   0.614   0.901   3.532  0.3201 -0.0005  1.7757
  142OSM   C10F15532   0.575   1.008   3.713 -0.5600  0.4829  0.2638
  142OSM   H10F15533   0.640   0.944   3.775  1.1542  2.7349  0.9494
  142OSM   C11F15534   0.515   1.121   3.799  0.2320 -0.8441  0.0728
  142OSM   H11F15535   0.450   1.191   3.742 -0.3397 -0.5959  0.9938
  142OSM   H11G15536   0.595   1.181   3.849 -1.3325  1.5780 -0.1847
  142OSM   C12F15537   0.425   1.064   3.908 -0.5523  0.0335  0.2459
  142OSM   H12F15538   0.492   1.010   3.979 -0.5187  0.2371  0.3683
  142OSM   H12G15539   0.350   0.994   3.866 -1.9908  1.2742  0.6485
  142OSM   C13F15540   0.348   1.169   3.981 -0.0427 -0.3243  0.0300
  142OSM   H13F15541   0.267   1.213   3.919 -0.5860  0.3679  1.2032
  142OSM   H13G15542   0.416   1.256   3.996 -0.5804  0.1555 -0.2396
  142OSM   C14F15543   0.284   1.137   4.114  0.1579 -0.2381  0.2920
  142OSM   H14F15544   0.255   1.235   4.158 -0.1517 -0.9370  1.6982
  142OSM   H14G15545   0.349   1.088   4.190  0.6297 -0.3054 -0.1534
  142OSM   C15F15546   0.155   1.059   4.091 -0.0750 -0.1592  0.3548
  142OSM   H15F15547   0.177   0.960   4.045  3.5640  0.7532 -0.0992
  142OSM   H15G15548   0.076   1.113   4.036 -2.7494 -2.0370  2.0642
  142OSM   C16F15549   0.093   1.024   4.230 -0.0750  0.9060 -0.2755
  142OSM   H16F15550   0.125   1.103   4.301 -0.1669  2.4360 -1.8614
  142OSM   H16G15551   0.131   0.927   4.267 -1.2618  0.9645  1.2053
  142OSM   C17F15552  -0.057   1.001   4.224 -0.2503  0.8365 -0.0062
  142OSM   H17F15553  -0.102   1.086   4.169 -0.9085  0.0987 -0.6320
  142OSM   H17G15554  -0.091   0.991   4.330  2.7877  0.4612  1.0406
  142OSM   C18F15555  -0.109   0.883   4.144  0.1173  0.2044 -0.2141
  142OSM   H18F15556  -0.084   0.788   4.195  0.4088 -0.0675 -0.8609
  142OSM   H18G15557  -0.054   0.904   4.050 -0.2955 -0.9597 -0.7338
  142OSM   H18H15558  -0.217   0.895   4.122 -0.3504  0.6424  2.0085
  143OSM      N15559   6.041   6.826   1.973 -0.8718  0.0954  0.2916
  143OSM    C1515560   5.972   6.722   1.899  0.0163  0.3466  0.4439
  143OSM   H15A15561   5.973   6.734   1.792  0.1286  1.1907  0.5329
  143OSM   H15B15562   5.873   6.710   1.940 -0.4941  0.8461 -0.6063
  143OSM   H15C15563   6.023   6.628   1.916 -0.1555 -0.4010 -2.5368
  143OSM    C1415564   6.186   6.819   1.926  0.1804  0.4984  0.4742
  143OSM   H14A15565   6.243   6.898   1.973  0.2474  1.4266 -1.0912
  143OSM   H14B15566   6.198   6.823   1.819 -0.6738 -0.5506  0.3277
  143OSM   H14C15567   6.218   6.723   1.963  2.0548  0.4265 -1.1452
  143OSM    C1315568   5.984   6.956   1.937  0.5980 -0.4962  0.6382
  143OSM   H13A15569   6.036   7.044   1.973 -0.3188 -0.1605  1.1817
  143OSM   H13B15570   5.890   6.966   1.989 -0.4950 -1.6459 -1.0013
  143OSM   H13C15571   5.954   6.967   1.834 -0.6569 -3.2055  0.6398
  143OSM    C1215572   6.035   6.813   2.126 -0.0671  0.4552  0.1499
  143OSM   H12A15573   5.935   6.831   2.163  0.9925  3.0646  2.0677
  143OSM   H12B15574   6.085   6.899   2.168  0.6792  0.8035 -1.3830
  143OSM    C1115575   6.099   6.683   2.184 -0.2874  0.0545  0.2911
  143OSM   H11A15576   6.112   6.702   2.293 -2.8078 -1.7286  1.0042
  143OSM   H11B15577   6.202   6.676   2.144  1.7933  2.4624  4.4454
  143OSM      P15578   5.925   6.490   2.254  0.1803 -0.3577 -0.3537
  143OSM    O1315579   5.798   6.555   2.233  0.0767 -0.5054  0.5830
  143OSM    O1415580   5.929   6.342   2.245 -0.4410  0.3295  0.2405
  143OSM    O1115581   5.976   6.524   2.398 -0.5536 -0.2532 -0.0537
  143OSM    O1215582   6.029   6.557   2.158  0.0750  0.2005  0.2424
  143OSM    C1S15583   6.103   6.481   2.453 -0.1122  0.6060  0.6181
  143OSM    H1S15584   6.180   6.557   2.428 -1.0366  1.1515 -0.6668
  143OSM    H1T15585   6.135   6.383   2.413 -0.2948  1.2393 -1.1603
  143OSM     NF15586   6.231   6.476   2.662  0.0182  0.0160 -0.0482
  143OSM    HNF15587   6.299   6.403   2.661  0.1348  0.1218 -1.8152
  143OSM    C2S15588   6.096   6.461   2.605  0.1343 -0.2807 -0.5354
  143OSM    H2S15589   6.030   6.534   2.656 -0.5652 -1.5782  0.4871
  143OSM    C3S15590   6.033   6.321   2.638 -0.0621  0.1667 -0.0751
  143OSM    H3S15591   6.083   6.241   2.581  1.5791  0.5723  0.7362
  143OSM     O315592   5.897   6.316   2.607  0.8614  0.2416  0.3454
  143OSM    HO315593   5.871   6.390   2.553  0.7350 -0.1777 -0.1823
  143OSM    C4S15594   6.043   6.269   2.785  0.8963  1.2857 -0.7012
  143OSM    H4S15595   6.001   6.341   2.856 -1.0550 -0.2250 -0.2446
  143OSM    C5S15596   6.116   6.163   2.825  0.1985  0.1399  0.3870
  143OSM    H5S15597   6.163   6.105   2.745  1.0476 -1.0298  1.6946
  143OSM    C6S15598   6.155   6.124   2.962 -0.1022  1.0345  0.0206
  143OSM    H6S15599   6.265   6.103   2.961 -0.0757  1.1748 -0.0296
  143OSM    H6T15600   6.120   6.020   2.978  1.5378  0.5014  0.3833
  143OSM    C7S15601   6.114   6.209   3.086  0.4539 -0.5850  0.2801
  143OSM    H7S15602   6.009   6.245   3.073  0.2401 -1.2942 -0.0230
  143OSM    H7T15603   6.167   6.305   3.102 -3.9097  1.9387  1.3539
  143OSM    C8S15604   6.123   6.129   3.218 -0.3317 -0.3169 -0.5971
  143OSM    H8S15605   6.227   6.093   3.231 -0.5075 -0.3014  0.9540
  143OSM    H8T15606   6.060   6.037   3.217 -0.3002 -0.3375 -0.7919
  143OSM    C9S15607   6.096   6.212   3.347  0.1328  0.6432  0.3801
  143OSM    H9S15608   5.987   6.232   3.358  0.0880  0.6957 -0.1337
  143OSM    H9T15609   6.143   6.311   3.329  0.5355  0.2604 -0.7163
  143OSM   C10S15610   6.143   6.131   3.463  0.4453  0.0462 -0.7670
  143OSM   H10S15611   6.242   6.081   3.462  0.5141  0.0754  1.3646
  143OSM   H10T15612   6.083   6.039   3.480  1.6407 -0.3439  1.6306
  143OSM   C11S15613   6.142   6.222   3.591 -0.3622 -0.0363 -0.1566
  143OSM   H11S15614   6.054   6.290   3.596 -0.6573 -0.4331  0.0476
  143OSM   H11T15615   6.227   6.293   3.590 -1.9224  2.0872  2.8231
  143OSM   C12S15616   6.139   6.142   3.723  0.2452  0.5918 -0.6215
  143OSM   H12S15617   6.222   6.068   3.724 -0.1247  0.0908 -2.4799
  143OSM   H12T15618   6.043   6.087   3.726 -0.5522  1.9652  0.8811
  143OSM   C13S15619   6.147   6.230   3.845  1.0821 -0.3951 -0.2012
  143OSM   H13S15620   6.064   6.304   3.849  1.9121  0.5578  2.7466
  143OSM   H13T15621   6.241   6.289   3.851  1.5608 -1.2142  0.9329
  143OSM   C14S15622   6.133   6.154   3.985  0.0033 -0.2571 -0.6357
  143OSM   H14S15623   6.142   6.232   4.064 -1.8411  2.2571 -2.7579
  143OSM   H14T15624   6.213   6.077   3.989  0.0863 -0.1482  2.1260
  143OSM   C15S15625   5.996   6.088   4.010 -0.0379 -0.1795 -0.6178
  143OSM   H15S15626   5.985   6.003   3.941 -1.8233  0.5619 -1.3068
  143OSM   H15T15627   5.920   6.167   3.995  1.8489  2.3945  2.0688
  143OSM   C16S15628   5.960   6.048   4.156 -0.0285 -0.2250  0.5981
  143OSM   H16S15629   6.043   5.986   4.197  1.1668  1.7871  1.4013
  143OSM   H16T15630   5.873   5.981   4.150  1.9297 -2.7792 -1.4221
  143OSM   C17S15631   5.950   6.165   4.256 -0.4972  0.0224  0.1847
  143OSM   H17S15632   5.876   6.238   4.216  0.9598  1.5348  0.1672
  143OSM   H17T15633   6.051   6.208   4.270 -0.5804 -0.1959  1.5092
  143OSM   C18S15634   5.915   6.119   4.396  0.6161 -0.6759  0.6749
  143OSM   H18S15635   5.814   6.073   4.398 -0.9819  2.3099 -1.7712
  143OSM   H18T15636   5.909   6.201   4.471  1.7006  0.6203 -0.5869
  143OSM   H18U15637   5.981   6.040   4.437  1.1402  0.2269  1.6013
  143OSM    C1F15638   6.279   6.598   2.685  0.2078 -0.9258 -0.6230
  143OSM     OF15639   6.216   6.694   2.649 -0.2609  0.1177  0.1422
  143OSM    C2F15640   6.416   6.614   2.741  0.5742 -0.0741 -0.5403
  143OSM    H2F15641   6.499   6.580   2.675  0.4082  0.2146 -0.8984
  143OSM    H2G15642   6.427   6.556   2.836  2.5087 -2.3846 -2.0498
  143OSM    C3F15643   6.453   6.765   2.781  0.1257  0.3745  0.5816
  143OSM    H3F15644   6.369   6.823   2.826 -0.4029 -0.7469  1.0768
  143OSM    H3G15645   6.480   6.806   2.681 -3.6475  0.6764 -0.4772
  143OSM    C4F15646   6.566   6.790   2.885 -0.5684  0.1444 -0.1137
  143OSM    H4F15647   6.600   6.895   2.875  0.6992 -0.1609  0.7537
  143OSM    H4G15648   6.648   6.719   2.860 -0.9548 -0.3060 -0.1193
  143OSM    C5F15649   6.531   6.752   3.034  0.5472 -0.4155  0.5754
  143OSM    H5F15650   6.486   6.650   3.033  0.5235 -0.4092  1.0041
  143OSM    H5G15651   6.462   6.833   3.064  0.9226  0.3916 -0.6733
  143OSM    C6F15652   6.648   6.750   3.135  0.6496 -0.1876 -0.1166
  143OSM    H6F15653   6.702   6.847   3.138  0.0618  0.1239  0.6769
  143OSM    H6G15654   6.724   6.677   3.100  0.2321 -0.6790 -0.0171
  143OSM    C7F15655   6.598   6.716   3.281  0.0564 -0.8148 -0.2967
  143OSM    H7F15656   6.680   6.670   3.341  0.9337  3.3994  2.0950
  143OSM    H7G15657   6.510   6.649   3.270  1.1168 -2.1432 -0.9985
  143OSM    C8F15658   6.539   6.842   3.353 -0.3853 -0.1029 -0.5685
  143OSM    H8F15659   6.494   6.801   3.446 -0.6935 -0.6380 -0.9454
  143OSM    H8G15660   6.462   6.892   3.292  0.8082  0.9702 -1.2393
  143OSM    C9F15661   6.645   6.942   3.399 -0.6282  0.6522  0.3329
  143OSM    H9F15662   6.643   7.033   3.339 -1.6786  1.0158  0.8884
  143OSM   C10F15663   6.733   6.936   3.503  0.2628  0.3414 -0.5475
  143OSM   H10F15664   6.804   7.019   3.517  0.2128  0.5463 -1.4343
  143OSM   C11F15665   6.742   6.817   3.595 -0.0475  0.4290 -0.1040
  143OSM   H11F15666   6.849   6.807   3.621  0.0425 -0.4910 -0.7627
  143OSM   H11G15667   6.699   6.728   3.544 -2.2910  1.8588 -0.8501
  143OSM   C12F15668   6.658   6.837   3.721  0.1257  0.3583 -0.0996
  143OSM   H12F15669   6.551   6.826   3.692  0.2066  2.1923 -1.2681
  143OSM   H12G15670   6.661   6.944   3.748 -1.6233  0.6705 -0.9940
  143OSM   C13F15671   6.703   6.741   3.828  0.0675 -0.2280  0.5034
  143OSM   H13F15672   6.813   6.740   3.844  0.0681  0.6649  0.5857
  143OSM   H13G15673   6.685   6.642   3.780 -1.2408  1.0293 -1.7571
  143OSM   C14F15674   6.628   6.763   3.963 -0.6359  0.2575  0.0174
  143OSM   H14F15675   6.524   6.733   3.938  0.0397 -0.6525 -1.8782
  143OSM   H14G15676   6.635   6.865   4.007 -2.1472 -0.2281  1.4684
  143OSM   C15F15677   6.694   6.673   4.075 -0.0017  0.3344 -0.2768
  143OSM   H15F15678   6.804   6.688   4.075  0.1121 -0.3679  1.0177
  143OSM   H15G15679   6.656   6.570   4.061  2.9681 -0.5509 -3.0585
  143OSM   C16F15680   6.657   6.718   4.221  0.1103 -0.4693  0.3512
  143OSM   H16F15681   6.683   6.824   4.238 -2.0961 -0.0959  1.9011
  143OSM   H16G15682   6.732   6.665   4.284  0.2693 -0.1617  0.4239
  143OSM   C17F15683   6.520   6.695   4.275  0.1308 -0.1121  0.0024
  143OSM   H17F15684   6.472   6.595   4.264 -1.5222  0.8267 -2.0595
  143OSM   H17G15685   6.450   6.760   4.218 -0.0879 -1.4078 -1.2807
  143OSM   C18F15686   6.510   6.729   4.423 -0.1989 -0.1958  0.6395
  143OSM   H18F15687   6.534   6.836   4.442 -2.4196  0.4548  0.1114
  143OSM   H18G15688   6.582   6.665   4.478  0.2946 -0.6516 -0.5080
  143OSM   H18H15689   6.412   6.698   4.466 -0.8076  0.1947 -0.4219
  144OSM      N15690   5.160   0.554   2.366 -0.2298  0.0230 -0.3947
  144OSM    C1515691   5.253   0.657   2.426 -0.6734  0.0296 -0.3164
  144OSM   H15A15692   5.239   0.755   2.382  1.1170 -0.4365 -2.0148
  144OSM   H15B15693   5.354   0.623   2.409 -0.0544  0.0395  2.8044
  144OSM   H15C15694   5.234   0.666   2.532  1.7999  3.0091  0.0126
  144OSM    C1415695   5.043   0.637   2.307  0.7392 -0.0406 -0.0939
  144OSM   H14A15696   5.004   0.714   2.371  2.2685  1.5596 -0.9793
  144OSM   H14B15697   4.968   0.576   2.259  0.2181 -0.0676  0.7300
  144OSM   H14C15698   5.074   0.694   2.220 -1.1091 -1.8043 -2.0290
  144OSM    C1315699   5.242   0.487   2.260  0.8239 -0.2823  0.2055
  144OSM   H13A15700   5.279   0.566   2.196  0.3510  1.5050  2.0066
  144OSM   H13B15701   5.184   0.414   2.206 -0.0913  0.5131  0.0894
  144OSM   H13C15702   5.328   0.436   2.300  0.4540 -0.9023  0.2104
  144OSM    C1215703   5.102   0.460   2.464  0.9690  0.1964  0.3474
  144OSM   H12A15704   5.026   0.413   2.404  2.5250 -1.1669 -0.6443
  144OSM   H12B15705   5.051   0.523   2.536 -1.2236 -1.6953  0.5310
  144OSM    C1115706   5.193   0.356   2.540 -0.6479  0.4867 -0.7905
  144OSM   H11A15707   5.129   0.305   2.615 -1.1518  0.6638 -1.0957
  144OSM   H11B15708   5.280   0.403   2.592 -0.0901 -2.1057  0.7832
  144OSM      P15709   5.169   0.120   2.418 -0.0630  0.3532  0.0959
  144OSM    O1315710   5.027   0.141   2.367  0.2085 -0.6840 -0.0423
  144OSM    O1415711   5.258   0.044   2.328 -0.5201  0.7090  0.3326
  144OSM    O1115712   5.162   0.061   2.552  0.6253 -0.0850  0.0464
  144OSM    O1215713   5.241   0.258   2.444  0.4818 -0.4920 -0.2555
  144OSM    C1S15714   5.275   0.001   2.616 -0.2322  0.0340  0.2267
  144OSM    H1S15715   5.369   0.015   2.558 -1.3712 -0.5024 -1.8653
  144OSM    H1T15716   5.258  -0.108   2.630 -0.9716 -0.1885 -1.9776
  144OSM     NF15717   5.414   0.011   2.830 -0.4857  0.7330  0.3437
  144OSM    HNF15718   5.405  -0.052   2.906  1.6687 -1.1796 -0.8767
  144OSM    C2S15719   5.298   0.067   2.759 -0.0831  0.2883  0.3873
  144OSM    H2S15720   5.310   0.176   2.747 -0.1940  0.5158  2.0262
  144OSM    C3S15721   5.166   0.057   2.853  0.5372  0.1904  0.0748
  144OSM    H3S15722   5.151  -0.052   2.871  1.3722 -0.4309 -2.5688
  144OSM     O315723   5.048   0.112   2.805  0.0728  0.2252  0.4408
  144OSM    HO315724   5.059   0.124   2.710 -2.6169 -0.5751 -0.0502
  144OSM    C4S15725   5.199   0.118   2.987  0.1493 -0.4857  0.5223
  144OSM    H4S15726   5.251   0.215   2.983  1.1193 -1.0383 -0.7298
  144OSM    C5S15727   5.177   0.063   3.107 -0.4198  0.4611 -0.3732
  144OSM    H5S15728   5.129  -0.034   3.126 -1.4483  1.0099 -0.0890
  144OSM    C6S15729   5.211   0.123   3.241  0.0621  0.0505 -0.5357
  144OSM    H6S15730   5.252   0.041   3.303 -2.4702  0.2976  1.6248
  144OSM    H6T15731   5.112   0.148   3.285  1.3715  0.8772  2.1439
  144OSM    C7S15732   5.317   0.235   3.251  0.1934 -0.6183 -0.1026
  144OSM    H7S15733   5.281   0.329   3.205  0.5510 -1.2030 -1.6321
  144OSM    H7T15734   5.402   0.195   3.192 -0.8364 -4.3119  0.6862
  144OSM    C8S15735   5.361   0.260   3.395  0.5006 -0.5894 -1.2691
  144OSM    H8S15736   5.424   0.350   3.414  1.5255 -1.6169  0.3874
  144OSM    H8T15737   5.406   0.167   3.434 -0.7282 -0.8647 -0.4622
  144OSM    C9S15738   5.231   0.281   3.482 -0.3108  0.3719 -0.0866
  144OSM    H9S15739   5.179   0.189   3.514  1.2512 -0.2667  0.7256
  144OSM    H9T15740   5.150   0.323   3.419  0.2875 -0.2728 -1.3174
  144OSM   C10S15741   5.238   0.387   3.594 -0.9672  0.2931  0.1615
  144OSM   H10S15742   5.146   0.402   3.653  0.2331  2.5722  1.5949
  144OSM   H10T15743   5.274   0.486   3.559  0.4018 -0.3956 -0.4864
  144OSM   C11S15744   5.346   0.341   3.697 -0.3330  0.2941  0.1319
  144OSM   H11S15745   5.325   0.408   3.783 -1.5800  1.7840 -1.2674
  144OSM   H11T15746   5.453   0.348   3.666 -0.2709  0.2746  0.3394
  144OSM   C12S15747   5.315   0.201   3.739 -0.1478  0.5581 -0.7233
  144OSM   H12S15748   5.343   0.128   3.660 -4.9383 -0.6135 -1.6894
  144OSM   H12T15749   5.207   0.182   3.758  0.0138 -0.1736 -0.4880
  144OSM   C13S15750   5.384   0.163   3.875  0.0052 -0.6903  0.1182
  144OSM   H13S15751   5.493   0.177   3.863  0.5812 -1.4580  3.2615
  144OSM   H13T15752   5.358   0.055   3.889 -1.3450 -0.5046 -0.8025
  144OSM   C14S15753   5.344   0.263   3.987 -0.0087  0.4565 -0.1620
  144OSM   H14S15754   5.238   0.294   3.976  0.1938  2.6135  2.6448
  144OSM   H14T15755   5.413   0.350   3.978  0.3769  0.0668 -1.0374
  144OSM   C15S15756   5.367   0.190   4.117  0.0652 -0.6935 -0.1286
  144OSM   H15S15757   5.445   0.111   4.110 -0.0470 -0.8334  0.2345
  144OSM   H15T15758   5.272   0.135   4.132 -0.8975  1.0499  0.3977
  144OSM   C16S15759   5.398   0.281   4.237 -0.1613  0.0447  0.2869
  144OSM   H16S15760   5.303   0.321   4.277 -0.2785  0.1087 -0.0593
  144OSM   H16T15761   5.454   0.368   4.197 -1.5801  0.0223 -1.8875
  144OSM   C17S15762   5.484   0.203   4.335 -0.0516  0.9947 -0.1468
  144OSM   H17S15763   5.590   0.200   4.299  0.4934 -2.0881  1.3834
  144OSM   H17T15764   5.439   0.103   4.350 -1.6773  1.6497 -0.4319
  144OSM   C18S15765   5.488   0.273   4.473 -0.4979 -0.0434 -0.0323
  144OSM   H18S15766   5.540   0.371   4.466 -1.1885  0.2218 -2.4710
  144OSM   H18T15767   5.553   0.222   4.547 -3.4038 -1.1788  1.9158
  144OSM   H18U15768   5.387   0.292   4.516  0.2432 -1.7353  2.6411
  144OSM    C1F15769   5.536   0.022   2.784  0.2828 -0.2468 -0.5984
  144OSM     OF15770   5.566   0.109   2.705 -0.1607  0.1918 -0.0318
  144OSM    C2F15771   5.643  -0.055   2.858 -0.5296 -0.2988  0.2143
  144OSM    H2F15772   5.644  -0.156   2.811 -0.4391 -0.5120  0.6650
  144OSM    H2G15773   5.613  -0.064   2.965 -0.2898  1.2989  0.4303
  144OSM    C3F15774   5.790  -0.008   2.840  0.0133 -0.5446  0.1439
  144OSM    H3F15775   5.822   0.076   2.905  0.9216 -0.2926 -0.6227
  144OSM    H3G15776   5.809   0.029   2.738  0.3546  0.5229  0.5855
  144OSM    C4F15777   5.886  -0.116   2.877 -0.0613  0.1960 -0.2282
  144OSM    H4F15778   5.991  -0.081   2.867  0.1448 -0.4876 -0.4580
  144OSM    H4G15779   5.867  -0.210   2.822  1.7488 -0.9967  1.0704
  144OSM    C5F15780   5.878  -0.153   3.032  0.1496 -0.4522  0.3884
  144OSM    H5F15781   5.773  -0.183   3.052  0.2578 -0.1721  1.4193
  144OSM    H5G15782   5.909  -0.061   3.084  0.0697 -0.4871  0.4988
  144OSM    C6F15783   5.965  -0.267   3.079 -0.4247 -0.5849 -0.4780
  144OSM    H6F15784   5.924  -0.357   3.029  2.0788 -1.1890 -1.6039
  144OSM    H6G15785   5.947  -0.284   3.187 -0.8370  0.4023 -0.3759
  144OSM    C7F15786   6.125  -0.249   3.053 -0.1148  0.0819  0.0343
  144OSM    H7F15787   6.140  -0.156   2.993 -2.7384  0.1520 -0.6302
  144OSM    H7G15788   6.146  -0.333   2.984  2.3950  0.6597  0.0093
  144OSM    C8F15789   6.211  -0.269   3.179 -0.1393  0.6012  0.2904
  144OSM    H8F15790   6.315  -0.296   3.150  0.4408  1.0502  1.8410
  144OSM    H8G15791   6.162  -0.352   3.235 -1.3014  1.1985  0.2007
  144OSM    C9F15792   6.198  -0.144   3.261 -0.1591  0.4467  0.3307
  144OSM    H9F15793   6.263  -0.068   3.215  2.7301 -1.8449  0.3311
  144OSM   C10F15794   6.133  -0.120   3.374 -0.3473 -0.0726  0.2187
  144OSM   H10F15795   6.130  -0.016   3.410  1.8183  0.7106 -1.5882
  144OSM   C11F15796   6.056  -0.214   3.455  0.3940  0.6662 -0.3107
  144OSM   H11F15797   6.032  -0.306   3.398  1.7089 -0.2997  0.6043
  144OSM   H11G15798   5.962  -0.168   3.493  1.3501  2.6754 -0.2512
  144OSM   C12F15799   6.134  -0.259   3.584  0.2239 -0.1246 -0.1676
  144OSM   H12F15800   6.237  -0.296   3.568  0.7944  0.0652  2.5558
  144OSM   H12G15801   6.076  -0.345   3.625  0.0906  0.0680  0.0510
  144OSM   C13F15802   6.153  -0.140   3.678  0.2677  0.2719  0.0445
  144OSM   H13F15803   6.050  -0.104   3.700 -0.2642 -0.3042 -1.3371
  144OSM   H13G15804   6.212  -0.061   3.628  0.1966 -0.1715 -0.7645
  144OSM   C14F15805   6.228  -0.173   3.810  0.0535  0.7008 -0.3519
  144OSM   H14F15806   6.262  -0.083   3.866 -1.1560  1.4737 -0.8409
  144OSM   H14G15807   6.317  -0.238   3.792 -1.6968 -1.6926 -0.9178
  144OSM   C15F15808   6.144  -0.250   3.912 -0.0086 -0.3109  0.2833
  144OSM   H15F15809   6.103  -0.332   3.849  0.6960  0.2186 -0.8960
  144OSM   H15G15810   6.052  -0.193   3.938 -1.4082 -1.3757 -1.9845
  144OSM   C16F15811   6.207  -0.302   4.034  0.4979 -0.2117 -0.1187
  144OSM   H16F15812   6.266  -0.218   4.076 -1.1427  0.7716  0.3116
  144OSM   H16G15813   6.286  -0.375   4.007 -0.5606 -1.1934 -0.6590
  144OSM   C17F15814   6.107  -0.346   4.143 -0.3014  0.2068 -0.3124
  144OSM   H17F15815   6.029  -0.411   4.098  0.8285 -2.3544  1.2066
  144OSM   H17G15816   6.052  -0.257   4.180  0.3327 -0.5365  2.7219
  144OSM   C18F15817   6.176  -0.417   4.261 -0.6140 -0.7307 -0.1100
  144OSM   H18F15818   6.256  -0.354   4.305 -1.8535  1.6482 -1.0529
  144OSM   H18G15819   6.224  -0.510   4.224  1.3368  1.2758 -3.0038
  144OSM   H18H15820   6.104  -0.430   4.345  0.7637 -1.4934  0.9862
  145SAPE     N15821   0.945   2.967   6.710 -0.4695 -0.0465 -0.5001
  145SAPE   HN115822   1.048   2.978   6.709 -0.5704  1.0331 -0.3517
  145SAPE   HN215823   0.914   2.934   6.617 -2.7409  0.4073  0.0365
  145SAPE   HN315824   0.899   3.058   6.735  0.0019  0.3321 -0.9891
  145SAPE   C1215825   0.908   2.866   6.811 -1.0882  0.5436  0.1733
  145SAPE  H12A15826   0.806   2.892   6.848 -0.8848 -0.1273  1.2434
  145SAPE  H12B15827   0.967   2.870   6.904 -2.1626 -1.5730  0.9950
  145SAPE   C1115828   0.926   2.722   6.750 -0.1961  0.1310 -0.4508
  145SAPE  H11A15829   0.866   2.650   6.811  0.9094 -1.5959 -1.3244
  145SAPE  H11B15830   1.031   2.696   6.775 -0.8263 -1.7655  0.3982
  145SAPE     P15831   0.957   2.584   6.528 -0.6698 -0.5850 -0.0662
  145SAPE   O1315832   0.989   2.471   6.619  0.0060 -0.3267  0.1896
  145SAPE   O1415833   0.868   2.553   6.415  0.0133 -0.5464 -0.3551
  145SAPE   O1215834   0.899   2.711   6.608  0.5469 -0.2122 -0.1699
  145SAPE   O1115835   1.089   2.651   6.478 -0.4835 -0.3518 -0.1294
  145SAPE    C115836   1.186   2.561   6.420 -0.3365 -0.3794  0.4027
  145SAPE    HA15837   1.277   2.554   6.483  1.8661  2.9237 -2.1080
  145SAPE    HB15838   1.148   2.458   6.399  1.1251 -0.6396 -1.1157
  145SAPE    C215839   1.252   2.612   6.282 -0.4966  0.2972  0.3841
  145SAPE    HS15840   1.259   2.722   6.293  0.6668  0.3137 -0.3328
  145SAPE   O2115841   1.177   2.570   6.166  0.1079 -0.3644 -0.0685
  145SAPE   C2115842   1.078   2.653   6.133 -0.5325  0.3114 -0.4750
  145SAPE   O2215843   1.045   2.749   6.196  0.2975  0.9210  0.2096
  145SAPE   C2215844   1.032   2.620   5.995  0.1583  0.0709  0.4990
  145SAPE   H2R15845   1.115   2.570   5.939  0.9168  1.2314  0.5475
  145SAPE   H2S15846   0.954   2.542   6.011 -1.5011  1.6971  0.6113
  145SAPE    C315847   1.391   2.558   6.266 -0.1923  0.0625 -0.0839
  145SAPE    HX15848   1.383   2.448   6.277 -0.1688  0.1631  1.0966
  145SAPE    HY15849   1.453   2.608   6.344 -1.1827  1.2531 -0.0287
  145SAPE   O3115850   1.441   2.591   6.134  0.3741  0.6757 -0.5076
  145SAPE   C3115851   1.571   2.593   6.129 -0.2220 -0.7638  0.1167
  145SAPE   O3215852   1.643   2.573   6.224 -0.5518 -0.2776  0.1375
  145SAPE   C3215853   1.622   2.612   5.993  0.4971  0.5546  0.3750
  145SAPE   H2X15854   1.731   2.633   5.996  0.3918  1.4687 -1.1043
  145SAPE   H2Y15855   1.563   2.701   5.962 -2.5856 -1.2034  0.7745
  145SAPE   C2315856   0.982   2.750   5.925 -0.2318  0.5836  0.2927
  145SAPE   H3R15857   1.061   2.828   5.932  0.6021 -0.3422  1.8380
  145SAPE   H3S15858   0.892   2.794   5.972 -2.1742 -1.0964 -1.6382
  145SAPE   C2415859   0.941   2.721   5.776 -0.4615 -0.1583  0.4123
  145SAPE   H4R15860   1.026   2.685   5.714 -1.2621  1.0904 -1.4933
  145SAPE   H4S15861   0.911   2.822   5.741  0.0346 -0.5413 -1.1909
  145SAPE   C2515862   0.829   2.615   5.772  0.3179  0.2524  0.4010
  145SAPE   H5R15863   0.760   2.636   5.855  0.5601 -0.3319  0.7564
  145SAPE   C2615864   0.817   2.502   5.697 -0.3841  0.0200  0.5210
  145SAPE   H6R15865   0.731   2.434   5.710 -0.4272 -0.2140 -0.8961
  145SAPE   C2715866   0.924   2.455   5.601  0.4001 -1.4842 -0.1696
  145SAPE   H7R15867   1.021   2.424   5.645  0.2758  1.0020  2.0722
  145SAPE   H7S15868   0.951   2.549   5.548 -2.9967  0.5997  1.4061
  145SAPE   C2815869   0.851   2.354   5.513 -0.8284 -0.2074 -1.1135
  145SAPE   H8R15870   0.859   2.253   5.558 -0.4253 -0.4826 -1.7840
  145SAPE   C2915871   0.809   2.379   5.385  0.0184  0.3911  0.0343
  145SAPE   H9R15872   0.769   2.293   5.329  1.7304 -0.0913 -0.5128
  145SAPE  C21015873   0.817   2.511   5.311 -0.1216  0.7725  0.0547
  145SAPE  H10R15874   0.843   2.600   5.373  2.1733  0.3033 -0.1672
  145SAPE  H10S15875   0.717   2.522   5.263  0.4923 -1.5166 -1.8888
  145SAPE  C21115876   0.930   2.512   5.207  0.6962 -0.1404 -0.2463
  145SAPE  H11R15877   1.032   2.520   5.249  0.3381  0.4864  0.5152
  145SAPE  C21215878   0.915   2.493   5.076  0.0360  0.4112 -0.4314
  145SAPE  H12R15879   1.008   2.501   5.017  1.1604  1.3395  1.3448
  145SAPE  C21315880   0.783   2.462   5.011  1.1702  0.1159 -0.2633
  145SAPE  H13R15881   0.752   2.529   4.928  2.4783 -0.7866 -1.5339
  145SAPE  H13S15882   0.694   2.471   5.077  0.3987 -1.6583 -0.9889
  145SAPE  C21415883   0.806   2.326   4.947 -0.2124  0.4960  0.0065
  145SAPE  H14R15884   0.779   2.243   5.013 -1.0836  1.1535  0.4979
  145SAPE  C21515885   0.857   2.293   4.824 -0.3792  0.0858 -0.3547
  145SAPE  H15R15886   0.852   2.189   4.791  0.3098  0.1756 -0.7622
  145SAPE  C21615887   0.899   2.386   4.716 -0.2278 -0.7277 -0.7876
  145SAPE  H16R15888   0.996   2.348   4.677 -0.0048 -2.4435  1.2848
  145SAPE  H16S15889   0.915   2.490   4.753 -0.2702 -0.7730 -0.6424
  145SAPE  C21715890   0.809   2.395   4.593  0.6390  0.3947 -0.5968
  145SAPE  H17R15891   0.787   2.293   4.553 -3.4860  0.4056  1.1375
  145SAPE  H17S15892   0.858   2.438   4.502 -1.1706 -0.1264 -1.8805
  145SAPE  C21815893   0.675   2.466   4.609  0.0634 -0.5129  0.2992
  145SAPE  H18R15894   0.619   2.438   4.701 -1.2635  0.4007 -0.2051
  145SAPE  H18S15895   0.609   2.449   4.522  1.9317  1.6106 -1.7056
  145SAPE  C21915896   0.697   2.614   4.610  0.2542  0.7387 -0.1355
  145SAPE  H19R15897   0.762   2.653   4.528  2.6055 -0.0177  1.2831
  145SAPE  H19S15898   0.757   2.637   4.701  0.0937  1.5550 -0.2292
  145SAPE  C22015899   0.569   2.693   4.621  0.4304 -0.0502 -0.2433
  145SAPE  H20R15900   0.503   2.668   4.534 -1.2624  0.6289  0.7880
  145SAPE  H20S15901   0.585   2.802   4.633  1.4063 -0.3210  1.0516
  145SAPE  H20T15902   0.511   2.661   4.710  0.2600 -0.7614 -0.5980
  145SAPE   C3315903   1.592   2.487   5.905  0.1382  0.2970  0.0877
  145SAPE   H3X15904   1.490   2.450   5.929 -0.6148  1.6068 -0.9319
  145SAPE   H3Y15905   1.664   2.405   5.925  0.6072 -0.2201 -3.2673
  145SAPE   C3415906   1.601   2.511   5.757 -1.0703 -0.1884  0.5837
  145SAPE   H4X15907   1.527   2.583   5.716 -0.2577 -0.3686 -1.3188
  145SAPE   H4Y15908   1.578   2.419   5.699  0.2346 -1.5067  2.0709
  145SAPE   C3515909   1.745   2.546   5.717  0.2412  0.3128  0.5896
  145SAPE   H5X15910   1.827   2.480   5.754 -1.1332 -1.5402  0.4766
  145SAPE   H5Y15911   1.757   2.650   5.754  2.7787  0.3591 -0.1500
  145SAPE   C3615912   1.760   2.562   5.564  0.2417 -0.0764 -0.3921
  145SAPE   H6X15913   1.765   2.462   5.517 -3.5270  0.0759 -1.3995
  145SAPE   H6Y15914   1.854   2.617   5.542  1.7827 -2.6918 -0.7810
  145SAPE   C3715915   1.650   2.637   5.494  0.8573 -0.0544 -0.2459
  145SAPE   H7X15916   1.634   2.736   5.541 -1.1620 -1.2946  1.8604
  145SAPE   H7Y15917   1.557   2.578   5.508  0.1097  1.1567  0.0487
  145SAPE   C3815918   1.674   2.654   5.347 -0.4243  0.2931  0.7182
  145SAPE   H8X15919   1.687   2.561   5.289  0.6252  0.9570 -0.1484
  145SAPE   H8Y15920   1.768   2.713   5.345  0.2905 -0.7689 -2.2029
  145SAPE   C3915921   1.571   2.746   5.271  0.2988 -0.0201 -0.2755
  145SAPE   H9X15922   1.627   2.786   5.183  2.4348  0.5586  1.2796
  145SAPE   H9Y15923   1.532   2.833   5.328 -0.9060 -0.8740  0.2461
  145SAPE  C31015924   1.437   2.683   5.216  0.1111 -1.1750  0.3907
  145SAPE  H10X15925   1.391   2.652   5.312 -0.4109  0.6856  0.7719
  145SAPE  H10Y15926   1.458   2.596   5.150  0.7918  0.2499 -1.3640
  145SAPE  C31115927   1.365   2.779   5.124 -0.1688 -0.4441 -0.8482
  145SAPE  H11X15928   1.444   2.813   5.054  0.7679  1.5657  1.0602
  145SAPE  H11Y15929   1.350   2.876   5.176  0.8570 -1.9774  2.5461
  145SAPE  C31215930   1.242   2.729   5.052  0.2815  0.2996  0.4752
  145SAPE  H12X15931   1.158   2.714   5.124 -0.3824 -0.2768 -0.4037
  145SAPE  H12Y15932   1.262   2.627   5.014 -0.0449  0.2204  0.5133
  145SAPE  C31315933   1.197   2.812   4.934  0.4624  0.3947  0.5609
  145SAPE  H13X15934   1.287   2.814   4.869  0.0511 -0.0773 -0.0328
  145SAPE  H13Y15935   1.171   2.910   4.978 -3.9915  0.4245 -1.5250
  145SAPE  C31415936   1.069   2.759   4.859 -0.4115 -0.5208  0.1447
  145SAPE  H14X15937   0.986   2.757   4.933  0.4461  1.6880  1.2615
  145SAPE  H14Y15938   1.080   2.654   4.823 -1.6487 -0.3972 -0.6833
  145SAPE  C31515939   1.034   2.852   4.744 -0.2835  0.3484 -0.2699
  145SAPE  H15X15940   1.026   2.955   4.785 -0.5419 -0.0937  0.8151
  145SAPE  H15Y15941   0.941   2.826   4.689  0.7717  0.5831 -2.2794
  145SAPE  C31615942   1.143   2.859   4.633 -0.6630  0.2377  0.2126
  145SAPE  H16X15943   1.231   2.922   4.662  0.0152  0.8763 -2.8863
  145SAPE  H16Y15944   1.089   2.896   4.544 -0.8306 -1.9974 -0.6663
  145SAPE  C31715945   1.192   2.722   4.591  0.0938  0.0903  0.0551
  145SAPE  H17X15946   1.107   2.654   4.611 -0.0115 -0.3564 -1.7519
  145SAPE  H17Y15947   1.282   2.695   4.651 -0.2604 -2.7120 -0.5685
  145SAPE  C31815948   1.212   2.715   4.441 -0.0028  0.3133 -0.2952
  145SAPE  H18X15949   1.116   2.702   4.388 -0.3790 -0.2353  0.5010
  145SAPE  H18Y15950   1.277   2.629   4.413 -0.9368 -0.4191 -0.2479
  145SAPE  H18Z15951   1.264   2.802   4.395  0.4385  0.4313  0.4056
  146SAPE     N15952   4.290   4.895   6.971 -0.7926  0.1121 -0.1213
  146SAPE   HN115953   4.367   4.884   7.040  0.8504 -2.1803 -2.0965
  146SAPE   HN215954   4.250   4.987   6.997 -0.1345  0.2281  0.5260
  146SAPE   HN315955   4.220   4.819   6.983  1.3711 -1.9523  0.3804
  146SAPE   C1215956   4.348   4.889   6.832 -0.0702 -0.4554  0.2017
  146SAPE  H12A15957   4.422   4.971   6.819 -0.8449  0.2486  0.1539
  146SAPE  H12B15958   4.274   4.916   6.754  1.7023  0.1378 -1.3660
  146SAPE   C1115959   4.406   4.751   6.795 -0.3122  0.3404  0.7575
  146SAPE  H11A15960   4.422   4.749   6.685  0.7947  0.1294  0.9134
  146SAPE  H11B15961   4.333   4.671   6.821  0.3243 -0.1458  1.0680
  146SAPE     P15962   4.578   4.567   6.875  0.2133  0.0064 -0.2830
  146SAPE   O1315963   4.720   4.572   6.832 -0.0928 -0.1909 -0.2673
  146SAPE   O1415964   4.557   4.510   7.011 -0.5434 -0.0516 -0.3563
  146SAPE   O1215965   4.529   4.720   6.867 -0.0151  0.0650 -0.0967
  146SAPE   O1115966   4.489   4.488   6.776 -0.0843  0.8822  0.6370
  146SAPE    C115967   4.532   4.490   6.640 -0.1838  0.1013 -0.6336
  146SAPE    HA15968   4.484   4.569   6.578  0.6816  1.6046  0.5502
  146SAPE    HB15969   4.642   4.504   6.629 -0.1047  0.9418  0.9372
  146SAPE    C215970   4.526   4.352   6.581 -0.3190 -0.6466 -0.2886
  146SAPE    HS15971   4.555   4.370   6.475  2.4740  0.4288  0.5595
  146SAPE   O2115972   4.398   4.288   6.598  0.1724  0.0993 -0.0616
  146SAPE   C2115973   4.299   4.339   6.530 -0.0405 -0.4744  0.8920
  146SAPE   O2215974   4.303   4.431   6.451 -0.0192  0.2409  0.2171
  146SAPE   C2215975   4.175   4.273   6.567  0.0690  0.8861 -0.1091
  146SAPE   H2R15976   4.200   4.165   6.571  0.5905  0.9391 -1.4231
  146SAPE   H2S15977   4.141   4.301   6.669  0.0383 -1.1679  0.4963
  146SAPE    C315978   4.629   4.257   6.650  0.6393  0.3005  0.1248
  146SAPE    HX15979   4.595   4.236   6.754 -0.6649  0.6451 -0.2147
  146SAPE    HY15980   4.725   4.311   6.663  1.5900 -0.7326 -2.1779
  146SAPE   O3115981   4.661   4.142   6.572 -0.0437  0.0577 -0.5060
  146SAPE   C3115982   4.597   4.028   6.607  0.6453  0.0377 -0.0605
  146SAPE   O3215983   4.525   4.013   6.704  0.0577 -0.1326  0.1842
  146SAPE   C3215984   4.623   3.919   6.498  0.1274  0.0728 -1.2130
  146SAPE   H2X15985   4.554   3.836   6.525  2.0959 -1.3512 -0.3047
  146SAPE   H2Y15986   4.722   3.871   6.511  0.5039  0.7293 -1.6213
  146SAPE   C2315987   4.061   4.279   6.455 -0.3884  0.6392  0.0150
  146SAPE   H3R15988   4.035   4.381   6.422 -0.1135  1.1396  1.3165
  146SAPE   H3S15989   3.970   4.240   6.505 -1.0004 -2.7086 -3.2046
  146SAPE   C2415990   4.105   4.187   6.342  0.6270  0.0441 -0.2413
  146SAPE   H4R15991   4.121   4.087   6.388 -0.9570 -0.1584 -0.0934
  146SAPE   H4S15992   4.193   4.233   6.292  0.2616 -0.1506 -1.0673
  146SAPE   C2515993   3.987   4.173   6.253  0.3507 -0.7629  0.6470
  146SAPE   H5R15994   3.903   4.124   6.304  1.0917 -1.3993  1.2911
  146SAPE   C2615995   3.966   4.236   6.132 -0.2957  0.3033 -0.1144
  146SAPE   H6R15996   3.879   4.216   6.067  0.6738  0.8908 -1.6316
  146SAPE   C2715997   4.060   4.325   6.061 -0.8691  0.4849  0.0638
  146SAPE   H7R15998   4.030   4.307   5.956 -1.3946 -0.8545  0.4224
  146SAPE   H7S15999   4.166   4.298   6.080 -1.2093 -0.0525  1.3560
  146SAPE   C2816000   4.052   4.468   6.103 -0.2484  0.0371 -0.4913
  146SAPE   H8R16001   4.017   4.484   6.206  0.3074  1.0191 -0.4416
  146SAPE   C2916002   4.084   4.571   6.024 -0.7174 -1.3133 -0.0972
  146SAPE   H9R16003   4.084   4.671   6.069 -0.6099 -0.8798 -1.0424
  146SAPE  C21016004   4.149   4.559   5.886  0.2898  0.3654 -0.4977
  146SAPE  H10R16005   4.110   4.470   5.831 -1.1062  1.2064 -0.9398
  146SAPE  H10S16006   4.253   4.534   5.913  0.9337 -0.8364 -3.6570
  146SAPE  C21116007   4.147   4.682   5.799  0.4193  0.1265  0.3985
  146SAPE  H11R16008   4.176   4.780   5.840 -0.3137  0.6001 -0.1650
  146SAPE  C21216009   4.135   4.676   5.665  0.2732 -1.0691  0.1976
  146SAPE  H12R16010   4.142   4.778   5.623 -0.7637 -0.1277  2.1661
  146SAPE  C21316011   4.136   4.556   5.574  0.1467  0.7385 -0.1658
  146SAPE  H13R16012   4.164   4.466   5.631 -0.8426  0.7991  0.4504
  146SAPE  H13S16013   4.218   4.574   5.501  0.5014  2.3450  0.5879
  146SAPE  C21416014   4.004   4.528   5.505 -0.8768 -0.2927  0.3978
  146SAPE  H14R16015   3.916   4.544   5.569 -1.3418 -3.3395  0.6742
  146SAPE  C21516016   3.988   4.500   5.375 -0.5138 -0.7600 -0.3665
  146SAPE  H15R16017   3.888   4.482   5.333  0.3761  0.8994 -3.4669
  146SAPE  C21616018   4.092   4.482   5.279 -0.0054  0.4583  0.8208
  146SAPE  H16R16019   4.063   4.400   5.210  2.4994  1.0570 -1.0715
  146SAPE  H16S16020   4.195   4.473   5.320  0.0348 -0.4572  0.5527
  146SAPE  C21716021   4.121   4.606   5.187 -0.3044 -0.0811  0.2624
  146SAPE  H17R16022   4.031   4.616   5.123 -0.0478  0.2113 -0.0518
  146SAPE  H17S16023   4.208   4.579   5.123 -1.0910 -1.1283 -0.3903
  146SAPE  C21816024   4.149   4.742   5.250  0.1608  1.5192 -0.3498
  146SAPE  H18R16025   4.230   4.734   5.325 -0.7895  0.3767  0.5839
  146SAPE  H18S16026   4.060   4.778   5.306 -1.0013 -1.3777 -0.1649
  146SAPE  C21916027   4.197   4.862   5.158  0.4180  0.2406 -0.5127
  146SAPE  H19R16028   4.290   4.840   5.102  1.4626  2.3289  0.2937
  146SAPE  H19S16029   4.227   4.951   5.217  0.4842  0.6151 -1.1037
  146SAPE  C22016030   4.095   4.911   5.054 -0.3956 -0.0623 -0.6181
  146SAPE  H20R16031   4.137   4.992   4.991  0.9059 -0.6061 -0.4764
  146SAPE  H20S16032   4.008   4.951   5.110  0.1485  0.0292  0.1873
  146SAPE  H20T16033   4.052   4.836   4.985 -0.9919 -0.4690  0.1787
  146SAPE   C3316034   4.611   3.971   6.353 -0.1682 -0.2524 -0.3023
  146SAPE   H3X16035   4.620   3.894   6.273  2.0035 -0.6410  0.2663
  146SAPE   H3Y16036   4.687   4.050   6.335 -0.2874 -0.2317 -0.7215
  146SAPE   C3416037   4.481   4.049   6.327 -0.6666  0.6382 -0.6161
  146SAPE   H4X16038   4.459   4.126   6.405 -2.2305 -2.0087  1.7523
  146SAPE   H4Y16039   4.394   3.981   6.339 -0.2611  0.2331  0.1519
  146SAPE   C3516040   4.474   4.110   6.184  0.2537  0.3068 -0.5468
  146SAPE   H5X16041   4.378   4.164   6.172  0.5686  0.6694 -1.5202
  146SAPE   H5Y16042   4.484   4.032   6.106 -2.5427 -0.6784 -0.0322
  146SAPE   C3616043   4.586   4.214   6.156 -0.2245  0.1391 -0.2080
  146SAPE   H6X16044   4.675   4.153   6.131  0.0191  0.1039  0.7326
  146SAPE   H6Y16045   4.615   4.279   6.242 -2.2804  2.2005 -0.9412
  146SAPE   C3716046   4.561   4.313   6.041  0.5792 -0.0805  0.5529
  146SAPE   H7X16047   4.643   4.384   6.016  0.5291 -0.0816  0.3851
  146SAPE   H7Y16048   4.469   4.371   6.065  0.9401  1.0990 -0.7810
  146SAPE   C3816049   4.547   4.234   5.906 -0.2234  0.6425  0.2729
  146SAPE   H8X16050   4.467   4.158   5.908  0.4667 -0.0818  1.0218
  146SAPE   H8Y16051   4.642   4.177   5.896 -0.2402  0.7315 -0.4977
  146SAPE   C3916052   4.527   4.332   5.794 -0.3654  0.2771 -1.0769
  146SAPE   H9X16053   4.609   4.406   5.808 -1.3980  1.0991  0.9116
  146SAPE   H9Y16054   4.442   4.393   5.829  0.2308  0.4512  0.1118
  146SAPE  C31016055   4.516   4.265   5.661 -0.4652 -0.1282 -0.0207
  146SAPE  H10X16056   4.425   4.200   5.664 -0.6578  0.1189 -0.4671
  146SAPE  H10Y16057   4.603   4.201   5.640  0.4647  1.5250 -1.4581
  146SAPE  C31116058   4.510   4.350   5.534  0.1881 -0.0323 -0.0703
  146SAPE  H11X16059   4.602   4.411   5.527 -0.7091  1.5303  1.1113
  146SAPE  H11Y16060   4.423   4.418   5.547  1.4738  1.6369  0.0745
  146SAPE  C31216061   4.492   4.268   5.401  0.3462 -0.6117  0.1000
  146SAPE  H12X16062   4.389   4.227   5.408  0.1807 -0.3237 -0.6389
  146SAPE  H12Y16063   4.563   4.187   5.375  0.6159  0.4058 -2.7116
  146SAPE  C31316064   4.485   4.349   5.271 -0.1415  0.2125 -0.7883
  146SAPE  H13X16065   4.573   4.415   5.257  0.0139  0.0134 -0.7323
  146SAPE  H13Y16066   4.396   4.416   5.284  0.7895  1.5844 -1.2463
  146SAPE  C31416067   4.464   4.258   5.147 -0.6560  0.7132  0.6137
  146SAPE  H14X16068   4.408   4.164   5.170 -0.8042  0.4408 -0.7849
  146SAPE  H14Y16069   4.561   4.225   5.106 -1.8423  0.3351 -2.0951
  146SAPE  C31516070   4.402   4.324   5.025 -0.2331 -0.3091  0.4323
  146SAPE  H15X16071   4.471   4.406   4.996 -0.8416 -0.0090 -0.1937
  146SAPE  H15Y16072   4.310   4.374   5.062  1.3440  1.7249  1.8693
  146SAPE  C31616073   4.376   4.228   4.909  0.2080  0.3784  0.7031
  146SAPE  H16X16074   4.312   4.143   4.942 -1.1726  0.1529 -2.2567
  146SAPE  H16Y16075   4.471   4.189   4.867  1.1036  1.0600  2.0291
  146SAPE  C31716076   4.299   4.300   4.802  0.1248 -0.5315 -0.0464
  146SAPE  H17X16077   4.363   4.370   4.743 -1.0001  2.4729  2.0265
  146SAPE  H17Y16078   4.219   4.366   4.842 -0.8031 -1.5860 -0.1260
  146SAPE  C31816079   4.238   4.200   4.694 -0.2049 -0.0867  0.6783
  146SAPE  H18X16080   4.318   4.168   4.625  0.5703  2.0860  0.4863
  146SAPE  H18Y16081   4.150   4.249   4.646 -1.0919 -0.0646  2.2764
  146SAPE  H18Z16082   4.193   4.112   4.745  0.1821 -0.6153  0.1151
  147SAPE     N16083   4.104   1.161   6.947 -0.4499 -0.3470 -0.7620
  147SAPE   HN116084   4.036   1.159   6.868 -2.3590  1.2492  0.7495
  147SAPE   HN216085   4.169   1.242   6.936 -0.7392 -0.1136 -0.7490
  147SAPE   HN316086   4.155   1.072   6.963 -0.2131  0.1225  1.4911
  147SAPE   C1216087   4.025   1.188   7.073  0.6250  0.3663  0.6088
  147SAPE  H12A16088   3.958   1.104   7.099  0.8650  0.5775  1.9649
  147SAPE  H12B16089   3.964   1.281   7.066 -1.5902 -1.1038 -0.5103
  147SAPE   C1116090   4.133   1.207   7.191  0.2346  0.4678  0.0797
  147SAPE  H11A16091   4.188   1.110   7.189 -2.8100 -1.4068 -2.0527
  147SAPE  H11B16092   4.078   1.224   7.286 -0.0913 -1.3251  0.2566
  147SAPE     P16093   4.281   1.397   7.264 -0.1754  0.1541  0.7662
  147SAPE   O1316094   4.178   1.472   7.340  0.5146 -0.1782 -0.4790
  147SAPE   O1416095   4.369   1.314   7.347  0.3122  0.0948  0.6480
  147SAPE   O1216096   4.218   1.306   7.151  0.0957  0.1684  0.6126
  147SAPE   O1116097   4.365   1.499   7.175  0.7608 -0.2511 -0.3160
  147SAPE    C116098   4.285   1.600   7.104 -0.1457  0.0330  0.2131
  147SAPE    HA16099   4.186   1.624   7.149  0.0854  1.1983  0.1392
  147SAPE    HB16100   4.339   1.697   7.102 -1.3285  0.7310  1.0287
  147SAPE    C216101   4.252   1.552   6.957  0.1476 -0.8794  0.2064
  147SAPE    HS16102   4.173   1.476   6.972 -1.0716 -0.0277 -1.4513
  147SAPE   O2116103   4.373   1.505   6.891  0.9439 -0.2694 -0.3796
  147SAPE   C2116104   4.350   1.404   6.804  0.3250  0.0632 -0.1430
  147SAPE   O2216105   4.239   1.351   6.792 -0.6873 -0.1232  0.4923
  147SAPE   C2216106   4.470   1.368   6.731 -0.3886 -0.6182  0.1297
  147SAPE   H2R16107   4.521   1.464   6.709 -2.5582  0.6072  0.1142
  147SAPE   H2S16108   4.528   1.295   6.792 -1.0111 -0.9084  0.3827
  147SAPE    C316109   4.178   1.657   6.874 -0.1624  0.2796  0.4258
  147SAPE    HX16110   4.242   1.747   6.864 -0.3005  0.4409  0.9706
  147SAPE    HY16111   4.078   1.682   6.917  1.2580  1.1081  3.4856
  147SAPE   O3116112   4.160   1.601   6.738  0.0487 -0.0581 -0.2222
  147SAPE   C3116113   4.051   1.562   6.699 -0.3985  0.5693 -0.1432
  147SAPE   O3216114   3.954   1.544   6.773  0.5121  0.2626  0.1601
  147SAPE   C3216115   4.060   1.562   6.547  0.6245  0.7694  0.0242
  147SAPE   H2X16116   4.031   1.460   6.512  1.1489 -0.2201  2.3068
  147SAPE   H2Y16117   4.165   1.569   6.513  0.6844  1.9919  0.4176
  147SAPE   C2316118   4.447   1.277   6.603  0.0651  0.2921 -0.7135
  147SAPE   H3R16119   4.414   1.177   6.638 -0.4634  1.2983  1.8676
  147SAPE   H3S16120   4.549   1.262   6.560  1.1041 -0.2896  1.7897
  147SAPE   C2416121   4.354   1.335   6.487  0.0485 -1.3334 -0.2715
  147SAPE   H4R16122   4.255   1.361   6.530 -0.0971 -2.6541  0.2345
  147SAPE   H4S16123   4.343   1.252   6.415  1.8695 -1.5687 -0.3410
  147SAPE   C2516124   4.413   1.448   6.410 -0.8599 -0.1190 -0.4301
  147SAPE   H5R16125   4.507   1.489   6.450  0.0522 -0.4593 -2.1524
  147SAPE   C2616126   4.368   1.495   6.293  0.3632 -0.1235  0.1448
  147SAPE   H6R16127   4.437   1.559   6.236  0.0663  1.3349  1.3327
  147SAPE   C2716128   4.251   1.434   6.227 -0.0294  0.6780 -0.3331
  147SAPE   H7R16129   4.188   1.365   6.288 -0.6879  2.4605  1.1029
  147SAPE   H7S16130   4.279   1.382   6.133 -2.2144  1.9085 -1.7437
  147SAPE   C2816131   4.139   1.533   6.183  0.2223  0.3622  0.0025
  147SAPE   H8R16132   4.140   1.623   6.247  1.2020 -0.3544  1.0378
  147SAPE   C2916133   4.060   1.529   6.074  0.2065  0.0494 -0.3923
  147SAPE   H9R16134   3.985   1.608   6.062  0.8648  0.5417 -1.3928
  147SAPE  C21016135   4.051   1.417   5.974  0.0957 -0.0716 -0.4000
  147SAPE  H10R16136   4.099   1.320   5.999 -1.9370 -0.6629  1.4479
  147SAPE  H10S16137   4.116   1.457   5.893 -0.9019  1.5351 -0.4448
  147SAPE  C21116138   3.909   1.393   5.934  0.3373  0.7681  0.1777
  147SAPE  H11R16139   3.836   1.384   6.016 -0.8750  0.7767 -0.8691
  147SAPE  C21216140   3.852   1.397   5.814 -0.2948  0.5093 -0.4072
  147SAPE  H12R16141   3.747   1.369   5.804 -0.1556 -0.1521 -0.1069
  147SAPE  C21316142   3.921   1.438   5.685  0.3837  0.2551  0.1756
  147SAPE  H13R16143   4.030   1.459   5.688 -0.0758  2.8411  1.2910
  147SAPE  H13S16144   3.883   1.537   5.652  0.5250  1.1152  2.4282
  147SAPE  C21416145   3.882   1.339   5.572 -0.0221  0.0968  0.0785
  147SAPE  H14R16146   3.961   1.272   5.534  0.9354  1.6545 -0.8112
  147SAPE  C21516147   3.770   1.344   5.499  0.1832 -1.2088  0.4330
  147SAPE  H15R16148   3.746   1.269   5.422 -0.7864 -0.2068 -0.2895
  147SAPE  C21616149   3.654   1.443   5.522 -0.2703 -0.3105  0.8180
  147SAPE  H16R16150   3.637   1.469   5.629  1.7023  2.1687  0.6335
  147SAPE  H16S16151   3.562   1.406   5.472  1.1520 -1.3165 -1.1833
  147SAPE  C21716152   3.669   1.583   5.445  0.6515 -0.6156  0.2632
  147SAPE  H17R16153   3.731   1.644   5.514 -0.0301 -0.8831  1.1341
  147SAPE  H17S16154   3.575   1.641   5.437  0.3039 -0.7172  2.7745
  147SAPE  C21816155   3.738   1.558   5.314 -0.0999  0.5514 -0.0672
  147SAPE  H18R16156   3.694   1.473   5.257 -0.7920  1.7099 -1.3086
  147SAPE  H18S16157   3.846   1.537   5.332  0.1703 -2.5142 -3.9109
  147SAPE  C21916158   3.723   1.676   5.211 -0.6954  0.3528 -0.0040
  147SAPE  H19R16159   3.791   1.755   5.248 -1.3583  0.0626  1.9274
  147SAPE  H19S16160   3.623   1.723   5.222 -0.2208  1.3246  0.1785
  147SAPE  C22016161   3.742   1.638   5.066 -0.4012  0.2060  0.5746
  147SAPE  H20R16162   3.848   1.609   5.051 -0.4607 -1.0360  2.2523
  147SAPE  H20S16163   3.724   1.716   4.988  2.1020  1.2643  0.9711
  147SAPE  H20T16164   3.676   1.553   5.037  2.9445 -1.9986 -1.2816
  147SAPE   C3316165   3.970   1.659   6.482  0.6710 -0.3061 -0.1414
  147SAPE   H3X16166   3.871   1.651   6.530 -0.3085 -1.2797 -2.1921
  147SAPE   H3Y16167   3.956   1.641   6.373 -0.0301  0.4391 -0.1853
  147SAPE   C3416168   4.038   1.800   6.499 -0.5178 -0.4855  0.5344
  147SAPE   H4X16169   4.143   1.787   6.466 -0.9210 -1.1829 -0.5070
  147SAPE   H4Y16170   4.049   1.830   6.606  3.6988  1.0823 -0.1375
  147SAPE   C3516171   3.982   1.913   6.429  0.2434 -0.2147  0.3673
  147SAPE   H5X16172   4.032   2.007   6.461  0.5140 -0.2967  0.1778
  147SAPE   H5Y16173   3.874   1.916   6.457  0.1536 -0.0407  0.0086
  147SAPE   C3616174   3.983   1.902   6.276  0.1191  0.5430 -0.3725
  147SAPE   H6X16175   3.911   1.822   6.247  0.5855 -1.0769  2.5733
  147SAPE   H6Y16176   4.079   1.881   6.225 -1.3809 -0.4729 -2.9947
  147SAPE   C3716177   3.948   2.023   6.196 -0.2551 -0.9037  0.4556
  147SAPE   H7X16178   4.011   2.101   6.243 -0.3131 -0.7902  0.3465
  147SAPE   H7Y16179   3.838   2.036   6.206 -0.4399  1.3549 -2.8443
  147SAPE   C3816180   3.985   2.012   6.045  0.2205 -0.2535  0.8343
  147SAPE   H8X16181   4.094   1.989   6.044  0.9304  2.6315  1.5133
  147SAPE   H8Y16182   3.975   2.113   6.001 -2.4418 -0.4019  0.9253
  147SAPE   C3916183   3.904   1.905   5.979  0.5463  0.2822  0.0456
  147SAPE   H9X16184   3.795   1.912   5.998  0.8550 -1.3754  2.9945
  147SAPE   H9Y16185   3.929   1.805   6.019 -1.0652 -0.0832  0.2170
  147SAPE  C31016186   3.936   1.905   5.831  0.1647  0.9607 -0.1205
  147SAPE  H10X16187   3.883   1.821   5.783  0.6373  0.3275  0.4463
  147SAPE  H10Y16188   4.047   1.896   5.823 -0.0301 -0.1631 -2.6122
  147SAPE  C31116189   3.892   2.033   5.748 -0.1307  0.1509  0.1929
  147SAPE  H11X16190   3.910   2.131   5.799 -0.0335 -0.6092  1.6835
  147SAPE  H11Y16191   3.782   2.025   5.730 -0.2161 -0.9381  1.1275
  147SAPE  C31216192   3.955   2.036   5.612  0.6065 -0.9846  0.3597
  147SAPE  H12X16193   3.933   1.938   5.564 -0.6103  0.1596 -1.5897
  147SAPE  H12Y16194   4.064   2.052   5.620  0.3632 -0.2597  3.3792
  147SAPE  C31316195   3.910   2.163   5.530  0.2040  0.0825  0.6187
  147SAPE  H13X16196   3.944   2.252   5.586  2.1652  0.3400 -0.8576
  147SAPE  H13Y16197   3.800   2.161   5.518  0.1787 -0.0253  0.8609
  147SAPE  C31416198   3.965   2.169   5.382  0.1134  0.0006  0.4816
  147SAPE  H14X16199   4.073   2.197   5.381  0.7789 -2.2915 -0.9757
  147SAPE  H14Y16200   3.911   2.246   5.324 -0.9770  0.1156  1.6144
  147SAPE  C31516201   3.948   2.038   5.306  0.2107  0.3248  0.3002
  147SAPE  H15X16202   3.848   1.993   5.327  1.0840 -1.3980  0.9974
  147SAPE  H15Y16203   4.028   1.969   5.341 -0.3162  0.5613  2.1101
  147SAPE  C31616204   3.957   2.046   5.153 -0.2095  0.2027  0.5633
  147SAPE  H16X16205   3.873   2.103   5.107 -1.1562 -1.2321  0.4536
  147SAPE  H16Y16206   3.956   1.941   5.117 -0.9431  0.3842  0.0285
  147SAPE  C31716207   4.103   2.089   5.112  0.6648 -0.3819 -0.1610
  147SAPE  H17X16208   4.166   2.003   5.141 -1.3767 -2.0564 -0.4965
  147SAPE  H17Y16209   4.135   2.178   5.170  0.2170 -0.6519  0.5045
  147SAPE  C31816210   4.114   2.118   4.966 -0.1909  0.4741 -0.8627
  147SAPE  H18X16211   4.052   2.044   4.912  0.7870 -0.2296 -1.0518
  147SAPE  H18Y16212   4.215   2.107   4.921 -0.5716  1.3139 -1.9594
  147SAPE  H18Z16213   4.074   2.216   4.934 -1.1429  0.0291 -1.0680
  148SAPE     N16214   1.979   3.165   6.632 -0.3381  0.1920 -0.1694
  148SAPE   HN116215   2.074   3.176   6.590 -1.1640  2.4176 -1.6155
  148SAPE   HN216216   1.940   3.257   6.659  1.5306  1.1805 -0.6203
  148SAPE   HN316217   1.975   3.120   6.725  0.2083  0.1270 -0.1746
  148SAPE   C1216218   1.905   3.098   6.526 -0.7879  0.0020 -0.1046
  148SAPE  H12A16219   1.914   3.160   6.434 -0.1624 -2.7748 -2.0216
  148SAPE  H12B16220   1.797   3.097   6.551 -1.1919 -2.3602 -1.6774
  148SAPE   C1116221   1.948   2.954   6.498 -0.3718  0.4879  0.1908
  148SAPE  H11A16222   2.053   2.952   6.464  0.3017  1.6046  2.1009
  148SAPE  H11B16223   1.896   2.914   6.408 -0.8287 -2.1278  1.5197
  148SAPE     P16224   1.966   2.728   6.614 -0.1109 -0.0504 -0.4618
  148SAPE   O1316225   2.097   2.721   6.685 -0.1948  0.0811 -0.1887
  148SAPE   O1416226   1.855   2.647   6.669 -0.0944  0.1235  0.9252
  148SAPE   O1216227   1.914   2.877   6.611  0.4270  0.0020 -0.4743
  148SAPE   O1116228   1.981   2.680   6.457  0.8628  0.8816  0.0353
  148SAPE    C116229   2.037   2.547   6.449  0.9609  0.0643  0.6377
  148SAPE    HA16230   2.124   2.539   6.518 -0.6432  1.0167  2.8704
  148SAPE    HB16231   1.968   2.468   6.486  1.3050 -1.1197 -1.1163
  148SAPE    C216232   2.069   2.517   6.296 -0.8772  0.4637 -0.3314
  148SAPE    HS16233   1.977   2.500   6.236 -1.2989 -0.3609  0.4993
  148SAPE   O2116234   2.159   2.405   6.276 -0.8211  0.6468 -0.1477
  148SAPE   C2116235   2.106   2.300   6.223 -0.1478  0.3693 -0.6635
  148SAPE   O2216236   1.983   2.293   6.193 -0.5809  0.0213  0.2128
  148SAPE   C2216237   2.215   2.190   6.206 -0.2755  0.4419  0.2507
  148SAPE   H2R16238   2.306   2.232   6.254  0.7900 -0.0940 -1.2449
  148SAPE   H2S16239   2.172   2.101   6.258  0.1110  0.7002  1.0311
  148SAPE    C316240   2.132   2.642   6.233 -0.2534 -0.3253  0.3428
  148SAPE    HX16241   2.224   2.656   6.294  0.0610 -0.6530 -0.0547
  148SAPE    HY16242   2.063   2.728   6.247 -1.0179 -0.4956 -1.9576
  148SAPE   O3116243   2.177   2.621   6.097  0.9831 -0.0498 -0.1251
  148SAPE   C3116244   2.086   2.643   6.009 -0.1281  0.3223  1.0394
  148SAPE   O3216245   1.968   2.670   6.027 -0.3787  0.2129  0.4760
  148SAPE   C3216246   2.147   2.591   5.877  0.6712 -0.6404  0.2009
  148SAPE   H2X16247   2.256   2.615   5.881  0.4663  0.2732  0.7777
  148SAPE   H2Y16248   2.102   2.655   5.798 -0.8401  0.6348  2.0159
  148SAPE   C2316249   2.256   2.159   6.060 -0.2842 -0.6660 -0.3362
  148SAPE   H3R16250   2.307   2.248   6.019  0.1720 -0.9412 -0.3672
  148SAPE   H3S16251   2.162   2.144   6.002  0.7145 -2.7285 -1.5212
  148SAPE   C2416252   2.351   2.047   6.031  0.5032  0.0519 -0.2699
  148SAPE   H4R16253   2.442   2.053   6.095 -0.8036 -1.8972  1.9349
  148SAPE   H4S16254   2.374   2.055   5.922  0.3839  0.2522 -0.2800
  148SAPE   C2516255   2.298   1.914   6.081  0.5152 -0.1581  0.1832
  148SAPE   H5R16256   2.289   1.897   6.190  0.3519  0.0955  0.2107
  148SAPE   C2616257   2.266   1.814   5.995  0.4243 -0.5383  0.2811
  148SAPE   H6R16258   2.219   1.722   6.031 -0.0183  0.1607  1.5644
  148SAPE   C2716259   2.297   1.811   5.845 -0.3782  0.3080  0.6299
  148SAPE   H7R16260   2.254   1.897   5.789  0.5348  0.3371 -0.0518
  148SAPE   H7S16261   2.239   1.726   5.802 -2.0296  1.2863  0.8705
  148SAPE   C2816262   2.441   1.786   5.813 -0.5283 -0.3940 -0.1200
  148SAPE   H8R16263   2.509   1.833   5.886  0.6861  1.6669 -2.4227
  148SAPE   C2916264   2.486   1.711   5.714 -0.9490 -0.0383  0.2175
  148SAPE   H9R16265   2.595   1.713   5.701 -1.0795  2.1964 -0.9329
  148SAPE  C21016266   2.404   1.635   5.604  0.2711  0.8559 -0.7420
  148SAPE  H10R16267   2.436   1.661   5.500  1.6702 -1.8965 -1.0747
  148SAPE  H10S16268   2.293   1.645   5.605  0.2804  1.1924  1.4206
  148SAPE  C21116269   2.430   1.493   5.626  0.2623  0.4427 -0.3904
  148SAPE  H11R16270   2.380   1.448   5.713 -0.1514  0.6289 -0.5300
  148SAPE  C21216271   2.500   1.405   5.558  0.1663  0.2959  0.1095
  148SAPE  H12R16272   2.485   1.299   5.585  0.0647  0.6280  1.4391
  148SAPE  C21316273   2.560   1.436   5.423  0.0708  0.3318  0.1346
  148SAPE  H13R16274   2.548   1.539   5.383  2.3475  0.2045 -1.0552
  148SAPE  H13S16275   2.514   1.375   5.343 -0.2659  1.4946 -0.5800
  148SAPE  C21416276   2.704   1.402   5.427  0.1146 -0.0471 -0.1255
  148SAPE  H14R16277   2.747   1.377   5.525  1.7338 -1.0785 -1.0328
  148SAPE  C21516278   2.786   1.391   5.325  0.1420 -0.0714  0.3233
  148SAPE  H15R16279   2.894   1.376   5.335 -0.0026 -1.8969 -0.3973
  148SAPE  C21616280   2.737   1.426   5.184  0.5866  0.1389 -0.2069
  148SAPE  H16R16281   2.721   1.535   5.174 -1.3990  0.0737  1.4864
  148SAPE  H16S16282   2.638   1.378   5.167  1.6200 -1.2038 -3.0337
  148SAPE  C21716283   2.821   1.369   5.078  0.2352 -0.1402 -0.4731
  148SAPE  H17R16284   2.922   1.414   5.085 -0.0502  0.4547 -0.1752
  148SAPE  H17S16285   2.776   1.407   4.983 -0.7106 -0.7095 -0.2667
  148SAPE  C21816286   2.824   1.216   5.068 -0.1931  0.2164 -0.5468
  148SAPE  H18R16287   2.724   1.170   5.080  0.6759 -1.4616  0.8674
  148SAPE  H18S16288   2.886   1.178   5.152  0.4995  1.1407 -0.6224
  148SAPE  C21916289   2.879   1.168   4.936 -1.0874  0.2104 -0.1035
  148SAPE  H19R16290   2.819   1.219   4.858 -1.4461 -0.8195 -0.5099
  148SAPE  H19S16291   2.868   1.058   4.936 -0.1433  0.1063 -0.2435
  148SAPE  C22016292   3.030   1.195   4.911  0.7578 -0.3860  0.2195
  148SAPE  H20R16293   3.058   1.303   4.919  1.1877 -0.3995 -0.9391
  148SAPE  H20S16294   3.070   1.151   4.817 -0.1950  0.8362 -0.7989
  148SAPE  H20T16295   3.093   1.164   4.997  2.2745  2.4467  0.2692
  148SAPE   C3316296   2.113   2.442   5.863 -0.2089 -0.8174 -0.1063
  148SAPE   H3X16297   2.005   2.422   5.879 -0.5316  0.1547 -0.9514
  148SAPE   H3Y16298   2.158   2.399   5.955  0.2358  1.3339  0.7387
  148SAPE   C3416299   2.153   2.373   5.727  0.6747 -0.0010 -0.0138
  148SAPE   H4X16300   2.117   2.268   5.731  1.9406 -0.5479 -1.9411
  148SAPE   H4Y16301   2.263   2.381   5.721  0.6187 -0.0385 -1.5334
  148SAPE   C3516302   2.089   2.440   5.608 -0.0012 -0.1167 -0.7317
  148SAPE   H5X16303   2.110   2.550   5.612 -0.3269 -0.0421 -1.0576
  148SAPE   H5Y16304   1.979   2.425   5.608  0.0041 -0.1839  0.0351
  148SAPE   C3616305   2.141   2.379   5.473  0.3039  0.0756 -0.1717
  148SAPE   H6X16306   2.127   2.268   5.472 -0.5966  0.1844 -0.2432
  148SAPE   H6Y16307   2.250   2.400   5.468  0.2224  0.5761  0.1423
  148SAPE   C3716308   2.068   2.432   5.354  0.2870  0.1014  0.5460
  148SAPE   H7X16309   2.065   2.543   5.355  0.9414  0.2564 -2.7098
  148SAPE   H7Y16310   1.962   2.397   5.357 -0.4894  1.8535 -2.1615
  148SAPE   C3816311   2.132   2.381   5.216 -0.3517 -0.1118  0.7220
  148SAPE   H8X16312   2.048   2.371   5.144 -1.1415  2.3303  1.2077
  148SAPE   H8Y16313   2.166   2.276   5.232 -0.6057 -0.5578 -1.4228
  148SAPE   C3916314   2.238   2.468   5.148  0.6094  0.1977 -0.4737
  148SAPE   H9X16315   2.320   2.493   5.219 -0.5355 -1.8656  1.7030
  148SAPE   H9Y16316   2.187   2.565   5.129 -0.6755 -0.7744 -2.2364
  148SAPE  C31016317   2.289   2.419   5.017 -0.5255  0.1394 -0.6466
  148SAPE  H10X16318   2.201   2.410   4.950 -1.0069 -1.4830  0.1400
  148SAPE  H10Y16319   2.340   2.321   5.033 -0.4149  0.0133 -1.7143
  148SAPE  C31116320   2.406   2.496   4.955  0.4418  0.3571  0.3625
  148SAPE  H11X16321   2.482   2.421   4.926  1.1097  1.4167 -0.7213
  148SAPE  H11Y16322   2.457   2.552   5.036 -0.4734 -0.8483  1.8169
  148SAPE  C31216323   2.382   2.576   4.832  0.3158  0.4517  0.5070
  148SAPE  H12X16324   2.313   2.518   4.768  1.1422 -0.2502  0.2339
  148SAPE  H12Y16325   2.478   2.600   4.781  0.7992 -0.4014  0.9950
  148SAPE  C31316326   2.310   2.705   4.872 -0.0188 -0.4597  0.2036
  148SAPE  H13X16327   2.217   2.686   4.929 -0.1185  0.1505  0.2504
  148SAPE  H13Y16328   2.280   2.759   4.780 -1.0939  1.6490  1.7034
  148SAPE  C31416329   2.394   2.803   4.960 -0.4799  0.0319  0.7782
  148SAPE  H14X16330   2.486   2.808   4.899 -1.5396  1.0824 -0.7867
  148SAPE  H14Y16331   2.399   2.760   5.063 -1.5161 -1.7553  0.1192
  148SAPE  C31516332   2.350   2.946   4.967 -0.4192 -0.1059 -0.1311
  148SAPE  H15X16333   2.400   3.001   5.049 -1.7385  0.6464  0.1983
  148SAPE  H15Y16334   2.239   2.950   4.972 -0.4930  1.2010 -1.8184
  148SAPE  C31616335   2.393   3.027   4.847  0.2428 -0.4234 -0.3050
  148SAPE  H16X16336   2.354   2.983   4.753 -0.1330  0.9578 -0.8159
  148SAPE  H16Y16337   2.504   3.021   4.849  0.2049 -1.2651  1.7044
  148SAPE  C31716338   2.332   3.168   4.866  0.1234  0.0545 -0.0285
  148SAPE  H17X16339   2.417   3.237   4.842 -0.8067  1.0807 -0.4471
  148SAPE  H17Y16340   2.296   3.181   4.970 -0.1326 -0.3427 -0.0678
  148SAPE  C31816341   2.218   3.202   4.772  0.0309  1.0677  0.3939
  148SAPE  H18X16342   2.182   3.306   4.785 -1.8885  0.6103 -0.8071
  148SAPE  H18Y16343   2.143   3.124   4.798 -1.1969  2.5373  1.3819
  148SAPE  H18Z16344   2.251   3.185   4.667 -0.0951  3.2456 -0.0472
  149SAPE     N16345   1.175   5.168   6.800  0.3191 -0.0191 -0.5367
  149SAPE   HN116346   1.157   5.198   6.702  0.9271 -0.9097 -0.9403
  149SAPE   HN216347   1.104   5.221   6.854 -0.3293  1.1163 -2.4002
  149SAPE   HN316348   1.266   5.216   6.818  0.0196  0.0180  0.9455
  149SAPE   C1216349   1.183   5.023   6.831 -0.2958 -0.5235  0.0094
  149SAPE  H12A16350   1.078   4.986   6.836 -0.4577 -0.2520 -1.0783
  149SAPE  H12B16351   1.232   5.002   6.928 -0.6367 -2.8550 -0.2587
  149SAPE   C1116352   1.257   4.953   6.715  0.7594 -0.3061 -0.0601
  149SAPE  H11A16353   1.192   4.967   6.626 -0.3015  1.3471  0.9256
  149SAPE  H11B16354   1.246   4.847   6.746 -1.1963 -0.1501 -0.1046
  149SAPE     P16355   1.484   4.946   6.588 -0.0665 -0.4706  0.0681
  149SAPE   O1316356   1.620   5.015   6.600  0.9271 -0.1222 -0.5491
  149SAPE   O1416357   1.488   4.802   6.573  0.2715  0.3558  0.1849
  149SAPE   O1216358   1.395   4.993   6.712  0.1473 -0.1759  0.5161
  149SAPE   O1116359   1.400   5.006   6.476  0.2807  0.1026  0.4975
  149SAPE    C116360   1.371   5.144   6.474  0.2125 -0.4227 -0.0849
  149SAPE    HA16361   1.268   5.144   6.431 -0.2050  2.0319  0.7771
  149SAPE    HB16362   1.375   5.202   6.568  1.6899 -0.0881 -0.3363
  149SAPE    C216363   1.461   5.220   6.368  0.3114  1.2053 -0.1798
  149SAPE    HS16364   1.386   5.284   6.317 -3.2813 -0.7940  2.0767
  149SAPE   O2116365   1.529   5.122   6.278 -0.1537  0.0282 -0.3572
  149SAPE   C2116366   1.458   5.061   6.189 -0.4323  0.5537 -0.4799
  149SAPE   O2216367   1.341   5.081   6.163 -0.1171 -0.2119 -0.1184
  149SAPE   C2216368   1.544   4.958   6.127 -0.3103  0.1015  0.0479
  149SAPE   H2R16369   1.570   4.877   6.198  0.5705  1.2762  1.1328
  149SAPE   H2S16370   1.497   4.909   6.039 -1.1039 -1.8808  1.5110
  149SAPE    C316371   1.562   5.308   6.449  0.0948  0.2466  0.3554
  149SAPE    HX16372   1.624   5.257   6.526 -0.8888 -0.0952  0.9443
  149SAPE    HY16373   1.518   5.389   6.512  0.1279  0.8781 -0.4192
  149SAPE   O3116374   1.635   5.382   6.347  0.5699 -0.0435 -0.4926
  149SAPE   C3116375   1.761   5.358   6.334  0.1836 -0.3218  0.2389
  149SAPE   O3216376   1.819   5.258   6.373  0.5894  0.4375  0.8452
  149SAPE   C3216377   1.842   5.467   6.259 -0.2855 -0.2489 -0.2927
  149SAPE   H2X16378   1.949   5.442   6.272 -0.1728  0.7575  1.0003
  149SAPE   H2Y16379   1.822   5.564   6.310 -0.5398 -0.1987 -0.4855
  149SAPE   C2316380   1.674   5.021   6.080  0.1552  0.2689  0.1260
  149SAPE   H3R16381   1.729   4.938   6.030 -1.2256 -0.1889 -0.7077
  149SAPE   H3S16382   1.739   5.061   6.161 -1.0606  3.3311 -0.2683
  149SAPE   C2416383   1.666   5.134   5.975 -0.3694 -0.3199  0.1411
  149SAPE   H4R16384   1.769   5.160   5.942 -1.2979  1.8674 -1.2908
  149SAPE   H4S16385   1.634   5.226   6.028 -1.0696 -1.0311  0.9761
  149SAPE   C2516386   1.587   5.095   5.854  0.0381 -0.4829 -0.6730
  149SAPE   H5R16387   1.485   5.063   5.881 -0.6990  0.3600 -2.3334
  149SAPE   C2616388   1.607   5.141   5.730  0.6156 -0.6327 -0.6095
  149SAPE   H6R16389   1.536   5.130   5.646  0.7406 -0.5677 -0.7234
  149SAPE   C2716390   1.725   5.222   5.687 -0.1110  0.0562  0.2203
  149SAPE   H7R16391   1.760   5.277   5.777 -0.1525 -0.5027  0.5833
  149SAPE   H7S16392   1.685   5.304   5.623 -0.3470  0.0650  0.3783
  149SAPE   C2816393   1.826   5.133   5.618  0.3711  0.0852  0.2767
  149SAPE   H8R16394   1.865   5.046   5.673 -1.2579 -1.5281 -0.9852
  149SAPE   C2916395   1.860   5.144   5.490  0.0042 -0.0400  0.4105
  149SAPE   H9R16396   1.926   5.072   5.440  0.2392  1.3504 -1.3823
  149SAPE  C21016397   1.830   5.252   5.385 -0.2553 -0.5189  0.0853
  149SAPE  H10R16398   1.922   5.312   5.369 -0.9162  0.2007 -1.0911
  149SAPE  H10S16399   1.755   5.322   5.429 -1.3085 -1.3333 -0.3770
  149SAPE  C21116400   1.786   5.188   5.262  1.0062  0.2834  0.8248
  149SAPE  H11R16401   1.680   5.157   5.256  0.1237  3.2337 -0.7809
  149SAPE  C21216402   1.862   5.165   5.156  0.2555 -0.8150 -0.1055
  149SAPE  H12R16403   1.815   5.121   5.067 -1.6454  3.0758 -1.2352
  149SAPE  C21316404   2.008   5.197   5.133 -0.0920 -0.2109  0.1568
  149SAPE  H13R16405   2.038   5.278   5.203 -0.0245  0.9663 -1.1865
  149SAPE  H13S16406   2.004   5.245   5.033 -0.8883  0.2991  0.4176
  149SAPE  C21416407   2.102   5.082   5.147 -0.6909  0.3752  0.0247
  149SAPE  H14R16408   2.096   5.041   5.250  1.5938  0.9642  0.4391
  149SAPE  C21516409   2.182   5.021   5.061 -0.0526  0.0888  0.7887
  149SAPE  H15R16410   2.232   4.928   5.092 -0.8014 -0.9364 -0.9262
  149SAPE  C21616411   2.198   5.059   4.908  0.4124  0.2147 -0.6221
  149SAPE  H16R16412   2.120   5.134   4.883 -0.5336 -0.2392  0.8835
  149SAPE  H16S16413   2.194   4.979   4.832  2.4417  0.0686 -0.6497
  149SAPE  C21716414   2.330   5.130   4.863  0.2638  0.2077  0.0624
  149SAPE  H17R16415   2.414   5.060   4.885 -1.7470 -2.1913  0.5533
  149SAPE  H17S16416   2.340   5.219   4.929 -0.3521 -0.8853  1.6910
  149SAPE  C21816417   2.327   5.172   4.717 -0.7215 -0.2811  0.2681
  149SAPE  H18R16418   2.339   5.080   4.655  1.8861  0.1837 -0.0671
  149SAPE  H18S16419   2.425   5.224   4.706  0.1268 -0.3917  5.1767
  149SAPE  C21916420   2.214   5.270   4.667  0.1895  0.3395  0.0554
  149SAPE  H19R16421   2.240   5.369   4.712  0.6743  0.8097 -1.2348
  149SAPE  H19S16422   2.115   5.232   4.701 -0.3651  2.3577  0.9059
  149SAPE  C22016423   2.235   5.300   4.515 -0.5353  0.9504  0.8834
  149SAPE  H20R16424   2.167   5.381   4.480 -0.0421  3.2053  4.5922
  149SAPE  H20S16425   2.230   5.207   4.455  2.7066  1.2794 -0.0517
  149SAPE  H20T16426   2.337   5.338   4.492 -1.3042  1.0303 -3.1747
  149SAPE   C3316427   1.790   5.471   6.115  0.1850  0.6092 -0.1042
  149SAPE   H3X16428   1.684   5.500   6.103  0.2436  0.4952 -0.9783
  149SAPE   H3Y16429   1.807   5.374   6.063 -1.5688  0.6055 -0.7274
  149SAPE   C3416430   1.851   5.573   6.029 -0.6738  0.4640  0.0681
  149SAPE   H4X16431   1.959   5.553   6.045 -0.8884 -1.0083 -0.1590
  149SAPE   H4Y16432   1.821   5.675   6.061 -1.3057  0.3975 -0.3076
  149SAPE   C3516433   1.793   5.550   5.888 -0.0842  0.0699  0.5696
  149SAPE   H5X16434   1.683   5.553   5.902 -0.2330 -2.9882  0.7919
  149SAPE   H5Y16435   1.828   5.449   5.857 -0.8285  0.7081 -2.6036
  149SAPE   C3616436   1.829   5.653   5.778  0.2183 -0.7414  0.5581
  149SAPE   H6X16437   1.938   5.672   5.778  0.2215 -0.5312 -1.1158
  149SAPE   H6Y16438   1.780   5.749   5.807 -1.5346 -0.9536 -1.4216
  149SAPE   C3716439   1.793   5.599   5.640 -0.1922 -0.1315  0.1060
  149SAPE   H7X16440   1.696   5.543   5.642 -1.0930  1.3672  1.3168
  149SAPE   H7Y16441   1.867   5.521   5.612  0.1875  0.9169 -1.9565
  149SAPE   C3816442   1.795   5.700   5.522 -0.6686 -0.4646 -0.3240
  149SAPE   H8X16443   1.900   5.735   5.517 -0.8455 -0.1069 -3.1310
  149SAPE   H8Y16444   1.739   5.794   5.542  1.6859  1.0153 -0.3360
  149SAPE   C3916445   1.751   5.623   5.396  0.1686  0.0391 -0.5653
  149SAPE   H9X16446   1.644   5.594   5.407 -0.2145  1.3333 -0.6536
  149SAPE   H9Y16447   1.819   5.536   5.395 -1.5121 -1.3419 -2.1459
  149SAPE  C31016448   1.764   5.699   5.267 -0.5625  0.3490  0.0325
  149SAPE  H10X16449   1.730   5.804   5.278 -1.8601 -0.2110  1.8920
  149SAPE  H10Y16450   1.708   5.647   5.187  0.2122  1.5432 -1.3195
  149SAPE  C31116451   1.911   5.714   5.229 -0.1367  0.1348 -0.3797
  149SAPE  H11X16452   1.970   5.750   5.316 -1.3806  0.7547  0.2296
  149SAPE  H11Y16453   1.913   5.789   5.147  0.5645  0.5256 -0.0144
  149SAPE  C31216454   1.969   5.583   5.170 -0.8711 -0.0553  0.7432
  149SAPE  H12X16455   1.903   5.555   5.085  0.3556 -1.3016  0.1597
  149SAPE  H12Y16456   1.968   5.501   5.245 -0.3407  1.0670  2.0183
  149SAPE  C31316457   2.114   5.611   5.121  0.2653 -0.7868 -0.0920
  149SAPE  H13X16458   2.175   5.611   5.214 -1.3006  0.0433  0.9731
  149SAPE  H13Y16459   2.128   5.714   5.081 -0.5509 -1.4325 -2.1948
  149SAPE  C31416460   2.181   5.501   5.037  0.7045  0.4820 -0.2885
  149SAPE  H14X16461   2.106   5.468   4.961 -0.3946  0.0339  0.9602
  149SAPE  H14Y16462   2.208   5.417   5.104  0.2055 -1.8979 -2.8554
  149SAPE  C31516463   2.313   5.538   4.962 -0.3596  0.1403 -0.1868
  149SAPE  H15X16464   2.355   5.440   4.930 -0.7000 -0.6511  1.6519
  149SAPE  H15Y16465   2.378   5.597   5.030 -0.4997  0.4812 -0.3446
  149SAPE  C31616466   2.294   5.622   4.829  0.5809  0.1624  0.7072
  149SAPE  H16X16467   2.296   5.732   4.848  1.6123  0.1344  0.7969
  149SAPE  H16Y16468   2.197   5.594   4.784  1.6220  0.3579 -1.7939
  149SAPE  C31716469   2.402   5.599   4.726  0.2139 -0.6606 -0.2479
  149SAPE  H17X16470   2.408   5.492   4.695  0.0358 -0.5518 -0.6637
  149SAPE  H17Y16471   2.498   5.629   4.772  0.3850  1.6160 -1.9377
  149SAPE  C31816472   2.373   5.675   4.596 -0.6013 -0.2688 -0.4348
  149SAPE  H18X16473   2.367   5.783   4.622  0.2438 -0.8080  2.3759
  149SAPE  H18Y16474   2.284   5.635   4.543 -0.0103 -1.1164 -0.8022
  149SAPE  H18Z16475   2.453   5.656   4.522 -0.7431 -3.1541  0.0499
  150SAPE     N16476   4.355   4.341   7.050 -0.3072  0.0772 -0.0761
  150SAPE   HN116477   4.275   4.407   7.038  0.8636  1.2934 -1.6042
  150SAPE   HN216478   4.341   4.279   7.132 -0.3425 -0.7651 -0.6987
  150SAPE   HN316479   4.435   4.405   7.061 -0.0459  0.0677 -1.6753
  150SAPE   C1216480   4.381   4.254   6.932  0.1226  0.2334 -0.4038
  150SAPE  H12A16481   4.490   4.239   6.923 -0.0440  0.1403 -3.1024
  150SAPE  H12B16482   4.343   4.309   6.843  1.6425 -1.2621 -2.0342
  150SAPE   C1116483   4.309   4.112   6.933  0.5933 -0.5558  0.4870
  150SAPE  H11A16484   4.356   4.065   7.022  0.6861  1.6052  1.6350
  150SAPE  H11B16485   4.343   4.064   6.839 -0.7737  1.8834 -1.3583
  150SAPE     P16486   4.090   3.990   7.023 -0.0927 -0.2090  0.2304
  150SAPE   O1316487   4.179   3.872   7.016 -0.1357 -0.3475  0.1816
  150SAPE   O1416488   4.043   4.035   7.158  0.6148 -0.1520  0.0232
  150SAPE   O1216489   4.170   4.117   6.948  0.3333  0.0987  0.3355
  150SAPE   O1116490   3.968   3.962   6.924 -0.1740 -0.0870 -0.2314
  150SAPE    C116491   3.917   4.051   6.826 -0.3086  0.6460 -0.0014
  150SAPE    HA16492   3.834   4.112   6.867  0.9406  1.1928  1.8688
  150SAPE    HB16493   3.990   4.126   6.790  0.0047  0.5749  0.4783
  150SAPE    C216494   3.860   3.975   6.707  0.1467  0.3276  0.4153
  150SAPE    HS16495   3.800   3.899   6.762 -0.7928  1.3478  0.8392
  150SAPE   O2116496   3.968   3.920   6.620  0.3606 -0.2988 -0.8388
  150SAPE   C2116497   3.923   3.808   6.561  0.0044  0.4307  0.0484
  150SAPE   O2216498   3.815   3.749   6.580  0.1391  0.0995  0.3373
  150SAPE   C2216499   4.025   3.767   6.457  0.0330 -0.2926  0.2133
  150SAPE   H2R16500   4.041   3.853   6.389  0.3167 -1.6928 -1.5685
  150SAPE   H2S16501   4.119   3.736   6.508 -1.8395 -2.2691  2.7427
  150SAPE    C316502   3.764   4.063   6.605 -0.5454 -0.8992  0.3625
  150SAPE    HX16503   3.823   4.152   6.576  0.3798 -1.3550  0.8246
  150SAPE    HY16504   3.684   4.107   6.669  0.1140 -0.3362  0.8097
  150SAPE   O3116505   3.716   3.997   6.490 -0.6699  0.1860 -0.4533
  150SAPE   C3116506   3.593   3.945   6.486  0.6442  0.6436 -0.1880
  150SAPE   O3216507   3.507   3.959   6.574 -0.4854  0.3521 -0.3217
  150SAPE   C3216508   3.569   3.886   6.343  0.6690 -0.1233 -0.0815
  150SAPE   H2X16509   3.646   3.809   6.321 -0.3086 -0.4654 -2.7609
  150SAPE   H2Y16510   3.581   3.969   6.270 -0.9095  0.4185  0.2396
  150SAPE   C2316511   3.984   3.644   6.376  0.2878 -0.5952 -0.3413
  150SAPE   H3R16512   3.881   3.656   6.336  1.3038 -1.2428 -3.4524
  150SAPE   H3S16513   4.000   3.552   6.436  1.1752 -2.5325 -3.3254
  150SAPE   C2416514   4.070   3.625   6.252  0.1503  0.3205 -0.9946
  150SAPE   H4R16515   4.063   3.722   6.197 -1.7883 -0.5878 -2.5156
  150SAPE   H4S16516   4.022   3.549   6.186  1.1037 -1.0986 -0.1027
  150SAPE   C2516517   4.216   3.586   6.282 -0.8758 -0.3802  0.0170
  150SAPE   H5R16518   4.231   3.502   6.351  0.1206 -1.3020 -1.2637
  150SAPE   C2616519   4.331   3.636   6.224  0.0477  0.4798  0.1976
  150SAPE   H6R16520   4.427   3.595   6.260  0.6400  2.8848  1.5605
  150SAPE   C2716521   4.343   3.764   6.138 -0.5617 -0.3292  0.4369
  150SAPE   H7R16522   4.449   3.791   6.121 -0.5856 -1.0159 -0.9383
  150SAPE   H7S16523   4.291   3.849   6.187  0.6028  0.1789  0.8339
  150SAPE   C2816524   4.280   3.735   5.998 -0.0948  0.3938 -0.3510
  150SAPE   H8R16525   4.297   3.634   5.958 -2.0231 -0.0021 -0.2579
  150SAPE   C2916526   4.194   3.816   5.933 -0.9328  0.6551  0.6775
  150SAPE   H9R16527   4.160   3.787   5.833 -1.2008 -0.9112  1.2062
  150SAPE  C21016528   4.145   3.948   5.976  0.5183  0.4558 -0.0244
  150SAPE  H10R16529   4.223   4.026   5.969 -0.2292  1.5714  2.8946
  150SAPE  H10S16530   4.129   3.944   6.085 -1.3929 -0.1574 -0.2774
  150SAPE  C21116531   4.016   3.986   5.911 -0.3048 -0.0042 -0.2782
  150SAPE  H11R16532   3.924   3.997   5.971 -1.1546 -0.5985 -1.4235
  150SAPE  C21216533   4.006   4.026   5.782  0.3439 -0.1572  0.4938
  150SAPE  H12R16534   3.910   4.047   5.733  0.3610  0.6382  0.7927
  150SAPE  C21316535   4.112   4.027   5.676  0.2923 -0.3804  0.1660
  150SAPE  H13R16536   4.119   3.926   5.630  1.4847  0.4267 -1.5893
  150SAPE  H13S16537   4.208   4.032   5.732  1.0597 -0.0429 -1.1102
  150SAPE  C21416538   4.110   4.137   5.572  0.0764  0.1095  0.2150
  150SAPE  H14R16539   4.136   4.240   5.602  1.8416  0.0369 -0.9150
  150SAPE  C21516540   4.097   4.110   5.439  0.3268 -0.1479 -0.3935
  150SAPE  H15R16541   4.100   4.197   5.372  1.9904  1.3997  1.5635
  150SAPE  C21616542   4.052   3.977   5.384 -0.5765 -0.0194  0.4886
  150SAPE  H16R16543   3.945   3.962   5.406 -0.4815  0.3051  1.2051
  150SAPE  H16S16544   4.111   3.897   5.433  0.4767 -0.8335 -1.9438
  150SAPE  C21716545   4.056   3.966   5.225  0.3939 -0.1522  0.3460
  150SAPE  H17R16546   4.033   3.862   5.191 -0.0962  0.7882 -2.3635
  150SAPE  H17S16547   4.161   3.978   5.192  0.8707 -0.9284  1.4954
  150SAPE  C21816548   3.969   4.072   5.148 -0.2271  0.2711  0.1926
  150SAPE  H18R16549   3.978   4.171   5.197 -0.6475 -0.6581  2.2382
  150SAPE  H18S16550   3.864   4.040   5.162 -0.2918 -0.0914 -0.9797
  150SAPE  C21916551   4.001   4.077   5.001  0.0375 -0.0857 -0.2920
  150SAPE  H19R16552   4.107   4.087   4.972 -0.9707 -0.0894 -4.6936
  150SAPE  H19S16553   3.948   4.168   4.966 -1.1002 -0.2245  0.9371
  150SAPE  C22016554   3.945   3.953   4.925 -0.6239 -0.1207 -0.3883
  150SAPE  H20R16555   3.932   3.982   4.819  0.9246 -0.7328 -0.7797
  150SAPE  H20S16556   3.841   3.958   4.964 -1.2903  2.3352 -2.2135
  150SAPE  H20T16557   3.993   3.854   4.939 -3.6709 -1.5544  0.6820
  150SAPE   C3316558   3.429   3.822   6.321 -0.8474 -0.0086 -0.2098
  150SAPE   H3X16559   3.362   3.851   6.404  2.3908 -0.9202  2.9761
  150SAPE   H3Y16560   3.438   3.714   6.345 -0.9680  0.1195  0.4210
  150SAPE   C3416561   3.389   3.849   6.175 -0.2816  0.3178 -0.6652
  150SAPE   H4X16562   3.365   3.957   6.178 -0.3141  0.2984  0.0396
  150SAPE   H4Y16563   3.304   3.781   6.154  0.6549 -1.2966  0.4976
  150SAPE   C3516564   3.500   3.825   6.070 -0.3452  0.0796 -0.6659
  150SAPE   H5X16565   3.532   3.720   6.086  1.2863  0.5427 -0.6683
  150SAPE   H5Y16566   3.591   3.887   6.087 -0.2249 -0.2568 -0.0645
  150SAPE   C3616567   3.449   3.846   5.928 -0.0483  0.0608  0.1829
  150SAPE   H6X16568   3.407   3.948   5.927 -0.2341 -0.0103  0.5567
  150SAPE   H6Y16569   3.359   3.781   5.915 -0.6344  0.8990 -0.0212
  150SAPE   C3716570   3.557   3.811   5.827  1.3278  0.5295  0.3182
  150SAPE   H7X16571   3.598   3.709   5.844  0.4631  0.1043 -0.0697
  150SAPE   H7Y16572   3.647   3.876   5.819  1.2214  0.4506 -2.5508
  150SAPE   C3816573   3.504   3.824   5.683  0.4759 -0.1030 -0.1887
  150SAPE   H8X16574   3.486   3.931   5.661 -0.9414 -0.1097  0.8320
  150SAPE   H8Y16575   3.404   3.776   5.678 -0.4735  1.9225 -2.6797
  150SAPE   C3916576   3.597   3.757   5.587 -0.0307 -0.2685 -0.0123
  150SAPE   H9X16577   3.625   3.654   5.615  2.4486 -0.0226 -1.3557
  150SAPE   H9Y16578   3.690   3.816   5.575 -1.0607  1.4182 -0.0559
  150SAPE  C31016579   3.530   3.759   5.447 -0.0230  0.0573  0.1283
  150SAPE  H10X16580   3.492   3.863   5.436  0.6930  0.2709 -0.4378
  150SAPE  H10Y16581   3.443   3.691   5.435 -0.6547  0.3448  2.5504
  150SAPE  C31116582   3.629   3.718   5.330 -0.9434  0.0305 -0.7050
  150SAPE  H11X16583   3.672   3.619   5.356 -1.6363  0.2872  1.6620
  150SAPE  H11Y16584   3.701   3.803   5.325  0.0109 -0.0554  5.0786
  150SAPE  C31216585   3.566   3.701   5.192  0.6705  0.3206  0.6970
  150SAPE  H12X16586   3.483   3.628   5.194 -0.2057  1.1737 -1.4399
  150SAPE  H12Y16587   3.648   3.671   5.123  0.1643  0.7267 -0.0913
  150SAPE  C31316588   3.490   3.828   5.138 -0.0886  0.3042  0.5224
  150SAPE  H13X16589   3.548   3.918   5.169  0.3855 -0.3653  1.6524
  150SAPE  H13Y16590   3.392   3.821   5.190  0.0216 -1.3857  0.5663
  150SAPE  C31416591   3.445   3.811   4.993 -0.3864 -0.7117 -0.6750
  150SAPE  H14X16592   3.374   3.726   4.987  0.8476 -1.7807 -0.6923
  150SAPE  H14Y16593   3.541   3.797   4.938 -0.7601  1.3953 -1.9875
  150SAPE  C31516594   3.410   3.953   4.945  0.1118  0.2864 -0.0076
  150SAPE  H15X16595   3.491   4.027   4.958 -0.4147  1.1709 -1.5638
  150SAPE  H15Y16596   3.325   3.980   5.011 -0.6774 -2.0306  0.0490
  150SAPE  C31616597   3.365   3.953   4.798  0.7276 -0.4268  0.0045
  150SAPE  H16X16598   3.442   3.892   4.745 -0.3993 -2.2900  0.3940
  150SAPE  H16Y16599   3.382   4.055   4.757 -1.2860 -0.1879 -0.3199
  150SAPE  C31716600   3.228   3.899   4.767  0.2966 -0.0220 -0.1780
  150SAPE  H17X16601   3.214   3.801   4.817 -2.3780  0.1177 -0.5185
  150SAPE  H17Y16602   3.235   3.885   4.657  2.0317  1.9736 -0.3926
  150SAPE  C31816603   3.119   4.002   4.807  0.1373  0.4152 -0.2258
  150SAPE  H18X16604   3.144   4.099   4.759 -0.9067  0.5726 -0.4718
  150SAPE  H18Y16605   3.105   4.023   4.915  0.0320  0.4305 -0.2431
  150SAPE  H18Z16606   3.025   3.978   4.752  0.1935  2.6333 -1.3777
  151SAPE     N16607   4.362   2.645   6.954  0.6476 -0.4508 -0.1527
  151SAPE   HN116608   4.398   2.699   6.872 -2.0568  0.5748 -0.7607
  151SAPE   HN216609   4.313   2.714   7.014  0.8126 -1.1767  0.8372
  151SAPE   HN316610   4.447   2.608   7.000  1.1395  1.1053  0.2577
  151SAPE   C1216611   4.267   2.538   6.926 -0.3495 -0.7056  0.5356
  151SAPE  H12A16612   4.215   2.508   7.019  0.6757 -3.7269  0.2477
  151SAPE  H12B16613   4.330   2.455   6.886 -0.7356 -0.0421 -1.5696
  151SAPE   C1116614   4.178   2.586   6.808  0.2736 -0.2565 -0.2119
  151SAPE  H11A16615   4.111   2.501   6.782 -1.1974  0.7885  0.0430
  151SAPE  H11B16616   4.242   2.616   6.722  0.6091 -1.8307 -0.5415
  151SAPE     P16617   3.958   2.647   6.922  0.4956 -0.1505 -0.0835
  151SAPE   O1316618   3.982   2.516   6.989 -0.4323 -0.3359 -0.2722
  151SAPE   O1416619   3.905   2.753   7.009 -0.1229 -0.3757 -0.2304
  151SAPE   O1216620   4.087   2.689   6.844 -0.6508 -0.9163  0.2795
  151SAPE   O1116621   3.852   2.616   6.804  0.7316 -0.4746 -0.6936
  151SAPE    C116622   3.814   2.725   6.714  0.1937 -0.3771  0.5324
  151SAPE    HA16623   3.709   2.749   6.740  0.2829 -1.8630  2.5278
  151SAPE    HB16624   3.879   2.815   6.718  0.2673 -0.3742 -0.4500
  151SAPE    C216625   3.820   2.683   6.564 -0.0451  0.2752  0.4353
  151SAPE    HS16626   3.810   2.779   6.509  2.1006  0.4109  0.1706
  151SAPE   O2116627   3.709   2.590   6.541  0.7935  0.0927 -0.2384
  151SAPE   C2116628   3.590   2.655   6.515  0.6313  1.3606  0.0769
  151SAPE   O2216629   3.574   2.775   6.517  0.5354  0.2347  0.0112
  151SAPE   C2216630   3.471   2.549   6.504  0.1428 -0.2328 -0.5850
  151SAPE   H2R16631   3.498   2.468   6.575  0.1369 -0.9989 -1.4379
  151SAPE   H2S16632   3.377   2.592   6.545 -0.9654 -1.0326 -2.2060
  151SAPE    C316633   3.961   2.635   6.520 -0.8127 -0.7950 -0.6345
  151SAPE    HX16634   3.972   2.534   6.565  0.6032  0.4604  2.1312
  151SAPE    HY16635   4.040   2.703   6.558 -1.2422 -0.3771 -0.4691
  151SAPE   O3116636   3.967   2.618   6.378 -0.0117  0.4838  1.1291
  151SAPE   C3116637   4.085   2.582   6.331 -0.2670 -0.0883  0.4026
  151SAPE   O3216638   4.183   2.560   6.397 -1.2624  0.2957 -0.9755
  151SAPE   C3216639   4.084   2.556   6.184  0.7640  0.1349 -0.2001
  151SAPE   H2X16640   4.175   2.607   6.145  0.6557 -0.7445 -1.6518
  151SAPE   H2Y16641   4.000   2.614   6.140  1.5051  1.0232 -0.4912
  151SAPE   C2316642   3.453   2.495   6.360 -0.2508  0.0808  0.9166
  151SAPE   H3R16643   3.506   2.542   6.274 -0.1639  0.4723  1.1784
  151SAPE   H3S16644   3.351   2.531   6.338  0.7418  2.1384 -0.7513
  151SAPE   C2416645   3.482   2.337   6.336 -0.0433 -0.2631 -0.0259
  151SAPE   H4R16646   3.464   2.323   6.227  0.4675 -0.2545 -0.1151
  151SAPE   H4S16647   3.411   2.269   6.387 -0.8804  1.3274  1.0361
  151SAPE   C2516648   3.622   2.298   6.381 -0.4939 -0.3560 -0.1638
  151SAPE   H5R16649   3.634   2.284   6.490  2.1858 -0.7769 -0.4427
  151SAPE   C2616650   3.725   2.288   6.297 -0.8818 -0.2465  0.2941
  151SAPE   H6R16651   3.819   2.258   6.347 -1.1192  0.8922  1.4974
  151SAPE   C2716652   3.726   2.326   6.149 -0.3588 -0.0305  0.7344
  151SAPE   H7R16653   3.639   2.283   6.095  0.6280 -0.9897 -0.1437
  151SAPE   H7S16654   3.811   2.271   6.103  0.5944  0.4060  1.9021
  151SAPE   C2816655   3.731   2.473   6.117 -0.4398  0.6234 -0.2178
  151SAPE   H8R16656   3.720   2.535   6.207 -0.0265 -0.5507  0.6685
  151SAPE   C2916657   3.732   2.524   5.995  0.6236  0.6483  0.5655
  151SAPE   H9R16658   3.732   2.633   5.978 -1.4095  0.5318 -0.5873
  151SAPE  C21016659   3.733   2.445   5.870  0.5594  0.0619 -0.3298
  151SAPE  H10R16660   3.740   2.336   5.889  2.5685  0.2416  0.2197
  151SAPE  H10S16661   3.827   2.483   5.825  0.0243  0.9562 -0.7267
  151SAPE  C21116662   3.614   2.484   5.783 -0.4980 -0.0474  0.0959
  151SAPE  H11R16663   3.519   2.504   5.835 -1.2950 -0.2198 -1.2385
  151SAPE  C21216664   3.619   2.508   5.653 -0.1752 -0.2633  0.4216
  151SAPE  H12R16665   3.519   2.516   5.608 -0.6036  0.9416  1.5330
  151SAPE  C21316666   3.733   2.503   5.551  0.5963  0.0490  0.2838
  151SAPE  H13R16667   3.814   2.433   5.581  1.5774 -0.6150 -3.4300
  151SAPE  H13S16668   3.778   2.603   5.569 -0.5780  0.5445  0.5889
  151SAPE  C21416669   3.703   2.475   5.411 -0.0157  0.2878 -0.4387
  151SAPE  H14R16670   3.676   2.370   5.393 -1.0068  0.3924  0.3745
  151SAPE  C21516671   3.691   2.569   5.313 -0.5179 -0.3103 -0.2363
  151SAPE  H15R16672   3.670   2.546   5.208  1.3078  0.6185 -0.8571
  151SAPE  C21616673   3.720   2.718   5.336  0.2361 -0.2773  0.9190
  151SAPE  H16R16674   3.816   2.724   5.392 -0.1035 -0.1590  1.4953
  151SAPE  H16S16675   3.640   2.768   5.395 -0.6343  1.7373 -1.7341
  151SAPE  C21716676   3.741   2.794   5.202  0.2523 -0.1643  0.3421
  151SAPE  H17R16677   3.656   2.762   5.137  1.2396 -0.7105 -0.7191
  151SAPE  H17S16678   3.833   2.759   5.151 -0.8237 -1.3581 -0.8815
  151SAPE  C21816679   3.751   2.948   5.203  0.3888  0.1251 -0.4950
  151SAPE  H18R16680   3.834   2.964   5.275 -0.5740 -0.4593  0.7870
  151SAPE  H18S16681   3.663   2.994   5.253  1.0401 -0.2469  1.0413
  151SAPE  C21916682   3.782   3.017   5.068 -0.4491  0.6598 -0.4401
  151SAPE  H19R16683   3.710   2.987   4.989  1.1543  0.9830 -2.0827
  151SAPE  H19S16684   3.880   2.975   5.037 -0.3241 -0.1344  0.9482
  151SAPE  C22016685   3.790   3.166   5.082 -0.8914  0.3111 -0.4699
  151SAPE  H20R16686   3.698   3.219   5.115 -1.2333 -0.7240  0.3176
  151SAPE  H20S16687   3.801   3.211   4.981 -0.0538 -0.5034 -0.7584
  151SAPE  H20T16688   3.879   3.194   5.143  0.6259 -1.2062 -1.8723
  151SAPE   C3316689   4.096   2.412   6.150  0.0121  0.2947  0.5176
  151SAPE   H3X16690   4.013   2.349   6.190  1.2789 -1.7065  0.1362
  151SAPE   H3Y16691   4.185   2.363   6.196  0.5917  0.6567 -0.2127
  151SAPE   C3416692   4.110   2.388   5.998 -0.0678  0.2107 -0.0112
  151SAPE   H4X16693   4.021   2.441   5.959  1.2518  2.3685 -0.2624
  151SAPE   H4Y16694   4.083   2.283   5.975 -1.1095  0.2226  1.0804
  151SAPE   C3516695   4.240   2.436   5.929  0.3335  0.1495  0.4266
  151SAPE   H5X16696   4.333   2.382   5.959  0.9189  1.2090  0.5658
  151SAPE   H5Y16697   4.273   2.538   5.958  0.0484  0.6567 -0.9571
  151SAPE   C3616698   4.238   2.435   5.774  0.3691  0.8277  0.2982
  151SAPE   H6X16699   4.221   2.332   5.736  1.4840  1.6846 -2.7769
  151SAPE   H6Y16700   4.336   2.464   5.732  0.3572  1.1018  0.4591
  151SAPE   C3716701   4.126   2.515   5.714 -0.8298  0.4884 -0.3736
  151SAPE   H7X16702   4.136   2.623   5.738  0.1416  0.4254 -0.4453
  151SAPE   H7Y16703   4.030   2.476   5.754 -0.0266 -0.6957  0.4830
  151SAPE   C3816704   4.119   2.510   5.551 -0.4337 -0.2387 -0.8013
  151SAPE   H8X16705   4.017   2.535   5.515 -0.9569 -0.8208  0.2129
  151SAPE   H8Y16706   4.122   2.402   5.529  0.6013 -0.7619  1.5511
  151SAPE   C3916707   4.242   2.574   5.483 -0.0911  0.7489 -0.1261
  151SAPE   H9X16708   4.324   2.500   5.499 -1.6534 -0.9660  0.3295
  151SAPE   H9Y16709   4.267   2.671   5.531  0.0771 -0.3967  2.2440
  151SAPE  C31016710   4.219   2.593   5.335 -0.3643  0.0374  0.7901
  151SAPE  H10X16711   4.301   2.658   5.298  0.3844 -0.2803  1.8586
  151SAPE  H10Y16712   4.120   2.643   5.324 -1.9483 -2.3928  2.8750
  151SAPE  C31116713   4.221   2.463   5.252  0.5734 -0.6634 -0.2286
  151SAPE  H11X16714   4.137   2.394   5.270  0.6458 -0.6497  0.1806
  151SAPE  H11Y16715   4.306   2.411   5.300  0.0635 -1.8614 -0.6029
  151SAPE  C31216716   4.261   2.482   5.104  0.1774 -0.4330  0.0329
  151SAPE  H12X16717   4.266   2.381   5.058  1.1325 -0.8350  0.9823
  151SAPE  H12Y16718   4.364   2.524   5.111  0.0599 -0.3810  1.7780
  151SAPE  C31316719   4.171   2.589   5.034 -0.0281 -0.8740 -0.4515
  151SAPE  H13X16720   4.210   2.622   4.935 -1.2099 -2.2443 -1.4227
  151SAPE  H13Y16721   4.165   2.686   5.089 -3.2069  0.7953 -3.3307
  151SAPE  C31416722   4.023   2.554   5.020 -1.0393 -0.3247 -0.0916
  151SAPE  H14X16723   3.963   2.545   5.113 -1.0219  0.7303  0.0408
  151SAPE  H14Y16724   4.020   2.450   4.982 -0.3929 -0.3502 -0.0816
  151SAPE  C31516725   3.944   2.656   4.926 -0.3733 -0.0187  0.0827
  151SAPE  H15X16726   4.002   2.692   4.839 -2.3042 -3.3254 -2.8942
  151SAPE  H15Y16727   3.924   2.751   4.979 -0.1027 -0.4180  0.9270
  151SAPE  C31616728   3.818   2.587   4.867 -0.0670 -0.2798 -0.3400
  151SAPE  H16X16729   3.757   2.556   4.955  0.1127 -1.0451 -0.4737
  151SAPE  H16Y16730   3.851   2.498   4.809  2.3044  0.5784 -0.4387
  151SAPE  C31716731   3.730   2.690   4.782 -0.0880  0.4970  0.1410
  151SAPE  H17X16732   3.702   2.771   4.853 -3.0108 -2.2560  2.4401
  151SAPE  H17Y16733   3.640   2.636   4.744  2.7486 -3.6640 -1.3436
  151SAPE  C31816734   3.800   2.749   4.656 -0.6929  0.1358 -0.0952
  151SAPE  H18X16735   3.874   2.825   4.688 -1.2252  0.2269  0.9722
  151SAPE  H18Y16736   3.723   2.804   4.597 -2.4327 -0.3087  1.6449
  151SAPE  H18Z16737   3.846   2.673   4.590  1.4595  2.7999 -1.8814
  152SAPE     N16738   6.008   5.932   6.981 -0.1994 -0.5906  0.4460
  152SAPE   HN116739   5.989   5.840   6.937  0.8269 -0.5364 -0.1387
  152SAPE   HN216740   5.978   6.001   6.908 -1.0535 -3.2461 -1.8828
  152SAPE   HN316741   6.111   5.938   6.990  0.0587 -0.3407 -2.1060
  152SAPE   C1216742   5.935   5.958   7.106 -0.2704  0.8685  0.1742
  152SAPE  H12A16743   5.836   5.914   7.082 -0.2733  0.3795  1.0438
  152SAPE  H12B16744   5.927   6.065   7.133  0.6131  0.7433  0.9562
  152SAPE   C1116745   6.004   5.876   7.223 -0.0318 -0.0324  0.4461
  152SAPE  H11A16746   6.002   5.767   7.201  0.6846  0.0076  0.1836
  152SAPE  H11B16747   5.932   5.886   7.307  0.8864  1.6457  1.0843
  152SAPE     P16748   6.271   5.866   7.195 -0.1534 -0.1757  0.0344
  152SAPE   O1316749   6.385   5.929   7.262 -0.7445 -0.0749 -0.7870
  152SAPE   O1416750   6.267   5.725   7.178 -0.6522  0.0719  0.0614
  152SAPE   O1216751   6.135   5.925   7.256 -0.4129  0.0950 -0.1262
  152SAPE   O1116752   6.261   5.934   7.054  0.1575  0.2200  0.1537
  152SAPE    C116753   6.320   5.864   6.945 -0.0774  0.1160 -0.3244
  152SAPE    HA16754   6.409   5.811   6.984  1.3370  0.2210 -3.1708
  152SAPE    HB16755   6.261   5.777   6.910  0.9690 -0.3019 -1.0955
  152SAPE    C216756   6.376   5.959   6.831  0.5265  0.2089  0.8740
  152SAPE    HS16757   6.442   6.033   6.880 -0.4859  1.4330  0.4477
  152SAPE   O2116758   6.265   6.013   6.753 -0.0785  0.9834 -0.1102
  152SAPE   C2116759   6.269   6.136   6.736  0.1720 -0.3592  0.4456
  152SAPE   O2216760   6.349   6.215   6.778  0.1453  0.2130  0.1533
  152SAPE   C2216761   6.151   6.166   6.640  0.2477  0.6103  0.1820
  152SAPE   H2R16762   6.187   6.142   6.538 -0.6963 -2.1600  0.4184
  152SAPE   H2S16763   6.062   6.106   6.669 -0.6420  0.8001 -2.0027
  152SAPE    C316764   6.469   5.891   6.733 -0.0649 -0.4348 -0.1878
  152SAPE    HX16765   6.416   5.805   6.686 -1.0999 -0.4222  0.8928
  152SAPE    HY16766   6.558   5.849   6.785 -0.1535 -2.9016 -1.8450
  152SAPE   O3116767   6.518   5.984   6.627 -0.1843  0.1743 -0.5277
  152SAPE   C3116768   6.602   6.076   6.665  0.3682 -0.0714  0.1627
  152SAPE   O3216769   6.674   6.078   6.765 -0.2921 -0.3258 -0.0226
  152SAPE   C3216770   6.597   6.176   6.552  0.0363  0.5672  0.4613
  152SAPE   H2X16771   6.702   6.197   6.521  0.3937  0.6958  1.6925
  152SAPE   H2Y16772   6.541   6.268   6.579  0.3676  1.1720 -0.8572
  152SAPE   C2316773   6.123   6.314   6.636 -0.2102  0.8626 -0.0619
  152SAPE   H3R16774   6.214   6.370   6.603  0.9145 -0.1825  1.1924
  152SAPE   H3S16775   6.101   6.357   6.736  0.8619  1.6760 -0.1577
  152SAPE   C2416776   6.000   6.356   6.552 -0.2619  0.0552  0.1030
  152SAPE   H4R16777   5.912   6.294   6.581  0.4360 -1.5080 -0.9557
  152SAPE   H4S16778   6.019   6.322   6.448 -0.3467  0.3861 -0.0214
  152SAPE   C2516779   5.967   6.503   6.564 -0.4786  0.1151 -0.3514
  152SAPE   H5R16780   5.933   6.537   6.663  2.3211 -1.4737  1.3062
  152SAPE   C2616781   5.992   6.591   6.466  0.6692 -0.1909 -0.0054
  152SAPE   H6R16782   5.971   6.696   6.491  2.7990  0.3449 -0.2838
  152SAPE   C2716783   6.028   6.565   6.323  0.3392 -0.4103 -0.1777
  152SAPE   H7R16784   6.127   6.519   6.299  0.2839  0.0526 -1.3976
  152SAPE   H7S16785   6.045   6.667   6.280  1.8187 -1.2613 -1.7710
  152SAPE   C2816786   5.917   6.495   6.240  0.2796 -0.5577  0.0478
  152SAPE   H8R16787   5.837   6.442   6.294  0.5906 -0.7288  0.3442
  152SAPE   C2916788   5.922   6.499   6.102 -0.3194 -0.1084 -0.1464
  152SAPE   H9R16789   5.847   6.442   6.045  0.0007 -1.3218  0.6023
  152SAPE  C21016790   6.024   6.573   6.015  0.2083 -0.4405  0.7426
  152SAPE  H10R16791   6.049   6.513   5.926 -0.2952 -0.5632  0.6847
  152SAPE  H10S16792   6.124   6.580   6.062  0.4892  2.5648 -0.0669
  152SAPE  C21116793   5.976   6.711   5.982  0.4519  0.1591  0.5468
  152SAPE  H11R16794   5.949   6.772   6.069 -0.3747  0.3272  0.1807
  152SAPE  C21216795   5.946   6.750   5.858  0.6856 -0.3585  0.5108
  152SAPE  H12R16796   5.904   6.851   5.842 -1.2811 -1.2962 -0.5555
  152SAPE  C21316797   5.977   6.678   5.733  0.0961  0.1669 -0.0741
  152SAPE  H13R16798   5.921   6.583   5.725  0.5393 -0.1032  0.0335
  152SAPE  H13S16799   6.084   6.651   5.734  0.3298  0.9209  2.1601
  152SAPE  C21416800   5.942   6.769   5.616 -1.3165 -0.3319  0.5640
  152SAPE  H14R16801   5.836   6.796   5.615 -0.8917  1.5993  1.8982
  152SAPE  C21516802   6.031   6.841   5.544 -0.2991 -0.6076  0.1268
  152SAPE  H15R16803   5.990   6.896   5.458 -1.5837  0.3871  1.3252
  152SAPE  C21616804   6.179   6.848   5.562  0.0863 -0.1786 -0.1174
  152SAPE  H16R16805   6.219   6.812   5.659 -0.0446  0.5661  0.2210
  152SAPE  H16S16806   6.222   6.950   5.550 -1.4731  0.2750 -2.7220
  152SAPE  C21716807   6.234   6.753   5.448  0.5981 -0.3778 -0.0784
  152SAPE  H17R16808   6.197   6.648   5.453 -1.2307  0.2332 -0.0273
  152SAPE  H17S16809   6.343   6.755   5.466  0.4107 -1.0570  1.2846
  152SAPE  C21816810   6.219   6.803   5.307  0.2131  0.3858 -0.3743
  152SAPE  H18R16811   6.258   6.908   5.305 -2.2959  1.3704 -1.3731
  152SAPE  H18S16812   6.113   6.808   5.277  0.6336  2.8381 -1.7092
  152SAPE  C21916813   6.299   6.705   5.215  0.5741  0.6474  0.8758
  152SAPE  H19R16814   6.254   6.606   5.236 -0.1706  0.5813 -0.8928
  152SAPE  H19S16815   6.401   6.678   5.249 -0.6038 -3.0381  1.8937
  152SAPE  C22016816   6.293   6.739   5.064  0.8306  0.2163 -0.2075
  152SAPE  H20R16817   6.345   6.661   5.004  0.4594  1.0304 -1.6406
  152SAPE  H20S16818   6.349   6.834   5.053  0.6875  0.3977  0.5702
  152SAPE  H20T16819   6.185   6.745   5.039  0.4823  1.4068  1.4224
  152SAPE   C3316820   6.536   6.127   6.412  0.0687 -0.3548  0.7821
  152SAPE   H3X16821   6.426   6.119   6.415 -0.1809  0.6995 -2.4185
  152SAPE   H3Y16822   6.576   6.025   6.393  1.5742  0.2387  0.6052
  152SAPE   C3416823   6.584   6.208   6.288  0.2331  0.2544 -0.5191
  152SAPE   H4X16824   6.694   6.210   6.302 -0.0069  2.6098  1.6401
  152SAPE   H4Y16825   6.545   6.312   6.297 -0.4034  0.1818 -2.1436
  152SAPE   C3516826   6.532   6.148   6.161  0.0928 -0.4606 -0.3895
  152SAPE   H5X16827   6.421   6.148   6.161  0.0644  0.0233  1.5293
  152SAPE   H5Y16828   6.551   6.039   6.149  0.7525 -0.7378  2.5287
  152SAPE   C3616829   6.601   6.205   6.030  0.6881  0.5478 -0.7445
  152SAPE   H6X16830   6.707   6.173   6.021  0.6645  1.0546 -4.6436
  152SAPE   H6Y16831   6.600   6.316   6.026 -0.3358  0.5395 -0.8332
  152SAPE   C3716832   6.540   6.157   5.905 -0.0327  1.6504  0.6843
  152SAPE   H7X16833   6.436   6.195   5.896 -0.4794  0.4876  0.6949
  152SAPE   H7Y16834   6.540   6.046   5.909 -1.6246  1.6401  3.7935
  152SAPE   C3816835   6.617   6.208   5.780 -0.1018 -0.3559  0.2491
  152SAPE   H8X16836   6.726   6.192   5.774 -0.2548 -2.1631  1.6152
  152SAPE   H8Y16837   6.613   6.319   5.791  2.3611 -0.2196  0.3371
  152SAPE   C3916838   6.562   6.179   5.645  1.1806 -0.0845  0.5779
  152SAPE   H9X16839   6.454   6.198   5.661  1.0317  0.0470 -0.5416
  152SAPE   H9Y16840   6.569   6.069   5.636  1.1735 -0.3932  3.3495
  152SAPE  C31016841   6.623   6.247   5.522 -0.0329  0.7457  0.4003
  152SAPE  H10X16842   6.731   6.222   5.515 -0.3114 -0.2659 -0.5722
  152SAPE  H10Y16843   6.619   6.358   5.533  1.8472  0.5748  4.3651
  152SAPE  C31116844   6.550   6.205   5.392 -0.2949  0.7313 -0.3488
  152SAPE  H11X16845   6.452   6.256   5.381  0.4941  2.1121 -1.2554
  152SAPE  H11Y16846   6.523   6.098   5.405  0.2896  0.5057 -0.9577
  152SAPE  C31216847   6.632   6.224   5.259 -0.3290  0.9449  0.1712
  152SAPE  H12X16848   6.702   6.138   5.249  0.6451  1.7940 -0.4773
  152SAPE  H12Y16849   6.690   6.318   5.260  1.3269 -0.0126  2.8235
  152SAPE  C31316850   6.534   6.243   5.146  0.4864  0.4672  0.5096
  152SAPE  H13X16851   6.444   6.303   5.170  0.0602 -0.3069  0.8976
  152SAPE  H13Y16852   6.497   6.141   5.119  1.9909  0.6058 -2.5064
  152SAPE  C31416853   6.593   6.297   5.022 -1.0411 -0.1686 -0.8086
  152SAPE  H14X16854   6.694   6.252   5.009 -0.9398 -0.2762  0.3146
  152SAPE  H14Y16855   6.617   6.396   5.066 -1.0157 -0.5116 -0.0374
  152SAPE  C31516856   6.508   6.299   4.896 -0.0729 -0.3490 -0.1952
  152SAPE  H15X16857   6.409   6.344   4.917 -0.2899  0.3014 -2.3689
  152SAPE  H15Y16858   6.476   6.197   4.869 -2.0640  0.1203  0.2559
  152SAPE  C31616859   6.559   6.378   4.780  0.0641 -0.4159  0.2611
  152SAPE  H16X16860   6.665   6.355   4.755  0.3470  1.1680 -0.0788
  152SAPE  H16Y16861   6.573   6.486   4.801 -2.0738 -0.5013  2.4742
  152SAPE  C31716862   6.474   6.368   4.647  0.4149  0.4243 -0.6034
  152SAPE  H17X16863   6.517   6.434   4.568 -0.0273  0.6016 -0.7018
  152SAPE  H17Y16864   6.371   6.409   4.663  0.3227  0.4439 -1.2141
  152SAPE  C31816865   6.464   6.220   4.596 -0.2201 -0.3628 -0.1280
  152SAPE  H18X16866   6.401   6.168   4.671 -0.2142  0.2310  0.2944
  152SAPE  H18Y16867   6.567   6.177   4.602  0.2961  0.9449  0.9982
  152SAPE  H18Z16868   6.415   6.225   4.497 -1.8442  2.1989  0.7260
  153SAPE     N16869   3.750   5.074   6.810  0.9769 -0.9442  0.0611
  153SAPE   HN116870   3.674   5.066   6.739 -0.4802  0.7180  1.3464
  153SAPE   HN216871   3.758   4.983   6.858  2.1319  0.0943  1.9626
  153SAPE   HN316872   3.721   5.151   6.874  2.9582  0.0448 -0.1838
  153SAPE   C1216873   3.876   5.114   6.745 -0.2206 -1.0549 -0.2662
  153SAPE  H12A16874   3.934   5.164   6.825 -1.4870  0.2787 -0.1342
  153SAPE  H12B16875   3.844   5.181   6.663  0.0111  0.3173  0.7353
  153SAPE   C1116876   3.944   4.993   6.673 -0.2279 -0.1740  0.4535
  153SAPE  H11A16877   4.017   5.047   6.609 -1.3864  0.6574 -0.2045
  153SAPE  H11B16878   3.877   4.936   6.605  0.0373 -0.5078  0.4698
  153SAPE     P16879   3.972   4.775   6.819 -0.1339  0.3914 -0.0726
  153SAPE   O1316880   4.072   4.745   6.927  0.0631 -0.2376  0.0398
  153SAPE   O1416881   3.832   4.802   6.856  0.1783 -0.5849 -0.1290
  153SAPE   O1216882   4.021   4.914   6.759  0.6549  0.7766  0.1680
  153SAPE   O1116883   3.974   4.659   6.710 -0.2463 -0.2979  0.3667
  153SAPE    C116884   4.090   4.652   6.623  0.1073  0.7801  0.5610
  153SAPE    HA16885   4.182   4.659   6.684 -0.2326 -0.1260  1.1876
  153SAPE    HB16886   4.087   4.554   6.570 -0.3817  1.0700  0.0300
  153SAPE    C216887   4.095   4.747   6.506  0.9598 -0.1719  0.9268
  153SAPE    HS16888   4.115   4.852   6.536  0.6252 -0.1770  1.1735
  153SAPE   O2116889   3.963   4.745   6.436 -0.4724 -0.3352  0.2877
  153SAPE   C2116890   3.920   4.846   6.372 -0.0740 -0.3528  0.2488
  153SAPE   O2216891   3.982   4.956   6.372 -0.2776  0.4573  0.4804
  153SAPE   C2216892   3.780   4.821   6.298 -0.4514 -0.3559 -0.1263
  153SAPE   H2R16893   3.726   4.909   6.259  1.6836 -0.8847 -4.9579
  153SAPE   H2S16894   3.811   4.765   6.207  0.6662 -0.6896  0.4367
  153SAPE    C316895   4.196   4.712   6.395 -0.5936  0.4655  0.1713
  153SAPE    HX16896   4.159   4.618   6.348 -1.9314  1.0380  0.0460
  153SAPE    HY16897   4.300   4.684   6.424 -0.4695  0.0898 -0.5905
  153SAPE   O3116898   4.214   4.811   6.291  0.0913 -0.2541  0.0296
  153SAPE   C3116899   4.289   4.913   6.328 -1.0658 -0.5085 -1.1430
  153SAPE   O3216900   4.358   4.903   6.432 -0.0104  0.4121  0.1571
  153SAPE   C3216901   4.288   5.023   6.226  0.4075  0.3321  0.4106
  153SAPE   H2X16902   4.373   5.089   6.256  0.4383  0.5790 -0.2084
  153SAPE   H2Y16903   4.194   5.080   6.237  0.0656 -0.5165  2.2999
  153SAPE   C2316904   3.693   4.737   6.392 -0.7860 -0.3436 -0.0423
  153SAPE   H3R16905   3.681   4.795   6.486  1.9049  1.6928 -0.8080
  153SAPE   H3S16906   3.757   4.649   6.417  0.8999  0.5879 -0.8475
  153SAPE   C2416907   3.577   4.674   6.328 -0.2096  0.0336  0.1806
  153SAPE   H4R16908   3.546   4.594   6.399 -1.2419  0.3767  0.1319
  153SAPE   H4S16909   3.616   4.629   6.234 -3.4125  0.3189 -1.4646
  153SAPE   C2516910   3.466   4.774   6.308 -0.2888  0.2665 -0.1079
  153SAPE   H5R16911   3.468   4.842   6.395  3.6768 -0.0432  0.2458
  153SAPE   C2616912   3.386   4.805   6.202  0.0759 -0.0278  0.6525
  153SAPE   H6R16913   3.314   4.889   6.211 -0.2432  0.0434 -1.8360
  153SAPE   C2716914   3.374   4.733   6.073  0.4610  0.4304 -1.0001
  153SAPE   H7R16915   3.383   4.624   6.092 -2.4846 -0.0992 -2.2011
  153SAPE   H7S16916   3.467   4.749   6.013  1.9419 -1.6734  0.5862
  153SAPE   C2816917   3.239   4.754   6.005  0.3542  0.0871 -0.5858
  153SAPE   H8R16918   3.159   4.772   6.079  0.2846 -0.7169 -0.4564
  153SAPE   C2916919   3.204   4.746   5.871  0.4681 -0.1593 -0.4557
  153SAPE   H9R16920   3.102   4.770   5.840  1.0501  2.3193 -0.6368
  153SAPE  C21016921   3.302   4.722   5.759  0.4535  0.6158 -0.1531
  153SAPE  H10R16922   3.401   4.733   5.808 -0.1722 -0.3051  1.3810
  153SAPE  H10S16923   3.287   4.816   5.703 -0.2795  1.1618  0.9201
  153SAPE  C21116924   3.281   4.590   5.672 -0.0462 -0.2871  0.0611
  153SAPE  H11R16925   3.249   4.505   5.733 -0.3712  1.0833  1.8588
  153SAPE  C21216926   3.272   4.585   5.535 -0.4721  0.3058 -0.5618
  153SAPE  H12R16927   3.287   4.486   5.489  0.7654  0.8627 -1.4221
  153SAPE  C21316928   3.294   4.699   5.437  0.0371 -0.2639  0.2804
  153SAPE  H13R16929   3.372   4.682   5.360 -0.2505  4.8174 -1.4850
  153SAPE  H13S16930   3.334   4.785   5.495  0.9217 -0.7996  0.4728
  153SAPE  C21416931   3.161   4.741   5.364 -0.1361  0.7564 -0.6471
  153SAPE  H14R16932   3.125   4.837   5.402  1.6152  0.5987  1.6520
  153SAPE  C21516933   3.093   4.662   5.277  0.0315  0.6379  0.2279
  153SAPE  H15R16934   3.014   4.718   5.225 -0.0876  1.6133  1.4007
  153SAPE  C21616935   3.137   4.523   5.236 -0.4318 -0.0705  0.2173
  153SAPE  H16R16936   3.103   4.451   5.314 -2.5820  0.6040 -0.0230
  153SAPE  H16S16937   3.248   4.516   5.232 -0.2896  0.9011  1.6219
  153SAPE  C21716938   3.081   4.483   5.101  0.1947 -0.5141 -1.1801
  153SAPE  H17R16939   2.971   4.494   5.104  0.1625  0.4265 -3.5298
  153SAPE  H17S16940   3.094   4.375   5.077  0.9612 -0.8392  0.5748
  153SAPE  C21816941   3.133   4.568   4.982  0.7138  0.1139 -0.8301
  153SAPE  H18R16942   3.240   4.588   5.000  0.3348  1.4551  0.0441
  153SAPE  H18S16943   3.090   4.670   4.976  1.3255  0.4159 -0.2029
  153SAPE  C21916944   3.109   4.498   4.845  0.0107 -0.1751 -0.6174
  153SAPE  H19R16945   3.000   4.484   4.829  0.0666 -1.5839  0.1131
  153SAPE  H19S16946   3.156   4.398   4.847 -2.9037 -1.6339  0.7613
  153SAPE  C22016947   3.181   4.584   4.727  0.2459  0.6970 -0.3797
  153SAPE  H20R16948   3.266   4.649   4.756  0.2931  0.4692 -0.0019
  153SAPE  H20S16949   3.097   4.633   4.672 -1.4266 -0.0075  1.4097
  153SAPE  H20T16950   3.215   4.523   4.641  0.2171  1.9414 -1.3011
  153SAPE   C3316951   4.313   4.968   6.079 -0.2523  0.8504  0.6890
  153SAPE   H3X16952   4.226   4.909   6.044  0.7530 -0.2523 -0.0288
  153SAPE   H3Y16953   4.410   4.915   6.075  0.2576  1.8255 -1.2335
  153SAPE   C3416954   4.329   5.091   5.982 -0.1208  0.0771  0.1765
  153SAPE   H4X16955   4.431   5.130   6.002  0.4162 -1.1027 -0.2038
  153SAPE   H4Y16956   4.251   5.165   6.011 -1.3548 -0.7372 -0.9470
  153SAPE   C3516957   4.319   5.051   5.837  0.0036  0.1613  0.0542
  153SAPE   H5X16958   4.228   4.989   5.820  0.0773  0.2967 -0.9013
  153SAPE   H5Y16959   4.400   4.979   5.814 -2.4497 -2.6676 -0.3780
  153SAPE   C3616960   4.329   5.171   5.744  0.5556 -0.4868 -0.0978
  153SAPE   H6X16961   4.427   5.224   5.754  0.1619 -0.0636  1.9125
  153SAPE   H6Y16962   4.254   5.246   5.777  2.5009  0.4056  2.6583
  153SAPE   C3716963   4.298   5.136   5.598 -0.6251  0.3062  0.0566
  153SAPE   H7X16964   4.203   5.081   5.583 -0.1919 -1.1083  2.0881
  153SAPE   H7Y16965   4.374   5.072   5.548  0.2842  0.6422  0.9636
  153SAPE   C3816966   4.277   5.266   5.514  0.2135  0.1076 -0.5918
  153SAPE   H8X16967   4.361   5.337   5.530  0.8461 -0.1548 -2.4866
  153SAPE   H8Y16968   4.187   5.325   5.543  1.2359  0.7355  1.4869
  153SAPE   C3916969   4.274   5.242   5.362 -0.0407 -0.7285  0.5534
  153SAPE   H9X16970   4.195   5.169   5.335 -2.5912  2.0478 -0.1058
  153SAPE   H9Y16971   4.374   5.215   5.321 -0.6777  0.8738 -2.3862
  153SAPE  C31016972   4.225   5.365   5.275 -0.6338 -0.3694 -0.6331
  153SAPE  H10X16973   4.286   5.456   5.291 -0.0838 -0.6855 -0.8939
  153SAPE  H10Y16974   4.119   5.390   5.296 -0.2868  1.7442 -1.0963
  153SAPE  C31116975   4.222   5.333   5.129 -0.4238  0.1288 -0.4018
  153SAPE  H11X16976   4.158   5.408   5.077  0.5949  0.2420 -1.5340
  153SAPE  H11Y16977   4.183   5.229   5.126  0.1931 -0.1293  0.1495
  153SAPE  C31216978   4.358   5.327   5.051 -0.0216  0.0994 -0.2134
  153SAPE  H12X16979   4.424   5.262   5.112  1.5035  2.1929  0.4810
  153SAPE  H12Y16980   4.419   5.420   5.048  1.0435 -0.5814 -0.0457
  153SAPE  C31316981   4.344   5.268   4.910  1.2471 -0.3304  0.6840
  153SAPE  H13X16982   4.280   5.177   4.918 -0.3321  0.7043  0.3963
  153SAPE  H13Y16983   4.443   5.240   4.868 -0.7226 -2.6076 -3.0025
  153SAPE  C31416984   4.274   5.370   4.814  0.6207 -0.1489 -0.3554
  153SAPE  H14X16985   4.328   5.467   4.820  0.8407 -0.3456  1.7189
  153SAPE  H14Y16986   4.172   5.398   4.849  1.3281  0.8211  1.0424
  153SAPE  C31516987   4.283   5.327   4.669 -0.4580  0.3231  0.5385
  153SAPE  H15X16988   4.220   5.238   4.650  1.4017 -0.6255 -1.6704
  153SAPE  H15Y16989   4.388   5.309   4.639 -0.8844  1.5382 -1.9095
  153SAPE  C31616990   4.234   5.440   4.585 -0.3234  0.1912  0.5758
  153SAPE  H16X16991   4.296   5.532   4.592  2.5459 -1.4830 -0.6920
  153SAPE  H16Y16992   4.138   5.477   4.625 -0.3427 -0.5180  1.1925
  153SAPE  C31716993   4.229   5.410   4.430 -0.1956 -0.2422 -0.0048
  153SAPE  H17X16994   4.150   5.333   4.422  0.2537 -0.7603  0.4359
  153SAPE  H17Y16995   4.326   5.374   4.390  1.4165  3.3969  0.3130
  153SAPE  C31816996   4.187   5.524   4.341 -0.5560  0.0971 -0.2618
  153SAPE  H18X16997   4.223   5.515   4.236 -0.4253  1.6970 -0.3827
  153SAPE  H18Y16998   4.236   5.616   4.381 -2.4463  1.0163  0.0605
  153SAPE  H18Z16999   4.077   5.539   4.343 -0.4182  1.7224 -2.0198
  154SAPE     N17000   5.171   1.906   7.245 -0.0479 -0.1255  0.3032
  154SAPE   HN117001   5.129   1.998   7.222  1.3930  0.0714 -1.8578
  154SAPE   HN217002   5.111   1.861   7.317 -0.6640  1.2227  0.6515
  154SAPE   HN317003   5.268   1.925   7.279 -0.9942  0.0751  3.2081
  154SAPE   C1217004   5.159   1.832   7.117  0.2126  0.7898 -0.4888
  154SAPE  H12A17005   5.053   1.800   7.103  0.7627 -0.5944 -1.8291
  154SAPE  H12B17006   5.220   1.740   7.126 -1.7177 -0.8067 -2.4119
  154SAPE   C1117007   5.189   1.911   6.986 -0.5191  0.2978 -0.2535
  154SAPE  H11A17008   5.186   1.842   6.899 -1.3542  1.8751 -1.5165
  154SAPE  H11B17009   5.294   1.946   6.990 -0.3840  0.0214 -1.1885
  154SAPE     P17010   5.094   2.155   7.026 -0.2714 -0.2857  0.1890
  154SAPE   O1317011   4.980   2.236   6.976  0.2892  0.5635  0.2198
  154SAPE   O1417012   5.112   2.149   7.175 -0.5171  0.6147  0.1495
  154SAPE   O1217013   5.090   2.007   6.963  0.0513 -0.3110  0.2776
  154SAPE   O1117014   5.228   2.224   6.965 -0.1038  0.3143  0.2572
  154SAPE    C117015   5.235   2.327   6.869 -0.3980  0.3175 -0.0890
  154SAPE    HA17016   5.153   2.402   6.870 -0.2945  0.4691 -1.6431
  154SAPE    HB17017   5.338   2.367   6.869  0.0186 -0.7424 -0.2325
  154SAPE    C217018   5.217   2.269   6.727 -0.4916  0.6859 -0.2037
  154SAPE    HS17019   5.108   2.255   6.710 -0.3831 -0.1906 -0.1863
  154SAPE   O2117020   5.287   2.145   6.717  0.2208  0.1273  0.2343
  154SAPE   C2117021   5.226   2.055   6.628 -0.0875  0.0533  0.5575
  154SAPE   O2217022   5.129   2.076   6.561  0.3088  0.0481 -0.4436
  154SAPE   C2217023   5.304   1.925   6.604  0.1250  0.2146 -0.5792
  154SAPE   H2R17024   5.387   1.941   6.533  0.7460 -0.5405 -0.0381
  154SAPE   H2S17025   5.339   1.892   6.704  1.0956 -1.5230 -1.4549
  154SAPE    C317026   5.277   2.373   6.632  0.2894 -0.8285  0.5878
  154SAPE    HX17027   5.385   2.383   6.656  0.1904  2.1547  0.2184
  154SAPE    HY17028   5.236   2.476   6.648  1.2130 -0.0867 -1.5383
  154SAPE   O3117029   5.270   2.328   6.496 -0.2771  0.1677  0.0763
  154SAPE   C3117030   5.155   2.362   6.434 -1.1114  0.6544 -0.9392
  154SAPE   O3217031   5.062   2.422   6.484 -0.2116  0.1371 -0.0645
  154SAPE   C3217032   5.146   2.291   6.298 -0.6937  0.3147 -0.1658
  154SAPE   H2X17033   5.102   2.189   6.304 -1.4724  0.5267 -1.8312
  154SAPE   H2Y17034   5.250   2.293   6.260 -0.2244  0.3437  1.0741
  154SAPE   C2317035   5.206   1.815   6.560 -0.6572  0.3010 -0.4501
  154SAPE   H3R17036   5.165   1.852   6.464 -0.9611  1.9276  0.2739
  154SAPE   H3S17037   5.130   1.815   6.641  0.8116 -0.6771  1.0005
  154SAPE   C2417038   5.285   1.682   6.556 -0.1396  0.4591 -0.1894
  154SAPE   H4R17039   5.210   1.606   6.525 -0.7521  0.2472  1.6983
  154SAPE   H4S17040   5.335   1.666   6.654 -0.3248  2.8905  0.3663
  154SAPE   C2517041   5.394   1.691   6.453  0.1329  0.0346 -0.4715
  154SAPE   H5R17042   5.484   1.744   6.486 -0.7005  0.1493  1.7635
  154SAPE   C2617043   5.391   1.655   6.318  0.5631  0.8362 -0.1227
  154SAPE   H6R17044   5.483   1.669   6.259  0.8000 -1.4413 -0.3869
  154SAPE   C2717045   5.289   1.575   6.241  0.3065  0.2439 -0.1879
  154SAPE   H7R17046   5.206   1.544   6.308  1.3407  0.1884  1.1053
  154SAPE   H7S17047   5.334   1.480   6.204 -0.9569 -1.5691  2.5702
  154SAPE   C2817048   5.236   1.655   6.128  0.1399 -0.3169  0.1670
  154SAPE   H8R17049   5.135   1.693   6.151 -0.7521 -1.3019 -1.8678
  154SAPE   C2917050   5.284   1.645   6.004  0.4821  0.0565  1.4471
  154SAPE   H9R17051   5.234   1.691   5.918  1.4220 -1.4425  0.0377
  154SAPE  C21017052   5.401   1.571   5.950  0.0145 -0.0892 -0.2078
  154SAPE  H10R17053   5.477   1.557   6.030 -0.3782 -1.0969  0.0010
  154SAPE  H10S17054   5.456   1.620   5.867 -1.2140  0.1049 -0.9311
  154SAPE  C21117055   5.366   1.439   5.876 -0.8456 -0.5365  0.1168
  154SAPE  H11R17056   5.371   1.355   5.945  2.7445 -0.1665  0.4805
  154SAPE  C21217057   5.317   1.421   5.746  0.0936 -1.2423  0.1469
  154SAPE  H12R17058   5.300   1.320   5.704 -0.3455 -1.3772  0.6391
  154SAPE  C21317059   5.301   1.530   5.646  0.4276  0.3125  0.6902
  154SAPE  H13R17060   5.285   1.629   5.693  2.4829  1.2437 -0.4396
  154SAPE  H13S17061   5.211   1.512   5.584  1.1207 -2.5298  0.3213
  154SAPE  C21417062   5.430   1.534   5.568  0.4840  0.2130  0.3089
  154SAPE  H14R17063   5.523   1.536   5.626  0.1685  0.9870  0.7960
  154SAPE  C21517064   5.445   1.568   5.438  0.2804 -0.7594  0.0373
  154SAPE  H15R17065   5.546   1.557   5.396  1.2103  1.8551  1.3901
  154SAPE  C21617066   5.347   1.589   5.329  0.2826 -0.2486 -0.9899
  154SAPE  H16R17067   5.346   1.690   5.283  0.6533  0.5792  0.7391
  154SAPE  H16S17068   5.248   1.579   5.379  0.1245  1.4471 -0.9101
  154SAPE  C21717069   5.352   1.473   5.222  0.0979 -0.5690  0.2398
  154SAPE  H17R17070   5.362   1.374   5.270 -1.0897 -1.4671 -1.2734
  154SAPE  H17S17071   5.441   1.483   5.155 -0.3665  0.8197 -0.2097
  154SAPE  C21817072   5.235   1.463   5.126  0.3340 -0.0924  1.1256
  154SAPE  H18R17073   5.223   1.549   5.058  0.2355 -0.6486  0.4271
  154SAPE  H18S17074   5.143   1.449   5.187 -0.4906  0.0673 -0.0553
  154SAPE  C21917075   5.245   1.339   5.031 -0.0369  0.4123 -0.1985
  154SAPE  H19R17076   5.251   1.240   5.082 -0.8535 -0.5448 -1.8701
  154SAPE  H19S17077   5.332   1.346   4.963 -0.3172  1.3552 -0.4661
  154SAPE  C22017078   5.123   1.341   4.936  0.2960  0.4641 -0.4487
  154SAPE  H20R17079   5.120   1.439   4.883  4.4944  0.1115 -1.6683
  154SAPE  H20S17080   5.032   1.336   4.999 -1.2474 -1.9115 -2.6694
  154SAPE  H20T17081   5.129   1.267   4.853  0.2608 -0.7144  0.5722
  154SAPE   C3317082   5.062   2.372   6.201 -0.1384 -0.2097 -0.2997
  154SAPE   H3X17083   5.107   2.473   6.199  0.1234 -0.1384  3.0494
  154SAPE   H3Y17084   4.960   2.378   6.246 -0.8532 -2.6209 -1.4087
  154SAPE   C3417085   5.060   2.315   6.056  0.0420  0.3903 -0.3328
  154SAPE   H4X17086   5.017   2.213   6.056 -2.5888  1.3907  0.9321
  154SAPE   H4Y17087   5.167   2.310   6.027 -0.0099 -0.6482 -0.3582
  154SAPE   C3517088   5.003   2.421   5.960 -0.5280 -0.0629 -0.8055
  154SAPE   H5X17089   5.060   2.516   5.956  1.4353 -1.1018  0.4430
  154SAPE   H5Y17090   4.898   2.436   5.993  0.3036  0.5121  1.9049
  154SAPE   C3617091   5.019   2.357   5.817  0.5358 -0.2375  0.1503
  154SAPE   H6X17092   4.951   2.269   5.819 -2.4609  1.9014  0.4301
  154SAPE   H6Y17093   5.124   2.328   5.797  0.9119  0.2280  1.3475
  154SAPE   C3717094   4.963   2.460   5.717 -0.3116  0.4028 -0.2178
  154SAPE   H7X17095   5.020   2.555   5.713 -1.0951  0.8749 -0.4952
  154SAPE   H7Y17096   4.857   2.479   5.748 -0.3273  1.2805 -0.7796
  154SAPE   C3817097   4.971   2.402   5.580  0.2322  0.1004 -0.3991
  154SAPE   H8X17098   4.907   2.312   5.575  2.2130 -1.5497  1.9175
  154SAPE   H8Y17099   5.073   2.361   5.559  0.1797  0.0208 -0.4988
  154SAPE   C3917100   4.929   2.507   5.474  0.7476  0.0610  0.2759
  154SAPE   H9X17101   5.009   2.582   5.461  1.9154 -1.3004 -0.6492
  154SAPE   H9Y17102   4.835   2.552   5.513  0.2375  1.7770 -2.6290
  154SAPE  C31017103   4.907   2.442   5.335 -0.0648  0.5769 -0.3756
  154SAPE  H10X17104   4.860   2.344   5.359  1.1429  0.4498  1.7713
  154SAPE  H10Y17105   5.010   2.421   5.301  0.0138  1.5197 -0.7470
  154SAPE  C31117106   4.834   2.519   5.234 -0.7607 -1.0460 -0.4466
  154SAPE  H11X17107   4.890   2.612   5.210 -1.3359  0.6137  3.7702
  154SAPE  H11Y17108   4.751   2.568   5.289  1.2260 -0.1519  1.9536
  154SAPE  C31217109   4.804   2.448   5.101  0.2649 -0.3683  0.0322
  154SAPE  H12X17110   4.902   2.411   5.063  0.6997  0.8151 -0.0188
  154SAPE  H12Y17111   4.781   2.533   5.034  4.0021  0.8823  0.0884
  154SAPE  C31317112   4.704   2.332   5.095  0.0511 -0.0651 -0.1279
  154SAPE  H13X17113   4.604   2.357   5.135  0.2428 -0.7784  0.8297
  154SAPE  H13Y17114   4.732   2.256   5.171 -1.8237 -0.8658 -0.1852
  154SAPE  C31417115   4.689   2.273   4.952 -0.0761 -0.1482  0.4423
  154SAPE  H14X17116   4.750   2.180   4.945  0.4220  0.1937  0.2400
  154SAPE  H14Y17117   4.721   2.337   4.867  0.9461 -1.9115 -0.5788
  154SAPE  C31517118   4.542   2.230   4.933 -0.0944 -0.0249 -0.7650
  154SAPE  H15X17119   4.472   2.316   4.940  1.5535  1.2710  0.4878
  154SAPE  H15Y17120   4.514   2.152   5.007 -0.1513 -0.5452 -1.3293
  154SAPE  C31617121   4.515   2.171   4.794  0.4794 -0.3132 -0.2155
  154SAPE  H16X17122   4.600   2.192   4.726 -0.3443  1.7081 -0.6986
  154SAPE  H16Y17123   4.428   2.217   4.742  0.3352  0.3073  0.5459
  154SAPE  C31717124   4.497   2.012   4.798 -0.0223 -0.3500 -0.1681
  154SAPE  H17X17125   4.412   1.992   4.866  0.0132  0.9379  0.2664
  154SAPE  H17Y17126   4.591   1.971   4.842 -1.5628 -1.6010  2.1272
  154SAPE  C31817127   4.459   1.971   4.656 -0.5437 -0.2661  0.2355
  154SAPE  H18X17128   4.360   2.015   4.629 -0.9215  0.9702  3.2953
  154SAPE  H18Y17129   4.447   1.861   4.643 -0.2256 -0.0556 -2.3569
  154SAPE  H18Z17130   4.541   2.004   4.588 -0.8619 -0.8575 -0.4419
  155SAPE     N17131   5.911   2.423   6.959 -0.6236 -0.6610  0.7996
  155SAPE   HN117132   6.009   2.391   6.971 -0.3775 -1.3859 -2.1927
  155SAPE   HN217133   5.909   2.511   6.904  1.0076 -0.7542  0.5647
  155SAPE   HN317134   5.867   2.449   7.049 -2.4747  0.1169 -0.2541
  155SAPE   C1217135   5.830   2.323   6.881 -0.1748 -0.3656 -0.0090
  155SAPE  H12A17136   5.826   2.229   6.939 -0.3012 -0.9337 -0.9300
  155SAPE  H12B17137   5.882   2.300   6.785  0.8479 -3.6293  1.1773
  155SAPE   C1117138   5.695   2.374   6.841  0.1310  0.1187 -0.7413
  155SAPE  H11A17139   5.646   2.414   6.932  1.2480 -2.0695  0.9098
  155SAPE  H11B17140   5.630   2.295   6.797 -1.7292 -0.5177  2.7453
  155SAPE     P17141   5.708   2.639   6.787  0.4547 -0.2061 -0.4445
  155SAPE   O1317142   5.582   2.684   6.852 -0.7847 -0.3852  0.2864
  155SAPE   O1417143   5.831   2.660   6.866 -0.4959  0.2273 -0.0341
  155SAPE   O1217144   5.711   2.484   6.742 -0.0463 -0.7650 -0.1548
  155SAPE   O1117145   5.737   2.729   6.655  0.1270  0.1759  0.3262
  155SAPE    C117146   5.831   2.682   6.554  0.0809  0.3376 -0.2771
  155SAPE    HA17147   5.906   2.763   6.543  1.6221 -0.8645  0.8641
  155SAPE    HB17148   5.887   2.595   6.596 -1.4773 -0.5063  0.0993
  155SAPE    C217149   5.770   2.636   6.423  0.5196 -0.1994 -0.0476
  155SAPE    HS17150   5.843   2.602   6.346 -1.6335 -1.4055 -1.6741
  155SAPE   O2117151   5.686   2.741   6.361  0.7018 -0.5506 -0.2736
  155SAPE   C2117152   5.753   2.830   6.293 -0.6617 -0.0394  0.1075
  155SAPE   O2217153   5.876   2.831   6.277 -0.0165 -0.5583  0.6010
  155SAPE   C2217154   5.651   2.920   6.225  0.0958 -0.3969  0.0413
  155SAPE   H2R17155   5.579   2.858   6.166 -0.3439 -0.7525  0.9224
  155SAPE   H2S17156   5.594   2.972   6.305  0.2694 -1.1855  0.6900
  155SAPE    C317157   5.685   2.509   6.416 -0.1510 -0.1117  0.6941
  155SAPE    HX17158   5.598   2.508   6.484 -0.6753 -0.8078  0.0383
  155SAPE    HY17159   5.752   2.425   6.444  0.9496 -0.2024 -1.8744
  155SAPE   O3117160   5.658   2.470   6.276  0.0062 -0.0192 -0.5896
  155SAPE   C3117161   5.530   2.478   6.233 -0.0640  0.1879 -0.2215
  155SAPE   O3217162   5.432   2.514   6.296  0.6239 -0.2360  0.1602
  155SAPE   C3217163   5.531   2.411   6.102 -0.1678 -0.0837  0.9476
  155SAPE   H2X17164   5.435   2.358   6.083  0.7501 -0.7318 -2.5102
  155SAPE   H2Y17165   5.616   2.341   6.088  1.1721  1.6281  0.2668
  155SAPE   C2317166   5.711   3.026   6.137  0.3898  0.2807  0.3154
  155SAPE   H3R17167   5.787   3.088   6.191  1.3597 -0.5803 -0.0231
  155SAPE   H3S17168   5.628   3.092   6.103  1.3957  0.1792 -2.5744
  155SAPE   C2417169   5.767   2.967   6.007  0.4621 -0.2568  0.0885
  155SAPE   H4R17170   5.839   2.887   6.036  0.6541  0.3818  1.4326
  155SAPE   H4S17171   5.832   3.046   5.963 -0.3923  1.2650  1.4575
  155SAPE   C2517172   5.678   2.916   5.904 -0.5331  0.7146 -0.1309
  155SAPE   H5R17173   5.576   2.897   5.940 -0.3617  0.9586  0.4893
  155SAPE   C2617174   5.704   2.886   5.771 -1.1913  0.7122 -0.0494
  155SAPE   H6R17175   5.634   2.829   5.708  1.1797 -0.5929 -1.6733
  155SAPE   C2717176   5.842   2.905   5.701 -0.0421  0.2737  0.0718
  155SAPE   H7R17177   5.924   2.842   5.740  0.6515  2.4667  2.4250
  155SAPE   H7S17178   5.861   3.014   5.711  0.2013  0.3797 -1.2886
  155SAPE   C2817179   5.821   2.889   5.552  0.6928 -0.4689  0.2323
  155SAPE   H8R17180   5.719   2.887   5.508  1.3315 -1.1642 -1.2999
  155SAPE   C2917181   5.918   2.871   5.461  0.4098  0.4939 -0.3583
  155SAPE   H9R17182   5.882   2.894   5.360  0.7211 -0.0679 -0.6036
  155SAPE  C21017183   6.070   2.844   5.480 -0.0380 -0.6361 -0.3676
  155SAPE  H10R17184   6.109   2.820   5.379 -0.5214 -1.0534 -0.4613
  155SAPE  H10S17185   6.099   2.753   5.536  0.7841 -0.4084 -0.4161
  155SAPE  C21117186   6.144   2.955   5.546 -0.4876 -0.0914 -0.5462
  155SAPE  H11R17187   6.083   3.006   5.622  0.3321 -0.3012  0.2612
  155SAPE  C21217188   6.277   2.982   5.537  0.1290 -0.7941  0.0218
  155SAPE  H12R17189   6.318   3.056   5.606 -2.3230  0.5291  0.1965
  155SAPE  C21317190   6.378   2.907   5.458  0.2411 -0.0506  0.3660
  155SAPE  H13R17191   6.334   2.817   5.409 -2.2156  1.3079 -0.0975
  155SAPE  H13S17192   6.446   2.859   5.531  0.3204  0.4754  0.6422
  155SAPE  C21417193   6.441   2.994   5.355  0.0160  0.1765  0.0025
  155SAPE  H14R17194   6.456   3.096   5.394  0.3744  0.5089 -0.9804
  155SAPE  C21517195   6.466   2.973   5.226  0.2850 -0.3312  0.0762
  155SAPE  H15R17196   6.510   3.053   5.164 -2.2675  0.2292 -1.1228
  155SAPE  C21617197   6.432   2.839   5.155 -0.0476  0.0339 -0.3654
  155SAPE  H16R17198   6.369   2.861   5.066  2.2950 -0.3355 -2.2315
  155SAPE  H16S17199   6.382   2.773   5.229 -0.9570  2.2751  1.1268
  155SAPE  C21717200   6.564   2.774   5.106 -0.6358 -0.2840  0.5907
  155SAPE  H17R17201   6.607   2.828   5.019 -1.6923 -1.0030 -0.4141
  155SAPE  H17S17202   6.542   2.667   5.086 -0.7591 -0.5470  2.0527
  155SAPE  C21817203   6.671   2.773   5.212  0.4148 -0.5661  0.0005
  155SAPE  H18R17204   6.621   2.753   5.309 -0.0129 -2.8355 -0.6316
  155SAPE  H18S17205   6.719   2.873   5.219 -3.1463  1.2602  0.6601
  155SAPE  C21917206   6.785   2.665   5.206 -0.0373  0.5410  0.0309
  155SAPE  H19R17207   6.840   2.656   5.110  1.6176  0.0878  0.9812
  155SAPE  H19S17208   6.734   2.567   5.221 -0.7556  0.5096 -2.2363
  155SAPE  C22017209   6.871   2.682   5.325 -0.4448  0.0226  0.0223
  155SAPE  H20R17210   6.804   2.710   5.410 -0.1915  2.6256 -0.5322
  155SAPE  H20S17211   6.930   2.775   5.316 -0.9104  0.1894 -1.6213
  155SAPE  H20T17212   6.937   2.598   5.353  1.2313  0.0168 -3.4502
  155SAPE   C3317213   5.531   2.516   5.987 -0.2398  0.0081  0.8334
  155SAPE   H3X17214   5.638   2.524   5.959 -0.1650 -1.2291  0.7297
  155SAPE   H3Y17215   5.492   2.616   6.014 -0.4503 -0.0503  0.7495
  155SAPE   C3417216   5.443   2.475   5.866 -0.6288  0.5474 -0.2953
  155SAPE   H4X17217   5.334   2.491   5.886 -0.7237 -1.3183  0.9219
  155SAPE   H4Y17218   5.448   2.366   5.848  2.3428  0.5916 -0.1496
  155SAPE   C3517219   5.482   2.536   5.725 -0.1349 -0.1733 -0.6535
  155SAPE   H5X17220   5.570   2.478   5.688 -0.0541 -0.2340 -0.3638
  155SAPE   H5Y17221   5.507   2.644   5.733  1.0055 -0.5185  0.9443
  155SAPE   C3617222   5.374   2.514   5.617 -0.5786 -0.3926 -0.1953
  155SAPE   H6X17223   5.276   2.559   5.642 -0.8441 -1.1115  0.0675
  155SAPE   H6Y17224   5.359   2.406   5.597  1.2097 -1.0938  1.8368
  155SAPE   C3717225   5.417   2.583   5.485  0.5548 -0.2488 -0.2226
  155SAPE   H7X17226   5.509   2.534   5.444  0.2781 -0.0895 -1.0490
  155SAPE   H7Y17227   5.447   2.690   5.492  1.5763 -0.6072  1.4021
  155SAPE   C3817228   5.306   2.572   5.376  0.0122 -0.1551  0.4276
  155SAPE   H8X17229   5.221   2.638   5.404  0.0042 -1.5169  4.0881
  155SAPE   H8Y17230   5.259   2.472   5.371 -2.4205  0.8822  0.8113
  155SAPE   C3917231   5.367   2.611   5.239 -0.1309  0.2285  0.4952
  155SAPE   H9X17232   5.418   2.518   5.205  0.4204  0.2478  1.2457
  155SAPE   H9Y17233   5.438   2.696   5.250  1.1321 -0.8933  1.3698
  155SAPE  C31017234   5.267   2.637   5.130  1.3890  0.1599  0.2060
  155SAPE  H10X17235   5.189   2.557   5.133  0.3643  1.0944  3.2068
  155SAPE  H10Y17236   5.322   2.633   5.034  1.4558 -1.6899  0.2836
  155SAPE  C31117237   5.184   2.761   5.149 -0.1199 -0.4263  0.4330
  155SAPE  H11X17238   5.247   2.852   5.159 -0.7284  0.2067 -1.1671
  155SAPE  H11Y17239   5.138   2.755   5.250 -1.3620  1.7864  0.0561
  155SAPE  C31217240   5.074   2.785   5.043 -0.1391  0.3805 -0.4169
  155SAPE  H12X17241   4.984   2.807   5.103 -0.3982  0.4480 -0.8212
  155SAPE  H12Y17242   5.046   2.686   5.000 -0.3845 -0.4539  1.5833
  155SAPE  C31317243   5.126   2.879   4.935 -0.0103  0.2022  0.1040
  155SAPE  H13X17244   5.218   2.832   4.895 -0.8861 -1.2648 -0.2919
  155SAPE  H13Y17245   5.170   2.972   4.975  1.1750  0.5239 -1.7995
  155SAPE  C31417246   5.027   2.924   4.821  0.2354 -0.2193  0.0800
  155SAPE  H14X17247   4.935   2.972   4.860  0.4606 -0.2229  0.6212
  155SAPE  H14Y17248   4.986   2.838   4.763 -1.9850 -1.4692  3.2417
  155SAPE  C31517249   5.079   3.026   4.722 -0.1526 -0.1951  0.5133
  155SAPE  H15X17250   5.171   2.983   4.679  0.7125  2.3111 -0.3183
  155SAPE  H15Y17251   5.118   3.112   4.780  0.0232 -0.7326  1.2071
  155SAPE  C31617252   4.986   3.079   4.619 -0.0759  0.1349 -0.0123
  155SAPE  H16X17253   5.031   3.163   4.562  1.2338  0.2575  1.1581
  155SAPE  H16Y17254   4.901   3.133   4.666 -0.4076 -0.7207  0.3893
  155SAPE  C31717255   4.924   2.972   4.522  0.5102 -0.4175  0.4501
  155SAPE  H17X17256   4.939   2.867   4.558  0.9748 -0.8433 -0.9505
  155SAPE  H17Y17257   4.986   2.966   4.430  2.3836 -2.3213  1.7451
  155SAPE  C31817258   4.780   3.007   4.493 -0.2113 -0.2506 -0.7459
  155SAPE  H18X17259   4.741   2.921   4.433  1.7865 -2.7164  1.2481
  155SAPE  H18Y17260   4.786   3.100   4.433  2.5943 -1.2786 -2.1960
  155SAPE  H18Z17261   4.726   3.025   4.589 -0.6177 -0.4892 -0.9240
  156SAPE     N17262   6.643   4.532   7.068 -0.2273  0.3515  0.1382
  156SAPE   HN117263   6.727   4.593   7.071  0.6953 -0.9201  0.8847
  156SAPE   HN217264   6.575   4.574   7.135  1.2610  1.2857  1.1215
  156SAPE   HN317265   6.663   4.432   7.086 -0.3031 -0.0948 -2.0286
  156SAPE   C1217266   6.577   4.536   6.932 -0.0233  0.3843  0.3552
  156SAPE  H12A17267   6.524   4.633   6.923  0.3865  0.6076  0.3197
  156SAPE  H12B17268   6.497   4.459   6.939 -0.8541  1.2863  1.1526
  156SAPE   C1117269   6.682   4.519   6.823 -0.6452  0.0990  0.2773
  156SAPE  H11A17270   6.748   4.608   6.814 -0.8614  0.3673  1.2363
  156SAPE  H11B17271   6.646   4.517   6.718 -1.2755  3.6133  0.2795
  156SAPE     P17272   6.717   4.257   6.791  0.1554 -0.1502  0.2520
  156SAPE   O1317273   6.823   4.163   6.825 -0.4652 -0.3214  0.8002
  156SAPE   O1417274   6.583   4.230   6.843 -0.1151  0.2179 -0.3252
  156SAPE   O1217275   6.757   4.408   6.846 -0.5067  0.2814 -0.5117
  156SAPE   O1117276   6.708   4.280   6.633  0.4985  0.1258 -0.4374
  156SAPE    C117277   6.812   4.344   6.559 -0.1650 -0.0737 -0.1722
  156SAPE    HA17278   6.837   4.441   6.607  3.2199 -0.9961  0.1792
  156SAPE    HB17279   6.900   4.277   6.551  0.4690  0.0775  3.5260
  156SAPE    C217280   6.758   4.385   6.419  0.4214  0.1309 -0.7320
  156SAPE    HS17281   6.841   4.438   6.368 -0.7117  1.4424 -1.2634
  156SAPE   O2117282   6.635   4.469   6.428  0.0147  0.1026 -0.0951
  156SAPE   C2117283   6.635   4.563   6.344  0.0798 -0.0910 -0.1949
  156SAPE   O2217284   6.715   4.589   6.256 -0.0070  0.1984  0.2627
  156SAPE   C2217285   6.514   4.660   6.376 -0.1848  0.0585  0.1841
  156SAPE   H2R17286   6.439   4.599   6.430 -0.5713 -1.1183 -1.5728
  156SAPE   H2S17287   6.539   4.743   6.445 -1.1132 -1.4549  2.4415
  156SAPE    C317288   6.727   4.257   6.339  0.4399 -0.1826  1.0453
  156SAPE    HX17289   6.648   4.199   6.392 -1.5754  1.7949  0.3446
  156SAPE    HY17290   6.814   4.188   6.334  1.3411  0.9586  0.5377
  156SAPE   O3117291   6.680   4.283   6.209 -0.4579  0.2413  0.7085
  156SAPE   C3117292   6.621   4.184   6.142  0.3728  0.0261 -0.2497
  156SAPE   O3217293   6.596   4.074   6.191  0.1489  0.4896 -0.2216
  156SAPE   C3217294   6.587   4.237   5.998 -0.0067 -0.2676 -0.0037
  156SAPE   H2X17295   6.666   4.308   5.963 -0.5735  1.2182  1.5660
  156SAPE   H2Y17296   6.507   4.313   6.010 -0.3942 -0.5316 -0.8293
  156SAPE   C2317297   6.460   4.729   6.249 -0.2843  0.0788  0.2364
  156SAPE   H3R17298   6.534   4.773   6.178 -1.2952 -0.5188 -1.2565
  156SAPE   H3S17299   6.406   4.816   6.293 -3.0774  0.4364 -3.3957
  156SAPE   C2417300   6.354   4.652   6.167 -0.1909  0.1441  0.8097
  156SAPE   H4R17301   6.290   4.600   6.241 -0.6463 -2.7264 -1.4398
  156SAPE   H4S17302   6.408   4.568   6.119  0.9878  1.0825  0.4219
  156SAPE   C2517303   6.276   4.725   6.065  0.0881  0.2433  0.5409
  156SAPE   H5R17304   6.173   4.748   6.093 -0.6466 -3.1339  1.1070
  156SAPE   C2617305   6.313   4.747   5.934 -0.0730  0.4270 -0.2383
  156SAPE   H6R17306   6.254   4.811   5.867  0.9972 -0.8955 -2.5718
  156SAPE   C2717307   6.445   4.708   5.870 -0.4922 -0.0187 -0.1284
  156SAPE   H7R17308   6.527   4.679   5.939 -0.4428  1.3611  0.4256
  156SAPE   H7S17309   6.487   4.804   5.832 -1.0049  0.4110  0.3869
  156SAPE   C2817310   6.447   4.605   5.759 -0.6114  0.7582  0.8980
  156SAPE   H8R17311   6.424   4.499   5.782 -1.2188 -0.1772 -3.2137
  156SAPE   C2917312   6.469   4.631   5.626  1.0107  0.4310 -0.2758
  156SAPE   H9R17313   6.452   4.559   5.545 -0.7857  0.8637 -0.3224
  156SAPE  C21017314   6.489   4.766   5.558  0.2837 -1.1334  0.2313
  156SAPE  H10R17315   6.571   4.748   5.486 -0.7943 -2.5834 -0.6672
  156SAPE  H10S17316   6.522   4.837   5.637 -1.0734 -1.7390  1.3911
  156SAPE  C21117317   6.365   4.807   5.479 -0.4501  0.2104 -0.4001
  156SAPE  H11R17318   6.286   4.849   5.542 -0.1614  0.2419 -0.0608
  156SAPE  C21217319   6.346   4.796   5.346 -0.0665  0.8260 -0.6611
  156SAPE  H12R17320   6.255   4.835   5.297 -1.8756 -1.3541  0.7060
  156SAPE  C21317321   6.432   4.735   5.240 -0.0075  0.2834 -0.0576
  156SAPE  H13R17322   6.382   4.652   5.186  1.7878 -1.1493  0.4046
  156SAPE  H13S17323   6.516   4.679   5.286 -1.1314  0.4761  2.3924
  156SAPE  C21417324   6.489   4.843   5.156  0.5560 -0.3031  0.4659
  156SAPE  H14R17325   6.555   4.910   5.214 -0.2226 -0.6330  1.7729
  156SAPE  C21517326   6.462   4.866   5.028 -0.2034 -0.3641 -0.3343
  156SAPE  H15R17327   6.517   4.949   4.982  0.5409 -0.8927 -0.4250
  156SAPE  C21617328   6.389   4.790   4.926  0.3058 -0.4096 -0.3599
  156SAPE  H16R17329   6.334   4.703   4.968 -1.7803  1.6498  1.4608
  156SAPE  H16S17330   6.462   4.750   4.852  0.7656  0.5711 -0.4543
  156SAPE  C21717331   6.293   4.888   4.863 -0.4276 -0.2048 -0.1742
  156SAPE  H17R17332   6.341   4.958   4.791  0.4082 -0.8456 -0.2629
  156SAPE  H17S17333   6.243   4.951   4.939 -0.8037 -0.2251 -0.4050
  156SAPE  C21817334   6.181   4.811   4.788  0.3171 -0.3174  0.6159
  156SAPE  H18R17335   6.135   4.744   4.863  0.2601  0.0908  0.9476
  156SAPE  H18S17336   6.238   4.753   4.712 -0.0894  2.2801 -1.8253
  156SAPE  C21917337   6.079   4.910   4.715 -0.9941  0.7006 -0.0474
  156SAPE  H19R17338   6.009   4.845   4.659  0.8374 -1.0029 -0.4508
  156SAPE  H19S17339   6.134   4.976   4.645  1.3509 -1.2490 -0.1872
  156SAPE  C22017340   5.986   4.996   4.811  0.4331 -0.1058  0.6361
  156SAPE  H20R17341   5.910   5.052   4.754  1.9744 -0.9946 -2.4924
  156SAPE  H20S17342   6.050   5.064   4.872 -0.6184  0.9616  0.5733
  156SAPE  H20T17343   5.933   4.930   4.884  0.7432 -1.2424 -0.1358
  156SAPE   C3317344   6.549   4.131   5.890 -0.2049 -0.3151  1.0888
  156SAPE   H3X17345   6.464   4.068   5.924 -0.7094 -1.1943 -1.5958
  156SAPE   H3Y17346   6.635   4.069   5.857 -0.1886  1.1783 -1.9723
  156SAPE   C3417347   6.488   4.198   5.758  0.3645 -0.0080 -1.4516
  156SAPE   H4X17348   6.545   4.291   5.733  0.9882 -0.8639 -3.4177
  156SAPE   H4Y17349   6.386   4.232   5.787  0.3634 -1.5940  0.5809
  156SAPE   C3517350   6.482   4.098   5.635 -1.1213 -0.0378 -0.3082
  156SAPE   H5X17351   6.591   4.075   5.624 -0.2499  3.5801 -0.4121
  156SAPE   H5Y17352   6.459   4.161   5.547 -1.5190 -0.1288 -0.2720
  156SAPE   C3617353   6.395   3.980   5.657  0.2418  0.1729 -0.5660
  156SAPE   H6X17354   6.303   4.004   5.599  1.5012  2.3152 -1.8096
  156SAPE   H6Y17355   6.373   3.957   5.764 -0.4235  1.5967 -0.3708
  156SAPE   C3717356   6.444   3.851   5.595 -0.3454  0.0585  0.3954
  156SAPE   H7X17357   6.381   3.761   5.600 -1.9620  1.1256 -0.0911
  156SAPE   H7Y17358   6.541   3.821   5.641 -0.2876 -0.7304 -0.2302
  156SAPE   C3817359   6.473   3.870   5.444 -0.0430  0.1461 -0.0045
  156SAPE   H8X17360   6.569   3.820   5.422 -0.1128  0.1277 -0.2748
  156SAPE   H8Y17361   6.490   3.977   5.419  0.7140  0.1928  0.6856
  156SAPE   C3917362   6.350   3.826   5.365  0.0039 -0.0311  0.9462
  156SAPE   H9X17363   6.256   3.883   5.384 -1.6693 -1.8638 -1.2374
  156SAPE   H9Y17364   6.323   3.722   5.392 -1.9562  0.6738  1.9399
  156SAPE  C31017365   6.388   3.823   5.219  0.0345 -0.3646  0.3357
  156SAPE  H10X17366   6.492   3.785   5.215  0.3913  0.5943  0.2433
  156SAPE  H10Y17367   6.382   3.932   5.199 -1.3463 -0.5679 -0.5218
  156SAPE  C31117368   6.285   3.763   5.128  0.5500 -0.0665  0.4910
  156SAPE  H11X17369   6.185   3.808   5.147  0.0227 -0.9028 -0.1827
  156SAPE  H11Y17370   6.273   3.656   5.157 -0.4112  0.3206  1.5881
  156SAPE  C31217371   6.309   3.776   4.981  0.6642 -0.4039 -0.0275
  156SAPE  H12X17372   6.416   3.746   4.968 -0.0202 -1.9588 -3.0846
  156SAPE  H12Y17373   6.290   3.882   4.955  2.2685 -0.2288 -0.6234
  156SAPE  C31317374   6.216   3.691   4.898 -0.1920 -0.4405  0.3762
  156SAPE  H13X17375   6.111   3.720   4.920  0.2411  1.7698 -0.3074
  156SAPE  H13Y17376   6.231   3.582   4.915  0.6502 -0.3513  0.2478
  156SAPE  C31417377   6.239   3.721   4.752 -0.0547 -0.7039  0.8882
  156SAPE  H14X17378   6.343   3.689   4.733  0.4117  1.2239 -0.1154
  156SAPE  H14Y17379   6.228   3.832   4.745  1.6641 -0.2663  3.6030
  156SAPE  C31517380   6.149   3.645   4.654  0.2045 -0.5197 -0.0324
  156SAPE  H15X17381   6.169   3.536   4.655  0.9781 -0.4108 -1.2983
  156SAPE  H15Y17382   6.164   3.676   4.549 -5.3731  0.6243 -0.7979
  156SAPE  C31617383   5.998   3.663   4.680  0.5040  0.1293  0.1166
  156SAPE  H16X17384   5.973   3.772   4.672  3.5943  1.2835  3.5330
  156SAPE  H16Y17385   5.964   3.637   4.782 -1.3456 -1.5551 -0.8542
  156SAPE  C31717386   5.907   3.570   4.600  0.0869  0.0444  0.2784
  156SAPE  H17X17387   5.889   3.481   4.663  0.7006 -0.0531  0.3210
  156SAPE  H17Y17388   5.949   3.537   4.503  1.1185 -0.5749  0.9300
  156SAPE  C31817389   5.774   3.644   4.574  0.0607  0.1259 -0.4639
  156SAPE  H18X17390   5.711   3.589   4.501  0.4572  1.3550 -1.7963
  156SAPE  H18Y17391   5.794   3.741   4.524  0.0849 -0.8277 -2.3888
  156SAPE  H18Z17392   5.719   3.657   4.669 -1.9627 -1.2276 -1.3839
  157SAPE     N17393   0.594   0.838   6.756  0.0761  0.0260 -0.1825
  157SAPE   HN117394   0.500   0.837   6.711  1.0450 -1.5886 -2.2898
  157SAPE   HN217395   0.583   0.824   6.859 -0.7321  2.0576  0.0727
  157SAPE   HN317396   0.638   0.930   6.735 -1.6923  0.6064 -1.6247
  157SAPE   C1217397   0.683   0.743   6.691  0.5894 -0.1676 -0.1073
  157SAPE  H12A17398   0.676   0.652   6.753  0.4482  1.0326  1.7062
  157SAPE  H12B17399   0.787   0.780   6.704  0.2563  0.1247  2.0739
  157SAPE   C1117400   0.643   0.725   6.542 -0.1618  0.7061  0.8881
  157SAPE  H11A17401   0.712   0.647   6.503 -2.9060 -2.0656  1.1509
  157SAPE  H11B17402   0.647   0.818   6.482 -4.5451 -0.1131 -1.0106
  157SAPE     P17403   0.375   0.734   6.518 -0.2189 -0.1476 -0.0130
  157SAPE   O1317404   0.269   0.632   6.494 -0.2041 -0.7168 -0.0983
  157SAPE   O1417405   0.355   0.831   6.633  0.0862  0.2082 -0.0971
  157SAPE   O1217406   0.514   0.662   6.536  0.0736 -0.1497 -0.2415
  157SAPE   O1117407   0.401   0.812   6.383 -0.0702  0.4757 -0.4013
  157SAPE    C117408   0.298   0.895   6.332  0.8956  0.4940  0.1153
  157SAPE    HA17409   0.196   0.852   6.346  0.6369  1.6486  2.2452
  157SAPE    HB17410   0.289   0.986   6.395 -4.7844  0.7521 -0.5220
  157SAPE    C217411   0.323   0.936   6.186 -0.5326 -0.1939 -0.6154
  157SAPE    HS17412   0.407   1.008   6.199 -0.0768 -0.5960 -1.3002
  157SAPE   O2117413   0.208   0.984   6.116 -0.5405 -0.1278  0.1291
  157SAPE   C2117414   0.179   1.103   6.151 -0.2129  0.6019  0.5640
  157SAPE   O2217415   0.247   1.174   6.220  0.1760  0.1010  0.4674
  157SAPE   C2217416   0.038   1.133   6.102  0.3706  0.3820 -0.1813
  157SAPE   H2R17417   0.024   1.079   6.006  0.5795  0.3515 -0.1965
  157SAPE   H2S17418  -0.027   1.084   6.177  1.7538 -1.7626 -0.2960
  157SAPE    C317419   0.368   0.804   6.120 -0.3067 -1.1267 -0.7410
  157SAPE    HX17420   0.277   0.746   6.144 -0.4658  0.6947  4.3722
  157SAPE    HY17421   0.451   0.761   6.181 -1.1170 -0.4038  0.9154
  157SAPE   O3117422   0.399   0.816   5.977  0.3832 -0.9828 -0.3183
  157SAPE   C3117423   0.515   0.884   5.949  1.2534 -0.0689  0.2461
  157SAPE   O3217424   0.580   0.948   6.028 -0.3513  0.2388  0.4367
  157SAPE   C3217425   0.544   0.856   5.803  0.1901  0.1531 -0.3991
  157SAPE   H2X17426   0.459   0.877   5.736 -1.0565 -1.8840  0.4420
  157SAPE   H2Y17427   0.570   0.748   5.801 -1.0781 -0.1645 -1.9362
  157SAPE   C2317428   0.009   1.282   6.097 -0.2160 -0.4042 -0.3154
  157SAPE   H3R17429   0.050   1.335   6.186  1.2324 -0.2235 -1.0650
  157SAPE   H3S17430  -0.100   1.302   6.087  0.0139  0.1172 -2.0326
  157SAPE   C2417431   0.067   1.357   5.978 -0.3336 -0.1440 -0.2693
  157SAPE   H4R17432   0.178   1.350   5.968 -0.3977  0.7353 -1.9644
  157SAPE   H4S17433   0.047   1.464   5.998 -1.6854 -0.1813 -1.3270
  157SAPE   C2517434   0.001   1.317   5.846  0.2553  0.0738  0.2534
  157SAPE   H5R17435  -0.090   1.372   5.816  1.3460  2.6697  1.4153
  157SAPE   C2617436   0.053   1.230   5.755  0.0258  0.2283 -0.0081
  157SAPE   H6R17437   0.005   1.218   5.657 -0.2218 -0.5876  0.2080
  157SAPE   C2717438   0.182   1.159   5.756  0.2294 -1.2397  0.3489
  157SAPE   H7R17439   0.247   1.185   5.842  2.1423 -1.9218 -0.8180
  157SAPE   H7S17440   0.242   1.198   5.671  1.3563 -1.1620  1.1517
  157SAPE   C2817441   0.173   1.009   5.762  0.0987  0.1001  0.4567
  157SAPE   H8R17442   0.151   0.964   5.859 -0.7563 -0.8606 -0.1589
  157SAPE   C2917443   0.154   0.926   5.652  0.2695  0.0022 -0.8865
  157SAPE   H9R17444   0.154   0.818   5.671 -0.2612 -0.2009 -1.9749
  157SAPE  C21017445   0.184   0.961   5.508  0.4555  0.2883  0.1162
  157SAPE  H10R17446   0.230   0.875   5.455 -0.5915 -0.7323  0.8008
  157SAPE  H10S17447   0.252   1.048   5.495 -0.9339  1.2188 -1.3034
  157SAPE  C21117448   0.056   0.980   5.431 -0.1527 -0.3987  1.0155
  157SAPE  H11R17449  -0.026   1.035   5.478 -0.6119 -3.1427  3.6897
  157SAPE  C21217450   0.043   0.961   5.295 -0.3308  0.0643  0.6802
  157SAPE  H12R17451  -0.054   0.991   5.252 -0.1280 -0.0109  0.1572
  157SAPE  C21317452   0.155   0.917   5.203 -0.0178  0.2508  0.1822
  157SAPE  H13R17453   0.210   0.841   5.263 -2.3265 -1.3601  0.3862
  157SAPE  H13S17454   0.220   1.007   5.197 -2.3556  1.9701 -0.9811
  157SAPE  C21417455   0.091   0.871   5.072  0.1729  0.0753  0.3362
  157SAPE  H14R17456   0.023   0.785   5.081 -0.0703  0.4769  3.5765
  157SAPE  C21517457   0.142   0.908   4.952  0.1703  0.3208  0.2148
  157SAPE  H15R17458   0.086   0.881   4.861 -0.0776 -0.1819  0.5168
  157SAPE  C21617459   0.257   0.998   4.929 -0.6550 -0.2463  0.5159
  157SAPE  H16R17460   0.343   0.973   4.995 -1.0498  2.2147  2.0821
  157SAPE  H16S17461   0.234   1.103   4.959  1.3730  0.2123  0.6212
  157SAPE  C21717462   0.295   1.003   4.777  0.6778  0.4767 -0.9214
  157SAPE  H17R17463   0.371   1.084   4.765  1.4037  0.0987  0.8262
  157SAPE  H17S17464   0.203   1.013   4.715  0.0755  1.3971  0.1100
  157SAPE  C21817465   0.363   0.874   4.724  0.3514  0.5788  0.1817
  157SAPE  H18R17466   0.292   0.788   4.723  0.4648  0.4746  0.7133
  157SAPE  H18S17467   0.435   0.852   4.805  0.9242  2.5223  0.2435
  157SAPE  C21917468   0.441   0.882   4.594 -0.1157 -0.3875 -0.3597
  157SAPE  H19R17469   0.519   0.962   4.591 -0.7773  0.2781 -0.1233
  157SAPE  H19S17470   0.373   0.910   4.510 -0.9870  1.2788  0.8361
  157SAPE  C22017471   0.519   0.754   4.552  0.5198  0.4046  0.1474
  157SAPE  H20R17472   0.452   0.667   4.567 -1.2378  1.8646  1.2858
  157SAPE  H20S17473   0.621   0.747   4.596  0.8795  1.3217 -0.4940
  157SAPE  H20T17474   0.546   0.769   4.446 -0.5332  0.2295 -0.1569
  157SAPE   C3317475   0.670   0.929   5.754 -0.3106 -0.4475 -0.3946
  157SAPE   H3X17476   0.696   0.873   5.662  0.6377 -0.4947 -0.1101
  157SAPE   H3Y17477   0.765   0.912   5.809 -0.8429  0.6364  0.9497
  157SAPE   C3417478   0.650   1.077   5.742 -0.6758  0.3915 -0.1006
  157SAPE   H4X17479   0.747   1.131   5.744 -1.4518  1.8078  0.6070
  157SAPE   H4Y17480   0.576   1.107   5.819 -1.3992  1.7969 -1.2784
  157SAPE   C3517481   0.589   1.137   5.615  0.1975  0.3750  0.1150
  157SAPE   H5X17482   0.602   1.247   5.621 -0.0161  0.4872 -1.2624
  157SAPE   H5Y17483   0.480   1.115   5.609  0.2795 -0.0679  0.1587
  157SAPE   C3617484   0.652   1.076   5.479  0.1958  0.3725 -1.0174
  157SAPE   H6X17485   0.647   0.965   5.474 -2.4943  0.4667 -2.3642
  157SAPE   H6Y17486   0.763   1.082   5.475  0.1521  0.8223 -2.1587
  157SAPE   C3717487   0.597   1.140   5.347  0.3741  0.3875  0.1708
  157SAPE   H7X17488   0.489   1.115   5.336  0.4776  0.2777 -0.6326
  157SAPE   H7Y17489   0.655   1.091   5.267 -1.1783 -0.5526 -0.4311
  157SAPE   C3817490   0.632   1.289   5.337 -0.7325 -0.4397  0.5456
  157SAPE   H8X17491   0.743   1.298   5.342 -0.5421  1.4621 -3.4096
  157SAPE   H8Y17492   0.594   1.344   5.426  0.3418  0.1601  0.6556
  157SAPE   C3917493   0.596   1.353   5.198 -0.2761 -0.0668 -0.0772
  157SAPE   H9X17494   0.663   1.303   5.125 -0.5316 -5.1818  2.6902
  157SAPE   H9Y17495   0.638   1.454   5.216  1.2907 -0.9513  1.6111
  157SAPE  C31017496   0.446   1.349   5.161  0.7003 -0.0496  0.0119
  157SAPE  H10X17497   0.380   1.392   5.240 -0.7045  0.8141 -1.5702
  157SAPE  H10Y17498   0.417   1.244   5.142 -0.0574  0.3075 -0.8989
  157SAPE  C31117499   0.407   1.438   5.044 -0.4740 -0.6451 -0.1412
  157SAPE  H11X17500   0.416   1.546   5.069  0.5718 -0.4140 -1.4255
  157SAPE  H11Y17501   0.299   1.428   5.022 -0.9793  0.7148  1.5126
  157SAPE  C31217502   0.481   1.386   4.924 -0.0307  0.9714  0.0166
  157SAPE  H12X17503   0.464   1.277   4.911  0.8578  0.7199  0.8095
  157SAPE  H12Y17504   0.591   1.377   4.940  0.0069 -1.0808 -1.1261
  157SAPE  C31317505   0.465   1.468   4.790 -0.3101 -1.2895 -0.4913
  157SAPE  H13X17506   0.535   1.553   4.775 -1.0928 -0.7116 -0.9194
  157SAPE  H13Y17507   0.362   1.509   4.791 -0.1018 -0.6372 -2.3787
  157SAPE  C31417508   0.482   1.373   4.668 -0.0778 -0.0416  0.1205
  157SAPE  H14X17509   0.412   1.287   4.672 -1.1512  0.8329  1.0972
  157SAPE  H14Y17510   0.586   1.336   4.677 -0.3368 -0.5292  1.4672
  157SAPE  C31517511   0.471   1.430   4.524  1.3857 -0.7460 -0.1638
  157SAPE  H15X17512   0.481   1.354   4.444  3.1654 -1.2582  0.4987
  157SAPE  H15Y17513   0.554   1.505   4.517 -0.3070  1.4428  1.6290
  157SAPE  C31617514   0.336   1.509   4.507  0.0861  0.6750  0.2284
  157SAPE  H16X17515   0.309   1.578   4.590  3.5087  1.5382  0.7786
  157SAPE  H16Y17516   0.253   1.436   4.497 -3.0863  3.6682  2.2785
  157SAPE  C31717517   0.337   1.600   4.383  0.4354 -0.3566  0.1313
  157SAPE  H17X17518   0.231   1.630   4.369 -0.3635 -2.5624  1.1083
  157SAPE  H17Y17519   0.375   1.541   4.297  1.0911 -0.6877  0.6382
  157SAPE  C31817520   0.427   1.723   4.397 -0.6963 -0.1749 -0.6061
  157SAPE  H18X17521   0.535   1.695   4.399 -0.9605 -1.3062  2.3339
  157SAPE  H18Y17522   0.414   1.782   4.490  0.5260 -2.9704  1.4963
  157SAPE  H18Z17523   0.420   1.780   4.302  1.6884  0.5835 -0.3913
  158SAPE     N17524   3.370   6.601   6.999  0.0503  0.3691 -0.2242
  158SAPE   HN117525   3.401   6.512   7.043 -2.4369  0.0760  1.0924
  158SAPE   HN217526   3.334   6.569   6.907  1.4199 -3.3830  0.3554
  158SAPE   HN317527   3.458   6.656   7.003  1.5518 -1.9183  2.1654
  158SAPE   C1217528   3.255   6.655   7.077  0.2153  0.5710  0.3496
  158SAPE  H12A17529   3.214   6.754   7.045  1.4719  0.9931 -0.0200
  158SAPE  H12B17530   3.282   6.644   7.184 -0.9418 -0.3984  0.5617
  158SAPE   C1117531   3.132   6.564   7.040 -0.4258 -0.7043 -0.4402
  158SAPE  H11A17532   3.043   6.617   7.078  0.5388  0.0949  0.7988
  158SAPE  H11B17533   3.142   6.468   7.095 -1.2758 -0.9607 -0.7232
  158SAPE     P17534   3.065   6.671   6.813  0.2970 -0.2850 -0.2968
  158SAPE   O1317535   3.012   6.618   6.687  0.4500 -0.1095 -0.1143
  158SAPE   O1417536   2.970   6.742   6.902 -0.5467  0.3532  0.3432
  158SAPE   O1217537   3.132   6.549   6.892 -0.1486  0.8365  0.3209
  158SAPE   O1117538   3.191   6.756   6.793 -0.0319 -0.6826 -0.0916
  158SAPE    C117539   3.184   6.902   6.774  0.3919  0.1500 -0.4179
  158SAPE    HA17540   3.152   6.957   6.865  1.4898 -1.2846  0.8912
  158SAPE    HB17541   3.291   6.932   6.769  0.5571 -0.4993 -0.9567
  158SAPE    C217542   3.124   6.952   6.637  0.2764 -0.1071 -0.6122
  158SAPE    HS17543   3.014   6.938   6.648  0.4627 -1.6125 -0.4413
  158SAPE   O2117544   3.177   6.862   6.538  0.3274  0.1556  0.7016
  158SAPE   C2117545   3.091   6.824   6.449 -0.4576  0.0066 -0.3770
  158SAPE   O2217546   2.978   6.862   6.438  0.6945 -0.7305  0.0811
  158SAPE   C2217547   3.157   6.713   6.367 -0.0371 -0.3583  0.0459
  158SAPE   H2R17548   3.257   6.746   6.333 -0.0893 -1.1428 -0.8974
  158SAPE   H2S17549   3.152   6.618   6.425  1.3169 -0.2412  0.3706
  158SAPE    C317550   3.167   7.100   6.608  0.7210  0.0691  0.3341
  158SAPE    HX17551   3.278   7.113   6.609  0.8277 -0.6879 -0.3930
  158SAPE    HY17552   3.132   7.160   6.694 -0.3162 -0.8275  0.5567
  158SAPE   O3117553   3.126   7.149   6.483 -0.1647  0.3211  0.0647
  158SAPE   C3117554   3.005   7.187   6.472 -0.4114  0.5976 -0.1924
  158SAPE   O3217555   2.919   7.194   6.563 -0.3200  0.2117  0.0997
  158SAPE   C3217556   2.982   7.197   6.323  0.5814 -0.2643 -0.8305
  158SAPE   H2X17557   2.973   7.093   6.286 -0.0081 -0.0005 -1.4608
  158SAPE   H2Y17558   3.060   7.256   6.271  2.1662 -0.1487  1.5323
  158SAPE   C2317559   3.073   6.679   6.239 -0.0807 -0.1537 -0.4110
  158SAPE   H3R17560   2.975   6.641   6.275 -0.1473  1.0106  0.7422
  158SAPE   H3S17561   3.114   6.586   6.193  0.2878 -0.7866  1.1177
  158SAPE   C2417562   3.045   6.785   6.140 -0.9293  0.3897 -0.2361
  158SAPE   H4R17563   2.976   6.858   6.186  0.2280  0.9700  0.6102
  158SAPE   H4S17564   2.993   6.732   6.057 -1.2957 -2.6741  1.7737
  158SAPE   C2517565   3.167   6.866   6.088  0.5137 -0.1015 -0.5442
  158SAPE   H5R17566   3.247   6.871   6.163 -0.4172  0.4670  0.4414
  158SAPE   C2617567   3.179   6.919   5.964 -0.2994  0.7807  0.1278
  158SAPE   H6R17568   3.268   6.975   5.933  0.7449 -0.7963  0.1169
  158SAPE   C2717569   3.076   6.908   5.854 -0.2325  0.0870  0.2790
  158SAPE   H7R17570   3.016   6.815   5.859  1.0875 -0.8009  0.1058
  158SAPE   H7S17571   3.129   6.894   5.758 -2.0209 -2.4176 -0.4401
  158SAPE   C2817572   2.986   7.023   5.852 -0.7490  0.2851  0.1995
  158SAPE   H8R17573   2.906   7.019   5.928 -1.4412 -2.2388 -0.5522
  158SAPE   C2917574   2.989   7.131   5.778 -0.0190  0.1147  0.0112
  158SAPE   H9R17575   2.900   7.193   5.793  1.6729  2.7586 -0.0881
  158SAPE  C21017576   3.072   7.161   5.656 -0.0645 -0.0734  0.7345
  158SAPE  H10R17577   3.123   7.066   5.628 -0.0521 -0.0276  0.6036
  158SAPE  H10S17578   3.151   7.233   5.685  0.6791  0.2589 -1.9372
  158SAPE  C21117579   2.980   7.223   5.545 -0.8891 -0.0464 -0.2886
  158SAPE  H11R17580   2.957   7.327   5.572  0.8964  0.2593  0.1766
  158SAPE  C21217581   2.973   7.182   5.415 -0.0802 -0.2644 -0.6564
  158SAPE  H12R17582   2.932   7.251   5.339 -0.9159 -0.4226 -0.3579
  158SAPE  C21317583   3.027   7.060   5.356  0.4124  0.6931  0.0013
  158SAPE  H13R17584   2.965   7.038   5.267 -1.6685  0.7691  1.3608
  158SAPE  H13S17585   3.001   6.969   5.415 -0.4295  0.9639  0.0586
  158SAPE  C21417586   3.171   7.068   5.311 -0.3713  0.1198 -0.0587
  158SAPE  H14R17587   3.209   7.168   5.283  1.1883 -0.6034 -0.5964
  158SAPE  C21517588   3.250   6.965   5.271 -0.6900 -0.5822  0.6256
  158SAPE  H15R17589   3.350   6.989   5.233 -0.6805  2.7972  2.4097
  158SAPE  C21617590   3.218   6.820   5.266 -0.1850 -0.0603  0.5264
  158SAPE  H16R17591   3.218   6.800   5.157 -0.9580  4.3524 -0.4632
  158SAPE  H16S17592   3.117   6.796   5.306 -1.0966  2.6831  0.0950
  158SAPE  C21717593   3.307   6.733   5.340 -0.0248  0.0316 -0.3397
  158SAPE  H17R17594   3.404   6.732   5.287 -1.2517 -0.2442 -2.7087
  158SAPE  H17S17595   3.284   6.625   5.330  3.4771 -0.6906 -1.7113
  158SAPE  C21817596   3.326   6.769   5.492  0.0401  1.1793  0.5970
  158SAPE  H18R17597   3.225   6.765   5.537  1.7260 -0.6594  4.7403
  158SAPE  H18S17598   3.355   6.876   5.499  2.1099  1.1768 -4.0356
  158SAPE  C21917599   3.428   6.676   5.563 -0.0664  0.2790 -0.2554
  158SAPE  H19R17600   3.532   6.681   5.524 -0.3506  0.2833 -1.0325
  158SAPE  H19S17601   3.401   6.571   5.536  0.1079  0.6354 -1.9399
  158SAPE  C22017602   3.403   6.686   5.714 -0.5850 -1.2183 -0.0942
  158SAPE  H20R17603   3.472   6.627   5.778 -0.8612  1.2319  2.7122
  158SAPE  H20S17604   3.297   6.656   5.730 -0.2019 -2.2959  0.5263
  158SAPE  H20T17605   3.402   6.793   5.746 -1.8115 -0.6730 -1.8053
  158SAPE   C3317606   2.841   7.261   6.281  0.1358  0.3306  0.3416
  158SAPE   H3X17607   2.830   7.368   6.309  1.8854  0.3999  0.9052
  158SAPE   H3Y17608   2.753   7.209   6.324  0.3172  0.5614  1.0144
  158SAPE   C3417609   2.828   7.248   6.132 -0.7053  0.1418  0.2490
  158SAPE   H4X17610   2.790   7.144   6.123 -0.5484 -0.1131  2.0617
  158SAPE   H4Y17611   2.927   7.255   6.082 -1.0137 -0.0144 -0.3938
  158SAPE   C3517612   2.723   7.345   6.083 -0.2346 -0.2762  0.3217
  158SAPE   H5X17613   2.738   7.445   6.129  0.7937 -0.6278  0.7874
  158SAPE   H5Y17614   2.621   7.316   6.115 -1.8204  0.4000 -3.5414
  158SAPE   C3617615   2.715   7.374   5.929 -0.1930 -0.4757 -0.4108
  158SAPE   H6X17616   2.701   7.274   5.881  1.1160 -0.1416 -1.5878
  158SAPE   H6Y17617   2.811   7.414   5.888 -2.5342  3.0230 -3.0081
  158SAPE   C3717618   2.602   7.470   5.880 -0.1252 -0.1031  0.0644
  158SAPE   H7X17619   2.600   7.553   5.953  1.2407  1.7600 -1.8947
  158SAPE   H7Y17620   2.504   7.423   5.905  0.4423 -0.8108  1.0306
  158SAPE   C3817621   2.619   7.514   5.732 -0.0258  0.1197  0.0725
  158SAPE   H8X17622   2.719   7.562   5.720 -0.6430  1.5758  0.4706
  158SAPE   H8Y17623   2.545   7.591   5.701 -0.9550 -1.6850 -2.4664
  158SAPE   C3917624   2.598   7.393   5.635 -0.6040 -0.3563 -0.2019
  158SAPE   H9X17625   2.497   7.356   5.660  0.3568 -0.9054  3.4991
  158SAPE   H9Y17626   2.674   7.324   5.679  0.6975  0.7506 -0.6272
  158SAPE  C31017627   2.620   7.423   5.487 -0.6410  0.7924 -0.1913
  158SAPE  H10X17628   2.719   7.470   5.468  0.2893 -1.7557 -2.3549
  158SAPE  H10Y17629   2.529   7.480   5.456 -1.6488 -0.1412  0.9432
  158SAPE  C31117630   2.619   7.294   5.399  0.1957  0.4288  0.2806
  158SAPE  H11X17631   2.520   7.248   5.379 -0.3496  1.2067  1.0982
  158SAPE  H11Y17632   2.690   7.225   5.451 -0.9916 -2.4720 -1.6687
  158SAPE  C31217633   2.681   7.322   5.260 -0.0509  0.1659 -0.0107
  158SAPE  H12X17634   2.784   7.365   5.260  0.3792 -0.8009 -0.7981
  158SAPE  H12Y17635   2.617   7.403   5.219 -0.3199 -0.8108 -1.6106
  158SAPE  C31317636   2.668   7.202   5.169 -0.0648  0.2289 -0.2016
  158SAPE  H13X17637   2.558   7.195   5.152  0.0382 -2.1590 -0.2279
  158SAPE  H13Y17638   2.689   7.105   5.217  0.1970  0.1928 -0.3870
  158SAPE  C31417639   2.723   7.212   5.024 -0.2984 -0.0556 -0.0292
  158SAPE  H14X17640   2.830   7.243   5.027 -0.7222  1.3874  2.5212
  158SAPE  H14Y17641   2.670   7.295   4.973  0.0627 -0.5966 -1.3250
  158SAPE  C31517642   2.710   7.071   4.950 -0.3036  0.4475 -0.2630
  158SAPE  H15X17643   2.603   7.060   4.921  0.2003  1.7258 -2.9996
  158SAPE  H15Y17644   2.734   6.994   5.026 -2.4191  1.5536  1.6678
  158SAPE  C31617645   2.798   7.056   4.832 -0.0605 -0.3846  0.2791
  158SAPE  H16X17646   2.812   6.948   4.811  0.8491 -0.0554 -1.0157
  158SAPE  H16Y17647   2.898   7.098   4.859 -1.8616  2.2064  3.6893
  158SAPE  C31717648   2.744   7.133   4.712 -0.1229 -0.5906  1.0274
  158SAPE  H17X17649   2.728   7.241   4.734 -0.2741 -0.5475  0.7091
  158SAPE  H17Y17650   2.644   7.091   4.691  0.1367 -0.4644 -0.5352
  158SAPE  C31817651   2.845   7.114   4.595  0.1414 -0.1828  0.0554
  158SAPE  H18X17652   2.880   7.009   4.601 -0.1779 -0.3856 -1.2909
  158SAPE  H18Y17653   2.933   7.180   4.611  1.1656 -1.4263 -0.2908
  158SAPE  H18Z17654   2.802   7.140   4.496  1.1363  2.6193  0.2584
  159SAPE     N17655   1.304   4.942   2.625 -0.5466  0.2168  0.2597
  159SAPE   HN117656   1.324   5.044   2.623  0.5785 -0.0073 -0.1821
  159SAPE   HN217657   1.283   4.905   2.530  0.5130  0.4062 -0.0617
  159SAPE   HN317658   1.218   4.920   2.680 -1.0819  0.1729 -0.5682
  159SAPE   C1217659   1.432   4.904   2.689 -0.4316 -0.0900 -0.1381
  159SAPE  H12A17660   1.431   4.800   2.729 -0.1764  0.1414  0.4775
  159SAPE  H12B17661   1.447   4.968   2.778  0.0873 -0.9450  0.4054
  159SAPE   C1117662   1.553   4.937   2.608 -0.5800 -1.1141 -0.2918
  159SAPE  H11A17663   1.550   5.045   2.580  2.6933 -0.4054  1.5431
  159SAPE  H11B17664   1.554   4.878   2.514 -1.1027  0.3152 -1.2461
  159SAPE     P17665   1.817   4.934   2.635  0.0655 -0.1084  0.5365
  159SAPE   O1317666   1.823   4.878   2.496 -0.3396  0.5520 -0.5245
  159SAPE   O1417667   1.862   5.072   2.656  0.2737  0.8225  0.8996
  159SAPE   O1217668   1.666   4.912   2.689  0.1763  0.0735  0.3559
  159SAPE   O1117669   1.899   4.836   2.733 -0.5053  0.2161  0.1287
  159SAPE    C117670   1.846   4.709   2.776 -0.3731 -0.3751  0.0854
  159SAPE    HA17671   1.735   4.702   2.770 -0.3341 -2.5892  0.8173
  159SAPE    HB17672   1.892   4.628   2.715 -0.6588 -0.1323 -0.4544
  159SAPE    C217673   1.886   4.678   2.927  1.0429  0.4157 -0.2252
  159SAPE    HS17674   1.820   4.595   2.961  1.4108  0.7486  1.3487
  159SAPE   O2117675   1.865   4.790   3.004  0.1897  0.0916 -0.4088
  159SAPE   C2117676   1.743   4.843   3.010  0.3775 -0.1873 -0.0251
  159SAPE   O2217677   1.640   4.791   2.983 -0.1006  0.3011  0.3239
  159SAPE   C2217678   1.754   4.985   3.057 -0.8265  0.1714  0.0598
  159SAPE   H2R17679   1.806   4.990   3.154 -3.4762 -0.9281  1.6514
  159SAPE   H2S17680   1.800   5.051   2.979  0.2297  0.5014  0.9409
  159SAPE    C317681   2.032   4.633   2.934  0.2288  0.3140 -0.1822
  159SAPE    HX17682   2.077   4.731   2.909 -0.8777  0.8251 -0.1971
  159SAPE    HY17683   2.044   4.553   2.858  0.6008 -2.4594  2.5650
  159SAPE   O3117684   2.071   4.581   3.060  0.1620  0.4116 -0.0732
  159SAPE   C3117685   2.205   4.558   3.070  0.4964  1.0056  0.8519
  159SAPE   O3217686   2.281   4.567   2.980  0.0310 -0.1517  0.4569
  159SAPE   C3217687   2.232   4.487   3.199 -0.4380 -0.5090 -0.3747
  159SAPE   H2X17688   2.342   4.480   3.212 -0.3687  1.4957  0.4279
  159SAPE   H2Y17689   2.203   4.380   3.206 -1.1955 -0.1847  2.3771
  159SAPE   C2317690   1.613   5.042   3.098 -0.4179 -0.3419  0.2890
  159SAPE   H3R17691   1.554   4.985   3.174 -3.3171 -1.0361 -2.2421
  159SAPE   H3S17692   1.541   5.032   3.013 -2.8605  1.1088  2.0270
  159SAPE   C2417693   1.610   5.193   3.135  0.5586  0.4314  0.1711
  159SAPE   H4R17694   1.645   5.248   3.045  2.3959  0.8853  1.1042
  159SAPE   H4S17695   1.683   5.217   3.216 -1.2383  0.2731  1.9022
  159SAPE   C2517696   1.477   5.246   3.180  0.0064 -0.6179  0.3101
  159SAPE   H5R17697   1.423   5.304   3.104  0.8060 -0.0014  0.1876
  159SAPE   C2617698   1.435   5.257   3.310  0.0104  0.9319  0.4367
  159SAPE   H6R17699   1.340   5.312   3.319 -1.2428 -0.8980 -0.9325
  159SAPE   C2717700   1.505   5.187   3.430  0.4672  0.0337  0.4755
  159SAPE   H7R17701   1.539   5.083   3.409  0.4663  0.4913 -2.1461
  159SAPE   H7S17702   1.423   5.170   3.503 -1.9350  1.6336 -1.6634
  159SAPE   C2817703   1.614   5.268   3.488 -0.0140  0.6183  0.7310
  159SAPE   H8R17704   1.687   5.300   3.412  0.8700  2.0023  2.1015
  159SAPE   C2917705   1.639   5.306   3.613 -0.0539  0.2676  0.1268
  159SAPE   H9R17706   1.726   5.368   3.637 -0.9384  0.8568  1.9823
  159SAPE  C21017707   1.558   5.275   3.738 -0.0911  0.2146  0.0317
  159SAPE  H10R17708   1.626   5.247   3.821  0.5269 -1.1393 -0.8927
  159SAPE  H10S17709   1.495   5.186   3.715 -0.8076  0.6396  0.3186
  159SAPE  C21117710   1.482   5.404   3.763 -0.0983  0.5345  0.4726
  159SAPE  H11R17711   1.430   5.457   3.682 -3.5504 -0.7887  1.6482
  159SAPE  C21217712   1.464   5.470   3.877  0.4083 -0.6313  0.4974
  159SAPE  H12R17713   1.421   5.570   3.868  0.4492 -0.6218  0.4081
  159SAPE  C21317714   1.513   5.418   4.012  0.2467  0.1354 -0.6492
  159SAPE  H13R17715   1.545   5.312   4.015  1.5719  0.5344  0.6890
  159SAPE  H13S17716   1.430   5.413   4.086 -1.0152 -0.3829 -2.0406
  159SAPE  C21417717   1.639   5.490   4.074  0.8951 -0.4241  0.3064
  159SAPE  H14R17718   1.724   5.506   4.006  0.3952  0.3723 -0.1438
  159SAPE  C21517719   1.651   5.541   4.200 -0.2338  0.0091 -0.0740
  159SAPE  H15R17720   1.747   5.585   4.232  0.9044 -1.6758 -0.9991
  159SAPE  C21617721   1.543   5.531   4.309  0.0645 -0.0521  0.3813
  159SAPE  H16R17722   1.445   5.489   4.276  0.1830 -0.4731  0.5552
  159SAPE  H16S17723   1.532   5.636   4.343  0.0275  1.4008 -3.6803
  159SAPE  C21717724   1.600   5.443   4.422  0.1918  0.1264 -0.0353
  159SAPE  H17R17725   1.620   5.342   4.380  0.8399  1.0381 -2.0887
  159SAPE  H17S17726   1.518   5.428   4.495  0.7418  0.6695  0.7069
  159SAPE  C21817727   1.727   5.488   4.491 -0.5686 -0.3914 -0.0967
  159SAPE  H18R17728   1.726   5.591   4.531 -2.0231 -0.8331  1.0878
  159SAPE  H18S17729   1.812   5.497   4.421 -0.1080  1.9472  0.6711
  159SAPE  C21917730   1.763   5.376   4.590 -0.3627 -0.3148  0.4125
  159SAPE  H19R17731   1.818   5.299   4.532  0.6799  1.7989 -1.5613
  159SAPE  H19S17732   1.669   5.332   4.630 -0.6692  0.6732  0.8242
  159SAPE  C22017733   1.855   5.424   4.709 -0.3008 -0.2162  0.1746
  159SAPE  H20R17734   1.948   5.477   4.680  1.0588 -1.3181  2.2664
  159SAPE  H20S17735   1.887   5.339   4.773  0.3863  1.3525  1.9824
  159SAPE  H20T17736   1.798   5.492   4.775 -0.7166 -0.3021 -0.0871
  159SAPE   C3317737   2.163   4.557   3.315  0.5777  0.1164 -0.2240
  159SAPE   H3X17738   2.053   4.537   3.318 -0.2416  2.7047 -4.5357
  159SAPE   H3Y17739   2.172   4.666   3.299  2.6253 -0.1664 -1.3737
  159SAPE   C3417740   2.222   4.532   3.456 -0.0649 -1.0170  0.3601
  159SAPE   H4X17741   2.329   4.562   3.447 -0.3205  0.7927  2.2589
  159SAPE   H4Y17742   2.228   4.422   3.466 -1.7062 -1.2540 -0.9297
  159SAPE   C3517743   2.145   4.606   3.573  0.0846  0.6797  0.3725
  159SAPE   H5X17744   2.039   4.571   3.579  0.3233 -0.2112 -0.3564
  159SAPE   H5Y17745   2.162   4.713   3.549  1.0873  0.5784  0.5936
  159SAPE   C3617746   2.211   4.571   3.705  0.4544  0.0626 -0.3882
  159SAPE   H6X17747   2.315   4.606   3.692  0.6788 -0.0435  0.9401
  159SAPE   H6Y17748   2.209   4.463   3.729 -0.3329  0.0357 -0.5387
  159SAPE   C3717749   2.139   4.639   3.817  0.2789  0.3160  1.1063
  159SAPE   H7X17750   2.033   4.607   3.806  0.5450 -0.0836 -0.5243
  159SAPE   H7Y17751   2.154   4.749   3.808  0.7756  0.1161 -1.4457
  159SAPE   C3817752   2.195   4.594   3.950 -0.1041 -0.3531 -0.6169
  159SAPE   H8X17753   2.305   4.608   3.957  0.2025 -3.1554  1.9816
  159SAPE   H8Y17754   2.168   4.488   3.972  1.8115 -0.7763 -0.1126
  159SAPE   C3917755   2.148   4.681   4.066 -0.2537 -0.6186 -0.4043
  159SAPE   H9X17756   2.038   4.689   4.078 -0.1600 -1.8613  1.5185
  159SAPE   H9Y17757   2.189   4.783   4.052 -0.0558 -0.9618 -2.8673
  159SAPE  C31017758   2.203   4.637   4.204 -0.7268  0.2448  0.6239
  159SAPE  H10X17759   2.173   4.534   4.231  0.1321 -0.1432  0.1131
  159SAPE  H10Y17760   2.154   4.702   4.281  1.6936  0.8701  1.7298
  159SAPE  C31117761   2.352   4.649   4.229  0.4092  0.5053  0.7885
  159SAPE  H11X17762   2.384   4.748   4.190 -1.4060  0.1832 -1.8352
  159SAPE  H11Y17763   2.399   4.569   4.168  1.1592  0.5015  1.3616
  159SAPE  C31217764   2.381   4.635   4.377  0.3223  0.7718  0.0329
  159SAPE  H12X17765   2.363   4.531   4.413  1.9435  0.5298  0.2370
  159SAPE  H12Y17766   2.335   4.706   4.449 -0.0781 -0.2451  0.8128
  159SAPE  C31317767   2.526   4.647   4.419  0.0199  0.5480  0.7670
  159SAPE  H13X17768   2.573   4.741   4.383  0.3561 -0.3411 -1.2604
  159SAPE  H13Y17769   2.597   4.582   4.363  2.8595  2.4077  1.9870
  159SAPE  C31417770   2.552   4.630   4.570 -0.3650  0.0549 -0.1079
  159SAPE  H14X17771   2.659   4.606   4.587 -0.5653 -0.4075  0.5669
  159SAPE  H14Y17772   2.502   4.541   4.615  0.7225 -0.6221 -0.2181
  159SAPE  C31517773   2.520   4.764   4.646  0.4482 -0.2314 -0.1904
  159SAPE  H15X17774   2.552   4.753   4.751  1.8291 -0.3009 -0.5942
  159SAPE  H15Y17775   2.411   4.784   4.654  0.8593  2.9006 -1.0740
  159SAPE  C31617776   2.596   4.898   4.608  0.4830 -0.7647  0.8275
  159SAPE  H16X17777   2.584   4.974   4.689 -1.4175 -0.4155  0.2689
  159SAPE  H16Y17778   2.542   4.945   4.523  2.6860  0.9711  0.2886
  159SAPE  C31717779   2.747   4.875   4.590  0.6841 -0.3644  0.0176
  159SAPE  H17X17780   2.784   4.976   4.562  1.3123 -0.1516  1.5307
  159SAPE  H17Y17781   2.760   4.815   4.498  1.7636 -0.0140 -0.0789
  159SAPE  C31817782   2.824   4.812   4.700 -0.7115 -0.4524 -0.2625
  159SAPE  H18X17783   2.825   4.891   4.779  0.2300  0.1078 -0.8137
  159SAPE  H18Y17784   2.925   4.791   4.661 -1.3930 -2.8282 -0.8870
  159SAPE  H18Z17785   2.777   4.725   4.750 -0.4566 -0.0557  0.7136
  160SAPE     N17786   1.645   1.703   2.378  0.1290 -0.3252  0.5067
  160SAPE   HN117787   1.695   1.740   2.295 -1.6958 -0.8609 -0.8994
  160SAPE   HN217788   1.543   1.724   2.385  0.0238 -0.8156  0.4724
  160SAPE   HN317789   1.695   1.753   2.454 -0.8777  3.0935 -0.8408
  160SAPE   C1217790   1.679   1.560   2.378 -0.3672  0.4675  0.5665
  160SAPE  H12A17791   1.786   1.550   2.349 -0.7605  0.2831 -0.9277
  160SAPE  H12B17792   1.617   1.516   2.297  0.5065 -1.2654  0.8005
  160SAPE   C1117793   1.651   1.505   2.517 -0.4266  0.2582 -0.0773
  160SAPE  H11A17794   1.706   1.567   2.591 -0.8875 -1.3668  1.7263
  160SAPE  H11B17795   1.694   1.402   2.522  0.4316  0.6513  1.8611
  160SAPE     P17796   1.445   1.420   2.650  0.0437 -0.0456 -0.0632
  160SAPE   O1317797   1.314   1.475   2.685 -0.0964  0.4697 -0.0415
  160SAPE   O1417798   1.445   1.278   2.605 -0.0599 -0.3101  0.0267
  160SAPE   O1217799   1.509   1.510   2.539 -0.0475 -0.9248 -0.7190
  160SAPE   O1117800   1.536   1.440   2.777  0.1633 -0.2530  0.1235
  160SAPE    C117801   1.511   1.553   2.863 -0.0018 -0.1107 -0.2886
  160SAPE    HA17802   1.528   1.646   2.804  0.6406  0.4621  0.7632
  160SAPE    HB17803   1.407   1.552   2.901  0.3918  1.7665  0.9912
  160SAPE    C217804   1.602   1.561   2.983  0.1834  0.4261 -0.3070
  160SAPE    HS17805   1.598   1.659   3.035  1.7535 -0.8598  2.4349
  160SAPE   O2117806   1.740   1.532   2.944  0.7484  0.5174  0.4685
  160SAPE   C2117807   1.791   1.635   2.873 -0.0251  0.2073 -0.1807
  160SAPE   O2217808   1.742   1.744   2.864 -0.4449 -0.4087 -0.3022
  160SAPE   C2217809   1.925   1.595   2.806 -0.0507  0.4281  0.1351
  160SAPE   H2R17810   1.909   1.510   2.736 -0.4896  0.5505  0.0794
  160SAPE   H2S17811   1.964   1.680   2.747  1.1859 -1.4342 -1.8610
  160SAPE    C317812   1.551   1.456   3.081 -0.1994  0.8026  0.1620
  160SAPE    HX17813   1.542   1.355   3.038  0.9157  0.3813  0.8616
  160SAPE    HY17814   1.445   1.481   3.100 -0.0586  0.0552  2.0940
  160SAPE   O3117815   1.632   1.453   3.200  0.0618 -0.3496  0.1808
  160SAPE   C3117816   1.730   1.367   3.185 -0.0936  0.4111  0.1728
  160SAPE   O3217817   1.755   1.294   3.090  0.5405 -0.2009  0.2603
  160SAPE   C3217818   1.811   1.361   3.316 -0.2659 -0.3734  0.7558
  160SAPE   H2X17819   1.872   1.270   3.331 -0.0983 -0.5599 -0.8780
  160SAPE   H2Y17820   1.742   1.360   3.403 -0.3564  0.5339  0.7077
  160SAPE   C2317821   2.027   1.550   2.917  0.4997  0.5475 -0.5341
  160SAPE   H3R17822   2.102   1.492   2.859 -0.5593 -0.6879 -0.7079
  160SAPE   H3S17823   1.974   1.480   2.984  0.3640 -0.3869 -1.5819
  160SAPE   C2417824   2.100   1.658   2.989  0.7510  0.4133  0.0748
  160SAPE   H4R17825   2.147   1.610   3.078  0.0259 -0.9228 -0.2350
  160SAPE   H4S17826   2.023   1.722   3.039  0.4522  0.7691 -0.8338
  160SAPE   C2517827   2.195   1.747   2.917 -0.4785  0.3313  0.3116
  160SAPE   H5R17828   2.224   1.710   2.818 -0.8223  0.0740  0.3042
  160SAPE   C2617829   2.232   1.872   2.950 -0.7335  0.3311 -0.3380
  160SAPE   H6R17830   2.305   1.935   2.898 -0.2021  0.3469  0.4029
  160SAPE   C2717831   2.167   1.945   3.066 -0.3228  0.1462  0.5682
  160SAPE   H7R17832   2.059   1.963   3.044 -0.0094  1.1048 -0.2712
  160SAPE   H7S17833   2.210   2.048   3.069 -3.7265  1.6801  1.1977
  160SAPE   C2817834   2.171   1.895   3.207 -0.1890  0.4970  0.2096
  160SAPE   H8R17835   2.213   1.793   3.207 -1.2075  0.0616 -0.4426
  160SAPE   C2917836   2.133   1.951   3.320  0.9334  0.0375  0.1886
  160SAPE   H9R17837   2.167   1.897   3.409 -0.1608 -0.6908  0.1786
  160SAPE  C21017838   2.064   2.082   3.343 -0.2377  0.0402 -0.3112
  160SAPE  H10R17839   2.057   2.129   3.242 -0.2074  0.5358 -0.0886
  160SAPE  H10S17840   2.119   2.153   3.409 -0.1361  0.9652 -1.3499
  160SAPE  C21117841   1.920   2.065   3.394  0.7916 -0.8301  0.3310
  160SAPE  H11R17842   1.849   2.053   3.311  0.2377  0.6450  0.5636
  160SAPE  C21217843   1.861   2.084   3.509  0.0618 -0.8240 -0.0606
  160SAPE  H12R17844   1.751   2.082   3.514 -0.2177  2.0911 -2.3716
  160SAPE  C21317845   1.925   2.124   3.638 -0.4764 -0.9168 -0.5677
  160SAPE  H13R17846   1.951   2.232   3.641  2.0423 -1.4835  0.4352
  160SAPE  H13S17847   2.022   2.076   3.660 -0.4468  0.4567  2.9611
  160SAPE  C21417848   1.831   2.096   3.756 -0.0083 -0.7854  0.0164
  160SAPE  H14R17849   1.801   1.993   3.779  1.4440 -1.2795 -0.1875
  160SAPE  C21517850   1.763   2.182   3.835  0.2462 -0.4902  0.0920
  160SAPE  H15R17851   1.709   2.140   3.921  1.1204 -0.7165  0.5407
  160SAPE  C21617852   1.769   2.332   3.821 -0.0368 -0.1274  0.2683
  160SAPE  H16R17853   1.664   2.368   3.809 -0.5735 -1.3361  1.1059
  160SAPE  H16S17854   1.819   2.370   3.729 -2.7377  0.2505 -1.1410
  160SAPE  C21717855   1.835   2.399   3.949 -0.3212 -0.1307  0.1547
  160SAPE  H17R17856   1.843   2.509   3.937  0.4763 -0.4383 -3.1093
  160SAPE  H17S17857   1.934   2.356   3.974 -0.3674 -0.6438 -0.5285
  160SAPE  C21817858   1.732   2.382   4.070 -0.3761  1.0791 -0.5080
  160SAPE  H18R17859   1.771   2.424   4.165  2.8922 -0.9616 -0.7611
  160SAPE  H18S17860   1.722   2.275   4.098  0.8583  0.8725 -0.7717
  160SAPE  C21917861   1.587   2.435   4.042  0.4029 -0.3652 -0.3742
  160SAPE  H19R17862   1.540   2.412   3.944 -1.7432  2.1784 -0.0514
  160SAPE  H19S17863   1.584   2.546   4.047  3.8299 -0.1997  3.6866
  160SAPE  C22017864   1.478   2.380   4.141  0.2213 -0.2292  0.7287
  160SAPE  H20R17865   1.460   2.273   4.117  1.0272 -0.0252 -0.8528
  160SAPE  H20S17866   1.378   2.427   4.149  0.4959  0.6190 -0.6851
  160SAPE  H20T17867   1.520   2.382   4.244 -0.3531 -1.0329  0.9877
  160SAPE   C3317868   1.903   1.484   3.341 -0.4123 -0.0358  0.5558
  160SAPE   H3X17869   1.838   1.572   3.322 -1.8368 -1.1836 -0.1037
  160SAPE   H3Y17870   1.981   1.485   3.262 -0.3302 -1.0050  0.6092
  160SAPE   C3417871   1.952   1.490   3.484 -0.0779 -0.0901 -0.3137
  160SAPE   H4X17872   2.015   1.403   3.513 -1.3720 -1.4012 -1.2958
  160SAPE   H4Y17873   1.857   1.480   3.542 -1.9332 -0.5138 -3.2024
  160SAPE   C3517874   2.005   1.629   3.518 -0.4723  0.5230 -0.4901
  160SAPE   H5X17875   1.934   1.706   3.482 -0.6603 -0.3022 -1.9345
  160SAPE   H5Y17876   2.095   1.646   3.455 -0.3462 -0.3041 -0.5388
  160SAPE   C3617877   2.042   1.652   3.666 -0.1135 -0.2045 -0.2527
  160SAPE   H6X17878   2.082   1.558   3.710 -1.0368 -1.0413 -1.1475
  160SAPE   H6Y17879   1.953   1.694   3.718 -0.5135  1.3709 -2.1016
  160SAPE   C3717880   2.152   1.762   3.694 -0.3219  0.3125  0.5535
  160SAPE   H7X17881   2.126   1.854   3.638 -0.5165  0.6780  1.2373
  160SAPE   H7Y17882   2.250   1.726   3.657  0.2826  1.3513  1.0974
  160SAPE   C3817883   2.168   1.804   3.843 -0.5702  0.9108 -0.3045
  160SAPE   H8X17884   2.257   1.867   3.863 -0.4583  0.8932 -0.7492
  160SAPE   H8Y17885   2.186   1.709   3.898 -2.0753 -0.4770 -2.0899
  160SAPE   C3917886   2.055   1.880   3.904 -0.1226  0.2472  0.1156
  160SAPE   H9X17887   1.960   1.855   3.852  0.7622  0.5611 -1.7385
  160SAPE   H9Y17888   2.064   1.984   3.867  0.0926  0.3562  0.4757
  160SAPE  C31017889   2.057   1.869   4.050  0.5941  0.0098 -0.1057
  160SAPE  H10X17890   2.159   1.869   4.093  1.2860 -0.1288 -1.6991
  160SAPE  H10Y17891   2.017   1.771   4.083  0.0318  0.0601 -0.6284
  160SAPE  C31117892   1.969   1.977   4.128  0.1477 -0.3523  0.2439
  160SAPE  H11X17893   1.867   1.969   4.085 -0.4970  3.9137  0.5646
  160SAPE  H11Y17894   2.003   2.080   4.105 -3.0913  0.9323  0.7334
  160SAPE  C31217895   1.964   1.951   4.278 -0.7793  0.1590 -0.7440
  160SAPE  H12X17896   1.959   1.842   4.299  0.0515  0.1897 -0.3279
  160SAPE  H12Y17897   1.876   2.001   4.326 -0.3207  0.8364 -0.5986
  160SAPE  C31317898   2.087   2.022   4.339  0.1234 -0.9701 -0.4350
  160SAPE  H13X17899   2.080   2.133   4.331  0.5517 -1.0755 -2.9548
  160SAPE  H13Y17900   2.175   2.002   4.274 -0.1677  0.3852 -1.2986
  160SAPE  C31417901   2.122   1.991   4.485 -0.3625  0.4467 -1.0614
  160SAPE  H14X17902   2.160   1.887   4.473  0.8174  0.3899  2.1100
  160SAPE  H14Y17903   2.037   1.982   4.555  2.1750 -0.8639  2.0800
  160SAPE  C31517904   2.245   2.057   4.556  0.0716 -0.4234  0.4636
  160SAPE  H15X17905   2.213   2.163   4.565  0.5804 -0.0516 -1.5940
  160SAPE  H15Y17906   2.330   2.065   4.485 -0.9233  1.5842 -0.5849
  160SAPE  C31617907   2.288   1.980   4.689  1.5249 -0.3821 -0.2611
  160SAPE  H16X17908   2.308   1.874   4.663  0.4776 -0.3977 -1.0367
  160SAPE  H16Y17909   2.198   1.984   4.754  1.7953  0.2715  0.0877
  160SAPE  C31717910   2.413   2.049   4.751 -0.6637 -0.1895 -0.4006
  160SAPE  H17X17911   2.396   2.150   4.794 -1.3649 -0.6540  0.4230
  160SAPE  H17Y17912   2.494   2.058   4.675 -2.0344  1.1001 -1.7825
  160SAPE  C31817913   2.473   1.959   4.863  0.1427 -0.2209 -0.7528
  160SAPE  H18X17914   2.564   2.008   4.905 -0.6826  1.4352 -0.8177
  160SAPE  H18Y17915   2.494   1.862   4.813 -1.6707 -0.2188 -1.6135
  160SAPE  H18Z17916   2.409   1.937   4.952  0.7559  0.9215 -0.0003
  161SAPE     N17917   2.716   1.044   2.310  0.4874  0.1521 -0.0951
  161SAPE   HN117918   2.649   1.088   2.244  2.2328  0.5418 -1.6912
  161SAPE   HN217919   2.759   1.114   2.373 -0.0613 -0.4515  0.9773
  161SAPE   HN317920   2.798   1.009   2.257  0.1792  0.5279 -0.8390
  161SAPE   C1217921   2.668   0.936   2.396  0.1140  0.1531  0.2243
  161SAPE  H12A17922   2.573   0.976   2.438  1.7060  0.9997  3.2666
  161SAPE  H12B17923   2.735   0.908   2.480 -0.2978  1.0874  0.8780
  161SAPE   C1117924   2.644   0.807   2.309  0.0139 -0.6740  0.1466
  161SAPE  H11A17925   2.738   0.756   2.275 -0.5813 -1.9650  0.3601
  161SAPE  H11B17926   2.595   0.847   2.218  1.6078  2.6138  0.5959
  161SAPE     P17927   2.620   0.635   2.499 -0.0654 -0.4801  0.5302
  161SAPE   O1317928   2.561   0.502   2.505 -0.6551  0.2919 -0.2918
  161SAPE   O1417929   2.769   0.639   2.492  0.3085 -0.4646  0.0555
  161SAPE   O1217930   2.558   0.712   2.375  0.2463  0.4319  0.5024
  161SAPE   O1117931   2.579   0.714   2.631  0.1396  0.1553 -0.3134
  161SAPE    C117932   2.450   0.672   2.691 -0.1464 -0.7058  0.0303
  161SAPE    HA17933   2.369   0.685   2.617  0.1130  0.6692 -0.0399
  161SAPE    HB17934   2.457   0.568   2.730  0.1313 -0.6102  0.2396
  161SAPE    C217935   2.406   0.779   2.801  0.5506  0.1675 -0.0186
  161SAPE    HS17936   2.417   0.878   2.752  0.8443  0.3428  0.3895
  161SAPE   O2117937   2.487   0.761   2.912  0.3010  0.1894  0.1304
  161SAPE   C2117938   2.582   0.848   2.930 -0.6981 -0.3675  0.2848
  161SAPE   O2217939   2.600   0.954   2.872 -0.1874 -0.1078 -0.1539
  161SAPE   C2217940   2.648   0.817   3.065 -0.4019  0.8842 -0.6701
  161SAPE   H2R17941   2.602   0.721   3.098 -3.4801  2.0828 -1.0542
  161SAPE   H2S17942   2.757   0.828   3.053 -0.1137 -1.1298 -0.1664
  161SAPE    C317943   2.263   0.752   2.854  0.4829 -0.3337  0.4028
  161SAPE    HX17944   2.251   0.643   2.874  4.1728 -0.5351  2.6084
  161SAPE    HY17945   2.189   0.785   2.779 -0.6065  1.3688  2.1260
  161SAPE   O3117946   2.232   0.809   2.981 -0.3364  0.7943 -0.4971
  161SAPE   C3117947   2.197   0.937   2.982  0.4299 -0.3700  0.5477
  161SAPE   O3217948   2.183   1.006   2.882  0.3207 -0.5247 -0.3111
  161SAPE   C3217949   2.187   0.992   3.124  0.1278 -0.4481  1.0021
  161SAPE   H2X17950   2.224   0.918   3.199 -2.1776 -2.1714  0.5562
  161SAPE   H2Y17951   2.078   1.002   3.144 -0.4200  0.6683 -1.9862
  161SAPE   C2317952   2.594   0.922   3.165  0.4627 -0.6589  0.0712
  161SAPE   H3R17953   2.484   0.924   3.156  0.4347 -0.1937  0.4880
  161SAPE   H3S17954   2.621   1.024   3.130 -0.6369 -1.2118 -2.6301
  161SAPE   C2417955   2.646   0.901   3.309  0.5329  0.0050 -0.7845
  161SAPE   H4R17956   2.754   0.875   3.313  0.0001 -2.2442  2.7833
  161SAPE   H4S17957   2.593   0.812   3.348  0.0740 -0.1247 -1.6656
  161SAPE   C2517958   2.600   1.020   3.390  0.4498 -0.0051  0.3700
  161SAPE   H5R17959   2.569   1.103   3.326 -0.4578  1.2082  2.3096
  161SAPE   C2617960   2.581   1.035   3.521  0.2349  0.7294 -0.6962
  161SAPE   H6R17961   2.558   1.135   3.562  1.2278  0.7085 -0.0837
  161SAPE   C2717962   2.607   0.926   3.626  0.4426  0.0161 -0.2853
  161SAPE   H7R17963   2.667   0.962   3.713 -0.9671  0.5454  0.4985
  161SAPE   H7S17964   2.663   0.845   3.576 -3.0287 -0.9485 -2.9327
  161SAPE   C2817965   2.482   0.868   3.682  0.7282  0.0385 -0.0629
  161SAPE   H8R17966   2.402   0.859   3.608  1.3916 -0.1323 -0.7686
  161SAPE   C2917967   2.460   0.835   3.810  0.5308  0.3094 -0.0925
  161SAPE   H9R17968   2.360   0.799   3.837  0.7824 -0.7824 -0.5479
  161SAPE  C21017969   2.556   0.861   3.917 -0.1877 -0.3139 -0.5160
  161SAPE  H10R17970   2.662   0.872   3.886 -0.4453 -0.5545 -1.5282
  161SAPE  H10S17971   2.565   0.770   3.980  0.8699 -1.6408 -2.4564
  161SAPE  C21117972   2.521   0.995   3.990 -0.8146 -0.1093  0.1098
  161SAPE  H11R17973   2.517   1.086   3.929  0.9863  0.4827  0.7907
  161SAPE  C21217974   2.518   1.001   4.124  0.2353  0.4751 -0.6311
  161SAPE  H12R17975   2.498   1.099   4.168  1.0619 -0.4603  2.0233
  161SAPE  C21317976   2.543   0.889   4.225 -0.0049 -0.2546 -0.8528
  161SAPE  H13R17977   2.584   0.937   4.315 -1.4360 -2.9670  1.4087
  161SAPE  H13S17978   2.626   0.826   4.188  0.1447 -1.3488  1.2084
  161SAPE  C21417979   2.424   0.804   4.258  0.4734  0.1788 -0.5960
  161SAPE  H14R17980   2.326   0.839   4.223  0.1564  0.6593  0.7351
  161SAPE  C21517981   2.428   0.691   4.334 -0.2221 -0.3150 -0.2388
  161SAPE  H15R17982   2.335   0.635   4.347  0.5328 -1.1432  2.1763
  161SAPE  C21617983   2.547   0.635   4.401 -0.2184  0.6706 -0.3304
  161SAPE  H16R17984   2.629   0.710   4.404 -1.1152  1.6519  0.8959
  161SAPE  H16S17985   2.575   0.544   4.343 -0.7880  0.6296 -0.5429
  161SAPE  C21717986   2.522   0.594   4.550  0.1401  0.3464 -0.1991
  161SAPE  H17R17987   2.498   0.689   4.601 -0.6730  0.6099 -1.0385
  161SAPE  H17S17988   2.612   0.539   4.584  0.8612  2.0610  0.7779
  161SAPE  C21817989   2.401   0.496   4.564  0.0593 -0.1124 -0.2407
  161SAPE  H18R17990   2.428   0.407   4.502 -0.3958  2.3290 -4.3059
  161SAPE  H18S17991   2.312   0.544   4.518 -0.0155  1.3902  1.3995
  161SAPE  C21917992   2.368   0.436   4.696  0.1994 -0.1844 -0.4535
  161SAPE  H19R17993   2.354   0.519   4.769  3.5867 -1.4731  1.9100
  161SAPE  H19S17994   2.450   0.376   4.740  0.6845  1.5082  1.0931
  161SAPE  C22017995   2.242   0.345   4.687  0.1246 -0.1615 -0.3070
  161SAPE  H20R17996   2.217   0.318   4.792  2.4410  0.2427  0.4041
  161SAPE  H20S17997   2.252   0.257   4.620 -1.2750  0.2621 -1.1149
  161SAPE  H20T17998   2.154   0.405   4.657 -0.4843  0.3567  2.2174
  161SAPE   C3317999   2.235   1.136   3.149 -0.5219 -0.0150 -0.3949
  161SAPE   H3X18000   2.209   1.202   3.063 -1.6065  2.7608  1.9169
  161SAPE   H3Y18001   2.347   1.138   3.148 -0.3451 -3.1102  1.1606
  161SAPE   C3418002   2.180   1.182   3.283 -0.5890  0.8137 -0.4359
  161SAPE   H4X18003   2.070   1.177   3.273 -0.4538 -0.2512 -1.6613
  161SAPE   H4Y18004   2.206   1.290   3.287 -0.3400  0.7889 -1.1263
  161SAPE   C3518005   2.222   1.106   3.412 -0.0708  0.2233 -0.6415
  161SAPE   H5X18006   2.331   1.122   3.421  0.1535 -0.7584 -1.4000
  161SAPE   H5Y18007   2.196   0.998   3.419 -1.0848  0.5164  0.4920
  161SAPE   C3618008   2.153   1.168   3.545 -0.5291  0.6773 -0.1709
  161SAPE   H6X18009   2.042   1.169   3.545 -0.7790 -2.5853  3.5434
  161SAPE   H6Y18010   2.188   1.272   3.565 -0.0309  0.1978  1.5891
  161SAPE   C3718011   2.205   1.081   3.663  0.6146 -0.3357 -0.6242
  161SAPE   H7X18012   2.314   1.098   3.668  0.3107  1.7624 -0.4362
  161SAPE   H7Y18013   2.182   0.973   3.647  1.7724 -0.8851  1.1443
  161SAPE   C3818014   2.146   1.135   3.794 -0.2984 -0.9490 -0.4264
  161SAPE   H8X18015   2.174   1.063   3.874  2.8288 -0.5646 -1.0474
  161SAPE   H8Y18016   2.036   1.117   3.791 -0.0327 -2.8692  0.1351
  161SAPE   C3918017   2.183   1.272   3.839  0.5373  0.8107 -0.2835
  161SAPE   H9X18018   2.121   1.353   3.795 -1.4124  0.8494  2.2896
  161SAPE   H9Y18019   2.288   1.288   3.806  0.2320 -1.4357 -2.6688
  161SAPE  C31018020   2.189   1.274   3.995 -0.1076  0.2325  0.0738
  161SAPE  H10X18021   2.265   1.198   4.020  1.3142  0.9740 -1.7831
  161SAPE  H10Y18022   2.093   1.241   4.041 -0.1316  1.7192  1.1795
  161SAPE  C31118023   2.216   1.412   4.037  0.3691 -0.5069 -0.7758
  161SAPE  H11X18024   2.122   1.467   4.012 -0.3792 -2.0748 -1.5403
  161SAPE  H11Y18025   2.305   1.454   3.986  1.2280  3.0716  3.1135
  161SAPE  C31218026   2.243   1.423   4.186  0.0510  0.8487  1.2029
  161SAPE  H12X18027   2.329   1.365   4.226 -0.0599  0.5802  1.0547
  161SAPE  H12Y18028   2.157   1.373   4.236  1.4125 -1.0443  1.7940
  161SAPE  C31318029   2.251   1.567   4.236 -0.4745 -0.1307 -1.2416
  161SAPE  H13X18030   2.158   1.618   4.204  0.7431  3.1682  0.1147
  161SAPE  H13Y18031   2.329   1.627   4.185  0.3178  1.7450  1.9460
  161SAPE  C31418032   2.266   1.591   4.392 -0.5369 -0.0826 -0.1106
  161SAPE  H14X18033   2.174   1.562   4.448  0.6714 -2.8608  0.6262
  161SAPE  H14Y18034   2.272   1.700   4.408  1.2763 -0.2293  0.4407
  161SAPE  C31518035   2.389   1.516   4.453 -0.4111  0.4549  0.3877
  161SAPE  H15X18036   2.477   1.546   4.392 -0.8357  0.1657 -0.3683
  161SAPE  H15Y18037   2.376   1.408   4.432 -2.9318 -0.0613  3.7554
  161SAPE  C31618038   2.413   1.534   4.604  0.4344 -0.4481 -0.4027
  161SAPE  H16X18039   2.324   1.521   4.670  0.2460  0.3711 -0.4949
  161SAPE  H16Y18040   2.442   1.639   4.625  2.3434 -1.2986  1.7381
  161SAPE  C31718041   2.519   1.446   4.673 -0.2597 -0.0292  0.1770
  161SAPE  H17X18042   2.621   1.482   4.646 -0.6495  0.9593 -0.0096
  161SAPE  H17Y18043   2.501   1.343   4.633  0.4804 -0.0875 -0.0194
  161SAPE  C31818044   2.506   1.452   4.827 -0.4225 -0.0446  0.6189
  161SAPE  H18X18045   2.419   1.398   4.869 -0.6087  1.3503  2.1723
  161SAPE  H18Y18046   2.503   1.557   4.865 -1.0100 -0.2548  1.1659
  161SAPE  H18Z18047   2.599   1.404   4.865 -1.0103 -3.5715 -1.9855
  162SAPE     N18048   2.199   0.766   2.151  0.4813 -0.7038 -0.3360
  162SAPE   HN118049   2.183   0.788   2.050 -2.6473  0.5418  0.3084
  162SAPE   HN218050   2.102   0.769   2.189 -1.9635 -1.2822 -5.6679
  162SAPE   HN318051   2.253   0.841   2.199 -0.3594  1.5025 -2.5844
  162SAPE   C1218052   2.277   0.637   2.165  1.1037 -0.4650 -0.1584
  162SAPE  H12A18053   2.384   0.669   2.168  0.7470  0.7261  1.1262
  162SAPE  H12B18054   2.265   0.584   2.069  1.4105  0.5659 -0.7859
  162SAPE   C1118055   2.230   0.553   2.291  0.4814 -0.0263 -0.3533
  162SAPE  H11A18056   2.251   0.615   2.380  0.2209 -1.7477  0.9583
  162SAPE  H11B18057   2.289   0.459   2.295  1.5721  0.6780  0.8415
  162SAPE     P18058   1.990   0.602   2.378  0.2540 -0.2250  0.1807
  162SAPE   O1318059   1.977   0.731   2.321 -0.3244 -0.1096 -0.1001
  162SAPE   O1418060   1.872   0.518   2.402  0.2998 -0.8285  0.0553
  162SAPE   O1218061   2.093   0.515   2.299 -0.2617 -0.1651  0.0917
  162SAPE   O1118062   2.071   0.619   2.511  0.3269 -0.3138  0.4421
  162SAPE    C118063   2.098   0.492   2.585  0.4935  0.3849  0.3309
  162SAPE    HA18064   2.102   0.400   2.523 -1.4765  0.2719  0.3108
  162SAPE    HB18065   2.199   0.501   2.632  0.0961 -0.9821  1.5260
  162SAPE    C218066   1.986   0.481   2.697 -0.4203 -0.0286 -0.0847
  162SAPE    HS18067   1.892   0.469   2.640 -0.4037 -1.3176  0.1409
  162SAPE   O2118068   1.998   0.606   2.768 -0.2871  0.4987 -0.3060
  162SAPE   C2118069   1.883   0.647   2.805  0.3215  0.9175  0.7461
  162SAPE   O2218070   1.774   0.596   2.780 -0.2344 -0.2972  0.0565
  162SAPE   C2218071   1.899   0.778   2.887 -1.0299  0.1535  0.7323
  162SAPE   H2R18072   1.957   0.739   2.973 -1.2795  0.4866  1.0535
  162SAPE   H2S18073   1.963   0.842   2.822 -0.1979  0.2888  1.6611
  162SAPE    C318074   2.009   0.360   2.784  0.1150 -0.3801 -0.2104
  162SAPE    HX18075   2.107   0.372   2.836 -0.2827  1.6549  0.1532
  162SAPE    HY18076   2.013   0.271   2.718  0.2936  1.0512 -2.2267
  162SAPE   O3118077   1.901   0.338   2.879 -0.4359  0.3220  0.3969
  162SAPE   C3118078   1.787   0.293   2.827  0.9906 -0.8512 -0.6914
  162SAPE   O3218079   1.766   0.273   2.706 -0.0628  0.5636 -0.1827
  162SAPE   C3218080   1.679   0.277   2.941 -0.0644  0.1629 -0.8082
  162SAPE   H2X18081   1.622   0.185   2.916  2.8267 -1.6967 -1.1478
  162SAPE   H2Y18082   1.605   0.358   2.928  1.6333  2.1410  1.1444
  162SAPE   C2318083   1.775   0.854   2.929 -0.4281  0.3302 -0.3731
  162SAPE   H3R18084   1.711   0.864   2.839 -0.5561 -0.6445 -0.3972
  162SAPE   H3S18085   1.810   0.954   2.964  2.9190 -1.1927  0.9915
  162SAPE   C2418086   1.686   0.780   3.037 -0.5576  0.3948 -0.5205
  162SAPE   H4R18087   1.680   0.681   2.987  1.2940  0.2369 -0.5166
  162SAPE   H4S18088   1.591   0.833   3.059 -0.0226  0.5633  1.6081
  162SAPE   C2518089   1.771   0.766   3.165  0.0600  0.5546  0.9910
  162SAPE   H5R18090   1.795   0.659   3.168 -1.3878  0.2064  1.1762
  162SAPE   C2618091   1.784   0.857   3.265  0.5963  0.0090  0.3704
  162SAPE   H6R18092   1.842   0.829   3.354 -0.1055 -0.5324  0.6698
  162SAPE   C2718093   1.745   0.999   3.256  0.0877 -0.1959  0.0862
  162SAPE   H7R18094   1.731   1.039   3.153  3.5562  0.6627 -0.1818
  162SAPE   H7S18095   1.835   1.052   3.293 -0.9045  0.9835  0.9004
  162SAPE   C2818096   1.642   1.046   3.358  0.3504  0.3055  0.2249
  162SAPE   H8R18097   1.540   1.064   3.322 -0.0483 -4.2261 -1.6542
  162SAPE   C2918098   1.670   1.073   3.490 -0.3204  0.1326  0.6535
  162SAPE   H9R18099   1.587   1.111   3.552 -0.1017 -0.2792  1.2040
  162SAPE  C21018100   1.798   1.049   3.579  0.2117 -0.3028  0.5255
  162SAPE  H10R18101   1.843   1.149   3.600  1.7931 -0.3953 -1.9776
  162SAPE  H10S18102   1.862   0.987   3.513 -0.7868 -0.8742  0.0553
  162SAPE  C21118103   1.765   0.988   3.708  0.2556  0.4095  0.7030
  162SAPE  H11R18104   1.763   0.879   3.695  0.9063  0.6359 -1.8849
  162SAPE  C21218105   1.760   1.035   3.832  0.0088  0.4355  0.0288
  162SAPE  H12R18106   1.746   0.961   3.912 -0.7370  2.1360  1.5176
  162SAPE  C21318107   1.777   1.173   3.889 -0.4991 -0.5351 -0.3552
  162SAPE  H13R18108   1.883   1.198   3.910 -0.6184 -0.9530  0.8100
  162SAPE  H13S18109   1.728   1.159   3.987  1.2730 -0.3020  0.5972
  162SAPE  C21418110   1.698   1.275   3.810 -0.6521  0.0330  0.2228
  162SAPE  H14R18111   1.619   1.248   3.738  0.3416 -2.1788 -0.1263
  162SAPE  C21518112   1.713   1.404   3.843 -0.1116  0.1638  0.0174
  162SAPE  H15R18113   1.644   1.477   3.798 -0.2444  0.4616  0.6870
  162SAPE  C21618114   1.808   1.464   3.944 -0.2016  0.2361 -0.5134
  162SAPE  H16R18115   1.837   1.565   3.908 -0.0486  0.4261  0.1375
  162SAPE  H16S18116   1.903   1.409   3.963  0.9143  2.3010  0.1608
  162SAPE  C21718117   1.723   1.464   4.073 -0.4133 -0.5198  0.3624
  162SAPE  H17R18118   1.694   1.359   4.094  0.0017 -0.7132 -0.0259
  162SAPE  H17S18119   1.626   1.518   4.066 -0.2821 -0.5312 -2.7791
  162SAPE  C21818120   1.804   1.510   4.196  0.0561  0.8305  0.3946
  162SAPE  H18R18121   1.856   1.606   4.174 -1.6631  1.4820 -1.1545
  162SAPE  H18S18122   1.884   1.438   4.220 -0.1410  0.9676  1.5421
  162SAPE  C21918123   1.718   1.525   4.321 -0.6838 -0.3068  0.0120
  162SAPE  H19R18124   1.684   1.423   4.349 -0.6857  0.5136  3.3791
  162SAPE  H19S18125   1.628   1.589   4.308 -1.0906 -0.9711 -0.5239
  162SAPE  C22018126   1.798   1.589   4.441  0.5616  0.4536 -0.2291
  162SAPE  H20R18127   1.820   1.696   4.418 -1.2213  1.1842  1.2583
  162SAPE  H20S18128   1.889   1.526   4.446  0.3511  0.1813  0.1329
  162SAPE  H20T18129   1.740   1.585   4.535 -0.9248 -0.1131 -1.1467
  162SAPE   C3318130   1.733   0.294   3.087  0.0155 -0.3705  0.1893
  162SAPE   H3X18131   1.774   0.393   3.117  1.7560 -1.5036  1.8278
  162SAPE   H3Y18132   1.811   0.214   3.094 -1.3580 -2.0127 -1.8916
  162SAPE   C3418133   1.634   0.245   3.201 -0.0763  0.3861  0.3883
  162SAPE   H4X18134   1.617   0.136   3.190 -0.3099  0.5080 -0.6167
  162SAPE   H4Y18135   1.542   0.305   3.187  1.7676  2.8493 -2.8004
  162SAPE   C3518136   1.703   0.269   3.331  0.6046  0.4856 -0.3895
  162SAPE   H5X18137   1.725   0.378   3.325 -0.6286  0.7156 -1.1075
  162SAPE   H5Y18138   1.800   0.218   3.345  1.6380  2.8836  2.2039
  162SAPE   C3618139   1.598   0.237   3.446  0.1704  0.2400  0.4800
  162SAPE   H6X18140   1.549   0.137   3.435  0.6517  0.1344 -0.8894
  162SAPE   H6Y18141   1.515   0.307   3.423  1.3057  0.7086 -2.6648
  162SAPE   C3718142   1.650   0.262   3.592  0.6519 -0.0922 -0.5416
  162SAPE   H7X18143   1.679   0.369   3.588  1.1528 -0.1457  1.1229
  162SAPE   H7Y18144   1.735   0.195   3.617  1.0466 -1.2202 -4.2478
  162SAPE   C3818145   1.533   0.236   3.693 -0.2718 -0.0882  0.3898
  162SAPE   H8X18146   1.489   0.135   3.678 -1.0213  0.1274  1.0588
  162SAPE   H8Y18147   1.447   0.300   3.662 -1.3884 -2.6699 -2.2543
  162SAPE   C3918148   1.588   0.253   3.838 -0.4927 -1.0027  0.7051
  162SAPE   H9X18149   1.625   0.357   3.850  0.6735 -1.4940  1.4829
  162SAPE   H9Y18150   1.672   0.186   3.865 -0.2192 -0.9624 -0.0330
  162SAPE  C31018151   1.477   0.216   3.935  0.8674 -0.2261 -1.3363
  162SAPE  H10X18152   1.433   0.118   3.908  0.9897 -0.7953  0.4343
  162SAPE  H10Y18153   1.398   0.289   3.908 -1.2994 -1.7222  0.6025
  162SAPE  C31118154   1.504   0.232   4.084 -0.1828 -0.4910  0.2512
  162SAPE  H11X18155   1.557   0.325   4.113 -1.0295 -0.3934  1.5674
  162SAPE  H11Y18156   1.578   0.153   4.105  0.5802 -0.4304 -1.9064
  162SAPE  C31218157   1.388   0.202   4.175  0.0419 -0.0069  0.1748
  162SAPE  H12X18158   1.420   0.210   4.281  2.2675  0.7386 -0.5075
  162SAPE  H12Y18159   1.373   0.092   4.160  0.5448 -0.3415  1.8959
  162SAPE  C31318160   1.261   0.275   4.148  0.1998  0.2368 -1.0948
  162SAPE  H13X18161   1.185   0.216   4.093  0.5526 -1.3833  0.0835
  162SAPE  H13Y18162   1.281   0.356   4.075 -3.8470  1.4183 -1.1817
  162SAPE  C31418163   1.209   0.319   4.286 -0.3865 -0.3042 -0.1014
  162SAPE  H14X18164   1.289   0.385   4.325  0.4107 -0.4123 -1.4852
  162SAPE  H14Y18165   1.197   0.227   4.347 -4.4234  1.1099  1.5357
  162SAPE  C31518166   1.083   0.407   4.275  0.1487  0.5543  0.5876
  162SAPE  H15X18167   1.003   0.344   4.233 -1.0766  1.7300  1.0748
  162SAPE  H15Y18168   1.104   0.499   4.215  1.5603 -0.7072 -0.9459
  162SAPE  C31618169   1.061   0.444   4.418 -0.6453  0.6335 -0.6233
  162SAPE  H16X18170   1.153   0.493   4.456 -1.4040  0.4669  1.5965
  162SAPE  H16Y18171   1.047   0.358   4.487  1.4602  2.2900  2.0704
  162SAPE  C31718172   0.942   0.544   4.431 -0.2336 -0.3338  0.4424
  162SAPE  H17X18173   0.971   0.644   4.391 -2.5214  0.8042  1.4465
  162SAPE  H17Y18174   0.927   0.563   4.540  0.4088 -0.6449  0.5902
  162SAPE  C31818175   0.816   0.500   4.371  0.2131  0.0367 -0.1305
  162SAPE  H18X18176   0.796   0.396   4.407 -1.7335  0.9853  1.7244
  162SAPE  H18Y18177   0.840   0.489   4.263  0.1408 -1.6605 -0.0053
  162SAPE  H18Z18178   0.731   0.570   4.387  2.0352  2.2599  0.2842
  163SAPE     N18179   1.456   6.022   1.878  0.1358  0.3876  0.0324
  163SAPE   HN118180   1.502   5.930   1.895 -0.9035 -0.0122  0.7321
  163SAPE   HN218181   1.359   6.002   1.909  0.6735  0.0708  1.6024
  163SAPE   HN318182   1.466   6.049   1.778 -0.0396  0.2747 -0.0148
  163SAPE   C1218183   1.518   6.113   1.979 -0.5009 -0.5599  0.3174
  163SAPE  H12A18184   1.450   6.199   1.995 -1.1774 -0.5576 -2.1090
  163SAPE  H12B18185   1.615   6.147   1.940  0.2724 -1.3440  1.4843
  163SAPE   C1118186   1.538   6.033   2.115 -0.3806 -0.0687 -0.5784
  163SAPE  H11A18187   1.603   6.092   2.184 -2.5062  0.5983  0.9641
  163SAPE  H11B18188   1.592   5.941   2.084 -0.3907  0.4042 -2.0598
  163SAPE     P18189   1.372   5.990   2.321 -0.3701 -0.1411  0.0239
  163SAPE   O1318190   1.318   6.115   2.365  0.2733  0.4516  0.1191
  163SAPE   O1418191   1.289   5.869   2.340  0.1209 -0.4823  0.1579
  163SAPE   O1218192   1.408   6.002   2.164 -0.4716  0.1535 -0.0817
  163SAPE   O1118193   1.510   5.966   2.395  0.7980 -0.4125  0.0014
  163SAPE    C118194   1.546   5.855   2.474  0.1743 -0.0101  0.0386
  163SAPE    HA18195   1.508   5.760   2.432 -0.7924  0.5725 -0.4444
  163SAPE    HB18196   1.656   5.848   2.490  0.3586  0.8679 -0.7477
  163SAPE    C218197   1.487   5.869   2.616 -0.2520  0.5366  0.3041
  163SAPE    HS18198   1.379   5.883   2.593 -0.3647  0.4658  0.7739
  163SAPE   O2118199   1.553   5.979   2.679  0.3703 -0.0573 -0.1608
  163SAPE   C2118200   1.475   6.064   2.738  0.3482  0.2725  0.4961
  163SAPE   O2218201   1.353   6.041   2.756 -0.4693  0.1718 -0.4236
  163SAPE   C2218202   1.553   6.186   2.807  0.0672  0.2416  0.1017
  163SAPE   H2R18203   1.609   6.223   2.719 -0.1227 -0.7030 -0.4285
  163SAPE   H2S18204   1.482   6.269   2.828 -0.6306 -0.2878 -0.1413
  163SAPE    C318205   1.497   5.741   2.708  0.2597  0.1450 -0.3365
  163SAPE    HX18206   1.605   5.713   2.710 -0.0832 -1.3953 -1.4309
  163SAPE    HY18207   1.430   5.661   2.671  1.9343 -1.3161 -0.3544
  163SAPE   O3118208   1.443   5.778   2.844 -0.5958  0.3175 -0.2862
  163SAPE   C3118209   1.464   5.689   2.938 -0.2155 -0.2206  0.1109
  163SAPE   O3218210   1.514   5.577   2.924  0.0480 -0.0534  0.5899
  163SAPE   C3218211   1.423   5.741   3.081 -0.2924  0.0122  0.1306
  163SAPE   H2X18212   1.317   5.773   3.083  0.7933  4.2162 -0.5242
  163SAPE   H2Y18213   1.486   5.823   3.120 -1.5188  0.1566  1.8809
  163SAPE   C2318214   1.626   6.161   2.932  1.0803 -0.0885  0.3085
  163SAPE   H3R18215   1.700   6.081   2.910 -0.4853 -1.5022 -0.0249
  163SAPE   H3S18216   1.563   6.123   3.015  1.6335 -1.3392  0.1755
  163SAPE   C2418217   1.697   6.292   2.984 -0.7152 -0.0362 -0.0719
  163SAPE   H4R18218   1.610   6.349   3.023  0.3258  0.7853  1.0899
  163SAPE   H4S18219   1.741   6.357   2.906  0.2209 -1.1398 -0.4981
  163SAPE   C2518220   1.800   6.275   3.098 -0.0930  0.0536  0.9279
  163SAPE   H5R18221   1.906   6.274   3.068 -0.8515 -1.5650 -2.1069
  163SAPE   C2618222   1.768   6.272   3.230 -0.0890  0.1599 -0.0159
  163SAPE   H6R18223   1.844   6.256   3.309  0.7528  0.2952 -0.7763
  163SAPE   C2718224   1.639   6.281   3.287  0.4976 -0.2903 -0.3611
  163SAPE   H7R18225   1.565   6.316   3.211  3.1207  0.9824 -2.4956
  163SAPE   H7S18226   1.631   6.366   3.359 -1.9323  0.3763 -1.2997
  163SAPE   C2818227   1.586   6.151   3.352 -0.1238  0.1712 -0.0641
  163SAPE   H8R18228   1.556   6.079   3.275 -0.1847  0.8209 -0.6616
  163SAPE   C2918229   1.576   6.122   3.486  0.4521  0.3380 -0.2210
  163SAPE   H9R18230   1.522   6.029   3.512  1.0874 -0.7841 -2.5996
  163SAPE  C21018231   1.607   6.211   3.604  0.3151  0.1743  0.0938
  163SAPE  H10R18232   1.560   6.159   3.690  1.1324  0.5767  0.7919
  163SAPE  H10S18233   1.561   6.310   3.583  0.3829  0.0371 -0.7595
  163SAPE  C21118234   1.758   6.214   3.626 -0.3627 -0.2254  0.3664
  163SAPE  H11R18235   1.804   6.274   3.546 -1.0335  1.8650  1.4600
  163SAPE  C21218236   1.826   6.174   3.736  0.2639  0.1241 -0.6190
  163SAPE  H12R18237   1.936   6.176   3.730  0.2096  1.4966 -1.7188
  163SAPE  C21318238   1.760   6.099   3.852 -0.2600 -0.5730 -0.1210
  163SAPE  H13R18239   1.658   6.137   3.877 -1.1459 -1.3767 -2.3063
  163SAPE  H13S18240   1.825   6.099   3.942  0.4334 -1.5670 -0.6030
  163SAPE  C21418241   1.739   5.952   3.809  0.0409  0.2356  0.1653
  163SAPE  H14R18242   1.676   5.950   3.719  0.3919  0.7339 -0.0967
  163SAPE  C21518243   1.785   5.842   3.862  0.1541  0.7788 -0.0657
  163SAPE  H15R18244   1.745   5.747   3.821 -2.0391  1.6615 -0.1391
  163SAPE  C21618245   1.874   5.819   3.980 -0.1933 -0.4651 -0.2643
  163SAPE  H16R18246   1.819   5.754   4.051 -1.4539  0.8546 -0.0030
  163SAPE  H16S18247   1.900   5.913   4.032 -0.5375 -0.8806  0.6697
  163SAPE  C21718248   2.009   5.751   3.939 -0.1220  0.1230  0.6133
  163SAPE  H17R18249   2.072   5.798   3.860  1.1795 -1.0651  0.9147
  163SAPE  H17S18250   1.980   5.651   3.900 -0.0638  0.0370  0.7948
  163SAPE  C21818251   2.113   5.745   4.053  0.2897  0.2039  0.6622
  163SAPE  H18R18252   2.114   5.845   4.101  1.5539 -0.9869  3.3394
  163SAPE  H18S18253   2.214   5.717   4.018 -0.5023 -0.8105 -0.9311
  163SAPE  C21918254   2.065   5.658   4.175  0.3945 -0.1657  0.0489
  163SAPE  H19R18255   1.975   5.702   4.221  1.1245 -0.7219  2.1212
  163SAPE  H19S18256   2.148   5.660   4.250  2.3071 -2.2313 -1.8524
  163SAPE  C22018257   2.031   5.515   4.130 -0.2986 -0.4414 -0.4078
  163SAPE  H20R18258   2.121   5.464   4.089 -0.0635 -0.0881 -0.3423
  163SAPE  H20S18259   1.961   5.516   4.044 -1.0518 -0.5972  0.1910
  163SAPE  H20T18260   1.998   5.449   4.213 -0.2485  1.4416  1.1951
  163SAPE   C3318261   1.418   5.611   3.174  0.1663 -0.2763  0.5143
  163SAPE   H3X18262   1.520   5.567   3.175  0.1286 -0.3865 -0.3078
  163SAPE   H3Y18263   1.337   5.551   3.127  1.2674 -0.3366 -1.4079
  163SAPE   C3418264   1.381   5.655   3.319 -0.5630 -0.0128 -0.1133
  163SAPE   H4X18265   1.467   5.704   3.369 -0.5355 -0.1475 -0.0265
  163SAPE   H4Y18266   1.360   5.562   3.377 -0.5498 -0.5488 -0.9455
  163SAPE   C3518267   1.259   5.739   3.339  1.2842 -0.4708 -0.8011
  163SAPE   H5X18268   1.183   5.689   3.276 -1.1709 -0.5318  1.9847
  163SAPE   H5Y18269   1.274   5.845   3.311 -0.1694  0.3448  1.2623
  163SAPE   C3618270   1.200   5.752   3.482 -0.7292 -0.5789 -0.9453
  163SAPE   H6X18271   1.157   5.653   3.512 -1.0336  0.1710  1.3350
  163SAPE   H6Y18272   1.123   5.831   3.488 -1.1222 -0.9992 -0.2006
  163SAPE   C3718273   1.303   5.806   3.582 -0.8725  0.4982 -0.1475
  163SAPE   H7X18274   1.357   5.895   3.545  0.9100 -0.8137 -0.8621
  163SAPE   H7Y18275   1.368   5.716   3.592 -0.0216  1.0731 -0.4194
  163SAPE   C3818276   1.264   5.819   3.730  0.1565  0.6899  0.3098
  163SAPE   H8X18277   1.234   5.721   3.772 -0.6828  1.6645  2.1230
  163SAPE   H8Y18278   1.168   5.875   3.742 -0.0878 -0.0589  2.1618
  163SAPE   C3918279   1.376   5.879   3.818 -0.3805  0.4549  0.6550
  163SAPE   H9X18280   1.416   5.972   3.771  1.8803  0.3610  2.2235
  163SAPE   H9Y18281   1.455   5.800   3.819  0.1322  0.9563  1.6640
  163SAPE  C31018282   1.334   5.891   3.958  0.3171 -0.4314 -0.4373
  163SAPE  H10X18283   1.309   5.787   3.990  0.1999 -0.4039 -0.4413
  163SAPE  H10Y18284   1.243   5.953   3.973  0.3633 -0.1494 -1.3090
  163SAPE  C31118285   1.446   5.940   4.046  0.1180  0.1280  0.4565
  163SAPE  H11X18286   1.482   6.033   3.998 -0.9816  1.2076  1.6557
  163SAPE  H11Y18287   1.519   5.856   4.040  0.5513  0.5545 -0.4205
  163SAPE  C31218288   1.409   5.962   4.190  0.0126 -1.0416  0.1845
  163SAPE  H12X18289   1.392   5.866   4.243 -1.7638 -1.4211 -0.9754
  163SAPE  H12Y18290   1.322   6.030   4.207  2.0973  1.9371 -0.2808
  163SAPE  C31318291   1.532   6.027   4.271 -0.2906 -0.2835 -0.4848
  163SAPE  H13X18292   1.505   6.070   4.370  0.8230  0.4186 -0.4681
  163SAPE  H13Y18293   1.563   6.112   4.207 -0.8650  1.0798  0.9857
  163SAPE  C31418294   1.641   5.931   4.302 -0.3937 -0.0504  0.0129
  163SAPE  H14X18295   1.699   5.907   4.210 -2.1505  0.5037 -1.2787
  163SAPE  H14Y18296   1.604   5.833   4.339  1.6820 -1.2905 -0.9732
  163SAPE  C31518297   1.753   5.980   4.404  0.2546 -0.0776 -0.8997
  163SAPE  H15X18298   1.702   5.997   4.502  0.3838 -1.6035 -0.5393
  163SAPE  H15Y18299   1.798   6.075   4.368 -1.6503  0.9909 -0.6333
  163SAPE  C31618300   1.858   5.871   4.453  0.0314 -0.0622  0.3418
  163SAPE  H16X18301   1.892   5.823   4.359 -0.4759  2.5369 -1.2897
  163SAPE  H16Y18302   1.810   5.786   4.505 -1.5922  0.4579 -0.2310
  163SAPE  C31718303   1.979   5.938   4.521 -0.5605 -0.7930  0.8910
  163SAPE  H17X18304   1.923   5.997   4.597  0.6048 -0.8560  1.8381
  163SAPE  H17Y18305   2.018   6.013   4.450 -0.2100 -1.9106 -0.1259
  163SAPE  C31818306   2.083   5.848   4.578  0.6052  1.0117 -0.0509
  163SAPE  H18X18307   2.047   5.777   4.656  1.3213  1.1864  0.4557
  163SAPE  H18Y18308   2.148   5.918   4.634 -1.8474  1.8606  1.8996
  163SAPE  H18Z18309   2.130   5.794   4.493 -0.2697  0.2139 -0.0478
  164SAPE     N18310   2.955   5.603   2.103 -0.2064  0.9888  0.2979
  164SAPE   HN118311   2.946   5.701   2.071  1.0095  1.3986  1.1174
  164SAPE   HN218312   3.055   5.578   2.089  0.3184  0.5591  3.7952
  164SAPE   HN318313   2.895   5.549   2.038 -0.8754  1.5832  0.4176
  164SAPE   C1218314   2.915   5.596   2.240  0.2207  0.0173  0.2467
  164SAPE  H12A18315   2.826   5.662   2.240  1.5267  1.8812  1.3680
  164SAPE  H12B18316   2.996   5.641   2.301  1.5205 -0.9746 -0.6911
  164SAPE   C1118317   2.884   5.455   2.294 -0.2206  0.4502  0.0777
  164SAPE  H11A18318   2.792   5.418   2.245 -2.1237  2.2705  2.0037
  164SAPE  H11B18319   2.853   5.452   2.401  1.2689 -1.6355  0.4965
  164SAPE     P18320   3.102   5.349   2.392 -0.0465 -0.0521  0.1426
  164SAPE   O1318321   3.060   5.228   2.469  0.5204 -0.4683  0.1796
  164SAPE   O1418322   3.233   5.342   2.319  0.0091 -0.7413  0.1230
  164SAPE   O1218323   2.997   5.366   2.283  0.1145  0.1103  0.5836
  164SAPE   O1118324   3.080   5.481   2.475  0.1757  0.3359  0.1084
  164SAPE    C118325   3.185   5.567   2.511 -0.2280 -0.4247 -0.1617
  164SAPE    HA18326   3.282   5.514   2.513  0.0998  0.1240 -1.0108
  164SAPE    HB18327   3.198   5.639   2.428 -2.0647  0.0216 -0.1000
  164SAPE    C218328   3.157   5.633   2.648  0.2058  0.1900 -0.4434
  164SAPE    HS18329   3.240   5.701   2.678 -1.1051  0.4616  3.1191
  164SAPE   O2118330   3.129   5.529   2.745  0.3075 -0.0670  0.2582
  164SAPE   C2118331   3.225   5.452   2.781 -0.5375  0.2675 -0.7603
  164SAPE   O2218332   3.341   5.449   2.742 -0.4410  0.1437  0.1674
  164SAPE   C2218333   3.184   5.380   2.908  0.0705 -0.8279  0.0624
  164SAPE   H2R18334   3.102   5.434   2.959  0.7960 -1.1769  1.6656
  164SAPE   H2S18335   3.133   5.286   2.878  2.0443 -1.5935 -1.0735
  164SAPE    C318336   3.040   5.736   2.627  0.1826 -0.5283 -0.3140
  164SAPE    HX18337   2.948   5.675   2.636 -0.8973  1.0516 -0.1544
  164SAPE    HY18338   3.060   5.782   2.527 -0.2164  0.3037 -0.0216
  164SAPE   O3118339   3.044   5.839   2.730 -1.1241  0.5267 -0.0410
  164SAPE   C3118340   2.941   5.925   2.717 -0.0651  0.6450  0.2790
  164SAPE   O3218341   2.869   5.934   2.618  0.5366  0.2368  0.0478
  164SAPE   C3218342   2.929   6.020   2.842 -0.2570  0.8834  0.0453
  164SAPE   H2X18343   2.984   6.115   2.824  1.9165  0.0141  1.6033
  164SAPE   H2Y18344   2.973   5.965   2.929 -0.1389  0.7454 -0.1018
  164SAPE   C2318345   3.302   5.361   3.015 -0.3587  0.2801  0.3998
  164SAPE   H3R18346   3.392   5.318   2.966 -0.9224  0.0616 -0.4700
  164SAPE   H3S18347   3.254   5.279   3.072 -2.2520 -0.9532 -2.6935
  164SAPE   C2418348   3.340   5.489   3.097 -0.3253  0.4274 -0.1526
  164SAPE   H4R18349   3.246   5.524   3.145 -1.7620 -0.5364 -2.1492
  164SAPE   H4S18350   3.375   5.570   3.030  0.5833  0.1783 -0.0024
  164SAPE   C2518351   3.449   5.479   3.204  0.1858 -0.4601 -0.2322
  164SAPE   H5R18352   3.553   5.484   3.168  0.7093 -1.7514  0.9948
  164SAPE   C2618353   3.430   5.441   3.332  0.2526  0.8113 -0.0676
  164SAPE   H6R18354   3.518   5.437   3.398  1.1505  0.8890 -1.2138
  164SAPE   C2718355   3.299   5.407   3.400 -0.1943 -0.0519  0.0215
  164SAPE   H7R18356   3.220   5.423   3.323 -0.0672  1.7181  0.2204
  164SAPE   H7S18357   3.272   5.474   3.484 -0.6574  1.1179 -1.0382
  164SAPE   C2818358   3.303   5.265   3.453  0.0425 -0.3281  0.7266
  164SAPE   H8R18359   3.309   5.191   3.372  1.8868 -1.8900  2.1830
  164SAPE   C2918360   3.277   5.221   3.574  0.2968  0.1455 -0.1769
  164SAPE   H9R18361   3.282   5.111   3.584  1.6986  0.0185 -1.7640
  164SAPE  C21018362   3.266   5.307   3.705  0.0703 -0.0137  0.0039
  164SAPE  H10R18363   3.167   5.276   3.743  0.0587 -2.5469 -1.8145
  164SAPE  H10S18364   3.248   5.414   3.683  1.8024  0.3378  0.1192
  164SAPE  C21118365   3.378   5.267   3.800 -0.3241 -0.0011  0.2286
  164SAPE  H11R18366   3.481   5.299   3.778 -0.4273  2.9825  3.2042
  164SAPE  C21218367   3.363   5.186   3.907  0.4078 -0.4043 -0.0107
  164SAPE  H12R18368   3.447   5.160   3.974 -0.5834 -2.8422  0.3898
  164SAPE  C21318369   3.233   5.114   3.949 -0.3654  0.2702  0.8928
  164SAPE  H13R18370   3.266   5.011   3.978 -0.1271  0.8684  2.9402
  164SAPE  H13S18371   3.167   5.101   3.861  0.2722 -0.8226  0.5455
  164SAPE  C21418372   3.157   5.174   4.061  0.3517  0.0130 -1.2183
  164SAPE  H14R18373   3.133   5.281   4.052 -1.1289 -0.2554 -0.7245
  164SAPE  C21518374   3.101   5.104   4.166 -0.4222  0.4234 -0.6655
  164SAPE  H15R18375   3.065   5.159   4.255  3.0741  0.7137  0.7102
  164SAPE  C21618376   3.106   4.957   4.201  0.7706  0.8412 -0.2378
  164SAPE  H16R18377   3.168   4.947   4.293  0.0821  2.1936  0.4184
  164SAPE  H16S18378   3.161   4.902   4.122  0.5058 -0.3091  0.3591
  164SAPE  C21718379   2.966   4.897   4.229 -0.4000 -0.4995  0.6517
  164SAPE  H17R18380   2.917   4.969   4.298 -1.4438  1.2037 -1.7472
  164SAPE  H17S18381   2.982   4.796   4.272 -0.5599 -0.7559  0.1202
  164SAPE  C21818382   2.871   4.876   4.104 -0.2229  0.3786  0.0393
  164SAPE  H18R18383   2.928   4.839   4.016  0.9360  0.1212  0.8847
  164SAPE  H18S18384   2.855   4.979   4.065  2.5266  1.2534  1.0247
  164SAPE  C21918385   2.741   4.790   4.126 -0.3410 -0.3673  0.1295
  164SAPE  H19R18386   2.680   4.841   4.203  2.5452  4.8292 -0.5950
  164SAPE  H19S18387   2.766   4.686   4.155  0.3438 -0.6072 -1.2390
  164SAPE  C22018388   2.663   4.789   4.000  0.2887 -0.8720  0.6300
  164SAPE  H20R18389   2.717   4.744   3.914  2.0652 -0.4110  1.4495
  164SAPE  H20S18390   2.645   4.896   3.975  2.5757 -0.8516 -1.3160
  164SAPE  H20T18391   2.570   4.732   4.019  0.2097 -1.4166 -1.2192
  164SAPE   C3318392   2.789   6.026   2.879 -0.7428 -1.0229 -0.6020
  164SAPE   H3X18393   2.749   5.928   2.910  3.6802 -3.6619 -2.2559
  164SAPE   H3Y18394   2.735   6.055   2.786  1.9531 -1.3455 -2.3983
  164SAPE   C3418395   2.764   6.129   2.984  0.4824 -1.1394 -0.3599
  164SAPE   H4X18396   2.659   6.165   2.991  0.9087 -0.1633  3.2743
  164SAPE   H4Y18397   2.814   6.223   2.951 -2.4656  0.9984  0.8154
  164SAPE   C3518398   2.811   6.080   3.112  0.1905  0.4538 -0.3729
  164SAPE   H5X18399   2.920   6.060   3.121 -0.1448 -0.5098  2.5464
  164SAPE   H5Y18400   2.766   5.983   3.142  0.1640  0.8236  0.8521
  164SAPE   C3618401   2.783   6.176   3.224  0.2519 -1.0142 -0.4600
  164SAPE   H6X18402   2.677   6.208   3.238  0.3310 -1.4248  1.3667
  164SAPE   H6Y18403   2.837   6.267   3.190 -0.5593 -0.6304 -0.7496
  164SAPE   C3718404   2.834   6.126   3.359 -1.0008 -0.0778  0.0655
  164SAPE   H7X18405   2.945   6.124   3.359 -0.8784  2.8069  0.4715
  164SAPE   H7Y18406   2.820   6.017   3.377 -1.1961 -0.1207 -0.3315
  164SAPE   C3818407   2.769   6.205   3.475  0.0483  0.6287 -0.6586
  164SAPE   H8X18408   2.658   6.201   3.483  0.1619 -0.0844  0.9903
  164SAPE   H8Y18409   2.813   6.307   3.474  1.8873 -0.0118  2.1136
  164SAPE   C3918410   2.813   6.143   3.608  1.0758 -0.1870  0.3919
  164SAPE   H9X18411   2.922   6.129   3.623  0.8859 -1.0852  1.0093
  164SAPE   H9Y18412   2.762   6.045   3.623  0.2009  0.4352  1.6070
  164SAPE  C31018413   2.780   6.240   3.719 -0.2292  0.0308  0.2317
  164SAPE  H10X18414   2.671   6.260   3.711  0.1052  1.8134 -0.4510
  164SAPE  H10Y18415   2.825   6.337   3.689  0.1436 -0.5258 -1.0535
  164SAPE  C31118416   2.815   6.201   3.862 -0.5634 -0.0955  0.3653
  164SAPE  H11X18417   2.910   6.143   3.866  0.0074  0.8490  0.8148
  164SAPE  H11Y18418   2.731   6.137   3.897 -1.4202  0.8070 -0.0197
  164SAPE  C31218419   2.827   6.320   3.951  0.4789  0.0705  0.0936
  164SAPE  H12X18420   2.732   6.376   3.959  1.2465  1.7708 -1.9593
  164SAPE  H12Y18421   2.894   6.405   3.930  0.5169  0.2981  1.0727
  164SAPE  C31318422   2.871   6.270   4.093  0.0193 -0.1152  0.0583
  164SAPE  H13X18423   2.969   6.221   4.074 -0.3141 -0.0339 -2.1912
  164SAPE  H13Y18424   2.805   6.193   4.139 -0.0580  1.4982  2.8751
  164SAPE  C31418425   2.885   6.379   4.193 -0.2619 -0.5441 -0.4238
  164SAPE  H14X18426   2.960   6.452   4.157 -1.3924 -0.2014 -2.1655
  164SAPE  H14Y18427   2.927   6.331   4.285  0.2972 -0.1864 -0.4893
  164SAPE  C31518428   2.770   6.465   4.245  0.0799 -0.1447 -0.4191
  164SAPE  H15X18429   2.731   6.533   4.166 -1.0306  0.0246  0.2412
  164SAPE  H15Y18430   2.812   6.525   4.328  0.6749  0.9692 -1.4994
  164SAPE  C31618431   2.649   6.384   4.297  1.0129  1.0268  0.2513
  164SAPE  H16X18432   2.611   6.334   4.205  1.0535  1.6216 -0.0973
  164SAPE  H16Y18433   2.569   6.455   4.327  1.4315  2.2770 -1.3868
  164SAPE  C31718434   2.675   6.272   4.395  0.1648 -0.1687 -0.6899
  164SAPE  H17X18435   2.738   6.196   4.344  2.0485 -0.7768  2.3221
  164SAPE  H17Y18436   2.573   6.230   4.410 -0.0942  1.0277  1.2643
  164SAPE  C31818437   2.744   6.318   4.521  0.0522  1.0818 -0.2874
  164SAPE  H18X18438   2.843   6.368   4.515  0.3045  0.6729  0.3364
  164SAPE  H18Y18439   2.764   6.229   4.584 -0.2578  0.3316 -1.2192
  164SAPE  H18Z18440   2.670   6.392   4.558 -0.5989  0.7015 -0.8095
  165SAPE     N18441   3.160   0.405   2.393 -1.0081 -0.4842  0.6661
  165SAPE   HN118442   3.191   0.314   2.432 -1.3063 -1.0776 -0.4550
  165SAPE   HN218443   3.178   0.485   2.458  0.0191 -0.3620  0.2440
  165SAPE   HN318444   3.061   0.404   2.361 -0.6798 -0.7478 -0.3924
  165SAPE   C1218445   3.237   0.444   2.265 -0.6162 -0.5109  0.0441
  165SAPE  H12A18446   3.176   0.525   2.219  1.3866  0.4560 -1.0541
  165SAPE  H12B18447   3.239   0.358   2.194 -1.0610 -0.9488  0.5583
  165SAPE   C1118448   3.382   0.489   2.296  0.7277 -0.5432 -0.0214
  165SAPE  H11A18449   3.431   0.517   2.201  0.3388 -0.2520 -0.1352
  165SAPE  H11B18450   3.438   0.401   2.335  1.6141 -0.3430 -0.7965
  165SAPE     P18451   3.435   0.590   2.525  0.5589  0.0003  0.0126
  165SAPE   O1318452   3.544   0.486   2.547  0.8873 -0.0293  0.3754
  165SAPE   O1418453   3.478   0.728   2.564  0.1912  0.7225 -0.2436
  165SAPE   O1218454   3.390   0.599   2.379  0.1176 -0.2764 -0.0485
  165SAPE   O1118455   3.297   0.558   2.595  0.1105 -0.5133  0.0120
  165SAPE    C118456   3.283   0.477   2.713  0.4313 -0.3108  0.7000
  165SAPE    HA18457   3.200   0.405   2.698 -0.9416  1.3953 -0.4636
  165SAPE    HB18458   3.376   0.422   2.737  0.8978 -0.6643 -1.6025
  165SAPE    C218459   3.252   0.574   2.835  0.0819 -0.2299 -0.3247
  165SAPE    HS18460   3.330   0.651   2.816  0.8658  0.1986  3.8110
  165SAPE   O2118461   3.275   0.494   2.950 -0.1199  0.0808 -0.0637
  165SAPE   C2118462   3.351   0.545   3.042  0.3814 -0.4764 -0.0807
  165SAPE   O2218463   3.403   0.659   3.045  0.2155 -0.0618  0.6708
  165SAPE   C2218464   3.392   0.445   3.149  0.2773  0.2550 -0.2043
  165SAPE   H2R18465   3.324   0.358   3.143 -2.2558  2.1863 -1.2302
  165SAPE   H2S18466   3.494   0.411   3.119 -0.6165 -0.0593 -3.1791
  165SAPE    C318467   3.111   0.635   2.835 -0.5158  0.7294 -0.1131
  165SAPE    HX18468   3.034   0.555   2.837 -0.2868  0.4856 -0.9472
  165SAPE    HY18469   3.101   0.684   2.736  0.1031  0.5848 -0.2508
  165SAPE   O3118470   3.095   0.719   2.953  0.7925  0.3071  0.3641
  165SAPE   C3118471   3.127   0.844   2.925 -0.3066 -0.4850 -0.1354
  165SAPE   O3218472   3.160   0.886   2.814 -0.2551 -0.3350 -0.0456
  165SAPE   C3218473   3.117   0.937   3.047  0.3371 -0.8310  0.4527
  165SAPE   H2X18474   3.208   0.931   3.111  0.3646 -3.4467  0.3063
  165SAPE   H2Y18475   3.035   0.895   3.109 -2.0645  0.5197 -1.6488
  165SAPE   C2318476   3.405   0.495   3.296 -0.1657 -0.1586 -0.0663
  165SAPE   H3R18477   3.429   0.603   3.295  0.6966 -0.3201  1.0084
  165SAPE   H3S18478   3.490   0.439   3.341 -0.5064 -1.4159 -0.9216
  165SAPE   C2418479   3.285   0.472   3.388  0.1759 -0.4269  0.1500
  165SAPE   H4R18480   3.289   0.495   3.497 -2.2509 -0.4027  0.2983
  165SAPE   H4S18481   3.271   0.362   3.388  1.0519 -0.5450 -0.6428
  165SAPE   C2518482   3.168   0.536   3.318  0.9815 -0.0111 -0.4209
  165SAPE   H5R18483   3.132   0.490   3.224 -0.5482  1.5268 -0.6336
  165SAPE   C2618484   3.103   0.653   3.345  0.6227  0.3407  0.6724
  165SAPE   H6R18485   3.017   0.672   3.279  0.7515 -0.5473  0.2333
  165SAPE   C2718486   3.129   0.741   3.456 -0.8129 -0.6430 -0.1943
  165SAPE   H7R18487   3.172   0.834   3.415 -0.3688 -0.2673  1.0755
  165SAPE   H7S18488   3.205   0.696   3.524 -0.4479  0.8544  0.4218
  165SAPE   C2818489   3.005   0.773   3.533  0.2687 -0.5932 -0.3537
  165SAPE   H8R18490   2.925   0.829   3.483 -0.1079 -0.3606  0.5011
  165SAPE   C2918491   2.987   0.747   3.664  0.1118 -0.3459 -0.1277
  165SAPE   H9R18492   2.896   0.784   3.714 -0.1481 -0.9526 -0.1395
  165SAPE  C21018493   3.084   0.669   3.756  0.3195  0.5694  0.6201
  165SAPE  H10R18494   3.188   0.689   3.724  0.6162 -3.1384 -1.3552
  165SAPE  H10S18495   3.058   0.564   3.731  0.3241  0.3182  1.6261
  165SAPE  C21118496   3.063   0.690   3.906 -0.5020  0.2559  0.2090
  165SAPE  H11R18497   2.967   0.661   3.950 -0.2747 -1.9515 -0.6533
  165SAPE  C21218498   3.153   0.741   3.994 -0.2467 -0.2740 -0.2024
  165SAPE  H12R18499   3.130   0.736   4.101  0.8945 -0.6712  0.0370
  165SAPE  C21318500   3.287   0.795   3.944 -0.3942  0.8592 -0.3416
  165SAPE  H13R18501   3.291   0.836   3.841  2.7764 -1.4809 -1.3473
  165SAPE  H13S18502   3.355   0.708   3.931 -0.4177  0.9064 -0.8033
  165SAPE  C21418503   3.347   0.890   4.046 -0.4477 -0.3705  0.2669
  165SAPE  H14R18504   3.372   0.993   4.017 -1.1120  0.4469  2.3566
  165SAPE  C21518505   3.408   0.856   4.162 -0.6929  0.0827  0.0168
  165SAPE  H15R18506   3.451   0.946   4.209 -1.4773  0.2821  0.3560
  165SAPE  C21618507   3.429   0.720   4.228 -1.1139 -0.4482  0.6257
  165SAPE  H16R18508   3.534   0.714   4.266 -0.8873 -0.7272 -0.0416
  165SAPE  H16S18509   3.405   0.645   4.150 -0.0248 -0.5773  0.4011
  165SAPE  C21718510   3.337   0.706   4.350  0.1733 -0.0546 -0.4112
  165SAPE  H17R18511   3.231   0.710   4.317  0.4965 -0.9236 -1.6132
  165SAPE  H17S18512   3.353   0.791   4.421  2.2355 -1.2602  0.6546
  165SAPE  C21818513   3.361   0.585   4.436 -0.6535 -1.1377 -0.5386
  165SAPE  H18R18514   3.291   0.584   4.522  0.8121 -0.2007  0.7154
  165SAPE  H18S18515   3.456   0.611   4.487 -0.8405 -0.8553 -0.3258
  165SAPE  C21918516   3.382   0.453   4.376 -0.4767 -0.3700 -0.0179
  165SAPE  H19R18517   3.463   0.465   4.300  2.0163  2.6380  2.8023
  165SAPE  H19S18518   3.291   0.416   4.325 -0.0399 -1.7836  0.1855
  165SAPE  C22018519   3.435   0.345   4.471  0.2121  0.2178 -0.3518
  165SAPE  H20R18520   3.366   0.333   4.557  0.3300 -1.9207 -0.4868
  165SAPE  H20S18521   3.536   0.368   4.512 -0.4480 -0.5264  1.7830
  165SAPE  H20T18522   3.441   0.252   4.410  2.1392  0.8847 -1.2702
  165SAPE   C3318523   3.082   1.088   3.006  0.6904  0.3780 -1.0874
  165SAPE   H3X18524   3.006   1.078   2.926 -0.0447  0.3663 -0.4071
  165SAPE   H3Y18525   3.174   1.130   2.960  1.1267  0.0187 -0.5566
  165SAPE   C3418526   3.026   1.168   3.123 -0.2608 -0.5562  0.0389
  165SAPE   H4X18527   2.931   1.121   3.158 -0.3511 -1.2825 -1.1144
  165SAPE   H4Y18528   2.991   1.266   3.085 -0.3925 -1.6792 -3.0362
  165SAPE   C3518529   3.120   1.183   3.244 -0.6102  0.3702 -0.5545
  165SAPE   H5X18530   3.199   1.258   3.220 -1.6789  1.6300 -0.2675
  165SAPE   H5Y18531   3.169   1.088   3.271 -0.0390  0.4469 -1.2907
  165SAPE   C3618532   3.046   1.212   3.375  0.6985  0.4749 -0.0341
  165SAPE   H6X18533   2.947   1.162   3.380  0.4853  0.9386  0.3190
  165SAPE   H6Y18534   3.025   1.321   3.375 -1.9730  0.0328  1.6784
  165SAPE   C3718535   3.130   1.167   3.495 -0.1475 -0.0616 -0.4475
  165SAPE   H7X18536   3.221   1.231   3.504  0.4679 -0.9398 -0.2778
  165SAPE   H7Y18537   3.168   1.065   3.472  0.2117  0.9355 -5.2655
  165SAPE   C3818538   3.063   1.160   3.628  0.1446  0.5474  0.2384
  165SAPE   H8X18539   2.974   1.093   3.627  1.3719 -1.1418  0.3357
  165SAPE   H8Y18540   3.024   1.262   3.648  0.1624  0.5150  0.4448
  165SAPE   C3918541   3.153   1.107   3.747 -0.2652 -0.2717 -0.4169
  165SAPE   H9X18542   3.250   1.161   3.754 -1.1171  1.2916 -0.4184
  165SAPE   H9Y18543   3.176   1.002   3.718 -0.5870 -0.8620  1.3385
  165SAPE  C31018544   3.068   1.112   3.877 -1.1571  0.0081 -0.0189
  165SAPE  H10X18545   3.114   1.034   3.941 -0.9617 -0.3023 -0.5298
  165SAPE  H10Y18546   2.962   1.086   3.855 -1.0133  1.1499 -2.4805
  165SAPE  C31118547   3.082   1.238   3.955 -0.4116 -0.1066 -0.0941
  165SAPE  H11X18548   3.039   1.329   3.908 -0.6880 -0.2039 -0.0310
  165SAPE  H11Y18549   3.191   1.253   3.969 -0.0909 -3.1434  1.4523
  165SAPE  C31218550   3.028   1.226   4.099  0.1688 -0.4591 -0.5941
  165SAPE  H12X18551   3.061   1.314   4.157  0.5269 -1.3568  0.6073
  165SAPE  H12Y18552   3.068   1.137   4.152 -1.2207 -1.3133 -0.9146
  165SAPE  C31318553   2.875   1.216   4.104  0.2816  0.9629 -0.1830
  165SAPE  H13X18554   2.850   1.111   4.079  0.6259  1.3627 -2.3475
  165SAPE  H13Y18555   2.830   1.277   4.023 -0.2506 -1.0866 -1.4890
  165SAPE  C31418556   2.817   1.253   4.245  0.2784  0.2920 -0.4706
  165SAPE  H14X18557   2.710   1.281   4.234  0.5094  2.7840  2.4021
  165SAPE  H14Y18558   2.863   1.342   4.292 -3.5147  0.4244  3.5910
  165SAPE  C31518559   2.821   1.141   4.351  0.3622  0.5908  0.0635
  165SAPE  H15X18560   2.926   1.139   4.388  0.0191 -0.8469  1.0226
  165SAPE  H15Y18561   2.796   1.046   4.300  0.5603  0.6149 -0.0797
  165SAPE  C31618562   2.729   1.160   4.469  0.4865 -0.2048  0.0636
  165SAPE  H16X18563   2.627   1.153   4.426  1.4527 -1.9655 -2.1191
  165SAPE  H16Y18564   2.751   1.265   4.499  0.0542 -0.2006  0.3743
  165SAPE  C31718565   2.742   1.048   4.578 -0.3937  0.2436  0.3851
  165SAPE  H17X18566   2.850   1.037   4.600 -0.2506  0.3266 -0.2497
  165SAPE  H17Y18567   2.712   0.952   4.531  1.8858 -1.0121  1.3858
  165SAPE  C31818568   2.646   1.064   4.692  0.5512  0.1059  0.2126
  165SAPE  H18X18569   2.551   1.012   4.665  0.4935 -1.0194  2.3377
  165SAPE  H18Y18570   2.627   1.172   4.710  0.6542  0.1745 -0.0888
  165SAPE  H18Z18571   2.673   1.007   4.783 -0.2169 -0.2992  0.1938
  166SAPE     N18572   3.521   0.992   2.262 -0.4974 -0.3255  0.2917
  166SAPE   HN118573   3.493   1.084   2.222  2.2889  0.4765 -0.0589
  166SAPE   HN218574   3.602   0.961   2.205 -0.8125  1.2212 -1.0606
  166SAPE   HN318575   3.441   0.927   2.252  0.5649 -1.8770  1.4305
  166SAPE   C1218576   3.563   1.015   2.405  0.6372 -0.5741 -0.1020
  166SAPE  H12A18577   3.592   0.920   2.455  2.6147 -0.6792 -1.3539
  166SAPE  H12B18578   3.473   1.060   2.450  0.6562 -1.0827  0.4553
  166SAPE   C1118579   3.677   1.114   2.414 -0.5903 -0.3271  0.4231
  166SAPE  H11A18580   3.715   1.108   2.519 -2.6096 -2.3881  1.1223
  166SAPE  H11B18581   3.635   1.214   2.390  1.2985  0.4624  0.2357
  166SAPE     P18582   3.904   0.977   2.365  0.2658  0.5252 -0.1414
  166SAPE   O1318583   3.872   0.835   2.343  0.1025  0.4245  0.5718
  166SAPE   O1418584   4.025   1.039   2.302  0.0557  0.1108  0.2014
  166SAPE   O1218585   3.786   1.077   2.331  0.3737  0.1668 -0.4563
  166SAPE   O1118586   3.925   0.993   2.523 -0.0182  0.4152  0.3821
  166SAPE    C118587   4.036   0.926   2.586  0.2586 -0.0308 -0.1659
  166SAPE    HA18588   4.081   0.849   2.519 -0.9763 -0.8511 -0.0901
  166SAPE    HB18589   4.118   0.996   2.612 -1.7231  1.8937  1.3461
  166SAPE    C218590   3.991   0.869   2.721 -0.0138 -0.7663  0.5543
  166SAPE    HS18591   3.899   0.813   2.692 -0.2081 -0.1482 -0.0840
  166SAPE   O2118592   3.956   0.987   2.799 -0.4888 -0.2193  0.8047
  166SAPE   C2118593   3.860   0.958   2.884  0.3718 -0.1204 -0.0155
  166SAPE   O2218594   3.784   0.867   2.880 -0.2950  0.2272 -0.0155
  166SAPE   C2218595   3.872   1.056   3.004  0.1104 -0.0874  0.0099
  166SAPE   H2R18596   3.850   1.157   2.965  0.7194 -0.7842 -2.3347
  166SAPE   H2S18597   3.787   1.024   3.068  0.3489 -3.3843 -1.1181
  166SAPE    C318598   4.103   0.779   2.783  0.6768  0.0343  0.1368
  166SAPE    HX18599   4.183   0.852   2.805 -0.5818  0.8259  2.3863
  166SAPE    HY18600   4.132   0.691   2.722  1.8928 -0.6302  1.6130
  166SAPE   O3118601   4.060   0.735   2.915 -0.6628  0.2952 -0.1482
  166SAPE   C3118602   4.035   0.611   2.948 -0.0459 -0.2101 -0.0119
  166SAPE   O3218603   4.057   0.513   2.877  0.0481  0.0058  0.0311
  166SAPE   C3218604   3.982   0.602   3.091 -0.3350 -0.3335 -0.1944
  166SAPE   H2X18605   3.929   0.696   3.119  0.6462  0.6097 -1.3674
  166SAPE   H2Y18606   4.069   0.609   3.159  0.5221  0.7847 -1.3648
  166SAPE   C2318607   4.012   1.031   3.063  0.7807  0.7982 -0.1677
  166SAPE   H3R18608   4.090   1.019   2.985  0.2774 -1.8807 -0.3513
  166SAPE   H3S18609   4.011   0.931   3.112 -0.6482  0.8756 -0.0054
  166SAPE   C2418610   4.053   1.127   3.175 -1.9115 -0.2934  0.4901
  166SAPE   H4R18611   4.054   1.235   3.151  3.3770 -0.1334  0.1411
  166SAPE   H4S18612   4.163   1.114   3.184 -1.6723  0.8089 -0.5917
  166SAPE   C2518613   3.981   1.105   3.302 -0.4447  0.0949  0.4349
  166SAPE   H5R18614   3.906   1.183   3.321 -0.9643 -0.5960  1.2538
  166SAPE   C2618615   4.009   1.021   3.398 -0.1388  0.1556  0.3634
  166SAPE   H6R18616   3.943   1.018   3.485 -0.2392 -1.6387  0.2429
  166SAPE   C2718617   4.128   0.935   3.397  0.4579  0.1582 -0.6952
  166SAPE   H7R18618   4.218   0.999   3.406  0.7058 -0.1979 -0.6530
  166SAPE   H7S18619   4.162   0.891   3.301  0.7581 -0.4413 -0.3212
  166SAPE   C2818620   4.140   0.848   3.521 -0.3311 -0.3903  0.5021
  166SAPE   H8R18621   4.163   0.743   3.498  1.2556  0.1662 -0.6320
  166SAPE   C2918622   4.146   0.896   3.647  0.9321  0.6504 -0.6621
  166SAPE   H9R18623   4.166   0.832   3.734 -0.4955  2.8122  1.3388
  166SAPE  C21018624   4.125   1.033   3.697  0.6489 -0.1339  0.0227
  166SAPE  H10R18625   4.131   1.103   3.611 -0.6455 -1.5642 -1.3067
  166SAPE  H10S18626   4.222   1.064   3.741  0.2183  1.7139 -0.2552
  166SAPE  C21118627   4.006   1.060   3.783 -0.1875 -1.2308  0.1672
  166SAPE  H11R18628   3.913   1.078   3.727 -0.2453 -0.3242  0.5344
  166SAPE  C21218629   3.997   1.056   3.918 -0.1726  0.1532  0.0279
  166SAPE  H12R18630   3.907   1.090   3.972 -0.8025 -0.8534 -0.3571
  166SAPE  C21318631   4.127   1.034   4.000 -0.3015  0.5818 -0.0647
  166SAPE  H13R18632   4.211   1.069   3.936 -2.8203  2.1154 -2.7826
  166SAPE  H13S18633   4.135   0.926   4.026 -2.2465  0.4967  0.3075
  166SAPE  C21418634   4.144   1.111   4.126  0.3680 -0.2819  0.0523
  166SAPE  H14R18635   4.153   1.220   4.117  3.0896 -0.5650 -1.8335
  166SAPE  C21518636   4.140   1.058   4.252 -0.4147  0.5284  0.7748
  166SAPE  H15R18637   4.152   1.127   4.337  0.2680 -1.3625  2.2915
  166SAPE  C21618638   4.128   0.917   4.292 -0.2660  0.1972  0.1976
  166SAPE  H16R18639   4.060   0.864   4.222  0.0322 -0.8388  0.6672
  166SAPE  H16S18640   4.077   0.908   4.390  0.3910 -2.0048  0.3923
  166SAPE  C21718641   4.265   0.853   4.300 -0.0122 -0.4110 -0.2168
  166SAPE  H17R18642   4.331   0.893   4.220  1.7114 -0.8644  0.9431
  166SAPE  H17S18643   4.252   0.743   4.288  3.6161 -1.0031  0.4061
  166SAPE  C21818644   4.331   0.870   4.436 -0.2734  0.2195 -0.3069
  166SAPE  H18R18645   4.277   0.829   4.525  1.4014  1.9816  1.6175
  166SAPE  H18S18646   4.345   0.979   4.453  1.5379  0.9217 -4.8900
  166SAPE  C21918647   4.472   0.814   4.437  0.0387 -0.6036  0.1562
  166SAPE  H19R18648   4.530   0.875   4.365  0.5749  0.1927  1.2352
  166SAPE  H19S18649   4.467   0.711   4.397 -1.3167 -0.3204 -0.4720
  166SAPE  C22018650   4.542   0.822   4.574 -0.0221 -0.0944 -0.8339
  166SAPE  H20R18651   4.546   0.929   4.605 -2.4776  0.2546 -1.4628
  166SAPE  H20S18652   4.644   0.781   4.559  0.9076  1.7927  0.0018
  166SAPE  H20T18653   4.489   0.753   4.643  0.5627 -1.4344 -1.6861
  166SAPE   C3318654   3.905   0.477   3.132 -0.0512 -0.1162  0.4938
  166SAPE   H3X18655   3.975   0.394   3.156  0.5252  0.2472  0.0902
  166SAPE   H3Y18656   3.845   0.450   3.042 -0.1397 -0.0975  0.5477
  166SAPE   C3418657   3.792   0.498   3.228 -0.9519  0.3768 -0.0193
  166SAPE   H4X18658   3.734   0.408   3.257  0.2105  0.0126  1.2668
  166SAPE   H4Y18659   3.716   0.564   3.180  1.7373  2.1119 -2.1828
  166SAPE   C3518660   3.833   0.558   3.360 -0.1380  0.1687 -0.0451
  166SAPE   H5X18661   3.894   0.650   3.348 -0.5406  0.5370  0.7020
  166SAPE   H5Y18662   3.889   0.475   3.408 -0.6952  0.0041  0.3269
  166SAPE   C3618663   3.717   0.601   3.455 -0.9219  0.1455  0.1378
  166SAPE   H6X18664   3.644   0.517   3.458 -4.2014  2.5677 -3.0232
  166SAPE   H6Y18665   3.664   0.692   3.419  0.3818  1.0347  0.3636
  166SAPE   C3718666   3.766   0.639   3.598  0.9371 -0.0837 -0.8463
  166SAPE   H7X18667   3.821   0.735   3.605  1.8288 -0.6879  3.1389
  166SAPE   H7Y18668   3.843   0.562   3.624  1.3846  0.9407  1.0605
  166SAPE   C3818669   3.648   0.640   3.700 -0.4980  0.0588 -0.6997
  166SAPE   H8X18670   3.611   0.536   3.711 -0.6692  0.3655  2.8361
  166SAPE   H8Y18671   3.556   0.688   3.662 -1.4177 -1.7557 -0.8565
  166SAPE   C3918672   3.691   0.698   3.841 -0.2083  0.7256  1.0254
  166SAPE   H9X18673   3.604   0.706   3.910 -1.1713 -0.9031  0.0665
  166SAPE   H9Y18674   3.716   0.806   3.835  1.2520  0.3764  0.2782
  166SAPE  C31018675   3.805   0.625   3.900  0.5429 -0.4266 -0.1757
  166SAPE  H10X18676   3.895   0.683   3.872 -0.1295  0.0480 -1.4075
  166SAPE  H10Y18677   3.820   0.519   3.870  3.0496  0.0078 -0.6592
  166SAPE  C31118678   3.786   0.622   4.061 -0.4502 -0.2801  0.7714
  166SAPE  H11X18679   3.696   0.557   4.072 -1.7479  1.0462 -1.4585
  166SAPE  H11Y18680   3.748   0.722   4.090  2.9605  1.1856  0.7329
  166SAPE  C31218681   3.911   0.582   4.145  0.3533 -0.3087 -0.5757
  166SAPE  H12X18682   3.999   0.641   4.111 -0.6035  1.9795  0.6501
  166SAPE  H12Y18683   3.936   0.475   4.135  0.4304 -0.2247 -1.3495
  166SAPE  C31318684   3.883   0.608   4.297 -0.4142  0.0201  0.1569
  166SAPE  H13X18685   3.785   0.569   4.332  0.4957 -0.2094  2.6769
  166SAPE  H13Y18686   3.881   0.718   4.311 -1.0352  0.2801 -1.6988
  166SAPE  C31418687   3.993   0.556   4.392 -0.2416 -0.1149 -0.0036
  166SAPE  H14X18688   4.088   0.613   4.379  1.0026 -2.3406 -1.0606
  166SAPE  H14Y18689   4.019   0.452   4.363  1.0134  0.0979  0.2651
  166SAPE  C31518690   3.955   0.556   4.536 -0.4358  0.0096 -0.1142
  166SAPE  H15X18691   3.863   0.493   4.541  0.6966 -1.8445 -1.1713
  166SAPE  H15Y18692   3.919   0.657   4.566 -0.3215  0.6210 -1.8770
  166SAPE  C31618693   4.067   0.496   4.631  0.3604 -0.4482 -0.1769
  166SAPE  H16X18694   4.083   0.399   4.580 -0.3167 -0.7132  0.1045
  166SAPE  H16Y18695   4.024   0.483   4.732 -2.5352  0.7434 -1.1410
  166SAPE  C31718696   4.197   0.579   4.646 -0.3036  0.1466 -0.1474
  166SAPE  H17X18697   4.171   0.679   4.686 -0.0629  0.9071 -1.8169
  166SAPE  H17Y18698   4.241   0.604   4.547  0.1903 -1.2045 -0.2953
  166SAPE  C31818699   4.297   0.519   4.744 -0.6514 -0.3532  0.4699
  166SAPE  H18X18700   4.316   0.412   4.722 -0.8774 -0.7597  2.0886
  166SAPE  H18Y18701   4.269   0.520   4.852 -1.4155  1.9589  0.3149
  166SAPE  H18Z18702   4.401   0.559   4.740 -0.7631 -0.0971  0.0190
  167SAPE     N18703   4.271   4.838   2.103 -0.1022  0.1703 -0.4735
  167SAPE   HN118704   4.370   4.833   2.134 -0.4064 -1.2524  0.3507
  167SAPE   HN218705   4.239   4.743   2.075  0.5518  0.0183 -0.7308
  167SAPE   HN318706   4.251   4.903   2.024 -0.6120 -0.9062 -1.2612
  167SAPE   C1218707   4.194   4.891   2.223 -0.4747  0.7631  0.5407
  167SAPE  H12A18708   4.090   4.852   2.214  0.2077 -0.9415 -0.3123
  167SAPE  H12B18709   4.185   5.002   2.221  0.0723  0.8003 -0.5184
  167SAPE   C1118710   4.261   4.836   2.354  0.4905  0.1764 -0.5184
  167SAPE  H11A18711   4.214   4.891   2.438  1.2536  1.9872 -1.2216
  167SAPE  H11B18712   4.368   4.867   2.361  1.5672 -3.4286  1.9366
  167SAPE     P18713   4.126   4.616   2.409 -0.1703 -0.1326 -0.3081
  167SAPE   O1318714   4.080   4.570   2.277 -0.0673  0.2691  0.0491
  167SAPE   O1418715   4.171   4.512   2.504  0.8286  0.3101 -0.8407
  167SAPE   O1218716   4.255   4.696   2.364 -0.0166 -0.5865  0.2388
  167SAPE   O1118717   4.030   4.727   2.482 -0.3422  0.1880  1.0202
  167SAPE    C118718   3.904   4.765   2.418  0.1843  0.1841 -1.0578
  167SAPE    HA18719   3.914   4.851   2.349 -2.0026  1.7777  0.4630
  167SAPE    HB18720   3.857   4.683   2.359 -0.6492 -1.3634  1.5823
  167SAPE    C218721   3.804   4.817   2.529  0.2508 -0.3868  0.2318
  167SAPE    HS18722   3.722   4.862   2.470  0.5194 -0.8744 -0.5297
  167SAPE   O2118723   3.872   4.903   2.611  0.4582  0.2457 -0.6435
  167SAPE   C2118724   3.798   5.008   2.659  0.0148  0.4201  0.7182
  167SAPE   O2218725   3.687   5.035   2.621 -0.4533  0.1988 -0.1278
  167SAPE   C2218726   3.860   5.066   2.783  0.0057 -0.1212  0.1469
  167SAPE   H2R18727   3.971   5.061   2.779  0.0153  0.8193 -1.5350
  167SAPE   H2S18728   3.829   5.172   2.791  1.8654  0.3529  2.2942
  167SAPE    C318729   3.747   4.701   2.610 -0.6457 -0.0217  0.0754
  167SAPE    HX18730   3.831   4.662   2.670 -1.1750  0.6372  1.2708
  167SAPE    HY18731   3.714   4.626   2.534 -1.1790  1.5345 -1.2737
  167SAPE   O3118732   3.645   4.750   2.688 -0.3133 -0.0807 -0.9151
  167SAPE   C3118733   3.513   4.722   2.664  0.0440 -0.5633  0.1395
  167SAPE   O3218734   3.470   4.647   2.575 -0.3827 -0.2926  0.0304
  167SAPE   C3218735   3.428   4.817   2.754  0.1341 -0.1167 -0.0906
  167SAPE   H2X18736   3.389   4.896   2.687 -0.4749  0.7928  1.2957
  167SAPE   H2Y18737   3.492   4.865   2.831 -0.7826  0.6933  0.1940
  167SAPE   C2318738   3.823   4.993   2.915 -0.4159 -0.3427  0.2587
  167SAPE   H3R18739   3.851   4.886   2.913 -0.2759 -0.2938 -1.6211
  167SAPE   H3S18740   3.714   5.010   2.922 -0.3661 -0.0209  0.2629
  167SAPE   C2418741   3.898   5.060   3.029 -0.2037 -0.0846 -0.1855
  167SAPE   H4R18742   4.007   5.057   3.007 -0.5783 -0.7928 -2.1462
  167SAPE   H4S18743   3.877   5.004   3.123 -3.6008  1.1107 -0.0978
  167SAPE   C2518744   3.866   5.204   3.052  0.2471 -0.1535  0.5823
  167SAPE   H5R18745   3.908   5.255   2.965  0.3102 -2.6250 -0.9464
  167SAPE   C2618746   3.800   5.266   3.148  0.4800  0.4513 -0.0540
  167SAPE   H6R18747   3.788   5.376   3.144 -0.9501  0.3146  0.0044
  167SAPE   C2718748   3.746   5.210   3.276  0.0860  0.1755 -0.5454
  167SAPE   H7R18749   3.656   5.153   3.245 -0.7623  1.1794 -0.0350
  167SAPE   H7S18750   3.710   5.290   3.345  1.2538 -0.1560  0.4689
  167SAPE   C2818751   3.835   5.123   3.362 -0.7542  0.2422 -0.0898
  167SAPE   H8R18752   3.935   5.106   3.319 -0.5772 -0.1026  0.4499
  167SAPE   C2918753   3.805   5.072   3.484  0.5523  0.2785 -0.0228
  167SAPE   H9R18754   3.875   4.998   3.525  0.1140  0.5956  1.3247
  167SAPE  C21018755   3.680   5.094   3.561  0.4068 -0.9434  0.1115
  167SAPE  H10R18756   3.603   5.158   3.513 -0.1898 -1.8407 -0.1414
  167SAPE  H10S18757   3.697   5.153   3.654 -1.1013 -1.0761  0.5003
  167SAPE  C21118758   3.617   4.959   3.600 -0.3137 -0.5771  0.1947
  167SAPE  H11R18759   3.565   4.917   3.512 -1.0509  0.6740  0.0153
  167SAPE  C21218760   3.614   4.903   3.725  0.9136  0.1110  0.2105
  167SAPE  H12R18761   3.545   4.819   3.742  0.9218  0.1550  0.4556
  167SAPE  C21318762   3.681   4.962   3.847  0.2272 -0.0231  0.3381
  167SAPE  H13R18763   3.610   5.028   3.902  0.8194  2.4518 -1.6973
  167SAPE  H13S18764   3.753   5.040   3.815 -2.2628  1.6251 -1.6411
  167SAPE  C21418765   3.756   4.868   3.932 -0.2285 -0.0211 -0.7372
  167SAPE  H14R18766   3.838   4.809   3.888  0.2087 -1.7482  2.1142
  167SAPE  C21518767   3.749   4.862   4.063  0.3155  0.0789 -0.0220
  167SAPE  H15R18768   3.802   4.786   4.121 -1.6792 -1.1817  0.2504
  167SAPE  C21618769   3.659   4.956   4.146  0.1517 -0.5458 -0.5050
  167SAPE  H16R18770   3.631   5.051   4.096  2.1377 -0.1388 -0.9621
  167SAPE  H16S18771   3.718   4.987   4.235 -0.1047  1.2639 -0.9279
  167SAPE  C21718772   3.522   4.898   4.188  0.4623  0.7894  0.1075
  167SAPE  H17R18773   3.448   4.898   4.106  0.8903  2.4984 -0.3115
  167SAPE  H17S18774   3.480   4.963   4.268  1.3022 -0.1388  1.3396
  167SAPE  C21818775   3.547   4.756   4.249 -0.4492 -0.6993 -0.4711
  167SAPE  H18R18776   3.639   4.767   4.310 -1.7704  0.8775  1.3393
  167SAPE  H18S18777   3.563   4.681   4.168 -0.1938 -0.4010 -0.6996
  167SAPE  C21918778   3.430   4.705   4.337 -0.5469 -0.0328  0.4841
  167SAPE  H19R18779   3.348   4.689   4.264  1.0897  0.5423 -1.5718
  167SAPE  H19S18780   3.391   4.781   4.409  0.1590  1.0088 -0.1959
  167SAPE  C22018781   3.466   4.566   4.399  0.2116  0.7275 -1.2275
  167SAPE  H20R18782   3.385   4.515   4.456 -0.0797  0.6559 -1.7064
  167SAPE  H20S18783   3.557   4.566   4.463 -0.5855  2.2294 -0.0204
  167SAPE  H20T18784   3.474   4.504   4.308 -0.8609  2.8367 -2.8596
  167SAPE   C3318785   3.308   4.745   2.829  0.2504 -0.7287 -0.1558
  167SAPE   H3X18786   3.351   4.691   2.916 -2.8103 -2.5130  0.3939
  167SAPE   H3Y18787   3.253   4.674   2.764  0.7832 -1.2033 -0.0939
  167SAPE   C3418788   3.207   4.848   2.888  0.1288  0.8006 -0.4855
  167SAPE   H4X18789   3.135   4.785   2.946  0.0615  1.2989 -0.0223
  167SAPE   H4Y18790   3.151   4.901   2.809 -2.9776  0.0845  1.0618
  167SAPE   C3518791   3.272   4.948   2.980 -0.2103  0.1267 -0.2477
  167SAPE   H5X18792   3.212   5.039   3.001  0.3898  0.4764  0.0004
  167SAPE   H5Y18793   3.356   4.989   2.919 -0.2097 -1.3060 -1.2640
  167SAPE   C3618794   3.328   4.891   3.113 -0.6449 -0.2608 -0.1739
  167SAPE   H6X18795   3.404   4.970   3.131 -0.4696 -0.5923  0.5621
  167SAPE   H6Y18796   3.399   4.806   3.103  0.4735  0.6641 -0.3431
  167SAPE   C3718797   3.227   4.871   3.226 -0.4781  0.2746  0.4433
  167SAPE   H7X18798   3.162   4.786   3.196  0.3965 -0.9543  1.8606
  167SAPE   H7Y18799   3.159   4.958   3.237 -3.9515 -1.9447 -1.6650
  167SAPE   C3818800   3.295   4.832   3.359  0.1291  0.5105 -0.1316
  167SAPE   H8X18801   3.389   4.888   3.380  0.0542  0.1574  1.2904
  167SAPE   H8Y18802   3.325   4.726   3.350 -1.0011  0.0286  1.2699
  167SAPE   C3918803   3.195   4.847   3.477  1.0277  0.7650 -0.7414
  167SAPE   H9X18804   3.110   4.778   3.459  2.2312 -1.3338  1.1541
  167SAPE   H9Y18805   3.164   4.954   3.485 -1.3106  0.0099  1.2540
  167SAPE  C31018806   3.253   4.794   3.604 -0.1027  1.0266  0.0439
  167SAPE  H10X18807   3.296   4.884   3.653 -0.9701  0.6568  1.5776
  167SAPE  H10Y18808   3.328   4.713   3.589  0.4051  1.6690 -0.9712
  167SAPE  C31118809   3.142   4.741   3.706 -0.4652  0.3523  0.6105
  167SAPE  H11X18810   3.084   4.660   3.655  2.3956 -0.7583 -1.0712
  167SAPE  H11Y18811   3.066   4.818   3.729 -2.4904 -1.6855  1.2146
  167SAPE  C31218812   3.205   4.684   3.838  0.2858 -0.5535  0.1200
  167SAPE  H12X18813   3.240   4.782   3.879 -1.7109  0.2409  0.0268
  167SAPE  H12Y18814   3.289   4.615   3.815 -0.6615 -2.3663  1.8424
  167SAPE  C31318815   3.112   4.613   3.932  0.3938 -0.6423 -0.0816
  167SAPE  H13X18816   3.090   4.513   3.889 -0.5729 -0.6068  0.3011
  167SAPE  H13Y18817   3.017   4.668   3.947  1.2606  1.0383 -0.4574
  167SAPE  C31418818   3.177   4.587   4.066  0.9486 -0.0253  0.4301
  167SAPE  H14X18819   3.198   4.687   4.108 -1.4281 -0.1977  2.2166
  167SAPE  H14Y18820   3.275   4.535   4.057  1.0641  0.4119 -1.1408
  167SAPE  C31518821   3.082   4.498   4.157  0.0931  0.2324  0.0095
  167SAPE  H15X18822   3.072   4.405   4.097  2.7896  0.7690 -1.4339
  167SAPE  H15Y18823   2.982   4.542   4.173 -0.6015 -0.8367 -1.1677
  167SAPE  C31618824   3.146   4.449   4.280 -0.2849 -0.2273 -0.7306
  167SAPE  H16X18825   3.192   4.524   4.347  0.6552 -2.3892  1.1937
  167SAPE  H16Y18826   3.232   4.386   4.247 -1.0069 -0.6992 -1.7593
  167SAPE  C31718827   3.051   4.370   4.370  0.3436  0.2657  0.5495
  167SAPE  H17X18828   2.998   4.290   4.314  0.7428 -2.2555  3.5419
  167SAPE  H17Y18829   2.973   4.442   4.403  1.6629  0.7738  2.7680
  167SAPE  C31818830   3.104   4.303   4.487 -0.9926  0.2690  0.0157
  167SAPE  H18X18831   3.031   4.263   4.560 -1.1778 -0.7927 -0.7289
  167SAPE  H18Y18832   3.180   4.363   4.542 -0.0374 -1.0209  0.1330
  167SAPE  H18Z18833   3.161   4.212   4.459 -1.1493 -0.0544  0.7455
  168SAPE     N18834   6.684   0.938   2.149  0.0518 -0.4764 -0.1498
  168SAPE   HN118835   6.631   0.979   2.069  0.0456  1.8840  0.9705
  168SAPE   HN218836   6.678   0.995   2.236 -0.8673 -1.1464  0.2369
  168SAPE   HN318837   6.782   0.936   2.113  0.1023 -2.3419  0.0010
  168SAPE   C1218838   6.643   0.802   2.191 -0.1895  0.0955 -0.4804
  168SAPE  H12A18839   6.676   0.729   2.114  0.2027 -0.3004  0.0489
  168SAPE  H12B18840   6.532   0.809   2.191 -0.1070  4.1290 -1.8434
  168SAPE   C1118841   6.691   0.765   2.335  0.5792 -0.1585  0.2867
  168SAPE  H11A18842   6.797   0.791   2.353  0.2720  4.1961 -2.5122
  168SAPE  H11B18843   6.680   0.656   2.353  2.1994 -0.2825  0.6761
  168SAPE     P18844   6.470   0.786   2.473  0.1697  0.5324 -0.5850
  168SAPE   O1318845   6.356   0.842   2.399 -0.2493 -0.4916 -0.3071
  168SAPE   O1418846   6.467   0.638   2.481  0.7442 -0.2438 -0.8309
  168SAPE   O1218847   6.613   0.835   2.425  0.4866  0.1295 -0.1061
  168SAPE   O1118848   6.457   0.845   2.619  0.0183 -0.3873  0.5369
  168SAPE    C118849   6.563   0.813   2.707  0.2089  0.3192 -0.4949
  168SAPE    HA18850   6.620   0.721   2.680 -0.6331 -0.4252  0.1524
  168SAPE    HB18851   6.639   0.893   2.699  0.1782  0.3251 -0.7448
  168SAPE    C218852   6.519   0.810   2.854  0.0917  0.2041 -0.3085
  168SAPE    HS18853   6.607   0.835   2.916  0.2450  1.3427 -0.9601
  168SAPE   O2118854   6.475   0.677   2.884 -0.3273 -0.5061 -0.8372
  168SAPE   C2118855   6.582   0.600   2.909  0.3835 -0.7177 -0.9318
  168SAPE   O2218856   6.698   0.635   2.888  0.0842  0.1263  0.0972
  168SAPE   C2218857   6.544   0.464   2.955  0.0717 -0.2596  0.6252
  168SAPE   H2R18858   6.451   0.474   3.015 -0.5576 -2.2608  0.0527
  168SAPE   H2S18859   6.499   0.417   2.865 -2.0366  2.7417 -0.0450
  168SAPE    C318860   6.416   0.910   2.896 -0.1957  0.5553  0.4062
  168SAPE    HX18861   6.319   0.871   2.860  1.1207 -2.3045 -0.4086
  168SAPE    HY18862   6.447   1.008   2.855 -1.5460  0.5309 -0.7259
  168SAPE   O3118863   6.395   0.923   3.039 -0.2297  0.2117 -0.0959
  168SAPE   C3118864   6.476   1.004   3.101 -0.4527  0.3369 -0.1705
  168SAPE   O3218865   6.561   1.081   3.056 -0.7282 -0.3367 -0.1462
  168SAPE   C3218866   6.447   0.988   3.252 -0.0943  0.4601 -0.3125
  168SAPE   H2X18867   6.336   0.990   3.263 -0.2455 -2.9325 -0.0948
  168SAPE   H2Y18868   6.501   1.067   3.308  1.0706  0.3806 -1.2970
  168SAPE   C2318869   6.652   0.377   3.018 -0.0171  0.0945 -0.3081
  168SAPE   H3R18870   6.745   0.388   2.958 -0.3187  0.5985 -0.6868
  168SAPE   H3S18871   6.613   0.273   3.026 -0.3295  0.3634  3.4706
  168SAPE   C2418872   6.686   0.410   3.169  0.5395 -0.2448 -0.1426
  168SAPE   H4R18873   6.750   0.325   3.200  1.1375 -0.5720 -2.1704
  168SAPE   H4S18874   6.596   0.407   3.235  0.5791 -0.8023 -0.1059
  168SAPE   C2518875   6.766   0.539   3.196 -0.3679  0.3911 -0.4830
  168SAPE   H5R18876   6.806   0.595   3.110 -0.5968  1.2456 -0.0440
  168SAPE   C2618877   6.816   0.567   3.325  0.3300 -0.3786 -0.5680
  168SAPE   H6R18878   6.856   0.666   3.352  3.2878 -1.2747 -1.2594
  168SAPE   C2718879   6.779   0.490   3.449 -0.3495 -0.6700 -0.2265
  168SAPE   H7R18880   6.749   0.395   3.402 -2.8179  0.7611 -1.7563
  168SAPE   H7S18881   6.688   0.528   3.501  0.3118 -0.0277  0.4956
  168SAPE   C2818882   6.897   0.465   3.531 -0.1146  0.4825  0.1125
  168SAPE   H8R18883   6.990   0.462   3.471  0.8017 -0.2919  1.5274
  168SAPE   C2918884   6.895   0.447   3.664 -0.3818 -0.6068  0.2368
  168SAPE   H9R18885   6.992   0.423   3.710  0.3283  1.9146  0.1914
  168SAPE  C21018886   6.783   0.436   3.761  0.0979  0.0942  0.1350
  168SAPE  H10R18887   6.771   0.329   3.788  1.8975 -0.1791 -0.0530
  168SAPE  H10S18888   6.688   0.472   3.715  0.2106  1.6084  1.0263
  168SAPE  C21118889   6.798   0.518   3.885 -0.8650  0.0298 -0.3304
  168SAPE  H11R18890   6.813   0.463   3.979  1.7855  0.2740 -0.5275
  168SAPE  C21218891   6.792   0.654   3.900  0.3365 -0.0188 -0.4777
  168SAPE  H12R18892   6.835   0.710   3.985  1.6571 -0.1424 -1.0248
  168SAPE  C21318893   6.800   0.754   3.787 -0.1574  0.1690  0.2303
  168SAPE  H13R18894   6.727   0.835   3.810  1.0993  1.9495 -1.6340
  168SAPE  H13S18895   6.766   0.705   3.693 -2.1455 -0.0523  0.9975
  168SAPE  C21418896   6.936   0.800   3.744 -0.0246 -0.4873 -0.2250
  168SAPE  H14R18897   7.022   0.733   3.728  0.9330  0.1628  1.8183
  168SAPE  C21518898   6.970   0.931   3.738  0.0142  0.0338  1.0759
  168SAPE  H15R18899   7.072   0.956   3.708 -0.9822  0.1322 -2.7840
  168SAPE  C21618900   6.867   1.048   3.744 -0.4243  0.4366 -0.5732
  168SAPE  H16R18901   6.856   1.082   3.849 -0.6651 -2.9745  0.6478
  168SAPE  H16S18902   6.770   1.018   3.700 -1.7868  3.9180 -0.1737
  168SAPE  C21718903   6.915   1.172   3.677 -0.1817 -0.0797  0.9331
  168SAPE  H17R18904   7.005   1.214   3.725 -0.7358  2.0238  0.2312
  168SAPE  H17S18905   6.830   1.241   3.694 -0.0671  0.4983 -0.6312
  168SAPE  C21818906   6.931   1.178   3.526  0.1446  0.2758 -0.7802
  168SAPE  H18R18907   7.035   1.146   3.502 -0.2848 -1.1938 -0.8031
  168SAPE  H18S18908   6.910   1.280   3.490 -0.4086  0.5997  0.4113
  168SAPE  C21918909   6.822   1.094   3.456  0.0494 -0.7839  0.1852
  168SAPE  H19R18910   6.723   1.130   3.489  2.1642  3.5181  2.6558
  168SAPE  H19S18911   6.832   0.986   3.480 -1.5349 -1.1247 -0.5426
  168SAPE  C22018912   6.845   1.106   3.302  0.5239 -0.5561  0.1818
  168SAPE  H20R18913   6.799   1.200   3.266  0.9429 -0.0971  0.8230
  168SAPE  H20S18914   6.795   1.021   3.251  0.1075  0.8132 -1.7597
  168SAPE  H20T18915   6.951   1.106   3.271 -0.8104 -2.0347 -5.4203
  168SAPE   C3318916   6.503   0.848   3.299  0.7180 -0.6915  0.8060
  168SAPE   H3X18917   6.609   0.850   3.266  1.1080 -0.2554  2.0513
  168SAPE   H3Y18918   6.443   0.771   3.246 -0.7897  1.1881 -0.3502
  168SAPE   C3418919   6.506   0.832   3.444 -0.6893  0.0171 -0.3030
  168SAPE   H4X18920   6.531   0.929   3.493  2.9178 -1.6670  1.5722
  168SAPE   H4Y18921   6.597   0.774   3.470 -0.2303  1.2781  1.0889
  168SAPE   C3518922   6.374   0.767   3.496 -0.8458  0.5464 -0.0580
  168SAPE   H5X18923   6.365   0.672   3.440  1.3093  0.7211 -0.8118
  168SAPE   H5Y18924   6.284   0.824   3.465 -1.0294 -0.3081 -1.1363
  168SAPE   C3618925   6.382   0.743   3.644  0.5523 -0.0986 -0.4956
  168SAPE   H6X18926   6.486   0.709   3.659  0.3070 -1.8133 -2.2391
  168SAPE   H6Y18927   6.304   0.669   3.674  0.2987  0.3708  0.0248
  168SAPE   C3718928   6.360   0.870   3.738 -0.0116  0.6646  0.3416
  168SAPE   H7X18929   6.259   0.916   3.728 -0.1005  1.5961  3.8767
  168SAPE   H7Y18930   6.436   0.948   3.719 -0.6027  0.8226 -1.5403
  168SAPE   C3818931   6.364   0.832   3.893  0.7906 -0.1723 -0.0696
  168SAPE   H8X18932   6.464   0.784   3.903  1.8061  1.1127 -2.9561
  168SAPE   H8Y18933   6.290   0.751   3.909  1.4697 -1.5987 -3.3220
  168SAPE   C3918934   6.351   0.953   3.993  0.5526 -0.6088  0.6141
  168SAPE   H9X18935   6.257   1.009   3.976  0.5841  0.1683  2.7133
  168SAPE   H9Y18936   6.426   1.030   3.965 -3.3098  2.8591 -1.1865
  168SAPE  C31018937   6.370   0.913   4.145 -0.4261  0.0423  0.2275
  168SAPE  H10X18938   6.455   0.841   4.145 -1.7946 -1.6331  0.3373
  168SAPE  H10Y18939   6.276   0.872   4.186 -0.7553  2.0413  1.5808
  168SAPE  C31118940   6.379   1.039   4.226  0.1756 -0.3260 -0.1107
  168SAPE  H11X18941   6.295   1.100   4.187  1.8610  1.3169 -1.3434
  168SAPE  H11Y18942   6.472   1.094   4.201  1.7645 -2.7032  0.3440
  168SAPE  C31218943   6.362   1.025   4.378 -1.1710  0.4691  0.2785
  168SAPE  H12X18944   6.445   0.966   4.422 -0.9633  0.5708  0.0214
  168SAPE  H12Y18945   6.263   0.982   4.404 -1.2258  1.2592  1.4186
  168SAPE  C31318946   6.366   1.169   4.427 -0.0923 -0.1044  0.1297
  168SAPE  H13X18947   6.286   1.224   4.373  0.6379 -0.2419 -1.1233
  168SAPE  H13Y18948   6.461   1.219   4.399 -0.6857  0.5926 -0.7076
  168SAPE  C31418949   6.349   1.168   4.579 -0.3356  0.1548 -0.1540
  168SAPE  H14X18950   6.443   1.139   4.630 -0.2498  1.0379  0.1925
  168SAPE  H14Y18951   6.278   1.094   4.622  0.8238 -0.0601  1.4592
  168SAPE  C31518952   6.297   1.311   4.608  0.2518  0.2393 -0.3028
  168SAPE  H15X18953   6.203   1.331   4.551  0.2753  4.3793  0.7782
  168SAPE  H15Y18954   6.362   1.396   4.579 -2.7033  4.4977  3.9532
  168SAPE  C31618955   6.264   1.335   4.754 -0.0781  0.1922  0.0213
  168SAPE  H16X18956   6.163   1.302   4.786 -0.1239  1.8588  1.7974
  168SAPE  H16Y18957   6.263   1.446   4.763  0.8278  0.4542 -2.2887
  168SAPE  C31718958   6.367   1.270   4.852  0.4432 -0.2078  0.5541
  168SAPE  H17X18959   6.461   1.325   4.832 -1.5807  2.8190 -1.6062
  168SAPE  H17Y18960   6.389   1.163   4.832  0.1772  0.1044 -1.7279
  168SAPE  C31818961   6.352   1.304   4.998  0.0602  0.2406 -0.2596
  168SAPE  H18X18962   6.361   1.413   5.019  1.3394  0.2554 -0.7699
  168SAPE  H18Y18963   6.425   1.243   5.053 -0.4234  0.6312  0.8413
  168SAPE  H18Z18964   6.248   1.288   5.033 -0.5935  2.7485 -0.7874
  169SAPE     N18965   4.488   4.294   2.800 -0.1768  0.5668  0.4004
  169SAPE   HN118966   4.555   4.216   2.789  0.2283  1.0743 -0.8950
  169SAPE   HN218967   4.545   4.380   2.814  0.0038  0.2918  1.4720
  169SAPE   HN318968   4.428   4.274   2.883  0.0666  0.0233  0.4512
  169SAPE   C1218969   4.421   4.331   2.673  0.3218  0.3138  0.2920
  169SAPE  H12A18970   4.344   4.409   2.688 -0.7572 -0.6913  0.0672
  169SAPE  H12B18971   4.367   4.243   2.634 -0.7536  0.3159  1.7104
  169SAPE   C1118972   4.524   4.378   2.571  0.0118  0.5153  0.2062
  169SAPE  H11A18973   4.475   4.406   2.475  0.1113  0.9601  0.2833
  169SAPE  H11B18974   4.586   4.288   2.556 -0.8313  0.1335 -1.2315
  169SAPE     P18975   4.681   4.583   2.538 -0.0710  0.0138 -0.1850
  169SAPE   O1318976   4.799   4.627   2.614 -0.1478 -0.6127  0.6895
  169SAPE   O1418977   4.707   4.527   2.405  0.0975 -0.2462  0.0170
  169SAPE   O1218978   4.603   4.481   2.626 -0.0986 -0.3246  0.3690
  169SAPE   O1118979   4.576   4.698   2.535 -0.6943 -0.2619  0.3802
  169SAPE    C118980   4.479   4.716   2.636  0.9707  0.2097 -0.0915
  169SAPE    HA18981   4.394   4.777   2.598  2.8444  2.1868 -1.3055
  169SAPE    HB18982   4.425   4.620   2.653  1.2765  0.0109 -0.2351
  169SAPE    C218983   4.535   4.783   2.761 -0.2232  0.2899  0.5624
  169SAPE    HS18984   4.612   4.716   2.803  1.3359  1.1928 -0.7691
  169SAPE   O2118985   4.436   4.798   2.863 -0.6374 -0.3343  0.0197
  169SAPE   C2118986   4.399   4.683   2.928 -0.0704 -0.0455 -0.7945
  169SAPE   O2218987   4.438   4.572   2.895  0.2698  0.5985  0.0238
  169SAPE   C2218988   4.335   4.714   3.062  0.1068 -0.5462 -0.4645
  169SAPE   H2R18989   4.276   4.624   3.089  1.6101 -1.4755 -0.1428
  169SAPE   H2S18990   4.422   4.727   3.130 -0.1011  0.5205 -0.3792
  169SAPE    C318991   4.602   4.922   2.726 -0.4354 -0.3752  0.6537
  169SAPE    HX18992   4.535   4.986   2.664  0.7802 -0.3421 -0.6627
  169SAPE    HY18993   4.691   4.917   2.660 -1.9185 -1.7419 -1.3982
  169SAPE   O3118994   4.648   4.981   2.847 -0.6196  0.0532 -0.2960
  169SAPE   C3118995   4.579   5.079   2.898 -0.2734  0.3449 -0.2735
  169SAPE   O3218996   4.485   5.135   2.845  0.3867 -0.5084 -0.2877
  169SAPE   C3218997   4.643   5.129   3.031  0.5074  0.1319  0.1224
  169SAPE   H2X18998   4.641   5.239   3.043 -0.0375  0.2343 -0.7464
  169SAPE   H2Y18999   4.747   5.093   3.045  0.2443 -0.2440  1.1445
  169SAPE   C2319000   4.269   4.854   3.057 -0.4691  0.8589  0.3519
  169SAPE   H3R19001   4.171   4.838   3.006  0.0635 -2.1263  0.0890
  169SAPE   H3S19002   4.329   4.933   3.008 -1.3206  1.4962  0.3191
  169SAPE   C2419003   4.227   4.895   3.200  0.1720  0.3954  0.1838
  169SAPE   H4R19004   4.164   4.986   3.192 -0.0999  0.2413  0.5373
  169SAPE   H4S19005   4.325   4.914   3.249  1.2143 -2.4729 -0.6041
  169SAPE   C2519006   4.137   4.791   3.275 -0.0615  0.1676  0.2402
  169SAPE   H5R19007   4.062   4.747   3.208  0.4253  1.4520 -1.2271
  169SAPE   C2619008   4.128   4.784   3.413 -0.4406 -0.2754  0.0389
  169SAPE   H6R19009   4.055   4.718   3.463 -0.8355  0.0584 -0.0888
  169SAPE   C2719010   4.214   4.857   3.518 -0.8369 -0.1110 -0.5290
  169SAPE   H7R19011   4.280   4.932   3.470 -0.8334  0.1927 -0.0566
  169SAPE   H7S19012   4.285   4.786   3.565 -0.8938 -0.0603 -0.3666
  169SAPE   C2819013   4.133   4.924   3.622  0.0978 -0.3238  0.0371
  169SAPE   H8R19014   4.095   5.023   3.597 -1.1997 -0.5945  0.8459
  169SAPE   C2919015   4.109   4.878   3.748  0.2213 -0.3199 -0.1818
  169SAPE   H9R19016   4.041   4.938   3.811 -1.9497  0.4335 -3.0456
  169SAPE  C21019017   4.172   4.753   3.801  0.6166 -0.0676 -0.2913
  169SAPE  H10R19018   4.176   4.672   3.725  0.3639 -0.0948 -0.2739
  169SAPE  H10S19019   4.100   4.716   3.876 -1.3469  0.6248 -1.7565
  169SAPE  C21119020   4.304   4.777   3.863 -0.7556 -0.0520  0.2876
  169SAPE  H11R19021   4.380   4.807   3.789  0.5595 -3.9724 -0.2203
  169SAPE  C21219022   4.354   4.741   3.981 -0.1963  0.0602 -0.2983
  169SAPE  H12R19023   4.456   4.775   4.004 -0.0998  0.5979 -1.4550
  169SAPE  C21319024   4.285   4.673   4.099 -0.0055  0.1039  0.0275
  169SAPE  H13R19025   4.251   4.569   4.082 -2.6653  1.0125 -0.8597
  169SAPE  H13S19026   4.188   4.724   4.121 -0.3160 -1.1101  1.6460
  169SAPE  C21419027   4.361   4.670   4.227  0.5397 -0.5993 -0.1460
  169SAPE  H14R19028   4.345   4.762   4.286 -1.3185 -0.6776 -0.4664
  169SAPE  C21519029   4.430   4.572   4.281 -0.5751 -0.8423 -0.1376
  169SAPE  H15R19030   4.468   4.586   4.383 -0.1993 -2.5744 -0.0021
  169SAPE  C21619031   4.462   4.439   4.222 -0.4172  0.0571 -0.5125
  169SAPE  H16R19032   4.470   4.451   4.112 -0.5075 -0.4505 -0.5790
  169SAPE  H16S19033   4.377   4.369   4.238 -0.5635  0.3166 -0.1495
  169SAPE  C21719034   4.594   4.362   4.260 -0.5334 -0.1307  0.9063
  169SAPE  H17R19035   4.684   4.427   4.255  0.4458 -1.4760  0.6168
  169SAPE  H17S19036   4.604   4.272   4.197  0.5749 -0.5744  1.6902
  169SAPE  C21819037   4.603   4.319   4.407 -0.1606  0.2460 -0.1807
  169SAPE  H18R19038   4.588   4.399   4.483  0.2424  0.3396 -0.1982
  169SAPE  H18S19039   4.710   4.292   4.418 -0.3932 -0.3252  0.7244
  169SAPE  C21919040   4.521   4.193   4.440 -0.3878 -0.2179 -0.2376
  169SAPE  H19R19041   4.426   4.200   4.381  1.2699 -0.0634 -3.0889
  169SAPE  H19S19042   4.496   4.195   4.548 -1.2594 -0.2646 -0.4268
  169SAPE  C22019043   4.592   4.063   4.413  0.0304 -0.2169  0.0150
  169SAPE  H20R19044   4.535   3.968   4.407  1.0411 -0.7270 -2.1823
  169SAPE  H20S19045   4.676   4.042   4.483 -0.3066  0.9489  0.8070
  169SAPE  H20T19046   4.630   4.063   4.309 -3.2373  1.1376 -1.3141
  169SAPE   C3319047   4.565   5.085   3.159 -0.3507 -0.3207 -0.1664
  169SAPE   H3X19048   4.568   4.974   3.165 -0.1734 -0.2467  1.4992
  169SAPE   H3Y19049   4.458   5.115   3.156 -0.4195 -0.5749 -2.1146
  169SAPE   C3419050   4.629   5.125   3.297  0.5943 -0.0892 -0.2347
  169SAPE   H4X19051   4.631   5.236   3.293  0.0888 -0.0882 -0.5838
  169SAPE   H4Y19052   4.736   5.096   3.290  0.8923  1.3538 -2.2426
  169SAPE   C3519053   4.541   5.065   3.412 -0.2279  0.0385  0.3682
  169SAPE   H5X19054   4.548   4.954   3.418  1.4598  0.1711  1.3373
  169SAPE   H5Y19055   4.436   5.093   3.389 -0.2307  0.0997  0.4583
  169SAPE   C3619056   4.591   5.121   3.553  0.3529  0.4696 -0.9771
  169SAPE   H6X19057   4.581   5.232   3.552 -0.7743  0.4524  1.4030
  169SAPE   H6Y19058   4.697   5.089   3.556  0.3509  0.3322 -2.0619
  169SAPE   C3719059   4.525   5.069   3.682 -0.4505  0.0431  0.1958
  169SAPE   H7X19060   4.527   4.958   3.683 -3.2074 -0.1174 -1.2526
  169SAPE   H7Y19061   4.416   5.092   3.684 -0.1300  1.9641 -1.4371
  169SAPE   C3819062   4.583   5.128   3.809  0.2656 -0.1286 -0.2693
  169SAPE   H8X19063   4.541   5.229   3.827 -1.1814 -0.8150  0.4018
  169SAPE   H8Y19064   4.694   5.130   3.812  0.2530  1.7143  0.9172
  169SAPE   C3919065   4.544   5.036   3.925  1.1569  0.1537  0.6478
  169SAPE   H9X19066   4.616   4.952   3.935  2.0101  1.0806  2.6724
  169SAPE   H9Y19067   4.437   5.006   3.925  0.0829  3.3857  3.4495
  169SAPE  C31019068   4.558   5.104   4.062 -0.2001 -0.0241 -0.3429
  169SAPE  H10X19069   4.500   5.199   4.061 -1.8353 -0.9844 -0.2893
  169SAPE  H10Y19070   4.666   5.125   4.074 -0.3673 -1.0860  5.7988
  169SAPE  C31119071   4.514   5.006   4.173 -0.2112  0.0107 -0.4398
  169SAPE  H11X19072   4.580   4.917   4.164  0.7593  0.7492 -0.7474
  169SAPE  H11Y19073   4.411   4.971   4.146  0.4432 -0.0031 -3.2286
  169SAPE  C31219074   4.527   5.066   4.308  0.1524 -0.0664  0.0010
  169SAPE  H12X19075   4.447   5.136   4.340  1.6844  1.0526  1.5868
  169SAPE  H12Y19076   4.617   5.130   4.315 -1.2444  2.1213 -0.7321
  169SAPE  C31319077   4.534   4.972   4.428  0.3269 -0.0429  0.9715
  169SAPE  H13X19078   4.600   4.883   4.415  1.7441  0.3996  4.1944
  169SAPE  H13Y19079   4.431   4.934   4.448 -0.1418  2.0076  2.8180
  169SAPE  C31419080   4.581   5.046   4.550 -0.0888 -0.1281 -0.5015
  169SAPE  H14X19081   4.508   5.123   4.583 -0.5246 -0.1307 -1.4170
  169SAPE  H14Y19082   4.669   5.112   4.534  0.2674 -0.2110  0.9920
  169SAPE  C31519083   4.603   4.953   4.664 -0.6400  0.5731  0.1087
  169SAPE  H15X19084   4.648   5.010   4.747 -1.8431  0.9859  0.5046
  169SAPE  H15Y19085   4.679   4.882   4.624 -1.4274  0.1942 -0.7712
  169SAPE  C31619086   4.484   4.870   4.720 -0.5448  0.1424  0.9626
  169SAPE  H16X19087   4.472   4.780   4.657  2.2063 -0.8580  1.7278
  169SAPE  H16Y19088   4.392   4.932   4.713 -0.9022 -0.2764  1.7665
  169SAPE  C31719089   4.493   4.796   4.860  0.1572 -0.4667 -0.1515
  169SAPE  H17X19090   4.394   4.748   4.877 -0.4508  1.2556  1.4274
  169SAPE  H17Y19091   4.505   4.868   4.943 -0.4587  0.7774 -1.0975
  169SAPE  C31819092   4.591   4.682   4.882  0.5524 -0.1434 -0.3244
  169SAPE  H18X19093   4.551   4.615   4.961 -0.3896 -2.5579 -2.6772
  169SAPE  H18Y19094   4.685   4.725   4.924  0.6054 -1.0746  0.5487
  169SAPE  H18Z19095   4.607   4.620   4.791 -1.3673 -2.7432  0.9714
  170SAPE     N19096   3.627   6.595   2.354  0.0458  0.4816  0.1937
  170SAPE   HN119097   3.591   6.651   2.434 -1.3661 -1.5083  1.0218
  170SAPE   HN219098   3.548   6.584   2.288  1.8184  0.9864 -2.1109
  170SAPE   HN319099   3.648   6.498   2.386 -0.7094 -0.2747 -1.4848
  170SAPE   C1219100   3.738   6.646   2.264 -0.0881  0.0733 -0.5887
  170SAPE  H12A19101   3.725   6.756   2.252  2.1456  0.4173 -0.3428
  170SAPE  H12B19102   3.718   6.596   2.167  2.3280  0.0537 -1.1313
  170SAPE   C1119103   3.877   6.605   2.319  0.1971 -0.0027  0.1463
  170SAPE  H11A19104   3.965   6.635   2.257 -0.3556  0.8116 -0.2611
  170SAPE  H11B19105   3.889   6.496   2.336  0.2767  0.4937  4.1014
  170SAPE     P19106   3.954   6.808   2.481  0.3524 -0.1384 -0.0395
  170SAPE   O1319107   4.097   6.798   2.494  0.0717  0.0392 -0.0477
  170SAPE   O1419108   3.900   6.898   2.380  0.1287  0.7612  0.0791
  170SAPE   O1219109   3.894   6.666   2.451  0.1513  0.7329 -0.6075
  170SAPE   O1119110   3.905   6.835   2.621 -0.0253 -0.2862 -0.0272
  170SAPE    C119111   3.894   6.966   2.674  0.7951  0.4085 -0.1411
  170SAPE    HA19112   3.987   7.025   2.659  1.0180  0.1394  0.1784
  170SAPE    HB19113   3.800   7.014   2.641 -0.5321 -2.1396 -0.3483
  170SAPE    C219114   3.876   6.966   2.828 -0.3893  0.0006  0.5187
  170SAPE    HS19115   3.868   7.069   2.869  2.0872  0.1520  0.7662
  170SAPE   O2119116   3.989   6.895   2.893  0.8588 -0.1148  0.0540
  170SAPE   C2119117   4.101   6.960   2.890 -0.7266  0.0031  0.1900
  170SAPE   O2219118   4.110   7.080   2.864 -0.5326 -0.1312 -0.0500
  170SAPE   C2219119   4.215   6.861   2.922 -0.4072 -0.4569 -0.6846
  170SAPE   H2R19120   4.180   6.806   3.013 -2.5115  2.6886  0.5877
  170SAPE   H2S19121   4.243   6.793   2.840  0.5877 -0.1344 -0.6235
  170SAPE    C319122   3.742   6.893   2.859 -0.1779  0.7721 -0.7121
  170SAPE    HX19123   3.752   6.788   2.826 -0.6094  0.5793 -0.2397
  170SAPE    HY19124   3.656   6.943   2.809 -2.8063 -1.1903  1.5664
  170SAPE   O3119125   3.720   6.919   3.000  0.6200 -0.2527  0.3596
  170SAPE   C3119126   3.746   6.811   3.075 -0.1997 -1.3772  0.0286
  170SAPE   O3219127   3.784   6.703   3.041  0.1092 -0.0557 -0.2684
  170SAPE   C3219128   3.720   6.859   3.214  0.3798 -0.7523  0.5563
  170SAPE   H2X19129   3.636   6.932   3.209 -0.3846 -1.6269  0.3333
  170SAPE   H2Y19130   3.813   6.906   3.253 -0.9761  1.8381  0.9480
  170SAPE   C2319131   4.351   6.947   2.949  0.9065 -0.4513  0.2190
  170SAPE   H3R19132   4.370   7.007   2.857 -1.8262 -1.2209 -0.9481
  170SAPE   H3S19133   4.431   6.870   2.947 -0.8283 -2.3138 -0.4453
  170SAPE   C2419134   4.341   7.028   3.077 -0.0344  0.1014  0.2783
  170SAPE   H4R19135   4.263   7.107   3.068  2.2839  2.4895 -0.2070
  170SAPE   H4S19136   4.435   7.087   3.087  0.8739 -1.5561  2.6946
  170SAPE   C2519137   4.318   6.946   3.207 -0.4790 -0.2625  0.3865
  170SAPE   H5R19138   4.389   6.863   3.213 -1.1395 -1.0456 -1.6404
  170SAPE   C2619139   4.238   6.979   3.306  0.1992 -0.0648 -0.3322
  170SAPE   H6R19140   4.239   6.905   3.387 -0.8391 -0.7755 -0.9354
  170SAPE   C2719141   4.141   7.097   3.301 -0.2855 -0.2405  0.6286
  170SAPE   H7R19142   4.043   7.055   3.271  0.3065 -2.2892  1.3932
  170SAPE   H7S19143   4.180   7.167   3.224 -0.0345 -1.1795 -0.1248
  170SAPE   C2819144   4.153   7.168   3.433  0.2823  0.3779 -0.3398
  170SAPE   H8R19145   4.232   7.243   3.444 -0.4053  1.2005 -0.8501
  170SAPE   C2919146   4.068   7.159   3.541  0.1933  0.0575  0.3545
  170SAPE   H9R19147   4.086   7.214   3.634 -0.4602  0.3541  0.3087
  170SAPE  C21019148   3.951   7.066   3.540 -0.5270  0.6036 -0.1329
  170SAPE  H10R19149   3.979   6.975   3.598 -0.7990 -0.4026 -1.5165
  170SAPE  H10S19150   3.940   7.016   3.441  2.0476 -1.0673  0.3235
  170SAPE  C21119151   3.824   7.128   3.583  0.2615  0.9009 -0.1308
  170SAPE  H11R19152   3.755   7.171   3.509  0.5141 -0.3368 -1.1159
  170SAPE  C21219153   3.766   7.119   3.706  0.6091 -0.3075  0.9514
  170SAPE  H12R19154   3.665   7.158   3.728  0.8401  1.7946 -1.3447
  170SAPE  C21319155   3.827   7.045   3.823 -0.3521  0.1904  0.9247
  170SAPE  H13R19156   3.887   6.959   3.784 -1.9441 -1.0093  1.0201
  170SAPE  H13S19157   3.750   6.998   3.887 -0.9578 -1.4832 -0.9097
  170SAPE  C21419158   3.919   7.126   3.897 -0.0654 -0.3744  0.3676
  170SAPE  H14R19159   3.932   7.231   3.866  1.5429 -0.3973  0.8438
  170SAPE  C21519160   3.986   7.075   4.007  0.6211  0.0040  0.4227
  170SAPE  H15R19161   4.050   7.145   4.063  2.8404 -2.5284  1.2285
  170SAPE  C21619162   3.974   6.937   4.069 -0.5175 -0.4172  0.3841
  170SAPE  H16R19163   4.080   6.906   4.070 -0.6908 -1.1206 -0.9745
  170SAPE  H16S19164   3.920   6.865   4.004 -1.4805 -0.2237  0.9375
  170SAPE  C21719165   3.899   6.942   4.202  0.4561 -0.3774 -0.1075
  170SAPE  H17R19166   3.888   6.842   4.249  0.8228 -0.5746 -0.4369
  170SAPE  H17S19167   3.791   6.957   4.183  0.4157 -2.4035 -1.7525
  170SAPE  C21819168   3.956   7.037   4.312 -0.8992  0.1073 -0.4719
  170SAPE  H18R19169   3.938   7.144   4.287 -2.5467 -0.1722 -0.5988
  170SAPE  H18S19170   4.065   7.025   4.328 -0.2576  5.1376  0.9940
  170SAPE  C21919171   3.906   7.007   4.455 -0.0260 -0.0035 -0.1107
  170SAPE  H19R19172   3.955   7.073   4.530  1.2165  1.4860 -2.1570
  170SAPE  H19S19173   3.955   6.912   4.487 -0.7885 -0.3650  0.0212
  170SAPE  C22019174   3.757   7.007   4.487  0.1070 -0.1263  0.3562
  170SAPE  H20R19175   3.691   6.993   4.399  1.7327  0.3812 -1.0005
  170SAPE  H20S19176   3.728   7.099   4.543  0.4878 -1.2477  2.5156
  170SAPE  H20T19177   3.732   6.928   4.561 -1.6406  0.7366  0.7470
  170SAPE   C3319178   3.682   6.737   3.311  0.1128 -0.6143 -0.5881
  170SAPE   H3X19179   3.763   6.661   3.308  1.0446  0.3532 -0.5619
  170SAPE   H3Y19180   3.601   6.679   3.263 -1.1043  0.8135 -0.3380
  170SAPE   C3419181   3.652   6.794   3.450 -0.0125  0.2264  0.5898
  170SAPE   H4X19182   3.558   6.852   3.434 -2.3790 -3.2484  0.8169
  170SAPE   H4Y19183   3.737   6.858   3.479  0.1775 -0.1365  0.8419
  170SAPE   C3519184   3.625   6.690   3.552 -0.4157  0.1861 -0.6852
  170SAPE   H5X19185   3.706   6.617   3.571 -1.8365 -1.0216  1.0605
  170SAPE   H5Y19186   3.539   6.629   3.518 -1.6450  1.1443  0.6005
  170SAPE   C3619187   3.586   6.758   3.684  0.5424 -0.7979  0.3732
  170SAPE   H6X19188   3.486   6.805   3.680  0.0823 -1.5572  2.0915
  170SAPE   H6Y19189   3.654   6.844   3.701 -2.1986  2.0393 -1.8604
  170SAPE   C3719190   3.596   6.666   3.800  0.1192 -0.3961 -0.5608
  170SAPE   H7X19191   3.699   6.628   3.785  0.8438  1.0221  0.6261
  170SAPE   H7Y19192   3.523   6.583   3.788 -0.8950 -0.3057  3.4847
  170SAPE   C3819193   3.572   6.747   3.932 -0.1897 -0.2850  0.4826
  170SAPE   H8X19194   3.472   6.795   3.924  0.3207  0.4374 -2.9936
  170SAPE   H8Y19195   3.644   6.831   3.936  0.3406 -0.6912 -0.3423
  170SAPE   C3919196   3.592   6.649   4.049 -0.2481 -0.1972 -0.7859
  170SAPE   H9X19197   3.689   6.596   4.043  0.3034  0.8460 -1.4933
  170SAPE   H9Y19198   3.518   6.566   4.045  0.1532 -0.5905 -0.0897
  170SAPE  C31019199   3.589   6.712   4.188  0.4603 -0.1664 -0.1199
  170SAPE  H10X19200   3.492   6.766   4.193  1.0337  0.8885 -0.1612
  170SAPE  H10Y19201   3.667   6.790   4.196  0.4006 -0.2928  2.4020
  170SAPE  C31119202   3.627   6.604   4.296 -0.3363  0.4490 -0.3562
  170SAPE  H11X19203   3.711   6.536   4.267 -2.1147 -2.0718  0.0571
  170SAPE  H11Y19204   3.534   6.546   4.315  0.2138 -0.0796  0.8600
  170SAPE  C31219205   3.693   6.672   4.419 -0.2918 -0.2005  0.5804
  170SAPE  H12X19206   3.632   6.762   4.441 -0.0791  0.0837  0.0324
  170SAPE  H12Y19207   3.800   6.699   4.406  0.0940 -2.1702 -0.8823
  170SAPE  C31319208   3.666   6.592   4.547  0.0374  0.4201 -0.8731
  170SAPE  H13X19209   3.557   6.585   4.568 -0.2840  1.2357 -2.1520
  170SAPE  H13Y19210   3.705   6.652   4.632 -0.7198 -0.0786 -0.1519
  170SAPE  C31419211   3.731   6.456   4.546  0.1080 -0.4520 -0.3399
  170SAPE  H14X19212   3.836   6.473   4.516  0.3516 -0.7888  0.2966
  170SAPE  H14Y19213   3.684   6.394   4.467 -0.1832 -0.3478 -0.2479
  170SAPE  C31519214   3.734   6.382   4.675  0.0765  0.1938 -0.2806
  170SAPE  H15X19215   3.800   6.446   4.738  1.1641  2.2262 -3.2135
  170SAPE  H15Y19216   3.781   6.282   4.666 -0.8994 -0.4513  1.3849
  170SAPE  C31619217   3.597   6.372   4.741 -0.7447 -0.5038  0.4610
  170SAPE  H16X19218   3.535   6.300   4.684 -0.6549 -1.6474  1.7635
  170SAPE  H16Y19219   3.538   6.466   4.746  0.9373  0.5760  0.5330
  170SAPE  C31719220   3.614   6.298   4.878  0.4434  1.2003 -0.5399
  170SAPE  H17X19221   3.690   6.221   4.856 -0.8838  0.5932 -3.4018
  170SAPE  H17Y19222   3.520   6.246   4.909  0.1410  0.7137 -2.1735
  170SAPE  C31819223   3.656   6.377   5.005  0.0360  0.0156 -0.0853
  170SAPE  H18X19224   3.731   6.453   4.975 -2.0036  1.3038 -2.2808
  170SAPE  H18Y19225   3.690   6.311   5.088 -0.5251  1.1324  1.0877
  170SAPE  H18Z19226   3.569   6.431   5.049 -0.8392 -1.1781 -0.2964
  171SAPE     N19227   4.821   6.696   2.622  0.6454 -0.1748  0.2172
  171SAPE   HN119228   4.780   6.792   2.618  0.7798 -0.1059  0.4370
  171SAPE   HN219229   4.836   6.673   2.522  1.7525  0.9991  0.0744
  171SAPE   HN319230   4.742   6.637   2.653  0.7252  0.8908  2.6947
  171SAPE   C1219231   4.946   6.675   2.705 -0.2067  0.2377  0.2334
  171SAPE  H12A19232   4.930   6.738   2.795 -0.7093 -1.5316  1.4353
  171SAPE  H12B19233   5.028   6.715   2.642 -0.9649  2.3968  0.5154
  171SAPE   C1119234   4.963   6.532   2.750 -0.2385 -0.8637  0.0853
  171SAPE  H11A19235   4.964   6.468   2.659  0.6677 -1.6105  0.6101
  171SAPE  H11B19236   4.880   6.500   2.816 -2.4181 -2.0779 -3.0188
  171SAPE     P19237   5.119   6.418   2.921  0.1399  0.1369  0.4459
  171SAPE   O1319238   5.092   6.281   2.867  0.3530 -0.8208 -0.1932
  171SAPE   O1419239   5.259   6.436   2.958  0.2636 -0.1927  0.3968
  171SAPE   O1219240   5.089   6.522   2.813 -0.0422  0.2980 -0.4550
  171SAPE   O1119241   5.026   6.458   3.031 -0.2127  0.1025 -0.0395
  171SAPE    C119242   5.046   6.586   3.101  0.6992  0.3696  0.2089
  171SAPE    HA19243   5.097   6.571   3.199  0.0028 -0.7168  0.4245
  171SAPE    HB19244   5.093   6.664   3.037 -1.6073  0.7050 -1.1910
  171SAPE    C219245   4.900   6.641   3.127 -0.7516  0.1718  0.4819
  171SAPE    HS19246   4.845   6.644   3.031 -0.6386  0.8054  0.4335
  171SAPE   O2119247   4.909   6.778   3.173 -0.2102 -0.1492  0.2869
  171SAPE   C2119248   4.790   6.833   3.180  0.0446  0.8841  0.7153
  171SAPE   O2219249   4.683   6.779   3.158 -0.0268  0.1110  0.4705
  171SAPE   C2219250   4.807   6.982   3.200  0.6370 -0.2074 -0.2479
  171SAPE   H2R19251   4.912   7.004   3.229  0.9911 -1.0533 -0.8469
  171SAPE   H2S19252   4.779   7.028   3.103 -2.1298  0.2194  0.6713
  171SAPE    C319253   4.837   6.537   3.239 -0.5506  0.5880  0.7954
  171SAPE    HX19254   4.851   6.437   3.193 -0.3165  1.0532 -0.1556
  171SAPE    HY19255   4.728   6.559   3.244 -0.3700  1.3601  1.3950
  171SAPE   O3119256   4.910   6.547   3.363 -0.6835 -0.3476  0.2210
  171SAPE   C3119257   4.842   6.536   3.477  0.2035  0.6681  0.9504
  171SAPE   O3219258   4.724   6.519   3.484  0.1689 -0.2854 -0.0387
  171SAPE   C3219259   4.944   6.539   3.595 -0.2707  0.1282  0.2125
  171SAPE   H2X19260   5.027   6.465   3.583 -2.1274 -2.3035  1.4102
  171SAPE   H2Y19261   4.889   6.498   3.682  0.0882  0.9707  0.8526
  171SAPE   C2319262   4.712   7.040   3.306 -0.4889  0.2252  1.1476
  171SAPE   H3R19263   4.611   6.996   3.289 -1.2655  2.0741  0.7239
  171SAPE   H3S19264   4.706   7.148   3.280 -0.2644 -0.0269  0.0252
  171SAPE   C2419265   4.755   7.008   3.451  0.4825 -0.2561  0.5113
  171SAPE   H4R19266   4.793   6.904   3.459  1.2646  0.0498  0.8450
  171SAPE   H4S19267   4.661   7.007   3.510  0.6261 -1.0764  0.7313
  171SAPE   C2519268   4.863   7.093   3.508  0.3862  0.0420 -0.2196
  171SAPE   H5R19269   4.912   7.153   3.430 -0.8238  0.2062 -0.8737
  171SAPE   C2619270   4.896   7.112   3.639 -0.7608  0.0712 -0.4758
  171SAPE   H6R19271   4.976   7.184   3.662 -0.0764 -1.6737  3.3157
  171SAPE   C2719272   4.842   7.046   3.755 -0.0865 -0.4213  0.5869
  171SAPE   H7R19273   4.769   6.968   3.724 -1.9608  0.7029  1.9669
  171SAPE   H7S19274   4.784   7.126   3.806 -0.0454  0.5466 -0.8441
  171SAPE   C2819275   4.959   6.996   3.842  0.1147  0.3779  0.6382
  171SAPE   H8R19276   5.035   6.940   3.786 -0.7718 -1.1468  0.8865
  171SAPE   C2919277   4.970   7.019   3.973  0.0485 -0.0787  0.4523
  171SAPE   H9R19278   5.056   6.970   4.021 -0.8283 -1.0549  1.0669
  171SAPE  C21019279   4.883   7.098   4.062  0.4566  0.1246  0.0961
  171SAPE  H10R19280   4.778   7.092   4.025  0.5005  2.2711 -0.5116
  171SAPE  H10S19281   4.911   7.206   4.061 -1.4473  0.7412 -3.2113
  171SAPE  C21119282   4.883   7.049   4.202  0.8004  0.0661  0.3622
  171SAPE  H11R19283   4.876   6.940   4.211  1.8777  0.1024  2.0677
  171SAPE  C21219284   4.877   7.126   4.316  0.4307  0.0610 -0.0849
  171SAPE  H12R19285   4.884   7.075   4.413 -0.8396  1.1008  0.5848
  171SAPE  C21319286   4.873   7.276   4.329  0.6354  0.3360  0.3722
  171SAPE  H13R19287   4.884   7.318   4.227  0.8269 -0.8127 -0.0970
  171SAPE  H13S19288   4.950   7.311   4.401 -0.6872  0.5404  1.7447
  171SAPE  C21419289   4.748   7.328   4.382  0.5340  0.1841  0.5766
  171SAPE  H14R19290   4.691   7.392   4.314  1.1287  1.9966  1.7031
  171SAPE  C21519291   4.702   7.337   4.510 -0.2485 -0.1830  0.2931
  171SAPE  H15R19292   4.605   7.387   4.520 -0.2426 -0.0711 -0.1616
  171SAPE  C21619293   4.764   7.277   4.636 -1.1475  0.1704 -0.0167
  171SAPE  H16R19294   4.771   7.355   4.715 -1.9110 -0.0472  0.2776
  171SAPE  H16S19295   4.858   7.229   4.603 -2.8559 -2.1863 -1.8038
  171SAPE  C21719296   4.660   7.171   4.688  0.2291 -0.0437 -0.2905
  171SAPE  H17R19297   4.555   7.206   4.699  0.4868 -0.0045  2.7668
  171SAPE  H17S19298   4.699   7.134   4.785 -0.0364  1.1551  0.2838
  171SAPE  C21819299   4.658   7.039   4.602  0.2334  0.2988 -0.2993
  171SAPE  H18R19300   4.761   7.022   4.564 -0.2115  2.1956 -2.5437
  171SAPE  H18S19301   4.598   7.052   4.510 -1.1189 -2.2394  0.1261
  171SAPE  C21919302   4.591   6.920   4.669  0.1627 -0.1850 -0.3875
  171SAPE  H19R19303   4.652   6.878   4.752 -0.7074 -0.8312 -0.0567
  171SAPE  H19S19304   4.588   6.832   4.601 -1.7406 -0.8075  0.4332
  171SAPE  C22019305   4.450   6.928   4.721 -0.5390 -0.4763 -0.0422
  171SAPE  H20R19306   4.385   6.965   4.638 -1.6861  1.7454  1.7404
  171SAPE  H20S19307   4.446   7.006   4.800 -1.9304 -0.2283 -0.3314
  171SAPE  H20T19308   4.417   6.833   4.768 -2.6063 -0.1549 -0.7287
  171SAPE   C3319309   5.016   6.679   3.613 -0.3087  0.2450 -0.6556
  171SAPE   H3X19310   4.939   6.757   3.630  0.0867  1.0405 -2.3602
  171SAPE   H3Y19311   5.057   6.712   3.516  0.7057  1.7281  0.2379
  171SAPE   C3419312   5.128   6.687   3.719  0.1272  0.5492 -0.1980
  171SAPE   H4X19313   5.183   6.784   3.713  1.1473 -0.0731 -1.6797
  171SAPE   H4Y19314   5.210   6.617   3.690  0.5682 -0.5270  3.2434
  171SAPE   C3519315   5.081   6.643   3.862 -0.2727  0.3769  1.0029
  171SAPE   H5X19316   5.060   6.533   3.864  0.4728  0.2105  3.5534
  171SAPE   H5Y19317   4.984   6.692   3.885 -0.5105  1.9436 -2.6482
  171SAPE   C3619318   5.187   6.672   3.967 -0.2229 -0.0712  0.0468
  171SAPE   H6X19319   5.180   6.780   3.992 -1.3842  0.3750 -2.0439
  171SAPE   H6Y19320   5.291   6.657   3.930  0.1157 -2.0801  1.6005
  171SAPE   C3719321   5.165   6.587   4.094  0.1088  0.1810 -0.8072
  171SAPE   H7X19322   5.177   6.486   4.050  0.2351 -0.5202  0.7605
  171SAPE   H7Y19323   5.064   6.580   4.141  0.9044  0.6150  1.0591
  171SAPE   C3819324   5.258   6.614   4.214 -0.2104 -0.1587  0.2136
  171SAPE   H8X19325   5.362   6.628   4.176  0.0003  0.2072  0.9130
  171SAPE   H8Y19326   5.250   6.525   4.280 -1.1291  1.8681  2.9997
  171SAPE   C3919327   5.226   6.731   4.308 -0.3453 -0.2898  0.7696
  171SAPE   H9X19328   5.189   6.820   4.252  1.3999 -0.9829 -1.6788
  171SAPE   H9Y19329   5.319   6.760   4.361 -2.0801  1.2856  3.1530
  171SAPE  C31019330   5.122   6.701   4.415 -0.0644 -0.0845 -0.1465
  171SAPE  H10X19331   5.171   6.643   4.496  2.4127  1.9203 -0.0949
  171SAPE  H10Y19332   5.044   6.637   4.368  0.7765 -1.1733 -0.0903
  171SAPE  C31119333   5.047   6.820   4.487  0.3580  0.1095 -0.0447
  171SAPE  H11X19334   4.980   6.785   4.569  1.8257  1.7398  1.9783
  171SAPE  H11Y19335   4.982   6.864   4.409 -2.7066 -0.9502  1.7521
  171SAPE  C31219336   5.143   6.914   4.563 -0.0742  0.0309  0.6130
  171SAPE  H12X19337   5.191   6.971   4.481 -1.2296  1.0498  0.6202
  171SAPE  H12Y19338   5.222   6.861   4.620 -0.0495 -1.3400 -0.6221
  171SAPE  C31319339   5.074   7.001   4.678 -0.5540 -0.7340  1.0135
  171SAPE  H13X19340   5.024   6.930   4.747 -2.1906 -0.8309 -0.2168
  171SAPE  H13Y19341   4.989   7.046   4.622  0.8747  1.3548  0.3950
  171SAPE  C31419342   5.167   7.113   4.733 -0.4892  0.0243 -0.3484
  171SAPE  H14X19343   5.185   7.186   4.651 -1.5810  0.4595 -0.2237
  171SAPE  H14Y19344   5.262   7.060   4.758 -0.6469  0.0702  0.3730
  171SAPE  C31519345   5.119   7.177   4.865  0.0165 -0.7025 -0.8872
  171SAPE  H15X19346   5.056   7.107   4.924  0.4559 -0.2129  0.1953
  171SAPE  H15Y19347   5.060   7.266   4.836 -0.5805 -0.6731  0.3725
  171SAPE  C31619348   5.243   7.218   4.951 -0.2531  0.0240  0.2067
  171SAPE  H16X19349   5.241   7.292   5.033  2.0506 -0.1388  0.4829
  171SAPE  H16Y19350   5.325   7.259   4.888  1.1112  1.2020  2.6137
  171SAPE  C31719351   5.305   7.098   5.026  0.4115  0.2830  0.3084
  171SAPE  H17X19352   5.317   7.012   4.958  1.7013  0.2458  0.5596
  171SAPE  H17Y19353   5.233   7.075   5.107 -1.1399  1.2609 -0.7424
  171SAPE  C31819354   5.445   7.118   5.088 -0.5101  0.5385 -0.6054
  171SAPE  H18X19355   5.489   7.028   5.137 -1.0126  0.0350 -1.0653
  171SAPE  H18Y19356   5.431   7.185   5.176  1.0939  2.2583 -1.5763
  171SAPE  H18Z19357   5.513   7.171   5.018 -0.7756  0.9617 -0.5447
  172SAPE     N19358   5.653   0.126   2.455  0.7744 -0.3896 -0.3404
  172SAPE   HN119359   5.748   0.164   2.477  0.8668 -1.5949  1.6409
  172SAPE   HN219360   5.619   0.097   2.549  0.9979 -1.8999 -0.6974
  172SAPE   HN319361   5.669   0.036   2.405 -1.0655 -0.8519 -0.1724
  172SAPE   C1219362   5.560   0.209   2.373  0.0683  0.2349 -0.3873
  172SAPE  H12A19363   5.484   0.250   2.442  0.2031 -0.2254  0.0393
  172SAPE  H12B19364   5.506   0.134   2.311 -2.6642  1.3228  0.5211
  172SAPE   C1119365   5.622   0.306   2.278  1.2843 -0.7933 -0.1625
  172SAPE  H11A19366   5.539   0.360   2.227  0.1477  0.5755  2.9008
  172SAPE  H11B19367   5.680   0.249   2.203  1.4303  0.9942 -1.4805
  172SAPE     P19368   5.653   0.551   2.374 -0.4123  0.3032 -0.1500
  172SAPE   O1319369   5.765   0.645   2.345  0.1246  0.1667 -0.1838
  172SAPE   O1419370   5.529   0.571   2.293  0.4455 -0.8532 -0.6687
  172SAPE   O1219371   5.716   0.407   2.326 -0.1229 -0.1715  0.0283
  172SAPE   O1119372   5.631   0.546   2.535 -0.2838 -0.6252  0.0552
  172SAPE    C119373   5.735   0.579   2.624 -0.2847  0.0567 -0.0846
  172SAPE    HA19374   5.808   0.497   2.645 -0.2756 -0.5321 -2.2086
  172SAPE    HB19375   5.795   0.664   2.585 -1.6720  0.7745 -0.6987
  172SAPE    C219376   5.694   0.638   2.769  0.0577  0.1350 -0.3348
  172SAPE    HS19377   5.788   0.685   2.805  1.3871 -2.3756 -0.3325
  172SAPE   O2119378   5.647   0.544   2.863  0.3795  0.6247  0.0568
  172SAPE   C2119379   5.735   0.463   2.911 -0.6401  0.0715 -0.4836
  172SAPE   O2219380   5.851   0.478   2.892  0.1116  0.4637 -0.1474
  172SAPE   C2219381   5.674   0.360   3.011  0.7149 -0.2523 -0.1255
  172SAPE   H2R19382   5.569   0.384   3.041  0.4274  0.7783 -1.8450
  172SAPE   H2S19383   5.672   0.277   2.938  1.3884  1.3250 -2.0076
  172SAPE    C319384   5.592   0.748   2.757 -0.3037 -0.0484  0.4319
  172SAPE    HX19385   5.499   0.711   2.710 -0.8212  1.5870  0.0870
  172SAPE    HY19386   5.642   0.827   2.697 -0.6139  0.9081  1.3934
  172SAPE   O3119387   5.570   0.802   2.888  0.9484  0.3779 -0.1554
  172SAPE   C3119388   5.452   0.780   2.948  0.2364 -0.0783  0.0033
  172SAPE   O3219389   5.359   0.711   2.911  0.6736  0.4942 -0.1316
  172SAPE   C3219390   5.429   0.862   3.077 -0.0124 -0.2694 -0.6855
  172SAPE   H2X19391   5.365   0.948   3.050 -1.1199 -1.6856 -2.9590
  172SAPE   H2Y19392   5.530   0.892   3.113  0.6587 -2.4190 -0.6063
  172SAPE   C2319393   5.765   0.329   3.129 -0.2560 -0.3448 -0.6748
  172SAPE   H3R19394   5.766   0.417   3.197 -1.2239  1.1123 -2.4375
  172SAPE   H3S19395   5.870   0.315   3.097  0.5006  0.8298  1.1519
  172SAPE   C2419396   5.731   0.195   3.204 -0.1343 -0.1727  0.5123
  172SAPE   H4R19397   5.699   0.118   3.130 -3.6993  2.9239 -1.5064
  172SAPE   H4S19398   5.638   0.226   3.257 -0.9166 -0.8920 -0.4050
  172SAPE   C2519399   5.841   0.155   3.301  0.3723  0.6411 -0.1358
  172SAPE   H5R19400   5.918   0.086   3.262  2.6861  1.9034  1.9425
  172SAPE   C2619401   5.855   0.201   3.424 -0.7130  0.2224  0.5572
  172SAPE   H6R19402   5.927   0.140   3.481 -1.8004  0.7722  2.6048
  172SAPE   C2719403   5.760   0.296   3.498 -0.2585 -0.0129 -0.5355
  172SAPE   H7R19404   5.703   0.228   3.564  1.4147  0.6865  1.7696
  172SAPE   H7S19405   5.691   0.364   3.445  3.8519  2.3732 -3.4467
  172SAPE   C2819406   5.845   0.387   3.581  0.3433  0.7731 -0.3581
  172SAPE   H8R19407   5.885   0.472   3.523  1.6053  0.8392  0.5914
  172SAPE   C2919408   5.883   0.383   3.712 -0.5892 -0.3814 -0.3902
  172SAPE   H9R19409   5.953   0.462   3.744  0.3709 -1.5797  0.5912
  172SAPE  C21019410   5.838   0.293   3.821 -0.5227  0.2184 -0.0930
  172SAPE  H10R19411   5.930   0.270   3.879 -0.4860  3.5345  1.3700
  172SAPE  H10S19412   5.798   0.198   3.780 -2.2366  0.0327  1.8206
  172SAPE  C21119413   5.719   0.344   3.892 -0.1799  0.0440  0.4656
  172SAPE  H11R19414   5.637   0.365   3.821  0.5601 -1.2483 -0.8249
  172SAPE  C21219415   5.709   0.343   4.031 -0.3522  0.2226 -0.4529
  172SAPE  H12R19416   5.613   0.369   4.078 -1.2013 -1.2617 -1.2731
  172SAPE  C21319417   5.810   0.293   4.130 -0.9570  0.4566 -0.1304
  172SAPE  H13R19418   5.781   0.323   4.233  0.1130 -0.7888  0.5590
  172SAPE  H13S19419   5.910   0.331   4.099 -1.0483  1.4374  0.7224
  172SAPE  C21419420   5.811   0.145   4.149 -1.5984  0.7275 -0.1713
  172SAPE  H14R19421   5.733   0.087   4.097  0.5814 -0.7723 -1.9221
  172SAPE  C21519422   5.904   0.070   4.217  0.6877 -1.3308 -0.2369
  172SAPE  H15R19423   5.900  -0.039   4.225  1.0881 -1.2377  1.7682
  172SAPE  C21619424   6.022   0.127   4.294  0.1675 -0.5694 -0.0508
  172SAPE  H16R19425   6.013   0.237   4.284 -3.1823 -0.4197  2.8580
  172SAPE  H16S19426   6.119   0.097   4.249 -0.3792 -0.6857 -1.1689
  172SAPE  C21719427   6.023   0.092   4.447  0.7815 -0.7264 -0.4174
  172SAPE  H17R19428   5.917   0.080   4.476  0.8724 -3.1080 -0.8979
  172SAPE  H17S19429   6.077   0.179   4.491 -0.0873  0.9981 -2.5765
  172SAPE  C21819430   6.079  -0.045   4.491 -0.5335  0.2916  0.1046
  172SAPE  H18R19431   6.171  -0.038   4.428 -0.3826 -0.4258  0.2418
  172SAPE  H18S19432   6.016  -0.125   4.448 -0.0209 -0.0466 -0.0303
  172SAPE  C21919433   6.127  -0.060   4.637 -0.4474  0.4041 -0.3137
  172SAPE  H19R19434   6.033  -0.053   4.695 -1.5976 -1.2513 -1.8760
  172SAPE  H19S19435   6.202   0.017   4.667  2.6211 -2.2365 -0.5831
  172SAPE  C22019436   6.177  -0.201   4.662 -0.1199 -0.7664 -0.1759
  172SAPE  H20R19437   6.100  -0.280   4.665 -0.2041 -0.7709 -1.5530
  172SAPE  H20S19438   6.231  -0.201   4.759 -1.4106 -0.5532  0.5637
  172SAPE  H20T19439   6.254  -0.233   4.588  1.1862 -1.0566  1.2399
  172SAPE   C3319440   5.367   0.767   3.180 -0.0490  0.2751  0.3714
  172SAPE   H3X19441   5.418   0.668   3.177 -1.2383 -0.3562  0.1804
  172SAPE   H3Y19442   5.257   0.753   3.164  0.4904 -2.4787 -1.6559
  172SAPE   C3419443   5.390   0.818   3.324  0.7093  0.5546 -0.1340
  172SAPE   H4X19444   5.304   0.882   3.354 -0.1143 -1.1701  1.3368
  172SAPE   H4Y19445   5.489   0.867   3.331  1.9485 -1.9130  0.3809
  172SAPE   C3519446   5.392   0.711   3.434  0.5293  0.5768  0.1006
  172SAPE   H5X19447   5.469   0.633   3.418 -0.0822 -0.4184  1.7397
  172SAPE   H5Y19448   5.299   0.651   3.427  3.1008 -3.7592 -0.3612
  172SAPE   C3619449   5.409   0.781   3.569  0.1701 -0.2018 -0.1351
  172SAPE   H6X19450   5.317   0.831   3.608  0.9458  0.3000  1.1193
  172SAPE   H6Y19451   5.480   0.865   3.554  0.2871 -0.3285 -0.2908
  172SAPE   C3719452   5.460   0.691   3.683  0.2719  0.5450  0.0289
  172SAPE   H7X19453   5.561   0.649   3.663 -0.0635 -0.5528  0.5555
  172SAPE   H7Y19454   5.379   0.616   3.696  1.5816 -0.5423  2.9212
  172SAPE   C3819455   5.470   0.769   3.818  0.0752 -0.1464 -0.0411
  172SAPE   H8X19456   5.373   0.820   3.838 -1.1143 -2.5494  0.6239
  172SAPE   H8Y19457   5.545   0.849   3.800 -0.7500  0.9946  1.3948
  172SAPE   C3919458   5.504   0.670   3.931 -0.0805  0.2219  0.0157
  172SAPE   H9X19459   5.600   0.619   3.906 -1.6418 -3.3778  0.7567
  172SAPE   H9Y19460   5.421   0.597   3.942  0.9618 -1.1323 -0.7742
  172SAPE  C31019461   5.524   0.750   4.069 -0.4636 -0.5840 -0.4068
  172SAPE  H10X19462   5.423   0.774   4.109  0.3548  0.1710  1.2969
  172SAPE  H10Y19463   5.588   0.840   4.056  0.7213 -1.3704 -0.1757
  172SAPE  C31119464   5.588   0.648   4.167 -0.0470 -0.4466 -0.7570
  172SAPE  H11X19465   5.693   0.638   4.133  0.9334  1.5909  1.3559
  172SAPE  H11Y19466   5.543   0.547   4.161  1.9368 -1.9654  4.3016
  172SAPE  C31219467   5.582   0.681   4.317 -0.1324 -0.1546 -0.1649
  172SAPE  H12X19468   5.479   0.664   4.354 -0.8391  2.0318 -1.0148
  172SAPE  H12Y19469   5.608   0.788   4.332  0.8715 -0.0988 -1.9215
  172SAPE  C31319470   5.682   0.590   4.391  0.1424 -0.1645  0.0761
  172SAPE  H13X19471   5.780   0.633   4.361 -0.3611  0.8737 -0.1133
  172SAPE  H13Y19472   5.672   0.493   4.337  2.7281 -0.3444 -0.2279
  172SAPE  C31419473   5.663   0.597   4.541 -0.9112 -0.8754 -0.3766
  172SAPE  H14X19474   5.702   0.502   4.583 -0.8138 -1.0894 -0.9402
  172SAPE  H14Y19475   5.554   0.597   4.558 -0.8097 -0.0994  0.3729
  172SAPE  C31519476   5.718   0.727   4.599 -0.1519 -0.0395  0.1838
  172SAPE  H15X19477   5.696   0.809   4.526  2.8815 -1.5486 -2.6823
  172SAPE  H15Y19478   5.828   0.712   4.603  0.0556  1.4462  0.8662
  172SAPE  C31619479   5.676   0.755   4.743 -0.8676 -0.6481 -0.0655
  172SAPE  H16X19480   5.568   0.780   4.744 -0.4702  1.1613 -0.1517
  172SAPE  H16Y19481   5.722   0.852   4.770 -0.6455  0.2642 -3.3119
  172SAPE  C31719482   5.690   0.638   4.845  0.1715  0.0067  0.7353
  172SAPE  H17X19483   5.640   0.547   4.806  1.6896  0.7505 -3.4719
  172SAPE  H17Y19484   5.644   0.668   4.942 -2.8775  0.7931 -0.8358
  172SAPE  C31819485   5.837   0.605   4.875 -0.0782 -0.1942  0.5274
  172SAPE  H18X19486   5.841   0.519   4.945  1.5217 -1.6322 -1.2159
  172SAPE  H18Y19487   5.880   0.700   4.914  3.1794 -1.3697  0.1028
  172SAPE  H18Z19488   5.902   0.586   4.787  0.1392 -2.0468  1.0564
  173SLPC     N19489   5.162   2.900   7.133 -0.5129  0.5251  0.2134
  173SLPC   C1319490   5.023   2.894   7.194  0.6255  0.0154  0.1978
  173SLPC  H13A19491   5.010   2.967   7.272 -0.3451 -0.1147  0.1696
  173SLPC  H13B19492   4.944   2.903   7.120 -0.0619 -1.7032  0.6775
  173SLPC  H13C19493   5.001   2.794   7.227 -0.0718  0.7907  2.2171
  173SLPC   C1419494   5.173   2.804   7.015  0.0197 -0.2563  0.1118
  173SLPC  H14A19495   5.118   2.842   6.931 -0.6080  3.6236  2.0700
  173SLPC  H14B19496   5.276   2.790   6.984  0.4219 -2.4210  2.0818
  173SLPC  H14C19497   5.130   2.708   7.039  0.1293 -0.6202 -1.0809
  173SLPC   C1519498   5.250   2.857   7.247 -0.5404  0.1632  0.6347
  173SLPC  H15A19499   5.355   2.878   7.233 -1.2376  2.7581 -1.4844
  173SLPC  H15B19500   5.216   2.916   7.331 -0.4513 -0.3718  1.0501
  173SLPC  H15C19501   5.235   2.753   7.268 -1.5843  0.2285  0.2947
  173SLPC   C1219502   5.201   3.040   7.087  0.1368  0.4851 -0.6360
  173SLPC  H12A19503   5.295   3.039   7.033  1.3798  0.8838  1.4050
  173SLPC  H12B19504   5.202   3.106   7.173  1.1354 -0.8491  0.4061
  173SLPC   C1119505   5.096   3.101   6.992  0.6542  0.7346  0.2623
  173SLPC  H11A19506   4.993   3.097   7.035  1.4123  0.5803  2.1724
  173SLPC  H11B19507   5.085   3.043   6.898 -0.9454  1.7527 -0.2086
  173SLPC     P19508   5.236   3.288   6.880  0.0838  0.2811  0.4630
  173SLPC   O1319509   5.250   3.433   6.892 -0.2925 -0.2886 -0.1831
  173SLPC   O1419510   5.355   3.204   6.914 -0.4783  0.2759  0.2361
  173SLPC   O1219511   5.114   3.244   6.969  0.1630  0.3125 -0.2140
  173SLPC   O1119512   5.199   3.246   6.732  0.6056  0.0925  0.5961
  173SLPC    C119513   5.062   3.270   6.685 -0.2319 -0.3512 -0.4184
  173SLPC    HA19514   5.004   3.177   6.706 -1.8150  0.5623 -0.6609
  173SLPC    HB19515   5.007   3.354   6.732 -2.1429 -1.6839 -0.1255
  173SLPC    C219516   5.056   3.293   6.533 -0.2053  0.0166 -0.0375
  173SLPC    HS19517   5.062   3.401   6.504  0.4071  0.3241  1.1820
  173SLPC   O2119518   4.939   3.232   6.469 -0.2055 -0.1697  0.0390
  173SLPC   C2119519   4.828   3.303   6.501  0.1237  0.1228  0.2266
  173SLPC   O2219520   4.833   3.412   6.552  0.2363  0.3306  0.2242
  173SLPC   C2219521   4.703   3.232   6.453  0.1495  0.1624  0.2824
  173SLPC   H2R19522   4.704   3.187   6.352  0.7622  1.9392 -0.5371
  173SLPC   H2S19523   4.688   3.146   6.522 -0.5889 -0.4664 -0.6391
  173SLPC    C319524   5.179   3.213   6.474  0.6089  0.7826  0.1011
  173SLPC    HX19525   5.170   3.114   6.525  2.0363  1.1853  1.2146
  173SLPC    HY19526   5.269   3.261   6.518  1.5358 -0.1923 -0.6807
  173SLPC   O3119527   5.180   3.201   6.326  0.2886  0.1433 -0.4077
  173SLPC   C3119528   5.231   3.311   6.273 -0.5958  0.3705  0.4987
  173SLPC   O3219529   5.264   3.412   6.325 -0.4279  0.8330 -0.0090
  173SLPC   C3219530   5.230   3.294   6.125  0.3910  0.0517  0.4717
  173SLPC   H2X19531   5.125   3.309   6.090  1.1658 -0.5676 -2.3108
  173SLPC   H2Y19532   5.270   3.195   6.098 -1.9908 -1.4981  2.1903
  173SLPC   C2319533   4.572   3.323   6.461  0.2062 -1.1065 -0.0963
  173SLPC   H3R19534   4.594   3.427   6.428 -1.6224 -1.3622 -2.4097
  173SLPC   H3S19535   4.531   3.326   6.565 -0.7125  0.2109 -0.4689
  173SLPC   C2419536   4.457   3.259   6.378 -0.5356 -0.5439  0.1516
  173SLPC   H4R19537   4.361   3.295   6.420 -0.8479 -1.3593  0.1605
  173SLPC   H4S19538   4.451   3.148   6.384 -3.3427 -0.5362 -0.9490
  173SLPC   C2519539   4.467   3.305   6.230  0.1101  0.4097 -0.3592
  173SLPC   H5R19540   4.560   3.264   6.183 -0.8423 -1.2794 -0.8627
  173SLPC   H5S19541   4.476   3.415   6.222  3.9222  0.1813 -1.4208
  173SLPC   C2619542   4.355   3.259   6.127  0.0587  0.2984 -0.8849
  173SLPC   H6R19543   4.252   3.290   6.158  0.7418  0.6817  1.1721
  173SLPC   H6S19544   4.344   3.149   6.132 -1.1786  0.3848 -1.4058
  173SLPC   C2719545   4.376   3.289   5.973 -0.1327 -0.2429 -0.2424
  173SLPC   H7R19546   4.479   3.252   5.956 -1.2205 -4.2751  1.0277
  173SLPC   H7S19547   4.384   3.400   5.970 -2.1017  0.1633  3.3895
  173SLPC   C2819548   4.268   3.252   5.868  0.9212  0.0115  0.5122
  173SLPC   H8R19549   4.286   3.322   5.784 -0.7862  0.0456  0.1445
  173SLPC   H8S19550   4.168   3.274   5.912  1.7698  4.5148  0.5745
  173SLPC   C2919551   4.292   3.100   5.836 -0.1869 -0.1998  0.3933
  173SLPC   H9R19552   4.296   3.038   5.927  2.2003  0.6007  0.9132
  173SLPC  C21019553   4.314   3.033   5.724 -0.0144  0.1535 -0.1066
  173SLPC  H10R19554   4.344   2.928   5.724 -1.2100 -0.2312  1.5903
  173SLPC  C21119555   4.315   3.096   5.583  0.3176  0.1229 -0.2906
  173SLPC  H11R19556   4.387   3.033   5.526  1.8567  1.3661  0.2244
  173SLPC  H11S19557   4.363   3.196   5.577 -0.3248  0.4686  0.1228
  173SLPC  C21219558   4.176   3.101   5.527  1.4600  0.1055 -0.3139
  173SLPC  H12R19559   4.101   3.152   5.590  0.5624 -0.9045 -0.5383
  173SLPC  C21319560   4.133   3.060   5.413  0.3554 -0.4607 -0.4522
  173SLPC  H13R19561   4.026   3.070   5.389  0.6751  1.8080 -1.1320
  173SLPC  C21419562   4.223   2.995   5.301  0.4734  0.1793 -0.0128
  173SLPC  H14R19563   4.230   2.888   5.328 -1.3067  0.0333  0.0038
  173SLPC  H14S19564   4.325   3.036   5.286  1.3580 -2.0681 -0.4357
  173SLPC  C21519565   4.160   2.993   5.158  0.1252  0.5269  0.0711
  173SLPC  H15R19566   4.051   2.975   5.169  0.2106 -0.2264 -0.2263
  173SLPC  H15S19567   4.207   2.917   5.092  0.0642 -1.7619  2.5106
  173SLPC  C21619568   4.179   3.130   5.089  0.2640  0.1997  0.2957
  173SLPC  H16R19569   4.287   3.155   5.079  0.1621 -0.1352 -2.1750
  173SLPC  H16S19570   4.121   3.209   5.140 -0.1711  0.2642 -0.3021
  173SLPC  C21719571   4.126   3.127   4.943  0.6340  0.1970 -0.6795
  173SLPC  H17R19572   4.016   3.117   4.932  0.8432  0.9699 -4.8727
  173SLPC  H17S19573   4.171   3.046   4.882 -0.1732 -1.1791  0.4809
  173SLPC  C21819574   4.183   3.245   4.867  0.7278  0.5634 -0.0601
  173SLPC  H18R19575   4.158   3.232   4.759 -0.4241  0.4175  0.2152
  173SLPC  H18S19576   4.293   3.254   4.879  0.9787  0.7144 -2.0959
  173SLPC  H18T19577   4.127   3.334   4.904 -1.9902 -1.2007  0.3028
  173SLPC   C3319578   5.311   3.402   6.045  0.2829 -0.2934 -0.2161
  173SLPC   H3X19579   5.413   3.415   6.088  0.1696 -0.0409 -0.0247
  173SLPC   H3Y19580   5.240   3.487   6.050 -3.4016 -3.1565 -0.3496
  173SLPC   C3419581   5.301   3.368   5.899 -0.3622 -0.1942  0.3460
  173SLPC   H4X19582   5.326   3.264   5.868 -0.4154 -0.4206  1.0486
  173SLPC   H4Y19583   5.373   3.431   5.842 -0.5923  0.5361  0.8534
  173SLPC   C3519584   5.168   3.395   5.827 -0.3330 -0.9030 -0.4203
  173SLPC   H5X19585   5.135   3.501   5.833  1.5682 -0.3076  0.0879
  173SLPC   H5Y19586   5.087   3.333   5.872 -1.5829 -0.0475 -1.3816
  173SLPC   C3619587   5.165   3.353   5.677  0.8631 -0.5877  0.2289
  173SLPC   H6X19588   5.062   3.378   5.644  1.4809 -2.6568 -3.9526
  173SLPC   H6Y19589   5.174   3.243   5.674  0.5831 -0.5999 -2.9254
  173SLPC   C3719590   5.259   3.423   5.590 -0.2331 -0.4162  0.2019
  173SLPC   H7X19591   5.365   3.408   5.622  0.1436  1.4523 -0.0597
  173SLPC   H7Y19592   5.231   3.530   5.592  0.3887 -0.2600  2.0021
  173SLPC   C3819593   5.236   3.372   5.449  0.3571  0.3261 -0.2049
  173SLPC   H8X19594   5.216   3.263   5.455  2.4114 -0.2054 -1.8578
  173SLPC   H8Y19595   5.330   3.374   5.390  0.8143  1.1400  0.5384
  173SLPC   C3919596   5.107   3.435   5.373  0.0767 -0.5312 -0.2942
  173SLPC   H9X19597   5.127   3.543   5.359 -2.5896 -0.0745 -1.2183
  173SLPC   H9Y19598   5.016   3.418   5.435  0.2904 -1.5101 -0.2269
  173SLPC  C31019599   5.084   3.385   5.232 -0.1076  0.0410 -0.3567
  173SLPC  H10X19600   5.097   3.275   5.244  0.5944  0.1553  0.0122
  173SLPC  H10Y19601   5.174   3.402   5.171  0.7512 -4.2516 -0.6182
  173SLPC  C31119602   4.950   3.413   5.158  0.1711  0.5378 -0.2243
  173SLPC  H11X19603   4.918   3.518   5.172 -0.0825  0.4936 -0.4586
  173SLPC  H11Y19604   4.867   3.355   5.203  0.4604 -0.2189 -0.6403
  173SLPC  C31219605   4.969   3.394   5.007  0.2178 -0.3090 -0.4428
  173SLPC  H12X19606   4.989   3.288   4.980 -2.4163 -0.0792 -4.0266
  173SLPC  H12Y19607   5.048   3.467   4.977 -0.8161  0.4270 -1.4644
  173SLPC  C31319608   4.852   3.443   4.914 -0.2960  0.8910 -0.8109
  173SLPC  H13X19609   4.817   3.543   4.948  1.1298  0.9180  0.7029
  173SLPC  H13Y19610   4.759   3.383   4.928 -0.2512  1.1360  0.7448
  173SLPC  C31419611   4.892   3.444   4.761  0.3018 -1.1494 -0.7277
  173SLPC  H14X19612   4.889   3.344   4.713  1.4640 -0.6764 -1.8614
  173SLPC  H14Y19613   4.997   3.480   4.756  0.2089 -0.3808  1.7481
  173SLPC  C31519614   4.799   3.530   4.670 -0.3566 -0.3444  0.7198
  173SLPC  H15X19615   4.856   3.586   4.593  0.3200  1.6331  2.5717
  173SLPC  H15Y19616   4.746   3.603   4.733 -2.2256  0.8219 -2.0225
  173SLPC  C31619617   4.689   3.446   4.605 -0.1467 -0.0530 -0.3978
  173SLPC  H16X19618   4.629   3.399   4.686 -0.7368 -2.0523 -1.9007
  173SLPC  H16Y19619   4.740   3.367   4.545  1.0019  1.2950 -1.2708
  173SLPC  C31719620   4.591   3.506   4.511 -0.2851  0.3141  0.3823
  173SLPC  H17X19621   4.653   3.554   4.432 -0.4052 -0.8626 -0.4660
  173SLPC  H17Y19622   4.520   3.580   4.553 -0.7953 -0.1257  0.3178
  173SLPC  C31819623   4.489   3.398   4.464 -0.5120  0.1279 -0.6778
  173SLPC  H18X19624   4.466   3.331   4.551  1.7406  0.5282  0.2901
  173SLPC  H18Y19625   4.539   3.333   4.389  1.8738  0.3300  0.6542
  173SLPC  H18Z19626   4.405   3.443   4.407  0.8766  0.8337 -2.2296
  174SLPC     N19627   1.265   3.449   7.167  0.9159  0.3349 -0.9491
  174SLPC   C1319628   1.302   3.584   7.228  0.3489  0.8913  0.9224
  174SLPC  H13A19629   1.289   3.657   7.150 -3.5535 -1.2601 -0.7277
  174SLPC  H13B19630   1.259   3.615   7.322 -0.3073  0.8336  0.6463
  174SLPC  H13C19631   1.408   3.578   7.247  0.5474  2.6386  0.5059
  174SLPC   C1419632   1.115   3.441   7.139  0.7772 -0.2666  0.5345
  174SLPC  H14A19633   1.080   3.528   7.085 -1.8677 -0.1090  2.3316
  174SLPC  H14B19634   1.082   3.345   7.100 -0.7255 -0.1295  1.3723
  174SLPC  H14C19635   1.060   3.457   7.230  3.7217 -0.0366  2.4005
  174SLPC   C1519636   1.303   3.340   7.270 -0.5609  0.1723 -0.8316
  174SLPC  H15A19637   1.410   3.347   7.284 -0.7168  2.2870 -0.3857
  174SLPC  H15B19638   1.252   3.356   7.364  1.0275  0.2718  0.0460
  174SLPC  H15C19639   1.280   3.239   7.239  0.5217 -1.3553  2.8327
  174SLPC   C1219640   1.340   3.425   7.038  0.3545 -0.7314 -0.4378
  174SLPC  H12A19641   1.295   3.342   6.986 -1.5592  0.7869 -1.3172
  174SLPC  H12B19642   1.445   3.411   7.061 -0.3423 -1.5193  2.7934
  174SLPC   C1119643   1.347   3.539   6.929 -0.0705  0.8351 -0.9403
  174SLPC  H11A19644   1.242   3.557   6.896 -0.8961  0.8639  1.4896
  174SLPC  H11B19645   1.411   3.501   6.846 -0.6143  0.2963 -1.1197
  174SLPC     P19646   1.548   3.713   6.965 -0.0161  0.0024  0.1135
  174SLPC   O1319647   1.567   3.855   7.006 -0.0579  0.3832 -0.4743
  174SLPC   O1419648   1.640   3.614   7.027 -0.0200  0.1861  0.1113
  174SLPC   O1219649   1.395   3.668   6.984  1.0367  0.9513 -0.4722
  174SLPC   O1119650   1.569   3.708   6.804 -0.1442 -0.0571 -0.7617
  174SLPC    C119651   1.502   3.812   6.730  0.2133  0.2067  0.1108
  174SLPC    HA19652   1.407   3.847   6.776  1.8419  0.8148  3.2720
  174SLPC    HB19653   1.570   3.900   6.728 -1.7134  1.7648 -0.2145
  174SLPC    C219654   1.463   3.762   6.586 -0.4871 -0.6011  0.4160
  174SLPC    HS19655   1.388   3.680   6.593  0.4238 -1.4398  0.6456
  174SLPC   O2119656   1.586   3.721   6.517  0.2600  0.7616 -0.3606
  174SLPC   C2119657   1.600   3.592   6.504  0.8750 -0.1613  0.1095
  174SLPC   O2219658   1.523   3.504   6.537 -0.3832  0.1860  0.3789
  174SLPC   C2219659   1.723   3.568   6.421 -0.3295 -0.7067  0.4164
  174SLPC   H2R19660   1.765   3.657   6.369  4.5327 -1.0551  3.2171
  174SLPC   H2S19661   1.798   3.550   6.500  0.7178  0.0246 -0.3896
  174SLPC    C319662   1.400   3.879   6.510 -0.3949  0.2522 -0.2478
  174SLPC    HX19663   1.485   3.947   6.487  0.8467 -0.6211  1.5249
  174SLPC    HY19664   1.327   3.930   6.576  0.4907 -0.4443  1.3280
  174SLPC   O3119665   1.344   3.833   6.388 -0.4793  0.2313 -0.1651
  174SLPC   C3119666   1.227   3.766   6.392 -0.0263  0.2377  0.1691
  174SLPC   O3219667   1.158   3.754   6.491  0.2495  0.0965  0.2083
  174SLPC   C3219668   1.201   3.727   6.241 -0.1375 -0.1136 -0.3751
  174SLPC   H2X19669   1.271   3.645   6.215 -2.0684 -1.8819 -0.2468
  174SLPC   H2Y19670   1.209   3.820   6.181  0.7326 -0.2923 -0.5396
  174SLPC   C2319671   1.696   3.455   6.325  0.6672 -0.3801 -0.4706
  174SLPC   H3R19672   1.654   3.362   6.367 -0.1504 -0.5774 -1.6673
  174SLPC   H3S19673   1.796   3.419   6.291  1.1605 -0.7895  1.2969
  174SLPC   C2419674   1.614   3.513   6.207 -0.0721 -0.5212  0.2091
  174SLPC   H4R19675   1.652   3.605   6.158 -1.1062 -0.5376 -0.6635
  174SLPC   H4S19676   1.523   3.554   6.255  0.3442 -1.6029  2.0099
  174SLPC   C2519677   1.568   3.418   6.101 -0.2112  0.8544  0.5099
  174SLPC   H5R19678   1.518   3.328   6.143 -0.7475  0.5398 -0.7425
  174SLPC   H5S19679   1.654   3.364   6.056 -1.4180 -1.6733  1.0774
  174SLPC   C2619680   1.477   3.488   5.999 -0.2638  0.4183  0.3618
  174SLPC   H6R19681   1.515   3.592   5.988 -1.1336  0.6439 -0.6374
  174SLPC   H6S19682   1.374   3.486   6.041 -0.2843 -0.4790  0.2893
  174SLPC   C2719683   1.484   3.438   5.854  0.1537  0.2824  0.3441
  174SLPC   H7R19684   1.509   3.330   5.854 -1.7632 -0.2291 -1.5577
  174SLPC   H7S19685   1.564   3.492   5.799  0.0190 -0.5938 -0.7574
  174SLPC   C2819686   1.348   3.460   5.779  0.1406 -0.5554  0.8449
  174SLPC   H8R19687   1.325   3.568   5.765 -1.2742 -1.0837 -1.4621
  174SLPC   H8S19688   1.278   3.408   5.848  3.1604 -3.6338  1.8305
  174SLPC   C2919689   1.343   3.385   5.649  0.0643  0.2446  0.6205
  174SLPC   H9R19690   1.315   3.279   5.658  0.5147 -0.0372 -1.0037
  174SLPC  C21019691   1.386   3.430   5.534 -1.3229 -0.9645  0.8335
  174SLPC  H10R19692   1.373   3.363   5.447 -0.3479 -1.2141  0.8654
  174SLPC  C21119693   1.423   3.578   5.495 -0.1812  0.1486 -0.1082
  174SLPC  H11R19694   1.451   3.634   5.587  1.4266 -1.8196  0.6897
  174SLPC  H11S19695   1.339   3.620   5.436  1.7902  2.1528 -1.6091
  174SLPC  C21219696   1.543   3.580   5.407 -1.2345  0.2633  0.1005
  174SLPC  H12R19697   1.622   3.505   5.416 -1.1676  0.0628 -1.7924
  174SLPC  C21319698   1.555   3.666   5.304  0.4149  0.3151  0.3693
  174SLPC  H13R19699   1.648   3.662   5.245  0.1257 -0.1750 -0.0605
  174SLPC  C21419700   1.458   3.772   5.258 -0.4781 -0.6716  0.5043
  174SLPC  H14R19701   1.508   3.832   5.178  0.3287 -2.8127 -0.6747
  174SLPC  H14S19702   1.430   3.838   5.343  2.0799  1.6422 -0.2793
  174SLPC  C21519703   1.345   3.716   5.162 -0.0341 -0.8664 -0.7517
  174SLPC  H15R19704   1.258   3.785   5.166  0.1814 -0.6265  1.8969
  174SLPC  H15S19705   1.316   3.617   5.205  2.0510 -0.8498  0.8573
  174SLPC  C21619706   1.388   3.686   5.016 -0.2695 -0.5857 -0.2493
  174SLPC  H16R19707   1.460   3.602   5.025  0.4203 -0.1735 -1.5766
  174SLPC  H16S19708   1.443   3.773   4.974 -0.3812  0.5973  1.9138
  174SLPC  C21719709   1.277   3.649   4.917 -0.1150 -0.3893 -0.3158
  174SLPC  H17R19710   1.215   3.563   4.950 -1.3140  0.1174 -1.1850
  174SLPC  H17S19711   1.332   3.613   4.828 -1.1855 -3.1616  0.0473
  174SLPC  C21819712   1.184   3.763   4.880 -0.0801 -0.1875 -0.1309
  174SLPC  H18R19713   1.119   3.735   4.794 -0.2838 -4.3011  1.1210
  174SLPC  H18S19714   1.247   3.851   4.854  0.1937 -0.6261 -1.0028
  174SLPC  H18T19715   1.115   3.788   4.962 -1.2006  0.0295 -1.1158
  174SLPC   C3319716   1.062   3.657   6.232 -0.0272  0.5179 -0.7239
  174SLPC   H3X19717   0.985   3.732   6.260 -0.4495  0.0263 -0.5543
  174SLPC   H3Y19718   1.050   3.575   6.306 -1.7123  1.6620  0.3485
  174SLPC   C3419719   1.033   3.615   6.089  0.3330  0.7369  0.2128
  174SLPC   H4X19720   1.087   3.522   6.060 -0.5500 -0.4230  2.1116
  174SLPC   H4Y19721   1.075   3.696   6.026  0.9159 -0.0891 -0.5072
  174SLPC   C3519722   0.892   3.591   6.058  0.6367 -0.1168  0.2083
  174SLPC   H5X19723   0.821   3.676   6.072 -0.3735 -1.0657  0.9809
  174SLPC   H5Y19724   0.855   3.505   6.117 -1.5982  1.8418  1.8227
  174SLPC   C3619725   0.855   3.566   5.912  0.4573 -0.4764 -0.6287
  174SLPC   H6X19726   0.883   3.663   5.864  0.4235 -0.7893 -1.2966
  174SLPC   H6Y19727   0.751   3.534   5.892 -0.0809 -1.6640  3.3356
  174SLPC   C3719728   0.946   3.458   5.840  0.2860 -0.4811  0.1429
  174SLPC   H7X19729   0.940   3.362   5.896  0.0167  0.6089  2.1011
  174SLPC   H7Y19730   1.048   3.501   5.844 -0.5533  1.9733 -1.8763
  174SLPC   C3819731   0.902   3.435   5.691  0.3447 -0.2131 -0.5693
  174SLPC   H8X19732   0.792   3.428   5.688  0.2777  0.6412 -0.2806
  174SLPC   H8Y19733   0.951   3.342   5.653  1.9928  0.5411 -0.4077
  174SLPC   C3919734   0.947   3.553   5.606 -0.0555 -0.1608 -0.3539
  174SLPC   H9X19735   1.058   3.555   5.615 -0.1337 -2.1836  1.9515
  174SLPC   H9Y19736   0.909   3.649   5.648 -2.6672 -1.4877  0.5369
  174SLPC  C31019737   0.901   3.534   5.462 -0.2910  0.0377 -0.0546
  174SLPC  H10X19738   0.898   3.638   5.421 -0.0406  0.1379  0.1777
  174SLPC  H10Y19739   0.797   3.497   5.454 -0.1415  0.0477 -2.9119
  174SLPC  C31119740   0.996   3.453   5.376 -0.1267 -0.9202 -0.5323
  174SLPC  H11X19741   1.004   3.345   5.399  2.4285 -1.0167 -1.6019
  174SLPC  H11Y19742   1.102   3.478   5.394 -0.1998 -0.1592 -1.1259
  174SLPC  C31219743   0.965   3.450   5.224  0.1728  0.2132 -0.3369
  174SLPC  H12X19744   1.031   3.373   5.179  1.5460 -0.0782  2.0478
  174SLPC  H12Y19745   0.987   3.550   5.180  1.5256  0.3146  0.5246
  174SLPC  C31319746   0.816   3.415   5.204 -0.1852  0.4340 -0.2424
  174SLPC  H13X19747   0.744   3.489   5.247 -0.5264  1.2694 -2.1559
  174SLPC  H13Y19748   0.802   3.313   5.245 -1.0560 -0.0280 -1.6353
  174SLPC  C31419749   0.777   3.402   5.054  0.4576  0.1499  0.2929
  174SLPC  H14X19750   0.670   3.381   5.034  0.7523 -0.7598 -0.4136
  174SLPC  H14Y19751   0.834   3.312   5.024 -0.3980 -1.0867  2.2268
  174SLPC  C31519752   0.822   3.525   4.971  0.1065  0.0472  0.3103
  174SLPC  H15X19753   0.932   3.516   4.954  0.2108 -1.7992  1.6473
  174SLPC  H15Y19754   0.809   3.622   5.023  3.2654  0.8734 -0.2364
  174SLPC  C31619755   0.750   3.522   4.834 -0.6663 -0.1296  0.5491
  174SLPC  H16X19756   0.642   3.544   4.844 -0.3129  1.4983  1.1248
  174SLPC  H16Y19757   0.775   3.432   4.774  3.1929  1.9467 -1.4472
  174SLPC  C31719758   0.810   3.639   4.753 -0.1939  1.1437 -0.3374
  174SLPC  H17X19759   0.920   3.628   4.751 -0.2282  0.9178 -0.9831
  174SLPC  H17Y19760   0.787   3.738   4.799  2.9396  1.3749  0.9415
  174SLPC  C31819761   0.757   3.631   4.615  0.0943  0.2041  0.1032
  174SLPC  H18X19762   0.646   3.625   4.606 -0.0536  2.7388 -0.6783
  174SLPC  H18Y19763   0.797   3.537   4.570 -0.8252 -0.4431  0.6049
  174SLPC  H18Z19764   0.782   3.725   4.561  0.0764  0.6334  0.8290
  175SLPC     N19765   3.916   5.465   7.080 -0.3786  0.4320  0.1699
  175SLPC   C1319766   3.926   5.317   7.122 -0.8906 -0.1424 -0.5396
  175SLPC  H13A19767   3.999   5.306   7.201 -0.1539 -0.0586 -1.1956
  175SLPC  H13B19768   3.832   5.287   7.165 -1.9584  1.8356 -1.3260
  175SLPC  H13C19769   3.959   5.250   7.043  3.2364 -2.3627  2.6768
  175SLPC   C1419770   3.883   5.554   7.196 -1.1419 -0.1659 -0.2410
  175SLPC  H14A19771   3.950   5.535   7.279 -1.5929  1.8783  0.6646
  175SLPC  H14B19772   3.893   5.658   7.167  2.0277 -0.7691 -1.7753
  175SLPC  H14C19773   3.780   5.548   7.227 -1.6784 -0.5497 -2.0056
  175SLPC   C1519774   3.796   5.479   6.988  1.1889 -0.9102  0.0421
  175SLPC  H15A19775   3.817   5.433   6.892  3.0633 -0.0658  0.0047
  175SLPC  H15B19776   3.705   5.441   7.032  1.6823  0.5759  2.5215
  175SLPC  H15C19777   3.779   5.585   6.986  1.6811 -0.8347 -0.1889
  175SLPC   C1219778   4.035   5.516   7.000  0.0889  0.1121  0.1219
  175SLPC  H12A19779   4.122   5.493   7.059 -0.0277  1.4625  0.8715
  175SLPC  H12B19780   4.031   5.624   6.995  2.0640  0.3288  1.8300
  175SLPC   C1119781   4.071   5.464   6.855 -0.4227 -0.0757  0.5169
  175SLPC  H11A19782   4.158   5.517   6.810 -0.6141 -0.3155 -0.1475
  175SLPC  H11B19783   3.989   5.484   6.783  2.0127  0.8645 -2.2201
  175SLPC     P19784   4.239   5.281   6.925 -0.0330  0.0192 -0.4302
  175SLPC   O1319785   4.288   5.391   7.008  0.0318 -0.0009 -0.1533
  175SLPC   O1419786   4.215   5.151   6.984  0.7798  1.0220  0.3072
  175SLPC   O1219787   4.102   5.325   6.855  0.1121  0.2269  0.1206
  175SLPC   O1119788   4.345   5.252   6.812  0.0838 -0.2532  0.9619
  175SLPC    C119789   4.306   5.256   6.678  0.4760  0.1853 -0.4368
  175SLPC    HA19790   4.369   5.174   6.637  1.8354 -0.9800  3.5141
  175SLPC    HB19791   4.206   5.212   6.661  0.0228  1.2797 -0.6914
  175SLPC    C219792   4.315   5.392   6.605 -0.7603  0.0716  0.3638
  175SLPC    HS19793   4.218   5.438   6.630 -0.6794 -0.7950  2.4589
  175SLPC   O2119794   4.333   5.358   6.469  0.3347  0.2092 -0.4189
  175SLPC   C2119795   4.294   5.459   6.390 -0.6369  0.1878 -0.6310
  175SLPC   O2219796   4.242   5.561   6.423  0.2358  0.6100 -0.3069
  175SLPC   C2219797   4.311   5.403   6.248 -0.4800 -0.6321 -0.0620
  175SLPC   H2R19798   4.398   5.334   6.246 -0.4348 -0.6447  1.1574
  175SLPC   H2S19799   4.211   5.359   6.227 -0.8609  0.7769 -1.3347
  175SLPC    C319800   4.419   5.498   6.644 -0.3073  0.3431 -0.5599
  175SLPC    HX19801   4.406   5.504   6.754  0.1094  2.2129 -0.5788
  175SLPC    HY19802   4.399   5.604   6.615  0.7232  0.2841 -1.5746
  175SLPC   O3119803   4.550   5.455   6.618 -0.0765 -0.3755 -0.8148
  175SLPC   C3119804   4.614   5.474   6.507  1.1099  0.6346  0.5505
  175SLPC   O3219805   4.578   5.554   6.421  0.4590  0.5428  0.1808
  175SLPC   C3219806   4.732   5.382   6.490 -0.0378 -0.0287  0.2846
  175SLPC   H2X19807   4.708   5.274   6.495  0.3404 -0.1673 -0.6373
  175SLPC   H2Y19808   4.802   5.400   6.574 -0.0938  2.1597 -0.0690
  175SLPC   C2319809   4.327   5.509   6.142  0.4938  0.1287  0.2857
  175SLPC   H3R19810   4.423   5.563   6.158 -0.5000  2.3995 -0.8835
  175SLPC   H3S19811   4.245   5.583   6.145  0.6365  0.9179 -4.8513
  175SLPC   C2419812   4.318   5.456   5.996 -0.7332 -0.1833  0.1596
  175SLPC   H4R19813   4.225   5.398   5.985 -0.5141 -0.5185  0.0770
  175SLPC   H4S19814   4.401   5.385   5.976 -1.2823 -0.6337 -0.5510
  175SLPC   C2519815   4.339   5.566   5.894 -0.6059 -0.2655  0.1689
  175SLPC   H5R19816   4.419   5.639   5.919  0.7276 -1.5645 -0.1652
  175SLPC   H5S19817   4.250   5.632   5.889  0.0396  0.9304  2.7188
  175SLPC   C2619818   4.349   5.514   5.747 -0.4165 -0.6931 -0.0316
  175SLPC   H6R19819   4.250   5.470   5.723 -1.8609  1.7736  1.0339
  175SLPC   H6S19820   4.422   5.431   5.738 -2.6350 -2.6685 -1.0405
  175SLPC   C2719821   4.391   5.624   5.655  0.4541 -0.3142  0.5874
  175SLPC   H7R19822   4.431   5.582   5.560  0.4364  2.1183 -0.5887
  175SLPC   H7S19823   4.477   5.682   5.697  0.2400 -0.2867  0.9905
  175SLPC   C2819824   4.283   5.729   5.618 -0.3478  0.2260  0.4237
  175SLPC   H8R19825   4.340   5.817   5.580 -0.3362 -0.0234 -0.1571
  175SLPC   H8S19826   4.223   5.755   5.707 -1.0830 -1.8369  0.5830
  175SLPC   C2919827   4.191   5.686   5.512 -0.5024 -0.1945  0.4514
  175SLPC   H9R19828   4.143   5.591   5.539 -2.8712  0.8434  0.1305
  175SLPC  C21019829   4.148   5.738   5.395 -0.3617  0.7171  0.1300
  175SLPC  H10R19830   4.084   5.672   5.335  0.5059  0.3621 -0.4252
  175SLPC  C21119831   4.184   5.872   5.335 -0.0698  0.6676 -0.5449
  175SLPC  H11R19832   4.263   5.923   5.393  0.3330  0.4808 -0.9190
  175SLPC  H11S19833   4.100   5.945   5.338 -1.7950 -1.2457  0.5034
  175SLPC  C21219834   4.239   5.863   5.192  0.1076  1.4067 -1.0109
  175SLPC  H12R19835   4.328   5.928   5.184  1.3604 -0.0690  0.2587
  175SLPC  C21319836   4.197   5.807   5.083  0.1135 -0.1348  0.4574
  175SLPC  H13R19837   4.261   5.811   4.994  0.4100 -0.3052  0.6599
  175SLPC  C21419838   4.072   5.735   5.059 -0.8095 -0.4016  0.3292
  175SLPC  H14R19839   4.018   5.713   5.153 -1.4547  0.8138  0.2645
  175SLPC  H14S19840   4.097   5.642   5.004  0.2991  1.7513 -3.0868
  175SLPC  C21519841   3.974   5.814   4.966 -0.0762  0.2721 -1.1244
  175SLPC  H15R19842   3.923   5.893   5.025  0.4382  1.5549 -2.3381
  175SLPC  H15S19843   3.896   5.737   4.948 -2.4850  1.7887  1.9834
  175SLPC  C21619844   4.022   5.865   4.838  0.9731 -0.4514 -0.3333
  175SLPC  H16R19845   4.045   5.772   4.782 -0.2726 -0.8325 -0.2475
  175SLPC  H16S19846   4.103   5.941   4.838 -0.1805  0.8309 -0.3957
  175SLPC  C21719847   3.901   5.932   4.768 -0.3881 -0.1337  0.0251
  175SLPC  H17R19848   3.870   6.022   4.826 -0.5267 -0.0169 -0.2259
  175SLPC  H17S19849   3.822   5.854   4.765 -0.9731  0.4577 -0.0041
  175SLPC  C21819850   3.948   5.970   4.621  0.3166  0.0638 -0.6213
  175SLPC  H18R19851   4.036   6.037   4.632 -0.1597  0.7169 -0.7289
  175SLPC  H18S19852   3.867   6.033   4.577 -0.1746 -1.4273 -1.9377
  175SLPC  H18T19853   3.959   5.872   4.569 -0.8862 -0.5071  0.1571
  175SLPC   C3319854   4.819   5.404   6.360  0.1626  0.0453 -0.3974
  175SLPC   H3X19855   4.749   5.413   6.275 -0.0819 -0.0205 -0.2043
  175SLPC   H3Y19856   4.877   5.311   6.342  0.5145  0.6675 -2.7959
  175SLPC   C3419857   4.912   5.524   6.364  0.1342 -0.0804 -0.0825
  175SLPC   H4X19858   4.987   5.509   6.445 -0.3795  0.3802  0.4964
  175SLPC   H4Y19859   4.846   5.609   6.394 -0.4859  0.7717 -3.4793
  175SLPC   C3519860   4.972   5.572   6.236  0.0932 -0.4295  1.0333
  175SLPC   H5X19861   5.040   5.494   6.195 -2.1497 -2.1730  0.4357
  175SLPC   H5Y19862   5.018   5.671   6.256  1.8140 -0.7404 -0.9188
  175SLPC   C3619863   4.861   5.615   6.132 -0.2580 -0.3084 -0.7123
  175SLPC   H6X19864   4.810   5.711   6.156  1.4302  0.4528  0.0072
  175SLPC   H6Y19865   4.777   5.542   6.122  0.4158 -1.6777  2.4507
  175SLPC   C3719866   4.917   5.620   5.988 -0.4162 -0.4824 -0.5380
  175SLPC   H7X19867   4.970   5.523   5.969 -0.3363  0.1525 -4.3846
  175SLPC   H7Y19868   4.994   5.699   5.997 -2.1276  1.0673  1.6752
  175SLPC   C3819869   4.818   5.650   5.877 -0.0771  0.1112  0.4680
  175SLPC   H8X19870   4.758   5.733   5.919 -1.6666 -0.5747 -0.3797
  175SLPC   H8Y19871   4.742   5.569   5.871 -0.4872  0.2065  3.0059
  175SLPC   C3919872   4.879   5.685   5.740 -0.1134 -0.0487  0.6099
  175SLPC   H9X19873   4.955   5.615   5.699 -1.5513 -0.8531 -0.8245
  175SLPC   H9Y19874   4.927   5.786   5.734  0.4300 -0.3395 -0.1676
  175SLPC  C31019875   4.764   5.677   5.634  0.4531 -0.0478 -0.0760
  175SLPC  H10X19876   4.691   5.756   5.664  1.8096  1.5836 -0.9181
  175SLPC  H10Y19877   4.716   5.577   5.631 -0.1309  0.2605 -1.4660
  175SLPC  C31119878   4.796   5.716   5.491 -0.0819  0.6267 -0.1907
  175SLPC  H11X19879   4.884   5.782   5.484  0.6705 -0.4980 -1.8542
  175SLPC  H11Y19880   4.706   5.767   5.450 -0.3204  0.0938 -0.3492
  175SLPC  C31219881   4.832   5.600   5.400  0.1069 -0.1739  0.0169
  175SLPC  H12X19882   4.753   5.523   5.407 -1.4697  1.4422  0.7661
  175SLPC  H12Y19883   4.928   5.549   5.423  0.3112  0.1083 -0.2084
  175SLPC  C31319884   4.832   5.644   5.252  0.2366  0.7467 -0.6376
  175SLPC  H13X19885   4.929   5.698   5.239  0.8717  0.8471  3.3556
  175SLPC  H13Y19886   4.756   5.722   5.227 -1.2087 -0.2766  0.4369
  175SLPC  C31419887   4.832   5.532   5.153 -0.3431 -0.1743 -0.7775
  175SLPC  H14X19888   4.771   5.446   5.188  1.1938 -1.0185 -0.0929
  175SLPC  H14Y19889   4.934   5.491   5.144 -1.0252 -2.2346  0.2927
  175SLPC  C31519890   4.791   5.575   5.013 -0.3063  0.4107  0.2925
  175SLPC  H15X19891   4.870   5.636   4.964  1.0303 -3.2387 -2.5678
  175SLPC  H15Y19892   4.713   5.652   5.032 -0.2174  0.7713 -0.7493
  175SLPC  C31619893   4.761   5.452   4.927 -0.2250 -0.1258 -0.7351
  175SLPC  H16X19894   4.667   5.404   4.960  0.4041 -2.5086 -2.1555
  175SLPC  H16Y19895   4.839   5.375   4.945  1.0766  1.5165  1.1074
  175SLPC  C31719896   4.741   5.489   4.779 -0.3846  0.9273  0.5208
  175SLPC  H17X19897   4.827   5.555   4.754 -1.4099  1.7148 -1.0949
  175SLPC  H17Y19898   4.646   5.544   4.763 -0.3160  0.7216 -0.6672
  175SLPC  C31819899   4.725   5.362   4.693 -0.0137 -0.3762  0.5197
  175SLPC  H18X19900   4.812   5.293   4.693  0.0858 -0.2678 -0.8479
  175SLPC  H18Y19901   4.703   5.397   4.590 -0.1344 -1.4091  0.1876
  175SLPC  H18Z19902   4.637   5.308   4.735  0.1753  1.2971  3.3423
  176SLPC     N19903   4.716   5.282   6.925  0.0888 -0.5339  0.3355
  176SLPC   C1319904   4.732   5.432   6.907 -0.0857 -0.0757  0.2503
  176SLPC  H13A19905   4.741   5.482   7.002 -3.1848 -1.6729  1.5133
  176SLPC  H13B19906   4.819   5.445   6.844 -1.0468 -1.7114 -1.5427
  176SLPC  H13C19907   4.652   5.473   6.847  1.2533 -1.3701 -2.6290
  176SLPC   C1419908   4.667   5.227   6.795  0.0384 -0.3605  0.7050
  176SLPC  H14A19909   4.744   5.239   6.720  0.6743  0.1478  1.4214
  176SLPC  H14B19910   4.645   5.122   6.806  0.8874 -0.8236 -1.5447
  176SLPC  H14C19911   4.573   5.268   6.760 -0.3113 -2.3674 -0.9002
  176SLPC   C1519912   4.600   5.258   7.019 -0.3506 -0.2362 -0.1720
  176SLPC  H15A19913   4.599   5.153   7.045  0.8816 -0.7928 -2.1097
  176SLPC  H15B19914   4.610   5.321   7.106  0.1384 -0.7541  0.1524
  176SLPC  H15C19915   4.512   5.288   6.964 -0.7549  0.4761  0.8334
  176SLPC   C1219916   4.837   5.214   6.975  0.4553  0.5589 -0.1078
  176SLPC  H12A19917   4.813   5.111   6.996 -0.6956  1.0336  1.0235
  176SLPC  H12B19918   4.858   5.267   7.067  0.3313  0.8574 -0.2506
  176SLPC   C1119919   4.970   5.221   6.889  0.1451 -0.2051 -0.0706
  176SLPC  H11A19920   5.063   5.205   6.946  0.5310  1.1982 -0.2662
  176SLPC  H11B19921   4.978   5.328   6.861 -0.6792 -0.1819 -0.2721
  176SLPC     P19922   5.021   5.000   6.781 -0.0559  0.1230 -0.4454
  176SLPC   O1319923   5.164   5.004   6.827  0.6233 -0.3625  0.3162
  176SLPC   O1419924   4.925   4.915   6.855  1.3284 -0.5032 -0.1770
  176SLPC   O1219925   4.961   5.143   6.771 -0.2337  0.1652  0.4129
  176SLPC   O1119926   5.013   4.963   6.631  0.5570 -0.7034  0.3323
  176SLPC    C119927   4.937   5.042   6.537  0.2764 -0.7153 -0.5140
  176SLPC    HA19928   4.828   5.035   6.562  0.6315 -0.9337  1.0956
  176SLPC    HB19929   4.952   5.152   6.536  0.0097 -0.6824 -1.2635
  176SLPC    C219930   4.965   5.011   6.387 -0.5928 -0.1529  0.0760
  176SLPC    HS19931   4.910   5.089   6.330 -0.1838  1.0307  1.2536
  176SLPC   O2119932   4.944   4.872   6.350  0.2435  0.1827  0.0434
  176SLPC   C2119933   4.808   4.854   6.336 -0.1996 -0.4917 -0.2747
  176SLPC   O2219934   4.720   4.941   6.324 -0.3370  0.9098  0.3861
  176SLPC   C2219935   4.781   4.705   6.341 -0.0754 -0.9401  0.0600
  176SLPC   H2R19936   4.875   4.646   6.339 -0.1646 -1.3076  2.7862
  176SLPC   H2S19937   4.729   4.680   6.436 -4.4798 -0.0377 -1.8777
  176SLPC    C319938   5.112   5.044   6.363 -0.2683 -0.2129 -0.7702
  176SLPC    HX19939   5.181   4.971   6.412  0.7946  1.4457  0.3247
  176SLPC    HY19940   5.142   5.142   6.407 -1.5083  0.4423 -1.3201
  176SLPC   O3119941   5.132   5.046   6.223  0.7214 -0.2808 -0.6037
  176SLPC   C3119942   5.170   4.929   6.167 -0.1060  0.3449  0.7240
  176SLPC   O3219943   5.195   4.823   6.223  0.0675 -0.1377  0.2270
  176SLPC   C3219944   5.197   4.959   6.021 -0.7613  0.3776 -0.3450
  176SLPC   H2X19945   5.247   5.059   6.013  2.3918 -1.0150  0.2215
  176SLPC   H2Y19946   5.105   4.949   5.960 -0.2273  0.9440 -1.2745
  176SLPC   C2319947   4.688   4.672   6.224 -0.0665 -0.3350  0.0763
  176SLPC   H3R19948   4.589   4.722   6.220 -0.2943 -0.8310 -0.6395
  176SLPC   H3S19949   4.670   4.564   6.241  0.6477 -0.4391  0.2073
  176SLPC   C2419950   4.748   4.678   6.076 -0.0269 -1.0035  0.3717
  176SLPC   H4R19951   4.680   4.620   6.008 -1.6028  1.4486 -0.2870
  176SLPC   H4S19952   4.849   4.632   6.074 -0.1602 -1.4571 -3.1518
  176SLPC   C2519953   4.747   4.819   6.020 -0.6431  0.3410 -0.4689
  176SLPC   H5R19954   4.819   4.876   6.083 -2.8274  0.8957  1.7099
  176SLPC   H5S19955   4.650   4.873   6.029 -0.8083 -0.0084 -0.1191
  176SLPC   C2619956   4.808   4.826   5.877  0.4826  0.2485 -0.0217
  176SLPC   H6R19957   4.770   4.742   5.814  2.4699 -1.7110  1.2139
  176SLPC   H6S19958   4.919   4.827   5.883  0.5710 -0.7304 -1.0669
  176SLPC   C2719959   4.767   4.956   5.805  0.1867  0.5743  0.4200
  176SLPC   H7R19960   4.657   4.967   5.814  0.2768  1.6431  0.3379
  176SLPC   H7S19961   4.790   4.948   5.697  2.4603 -0.1270  0.9077
  176SLPC   C2819962   4.829   5.087   5.858 -0.5221 -0.1105 -0.5157
  176SLPC   H8R19963   4.930   5.099   5.814 -0.1835 -1.7495 -0.2441
  176SLPC   H8S19964   4.850   5.089   5.967 -1.7523 -0.0238 -0.2643
  176SLPC   C2919965   4.755   5.215   5.841 -0.2210  0.3127 -0.5647
  176SLPC   H9R19966   4.715   5.255   5.935 -1.9166 -2.1721 -0.1251
  176SLPC  C21019967   4.742   5.287   5.728  0.2857 -0.0560 -0.4028
  176SLPC  H10R19968   4.686   5.382   5.730  0.6818  0.1624  0.8721
  176SLPC  C21119969   4.799   5.244   5.596  0.1441 -0.3661  0.2827
  176SLPC  H11R19970   4.851   5.146   5.608  4.3338  1.4002 -1.3885
  176SLPC  H11S19971   4.879   5.319   5.575 -1.3226  1.5856  1.3708
  176SLPC  C21219972   4.704   5.247   5.477 -0.1888 -0.4961  0.1918
  176SLPC  H12R19973   4.624   5.323   5.471 -0.8959 -1.2783 -0.5800
  176SLPC  C21319974   4.718   5.169   5.372 -0.0760  0.4837  0.8741
  176SLPC  H13R19975   4.642   5.176   5.292 -1.2769  0.1494  1.9674
  176SLPC  C21419976   4.816   5.058   5.349 -0.4207 -1.0506 -0.0312
  176SLPC  H14R19977   4.911   5.088   5.399 -0.4294  4.2069 -2.4771
  176SLPC  H14S19978   4.845   5.057   5.242 -2.0180  0.0140 -0.5070
  176SLPC  C21519979   4.748   4.931   5.397  0.6198 -0.5173  0.2041
  176SLPC  H15R19980   4.713   4.947   5.501  0.2236 -0.4117  0.0562
  176SLPC  H15S19981   4.830   4.856   5.399  0.7461 -0.4053 -0.6610
  176SLPC  C21619982   4.625   4.887   5.319 -0.1923  0.6700  0.7381
  176SLPC  H16R19983   4.644   4.883   5.209 -2.0249  0.4066  0.3984
  176SLPC  H16S19984   4.549   4.968   5.317  0.1047  0.9432 -0.2939
  176SLPC  C21719985   4.578   4.744   5.358 -0.1242  0.3588 -0.1669
  176SLPC  H17R19986   4.658   4.670   5.337  0.0742  0.1864  1.1184
  176SLPC  H17S19987   4.483   4.721   5.305 -0.3341 -0.7607  0.6659
  176SLPC  C21819988   4.543   4.740   5.511  0.1888  0.3944  0.3871
  176SLPC  H18R19989   4.480   4.653   5.540 -1.0625  0.6089 -1.5418
  176SLPC  H18S19990   4.487   4.834   5.532 -1.1782  0.0709 -1.5797
  176SLPC  H18T19991   4.642   4.734   5.561  1.5259  0.7368 -2.0669
  176SLPC   C3319992   5.303   4.868   5.964  0.6490 -0.5137 -0.5050
  176SLPC   H3X19993   5.249   4.776   5.933  0.7997 -0.4296 -1.0217
  176SLPC   H3Y19994   5.387   4.848   6.034  0.4717 -2.6020 -0.8224
  176SLPC   C3419995   5.357   4.914   5.837 -0.4215 -0.7307 -0.8613
  176SLPC   H4X19996   5.427   4.839   5.795 -0.2572 -0.2180 -1.5167
  176SLPC   H4Y19997   5.413   5.010   5.849  0.4367 -1.0762 -1.9991
  176SLPC   C3519998   5.255   4.936   5.728 -0.2594  0.1568 -0.1218
  176SLPC   H5X19999   5.179   5.005   5.771  0.3712  0.2921  0.8187
  176SLPC   H5Y20000   5.206   4.841   5.699  1.4499 -0.1043 -2.4174
  176SLPC   C3620001   5.314   5.008   5.605  0.0556  0.3157 -0.6361
  176SLPC   H6X20002   5.372   4.929   5.552  1.0377  1.0082 -0.6291
  176SLPC   H6Y20003   5.375   5.091   5.647 -0.5558 -0.3366  1.7271
  176SLPC   C3720004   5.207   5.064   5.507  0.2242  0.7355  0.4107
  176SLPC   H7X20005   5.131   5.136   5.545  0.0039  0.3848  0.6349
  176SLPC   H7Y20006   5.165   4.965   5.481 -0.1183  0.4181  2.0486
  176SLPC   C3820007   5.279   5.134   5.390  0.0978 -0.4206 -0.0802
  176SLPC   H8X20008   5.357   5.066   5.349  1.2671  0.2915  0.8831
  176SLPC   H8Y20009   5.340   5.224   5.415  1.1993 -0.9703 -0.6829
  176SLPC   C3920010   5.172   5.163   5.283  0.2454 -0.4086 -0.1528
  176SLPC   H9X20011   5.100   5.232   5.332  0.4805 -1.4548  1.7998
  176SLPC   H9Y20012   5.121   5.067   5.260  0.6750 -0.9894  1.1878
  176SLPC  C31020013   5.240   5.210   5.156 -0.7093 -0.5896  0.3167
  176SLPC  H10X20014   5.303   5.125   5.121  1.9651  1.4089 -0.1056
  176SLPC  H10Y20015   5.307   5.297   5.174 -1.8167  0.7579 -1.6397
  176SLPC  C31120016   5.130   5.242   5.056 -0.6385 -0.1694 -0.9625
  176SLPC  H11X20017   5.057   5.303   5.114 -0.0191 -0.7463  0.4577
  176SLPC  H11Y20018   5.079   5.152   5.015  1.2509 -1.2258 -1.0920
  176SLPC  C31220019   5.162   5.338   4.942  0.4387  0.3470  0.1238
  176SLPC  H12X20020   5.229   5.420   4.977 -0.7241  1.3534  0.0463
  176SLPC  H12Y20021   5.070   5.388   4.908 -0.4813 -0.8019  0.8477
  176SLPC  C31320022   5.233   5.263   4.820 -0.2027 -1.0965 -0.8361
  176SLPC  H13X20023   5.283   5.167   4.847  0.2000 -0.5047  0.5640
  176SLPC  H13Y20024   5.307   5.334   4.777 -0.3979  0.6624  1.5348
  176SLPC  C31420025   5.127   5.222   4.717 -0.4452  0.3938  0.0860
  176SLPC  H14X20026   5.057   5.308   4.707 -0.2133  0.6807  0.8560
  176SLPC  H14Y20027   5.066   5.143   4.767 -0.1568 -0.0163 -0.2068
  176SLPC  C31520028   5.195   5.173   4.587 -0.2808  0.4457  0.2667
  176SLPC  H15X20029   5.269   5.095   4.612  0.4577  1.1760  0.4166
  176SLPC  H15Y20030   5.250   5.255   4.537 -1.8963  1.4036 -0.0052
  176SLPC  C31620031   5.094   5.145   4.471 -0.6848 -0.0666 -0.2639
  176SLPC  H16X20032   5.044   5.241   4.448  1.1774  0.6833 -1.4370
  176SLPC  H16Y20033   5.023   5.064   4.500 -0.6381 -0.6000 -1.5879
  176SLPC  C31720034   5.172   5.112   4.343 -0.0953 -0.6910 -0.6367
  176SLPC  H17X20035   5.248   5.190   4.321  0.3910  0.2242  3.4817
  176SLPC  H17Y20036   5.094   5.094   4.266 -1.0892 -1.2520  0.4755
  176SLPC  C31820037   5.261   4.987   4.346 -0.0626 -0.1204  1.2086
  176SLPC  H18X20038   5.356   5.015   4.396  0.9642  1.3359 -1.3651
  176SLPC  H18Y20039   5.288   4.957   4.243 -3.3731  3.4149 -0.9960
  176SLPC  H18Z20040   5.214   4.896   4.390  2.2691 -0.5721  2.9706
  177SLPC     N20041   5.724   5.241   6.818  0.8997  0.0441  0.3686
  177SLPC   C1320042   5.618   5.138   6.805  0.0118  0.5549 -0.2474
  177SLPC  H13A20043   5.525   5.178   6.766 -0.3453  0.7784  0.7984
  177SLPC  H13B20044   5.664   5.063   6.744  0.8517  0.1705  0.8402
  177SLPC  H13C20045   5.580   5.105   6.900  0.4433  1.7897  0.3805
  177SLPC   C1420046   5.833   5.192   6.910  0.4010 -1.0979  0.0002
  177SLPC  H14A20047   5.917   5.259   6.901 -0.3978 -0.1652 -0.7742
  177SLPC  H14B20048   5.799   5.204   7.012  0.2430 -0.8913 -0.0756
  177SLPC  H14C20049   5.840   5.085   6.894 -0.7163 -1.1010 -0.5880
  177SLPC   C1520050   5.661   5.363   6.884  0.5053  0.4613  0.3416
  177SLPC  H15A20051   5.614   5.337   6.978  0.3735  2.5049  0.8891
  177SLPC  H15B20052   5.739   5.433   6.909 -1.7680  3.4998 -0.5207
  177SLPC  H15C20053   5.601   5.413   6.809  1.8255 -2.4636 -2.9949
  177SLPC   C1220054   5.775   5.280   6.679 -0.0965  0.4159  0.5348
  177SLPC  H12A20055   5.700   5.326   6.615 -0.1690  1.7390  1.5116
  177SLPC  H12B20056   5.800   5.187   6.631 -3.3960 -0.4227  0.1815
  177SLPC   C1120057   5.902   5.372   6.693  0.7142 -0.4857  0.1699
  177SLPC  H11A20058   5.938   5.387   6.589 -1.7411  0.0702 -0.6885
  177SLPC  H11B20059   5.980   5.315   6.747  0.8997 -2.7342 -2.3055
  177SLPC     P20060   5.996   5.582   6.815  0.0444 -0.1796 -0.0384
  177SLPC   O1320061   5.945   5.694   6.891  0.1242 -0.7607  0.1485
  177SLPC   O1420062   6.085   5.495   6.894  0.0737  0.4079 -0.1446
  177SLPC   O1220063   5.876   5.505   6.745  0.3510  0.2910 -0.7941
  177SLPC   O1120064   6.066   5.648   6.686 -0.0251 -0.7243  0.6710
  177SLPC    C120065   6.019   5.777   6.629  0.0042  0.0255  0.2576
  177SLPC    HA20066   5.912   5.799   6.650  0.2911  1.2766  0.5356
  177SLPC    HB20067   6.084   5.852   6.680  0.2040 -0.5640  0.8823
  177SLPC    C220068   6.058   5.781   6.477  0.6363  0.3000  0.0659
  177SLPC    HS20069   6.008   5.867   6.428  0.7009 -0.3600 -1.2246
  177SLPC   O2120070   6.022   5.658   6.412  0.5115  0.1008 -0.2355
  177SLPC   C2120071   5.897   5.638   6.409  0.1151 -0.4327  0.6220
  177SLPC   O2220072   5.808   5.708   6.454  0.5068  0.0427  0.0100
  177SLPC   C2220073   5.865   5.518   6.331  0.0191  0.7326  0.8408
  177SLPC   H2R20074   5.942   5.437   6.332 -0.3692  0.3528  0.5334
  177SLPC   H2S20075   5.784   5.467   6.388 -0.0653 -1.5522 -1.1639
  177SLPC    C320076   6.212   5.800   6.464 -0.5726 -0.1497  0.2878
  177SLPC    HX20077   6.249   5.717   6.526  2.4101  1.0962  0.3354
  177SLPC    HY20078   6.251   5.893   6.510  1.6390 -1.3368  0.9467
  177SLPC   O3120079   6.260   5.792   6.328 -0.2148 -0.7749  0.1191
  177SLPC   C3120080   6.234   5.898   6.248 -0.1438 -0.6813 -0.0817
  177SLPC   O3220081   6.195   6.005   6.291 -0.2962  0.2211 -0.0116
  177SLPC   C3220082   6.239   5.848   6.101  0.3503  0.2279 -0.6557
  177SLPC   H2X20083   6.192   5.928   6.040 -0.0231 -1.1337 -2.2241
  177SLPC   H2Y20084   6.171   5.760   6.094  2.0942 -1.0362 -3.1974
  177SLPC   C2320085   5.819   5.553   6.188  0.8104  0.6247  0.0316
  177SLPC   H3R20086   5.741   5.631   6.199  1.3626  1.3019 -0.7500
  177SLPC   H3S20087   5.781   5.464   6.135  0.2714  0.5128  0.5998
  177SLPC   C2420088   5.927   5.619   6.102 -0.1975  0.1178  0.4444
  177SLPC   H4R20089   6.013   5.549   6.096  0.5034  0.5775  3.5072
  177SLPC   H4S20090   5.964   5.705   6.162 -0.8036 -0.3133  1.4631
  177SLPC   C2520091   5.875   5.660   5.957  0.1688  0.6038 -0.3697
  177SLPC   H5R20092   5.960   5.709   5.906  2.0154 -1.4820  0.5812
  177SLPC   H5S20093   5.798   5.741   5.961 -1.1024 -0.6032  1.1985
  177SLPC   C2620094   5.811   5.544   5.877 -0.0312  0.2623 -0.5279
  177SLPC   H6R20095   5.715   5.503   5.916  1.0723 -1.9793  0.0172
  177SLPC   H6S20096   5.880   5.458   5.890 -0.1246  0.4240  1.1878
  177SLPC   C2720097   5.784   5.583   5.731 -0.2104 -0.8045  0.0240
  177SLPC   H7R20098   5.742   5.684   5.750  0.2460 -0.6792  0.3905
  177SLPC   H7S20099   5.712   5.519   5.675  0.0513 -0.3367 -0.8782
  177SLPC   C2820100   5.906   5.599   5.636 -0.4091  0.4438  0.1395
  177SLPC   H8R20101   5.978   5.666   5.687  2.2881 -2.7365  0.8387
  177SLPC   H8S20102   5.885   5.650   5.540  0.7750 -0.7102 -0.7725
  177SLPC   C2920103   5.958   5.459   5.602 -0.4013  0.0892 -0.1554
  177SLPC   H9R20104   5.994   5.395   5.684  1.1886 -1.5332 -2.0049
  177SLPC  C21020105   5.958   5.405   5.485  0.3088 -0.2488  0.9334
  177SLPC  H10R20106   5.981   5.298   5.475 -0.6734 -0.3634 -0.4419
  177SLPC  C21120107   5.918   5.462   5.353 -0.6833  0.0604  0.5660
  177SLPC  H11R20108   5.883   5.567   5.353  0.6245  0.5050  0.2324
  177SLPC  H11S20109   5.823   5.407   5.331 -0.0784 -0.6081 -0.5083
  177SLPC  C21220110   6.010   5.431   5.239  0.0791  0.7296 -0.3465
  177SLPC  H12R20111   6.107   5.393   5.274  0.1061  0.7920 -0.3540
  177SLPC  C21320112   5.995   5.466   5.113 -0.1884 -0.3229  0.0513
  177SLPC  H13R20113   6.078   5.428   5.050 -0.2937 -2.0931  0.9238
  177SLPC  C21420114   5.879   5.525   5.051  0.3777 -0.0066 -0.4119
  177SLPC  H14R20115   5.903   5.623   5.004  0.0349  0.4964  0.4381
  177SLPC  H14S20116   5.799   5.550   5.124  0.1425 -0.5620 -0.4715
  177SLPC  C21520117   5.810   5.434   4.947 -0.0968  0.3917 -0.6637
  177SLPC  H15R20118   5.885   5.405   4.871  1.3561  2.1528  0.0285
  177SLPC  H15S20119   5.719   5.488   4.914 -0.2082  1.3975  1.1984
  177SLPC  C21620120   5.753   5.301   5.005  0.0213 -0.0268 -0.3975
  177SLPC  H16R20121   5.711   5.307   5.107  0.9348 -0.3759  0.0159
  177SLPC  H16S20122   5.839   5.230   5.004  1.5168  1.6859  0.4056
  177SLPC  C21720123   5.645   5.236   4.903 -0.5923  0.4119 -0.0983
  177SLPC  H17R20124   5.715   5.193   4.829 -1.3151  0.9880 -1.1455
  177SLPC  H17S20125   5.577   5.308   4.852 -1.0681 -0.2692 -0.4333
  177SLPC  C21820126   5.552   5.126   4.960 -1.1668 -0.5448  0.3436
  177SLPC  H18R20127   5.612   5.059   5.024  1.5284  1.0094 -0.4069
  177SLPC  H18S20128   5.493   5.078   4.879  2.8197 -0.1599 -3.0879
  177SLPC  H18T20129   5.480   5.175   5.029 -1.1311  0.8550 -0.5668
  177SLPC   C3320130   6.378   5.811   6.045 -0.0553  0.5028  0.0406
  177SLPC   H3X20131   6.439   5.749   6.113 -0.0430  0.7180  0.2256
  177SLPC   H3Y20132   6.437   5.905   6.030  0.1371  0.5163  0.8323
  177SLPC   C3420133   6.372   5.744   5.907 -0.7699  0.5279  0.4658
  177SLPC   H4X20134   6.315   5.649   5.907 -2.5342  1.4720 -2.1889
  177SLPC   H4Y20135   6.478   5.718   5.889 -0.0354  2.1100  2.2192
  177SLPC   C3520136   6.328   5.844   5.798  0.8431  0.3900 -0.2963
  177SLPC   H5X20137   6.397   5.931   5.812 -0.6821  1.3899  1.4871
  177SLPC   H5Y20138   6.224   5.875   5.820 -0.0751 -1.9479 -1.1289
  177SLPC   C3620139   6.348   5.783   5.659  0.6619 -0.1240 -0.1156
  177SLPC   H6X20140   6.286   5.691   5.658  1.3634 -0.5955 -1.1070
  177SLPC   H6Y20141   6.451   5.744   5.647  0.6945  0.4091 -1.7481
  177SLPC   C3720142   6.320   5.877   5.548  0.7146  0.0965  0.0823
  177SLPC   H7X20143   6.397   5.958   5.546  0.3812  0.4102 -0.9709
  177SLPC   H7Y20144   6.224   5.918   5.588 -0.0369 -2.6927  1.3417
  177SLPC   C3820145   6.300   5.794   5.424 -0.4410 -0.2694  0.8511
  177SLPC   H8X20146   6.212   5.728   5.442 -0.2839 -0.2139  1.9242
  177SLPC   H8Y20147   6.387   5.732   5.396  0.3595  0.9160  0.6671
  177SLPC   C3920148   6.267   5.886   5.304  0.1064  0.0453 -0.6168
  177SLPC   H9X20149   6.352   5.955   5.289  1.2528 -0.8749  1.3366
  177SLPC   H9Y20150   6.178   5.951   5.322  0.3020 -0.2480  1.6343
  177SLPC  C31020151   6.252   5.804   5.175  0.3570  0.4570 -0.4106
  177SLPC  H10X20152   6.157   5.746   5.177 -0.8103  2.3010  1.4282
  177SLPC  H10Y20153   6.334   5.730   5.165  0.7924  0.8733  0.0304
  177SLPC  C31120154   6.243   5.887   5.052 -0.4400  0.3230  0.0362
  177SLPC  H11X20155   6.329   5.957   5.051  0.7463 -1.0367 -1.7915
  177SLPC  H11Y20156   6.153   5.949   5.069 -0.4962  0.2533 -0.0029
  177SLPC  C31220157   6.240   5.809   4.924 -0.6342  0.2620 -0.3059
  177SLPC  H12X20158   6.175   5.865   4.853  0.3472  2.0759  0.1852
  177SLPC  H12Y20159   6.208   5.704   4.942 -0.3697  0.0894 -0.8306
  177SLPC  C31320160   6.384   5.815   4.857  0.1629  0.2240  0.1300
  177SLPC  H13X20161   6.451   5.741   4.906  1.0836 -0.5140 -2.1420
  177SLPC  H13Y20162   6.418   5.921   4.857  0.5782  0.1228 -1.6459
  177SLPC  C31420163   6.390   5.775   4.703 -0.3257 -0.0183  0.9697
  177SLPC  H14X20164   6.356   5.670   4.706 -1.2676  0.2803  0.9133
  177SLPC  H14Y20165   6.499   5.793   4.689 -0.6941  0.6451 -1.4036
  177SLPC  C31520166   6.315   5.867   4.609 -0.0391  0.3277 -0.2706
  177SLPC  H15X20167   6.331   5.974   4.634  1.7520  0.3865 -1.4955
  177SLPC  H15Y20168   6.206   5.856   4.595  0.2412 -0.4823 -2.0686
  177SLPC  C31620169   6.374   5.851   4.469  0.2416 -0.0604 -0.4623
  177SLPC  H16X20170   6.396   5.743   4.453 -0.5028 -0.1936 -0.6343
  177SLPC  H16Y20171   6.470   5.906   4.464 -0.2926  1.0148  0.6624
  177SLPC  C31720172   6.286   5.905   4.355  0.6968 -0.0344  0.2788
  177SLPC  H17X20173   6.251   6.011   4.354 -1.4639 -0.6703 -1.8162
  177SLPC  H17Y20174   6.195   5.842   4.355  0.4329  0.3383  0.0170
  177SLPC  C31820175   6.356   5.881   4.222  0.3831 -0.0933  0.7903
  177SLPC  H18X20176   6.288   5.906   4.138  0.3311 -0.0327  0.8499
  177SLPC  H18Y20177   6.386   5.774   4.217 -0.1254 -0.1798 -2.0322
  177SLPC  H18Z20178   6.442   5.951   4.214 -0.7003  1.1742 -0.1301
  178SLPC     N20179   2.685   1.183   7.086 -0.3790 -0.7111 -0.7829
  178SLPC   C1320180   2.567   1.093   7.052  0.9632  0.5020  0.2163
  178SLPC  H13A20181   2.500   1.081   7.136  0.9701  1.3743  0.3627
  178SLPC  H13B20182   2.505   1.148   6.983  0.2224 -1.7951 -1.0451
  178SLPC  H13C20183   2.599   0.998   7.014 -0.1183 -0.1991  0.9864
  178SLPC   C1420184   2.757   1.123   7.204 -0.7468 -0.1346  0.2174
  178SLPC  H14A20185   2.841   1.186   7.230 -0.8403 -0.0512  0.3178
  178SLPC  H14B20186   2.692   1.111   7.290 -1.4117  0.0945 -0.2483
  178SLPC  H14C20187   2.806   1.029   7.184 -0.8326 -0.5569  1.8308
  178SLPC   C1520188   2.627   1.319   7.120  0.1838 -0.2834  0.0351
  178SLPC  H15A20189   2.577   1.334   7.214 -2.9975  0.6549 -1.6356
  178SLPC  H15B20190   2.709   1.388   7.118 -0.1802  0.1563  0.1611
  178SLPC  H15C20191   2.558   1.349   7.043  0.2666  0.6658  0.3292
  178SLPC   C1220192   2.766   1.208   6.963  0.0763 -0.1781 -0.3185
  178SLPC  H12A20193   2.704   1.258   6.890  3.1243 -0.1133 -3.0798
  178SLPC  H12B20194   2.803   1.113   6.928 -0.7159 -1.3406  1.8211
  178SLPC   C1120195   2.898   1.282   6.973 -0.2001  0.3624 -0.3331
  178SLPC  H11A20196   2.951   1.267   6.877  0.0791  1.0349 -0.2944
  178SLPC  H11B20197   2.963   1.233   7.048 -1.1228 -0.8002 -0.2654
  178SLPC     P20198   2.872   1.530   6.913  0.2796  0.3765 -0.3443
  178SLPC   O1320199   2.727   1.546   6.882 -0.5423  0.0406 -0.2510
  178SLPC   O1420200   2.945   1.649   6.963 -0.1374  0.7293 -0.2121
  178SLPC   O1220201   2.882   1.419   7.022  0.3556  0.4476 -0.5499
  178SLPC   O1120202   2.945   1.476   6.783 -0.1527 -0.7491 -0.1688
  178SLPC    C120203   2.931   1.544   6.659 -0.5764 -0.1191 -0.2358
  178SLPC    HA20204   2.826   1.577   6.644 -1.3698 -0.6733  3.1312
  178SLPC    HB20205   2.996   1.634   6.650  0.4834 -0.7549  0.7545
  178SLPC    C220206   2.959   1.444   6.544 -0.1442  0.2624 -0.3167
  178SLPC    HS20207   3.063   1.407   6.557  0.8407  2.0549 -2.4394
  178SLPC   O2120208   2.940   1.504   6.413 -0.0430  0.0234  0.2480
  178SLPC   C2120209   3.046   1.569   6.377 -0.6704  0.0319  0.1952
  178SLPC   O2220210   3.156   1.571   6.430  0.6897 -0.2060 -0.2819
  178SLPC   C2220211   3.010   1.653   6.256 -0.0715 -0.1040 -0.0447
  178SLPC   H2R20212   3.057   1.616   6.163  2.7998  0.6266  1.0206
  178SLPC   H2S20213   2.899   1.656   6.258 -0.0845 -0.6683  1.0575
  178SLPC    C320214   2.865   1.317   6.550 -0.2769 -0.4740 -0.2628
  178SLPC    HX20215   2.765   1.363   6.562  0.2650  0.3476  1.4227
  178SLPC    HY20216   2.888   1.262   6.643 -1.4737 -1.2684 -0.4200
  178SLPC   O3120217   2.874   1.240   6.436 -0.6459  0.1465  0.0066
  178SLPC   C3120218   2.968   1.150   6.422  0.5119 -0.0487  0.2845
  178SLPC   O3220219   3.035   1.112   6.516 -0.1930  0.0346  0.2273
  178SLPC   C3220220   2.995   1.124   6.276  0.4749 -0.0479 -0.1320
  178SLPC   H2X20221   2.896   1.107   6.229  0.3824 -0.4246  0.1992
  178SLPC   H2Y20222   3.070   1.045   6.255  0.5523 -0.0867  0.2878
  178SLPC   C2320223   3.061   1.797   6.274  0.1073 -0.0542  0.5555
  178SLPC   H3R20224   3.167   1.795   6.307  0.7638 -0.6357 -1.4801
  178SLPC   H3S20225   3.006   1.847   6.357  0.2102  1.7374 -0.4213
  178SLPC   C2420226   3.053   1.886   6.151  0.4350 -0.2473 -0.0973
  178SLPC   H4R20227   3.068   1.828   6.057 -0.5938  1.7408 -1.5656
  178SLPC   H4S20228   3.139   1.956   6.154  1.6484 -1.7144  0.0802
  178SLPC   C2520229   2.913   1.950   6.130 -0.6572 -0.0044  0.0325
  178SLPC   H5R20230   2.878   2.004   6.220  0.3524  1.8849 -0.6574
  178SLPC   H5S20231   2.853   1.857   6.117  1.1387 -1.3128  0.6956
  178SLPC   C2620232   2.900   2.042   6.010  0.7949 -0.2090  0.3233
  178SLPC   H6R20233   2.920   1.983   5.918 -2.0007 -1.5364  0.4910
  178SLPC   H6S20234   2.981   2.119   6.006 -0.4636  1.1046 -1.1535
  178SLPC   C2720235   2.760   2.099   5.998  0.2179 -0.1758  0.8237
  178SLPC   H7R20236   2.727   2.158   6.086 -1.3401 -0.6913  0.6296
  178SLPC   H7S20237   2.680   2.022   6.003 -1.1880  1.2297  0.8766
  178SLPC   C2820238   2.740   2.191   5.873 -0.0188  0.3362 -0.0043
  178SLPC   H8R20239   2.811   2.275   5.885  0.3483  0.1429 -0.7696
  178SLPC   H8S20240   2.640   2.237   5.888 -1.0778 -2.3102  1.9745
  178SLPC   C2920241   2.750   2.124   5.739  0.3225  0.7170  0.4890
  178SLPC   H9R20242   2.850   2.085   5.715 -0.5341 -0.8296 -0.7978
  178SLPC  C21020243   2.657   2.117   5.637  0.6308 -0.2102  0.3603
  178SLPC  H10R20244   2.679   2.087   5.533 -2.2667  0.7619 -0.6079
  178SLPC  C21120245   2.523   2.182   5.653  0.1006  0.6028 -0.2758
  178SLPC  H11R20246   2.523   2.285   5.612 -3.3364  1.4952  1.6236
  178SLPC  H11S20247   2.493   2.194   5.759 -0.1367  0.1838 -0.2933
  178SLPC  C21220248   2.408   2.117   5.585  0.3407  0.7747  1.0465
  178SLPC  H12R20249   2.338   2.069   5.655 -0.0053  1.1606  0.9692
  178SLPC  C21320250   2.388   2.096   5.452 -0.0554 -0.4595 -0.6466
  178SLPC  H13R20251   2.297   2.043   5.422 -0.9596  1.2833 -1.0720
  178SLPC  C21420252   2.486   2.119   5.335 -0.5472 -0.2293  0.2380
  178SLPC  H14R20253   2.552   2.206   5.356 -1.2097  0.6781 -1.3306
  178SLPC  H14S20254   2.432   2.168   5.251  1.6100 -0.1604 -1.1690
  178SLPC  C21520255   2.556   1.985   5.303 -0.6422 -0.1237 -0.0118
  178SLPC  H15R20256   2.612   1.946   5.390 -1.7460 -2.3028 -0.1894
  178SLPC  H15S20257   2.632   2.006   5.224 -0.5349  0.2179  0.1836
  178SLPC  C21620258   2.458   1.877   5.246 -0.7252  0.1797  0.1297
  178SLPC  H16R20259   2.394   1.908   5.160 -0.2259 -1.2874 -0.8113
  178SLPC  H16S20260   2.377   1.850   5.316 -2.0868 -0.0275 -1.4675
  178SLPC  C21720261   2.531   1.756   5.195  0.1234 -0.3924  0.5581
  178SLPC  H17R20262   2.605   1.719   5.270  0.7063 -1.1508 -0.3548
  178SLPC  H17S20263   2.587   1.782   5.103 -1.3456  0.2200 -0.1948
  178SLPC  C21820264   2.433   1.648   5.140  0.1082 -0.6281 -0.3968
  178SLPC  H18R20265   2.366   1.685   5.059 -0.0862 -0.4420 -0.1515
  178SLPC  H18S20266   2.381   1.595   5.222 -1.7420 -0.1606 -1.2095
  178SLPC  H18T20267   2.496   1.569   5.094 -0.1323 -0.7973 -0.4395
  178SLPC   C3320268   3.041   1.250   6.191  0.0223  0.6022 -0.3491
  178SLPC   H3X20269   3.132   1.284   6.244  0.7741 -2.6640  0.6914
  178SLPC   H3Y20270   2.956   1.322   6.190 -1.2661 -0.8084  0.7665
  178SLPC   C3420271   3.066   1.209   6.045 -0.0074  0.5549  0.3199
  178SLPC   H4X20272   2.977   1.173   5.989  1.1108  3.4065 -3.8193
  178SLPC   H4Y20273   3.137   1.123   6.046 -0.3350  0.2893  1.2035
  178SLPC   C3520274   3.136   1.325   5.953  0.1728  0.1834 -0.1488
  178SLPC   H5X20275   3.227   1.362   6.004  0.1519 -1.8403  1.4545
  178SLPC   H5Y20276   3.078   1.420   5.947  1.4548  1.0690  0.9378
  178SLPC   C3620277   3.160   1.273   5.820 -0.1247 -0.5477  0.5070
  178SLPC   H6X20278   3.070   1.216   5.788 -1.2495  1.1254  0.5608
  178SLPC   H6Y20279   3.244   1.201   5.806 -1.0594 -1.7509  0.8603
  178SLPC   C3720280   3.166   1.382   5.716  0.4690 -0.3163 -0.4940
  178SLPC   H7X20281   3.246   1.458   5.727 -1.6332  1.9490 -0.0794
  178SLPC   H7Y20282   3.073   1.442   5.717  0.3379 -0.4775  1.6052
  178SLPC   C3820283   3.171   1.323   5.572  0.0123 -0.4466 -0.1709
  178SLPC   H8X20284   3.078   1.270   5.542 -1.2886  0.7955  1.4473
  178SLPC   H8Y20285   3.254   1.250   5.566  0.8481  0.3456  1.3418
  178SLPC   C3920286   3.197   1.435   5.469 -0.1895  0.6030  0.1405
  178SLPC   H9X20287   3.293   1.487   5.485  0.9690 -1.9650  2.2251
  178SLPC   H9Y20288   3.106   1.498   5.484 -2.2495 -2.3774  1.2214
  178SLPC  C31020289   3.209   1.388   5.322  0.0077  0.0551 -0.7531
  178SLPC  H10X20290   3.119   1.329   5.293  0.8422 -3.3734  2.8042
  178SLPC  H10Y20291   3.290   1.312   5.312 -0.5659 -0.3253 -3.1483
  178SLPC  C31120292   3.236   1.508   5.231 -0.5635 -0.7530 -0.3548
  178SLPC  H11X20293   3.317   1.572   5.271 -0.8617  0.3544 -1.4296
  178SLPC  H11Y20294   3.148   1.575   5.244 -0.2811 -0.2432 -1.0183
  178SLPC  C31220295   3.276   1.490   5.087 -1.1011 -0.3821 -0.0890
  178SLPC  H12X20296   3.207   1.420   5.036 -1.6118 -0.1039  0.2098
  178SLPC  H12Y20297   3.371   1.433   5.091  0.7622  2.1696 -2.9881
  178SLPC  C31320298   3.312   1.623   5.013 -0.5121 -0.9567 -0.4318
  178SLPC  H13X20299   3.383   1.689   5.065 -0.2731 -0.5730 -1.2307
  178SLPC  H13Y20300   3.213   1.674   5.016 -0.7313 -1.3989  1.5460
  178SLPC  C31420301   3.359   1.604   4.870 -0.6316  0.2109 -0.9199
  178SLPC  H14X20302   3.271   1.580   4.808 -0.6847  0.6456 -1.0175
  178SLPC  H14Y20303   3.431   1.520   4.871 -2.9817 -1.9502 -2.0954
  178SLPC  C31520304   3.421   1.729   4.803 -0.3655  0.8385  0.0982
  178SLPC  H15X20305   3.455   1.701   4.700  0.3504  0.0026  0.5477
  178SLPC  H15Y20306   3.512   1.758   4.859  1.1236 -1.9113 -0.6839
  178SLPC  C31620307   3.321   1.845   4.786 -0.1428 -0.5178  0.0610
  178SLPC  H16X20308   3.302   1.899   4.882  0.1251 -0.7899  0.2673
  178SLPC  H16Y20309   3.218   1.818   4.754 -0.4667  0.0999  0.5498
  178SLPC  C31720310   3.372   1.946   4.677  0.5795 -0.4805  0.0113
  178SLPC  H17X20311   3.381   1.903   4.575 -0.1728 -0.9836  0.1460
  178SLPC  H17Y20312   3.471   1.990   4.702  0.6850 -0.4642 -0.4317
  178SLPC  C31820313   3.269   2.062   4.662 -1.0388 -0.2611 -0.2547
  178SLPC  H18X20314   3.169   2.020   4.637 -1.5170  0.6788  0.0302
  178SLPC  H18Y20315   3.299   2.132   4.580  1.3544  0.9244  1.4971
  178SLPC  H18Z20316   3.266   2.115   4.759 -0.0195  1.2443 -1.0023
  179SLPC     N20317   6.348   1.716   2.188  0.0920 -0.0247 -0.1266
  179SLPC   C1320318   6.206   1.721   2.156  0.5017  0.5852  0.0800
  179SLPC  H13A20319   6.164   1.818   2.179  0.3148  0.3841  0.5950
  179SLPC  H13B20320   6.176   1.703   2.054  0.2977  0.0126  0.2381
  179SLPC  H13C20321   6.150   1.649   2.214  2.0872 -1.7448 -1.1057
  179SLPC   C1420322   6.428   1.821   2.119 -0.3912  0.0264  0.2640
  179SLPC  H14A20323   6.418   1.825   2.011  1.2109 -2.4896 -0.0710
  179SLPC  H14B20324   6.398   1.919   2.152  1.2028  1.0810 -1.1968
  179SLPC  H14C20325   6.531   1.823   2.152 -0.5878 -0.4046  0.9148
  179SLPC   C1520326   6.412   1.594   2.146 -0.4887 -0.7185 -0.4488
  179SLPC  H15A20327   6.408   1.595   2.038 -1.1059  0.5612 -0.4419
  179SLPC  H15B20328   6.515   1.592   2.180 -1.4365 -0.0301  2.8344
  179SLPC  H15C20329   6.370   1.499   2.174  3.7830 -2.6046  0.3362
  179SLPC   C1220330   6.362   1.718   2.343 -0.6656 -0.4412  0.6754
  179SLPC  H12A20331   6.322   1.629   2.390 -2.6700  0.7904  1.4381
  179SLPC  H12B20332   6.287   1.789   2.374 -1.2788 -0.7981  0.0272
  179SLPC   C1120333   6.505   1.756   2.404  0.8290 -0.3883 -0.3315
  179SLPC  H11A20334   6.585   1.692   2.360  0.8465  1.1759 -2.7544
  179SLPC  H11B20335   6.498   1.748   2.515  1.1102  0.2782 -0.2649
  179SLPC     P20336   6.505   2.031   2.447 -0.1108  0.1767 -0.1483
  179SLPC   O1320337   6.602   2.135   2.411 -0.6265  0.1441 -0.4793
  179SLPC   O1420338   6.363   2.059   2.422 -0.6669 -0.2635 -0.3085
  179SLPC   O1220339   6.535   1.896   2.373  0.1616 -0.2116  0.3959
  179SLPC   O1120340   6.540   1.990   2.598  0.2135  0.2981 -0.3786
  179SLPC    C120341   6.674   1.949   2.635 -0.4635 -0.2591 -0.1931
  179SLPC    HA20342   6.681   1.848   2.681  1.4661  0.1357  0.4764
  179SLPC    HB20343   6.746   1.953   2.551 -1.8832  0.1232 -1.4412
  179SLPC    C220344   6.736   2.050   2.735 -0.1968 -0.8612  0.0253
  179SLPC    HS20345   6.820   1.993   2.780  0.4014 -0.9412 -1.1766
  179SLPC   O2120346   6.632   2.076   2.830 -0.2803  0.0675 -0.3744
  179SLPC   C2120347   6.599   1.979   2.918 -0.8952  0.1084  0.8797
  179SLPC   O2220348   6.650   1.868   2.926 -0.0071  0.3114 -0.1001
  179SLPC   C2220349   6.497   2.034   3.028 -0.1110 -0.4712  0.3178
  179SLPC   H2R20350   6.418   2.093   2.977 -0.1795 -0.3226  0.5928
  179SLPC   H2S20351   6.443   1.949   3.073 -2.9867  0.7600 -0.5614
  179SLPC    C320352   6.794   2.188   2.678 -0.1283 -0.0251  0.3776
  179SLPC    HX20353   6.710   2.248   2.637  0.1729 -1.0391 -1.8924
  179SLPC    HY20354   6.861   2.178   2.590 -0.1455 -0.3171  0.3951
  179SLPC   O3120355   6.871   2.248   2.782 -0.6321 -0.2917 -0.1690
  179SLPC   C3120356   6.799   2.319   2.877  0.0024  0.2869 -0.9709
  179SLPC   O3220357   6.684   2.357   2.862 -0.4343  0.3078 -0.0554
  179SLPC   C3220358   6.896   2.352   2.985 -0.2383 -0.7357 -0.0243
  179SLPC   H2X20359   6.992   2.383   2.939  0.6705 -3.1252  0.0956
  179SLPC   H2Y20360   6.903   2.265   3.055 -0.4545  0.7581  1.9591
  179SLPC   C2320361   6.564   2.115   3.138  0.2888 -0.6490 -0.4326
  179SLPC   H3R20362   6.485   2.175   3.188  0.2911 -1.1047  0.1303
  179SLPC   H3S20363   6.646   2.181   3.101  0.1992 -0.3865 -0.1666
  179SLPC   C2420364   6.610   2.027   3.255 -0.1007  0.6436 -0.0736
  179SLPC   H4R20365   6.712   2.059   3.283 -0.0821  1.7585 -1.3066
  179SLPC   H4S20366   6.622   1.925   3.213 -1.9092  0.9311 -1.4227
  179SLPC   C2520367   6.520   2.034   3.374 -0.1280  0.1319  0.8208
  179SLPC   H5R20368   6.414   2.016   3.345 -0.0544  0.8703  0.0501
  179SLPC   H5S20369   6.516   2.138   3.413  0.0282  1.4178 -2.2959
  179SLPC   C2620370   6.560   1.934   3.490 -0.0144 -0.2413 -0.6738
  179SLPC   H6R20371   6.654   1.969   3.538 -0.8722  0.0704  0.8270
  179SLPC   H6S20372   6.580   1.833   3.448 -1.0712 -1.1420  0.9154
  179SLPC   C2720373   6.448   1.908   3.596 -0.1065 -0.3813 -0.5912
  179SLPC   H7R20374   6.362   1.859   3.545 -1.1374  1.2715 -0.5309
  179SLPC   H7S20375   6.421   2.010   3.631 -0.1766 -0.5170 -0.2472
  179SLPC   C2820376   6.497   1.829   3.722  0.0140 -0.1587  0.7336
  179SLPC   H8R20377   6.561   1.890   3.790 -0.4918 -0.6830  1.7054
  179SLPC   H8S20378   6.566   1.751   3.685  0.6265 -0.0947  1.7067
  179SLPC   C2920379   6.390   1.763   3.805 -0.3360  0.1125 -0.0180
  179SLPC   H9R20380   6.319   1.708   3.742  0.7792 -0.6471 -0.6449
  179SLPC  C21020381   6.380   1.778   3.941 -0.7282  0.6283 -0.3785
  179SLPC  H10R20382   6.292   1.728   3.985  0.8346 -0.1513  1.9988
  179SLPC  C21120383   6.486   1.834   4.037 -0.0338  0.5299 -0.7939
  179SLPC  H11R20384   6.573   1.882   3.988  0.2595  0.2815 -0.5214
  179SLPC  H11S20385   6.517   1.752   4.106  3.2484  1.4193 -1.0471
  179SLPC  C21220386   6.415   1.943   4.117 -0.3641  0.3100 -0.6294
  179SLPC  H12R20387   6.334   1.905   4.182 -0.3318  0.0829 -0.7213
  179SLPC  C21320388   6.441   2.073   4.131 -0.2366 -0.5509 -0.5005
  179SLPC  H13R20389   6.378   2.134   4.197  1.1918 -1.0034  1.3514
  179SLPC  C21420390   6.540   2.159   4.059  0.3505 -0.0256  0.2191
  179SLPC  H14R20391   6.600   2.093   3.992 -0.4694 -3.0806  2.2554
  179SLPC  H14S20392   6.607   2.193   4.141  0.6004  0.9290 -0.3596
  179SLPC  C21520393   6.476   2.275   3.979 -0.0723  0.6625  0.0488
  179SLPC  H15R20394   6.395   2.244   3.910 -0.4730  1.5288  0.1090
  179SLPC  H15S20395   6.562   2.312   3.919  0.9528 -2.7828 -0.8282
  179SLPC  C21620396   6.432   2.382   4.082  0.6822  0.5683  0.3583
  179SLPC  H16R20397   6.508   2.377   4.163 -0.1679 -0.3440  1.1257
  179SLPC  H16S20398   6.343   2.335   4.131  1.0300 -0.6852 -0.1774
  179SLPC  C21720399   6.402   2.526   4.040  0.6515 -0.4841 -0.0466
  179SLPC  H17R20400   6.342   2.513   3.947  0.7006  1.4250 -0.4048
  179SLPC  H17S20401   6.499   2.573   4.011 -0.8116  1.4761 -2.1937
  179SLPC  C21820402   6.324   2.591   4.161  0.2980 -0.0388  1.1837
  179SLPC  H18R20403   6.235   2.533   4.194 -2.7162  2.6293 -1.4519
  179SLPC  H18S20404   6.296   2.692   4.125  2.3403  0.2954  0.4054
  179SLPC  H18T20405   6.383   2.615   4.251 -0.3646 -1.1467  1.9405
  179SLPC   C3320406   6.848   2.479   3.066 -0.0683  0.6348  0.3089
  179SLPC   H3X20407   6.790   2.538   2.992 -0.9219  0.7859  1.0839
  179SLPC   H3Y20408   6.927   2.549   3.100  0.8140 -1.1729  2.1583
  179SLPC   C3420409   6.751   2.440   3.183 -0.0591 -0.3372  0.1222
  179SLPC   H4X20410   6.653   2.398   3.152  0.6870 -0.9231 -1.5519
  179SLPC   H4Y20411   6.715   2.541   3.212  0.1558  0.2522 -1.5907
  179SLPC   C3520412   6.823   2.371   3.305 -0.1151 -0.1858  0.2576
  179SLPC   H5X20413   6.863   2.268   3.288  0.8452 -0.1035  1.7737
  179SLPC   H5Y20414   6.907   2.444   3.310  0.7125 -1.1564  1.2965
  179SLPC   C3620415   6.757   2.358   3.442 -0.0852  0.5041 -0.0799
  179SLPC   H6X20416   6.686   2.272   3.450  0.5586 -0.1637 -1.2205
  179SLPC   H6Y20417   6.704   2.454   3.462 -0.4277 -0.0021  1.6096
  179SLPC   C3720418   6.852   2.327   3.567 -0.5226 -0.2036  0.2832
  179SLPC   H7X20419   6.927   2.409   3.573 -0.2201 -0.1675 -2.4147
  179SLPC   H7Y20420   6.897   2.226   3.560 -3.2280 -1.4489 -1.0552
  179SLPC   C3820421   6.766   2.350   3.694  0.3656  0.8311  0.0983
  179SLPC   H8X20422   6.692   2.267   3.701  0.6137  0.6038  0.0311
  179SLPC   H8Y20423   6.707   2.444   3.699  0.7812  1.0227  1.8907
  179SLPC   C3920424   6.858   2.341   3.818 -0.1740 -0.3143  0.3268
  179SLPC   H9X20425   6.951   2.288   3.788  2.0112  2.3312  1.9217
  179SLPC   H9Y20426   6.810   2.292   3.906  0.0155  2.7180  2.2723
  179SLPC  C31020427   6.908   2.473   3.872 -0.0108  0.0911 -0.2038
  179SLPC  H10X20428   6.926   2.523   3.774  2.7330  0.7314  0.5384
  179SLPC  H10Y20429   7.003   2.455   3.927 -0.0282  3.9135  1.4301
  179SLPC  C31120430   6.792   2.544   3.945 -0.1477 -0.6635 -0.3291
  179SLPC  H11X20431   6.739   2.468   4.007  2.3678 -1.3740  1.1085
  179SLPC  H11Y20432   6.715   2.594   3.883  0.8249  4.0698  1.8125
  179SLPC  C31220433   6.841   2.652   4.042  0.3933 -0.5727  0.3350
  179SLPC  H12X20434   6.864   2.741   3.980 -0.2655 -0.5810  0.0728
  179SLPC  H12Y20435   6.933   2.634   4.102 -0.0790  2.4947  2.2280
  179SLPC  C31320436   6.732   2.703   4.139 -0.0456 -0.0213 -0.7458
  179SLPC  H13X20437   6.638   2.736   4.091 -1.2486  2.3664  2.8268
  179SLPC  H13Y20438   6.779   2.796   4.177  2.7114 -1.8162  0.6230
  179SLPC  C31420439   6.720   2.600   4.256  0.1845  0.0761  0.2819
  179SLPC  H14X20440   6.813   2.568   4.308 -0.9402 -1.0258  1.7342
  179SLPC  H14Y20441   6.672   2.506   4.221  0.5340  0.5415 -1.4936
  179SLPC  C31520442   6.633   2.662   4.369  0.4320 -0.0646  0.1186
  179SLPC  H15X20443   6.539   2.701   4.325  1.1937 -0.3404 -1.8721
  179SLPC  H15Y20444   6.696   2.747   4.403 -1.0003  0.6282  1.1319
  179SLPC  C31620445   6.594   2.556   4.472 -0.3122  0.7563 -0.3950
  179SLPC  H16X20446   6.691   2.521   4.514 -0.9351  0.0764  0.5260
  179SLPC  H16Y20447   6.547   2.472   4.415  0.9470  0.8604 -1.6499
  179SLPC  C31720448   6.503   2.611   4.583  0.0145  0.3790  0.8207
  179SLPC  H17X20449   6.467   2.519   4.635 -0.8384 -0.5806 -1.3254
  179SLPC  H17Y20450   6.408   2.653   4.542  0.5749 -0.1098 -1.1027
  179SLPC  C31820451   6.576   2.705   4.678 -0.1683  0.0659  0.6735
  179SLPC  H18X20452   6.522   2.742   4.767  0.2843  1.7882  0.2663
  179SLPC  H18Y20453   6.602   2.793   4.615  2.9065 -1.4396 -0.3686
  179SLPC  H18Z20454   6.670   2.660   4.715 -0.0133 -1.5440 -1.4595
  180SLPC     N20455   5.550   1.290   2.355 -0.7848  0.0449 -0.8114
  180SLPC   C1320456   5.672   1.296   2.268  0.7084  0.2434 -0.1273
  180SLPC  H13A20457   5.755   1.337   2.324 -1.6819  2.3325  2.1606
  180SLPC  H13B20458   5.697   1.206   2.214  1.5349  0.7296 -0.5879
  180SLPC  H13C20459   5.655   1.366   2.187  2.2928 -1.0606 -1.6765
  180SLPC   C1420460   5.561   1.174   2.446  0.1507  0.5946  0.0345
  180SLPC  H14A20461   5.587   1.090   2.383  0.5008  1.0057 -0.3795
  180SLPC  H14B20462   5.641   1.179   2.518  1.6393 -1.2433 -1.3819
  180SLPC  H14C20463   5.470   1.144   2.497  0.1207  1.4180  0.4776
  180SLPC   C1520464   5.426   1.259   2.275 -0.0479  0.3635 -0.0108
  180SLPC  H15A20465   5.344   1.225   2.336  0.0754  1.3770  0.7343
  180SLPC  H15B20466   5.392   1.347   2.224  0.1770  0.5657  0.1836
  180SLPC  H15C20467   5.444   1.179   2.204  0.7052  0.8781 -0.4274
  180SLPC   C1220468   5.525   1.411   2.439 -0.7430 -0.5346 -0.7021
  180SLPC  H12A20469   5.600   1.419   2.515  1.2572 -1.8041 -2.4320
  180SLPC  H12B20470   5.430   1.393   2.487  0.2215  0.5014  1.7418
  180SLPC   C1120471   5.518   1.541   2.363  0.0269  0.3054  0.2401
  180SLPC  H11A20472   5.481   1.622   2.428 -0.9336 -0.8746  1.2215
  180SLPC  H11B20473   5.442   1.526   2.282  2.0485 -1.7196 -1.4040
  180SLPC     P20474   5.775   1.620   2.366 -0.4255  0.0710  0.2438
  180SLPC   O1320475   5.862   1.499   2.362 -0.6304 -0.3742 -0.6768
  180SLPC   O1420476   5.835   1.750   2.319 -0.3802 -0.2603  0.3049
  180SLPC   O1220477   5.642   1.582   2.296 -0.1905 -0.4856  0.0152
  180SLPC   O1120478   5.722   1.643   2.512 -0.2832 -0.5194  0.3446
  180SLPC    C120479   5.663   1.772   2.549 -0.3548 -0.9032 -0.1728
  180SLPC    HA20480   5.642   1.830   2.457  0.2221 -2.4624 -1.3539
  180SLPC    HB20481   5.565   1.758   2.599 -0.5781 -0.2974 -0.4310
  180SLPC    C220482   5.751   1.843   2.656 -0.1770 -0.2881 -0.9205
  180SLPC    HS20483   5.842   1.890   2.612  0.1609  1.0998  1.1083
  180SLPC   O2120484   5.791   1.740   2.755 -0.2546 -0.1105  0.2722
  180SLPC   C2120485   5.914   1.749   2.802  0.3734  0.1782  0.6398
  180SLPC   O2220486   5.982   1.847   2.794 -0.4815  0.3539 -0.3449
  180SLPC   C2220487   5.939   1.614   2.879 -0.5331  0.3476 -0.2058
  180SLPC   H2R20488   5.838   1.594   2.919 -1.0558  0.9616 -1.1834
  180SLPC   H2S20489   5.968   1.531   2.812  1.8182  0.9068  0.0135
  180SLPC    C320490   5.670   1.953   2.736 -0.7424 -0.1140  0.4221
  180SLPC    HX20491   5.628   2.021   2.659 -0.8528  0.7951  1.2638
  180SLPC    HY20492   5.740   2.013   2.798 -0.8326 -1.5962  2.0620
  180SLPC   O3120493   5.559   1.901   2.821  0.3663  0.5260  0.4121
  180SLPC   C3120494   5.595   1.887   2.949  0.2328 -0.5491  0.4882
  180SLPC   O3220495   5.707   1.919   2.985 -0.3100 -0.0917 -0.5519
  180SLPC   C3220496   5.499   1.810   3.030  0.1447 -0.0114 -0.7289
  180SLPC   H2X20497   5.471   1.714   2.981  1.4280 -0.2511 -1.0506
  180SLPC   H2Y20498   5.402   1.864   3.026 -1.6469 -2.8233  0.9949
  180SLPC   C2320499   6.040   1.611   3.000  0.4257  0.0204 -0.0303
  180SLPC   H3R20500   6.144   1.646   2.982  0.3823  1.8087  2.7185
  180SLPC   H3S20501   6.028   1.507   3.038 -0.9988  0.6339  1.2949
  180SLPC   C2420502   5.974   1.704   3.108  0.0249 -0.4518  0.7555
  180SLPC   H4R20503   5.868   1.678   3.130  0.2366 -0.0889  2.2824
  180SLPC   H4S20504   5.966   1.809   3.074 -1.6695 -1.0458 -0.8451
  180SLPC   C2520505   6.053   1.711   3.230 -0.0526 -0.1617  0.3771
  180SLPC   H5R20506   6.160   1.727   3.204  0.4486 -1.2287  1.7022
  180SLPC   H5S20507   6.056   1.609   3.274 -2.0034 -0.4921 -0.1476
  180SLPC   C2620508   5.999   1.817   3.329  0.5075  0.6746  0.4142
  180SLPC   H6R20509   5.902   1.783   3.371  1.0524  0.1790  1.3205
  180SLPC   H6S20510   5.987   1.914   3.278 -3.9464  0.3319  0.4071
  180SLPC   C2720511   6.104   1.836   3.443  0.1656 -0.0200 -0.3927
  180SLPC   H7R20512   6.193   1.869   3.384  0.3178  1.4592  0.5989
  180SLPC   H7S20513   6.134   1.739   3.489 -0.8252  0.9483  2.4949
  180SLPC   C2820514   6.079   1.935   3.551  0.4219 -0.5056 -0.3718
  180SLPC   H8R20515   6.074   2.040   3.513 -0.7676  0.2021  1.5818
  180SLPC   H8S20516   6.146   1.930   3.640  0.5057 -2.0747 -0.5028
  180SLPC   C2920517   5.940   1.919   3.602 -0.2296  0.8381 -0.1394
  180SLPC   H9R20518   5.856   1.968   3.551 -1.1580 -1.8874 -1.3972
  180SLPC  C21020519   5.904   1.850   3.708 -0.7585  0.3684  0.4340
  180SLPC  H10R20520   5.798   1.848   3.739 -1.1174  1.0935 -0.6783
  180SLPC  C21120521   5.993   1.759   3.796  0.2763 -0.3081  0.4438
  180SLPC  H11R20522   6.101   1.772   3.773 -0.2383 -0.2794 -2.3082
  180SLPC  H11S20523   5.969   1.651   3.787 -1.5559 -0.5350  5.2101
  180SLPC  C21220524   6.009   1.806   3.937  1.0079  0.0048  0.4306
  180SLPC  H12R20525   6.081   1.886   3.961 -0.4451  1.2663  0.7267
  180SLPC  C21320526   5.942   1.764   4.045 -0.3535 -0.1779 -0.6147
  180SLPC  H13R20527   5.969   1.798   4.146 -0.1534 -0.7447 -0.4775
  180SLPC  C21420528   5.828   1.671   4.050  0.5320  0.2113  0.2666
  180SLPC  H14R20529   5.857   1.569   4.081 -1.6104 -0.1150  1.4139
  180SLPC  H14S20530   5.785   1.665   3.948  0.3820  1.1084  0.2666
  180SLPC  C21520531   5.706   1.713   4.133 -0.2549  0.1281 -0.0038
  180SLPC  H15R20532   5.675   1.819   4.117 -1.4734 -0.4086 -1.4582
  180SLPC  H15S20533   5.742   1.705   4.237 -0.1893 -0.8263 -0.0896
  180SLPC  C21620534   5.594   1.614   4.113 -0.4208  0.5456  0.2195
  180SLPC  H16R20535   5.624   1.539   4.037 -2.0774 -0.3364  0.3720
  180SLPC  H16S20536   5.503   1.651   4.060 -1.2167 -1.6905 -0.0996
  180SLPC  C21720537   5.545   1.563   4.248  0.0338 -0.6040  0.1229
  180SLPC  H17R20538   5.524   1.645   4.320 -1.2796 -1.5662  0.8827
  180SLPC  H17S20539   5.619   1.493   4.293  1.7984  1.4718  0.6051
  180SLPC  C21820540   5.418   1.483   4.231 -0.0491 -0.5254 -0.5559
  180SLPC  H18R20541   5.397   1.430   4.326  1.5034 -1.2900 -0.5988
  180SLPC  H18S20542   5.436   1.410   4.149 -0.7467  1.7987 -2.9121
  180SLPC  H18T20543   5.330   1.545   4.203 -0.5328 -1.0516 -0.2186
  180SLPC   C3320544   5.551   1.791   3.177  0.0165  0.5684  0.5759
  180SLPC   H3X20545   5.604   1.881   3.216 -0.0932  0.1441  1.7140
  180SLPC   H3Y20546   5.624   1.707   3.177  1.0099  1.3681  2.5719
  180SLPC   C3420547   5.434   1.767   3.272  0.6605 -0.7351  0.2856
  180SLPC   H4X20548   5.374   1.689   3.220 -1.0745  2.2253 -2.5872
  180SLPC   H4Y20549   5.355   1.844   3.285 -1.4863 -2.6184 -0.9338
  180SLPC   C3520550   5.481   1.725   3.413  0.7487  0.6869  0.1331
  180SLPC   H5X20551   5.550   1.639   3.404 -0.2379  0.0104 -1.4650
  180SLPC   H5Y20552   5.383   1.702   3.460 -0.1021  2.3447 -0.7263
  180SLPC   C3620553   5.525   1.846   3.494  0.0878 -0.7540 -0.0210
  180SLPC   H6X20554   5.457   1.930   3.471  1.1489  0.1606  0.0913
  180SLPC   H6Y20555   5.628   1.881   3.470  0.4764 -0.9589  1.2888
  180SLPC   C3720556   5.526   1.813   3.641  0.4400  0.6330  0.3190
  180SLPC   H7X20557   5.605   1.741   3.670 -0.3337 -0.3507  0.0569
  180SLPC   H7Y20558   5.442   1.748   3.674  1.6129 -0.2843  1.6238
  180SLPC   C3820559   5.506   1.932   3.731 -0.5210  0.2029 -0.3043
  180SLPC   H8X20560   5.419   1.996   3.705 -0.0634  0.8083 -0.3518
  180SLPC   H8Y20561   5.599   1.991   3.744  0.4574 -0.7844 -2.3216
  180SLPC   C3920562   5.461   1.879   3.870 -0.1766 -0.3373  0.0054
  180SLPC   H9X20563   5.515   1.784   3.889 -0.3244 -0.0998  1.7552
  180SLPC   H9Y20564   5.355   1.848   3.863  0.4698 -2.3773 -1.6078
  180SLPC  C31020565   5.485   1.981   3.988 -0.2421  0.1906 -0.0315
  180SLPC  H10X20566   5.486   2.084   3.947 -0.4716 -0.2604 -1.2269
  180SLPC  H10Y20567   5.592   1.975   4.015 -0.3823 -0.6765  0.3685
  180SLPC  C31120568   5.377   1.955   4.105  0.1534 -0.3287 -0.3024
  180SLPC  H11X20569   5.395   1.852   4.142  2.3685 -0.4956 -1.6715
  180SLPC  H11Y20570   5.286   1.970   4.044  1.1908  0.3094 -1.7642
  180SLPC  C31220571   5.393   2.048   4.225 -0.5765 -0.3693  0.9389
  180SLPC  H12X20572   5.357   2.148   4.193 -0.8141 -0.2288  1.6253
  180SLPC  H12Y20573   5.498   2.053   4.261 -0.2710  1.4345 -0.0769
  180SLPC  C31320574   5.330   2.005   4.354 -0.0736  0.0107 -0.3929
  180SLPC  H13X20575   5.370   2.060   4.441  0.9128  0.2409 -0.9715
  180SLPC  H13Y20576   5.349   1.900   4.386  0.2344 -0.1778 -1.1655
  180SLPC  C31420577   5.179   2.033   4.355 -0.2468 -0.0138  0.1947
  180SLPC  H14X20578   5.131   1.969   4.278 -1.0223  1.2019 -0.3613
  180SLPC  H14Y20579   5.159   2.139   4.326 -0.1455  0.0948  0.5120
  180SLPC  C31520580   5.111   2.020   4.493 -0.0924  0.0739 -0.3560
  180SLPC  H15X20581   5.141   2.084   4.578 -0.3382 -1.8164  1.2254
  180SLPC  H15Y20582   5.130   1.916   4.527  0.7683 -0.3320 -1.9425
  180SLPC  C31620583   4.967   2.046   4.480  0.3879 -0.0357 -0.2526
  180SLPC  H16X20584   4.915   1.962   4.429  2.5498 -0.2143 -2.3362
  180SLPC  H16Y20585   4.964   2.139   4.419 -0.5109 -0.6725 -1.2097
  180SLPC  C31720586   4.897   2.061   4.617 -0.1547  0.3982  0.2163
  180SLPC  H17X20587   4.788   2.075   4.600 -0.2113  1.7807  1.4490
  180SLPC  H17Y20588   4.931   2.153   4.671  0.4005  0.6431 -0.5320
  180SLPC  C31820589   4.907   1.942   4.717 -0.0286  0.0120  0.4404
  180SLPC  H18X20590   4.864   1.847   4.677  1.5161 -1.0222  1.1443
  180SLPC  H18Y20591   4.851   1.971   4.809 -1.5315 -2.7996  0.5123
  180SLPC  H18Z20592   5.015   1.921   4.731 -0.1109 -1.0065 -0.3254
  181SLPC     N20593   4.322   6.858   2.220  0.0458 -0.3790  0.1959
  181SLPC   C1320594   4.445   6.877   2.129  0.0742  0.6806 -0.1567
  181SLPC  H13A20595   4.410   6.904   2.031 -1.9650  1.5400  0.7520
  181SLPC  H13B20596   4.498   6.961   2.170  2.3333 -0.8541  0.2299
  181SLPC  H13C20597   4.509   6.790   2.129  0.6710  1.1131 -0.2453
  181SLPC   C1420598   4.234   6.755   2.157 -0.2630  0.6032  0.5639
  181SLPC  H14A20599   4.215   6.793   2.058  1.3217 -0.3919 -0.1510
  181SLPC  H14B20600   4.274   6.655   2.150 -2.4730 -0.3137  0.2496
  181SLPC  H14C20601   4.142   6.750   2.214  0.4346  1.8195  1.8686
  181SLPC   C1520602   4.250   6.994   2.220 -0.2889  0.6520 -0.3736
  181SLPC  H15A20603   4.330   7.064   2.235  1.2505 -1.0585 -0.2431
  181SLPC  H15B20604   4.202   7.008   2.124 -0.9699 -0.0138 -0.1396
  181SLPC  H15C20605   4.173   7.006   2.295  1.7176  2.2273  1.5499
  181SLPC   C1220606   4.369   6.814   2.357  0.0367 -0.0463 -0.2014
  181SLPC  H12A20607   4.402   6.712   2.362  0.6285  0.0322 -1.9632
  181SLPC  H12B20608   4.290   6.825   2.430 -0.4329  1.9509 -0.9509
  181SLPC   C1120609   4.491   6.894   2.417 -0.0240 -0.1638  0.6779
  181SLPC  H11A20610   4.574   6.872   2.346 -1.5789 -2.6154 -0.5004
  181SLPC  H11B20611   4.516   6.847   2.514 -1.7125 -0.4971  0.9731
  181SLPC     P20612   4.540   7.157   2.412  0.1808 -0.0698  0.1534
  181SLPC   O1320613   4.642   7.133   2.306 -0.0868 -0.3791  0.2581
  181SLPC   O1420614   4.445   7.266   2.384  0.2347  0.4400  0.4913
  181SLPC   O1220615   4.451   7.030   2.436 -0.1244  0.0212  0.3369
  181SLPC   O1120616   4.605   7.179   2.550 -0.2170  0.2140  0.5175
  181SLPC    C120617   4.559   7.127   2.676 -0.2124  0.1071  0.4195
  181SLPC    HA20618   4.448   7.128   2.680 -0.2328  2.5651  0.5067
  181SLPC    HB20619   4.589   7.020   2.681 -1.1433 -0.1296  1.1667
  181SLPC    C220620   4.627   7.175   2.808  0.0640  0.1572  0.0330
  181SLPC    HS20621   4.592   7.115   2.895  3.1026  2.1277  2.8451
  181SLPC   O2120622   4.590   7.307   2.833  0.2960 -0.4719  0.6652
  181SLPC   C2120623   4.463   7.332   2.873 -0.6922  0.2629 -0.1064
  181SLPC   O2220624   4.373   7.251   2.881 -0.0553 -0.4609 -0.3079
  181SLPC   C2220625   4.457   7.483   2.889  0.3618 -0.0021  0.5936
  181SLPC   H2R20626   4.498   7.530   2.797 -2.0733 -0.6972 -0.9421
  181SLPC   H2S20627   4.356   7.524   2.911  1.0282  2.2005 -0.1171
  181SLPC    C320628   4.784   7.164   2.811  0.4786  0.0316  0.3545
  181SLPC    HX20629   4.811   7.227   2.724 -0.6695  0.6329  0.4090
  181SLPC    HY20630   4.802   7.058   2.783 -1.0472 -0.1447 -0.0759
  181SLPC   O3120631   4.842   7.190   2.939 -0.0040  0.1854  0.3178
  181SLPC   C3120632   4.964   7.256   2.944 -0.2357  0.1897 -0.1901
  181SLPC   O3220633   5.031   7.286   2.843  0.3728 -0.0478 -0.3293
  181SLPC   C3220634   5.018   7.265   3.085  0.9612  0.4266 -0.1321
  181SLPC   H2X20635   5.124   7.298   3.083  0.6412  1.7101  1.8570
  181SLPC   H2Y20636   5.014   7.167   3.135  0.2202 -0.1565 -1.2870
  181SLPC   C2320637   4.539   7.525   3.006  0.7322  1.0403 -0.0467
  181SLPC   H3R20638   4.560   7.634   3.011  0.1097  1.1474  0.3759
  181SLPC   H3S20639   4.640   7.479   3.006  0.4831  0.4160 -1.6267
  181SLPC   C2420640   4.462   7.502   3.134  0.0150  0.3031 -1.1477
  181SLPC   H4R20641   4.430   7.396   3.150 -0.1445  0.6684  1.2901
  181SLPC   H4S20642   4.372   7.567   3.146 -0.4604 -0.4874 -0.2635
  181SLPC   C2520643   4.553   7.548   3.251  0.2574 -0.4448 -0.7544
  181SLPC   H5R20644   4.563   7.658   3.249 -0.1801 -0.3991 -0.6161
  181SLPC   H5S20645   4.659   7.516   3.241  0.5904  0.5112 -0.3305
  181SLPC   C2620646   4.500   7.491   3.386 -0.3932  0.0820  0.2355
  181SLPC   H6R20647   4.397   7.511   3.423  0.3303  0.9773  1.8736
  181SLPC   H6S20648   4.568   7.535   3.462  1.7470 -2.2291 -0.2360
  181SLPC   C2720649   4.517   7.341   3.399  0.5806 -0.2964  0.0428
  181SLPC   H7R20650   4.618   7.298   3.385  0.4398 -1.1044  1.3667
  181SLPC   H7S20651   4.445   7.300   3.325 -3.8486  0.8081  3.2704
  181SLPC   C2820652   4.483   7.292   3.540  0.3233 -0.1738 -0.0440
  181SLPC   H8R20653   4.483   7.182   3.533  0.2230 -0.0991 -1.4146
  181SLPC   H8S20654   4.379   7.326   3.558  1.4403  2.0332  3.2537
  181SLPC   C2920655   4.578   7.336   3.644 -0.7129 -0.7532 -0.8123
  181SLPC   H9R20656   4.685   7.312   3.633 -0.3286  1.0916 -1.2919
  181SLPC  C21020657   4.554   7.419   3.744  0.3509  0.0266 -0.1694
  181SLPC  H10R20658   4.632   7.447   3.816  0.7626 -0.7665 -0.3033
  181SLPC  C21120659   4.425   7.496   3.777  0.3947  0.9392  1.1308
  181SLPC  H11R20660   4.397   7.554   3.686  0.1624 -0.6838  0.1313
  181SLPC  H11S20661   4.446   7.577   3.850 -0.4711  2.6617 -0.4704
  181SLPC  C21220662   4.305   7.417   3.822  0.0529 -0.0977  0.0965
  181SLPC  H12R20663   4.240   7.378   3.742 -1.4568  1.9023  0.2734
  181SLPC  C21320664   4.277   7.364   3.947 -0.6872 -0.4069  0.0505
  181SLPC  H13R20665   4.187   7.300   3.944 -1.2524  0.3888 -0.5025
  181SLPC  C21420666   4.358   7.376   4.074  0.4745 -0.0971  0.7389
  181SLPC  H14R20667   4.289   7.405   4.156  0.8135  1.8148  0.4163
  181SLPC  H14S20668   4.421   7.468   4.064 -0.7033  0.5165 -2.0462
  181SLPC  C21520669   4.458   7.267   4.107  0.8463  0.5834 -1.2769
  181SLPC  H15R20670   4.523   7.285   4.195 -1.5997 -1.8489  1.2097
  181SLPC  H15S20671   4.527   7.258   4.020  0.6261  2.7567 -1.7326
  181SLPC  C21620672   4.384   7.136   4.157  0.6151 -0.1936  0.3272
  181SLPC  H16R20673   4.321   7.097   4.075 -0.4575  0.0110  1.0224
  181SLPC  H16S20674   4.304   7.156   4.232 -2.5934 -4.1523 -1.6483
  181SLPC  C21720675   4.471   7.018   4.195  0.0780  0.0803 -0.6545
  181SLPC  H17R20676   4.559   7.052   4.254 -0.1249  0.6451 -0.6668
  181SLPC  H17S20677   4.522   6.978   4.105  0.1822  1.3594 -1.1861
  181SLPC  C21820678   4.388   6.917   4.276 -0.4167  0.3357  0.4048
  181SLPC  H18R20679   4.437   6.831   4.325  0.0429  0.5450  0.3141
  181SLPC  H18S20680   4.302   6.885   4.214  0.2676 -0.9684  0.1065
  181SLPC  H18T20681   4.359   6.981   4.363  1.0344  2.0432 -0.3136
  181SLPC   C3320682   4.923   7.364   3.166 -0.8034  0.2349  0.2282
  181SLPC   H3X20683   4.830   7.309   3.194 -1.7780  0.6673 -1.9679
  181SLPC   H3Y20684   4.893   7.449   3.102 -0.8210 -1.2746 -1.8556
  181SLPC   C3420685   5.003   7.416   3.289  0.2376  0.5868 -1.2958
  181SLPC   H4X20686   5.061   7.506   3.262  0.2200  1.1496  0.4659
  181SLPC   H4Y20687   5.061   7.331   3.331 -1.2217  1.1153  2.1504
  181SLPC   C3520688   4.913   7.452   3.403  0.1439  0.1591  0.4291
  181SLPC   H5X20689   4.878   7.358   3.452  0.7459 -1.2066 -1.6224
  181SLPC   H5Y20690   4.833   7.524   3.376  1.0486  0.7694 -0.7395
  181SLPC   C3620691   4.991   7.523   3.512 -0.1124 -0.1870 -0.4361
  181SLPC   H6X20692   5.052   7.600   3.460 -2.7178  0.4801 -2.7498
  181SLPC   H6Y20693   5.070   7.466   3.565 -1.2727  2.1377  4.3885
  181SLPC   C3720694   4.895   7.582   3.620  0.3350  0.7635 -0.2179
  181SLPC   H7X20695   4.803   7.521   3.636  0.1924  0.7296 -1.1174
  181SLPC   H7Y20696   4.863   7.677   3.573 -0.1956  1.4647  1.4770
  181SLPC   C3820697   4.968   7.613   3.749 -0.1955 -0.0910 -0.8386
  181SLPC   H8X20698   4.901   7.670   3.817 -0.5507 -2.5370  0.9645
  181SLPC   H8Y20699   5.049   7.684   3.719  0.1461 -0.2957 -0.4027
  181SLPC   C3920700   5.015   7.496   3.831 -0.5294  0.2462  1.2278
  181SLPC   H9X20701   5.078   7.428   3.770 -1.7945 -0.4144  0.6037
  181SLPC   H9Y20702   4.926   7.431   3.849 -0.9904 -0.4559 -2.6168
  181SLPC  C31020703   5.104   7.549   3.949 -0.6678 -0.0174  0.0743
  181SLPC  H10X20704   5.201   7.587   3.909  0.0874 -1.4597  0.4694
  181SLPC  H10Y20705   5.146   7.462   4.003  2.6291  2.2878  1.5792
  181SLPC  C31120706   5.030   7.630   4.047 -0.6517  0.7073 -0.5044
  181SLPC  H11X20707   4.944   7.562   4.066 -0.2946  0.5579  0.6614
  181SLPC  H11Y20708   4.984   7.727   4.017 -0.3638  1.6132  1.8020
  181SLPC  C31220709   5.107   7.632   4.181 -0.5091  0.4529 -0.1567
  181SLPC  H12X20710   5.200   7.690   4.162 -0.0819  0.6024  2.1016
  181SLPC  H12Y20711   5.130   7.527   4.210  0.0810  0.7936  0.6539
  181SLPC  C31320712   5.029   7.703   4.292  0.1536 -0.0466  0.0515
  181SLPC  H13X20713   4.922   7.673   4.283  0.3238 -0.1756 -2.0603
  181SLPC  H13Y20714   5.019   7.812   4.275 -0.9434 -0.0093  0.8680
  181SLPC  C31420715   5.072   7.668   4.435 -1.0146  0.3119  0.2198
  181SLPC  H14X20716   5.163   7.720   4.471 -0.7891 -1.4738  2.4578
  181SLPC  H14Y20717   5.097   7.560   4.424  0.2395  0.6356 -0.2180
  181SLPC  C31520718   4.962   7.700   4.537 -0.5348  0.2905  0.0785
  181SLPC  H15X20719   4.906   7.605   4.546  1.3651 -0.8105  0.8777
  181SLPC  H15Y20720   4.899   7.788   4.513  0.7783  1.5742  1.1302
  181SLPC  C31620721   5.006   7.743   4.681 -0.8259  0.9129 -0.0417
  181SLPC  H16X20722   4.927   7.752   4.758 -0.2083 -0.9167  0.8675
  181SLPC  H16Y20723   5.069   7.835   4.678 -0.1260  0.4282 -1.2746
  181SLPC  C31720724   5.100   7.624   4.733  0.0382 -0.1615  0.3347
  181SLPC  H17X20725   5.191   7.619   4.669 -0.9396  2.1240 -1.3703
  181SLPC  H17Y20726   5.045   7.530   4.711 -0.6671 -0.1518  1.9119
  181SLPC  C31820727   5.142   7.637   4.879  0.9928  0.6302 -0.0762
  181SLPC  H18X20728   5.070   7.596   4.954 -1.2103  0.6271 -2.0958
  181SLPC  H18Y20729   5.160   7.743   4.906  0.6361  0.8430 -0.6628
  181SLPC  H18Z20730   5.245   7.595   4.890  0.8230  0.3764  0.5887
  182SLPC     N20731   1.304   0.863   2.566 -0.5958  0.1705 -0.2986
  182SLPC   C1320732   1.233   0.994   2.528  0.0071 -0.3288  0.6127
  182SLPC  H13A20733   1.128   0.987   2.555  0.0857  1.8519  1.6597
  182SLPC  H13B20734   1.272   1.070   2.594 -2.6419 -0.0506  1.9989
  182SLPC  H13C20735   1.237   1.012   2.422  1.4406 -2.3060  0.2634
  182SLPC   C1420736   1.326   0.858   2.719 -0.4010 -0.7257  0.6482
  182SLPC  H14A20737   1.337   0.754   2.744  1.9649 -1.2311 -1.9503
  182SLPC  H14B20738   1.407   0.923   2.750 -0.9848  0.3183  0.0340
  182SLPC  H14C20739   1.237   0.901   2.762 -0.4476  0.0819 -0.2121
  182SLPC   C1520740   1.440   0.855   2.508 -0.8663 -0.3270  0.6305
  182SLPC  H15A20741   1.511   0.924   2.551  1.4992 -1.1245 -1.7190
  182SLPC  H15B20742   1.489   0.759   2.507  1.6367  0.8480 -0.5123
  182SLPC  H15C20743   1.452   0.862   2.401  3.0592  0.1587  0.9262
  182SLPC   C1220744   1.221   0.745   2.516 -0.6341 -0.1612 -0.2644
  182SLPC  H12A20745   1.128   0.748   2.571 -1.9394  1.4527 -2.4149
  182SLPC  H12B20746   1.274   0.657   2.550  1.0989  1.1324  0.5261
  182SLPC   C1120747   1.185   0.755   2.371  0.0931 -0.3815  0.2951
  182SLPC  H11A20748   1.112   0.838   2.357 -0.3965 -0.6537  1.1568
  182SLPC  H11B20749   1.115   0.672   2.350 -0.4470  0.3435 -0.8858
  182SLPC     P20750   1.344   0.615   2.229  0.2116 -0.1114  0.0749
  182SLPC   O1320751   1.254   0.561   2.120 -0.4219  0.3166 -0.0437
  182SLPC   O1420752   1.487   0.629   2.193  0.5548 -0.0420  0.3982
  182SLPC   O1220753   1.297   0.758   2.276 -0.1542 -0.3405 -0.2084
  182SLPC   O1120754   1.330   0.522   2.357 -0.2175 -0.1237  0.0097
  182SLPC    C120755   1.416   0.413   2.376 -0.0305  0.7356 -0.5863
  182SLPC    HA20756   1.430   0.357   2.281 -2.3419 -0.4011 -0.3457
  182SLPC    HB20757   1.520   0.438   2.404  0.6695 -1.6958 -0.8274
  182SLPC    C220758   1.359   0.301   2.474  0.2425  0.3457  0.3563
  182SLPC    HS20759   1.258   0.271   2.439  0.7503  0.8758 -1.7201
  182SLPC   O2120760   1.384   0.327   2.614  0.6174 -0.9143  0.7285
  182SLPC   C2120761   1.295   0.411   2.665 -0.0076 -0.1249  0.0043
  182SLPC   O2220762   1.193   0.458   2.617  0.3782 -0.1720  0.2699
  182SLPC   C2220763   1.339   0.455   2.801 -0.0397  0.3770  1.2972
  182SLPC   H2R20764   1.434   0.399   2.818 -0.1811 -0.5075 -0.5312
  182SLPC   H2S20765   1.363   0.564   2.800  0.7359  0.2817 -1.6176
  182SLPC    C320766   1.441   0.167   2.457  0.9256  0.0225 -0.2363
  182SLPC    HX20767   1.543   0.187   2.497  0.2174  0.2141  1.5904
  182SLPC    HY20768   1.443   0.142   2.349  0.0841 -3.9114  0.5350
  182SLPC   O3120769   1.381   0.061   2.534  0.2083 -0.5751 -0.0061
  182SLPC   C3120770   1.461  -0.039   2.546  0.0692 -0.1221 -0.1618
  182SLPC   O3220771   1.579  -0.044   2.508  0.3134  0.6583 -0.7761
  182SLPC   C3220772   1.376  -0.152   2.611  0.4195  0.3545  0.1006
  182SLPC   H2X20773   1.296  -0.191   2.545 -1.8323  1.9121  1.7968
  182SLPC   H2Y20774   1.329  -0.100   2.696  1.1037  1.5256 -0.2189
  182SLPC   C2320775   1.237   0.409   2.904  0.6116  0.0823  0.0571
  182SLPC   H3R20776   1.220   0.299   2.912  1.4141  0.0802  3.0838
  182SLPC   H3S20777   1.146   0.471   2.892  1.3904  1.0529 -1.0240
  182SLPC   C2420778   1.277   0.429   3.048 -0.3279  0.1421 -0.2364
  182SLPC   H4R20779   1.364   0.362   3.067 -2.5476 -3.1091 -0.6215
  182SLPC   H4S20780   1.191   0.402   3.112  0.2601  3.2878  2.1255
  182SLPC   C2520781   1.314   0.572   3.072  0.5547 -0.4264  0.0054
  182SLPC   H5R20782   1.243   0.641   3.022  1.4493 -0.7245 -1.7575
  182SLPC   H5S20783   1.407   0.596   3.017  0.4310 -0.3362 -0.1667
  182SLPC   C2620784   1.336   0.613   3.213  0.2642  0.1903  0.1732
  182SLPC   H6R20785   1.244   0.585   3.268 -0.7944  1.3731 -0.9232
  182SLPC   H6S20786   1.334   0.724   3.213 -0.6640  0.1825 -0.2046
  182SLPC   C2720787   1.449   0.553   3.294 -0.2815  0.1778 -0.1320
  182SLPC   H7R20788   1.545   0.566   3.238 -0.3313  1.2054  0.0024
  182SLPC   H7S20789   1.425   0.446   3.310 -0.8643  0.2267 -0.6539
  182SLPC   C2820790   1.463   0.619   3.435  0.2351 -0.0241  0.6256
  182SLPC   H8R20791   1.467   0.729   3.417  1.3413 -0.2231 -0.4805
  182SLPC   H8S20792   1.556   0.575   3.478  0.2413 -1.7139 -0.9972
  182SLPC   C2920793   1.349   0.586   3.523 -0.3305 -0.2297  0.3646
  182SLPC   H9R20794   1.257   0.555   3.471 -0.8154  1.4543  0.1405
  182SLPC  C21020795   1.350   0.590   3.659  0.4014  0.7630  0.4971
  182SLPC  H10R20796   1.257   0.557   3.706 -0.6489  1.3995 -1.0689
  182SLPC  C21120797   1.460   0.625   3.754  0.0834  0.6035  0.5281
  182SLPC  H11R20798   1.559   0.605   3.706  0.0863  0.0804  0.7447
  182SLPC  H11S20799   1.460   0.556   3.841  0.9886 -1.2811 -0.8754
  182SLPC  C21220800   1.458   0.763   3.794 -0.0912 -0.6641 -0.5000
  182SLPC  H12R20801   1.437   0.830   3.709  1.8748 -0.5229 -0.9189
  182SLPC  C21320802   1.473   0.794   3.929 -0.0624 -0.6905 -1.5523
  182SLPC  H13R20803   1.476   0.898   3.965  2.8435 -1.0501 -0.5129
  182SLPC  C21420804   1.491   0.705   4.054  0.6981  0.2412 -0.0442
  182SLPC  H14R20805   1.543   0.747   4.143  0.9800 -1.4346  0.6223
  182SLPC  H14S20806   1.550   0.614   4.029  2.0305  0.9254  0.4890
  182SLPC  C21520807   1.359   0.642   4.105 -0.4351 -0.3572 -0.3045
  182SLPC  H15R20808   1.379   0.584   4.198  2.0004  0.1079 -0.4540
  182SLPC  H15S20809   1.325   0.571   4.027 -0.3265  0.6672 -1.2916
  182SLPC  C21620810   1.246   0.737   4.133 -0.1667 -0.6732  0.1268
  182SLPC  H16R20811   1.147   0.690   4.115 -0.7076 -0.6236  2.6730
  182SLPC  H16S20812   1.250   0.823   4.063  1.6390 -1.3686 -0.7078
  182SLPC  C21720813   1.244   0.790   4.279 -0.3515  0.5669  0.7004
  182SLPC  H17R20814   1.335   0.854   4.280 -0.8917  1.3476  1.7906
  182SLPC  H17S20815   1.247   0.711   4.357  0.7870  0.5365  0.6427
  182SLPC  C21820816   1.122   0.876   4.318 -0.6304  0.3728  0.9523
  182SLPC  H18R20817   1.022   0.830   4.301 -2.1209  4.3749 -3.2389
  182SLPC  H18S20818   1.119   0.967   4.255 -2.2042 -0.1035  0.2712
  182SLPC  H18T20819   1.142   0.904   4.423 -0.3170 -1.7762  1.5071
  182SLPC   C3320820   1.462  -0.270   2.670 -0.5237 -0.4536  0.2574
  182SLPC   H3X20821   1.527  -0.316   2.593 -0.5803 -1.5833  0.8580
  182SLPC   H3Y20822   1.399  -0.354   2.706 -1.0816 -0.5748 -0.9729
  182SLPC   C3420823   1.552  -0.244   2.793 -0.5238  0.1682 -0.2311
  182SLPC   H4X20824   1.602  -0.150   2.763  0.2196 -0.3792 -0.7394
  182SLPC   H4Y20825   1.638  -0.313   2.779 -1.1790 -0.8538  0.6696
  182SLPC   C3520826   1.480  -0.256   2.925  0.3734 -0.1307 -0.1570
  182SLPC   H5X20827   1.455  -0.365   2.927 -0.9863  0.1636 -0.4081
  182SLPC   H5Y20828   1.380  -0.209   2.917  0.3355 -0.3631 -1.1333
  182SLPC   C3620829   1.558  -0.199   3.050  0.0863 -0.0742  0.6343
  182SLPC   H6X20830   1.565  -0.088   3.053  3.2759 -0.2028  1.1277
  182SLPC   H6Y20831   1.661  -0.238   3.063 -0.1435 -1.3641 -1.1543
  182SLPC   C3720832   1.473  -0.236   3.175  0.3830 -0.1890 -0.5879
  182SLPC   H7X20833   1.454  -0.345   3.193 -0.5591 -0.1069 -1.0206
  182SLPC   H7Y20834   1.371  -0.192   3.174 -0.2115 -1.2994  2.1036
  182SLPC   C3820835   1.545  -0.186   3.299 -0.2992 -0.0021 -0.0265
  182SLPC   H8X20836   1.560  -0.076   3.293 -1.4357  0.2054  0.7828
  182SLPC   H8Y20837   1.644  -0.235   3.314 -0.4935  0.2704  2.4556
  182SLPC   C3920838   1.469  -0.214   3.427 -0.7159 -0.3989 -0.4728
  182SLPC   H9X20839   1.449  -0.322   3.446 -0.1803 -0.3908  0.1742
  182SLPC   H9Y20840   1.373  -0.165   3.399 -0.7197  0.4785  0.9920
  182SLPC  C31020841   1.527  -0.152   3.560 -0.3169  0.4899  0.3417
  182SLPC  H10X20842   1.572  -0.051   3.562  2.0908 -0.5333  0.5555
  182SLPC  H10Y20843   1.618  -0.214   3.567  1.0234  2.3332 -0.1196
  182SLPC  C31120844   1.444  -0.184   3.679  0.1957  0.2027 -1.1034
  182SLPC  H11X20845   1.416  -0.291   3.667  2.2761 -0.4952 -0.2467
  182SLPC  H11Y20846   1.353  -0.120   3.677  0.4126  0.5536 -0.0977
  182SLPC  C31220847   1.512  -0.180   3.818  0.0587 -0.2413 -0.6264
  182SLPC  H12X20848   1.522  -0.074   3.847 -0.9305 -0.5568  0.9723
  182SLPC  H12Y20849   1.609  -0.234   3.810  1.9061  2.4323  1.8649
  182SLPC  C31320850   1.422  -0.235   3.934 -0.4636  0.6569  0.9555
  182SLPC  H13X20851   1.368  -0.326   3.900  1.2084 -1.1230  2.7447
  182SLPC  H13Y20852   1.349  -0.156   3.960 -0.5223  0.7495  0.5123
  182SLPC  C31420853   1.499  -0.271   4.064 -0.6949 -0.2967  0.8527
  182SLPC  H14X20854   1.578  -0.346   4.049 -1.4003 -0.8870 -0.0074
  182SLPC  H14Y20855   1.438  -0.315   4.146 -0.2105  1.2529  2.0906
  182SLPC  C31520856   1.572  -0.149   4.120 -0.4558 -0.4787  0.3039
  182SLPC  H15X20857   1.504  -0.071   4.159 -1.5187 -0.5498 -1.3063
  182SLPC  H15Y20858   1.639  -0.112   4.040 -1.5529  0.3409 -0.2654
  182SLPC  C31620859   1.640  -0.196   4.247  0.1640  0.4884 -0.2442
  182SLPC  H16X20860   1.729  -0.259   4.228 -1.4261 -1.7917 -0.5428
  182SLPC  H16Y20861   1.573  -0.261   4.306  0.9227 -0.4040 -0.3437
  182SLPC  C31720862   1.690  -0.075   4.327 -0.1079  0.2755 -0.4182
  182SLPC  H17X20863   1.617   0.008   4.337  0.5195  0.5906  2.3461
  182SLPC  H17Y20864   1.779  -0.036   4.274 -0.7094 -0.8562 -2.3467
  182SLPC  C31820865   1.750  -0.114   4.460 -0.6291 -0.2691 -0.0001
  182SLPC  H18X20866   1.793  -0.025   4.510 -3.3174 -0.2710  2.6325
  182SLPC  H18Y20867   1.820  -0.199   4.443 -1.2489 -0.5477 -1.2340
  182SLPC  H18Z20868   1.678  -0.145   4.538 -0.1852  3.6164  2.2191
  183SLPC     N20869   2.401   4.343   2.431  0.0600 -0.0106 -0.9189
  183SLPC   C1320870   2.266   4.405   2.413 -0.6700  0.3178 -0.0768
  183SLPC  H13A20871   2.268   4.430   2.308  0.9151  0.3854 -0.0525
  183SLPC  H13B20872   2.186   4.333   2.418 -0.2740 -0.1902 -0.8363
  183SLPC  H13C20873   2.245   4.490   2.476 -2.9280  2.0127 -2.8554
  183SLPC   C1420874   2.504   4.441   2.384  0.2290  0.0750 -0.1016
  183SLPC  H14A20875   2.500   4.448   2.277 -0.5597  3.0007  0.0277
  183SLPC  H14B20876   2.484   4.535   2.434  0.2497 -1.1377  2.3784
  183SLPC  H14C20877   2.607   4.416   2.406 -0.0242 -0.6283  0.3226
  183SLPC   C1520878   2.414   4.217   2.349 -0.3947 -0.6664  0.2498
  183SLPC  H15A20879   2.503   4.161   2.375  0.7457  0.9858  0.0705
  183SLPC  H15B20880   2.320   4.165   2.353 -0.9740  0.3021 -0.3917
  183SLPC  H15C20881   2.423   4.239   2.244  0.4152 -0.6252  0.3207
  183SLPC   C1220882   2.419   4.304   2.574 -0.2077 -0.0175 -0.3679
  183SLPC  H12A20883   2.346   4.239   2.620 -0.8251  1.2260  0.4572
  183SLPC  H12B20884   2.414   4.392   2.636  0.6284 -0.1330 -0.1270
  183SLPC   C1120885   2.558   4.243   2.617 -0.5512 -0.2889 -0.2889
  183SLPC  H11A20886   2.562   4.230   2.727  3.0943  0.8122 -0.1596
  183SLPC  H11B20887   2.635   4.320   2.594 -2.8148  2.5784  1.0490
  183SLPC     P20888   2.734   4.056   2.574 -0.1872  0.0602 -0.0553
  183SLPC   O1320889   2.739   3.908   2.563  0.8102 -0.1397 -0.5416
  183SLPC   O1420890   2.825   4.127   2.484 -0.2407 -0.8164 -0.5380
  183SLPC   O1220891   2.582   4.110   2.563 -0.1066  0.0595  0.4199
  183SLPC   O1120892   2.776   4.091   2.716  0.8499 -0.3133 -0.1027
  183SLPC    C120893   2.867   4.193   2.752  0.0050 -0.6999 -0.6894
  183SLPC    HA20894   2.953   4.202   2.683 -1.4091 -0.1058 -2.4415
  183SLPC    HB20895   2.817   4.291   2.761 -0.4451 -1.0705  1.3480
  183SLPC    C220896   2.916   4.176   2.899  0.2188  0.0979  0.6502
  183SLPC    HS20897   3.017   4.223   2.895  0.0709  0.5041  1.3545
  183SLPC   O2120898   2.932   4.039   2.933  0.7719  0.2887 -0.4805
  183SLPC   C2120899   3.025   3.975   2.857 -0.7443 -0.3827 -0.2944
  183SLPC   O2220900   3.109   4.036   2.791 -0.6472 -0.4123 -0.1101
  183SLPC   C2220901   3.020   3.822   2.877  0.5124 -0.0522 -0.0606
  183SLPC   H2R20902   2.940   3.806   2.952 -0.5230  0.4168 -1.0327
  183SLPC   H2S20903   3.012   3.781   2.774  3.2136  0.4015 -0.5408
  183SLPC    C320904   2.825   4.240   3.010  0.0688 -0.8913  0.0656
  183SLPC    HX20905   2.836   4.184   3.105 -0.3852  0.8535  1.1861
  183SLPC    HY20906   2.718   4.225   2.986  0.5965 -1.4497 -2.2069
  183SLPC   O3120907   2.869   4.372   3.039  0.7962  0.2261  0.2300
  183SLPC   C3120908   2.791   4.469   2.975 -0.8015 -0.4442  0.4447
  183SLPC   O3220909   2.689   4.451   2.914 -0.0834  0.7545  0.3200
  183SLPC   C3220910   2.860   4.607   2.999 -0.1520 -0.3500  0.3788
  183SLPC   H2X20911   2.891   4.631   2.895 -0.8515  0.5526  0.3665
  183SLPC   H2Y20912   2.953   4.601   3.060 -0.8325 -3.2465  1.3087
  183SLPC   C2320913   3.157   3.782   2.945  0.0639  0.0500  0.0598
  183SLPC   H3R20914   3.236   3.834   2.886 -1.2306  1.0417 -0.8445
  183SLPC   H3S20915   3.170   3.674   2.921 -1.0367 -0.1468  0.3031
  183SLPC   C2420916   3.156   3.777   3.102  0.2662 -0.2717 -0.4177
  183SLPC   H4R20917   3.260   3.754   3.132  0.5785  2.5523  0.9123
  183SLPC   H4S20918   3.087   3.700   3.145  1.1798 -0.3628  0.9656
  183SLPC   C2520919   3.123   3.911   3.170 -0.9885 -0.3108 -0.0263
  183SLPC   H5R20920   3.019   3.935   3.141 -0.0692  2.0062 -1.7924
  183SLPC   H5S20921   3.195   3.978   3.118  1.9762 -3.3704 -0.1704
  183SLPC   C2620922   3.127   3.909   3.324  0.0164  0.9678  0.0437
  183SLPC   H6R20923   3.141   4.001   3.385 -0.7572  1.1471 -0.0397
  183SLPC   H6S20924   3.215   3.846   3.350  0.8219  2.6735  1.6715
  183SLPC   C2720925   3.017   3.822   3.390  0.4366 -0.3355 -0.5127
  183SLPC   H7R20926   3.054   3.718   3.385 -0.0314 -0.5599  0.5097
  183SLPC   H7S20927   2.920   3.838   3.336  0.3011  1.1108  0.1035
  183SLPC   C2820928   2.991   3.849   3.538  0.1549 -0.1399  0.2970
  183SLPC   H8R20929   2.934   3.944   3.546 -0.5688 -0.5902  0.7059
  183SLPC   H8S20930   3.089   3.836   3.587  0.0714  2.4604  1.3049
  183SLPC   C2920931   2.904   3.739   3.593  0.6668  0.2226  0.3905
  183SLPC   H9R20932   2.943   3.639   3.568 -1.6276 -0.5053 -0.5391
  183SLPC  C21020933   2.820   3.746   3.699 -0.8751 -0.0834 -0.9116
  183SLPC  H10R20934   2.759   3.660   3.729  1.3273 -2.6550 -3.2283
  183SLPC  C21120935   2.784   3.872   3.772  0.7496 -0.0035 -0.0082
  183SLPC  H11R20936   2.817   3.959   3.711  1.3394 -0.0260  0.2730
  183SLPC  H11S20937   2.838   3.870   3.870  2.1286 -0.9969 -0.7618
  183SLPC  C21220938   2.636   3.880   3.786 -0.8696  0.4982  0.4843
  183SLPC  H12R20939   2.574   3.902   3.698  0.1609  0.6034 -0.2281
  183SLPC  C21320940   2.567   3.832   3.890  0.0423 -0.5213 -0.0909
  183SLPC  H13R20941   2.458   3.843   3.896  0.0950  0.2708 -0.5204
  183SLPC  C21420942   2.625   3.773   4.018 -0.0954 -0.7139  1.0155
  183SLPC  H14R20943   2.706   3.842   4.049  0.0729  0.1716 -1.2681
  183SLPC  H14S20944   2.665   3.677   3.978 -0.0415  0.8058 -3.0451
  183SLPC  C21520945   2.522   3.748   4.123 -0.7744  0.6720 -0.4343
  183SLPC  H15R20946   2.437   3.687   4.086 -0.9541  0.7370 -0.1393
  183SLPC  H15S20947   2.473   3.844   4.151 -0.1033  0.4472  1.7214
  183SLPC  C21620948   2.584   3.665   4.237 -0.3515  0.2494  0.0853
  183SLPC  H16R20949   2.675   3.716   4.275  1.0022 -1.5441 -0.5913
  183SLPC  H16S20950   2.624   3.570   4.194 -0.7536  0.1347 -0.0426
  183SLPC  C21720951   2.498   3.630   4.357  0.2122 -0.3868  0.5262
  183SLPC  H17R20952   2.461   3.724   4.403 -0.8553 -1.2292  1.4735
  183SLPC  H17S20953   2.554   3.577   4.437  0.1995 -1.1574  0.0445
  183SLPC  C21820954   2.364   3.553   4.333  0.5585  0.5327  0.3906
  183SLPC  H18R20955   2.403   3.459   4.289  0.5472  0.6688  0.0850
  183SLPC  H18S20956   2.303   3.613   4.262  0.6976 -0.8451 -0.9474
  183SLPC  H18T20957   2.307   3.532   4.426  1.6907 -2.0982  0.5915
  183SLPC   C3320958   2.759   4.712   3.058 -0.3985  0.0709  0.1088
  183SLPC   H3X20959   2.664   4.701   3.002 -0.4005 -2.3934  0.4699
  183SLPC   H3Y20960   2.799   4.813   3.034 -1.1088  0.2695 -0.2765
  183SLPC   C3420961   2.735   4.712   3.206  0.1225 -0.7649 -0.6478
  183SLPC   H4X20962   2.670   4.797   3.235  1.4991  0.0630  0.1098
  183SLPC   H4Y20963   2.832   4.736   3.255  0.8016 -0.7645 -1.9561
  183SLPC   C3520964   2.694   4.577   3.260 -0.0929  0.1983 -0.0995
  183SLPC   H5X20965   2.768   4.499   3.233  1.7464  1.7561  0.1931
  183SLPC   H5Y20966   2.595   4.547   3.219  0.1011  0.7398 -0.9909
  183SLPC   C3620967   2.682   4.573   3.414  0.1690  0.0585 -0.2656
  183SLPC   H6X20968   2.607   4.651   3.437 -0.8707 -0.9989  0.0220
  183SLPC   H6Y20969   2.771   4.616   3.466 -0.4366 -0.4367  1.2255
  183SLPC   C3720970   2.640   4.444   3.484  0.7806  0.8100 -0.0940
  183SLPC   H7X20971   2.713   4.363   3.466  0.1919  0.5175 -1.3062
  183SLPC   H7Y20972   2.547   4.407   3.435  0.9510 -0.7289  0.7005
  183SLPC   C3820973   2.614   4.469   3.632  0.6623  0.0967 -0.8011
  183SLPC   H8X20974   2.521   4.527   3.649  0.7179  0.4627 -1.7183
  183SLPC   H8Y20975   2.687   4.535   3.683 -0.8561  0.6778  0.7120
  183SLPC   C3920976   2.584   4.336   3.703  0.6322  0.0032 -0.8360
  183SLPC   H9X20977   2.672   4.272   3.682  1.9154 -0.5120  4.5997
  183SLPC   H9Y20978   2.492   4.290   3.660 -0.8041  0.1220  1.8956
  183SLPC  C31020979   2.561   4.352   3.858  0.1571  0.3197 -0.5064
  183SLPC  H10X20980   2.490   4.437   3.868  0.7272  0.6389  1.0902
  183SLPC  H10Y20981   2.657   4.389   3.900 -1.0244  1.1508  1.6479
  183SLPC  C31120982   2.502   4.229   3.937 -0.4696 -0.3610  0.0127
  183SLPC  H11X20983   2.560   4.137   3.914 -0.3912 -0.8622  1.9976
  183SLPC  H11Y20984   2.397   4.205   3.910 -0.2027 -3.1441  1.1475
  183SLPC  C31220985   2.505   4.248   4.093  0.1689  0.1419 -0.0644
  183SLPC  H12X20986   2.433   4.330   4.116 -1.4324 -1.1725 -0.1618
  183SLPC  H12Y20987   2.603   4.287   4.128  1.2865 -3.3131  1.0748
  183SLPC  C31320988   2.460   4.125   4.171  0.5220  0.6036  0.4818
  183SLPC  H13X20989   2.551   4.062   4.173 -0.0313 -0.4819 -2.4590
  183SLPC  H13Y20990   2.386   4.065   4.113  1.5210  0.6442 -0.8916
  183SLPC  C31420991   2.404   4.149   4.315 -0.1185 -0.1817  0.2334
  183SLPC  H14X20992   2.320   4.220   4.296 -1.5444 -1.3585  1.8429
  183SLPC  H14Y20993   2.476   4.201   4.381 -0.6561  3.1163 -1.5468
  183SLPC  C31520994   2.354   4.020   4.377 -0.4157 -0.3777 -0.3103
  183SLPC  H15X20995   2.440   3.963   4.418 -1.6772 -1.7593  0.5409
  183SLPC  H15Y20996   2.292   3.975   4.297 -1.0458  1.2349 -0.7703
  183SLPC  C31620997   2.263   4.039   4.496  0.2761  0.3155  0.1239
  183SLPC  H16X20998   2.193   4.120   4.466 -0.8355 -0.5863  0.2422
  183SLPC  H16Y20999   2.311   4.083   4.586  0.7092  0.4425 -0.1634
  183SLPC  C31721000   2.176   3.908   4.534  0.0352  0.8513 -0.4717
  183SLPC  H17X21001   2.148   3.851   4.443  2.3969  0.1554 -0.8466
  183SLPC  H17Y21002   2.076   3.949   4.560 -0.3758  0.5326 -1.5100
  183SLPC  C31821003   2.234   3.822   4.647  0.7436  0.2704  0.2415
  183SLPC  H18X21004   2.322   3.764   4.612 -0.3514 -2.2375  1.3800
  183SLPC  H18Y21005   2.163   3.741   4.673  2.1832 -0.3301  2.6052
  183SLPC  H18Z21006   2.256   3.876   4.742  1.1107  1.4459 -0.4902
  184SLPC     N21007   1.662   4.074   2.545  0.2168 -0.2846 -0.0530
  184SLPC   C1321008   1.561   4.175   2.474  0.1663  0.0538  0.1766
  184SLPC  H13A21009   1.513   4.234   2.550  1.8036  0.3275  1.0540
  184SLPC  H13B21010   1.620   4.246   2.418  0.7661  1.3328  2.2989
  184SLPC  H13C21011   1.490   4.116   2.418 -2.7129  1.2743  2.3126
  184SLPC   C1421012   1.717   3.988   2.437 -0.2535  0.1004  0.3480
  184SLPC  H14A21013   1.751   4.042   2.350 -1.0397  0.3741  0.2027
  184SLPC  H14B21014   1.803   3.928   2.465  0.3606 -0.2625 -2.0854
  184SLPC  H14C21015   1.638   3.931   2.389  1.0848 -1.5643 -0.0183
  184SLPC   C1521016   1.573   3.992   2.627 -0.2171 -0.4214 -0.4671
  184SLPC  H15A21017   1.552   4.046   2.718  2.0348 -1.7800  0.9627
  184SLPC  H15B21018   1.481   3.976   2.572  1.1990 -2.0423 -2.5377
  184SLPC  H15C21019   1.618   3.897   2.652  2.3184  1.4753  2.9792
  184SLPC   C1221020   1.765   4.148   2.615  0.2454  0.1287  0.1104
  184SLPC  H12A21021   1.718   4.205   2.694  1.4424  1.2435  0.0686
  184SLPC  H12B21022   1.809   4.219   2.546  0.5033 -1.4302 -1.3693
  184SLPC   C1121023   1.885   4.069   2.674  0.5456 -0.5948 -0.6511
  184SLPC  H11A21024   1.842   3.992   2.741  1.0101 -0.7628 -0.5423
  184SLPC  H11B21025   1.934   4.134   2.749  1.9693 -2.4080  0.0684
  184SLPC     P21026   2.068   4.105   2.498  0.0078  0.3889  0.5616
  184SLPC   O1321027   2.122   4.021   2.391  0.2250 -0.2806 -0.1218
  184SLPC   O1421028   2.016   4.241   2.458 -0.5199  0.1955 -0.0396
  184SLPC   O1221029   1.969   4.018   2.570 -0.6213  0.3769 -0.2579
  184SLPC   O1121030   2.178   4.125   2.615  0.1904  1.3478 -0.1224
  184SLPC    C121031   2.264   4.022   2.668 -0.0740 -0.0243  0.6973
  184SLPC    HA21032   2.325   3.979   2.586  0.8196  1.9629  0.2465
  184SLPC    HB21033   2.333   4.068   2.743  0.6936 -1.4902  0.9304
  184SLPC    C221034   2.183   3.916   2.749  0.5676  0.5128  0.4350
  184SLPC    HS21035   2.110   3.873   2.678  2.0758 -0.2136 -0.7376
  184SLPC   O2121036   2.121   3.990   2.859 -0.6190  0.0350 -0.3423
  184SLPC   C2121037   2.070   3.936   2.967 -0.4770  0.3723 -0.8592
  184SLPC   O2221038   2.055   3.816   2.982  0.7782  0.1654  0.6601
  184SLPC   C2221039   2.027   4.046   3.066 -0.2327  0.5602  0.7321
  184SLPC   H2R21040   2.076   4.024   3.164 -0.1039  1.6889  0.9383
  184SLPC   H2S21041   2.067   4.141   3.024 -3.1538  0.4984 -2.5786
  184SLPC    C321042   2.285   3.804   2.794 -0.4062 -0.6320  0.3970
  184SLPC    HX21043   2.333   3.753   2.707 -0.3463  1.0363 -0.5833
  184SLPC    HY21044   2.225   3.730   2.851 -2.0621 -0.3340 -0.9045
  184SLPC   O3121045   2.394   3.865   2.869 -0.3237  0.1155 -0.0615
  184SLPC   C3121046   2.501   3.807   2.898  0.2327 -0.0214  0.2213
  184SLPC   O3221047   2.532   3.691   2.882  0.0655 -0.4202 -0.1436
  184SLPC   C3221048   2.604   3.913   2.954  0.6291 -0.0068 -0.7459
  184SLPC   H2X21049   2.551   4.010   2.962  1.3230  0.2824  0.6958
  184SLPC   H2Y21050   2.692   3.923   2.888  1.3969 -1.9667 -0.0881
  184SLPC   C2321051   1.879   4.058   3.073  0.0600  0.1202 -0.3274
  184SLPC   H3R21052   1.838   3.959   3.101  1.7775 -0.7792 -0.8654
  184SLPC   H3S21053   1.854   4.080   2.967  2.7801  1.1150 -0.8462
  184SLPC   C2421054   1.827   4.176   3.160  0.3686  0.3962  0.1440
  184SLPC   H4R21055   1.867   4.167   3.263 -0.9991 -0.2201  0.6541
  184SLPC   H4S21056   1.719   4.161   3.179  0.1658  0.8651 -0.5818
  184SLPC   C2521057   1.858   4.317   3.109 -0.3173  0.3203 -0.1863
  184SLPC   H5R21058   1.789   4.346   3.026  0.9009 -0.2902 -1.4557
  184SLPC   H5S21059   1.964   4.314   3.075 -0.4460  0.5096 -0.6115
  184SLPC   C2621060   1.836   4.423   3.222  0.3592 -0.0501 -0.3469
  184SLPC   H6R21061   1.876   4.520   3.188  2.6988 -0.3380  1.3334
  184SLPC   H6S21062   1.891   4.405   3.317  0.1956  0.9709 -0.0493
  184SLPC   C2721063   1.683   4.448   3.240  1.0585 -1.0205 -0.0441
  184SLPC   H7R21064   1.641   4.360   3.292 -0.9207 -1.1322 -1.7275
  184SLPC   H7S21065   1.633   4.464   3.143  1.7710  0.5456 -0.1924
  184SLPC   C2821066   1.671   4.572   3.334 -0.1099  0.1300 -0.3207
  184SLPC   H8R21067   1.562   4.587   3.353 -0.4286 -2.9975  0.8984
  184SLPC   H8S21068   1.714   4.662   3.284 -0.2866  1.2662  1.4884
  184SLPC   C2921069   1.745   4.566   3.473  0.4270 -0.2556  0.0060
  184SLPC   H9R21070   1.834   4.630   3.481 -0.8925  1.4647  2.0178
  184SLPC  C21021071   1.716   4.483   3.572 -0.3941  0.1550 -0.4796
  184SLPC  H10R21072   1.777   4.496   3.663 -1.3092  2.2039 -0.0934
  184SLPC  C21121073   1.594   4.393   3.575 -0.8630 -0.1973 -0.7018
  184SLPC  H11R21074   1.520   4.422   3.498  0.2136 -0.0199 -1.7030
  184SLPC  H11S21075   1.548   4.404   3.675  0.5410 -2.0000  0.2116
  184SLPC  C21221076   1.646   4.250   3.555  0.8299 -0.0207 -0.5245
  184SLPC  H12R21077   1.716   4.243   3.470  0.2534  2.8619 -1.3127
  184SLPC  C21321078   1.618   4.147   3.632  0.6152  0.1681  0.5236
  184SLPC  H13R21079   1.677   4.055   3.622  2.4017  1.3499 -0.1287
  184SLPC  C21421080   1.535   4.156   3.760 -0.2065 -0.3402  0.2225
  184SLPC  H14R21081   1.484   4.057   3.770 -0.6266 -0.1531 -0.0294
  184SLPC  H14S21082   1.451   4.228   3.749  0.8630  0.7015 -1.5488
  184SLPC  C21521083   1.600   4.166   3.898 -0.3036 -0.0233  1.0445
  184SLPC  H15R21084   1.658   4.261   3.895  1.6107 -1.1508 -0.8065
  184SLPC  H15S21085   1.669   4.082   3.921  1.3062  0.9695  0.1022
  184SLPC  C21621086   1.496   4.179   4.009 -0.2258  0.0618  0.0856
  184SLPC  H16R21087   1.447   4.081   4.025 -1.1730  0.6767  1.0934
  184SLPC  H16S21088   1.417   4.248   3.974  1.9464  1.4064 -2.5978
  184SLPC  C21721089   1.542   4.233   4.149 -0.3369  0.3393  0.2033
  184SLPC  H17R21090   1.576   4.338   4.137 -1.1346  0.6062  0.1921
  184SLPC  H17S21091   1.629   4.168   4.170 -1.6290 -0.9225  1.9454
  184SLPC  C21821092   1.446   4.226   4.265  0.7021  0.3766 -0.5823
  184SLPC  H18R21093   1.351   4.276   4.239 -0.6547 -1.1247  1.1934
  184SLPC  H18S21094   1.490   4.284   4.349  0.0973  0.6918 -0.4826
  184SLPC  H18T21095   1.424   4.129   4.314  0.2313  0.2161 -1.1010
  184SLPC   C3321096   2.648   3.886   3.099 -0.1667 -0.5713 -0.8117
  184SLPC   H3X21097   2.688   3.981   3.140 -0.6522 -0.6563 -0.1181
  184SLPC   H3Y21098   2.724   3.805   3.105  1.1557  0.2667 -3.9617
  184SLPC   C3421099   2.533   3.866   3.204  0.4861  0.3568  0.0765
  184SLPC   H4X21100   2.509   3.758   3.198  0.5957  0.3918 -1.9229
  184SLPC   H4Y21101   2.444   3.927   3.176 -0.7533 -1.9204 -1.1715
  184SLPC   C3521102   2.565   3.901   3.343  0.3238 -0.2272 -0.7041
  184SLPC   H5X21103   2.635   3.986   3.344 -1.4310  1.2807 -0.7370
  184SLPC   H5Y21104   2.610   3.816   3.399 -1.8033  0.0219  1.5411
  184SLPC   C3621105   2.437   3.941   3.420  0.3423 -0.1788  0.4089
  184SLPC   H6X21106   2.450   3.928   3.529 -1.1877  1.1210  0.7765
  184SLPC   H6Y21107   2.349   3.878   3.395 -0.3086  1.1980 -0.9806
  184SLPC   C3721108   2.413   4.087   3.399  0.1843 -0.3618  0.7105
  184SLPC   H7X21109   2.394   4.114   3.293  0.9174 -1.0291  0.4030
  184SLPC   H7Y21110   2.506   4.147   3.407 -0.6541  1.2035 -0.6644
  184SLPC   C3821111   2.302   4.147   3.484 -0.1445 -0.0202 -1.1354
  184SLPC   H8X21112   2.332   4.253   3.487  1.1863 -0.4055 -0.4366
  184SLPC   H8Y21113   2.317   4.119   3.590 -1.4084  2.4268 -0.2460
  184SLPC   C3921114   2.154   4.132   3.431  0.2270  0.4547 -0.3120
  184SLPC   H9X21115   2.133   4.023   3.423  2.7726 -0.1395  0.2392
  184SLPC   H9Y21116   2.141   4.177   3.331 -0.3853  3.0395  0.8628
  184SLPC  C31021117   2.054   4.203   3.530  0.8928  0.1510 -0.1258
  184SLPC  H10X21118   1.955   4.185   3.484 -1.4990  4.1948  2.8099
  184SLPC  H10Y21119   2.071   4.313   3.529  1.6392  0.0634  1.3386
  184SLPC  C31121120   2.060   4.157   3.673  0.5649 -0.4685 -0.0317
  184SLPC  H11X21121   2.165   4.180   3.702 -0.0868  3.4329 -0.2876
  184SLPC  H11Y21122   2.045   4.048   3.694  0.6164 -0.2505  1.2428
  184SLPC  C31221123   1.972   4.238   3.772  0.1131 -0.5041  0.5932
  184SLPC  H12X21124   1.867   4.204   3.756 -0.4823  1.1895  0.6731
  184SLPC  H12Y21125   1.985   4.344   3.743 -0.7977 -0.2577  1.0330
  184SLPC  C31321126   1.984   4.214   3.920 -0.2159  0.3555 -0.2113
  184SLPC  H13X21127   2.091   4.195   3.947 -0.5858 -2.3222 -0.3784
  184SLPC  H13Y21128   1.931   4.122   3.953  0.0028  0.3069  0.0103
  184SLPC  C31421129   1.929   4.319   4.020  0.3269 -0.1039  0.1035
  184SLPC  H14X21130   1.818   4.310   4.024  0.3307  0.2134  2.3870
  184SLPC  H14Y21131   1.947   4.417   3.971  0.4179 -0.7604 -1.2184
  184SLPC  C31521132   1.968   4.305   4.163  0.8455 -0.4881 -0.0513
  184SLPC  H15X21133   2.076   4.326   4.174  0.8163  0.4347 -1.2328
  184SLPC  H15Y21134   1.946   4.201   4.193 -2.1258  0.2066  0.4779
  184SLPC  C31621135   1.896   4.405   4.263 -0.3181 -0.2939  0.3009
  184SLPC  H16X21136   1.788   4.381   4.255  0.1475 -3.3651  1.7890
  184SLPC  H16Y21137   1.902   4.512   4.233  0.4866 -0.1824  0.8284
  184SLPC  C31721138   1.938   4.394   4.409  0.0721 -0.1822  0.1658
  184SLPC  H17X21139   1.893   4.477   4.467  1.0266  1.0506 -0.7878
  184SLPC  H17Y21140   2.047   4.415   4.407 -0.1441  1.1937 -2.7684
  184SLPC  C31821141   1.918   4.260   4.474  0.0668  0.4866  0.0595
  184SLPC  H18X21142   1.945   4.256   4.581 -3.4128  2.7782  1.2059
  184SLPC  H18Y21143   1.963   4.181   4.409 -1.0009 -0.6612  0.6891
  184SLPC  H18Z21144   1.812   4.231   4.459 -0.1842  0.7673  1.2147
  185POPC     N21145   6.732   3.219   6.883  0.3955  0.0817  0.0635
  185POPC   C1221146   6.776   3.150   6.756 -0.3800  0.9351 -0.3530
  185POPC  H12A21147   6.884   3.147   6.756 -0.3263  2.4092 -0.0905
  185POPC  H12B21148   6.762   3.217   6.672 -1.1729 -0.1851 -1.1545
  185POPC   C1321149   6.591   3.206   6.905  0.1580 -0.1060 -0.3908
  185POPC  H13A21150   6.557   3.103   6.900 -1.5592  0.5222 -3.2944
  185POPC  H13B21151   6.556   3.250   6.997  1.7309 -1.2033  0.7917
  185POPC  H13C21152   6.532   3.244   6.824  0.1515  0.9551  0.0974
  185POPC   C1421153   6.799   3.170   7.008  0.4536  0.4686  0.6619
  185POPC  H14A21154   6.767   3.073   7.042 -3.5145  1.5386  0.5242
  185POPC  H14B21155   6.906   3.163   6.994  0.5198  0.6893  1.0647
  185POPC  H14C21156   6.773   3.238   7.088  0.6775  0.6362  0.5932
  185POPC   C1521157   6.760   3.368   6.867  0.4535 -0.1128 -0.1539
  185POPC  H15A21158   6.867   3.384   6.866  0.2360  1.4807  0.1227
  185POPC  H15B21159   6.703   3.415   6.946  0.3478 -0.0777 -0.2498
  185POPC  H15C21160   6.717   3.405   6.775  0.3667 -1.5092 -0.7001
  185POPC   C1121161   6.716   3.012   6.718  0.1847 -0.4923  0.5965
  185POPC  H11A21162   6.725   2.994   6.609 -1.7553  1.7871 -0.0200
  185POPC  H11B21163   6.605   3.017   6.723 -0.0641 -0.0961 -2.9288
  185POPC     P21164   6.718   2.757   6.757 -0.0967  0.2709  0.1220
  185POPC   O1321165   6.584   2.758   6.827  0.5095 -0.7613 -0.2012
  185POPC   O1421166   6.814   2.663   6.814  0.1468 -0.1087  0.0204
  185POPC   O1221167   6.778   2.905   6.784 -0.8117  0.3500  0.7161
  185POPC   O1121168   6.704   2.742   6.598 -0.3588 -0.2031 -0.2077
  185POPC    C121169   6.830   2.719   6.532  0.3402  0.3241  0.1694
  185POPC    HA21170   6.871   2.620   6.562 -0.9411 -0.6602 -1.1933
  185POPC    HB21171   6.907   2.793   6.562 -1.6470  1.2546  3.5826
  185POPC    C221172   6.797   2.710   6.378  0.2103  0.1434  0.2264
  185POPC    HS21173   6.795   2.816   6.345 -1.0197  0.1855  0.3853
  185POPC   O2121174   6.676   2.634   6.356 -0.2061 -0.2750  0.4146
  185POPC   C2121175   6.603   2.667   6.255  1.0469 -0.6827 -0.3646
  185POPC   O2221176   6.637   2.753   6.174  0.2258 -0.2981 -0.3727
  185POPC   C2221177   6.465   2.595   6.254  0.4440  0.0071 -0.4497
  185POPC   H2R21178   6.398   2.670   6.206 -2.0272 -0.8995  1.3910
  185POPC   H2S21179   6.431   2.581   6.359 -1.2713  1.4097 -0.7630
  185POPC    C321180   6.918   2.645   6.304  0.4990 -0.1965 -0.0406
  185POPC    HX21181   6.944   2.552   6.360 -0.7931 -0.9403 -0.6411
  185POPC    HY21182   7.009   2.708   6.316  0.8617 -0.7050 -0.0980
  185POPC   O3121183   6.882   2.616   6.166 -0.2497  0.0426  0.2056
  185POPC   C3121184   6.958   2.656   6.063 -0.0077  0.3852 -0.3142
  185POPC   O3221185   7.057   2.727   6.074  0.8596 -0.5510 -0.2783
  185POPC   C3221186   6.912   2.599   5.928 -0.1549 -0.5024 -0.2303
  185POPC   H2X21187   6.806   2.566   5.937 -0.4597  0.1894 -1.1259
  185POPC   H2Y21188   6.967   2.507   5.899 -0.3789 -1.2860  1.6995
  185POPC   C2321189   6.465   2.479   6.148  0.2729  0.1512  0.2108
  185POPC   H3R21190   6.515   2.519   6.057  1.4705 -0.2469  0.6788
  185POPC   H3S21191   6.357   2.464   6.125  0.4513  0.0632 -0.6100
  185POPC   C2421192   6.521   2.347   6.181  0.8707  0.0031  0.5824
  185POPC   H4R21193   6.458   2.314   6.266 -0.5165  0.5818 -0.1858
  185POPC   H4S21194   6.626   2.349   6.217  0.6587 -1.4542  1.3698
  185POPC   C2521195   6.508   2.248   6.062  0.5216  0.2771  0.7868
  185POPC   H5R21196   6.403   2.262   6.030 -0.1803 -1.5178  2.1745
  185POPC   H5S21197   6.525   2.144   6.098 -3.6267 -1.5476 -1.8154
  185POPC   C2621198   6.615   2.274   5.964  0.1141 -0.0433  0.7072
  185POPC   H6R21199   6.715   2.273   6.012  0.5452  0.7865 -0.1422
  185POPC   H6S21200   6.607   2.379   5.927  0.4175 -0.1236  0.4193
  185POPC   C2721201   6.608   2.168   5.848 -0.3499 -0.1879 -0.1784
  185POPC   H7R21202   6.509   2.162   5.799 -0.3778 -3.0542  0.0963
  185POPC   H7S21203   6.618   2.069   5.896  0.4041  1.0009  2.3098
  185POPC   C2821204   6.718   2.189   5.744 -0.0483 -0.0102 -0.2424
  185POPC   H8R21205   6.806   2.225   5.801 -0.5695  1.4192 -0.2905
  185POPC   H8S21206   6.684   2.266   5.671 -0.2065  0.9624  0.8395
  185POPC   C2921207   6.773   2.062   5.679 -0.1904  0.0213 -0.8688
  185POPC   H9121208   6.762   1.973   5.742 -0.2446  0.3049 -0.4719
  185POPC  C21021209   6.843   2.044   5.565 -0.1017 -0.5751  0.5578
  185POPC  H10121210   6.864   1.939   5.540  0.5234 -0.4630  0.6016
  185POPC  C21121211   6.892   2.146   5.463  0.2838 -0.1770  0.1147
  185POPC  H11R21212   7.002   2.153   5.475  0.2130  3.9152 -0.2819
  185POPC  H11S21213   6.859   2.245   5.502 -0.0426 -0.1467 -0.2315
  185POPC  C21221214   6.857   2.117   5.319 -0.3724  0.5109 -0.1121
  185POPC  H12R21215   6.886   2.012   5.296 -4.0763 -0.3782 -1.4451
  185POPC  H12S21216   6.903   2.190   5.249 -0.7392  1.2533  0.4061
  185POPC  C21321217   6.707   2.114   5.287  0.0599 -0.4323  0.5904
  185POPC  H13R21218   6.664   2.215   5.305 -0.8915 -0.5188 -1.0254
  185POPC  H13S21219   6.665   2.036   5.354  1.8714 -3.2229 -1.3224
  185POPC  C21421220   6.670   2.084   5.140 -0.0152  0.0858 -0.9018
  185POPC  H14R21221   6.741   2.124   5.064 -1.0247  1.1731 -1.2925
  185POPC  H14S21222   6.572   2.135   5.143  0.9241  1.9113  1.1802
  185POPC  C21521223   6.656   1.931   5.119 -0.0648  0.3606  0.6277
  185POPC  H15R21224   6.612   1.881   5.208 -1.7928  0.0791 -0.3325
  185POPC  H15S21225   6.757   1.886   5.108  0.5603  1.9843 -0.6038
  185POPC  C21621226   6.578   1.876   4.997 -0.2363 -0.3083 -0.5634
  185POPC  H16R21227   6.611   1.926   4.903 -2.4652 -0.1655 -1.3304
  185POPC  H16S21228   6.468   1.889   5.012  0.1971  2.1720  1.1427
  185POPC  C21721229   6.597   1.725   4.975 -0.2048  0.2421 -0.1748
  185POPC  H17R21230   6.565   1.665   5.063 -0.3636 -0.3355 -0.6235
  185POPC  H17S21231   6.706   1.704   4.964 -0.2223 -1.8493  2.5903
  185POPC  C21821232   6.522   1.664   4.853  0.3391 -0.0259  0.1497
  185POPC  H18R21233   6.413   1.686   4.855  0.1929 -0.4494 -1.4331
  185POPC  H18S21234   6.541   1.555   4.854 -0.0826 -0.1123  1.8782
  185POPC  H18T21235   6.580   1.700   4.765 -2.9198  3.9893 -0.6337
  185POPC   C3321236   6.924   2.699   5.813  0.3650 -0.1133 -0.1934
  185POPC   H3X21237   6.879   2.659   5.719  2.1431 -1.3802 -0.5425
  185POPC   H3Y21238   7.031   2.727   5.804  0.1772  0.8085  0.3243
  185POPC   C3421239   6.846   2.827   5.846  0.2954 -0.6014 -0.2800
  185POPC   H4X21240   6.875   2.875   5.942 -2.2069  2.7071 -0.9853
  185POPC   H4Y21241   6.738   2.800   5.858  0.7851 -2.1588  1.1564
  185POPC   C3521242   6.855   2.945   5.747 -0.1232  0.2109  0.6272
  185POPC   H5X21243   6.820   2.912   5.647  2.1107  1.2063 -0.5506
  185POPC   H5Y21244   6.964   2.963   5.742  0.2083 -1.1555  2.0046
  185POPC   C3621245   6.784   3.065   5.801  0.1851  0.5476  0.0996
  185POPC   H6X21246   6.845   3.110   5.882  0.0712  2.1691 -0.6602
  185POPC   H6Y21247   6.688   3.021   5.835  0.7327  0.3517  1.4464
  185POPC   C3721248   6.757   3.168   5.693 -0.1402  0.2256  0.7663
  185POPC   H7X21249   6.682   3.127   5.622  2.4903 -1.9592 -0.9218
  185POPC   H7Y21250   6.847   3.174   5.630 -1.2093 -0.4205 -0.8977
  185POPC   C3821251   6.714   3.305   5.736  0.0799  0.5271  0.0014
  185POPC   H8X21252   6.802   3.359   5.777  1.1103 -1.0014 -0.1296
  185POPC   H8Y21253   6.646   3.308   5.824 -0.5236 -0.0123 -0.4430
  185POPC   C3921254   6.663   3.391   5.612  0.6730  0.0366  0.5453
  185POPC   H9X21255   6.604   3.478   5.649  1.4240  0.8205 -0.0648
  185POPC   H9Y21256   6.590   3.324   5.561  4.0797 -2.8207 -1.0330
  185POPC  C31021257   6.767   3.433   5.507 -0.3787 -0.2712  0.3358
  185POPC  H10X21258   6.816   3.344   5.463  0.3514  0.2159  0.1529
  185POPC  H10Y21259   6.846   3.492   5.559 -0.9425  0.3646  0.5000
  185POPC  C31121260   6.719   3.506   5.379  0.3370  0.2148 -0.3540
  185POPC  H11X21261   6.686   3.609   5.404 -1.1637 -0.6181  1.3277
  185POPC  H11Y21262   6.632   3.453   5.335  0.9333 -0.2583 -0.9777
  185POPC  C31221263   6.827   3.514   5.263  0.3455  0.2910 -0.7692
  185POPC  H12X21264   6.868   3.412   5.246 -3.3338 -0.8759 -3.9909
  185POPC  H12Y21265   6.914   3.575   5.298  1.1694 -1.5075  0.4697
  185POPC  C31321266   6.778   3.555   5.126  0.0468  0.4605 -0.8520
  185POPC  H13X21267   6.740   3.659   5.126 -1.8228 -0.1879 -0.9966
  185POPC  H13Y21268   6.688   3.492   5.108 -0.6523  1.1441  0.1139
  185POPC  C31421269   6.874   3.536   5.013  1.0104  0.2281  0.4806
  185POPC  H14X21270   6.879   3.428   4.988 -1.0478 -0.5162  2.8854
  185POPC  H14Y21271   6.977   3.559   5.048  0.5521 -1.0443  2.9409
  185POPC  C31521272   6.828   3.620   4.890  0.0385  0.2334 -0.3730
  185POPC  H15X21273   6.906   3.652   4.818 -0.2035  1.1871 -0.2241
  185POPC  H15Y21274   6.785   3.708   4.944 -1.3207 -0.3805 -0.4109
  185POPC  C31621275   6.719   3.560   4.803 -0.2080 -0.4874  0.0489
  185POPC  H16X21276   6.696   3.627   4.717 -2.6912 -0.1945  0.8689
  185POPC  H16Y21277   6.633   3.544   4.871  1.1334 -2.4536  1.3738
  185POPC  H16Z21278   6.750   3.457   4.774 -2.2212 -1.5976  1.6615
  186POPC     N21279   1.527   1.064   7.160 -0.0465  0.0178 -0.2323
  186POPC   C1221280   1.588   1.005   7.030  0.4119  0.1920  0.8201
  186POPC  H12A21281   1.665   0.934   7.059 -1.0571 -2.6328 -1.6544
  186POPC  H12B21282   1.623   1.072   6.954 -1.3086  0.5872  0.3467
  186POPC   C1321283   1.491   0.956   7.253 -0.0653 -0.4824 -0.4844
  186POPC  H13A21284   1.566   0.880   7.269  0.6599  0.1308 -0.9064
  186POPC  H13B21285   1.459   1.006   7.344  0.6195  1.2272 -1.1301
  186POPC  H13C21286   1.406   0.897   7.221  1.4243 -2.0377 -1.7597
  186POPC   C1421287   1.623   1.152   7.229 -0.4989 -0.0211 -0.1011
  186POPC  H14A21288   1.649   1.230   7.159  0.7606  0.5120  0.9261
  186POPC  H14B21289   1.570   1.199   7.310 -3.3126  1.6055 -2.6357
  186POPC  H14C21290   1.716   1.103   7.252  0.0274  1.4431  0.9614
  186POPC   C1521291   1.410   1.150   7.127  0.4356  0.3818 -0.1392
  186POPC  H15A21292   1.334   1.092   7.078  1.0560  0.4284 -1.1981
  186POPC  H15B21293   1.424   1.237   7.064 -0.9226  0.2502 -0.6515
  186POPC  H15C21294   1.355   1.190   7.210  0.3921 -1.5619  0.8163
  186POPC   C1121295   1.489   0.924   6.938 -0.5665 -0.1236  0.2176
  186POPC  H11A21296   1.417   0.864   6.998 -3.8201  2.0548 -1.2315
  186POPC  H11B21297   1.536   0.847   6.873 -1.4253 -0.0756 -0.4755
  186POPC     P21298   1.450   1.098   6.742  0.2365 -0.2164 -0.0768
  186POPC   O1321299   1.597   1.128   6.747 -0.0389  0.0637  0.1510
  186POPC   O1421300   1.353   1.204   6.734  0.2293 -0.0779 -0.1370
  186POPC   O1221301   1.404   1.015   6.867 -0.2530  0.5945 -0.0274
  186POPC   O1121302   1.429   1.008   6.614 -0.5153  0.3844 -0.0443
  186POPC    C121303   1.304   0.934   6.613 -0.6784  0.3196  0.6435
  186POPC    HA21304   1.221   1.000   6.647 -0.7455 -0.8314  2.8431
  186POPC    HB21305   1.306   0.841   6.673 -1.7503  0.4132  0.8464
  186POPC    C221306   1.267   0.904   6.468 -0.2638 -0.7656 -0.1796
  186POPC    HS21307   1.163   0.867   6.460  0.1556 -2.2051  0.6989
  186POPC   O2121308   1.365   0.815   6.419 -0.0442  0.1779 -0.5863
  186POPC   C2121309   1.331   0.750   6.313 -0.2120  0.1688 -0.6678
  186POPC   O2221310   1.224   0.751   6.256 -0.1022  0.1412  0.1960
  186POPC   C2221311   1.447   0.661   6.252  1.3114 -0.5472 -0.9926
  186POPC   H2R21312   1.390   0.573   6.216 -0.2594  0.6298 -1.4899
  186POPC   H2S21313   1.518   0.639   6.334  0.3160  0.9513  0.3416
  186POPC    C321314   1.256   1.037   6.390 -0.0982  0.0522 -0.7388
  186POPC    HX21315   1.357   1.081   6.406  1.0179 -2.4560 -0.3531
  186POPC    HY21316   1.179   1.094   6.446 -1.5551 -2.1157 -0.3838
  186POPC   O3121317   1.233   1.017   6.250 -0.0100 -0.1762 -0.4650
  186POPC   C3121318   1.250   1.127   6.181 -0.4158 -0.1700 -0.4195
  186POPC   O3221319   1.282   1.238   6.218  0.0820 -0.3907  0.0676
  186POPC   C3221320   1.202   1.102   6.035 -0.2769  0.4317 -0.5247
  186POPC   H2X21321   1.102   1.061   6.058 -0.0024 -1.1178 -1.9361
  186POPC   H2Y21322   1.274   1.026   5.998 -0.1580  0.3409 -0.1155
  186POPC   C2321323   1.527   0.713   6.127  0.0275  0.4537  0.3784
  186POPC   H3R21324   1.593   0.633   6.087  1.1926  0.3593  2.3513
  186POPC   H3S21325   1.593   0.793   6.168 -1.2975  0.9067  1.7363
  186POPC   C2421326   1.443   0.768   6.015 -0.7166 -0.3414 -0.2141
  186POPC   H4R21327   1.400   0.865   6.048 -1.2030 -0.9662  1.0013
  186POPC   H4S21328   1.365   0.695   5.984  0.7868 -1.8528 -0.5722
  186POPC   C2521329   1.524   0.802   5.887  0.3595  0.3823 -0.1436
  186POPC   H5R21330   1.556   0.705   5.844  0.1662 -0.1459  0.8865
  186POPC   H5S21331   1.620   0.839   5.931 -0.3985 -0.3481  2.2868
  186POPC   C2621332   1.452   0.891   5.780 -0.1026 -0.2472 -0.0188
  186POPC   H6R21333   1.427   0.989   5.827 -2.5542 -1.6938  1.9902
  186POPC   H6S21334   1.358   0.842   5.745 -0.3901 -0.3459  0.8741
  186POPC   C2721335   1.564   0.922   5.671 -0.4400 -0.5987  0.0546
  186POPC   H7R21336   1.603   0.825   5.636  0.3743 -1.1195  2.2178
  186POPC   H7S21337   1.637   0.986   5.726 -1.3432  0.2875  0.2617
  186POPC   C2821338   1.526   1.002   5.547  0.0905 -0.2035 -0.6740
  186POPC   H8R21339   1.614   1.020   5.482 -0.7842  1.1459 -1.5444
  186POPC   H8S21340   1.495   1.105   5.573 -0.4422 -0.3654 -0.6502
  186POPC   C2921341   1.422   0.936   5.462 -0.5397  0.2845 -0.5071
  186POPC   H9121342   1.322   0.941   5.507 -0.3784 -0.4674 -0.0513
  186POPC  C21021343   1.436   0.891   5.335 -0.2163 -0.2487  0.3078
  186POPC  H10121344   1.354   0.855   5.271  0.3435 -0.5619 -0.2438
  186POPC  C21121345   1.558   0.897   5.252  0.2466 -0.2732  0.0331
  186POPC  H11R21346   1.560   0.809   5.184  0.4330  1.0836 -1.8102
  186POPC  H11S21347   1.654   0.904   5.306  0.4045  3.0810 -0.4730
  186POPC  C21221348   1.537   1.025   5.168 -0.1821  0.1548  0.0030
  186POPC  H12R21349   1.565   1.121   5.217  2.2626 -0.0191 -0.9381
  186POPC  H12S21350   1.430   1.036   5.139  0.0660  2.4160 -0.2329
  186POPC  C21321351   1.620   1.007   5.040  0.5089 -0.4575 -0.0640
  186POPC  H13R21352   1.586   0.918   4.981  0.6119  0.2140 -1.1702
  186POPC  H13S21353   1.728   0.995   5.065 -0.1456  0.3169  3.6009
  186POPC  C21421354   1.593   1.125   4.943  0.7059  0.0998 -0.6310
  186POPC  H14R21355   1.604   1.223   4.996  3.2440  0.2966 -1.3901
  186POPC  H14S21356   1.484   1.118   4.921  0.8601 -1.7574 -0.9178
  186POPC  C21521357   1.660   1.127   4.805 -0.2119  0.2495 -0.1377
  186POPC  H15R21358   1.771   1.130   4.811 -0.0947 -0.9894 -1.2144
  186POPC  H15S21359   1.637   1.226   4.759 -2.1894  0.8549  1.9541
  186POPC  C21621360   1.603   1.031   4.699  0.8593  0.2683 -0.2402
  186POPC  H16R21361   1.495   1.014   4.721  1.7165 -1.6195  3.2190
  186POPC  H16S21362   1.651   0.933   4.721 -0.7481 -0.8324 -1.4196
  186POPC  C21721363   1.627   1.061   4.554  0.9348 -0.3804  0.3181
  186POPC  H17R21364   1.736   1.081   4.547  0.8680 -0.0885  0.0809
  186POPC  H17S21365   1.593   1.161   4.520  1.9775  0.8479  2.6753
  186POPC  C21821366   1.579   0.957   4.454  0.9950  0.3856  0.0960
  186POPC  H18R21367   1.622   0.859   4.486 -0.4925 -0.4464 -0.3362
  186POPC  H18S21368   1.608   0.988   4.351  0.5884  1.5482  0.3226
  186POPC  H18T21369   1.469   0.948   4.445  1.0109  1.3471 -1.5867
  186POPC   C3321370   1.201   1.224   5.950  0.2885 -0.3706  0.8323
  186POPC   H3X21371   1.300   1.237   5.899  0.0596 -2.2169 -0.1950
  186POPC   H3Y21372   1.181   1.321   5.999  0.0063 -0.8315  1.6516
  186POPC   C3421373   1.102   1.205   5.837 -0.1258  0.4190  0.6710
  186POPC   H4X21374   1.089   1.297   5.776 -0.7632 -0.0557  0.0790
  186POPC   H4Y21375   1.004   1.183   5.884 -1.1240  0.4294 -1.3164
  186POPC   C3521376   1.134   1.081   5.739  0.7925  0.1249 -1.0672
  186POPC   H5X21377   1.114   0.989   5.798  0.3701 -0.0986 -1.5561
  186POPC   H5Y21378   1.242   1.080   5.715  0.8398 -1.3622 -0.8486
  186POPC   C3621379   1.057   1.094   5.609  0.2159  0.1411  0.1516
  186POPC   H6X21380   0.946   1.099   5.620  0.3001  1.9739  0.4694
  186POPC   H6Y21381   1.075   1.000   5.553 -0.3241 -0.0065  0.2232
  186POPC   C3721382   1.112   1.202   5.513  0.3405  0.7205  0.2739
  186POPC   H7X21383   1.220   1.179   5.498 -0.0225 -0.0518 -1.4094
  186POPC   H7Y21384   1.102   1.307   5.548 -0.3511  0.4863  0.7890
  186POPC   C3821385   1.053   1.199   5.370  1.0967 -0.5780 -0.4120
  186POPC   H8X21386   0.950   1.234   5.390  1.6918  0.6900  0.6095
  186POPC   H8Y21387   1.039   1.100   5.322 -0.2146 -0.5377 -0.1497
  186POPC   C3921388   1.104   1.310   5.286  0.4811  0.2594 -0.4862
  186POPC   H9X21389   1.198   1.269   5.243 -0.0039  0.2234 -1.5341
  186POPC   H9Y21390   1.127   1.406   5.336 -0.0310  2.3175 -3.9315
  186POPC  C31021391   1.014   1.341   5.166  0.1499 -0.8784 -0.3850
  186POPC  H10X21392   1.058   1.434   5.124  0.9613 -1.3967 -0.7299
  186POPC  H10Y21393   0.915   1.353   5.214  1.2893  2.1033  1.4868
  186POPC  C31121394   1.016   1.228   5.057 -0.1280 -0.6311  0.3685
  186POPC  H11X21395   0.966   1.144   5.110 -0.4716 -0.8207 -0.2543
  186POPC  H11Y21396   1.121   1.202   5.033 -0.2658 -3.9057  2.6572
  186POPC  C31221397   0.951   1.264   4.920  0.2247 -0.5648  0.5042
  186POPC  H12X21398   0.990   1.349   4.860 -1.1861 -0.4336 -0.2919
  186POPC  H12Y21399   0.841   1.283   4.930 -0.0240 -1.8902  0.4297
  186POPC  C31321400   0.951   1.144   4.822 -0.3757  0.5933  0.1872
  186POPC  H13X21401   1.056   1.112   4.807 -0.8628 -0.8640 -0.2499
  186POPC  H13Y21402   0.915   1.171   4.720  0.3999 -1.1284 -0.5855
  186POPC  C31421403   0.867   1.021   4.858 -0.3870  0.0292  0.8853
  186POPC  H14X21404   0.769   1.065   4.889  0.2486  0.0818  2.9919
  186POPC  H14Y21405   0.912   0.955   4.936 -1.4798 -2.3822 -0.4191
  186POPC  C31521406   0.834   0.936   4.730  0.3046  0.4451 -0.2175
  186POPC  H15X21407   0.807   1.003   4.645  2.6735 -0.1091 -1.4970
  186POPC  H15Y21408   0.740   0.879   4.747 -0.3855  1.6050 -0.0469
  186POPC  C31621409   0.950   0.840   4.692  0.3189 -0.2742  0.6780
  186POPC  H16X21410   1.047   0.894   4.687  1.3769 -2.0245  1.5432
  186POPC  H16Y21411   0.922   0.801   4.592 -1.6578  0.3832  0.9299
  186POPC  H16Z21412   0.956   0.759   4.768  0.0423  0.6677  1.7432
  187POPC     N21413   3.966   6.448   2.741  0.5517  0.4649  0.0534
  187POPC   C1221414   3.880   6.426   2.614 -0.4218  0.2363 -0.5797
  187POPC  H12A21415   3.920   6.341   2.562  0.0812 -0.5383  1.0013
  187POPC  H12B21416   3.900   6.509   2.548  1.7258  1.1713  1.0726
  187POPC   C1321417   4.108   6.445   2.703 -0.6737  0.7387 -1.2300
  187POPC  H13A21418   4.142   6.511   2.626  0.3985  0.1086 -1.3187
  187POPC  H13B21419   4.168   6.464   2.791 -0.2280 -1.4941 -0.9938
  187POPC  H13C21420   4.141   6.349   2.666  1.1556 -0.9837  3.8770
  187POPC   C1421421   3.932   6.582   2.800 -0.0640 -0.1029  0.0450
  187POPC  H14A21422   3.856   6.568   2.874  0.0512 -0.0254  0.1790
  187POPC  H14B21423   4.018   6.609   2.861 -0.2119 -1.0551  0.6901
  187POPC  H14C21424   3.921   6.665   2.731 -0.5948 -0.3884 -0.2143
  187POPC   C1521425   3.935   6.339   2.840 -0.5740 -0.3946 -0.0905
  187POPC  H15A21426   3.929   6.238   2.803 -0.5171  0.0633 -1.4230
  187POPC  H15B21427   3.833   6.361   2.868 -0.8140 -0.5532 -0.8163
  187POPC  H15C21428   4.005   6.348   2.922 -2.6035 -0.9192  1.7647
  187POPC   C1121429   3.736   6.386   2.634  0.4366 -0.4080  0.3259
  187POPC  H11A21430   3.694   6.464   2.700  3.1048  1.7123 -0.2922
  187POPC  H11B21431   3.729   6.290   2.689 -2.3711 -0.8282 -0.5557
  187POPC     P21432   3.671   6.245   2.437 -0.3235 -0.0568 -0.2414
  187POPC   O1321433   3.809   6.186   2.450 -0.0026  0.0517  0.3745
  187POPC   O1421434   3.623   6.270   2.298 -0.7156 -0.1185 -0.1704
  187POPC   O1221435   3.678   6.386   2.506  0.1046 -0.4046 -0.3309
  187POPC   O1121436   3.562   6.158   2.512  0.0749  0.0790 -0.4564
  187POPC    C121437   3.440   6.225   2.544  0.1952  0.0243  0.1018
  187POPC    HA21438   3.363   6.177   2.478 -0.6813 -0.8069  1.6674
  187POPC    HB21439   3.441   6.334   2.523  3.6476  0.2655  0.9272
  187POPC    C221440   3.400   6.212   2.691 -0.2571  0.2480 -0.2374
  187POPC    HS21441   3.463   6.285   2.746  1.7780 -0.1056 -1.9707
  187POPC   O2121442   3.424   6.073   2.723 -0.2318 -0.5794  0.2758
  187POPC   C2121443   3.450   6.050   2.845  0.3922 -0.8731 -0.7252
  187POPC   O2221444   3.476   6.138   2.925 -0.2698 -0.3866  0.7138
  187POPC   C2221445   3.440   5.897   2.876  0.3331 -0.6548 -0.0861
  187POPC   H2R21446   3.531   5.861   2.930  0.3565  1.0901  1.1339
  187POPC   H2S21447   3.424   5.840   2.782 -1.0101  0.1557 -0.3617
  187POPC    C321448   3.248   6.269   2.712  0.3096  0.0469 -0.6099
  187POPC    HX21449   3.192   6.196   2.650 -0.0981 -0.7849  0.6956
  187POPC    HY21450   3.250   6.374   2.675  0.5200  0.3242  0.1713
  187POPC   O3121451   3.202   6.251   2.845  0.7001  0.1792  1.4968
  187POPC   C3121452   3.227   6.355   2.921  0.3502  0.2582 -0.8112
  187POPC   O3221453   3.295   6.449   2.893 -0.0943  0.4067  0.2837
  187POPC   C3221454   3.162   6.333   3.060 -0.0796  0.1796 -0.6814
  187POPC   H2X21455   3.229   6.257   3.105 -1.5000 -2.1458 -2.3273
  187POPC   H2Y21456   3.062   6.284   3.054 -1.3490  2.6567 -1.2325
  187POPC   C2321457   3.317   5.863   2.961  0.0486  0.0051  0.1638
  187POPC   H3R21458   3.288   5.756   2.955 -2.2439  0.5950 -0.0547
  187POPC   H3S21459   3.225   5.917   2.932  0.5866 -0.7230 -3.3094
  187POPC   C2421460   3.333   5.888   3.118 -0.3306 -0.3807  1.2618
  187POPC   H4R21461   3.366   5.994   3.123 -0.3169 -0.3578  0.7293
  187POPC   H4S21462   3.410   5.818   3.159  1.3418 -0.7585 -2.1526
  187POPC   C2521463   3.199   5.877   3.192  0.3599  0.3598  0.0073
  187POPC   H5R21464   3.172   5.769   3.194  2.3755 -0.1819  0.8242
  187POPC   H5S21465   3.116   5.939   3.152 -2.1259 -2.4380  0.4803
  187POPC   C2621466   3.204   5.919   3.333  0.6970 -0.5445  0.9239
  187POPC   H6R21467   3.098   5.914   3.366  0.3870  0.7721  0.2176
  187POPC   H6S21468   3.227   6.027   3.341 -2.5768  0.4261 -0.7312
  187POPC   C2721469   3.283   5.840   3.435  0.0417 -0.1483  0.3850
  187POPC   H7R21470   3.386   5.847   3.394  0.2207 -1.3412  0.6006
  187POPC   H7S21471   3.259   5.732   3.436  0.1018 -0.1627  1.1865
  187POPC   C2821472   3.277   5.886   3.582  0.5039 -0.7604 -0.1392
  187POPC   H8R21473   3.193   5.828   3.625  0.1812 -0.6496 -0.6058
  187POPC   H8S21474   3.259   5.996   3.588 -0.8079 -0.8945 -1.1633
  187POPC   C2921475   3.394   5.852   3.668 -0.7930  0.3870  0.4390
  187POPC   H9121476   3.481   5.805   3.621 -1.4376  0.1064 -0.4845
  187POPC  C21021477   3.397   5.879   3.796  0.1310  0.3987 -0.0979
  187POPC  H10121478   3.484   5.847   3.855  1.0339  1.7009 -0.6743
  187POPC  C21121479   3.299   5.937   3.891  0.0134 -0.2523 -0.4317
  187POPC  H11R21480   3.274   5.859   3.966 -2.3020  0.2187 -0.6524
  187POPC  H11S21481   3.214   5.964   3.825 -0.1366 -0.5015 -0.3391
  187POPC  C21221482   3.346   6.064   3.965  0.1030 -0.4765  1.0455
  187POPC  H12R21483   3.378   6.128   3.881 -1.1318  1.3370  1.8979
  187POPC  H12S21484   3.435   6.039   4.028  0.5405  0.8528  0.9684
  187POPC  C21321485   3.241   6.135   4.052  0.4525 -0.1156 -0.3415
  187POPC  H13R21486   3.161   6.068   4.091  0.9210 -0.7921 -0.5144
  187POPC  H13S21487   3.199   6.220   3.994  2.1693  0.8662 -0.2054
  187POPC  C21421488   3.306   6.208   4.178 -0.2182  0.5719 -0.0850
  187POPC  H14R21489   3.228   6.278   4.216 -0.6228  1.0048 -1.6446
  187POPC  H14S21490   3.391   6.268   4.138  1.3645 -1.0270  0.7834
  187POPC  C21521491   3.350   6.106   4.287  0.0645 -0.4320 -0.8373
  187POPC  H15R21492   3.450   6.072   4.253 -0.7897 -2.0256 -1.8703
  187POPC  H15S21493   3.277   6.024   4.306  0.7388 -0.6348  1.1929
  187POPC  C21621494   3.377   6.164   4.435 -0.3296 -0.3158 -0.1367
  187POPC  H16R21495   3.276   6.189   4.475  1.1912  2.1118  2.5941
  187POPC  H16S21496   3.447   6.249   4.425 -0.4705 -0.1743  0.0867
  187POPC  C21721497   3.456   6.073   4.534  0.2651 -0.9169 -0.2953
  187POPC  H17R21498   3.417   5.969   4.527 -0.5145 -0.5711 -1.1493
  187POPC  H17S21499   3.433   6.104   4.638  0.6561  1.5586 -0.8898
  187POPC  C21821500   3.610   6.063   4.504 -1.1353 -0.0097  0.1168
  187POPC  H18R21501   3.657   6.155   4.544 -1.7241  1.1299 -1.7202
  187POPC  H18S21502   3.634   6.075   4.396 -0.8658  5.1298  0.5239
  187POPC  H18T21503   3.662   5.973   4.545 -3.0913 -1.9993 -1.5150
  187POPC   C3321504   3.157   6.466   3.144  0.2745  0.6171  0.3838
  187POPC   H3X21505   3.079   6.526   3.092 -2.6975 -2.3019  1.1326
  187POPC   H3Y21506   3.254   6.519   3.154  1.0381 -0.8680  1.1008
  187POPC   C3421507   3.111   6.440   3.287  0.2076 -0.1093  0.1496
  187POPC   H4X21508   3.028   6.366   3.293 -0.0371  0.0708 -0.9400
  187POPC   H4Y21509   3.066   6.533   3.329 -1.5271 -0.2997 -1.1654
  187POPC   C3521510   3.224   6.399   3.384  0.3606 -0.6254  0.3077
  187POPC   H5X21511   3.283   6.493   3.388 -2.4718  1.2501  2.6897
  187POPC   H5Y21512   3.292   6.323   3.340  0.8240  1.0077 -2.0105
  187POPC   C3621513   3.178   6.386   3.528  0.5126  0.1938 -0.6084
  187POPC   H6X21514   3.113   6.296   3.527  2.2731 -1.1694 -2.1433
  187POPC   H6Y21515   3.109   6.471   3.543  0.3684 -0.2800  1.6730
  187POPC   C3721516   3.285   6.385   3.634 -0.4318 -0.1439  0.1331
  187POPC   H7X21517   3.358   6.466   3.613 -0.8542 -0.0020 -0.8160
  187POPC   H7Y21518   3.332   6.285   3.625 -1.5193 -0.7945  1.2194
  187POPC   C3821519   3.235   6.400   3.782 -0.5231 -0.1607 -0.3705
  187POPC   H8X21520   3.315   6.379   3.855 -1.6919  1.1220  1.3560
  187POPC   H8Y21521   3.154   6.326   3.802 -1.2819  0.4773 -1.0034
  187POPC   C3921522   3.204   6.550   3.804  0.0483  1.1115 -0.2445
  187POPC   H9X21523   3.144   6.582   3.716  0.1134  1.8936 -0.0130
  187POPC   H9Y21524   3.297   6.609   3.807 -0.5631  2.0990 -0.2554
  187POPC  C31021525   3.138   6.579   3.939  0.4355 -0.2475  0.1136
  187POPC  H10X21526   3.196   6.530   4.020  1.6007 -0.4102 -0.7843
  187POPC  H10Y21527   3.032   6.547   3.939 -0.1679  1.6420  0.3119
  187POPC  C31121528   3.129   6.726   3.973  0.0574 -0.5323 -0.2596
  187POPC  H11X21529   3.063   6.779   3.901  1.4778  0.9859 -0.5085
  187POPC  H11Y21530   3.224   6.772   3.939 -0.6022  0.4028 -0.8787
  187POPC  C31221531   3.105   6.770   4.118  0.0539  0.2636  0.3046
  187POPC  H12X21532   3.188   6.733   4.182 -0.1120  1.1393  1.0447
  187POPC  H12Y21533   3.008   6.730   4.153  0.7558 -2.1669 -0.2869
  187POPC  C31321534   3.095   6.922   4.129  0.1037  0.3738 -0.1766
  187POPC  H13X21535   3.017   6.954   4.056 -0.6763 -2.3107 -0.6264
  187POPC  H13Y21536   3.183   6.973   4.086  1.2005  0.9304  2.5682
  187POPC  C31421537   3.065   6.969   4.270  0.0000  0.1132 -0.7224
  187POPC  H14X21538   3.013   6.896   4.336  0.1249 -0.3803 -1.1640
  187POPC  H14Y21539   3.011   7.066   4.277 -0.2542 -0.1253  1.7901
  187POPC  C31521540   3.196   6.998   4.350 -0.5035  0.6073 -0.3062
  187POPC  H15X21541   3.156   7.071   4.423 -0.8755 -1.6061  1.8152
  187POPC  H15Y21542   3.263   7.046   4.275  0.0904 -0.4736 -0.4942
  187POPC  C31621543   3.265   6.882   4.421  0.0945  0.4287 -0.4286
  187POPC  H16X21544   3.194   6.827   4.486  1.4512  0.6787  1.3291
  187POPC  H16Y21545   3.355   6.914   4.478  0.6509 -0.1204 -0.9736
  187POPC  H16Z21546   3.304   6.812   4.344 -0.0036  0.0516 -0.1376
  188POPC     N21547   3.358   4.423   2.047 -0.1566  0.1547 -0.2066
  188POPC   C1221548   3.327   4.308   2.140  0.0449 -0.2196 -0.4490
  188POPC  H12A21549   3.366   4.222   2.089 -1.2688  0.7305 -3.2423
  188POPC  H12B21550   3.221   4.298   2.157 -0.0879  1.3267 -0.1335
  188POPC   C1321551   3.505   4.439   2.016  0.6261 -0.1360 -0.6660
  188POPC  H13A21552   3.516   4.495   1.925  0.0658  0.5919 -0.2963
  188POPC  H13B21553   3.539   4.490   2.105 -1.3668 -0.6428  0.4595
  188POPC  H13C21554   3.553   4.342   2.010 -0.0046 -0.5246  0.3238
  188POPC   C1421555   3.294   4.395   1.920 -0.2141  0.4150  0.1310
  188POPC  H14A21556   3.330   4.301   1.881  3.3273  1.1564  1.2524
  188POPC  H14B21557   3.188   4.381   1.934 -0.2159  0.5496  0.2662
  188POPC  H14C21558   3.304   4.469   1.842  0.5520 -0.8420 -1.0022
  188POPC   C1521559   3.311   4.548   2.114  0.1126  0.2510 -0.1387
  188POPC  H15A21560   3.302   4.625   2.040  1.7194  0.8961  0.3021
  188POPC  H15B21561   3.374   4.585   2.194 -2.7173 -0.4198  2.6088
  188POPC  H15C21562   3.218   4.531   2.167  1.2318 -2.2923  1.2180
  188POPC   C1121563   3.394   4.309   2.281  0.7044 -0.2742  0.7619
  188POPC  H11A21564   3.352   4.228   2.345  1.9150 -0.3617  1.4842
  188POPC  H11B21565   3.371   4.403   2.335  0.8024  0.2145 -0.0467
  188POPC     P21566   3.647   4.363   2.342  0.6917  0.4847  0.0181
  188POPC   O1321567   3.681   4.488   2.268 -0.2745 -0.1637  0.0070
  188POPC   O1421568   3.753   4.266   2.373  0.4441  0.2332  0.4253
  188POPC   O1221569   3.532   4.279   2.266  0.4704 -0.1817 -0.1825
  188POPC   O1121570   3.581   4.407   2.486 -0.5727 -0.2511 -0.1722
  188POPC    C121571   3.533   4.305   2.572  0.0760 -0.5475 -0.1196
  188POPC    HA21572   3.597   4.215   2.565  0.0506 -0.4959 -1.1086
  188POPC    HB21573   3.430   4.277   2.541 -1.2134  3.1673  0.2666
  188POPC    C221574   3.527   4.350   2.730  0.0806  0.2044 -0.0434
  188POPC    HS21575   3.460   4.438   2.734 -0.5283 -0.1370 -1.7064
  188POPC   O2121576   3.664   4.382   2.786 -0.5981  0.8940 -0.7460
  188POPC   C2121577   3.654   4.469   2.886  0.5299  0.2625 -0.5863
  188POPC   O2221578   3.553   4.535   2.911  0.0243 -0.7177  0.2069
  188POPC   C2221579   3.785   4.470   2.976 -0.2573 -0.2889 -0.3117
  188POPC   H2R21580   3.867   4.531   2.932 -0.2283  0.1863  0.3861
  188POPC   H2S21581   3.812   4.364   2.992  2.1975  0.3701  0.4214
  188POPC    C321582   3.454   4.234   2.809  0.2840  0.3194  0.2335
  188POPC    HX21583   3.515   4.142   2.791  0.9121  0.1490  2.8080
  188POPC    HY21584   3.353   4.210   2.770  1.4586 -1.2837 -2.0349
  188POPC   O3121585   3.455   4.267   2.950  0.1589 -0.4562  0.4441
  188POPC   C3121586   3.341   4.322   2.998  0.5520 -0.2476 -0.2388
  188POPC   O3221587   3.237   4.328   2.933  0.0225 -0.0509  0.0658
  188POPC   C3221588   3.360   4.356   3.144  0.4047 -0.1527 -0.4702
  188POPC   H2X21589   3.424   4.446   3.144  1.5666 -0.9476 -0.1308
  188POPC   H2Y21590   3.416   4.267   3.181 -0.3658 -1.2342 -1.8125
  188POPC   C2321591   3.764   4.532   3.116  0.4810 -0.4253  0.4656
  188POPC   H3R21592   3.679   4.489   3.173  1.1353 -2.7465 -0.2037
  188POPC   H3S21593   3.730   4.637   3.105  1.4076 -0.2929 -1.4212
  188POPC   C2421594   3.876   4.515   3.213 -0.9809  0.0941  0.4460
  188POPC   H4R21595   3.972   4.554   3.173  0.3019 -0.2370  2.9853
  188POPC   H4S21596   3.903   4.407   3.222  2.1907  0.6856 -0.7001
  188POPC   C2521597   3.847   4.574   3.349  0.4726 -0.4205  0.5313
  188POPC   H5R21598   3.826   4.683   3.338  0.4181 -0.6301 -2.0182
  188POPC   H5S21599   3.936   4.555   3.412  0.0138  0.9790  1.6424
  188POPC   C2621600   3.727   4.514   3.423  0.1402 -0.2362  0.2673
  188POPC   H6R21601   3.737   4.405   3.403  0.4455 -0.0528 -0.6226
  188POPC   H6S21602   3.634   4.541   3.369 -0.0977  1.2900  1.3929
  188POPC   C2721603   3.725   4.539   3.565 -0.0934 -0.5056 -0.5970
  188POPC   H7R21604   3.741   4.649   3.577  2.0648 -0.3960 -3.3029
  188POPC   H7S21605   3.801   4.477   3.616  2.0774  0.4477 -2.4884
  188POPC   C2821606   3.587   4.512   3.625 -0.2441 -0.0902  0.3332
  188POPC   H8R21607   3.558   4.407   3.602 -0.2895  0.0787 -0.4054
  188POPC   H8S21608   3.506   4.574   3.581 -0.1747 -0.1638  0.0940
  188POPC   C2921609   3.594   4.530   3.772 -0.2358 -0.0400 -0.0813
  188POPC   H9121610   3.662   4.609   3.806 -1.3014  1.0887 -0.5068
  188POPC  C21021611   3.521   4.460   3.859 -0.6045 -0.2094 -0.3712
  188POPC  H10121612   3.517   4.502   3.961  1.2858  0.8714 -0.7039
  188POPC  C21121613   3.417   4.356   3.836  0.3402  0.3854  0.7696
  188POPC  H11R21614   3.413   4.332   3.728  1.5488 -0.2951  0.8534
  188POPC  H11S21615   3.314   4.396   3.849  0.2141  0.4394 -0.3354
  188POPC  C21221616   3.456   4.248   3.932 -0.1500  0.6773  0.4462
  188POPC  H12R21617   3.566   4.242   3.939 -0.0543 -0.5243 -1.4584
  188POPC  H12S21618   3.416   4.157   3.882 -1.6742  1.2391  0.5926
  188POPC  C21321619   3.401   4.260   4.080  0.0229 -0.3205 -0.0988
  188POPC  H13R21620   3.290   4.258   4.076 -0.1153  1.3985  1.3449
  188POPC  H13S21621   3.428   4.358   4.125 -1.8575  0.6123 -0.8917
  188POPC  C21421622   3.458   4.150   4.172 -0.3879 -0.4414 -0.0062
  188POPC  H14R21623   3.569   4.148   4.167 -0.4500 -2.0510 -1.4294
  188POPC  H14S21624   3.425   4.060   4.116 -1.0801 -0.9766  1.2152
  188POPC  C21521625   3.395   4.138   4.308  0.7420  0.1988  0.2583
  188POPC  H15R21626   3.289   4.110   4.297  1.1454 -1.3841  0.2154
  188POPC  H15S21627   3.399   4.224   4.378 -2.7272  1.2914 -0.7087
  188POPC  C21621628   3.445   4.014   4.390  0.4539 -0.7714  0.2930
  188POPC  H16R21629   3.447   3.932   4.315 -2.5404 -0.3671 -0.3645
  188POPC  H16S21630   3.369   3.993   4.469 -0.7612 -1.0241 -0.9093
  188POPC  C21721631   3.594   4.050   4.439  0.4595 -0.0289 -0.1947
  188POPC  H17R21632   3.578   4.149   4.485 -1.7099  0.3690 -1.6600
  188POPC  H17S21633   3.655   4.057   4.347  1.7442 -2.3846  0.3828
  188POPC  C21821634   3.662   3.964   4.542  0.7838  0.3114 -0.3471
  188POPC  H18R21635   3.644   3.997   4.646  1.9131  0.9230 -0.3318
  188POPC  H18S21636   3.770   3.971   4.517  1.0970  0.7588  1.0716
  188POPC  H18T21637   3.631   3.857   4.536 -1.5374  0.9419 -0.2624
  188POPC   C3321638   3.222   4.384   3.202  0.3975  0.6509  0.2455
  188POPC   H3X21639   3.166   4.290   3.184 -0.3222  1.1119  0.0504
  188POPC   H3Y21640   3.160   4.459   3.149  1.9701  0.7897 -1.4934
  188POPC   C3421641   3.237   4.405   3.352 -0.2511  0.7855  0.7723
  188POPC   H4X21642   3.280   4.505   3.374  2.0697  0.3033 -1.1968
  188POPC   H4Y21643   3.312   4.330   3.385  0.6815  0.6433 -1.5056
  188POPC   C3521644   3.112   4.382   3.429  0.2647 -0.1714  1.4374
  188POPC   H5X21645   3.048   4.323   3.360 -0.2075  2.0523 -0.1498
  188POPC   H5Y21646   3.054   4.477   3.434 -0.7863 -0.5750 -1.2594
  188POPC   C3621647   3.139   4.325   3.569  0.3048 -0.7795 -0.0754
  188POPC   H6X21648   3.204   4.392   3.630 -0.1616  0.5849 -1.0203
  188POPC   H6Y21649   3.186   4.224   3.568 -0.7610 -1.3152 -2.2078
  188POPC   C3721650   3.015   4.317   3.660  0.0338 -0.1754 -0.1323
  188POPC   H7X21651   2.921   4.284   3.611 -0.7864 -1.3005  2.0494
  188POPC   H7Y21652   2.996   4.422   3.691  2.2082 -0.1022  1.1504
  188POPC   C3821653   3.050   4.229   3.784 -0.0184  0.4736 -0.1518
  188POPC   H8X21654   3.130   4.279   3.843 -1.3133  2.5802 -0.0392
  188POPC   H8Y21655   3.087   4.128   3.757  1.8750  0.7278  1.2960
  188POPC   C3921656   2.931   4.213   3.883 -0.4585  0.0019  0.2220
  188POPC   H9X21657   2.836   4.188   3.830 -0.6902  2.0139 -0.4190
  188POPC   H9Y21658   2.912   4.313   3.929 -3.0556 -0.0757 -0.5121
  188POPC  C31021659   2.964   4.114   3.995 -0.0244 -0.0223  0.4388
  188POPC  H10X21660   3.058   4.151   4.043 -1.2042  0.5157  2.4778
  188POPC  H10Y21661   2.985   4.014   3.951  4.0101  1.0183 -0.3911
  188POPC  C31121662   2.858   4.120   4.103  0.1532  0.2906 -0.5483
  188POPC  H11X21663   2.752   4.107   4.070  0.5144 -0.2013 -1.5340
  188POPC  H11Y21664   2.851   4.223   4.145 -2.4681  0.2833 -0.8067
  188POPC  C31221665   2.893   4.010   4.206 -0.2439  0.1047  0.3585
  188POPC  H12X21666   3.000   4.013   4.236  0.1791 -0.7533 -1.0005
  188POPC  H12Y21667   2.874   3.907   4.171  1.9366 -1.0800  2.3920
  188POPC  C31321668   2.820   4.037   4.345 -0.4832 -0.6389  0.4263
  188POPC  H13X21669   2.714   4.051   4.318  0.0904  0.8128 -1.2849
  188POPC  H13Y21670   2.848   4.128   4.403 -0.2699  0.3441 -1.1627
  188POPC  C31421671   2.847   3.923   4.449  0.8057 -0.2638  0.0723
  188POPC  H14X21672   2.952   3.887   4.442  0.8323 -0.0837 -0.5450
  188POPC  H14Y21673   2.795   3.834   4.407  1.0096 -0.3407 -0.0172
  188POPC  C31521674   2.803   3.957   4.592  0.2841  0.0625 -0.3235
  188POPC  H15X21675   2.847   4.057   4.611 -2.5102  1.2947  0.1401
  188POPC  H15Y21676   2.845   3.884   4.664  3.4135  1.3754 -0.6789
  188POPC  C31621677   2.659   4.003   4.605 -0.0847  0.2320  0.4557
  188POPC  H16X21678   2.591   3.918   4.580  2.0698 -1.3424 -0.4133
  188POPC  H16Y21679   2.641   4.087   4.536 -1.0912 -1.3641 -1.3433
  188POPC  H16Z21680   2.640   4.035   4.710  1.5573  0.2039  0.7944
  189SAPI   C1221681   2.566   1.723   7.107 -0.0160 -0.1937  0.1940
  189SAPI    H221682   2.672   1.750   7.090 -0.0120  1.0192  1.8613
  189SAPI    O221683   2.518   1.620   7.016  0.0845  0.4085 -0.1514
  189SAPI   HO221684   2.593   1.597   6.961 -1.1831  0.1554 -1.8532
  189SAPI   C1321685   2.562   1.680   7.255 -0.0980 -0.4689  0.4538
  189SAPI    H321686   2.581   1.770   7.319 -0.4526  0.7067 -1.0485
  189SAPI    O321687   2.669   1.589   7.270  0.4946  0.2862 -0.3048
  189SAPI   HO321688   2.727   1.617   7.340  0.2894  2.2121 -0.8634
  189SAPI   C1421689   2.422   1.625   7.286 -0.1147 -0.1292  0.0165
  189SAPI    H421690   2.416   1.539   7.216 -1.4703  1.0316 -1.3971
  189SAPI    O421691   2.417   1.578   7.417  0.5799 -0.3807  0.0760
  189SAPI   HO421692   2.402   1.484   7.413 -1.4556 -0.0615 -1.8237
  189SAPI   C1521693   2.310   1.724   7.247 -0.1353 -0.1992 -0.9852
  189SAPI    H521694   2.317   1.799   7.329  1.9105 -1.5639  0.1842
  189SAPI    O521695   2.184   1.663   7.246 -0.4263  0.0326  0.0642
  189SAPI   HO521696   2.115   1.731   7.243 -0.2132  0.2197 -1.1526
  189SAPI   C1621697   2.330   1.806   7.119 -0.5848  0.2874 -0.6237
  189SAPI    H621698   2.301   1.743   7.032 -1.7598 -1.4662  0.9351
  189SAPI    O621699   2.243   1.918   7.119 -0.2866 -0.3016 -0.2414
  189SAPI   HO621700   2.258   1.962   7.034  1.2506  2.3108  1.2344
  189SAPI   C1121701   2.478   1.845   7.086  1.0777 -0.8399 -0.1427
  189SAPI    H121702   2.494   1.927   7.159 -4.7606  0.0772  0.5843
  189SAPI     P21703   2.576   2.009   6.890 -0.4699 -0.1165 -0.0878
  189SAPI   O1321704   2.626   2.094   7.001  0.2049  0.3107 -0.3464
  189SAPI   O1421705   2.501   2.060   6.774 -0.2533  0.3659 -0.2966
  189SAPI   O1221706   2.478   1.891   6.952 -0.3789 -0.3448  0.4416
  189SAPI   O1121707   2.699   1.923   6.833 -0.6457 -0.1185  0.0930
  189SAPI    C121708   2.689   1.827   6.733  0.6951 -0.4237  0.9051
  189SAPI    HA21709   2.783   1.768   6.736  0.4793 -0.9416 -0.9440
  189SAPI    HB21710   2.598   1.764   6.747 -0.0286  0.5237  0.5726
  189SAPI    C221711   2.686   1.895   6.587 -0.8242 -0.2360  0.0272
  189SAPI    HS21712   2.588   1.947   6.585 -0.6657  0.2523  2.3109
  189SAPI   O2121713   2.698   1.798   6.481 -0.0680  0.5881  0.1453
  189SAPI   C2121714   2.584   1.733   6.450 -0.8440  0.3613  0.4638
  189SAPI   O2221715   2.477   1.763   6.496  0.4464 -0.6134  0.1397
  189SAPI   C2221716   2.613   1.615   6.351  0.0940 -0.5440 -0.4670
  189SAPI   H2R21717   2.715   1.579   6.376 -0.2457 -1.2100 -0.0154
  189SAPI   H2S21718   2.547   1.533   6.386  0.1469  0.6971  2.8783
  189SAPI    C321719   2.802   2.002   6.574  0.6636  0.2202 -0.2728
  189SAPI    HX21720   2.890   1.934   6.578  1.0450  0.7677  1.1913
  189SAPI    HY21721   2.800   2.062   6.667 -2.0201  2.0785 -1.4183
  189SAPI   O3121722   2.793   2.092   6.456 -0.2198  0.2405  0.8229
  189SAPI   C3121723   2.705   2.196   6.472 -0.4868  0.8314 -0.2852
  189SAPI   O3221724   2.635   2.211   6.571  0.1564 -0.9269 -0.4075
  189SAPI   C3221725   2.732   2.308   6.373 -0.0121 -0.0554  1.4891
  189SAPI   H2X21726   2.824   2.288   6.314  1.2807  0.5160  3.2249
  189SAPI   H2Y21727   2.772   2.392   6.434  1.9333  2.5277 -2.8543
  189SAPI   C2321728   2.599   1.650   6.201 -0.2093  0.1000 -0.5948
  189SAPI   H3R21729   2.678   1.721   6.168 -1.0687  2.6427  2.3130
  189SAPI   H3S21730   2.510   1.717   6.199  0.2538  0.7097 -1.7794
  189SAPI   C2421731   2.559   1.540   6.110  0.3287 -0.0753  0.7168
  189SAPI   H4R21732   2.536   1.580   6.009  1.7132 -1.7126 -0.3052
  189SAPI   H4S21733   2.460   1.503   6.147 -0.5764  1.5397  0.0000
  189SAPI   C2521734   2.668   1.431   6.097  0.5887 -0.2509 -0.2251
  189SAPI   H5R21735   2.674   1.373   6.190 -2.0420  0.0522  0.2054
  189SAPI   C2621736   2.753   1.423   5.996  0.6564  0.5103 -0.2929
  189SAPI   H6R21737   2.833   1.349   6.012 -1.4326 -1.8090 -0.0636
  189SAPI   C2721738   2.755   1.498   5.867  0.1124 -0.2481 -0.3116
  189SAPI   H7R21739   2.657   1.539   5.837  0.1744  0.1297 -0.0124
  189SAPI   H7S21740   2.799   1.440   5.782  2.1328  1.7007 -0.6857
  189SAPI   C2821741   2.841   1.619   5.885 -0.2094  0.0737 -0.3152
  189SAPI   H8R21742   2.846   1.661   5.986  1.5025 -0.1141 -0.3026
  189SAPI   C2921743   2.894   1.699   5.786  0.1110  0.5319  0.1388
  189SAPI   H9R21744   2.939   1.795   5.817  0.5567  0.1490  0.6963
  189SAPI  C21021745   2.880   1.677   5.635 -1.1110  1.2794  0.3480
  189SAPI  H10R21746   2.804   1.600   5.608  0.4014  0.6412 -2.5144
  189SAPI  H10S21747   2.976   1.634   5.600 -1.4472  0.5174  0.3484
  189SAPI  C21121748   2.843   1.794   5.559 -0.1918 -0.8024 -0.6945
  189SAPI  H11R21749   2.753   1.841   5.602  0.0508 -1.5127  0.6518
  189SAPI  C21221750   2.893   1.838   5.439 -0.7129  0.0862 -0.7717
  189SAPI  H12R21751   2.855   1.931   5.393 -2.6461 -0.2989 -0.0236
  189SAPI  C21321752   3.014   1.772   5.370  0.5588  0.4745 -0.4289
  189SAPI  H13R21753   2.983   1.671   5.336 -1.1762  0.2260  1.6384
  189SAPI  H13S21754   3.078   1.750   5.458 -2.0944  1.9971  2.0476
  189SAPI  C21421755   3.084   1.866   5.281  0.0830  0.4294  0.4957
  189SAPI  H14R21756   3.166   1.922   5.329 -0.6384 -0.3948  2.8320
  189SAPI  C21521757   3.064   1.882   5.151 -0.1372  0.1621 -0.2651
  189SAPI  H15R21758   3.129   1.946   5.089  1.4027 -1.3575 -0.2913
  189SAPI  C21621759   2.968   1.810   5.057  0.2927 -0.0919  0.0692
  189SAPI  H16R21760   2.901   1.753   5.124 -0.0893  0.9394  0.5928
  189SAPI  H16S21761   3.017   1.736   4.991  2.1105  0.2495  0.9673
  189SAPI  C21721762   2.882   1.905   4.974  0.2380 -0.5628 -0.4636
  189SAPI  H17R21763   2.869   1.999   5.032 -1.7298 -2.6000  2.7776
  189SAPI  H17S21764   2.781   1.859   4.966 -0.9922  1.7762  0.7489
  189SAPI  C21821765   2.929   1.932   4.830  0.0329 -0.4234  0.6767
  189SAPI  H18R21766   2.942   1.833   4.782  1.6948 -0.7546  1.7058
  189SAPI  H18S21767   3.031   1.976   4.839 -0.7531  2.0856 -1.4810
  189SAPI  C21921768   2.832   2.026   4.749 -0.4184 -0.6288 -0.0749
  189SAPI  H19R21769   2.884   2.124   4.742 -0.4703 -0.6936 -2.2251
  189SAPI  H19S21770   2.743   2.041   4.812 -1.0724  3.6591 -1.6845
  189SAPI  C22021771   2.786   1.978   4.613 -0.0776  0.4204  0.0635
  189SAPI  H20R21772   2.719   2.055   4.569 -0.9949 -0.4739 -0.1415
  189SAPI  H20S21773   2.717   1.892   4.624 -1.6161  1.7805  1.6927
  189SAPI  H20T21774   2.874   1.947   4.553 -1.0092 -4.0355  0.6847
  189SAPI   C3321775   2.604   2.349   6.296 -0.4007  0.0384  1.2918
  189SAPI   H3X21776   2.522   2.379   6.365 -1.0123  1.6533 -0.0726
  189SAPI   H3Y21777   2.570   2.272   6.225  0.4204  0.8368 -0.0018
  189SAPI   C3421778   2.629   2.480   6.219  0.2666 -0.0192  0.0904
  189SAPI   H4X21779   2.724   2.471   6.163  0.9915  0.1791  1.2664
  189SAPI   H4Y21780   2.648   2.563   6.290  2.3297 -0.6885  0.3715
  189SAPI   C3521781   2.512   2.529   6.118 -0.2793  0.5652 -0.2068
  189SAPI   H5X21782   2.419   2.541   6.178  0.5672 -1.2262  1.5742
  189SAPI   H5Y21783   2.491   2.446   6.048  1.4706 -0.6347  0.6156
  189SAPI   C3621784   2.534   2.662   6.049 -0.3400  0.0452  0.5949
  189SAPI   H6X21785   2.599   2.731   6.106  2.4164 -1.1924 -0.8638
  189SAPI   H6Y21786   2.434   2.711   6.044  0.0418  0.7477 -0.5733
  189SAPI   C3721787   2.611   2.641   5.919  0.0139 -0.3676 -0.1097
  189SAPI   H7X21788   2.698   2.573   5.933 -0.0107 -0.1992  0.9238
  189SAPI   H7Y21789   2.645   2.741   5.886 -1.1545 -0.0656 -0.4495
  189SAPI   C3821790   2.537   2.591   5.799 -0.1750 -0.4762 -0.1672
  189SAPI   H8X21791   2.436   2.635   5.793 -0.2795 -0.7979 -0.9421
  189SAPI   H8Y21792   2.521   2.481   5.797  1.5918 -0.7992  0.7547
  189SAPI   C3921793   2.613   2.629   5.668 -0.4459 -0.7256 -0.6965
  189SAPI   H9X21794   2.708   2.575   5.651  0.1306  0.1161 -0.2047
  189SAPI   H9Y21795   2.643   2.735   5.678  2.0826 -1.4291 -0.2634
  189SAPI  C31021796   2.525   2.614   5.543  0.1774 -0.7350 -0.4309
  189SAPI  H10X21797   2.438   2.681   5.559 -0.0357 -0.9399 -0.7285
  189SAPI  H10Y21798   2.491   2.512   5.514 -1.2516 -0.3971 -0.0241
  189SAPI  C31121799   2.586   2.664   5.414 -0.1268 -0.3689  0.2790
  189SAPI  H11X21800   2.518   2.650   5.328  1.0177 -1.1256 -0.5307
  189SAPI  H11Y21801   2.673   2.599   5.388 -0.0887 -0.6255  1.0014
  189SAPI  C31221802   2.641   2.816   5.422  0.0606  0.2023  0.2871
  189SAPI  H12X21803   2.729   2.822   5.490 -0.1526  2.6920  0.4589
  189SAPI  H12Y21804   2.562   2.881   5.466 -0.4867 -1.3501  1.6723
  189SAPI  C31321805   2.689   2.880   5.290  0.0806  0.2821  0.5878
  189SAPI  H13X21806   2.733   2.981   5.299  0.8937  0.1232 -1.1823
  189SAPI  H13Y21807   2.599   2.889   5.226  0.2215  0.2886  0.3908
  189SAPI  C31421808   2.794   2.792   5.224 -0.0567 -0.0370 -0.0290
  189SAPI  H14X21809   2.740   2.697   5.203  0.0929  0.0252 -0.7120
  189SAPI  H14Y21810   2.877   2.778   5.296 -0.8591 -2.8979  0.4687
  189SAPI  C31521811   2.855   2.848   5.099 -0.0450 -0.0105  0.7693
  189SAPI  H15X21812   2.930   2.774   5.065  2.1162  0.9205  3.2066
  189SAPI  H15Y21813   2.898   2.946   5.127 -1.1688  0.9929 -0.8170
  189SAPI  C31621814   2.757   2.880   4.987  0.4784 -0.2909  0.3248
  189SAPI  H16X21815   2.702   2.969   5.024 -0.6367 -1.4441  1.5653
  189SAPI  H16Y21816   2.694   2.789   4.973  2.3106 -1.7670  1.1526
  189SAPI  C31721817   2.825   2.908   4.851  0.4717 -0.5385 -0.2417
  189SAPI  H17X21818   2.735   2.900   4.786  0.9815 -0.0163 -1.0259
  189SAPI  H17Y21819   2.887   2.824   4.813 -1.6913 -1.6953 -1.4144
  189SAPI  C31821820   2.881   3.048   4.844  0.4077 -0.1447 -0.1089
  189SAPI  H18X21821   2.910   3.068   4.739  1.4785  1.9533  0.5341
  189SAPI  H18Y21822   2.969   3.059   4.911 -0.0190 -0.8467  0.5819
  189SAPI  H18Z21823   2.803   3.120   4.876  1.3917  0.6055  0.6876
  190SAPI   C1221824   5.943   3.910   6.447  0.4585  0.1214 -0.6857
  190SAPI    H221825   5.890   3.821   6.407 -2.8515  1.6462 -0.0282
  190SAPI    O221826   6.080   3.928   6.411  0.1250  0.3361  0.6878
  190SAPI   HO221827   6.101   3.849   6.361  0.0348  1.2728 -0.8972
  190SAPI   C1321828   5.863   4.026   6.394 -0.7066 -0.0230  0.6039
  190SAPI    H321829   5.759   4.007   6.427 -0.3093 -2.1463  0.7738
  190SAPI    O321830   5.851   4.014   6.253  0.3320 -0.1294  0.7567
  190SAPI   HO321831   5.942   4.026   6.225 -0.0695 -2.9510 -2.3064
  190SAPI   C1421832   5.907   4.160   6.433  0.5929 -0.1529 -0.0756
  190SAPI    H421833   6.012   4.180   6.404  0.2979  0.4273 -0.7739
  190SAPI    O421834   5.835   4.267   6.372  0.0283  0.1578  0.0552
  190SAPI   HO421835   5.810   4.230   6.287 -2.6584  2.0117 -0.0983
  190SAPI   C1521836   5.897   4.172   6.586 -0.1714  0.3816  0.0042
  190SAPI    H521837   5.789   4.155   6.602  0.3692 -1.2913  2.4503
  190SAPI    O521838   5.940   4.297   6.629 -0.2093 -0.2653  0.3491
  190SAPI   HO521839   5.890   4.333   6.702 -0.0026  0.7153  0.0171
  190SAPI   C1621840   5.963   4.049   6.658 -0.2088  0.1095 -0.5681
  190SAPI    H621841   6.074   4.056   6.647 -0.0780  0.4832  0.8561
  190SAPI    O621842   5.928   4.055   6.796  0.5495 -0.3527  0.3140
  190SAPI   HO621843   5.851   4.105   6.822 -1.4230 -2.8209 -0.3201
  190SAPI   C1121844   5.935   3.915   6.599  0.2678  0.0453  0.8849
  190SAPI    H121845   5.828   3.901   6.628 -0.0544  1.9890  0.7784
  190SAPI     P21846   5.976   3.655   6.674  0.4600 -0.2546 -0.1585
  190SAPI   O1321847   5.830   3.644   6.691  0.1089  0.1746  0.5102
  190SAPI   O1421848   6.057   3.603   6.781  0.1118 -0.4291  0.1272
  190SAPI   O1221849   6.015   3.814   6.658  0.0727 -0.7668  0.8769
  190SAPI   O1121850   6.027   3.581   6.542 -0.1172 -0.4125  0.8080
  190SAPI    C121851   6.036   3.440   6.538 -0.9288  0.7378 -0.3030
  190SAPI    HA21852   6.117   3.399   6.602 -2.1436  0.0153  0.8374
  190SAPI    HB21853   5.945   3.402   6.590  0.3110 -0.1957  1.2768
  190SAPI    C221854   6.064   3.381   6.401  0.3597 -0.3876 -0.2106
  190SAPI    HS21855   6.174   3.381   6.388  0.1425 -1.2990 -2.6116
  190SAPI   O2121856   6.017   3.466   6.294  0.1138  0.7311  0.3656
  190SAPI   C2121857   5.889   3.486   6.277  0.1414  0.3944 -0.2460
  190SAPI   O2221858   5.800   3.444   6.353  0.6452  0.1557  0.0281
  190SAPI   C2221859   5.858   3.580   6.157 -0.1787  0.4194 -0.5305
  190SAPI   H2R21860   5.802   3.667   6.197 -0.9818  0.4047 -1.5618
  190SAPI   H2S21861   5.950   3.613   6.104 -0.4282  0.5365 -0.8966
  190SAPI    C321862   6.013   3.235   6.389  0.5001  0.1929 -0.3382
  190SAPI    HX21863   5.905   3.237   6.415  0.6165  1.3876  0.1059
  190SAPI    HY21864   6.056   3.171   6.468  0.2000 -0.0275 -0.3491
  190SAPI   O3121865   6.030   3.178   6.257 -0.3838  0.2862  0.4182
  190SAPI   C3121866   6.152   3.138   6.234  0.5287  0.5148 -0.3386
  190SAPI   O3221867   6.249   3.152   6.300 -0.4713  0.5301  0.4279
  190SAPI   C3221868   6.144   3.062   6.101 -0.1093  1.0799  0.2532
  190SAPI   H2X21869   6.124   3.126   6.013 -0.1276  0.4279 -0.2213
  190SAPI   H2Y21870   6.062   2.989   6.117  0.8896  0.0448  0.8156
  190SAPI   C2321871   5.744   3.510   6.073 -0.2522  0.1253 -0.5411
  190SAPI   H3R21872   5.711   3.579   5.992 -1.0483 -1.7033 -1.8463
  190SAPI   H3S21873   5.659   3.485   6.140 -0.8219 -1.8725 -1.9220
  190SAPI   C2421874   5.810   3.389   5.989  0.0110  0.4835  0.2655
  190SAPI   H4R21875   5.857   3.321   6.063 -1.3854 -1.1112 -0.2510
  190SAPI   H4S21876   5.875   3.434   5.911  1.1970  0.4560  1.2165
  190SAPI   C2521877   5.707   3.305   5.922  0.0142  0.3337  0.5821
  190SAPI   H5R21878   5.647   3.234   5.981  0.3446  0.7710  1.4599
  190SAPI   C2621879   5.696   3.281   5.787 -0.1406 -0.2470 -0.1101
  190SAPI   H6R21880   5.622   3.207   5.754 -0.9008  0.3085  0.3194
  190SAPI   C2721881   5.746   3.352   5.663  0.3600  0.5712 -0.7643
  190SAPI   H7R21882   5.795   3.445   5.697 -0.0293 -0.1255  1.9535
  190SAPI   H7S21883   5.654   3.395   5.618 -0.8208 -1.1701 -0.1459
  190SAPI   C2821884   5.840   3.280   5.567  0.4896 -0.2504  0.1871
  190SAPI   H8R21885   5.949   3.286   5.584  0.5047 -0.8480  0.3346
  190SAPI   C2921886   5.810   3.227   5.446 -0.0214  0.2215 -0.4312
  190SAPI   H9R21887   5.886   3.165   5.396  1.6584 -0.1234  2.3326
  190SAPI  C21021888   5.670   3.222   5.384 -0.5617  0.1639 -0.4853
  190SAPI  H10R21889   5.642   3.297   5.308 -1.0937 -1.6402 -2.1427
  190SAPI  H10S21890   5.599   3.217   5.469 -1.5558 -0.1949 -1.3199
  190SAPI  C21121891   5.656   3.097   5.304 -0.2732 -0.3582 -0.0891
  190SAPI  H11R21892   5.730   3.090   5.223 -0.0571  1.7491 -0.1256
  190SAPI  C21221893   5.577   2.988   5.329  0.0531  0.6081  0.6623
  190SAPI  H12R21894   5.584   2.898   5.267 -2.0250  1.0475 -0.2831
  190SAPI  C21321895   5.478   2.975   5.442  0.0892  0.5846 -0.2233
  190SAPI  H13R21896   5.500   3.056   5.515  1.0577 -0.4299  0.6623
  190SAPI  H13S21897   5.513   2.888   5.502  2.5635  1.8571  0.3040
  190SAPI  C21421898   5.336   2.980   5.402  0.3955  0.4881  0.0788
  190SAPI  H14R21899   5.312   2.997   5.296 -2.2166  3.3827  1.0037
  190SAPI  C21521900   5.239   2.945   5.480 -0.6901 -0.4760  0.0930
  190SAPI  H15R21901   5.139   2.928   5.437  0.1595 -2.0867 -1.3608
  190SAPI  C21621902   5.255   2.890   5.619  0.3422  0.3385  0.3211
  190SAPI  H16R21903   5.354   2.900   5.670  1.2562 -4.0764 -0.1537
  190SAPI  H16S21904   5.234   2.782   5.608  1.7635  0.0003  0.6634
  190SAPI  C21721905   5.150   2.928   5.720 -0.0068 -0.1970 -0.2445
  190SAPI  H17R21906   5.054   2.907   5.670  1.3792 -1.7428 -2.4519
  190SAPI  H17S21907   5.148   3.035   5.749 -1.6535 -0.1412 -0.5097
  190SAPI  C21821908   5.144   2.842   5.855  0.3209 -0.0036  0.6198
  190SAPI  H18R21909   5.116   2.741   5.817  0.3935  0.6945 -1.3913
  190SAPI  H18S21910   5.061   2.872   5.921 -0.2590 -0.8673  0.3105
  190SAPI  C21921911   5.280   2.844   5.927 -0.2755  0.7771 -0.6898
  190SAPI  H19R21912   5.327   2.944   5.936  0.3926  0.3265  1.5493
  190SAPI  H19S21913   5.341   2.777   5.863 -1.4723 -0.9125 -0.1389
  190SAPI  C22021914   5.277   2.787   6.071 -1.1073  0.1771 -0.2020
  190SAPI  H20R21915   5.376   2.750   6.103 -0.7155  1.0827 -0.3309
  190SAPI  H20S21916   5.201   2.706   6.069  1.5005 -2.4218  0.5702
  190SAPI  H20T21917   5.233   2.866   6.136  0.8675  0.9732  0.2292
  190SAPI   C3321918   6.274   2.980   6.078 -0.8387 -0.3792  0.0411
  190SAPI   H3X21919   6.304   2.923   6.169  1.8208  0.8576  0.0360
  190SAPI   H3Y21920   6.354   3.056   6.067  0.0314 -1.1477  0.9450
  190SAPI   C3421921   6.278   2.883   5.953 -0.0770 -0.9817 -0.2926
  190SAPI   H4X21922   6.235   2.925   5.859  0.9272  1.0023  0.0842
  190SAPI   H4Y21923   6.209   2.797   5.966  2.6685 -3.5061 -1.1782
  190SAPI   C3521924   6.411   2.824   5.914 -0.1572 -0.6314 -0.1446
  190SAPI   H5X21925   6.456   2.792   6.010  0.6169 -1.5746 -0.8035
  190SAPI   H5Y21926   6.477   2.902   5.870 -0.9978 -0.7530 -1.7189
  190SAPI   C3621927   6.393   2.719   5.805 -0.2856 -0.1781 -0.0643
  190SAPI   H6X21928   6.357   2.766   5.711 -1.6722 -2.0327 -0.5183
  190SAPI   H6Y21929   6.313   2.647   5.832 -1.6946  1.3030 -0.1161
  190SAPI   C3721930   6.530   2.648   5.782 -0.0200  0.1149 -0.0771
  190SAPI   H7X21931   6.567   2.599   5.875 -0.2579  0.9082  0.4419
  190SAPI   H7Y21932   6.592   2.731   5.742  2.0949 -1.5272 -0.3966
  190SAPI   C3821933   6.532   2.530   5.686 -0.1197 -0.2074  0.7050
  190SAPI   H8X21934   6.456   2.454   5.714 -0.8030  0.1459 -0.1353
  190SAPI   H8Y21935   6.633   2.483   5.684 -1.0963 -2.5274  2.1743
  190SAPI   C3921936   6.495   2.577   5.543 -0.0786  0.3904  0.5575
  190SAPI   H9X21937   6.560   2.662   5.513 -0.9010  0.1425 -2.1559
  190SAPI   H9Y21938   6.390   2.615   5.544 -0.4470 -0.4157 -1.6309
  190SAPI  C31021939   6.513   2.463   5.453 -0.4083  0.5203  0.2565
  190SAPI  H10X21940   6.460   2.374   5.494 -2.6958  0.4275 -2.6328
  190SAPI  H10Y21941   6.619   2.429   5.450 -0.4393  0.5008 -1.0113
  190SAPI  C31121942   6.461   2.476   5.312  0.2396 -0.1247 -0.1354
  190SAPI  H11X21943   6.536   2.442   5.238 -0.4794 -1.5617 -0.2369
  190SAPI  H11Y21944   6.438   2.583   5.292  1.3701  0.1762  0.1420
  190SAPI  C31221945   6.331   2.402   5.296  0.1295 -0.4561  0.8472
  190SAPI  H12X21946   6.251   2.468   5.337 -0.5438  0.4920 -1.8066
  190SAPI  H12Y21947   6.327   2.311   5.360 -3.8537 -0.1457  1.3110
  190SAPI  C31321948   6.298   2.363   5.152 -0.0909  0.0488 -0.1056
  190SAPI  H13X21949   6.215   2.290   5.162 -0.4491  0.6342  1.5302
  190SAPI  H13Y21950   6.384   2.313   5.103  1.1053 -2.1424  3.7983
  190SAPI  C31421951   6.231   2.468   5.067 -0.3668 -0.6682  0.0633
  190SAPI  H14X21952   6.312   2.543   5.048 -0.3507 -0.4999  0.7533
  190SAPI  H14Y21953   6.146   2.510   5.124  1.2026  1.6098  0.9242
  190SAPI  C31521954   6.193   2.417   4.921  0.0471 -0.4148 -0.1859
  190SAPI  H15X21955   6.105   2.349   4.929 -1.7925  1.7149 -1.1252
  190SAPI  H15Y21956   6.274   2.350   4.888 -0.1339 -1.4732  1.3854
  190SAPI  C31621957   6.169   2.541   4.842  0.4544  0.3771 -0.4914
  190SAPI  H16X21958   6.260   2.594   4.806  1.1286 -0.1637  0.3889
  190SAPI  H16Y21959   6.111   2.606   4.911 -3.3782 -1.8775 -1.2574
  190SAPI  C31721960   6.067   2.522   4.724 -0.2760 -0.2265 -0.0201
  190SAPI  H17X21961   5.974   2.486   4.773 -1.5930  1.0490 -1.4852
  190SAPI  H17Y21962   6.114   2.442   4.663  0.1767 -1.1835  1.5082
  190SAPI  C31821963   6.048   2.639   4.627 -0.6031 -0.0299 -0.5987
  190SAPI  H18X21964   5.993   2.596   4.540  2.3720  0.0807 -2.6750
  190SAPI  H18Y21965   6.144   2.688   4.599 -0.7391  1.0865  0.7962
  190SAPI  H18Z21966   5.996   2.725   4.674 -1.1876 -0.1346 -1.0333
  191SAPI   C1221967   0.505   4.005   2.103 -0.0723 -0.6993 -0.2553
  191SAPI    H221968   0.569   4.086   2.064 -0.0271 -0.1368  0.9361
  191SAPI    O221969   0.371   4.053   2.130  0.3296 -0.4760 -0.1426
  191SAPI   HO221970   0.382   4.104   2.211 -0.5588 -1.6749  0.7671
  191SAPI   C1321971   0.505   3.908   1.993 -0.4607  0.0336 -0.4469
  191SAPI    H321972   0.611   3.887   1.966  0.2927  2.4190  0.4182
  191SAPI    O321973   0.461   3.974   1.876 -0.3001  0.2678 -0.0321
  191SAPI   HO321974   0.388   4.024   1.913 -1.0877 -1.7075  1.2691
  191SAPI   C1421975   0.423   3.783   2.018  0.1706  0.0912  0.2358
  191SAPI    H421976   0.316   3.808   2.002  0.4390  0.0330 -1.8630
  191SAPI    O421977   0.447   3.686   1.917  0.3695 -0.1812  0.0881
  191SAPI   HO421978   0.530   3.642   1.932  0.8427  0.3057 -0.9806
  191SAPI   C1521979   0.434   3.729   2.164 -0.2072  0.4369  0.2363
  191SAPI    H521980   0.524   3.666   2.146 -1.7290 -1.4557 -1.1429
  191SAPI    O521981   0.315   3.656   2.209  0.0438 -0.4816 -0.2940
  191SAPI   HO521982   0.338   3.580   2.264  0.3114 -0.3505 -0.2257
  191SAPI   C1621983   0.484   3.825   2.274 -0.3822 -0.2338 -0.3517
  191SAPI    H621984   0.402   3.881   2.325  2.3033  2.1358  1.6846
  191SAPI    O621985   0.558   3.753   2.371  0.5596 -0.3222 -0.2828
  191SAPI   HO621986   0.553   3.794   2.458  0.4425  0.7198 -0.7720
  191SAPI   C1121987   0.561   3.946   2.226  0.5503  0.0731 -0.1134
  191SAPI    H121988   0.659   3.902   2.198  0.1858 -0.3852 -0.7033
  191SAPI     P21989   0.725   4.122   2.345  0.2843  0.1672  0.2251
  191SAPI   O1321990   0.695   4.245   2.424 -0.5404  0.6817  0.1413
  191SAPI   O1421991   0.807   4.125   2.223  0.3894 -0.0569  0.3176
  191SAPI   O1221992   0.582   4.052   2.327 -0.8554  0.5880  0.5251
  191SAPI   O1121993   0.792   4.011   2.438 -0.0035 -0.5118  0.2767
  191SAPI    C121994   0.891   4.037   2.544  0.0735  0.3261 -0.4240
  191SAPI    HA21995   0.989   3.986   2.536  0.1897  0.4103  0.4100
  191SAPI    HB21996   0.910   4.146   2.552  0.1369  0.3176 -0.4550
  191SAPI    C221997   0.834   3.993   2.680 -0.3624 -0.1703  1.1495
  191SAPI    HS21998   0.852   3.884   2.693  2.7403 -0.4296 -3.0160
  191SAPI   O2121999   0.700   4.029   2.706  0.6735 -0.3800  0.0253
  191SAPI   C2122000   0.603   3.950   2.648  0.1956  0.0962  0.3542
  191SAPI   O2222001   0.617   3.833   2.618 -0.8805  0.3289 -0.0457
  191SAPI   C2222002   0.469   4.023   2.646  0.7529 -0.7883  0.1875
  191SAPI   H2R22003   0.451   4.079   2.740  0.2048 -0.0080 -0.3632
  191SAPI   H2S22004   0.483   4.092   2.559 -2.2193 -0.5145 -0.1828
  191SAPI    C322005   0.930   4.051   2.789  0.7812 -0.5885  0.3798
  191SAPI    HX22006   0.917   4.161   2.792  1.5119 -0.5011  0.5621
  191SAPI    HY22007   1.035   4.029   2.760  1.0647  1.4576 -0.3235
  191SAPI   O3122008   0.913   3.997   2.919  0.2147  0.5619 -0.3349
  191SAPI   C3122009   0.851   4.073   3.003  0.4426  0.4695  0.0417
  191SAPI   O3222010   0.798   4.178   2.983 -0.2321 -0.5285  0.3784
  191SAPI   C3222011   0.848   3.997   3.143  0.1985 -0.5725  0.4628
  191SAPI   H2X22012   0.956   3.989   3.165  0.1685  0.6936  1.1492
  191SAPI   H2Y22013   0.811   3.893   3.127  0.6116 -0.4447 -1.6938
  191SAPI   C2322014   0.348   3.938   2.633  0.2034 -0.2778  0.0669
  191SAPI   H3R22015   0.363   3.868   2.548  0.5305 -1.3745  1.0070
  191SAPI   H3S22016   0.257   3.996   2.607  0.5616  0.5454  0.6081
  191SAPI   C2422017   0.317   3.865   2.762  0.2581  0.8055  0.7767
  191SAPI   H4R22018   0.400   3.802   2.800  0.7275  2.4223  2.6396
  191SAPI   H4S22019   0.239   3.791   2.736  1.1187  0.3230 -0.5175
  191SAPI   C2522020   0.256   3.946   2.870  0.1283 -0.4036 -0.4437
  191SAPI   H5R22021   0.150   3.969   2.853 -0.8597 -4.6534 -1.0732
  191SAPI   C2622022   0.313   3.973   2.991  0.3581  0.5714  0.2906
  191SAPI   H6R22023   0.247   4.033   3.056 -2.7155  0.8075 -2.7937
  191SAPI   C2722024   0.461   3.940   3.019  0.5155  0.3903 -0.4175
  191SAPI   H7R22025   0.498   4.003   3.103  1.8140 -0.7684 -0.0816
  191SAPI   H7S22026   0.526   3.967   2.934 -0.9834  0.1654 -1.6902
  191SAPI   C2822027   0.498   3.792   3.042 -0.7920 -0.7497 -0.3710
  191SAPI   H8R22028   0.547   3.750   2.954 -1.4390 -1.2833 -0.4854
  191SAPI   C2922029   0.481   3.722   3.158  0.1276  0.2892  0.3292
  191SAPI   H9R22030   0.517   3.618   3.164 -0.3528  0.0269 -0.9552
  191SAPI  C21022031   0.411   3.765   3.286 -0.2162  0.2046  0.1625
  191SAPI  H10R22032   0.402   3.875   3.292  0.5642  0.2021  2.7019
  191SAPI  H10S22033   0.469   3.731   3.375 -0.3919 -0.8497 -0.1113
  191SAPI  C21122034   0.273   3.716   3.294  0.8402 -0.1087 -0.3854
  191SAPI  H11R22035   0.219   3.692   3.201 -3.5671 -1.4205  2.1886
  191SAPI  C21222036   0.212   3.689   3.410  0.6719 -0.2313  0.6581
  191SAPI  H12R22037   0.109   3.652   3.397  1.0929 -1.1625 -0.1836
  191SAPI  C21322038   0.262   3.681   3.550 -0.2393  0.3066  0.4123
  191SAPI  H13R22039   0.364   3.638   3.560  0.1100  0.8922 -0.5472
  191SAPI  H13S22040   0.198   3.601   3.593  1.9310 -1.6511  0.2373
  191SAPI  C21422041   0.244   3.813   3.622  0.2243 -0.3250  0.6173
  191SAPI  H14R22042   0.281   3.895   3.560 -2.3753  1.4362  1.2583
  191SAPI  C21522043   0.192   3.829   3.745  0.0225  0.1406  0.3653
  191SAPI  H15R22044   0.186   3.927   3.795  0.4768 -0.0171  0.7341
  191SAPI  C21622045   0.134   3.727   3.834  0.0147 -0.3203 -0.2888
  191SAPI  H16R22046   0.160   3.762   3.936 -0.6990 -1.2189  0.2178
  191SAPI  H16S22047   0.191   3.632   3.822  1.5032  0.5872 -0.5533
  191SAPI  C21722048  -0.018   3.698   3.824  0.1218 -0.2603 -0.4219
  191SAPI  H17R22049  -0.049   3.622   3.749  0.7542  0.1933 -1.1563
  191SAPI  H17S22050  -0.059   3.794   3.787  2.8736  0.4316 -2.0077
  191SAPI  C21822051  -0.070   3.644   3.957  0.2220 -0.2687  0.2872
  191SAPI  H18R22052  -0.037   3.714   4.036  2.5143 -1.2365  0.2671
  191SAPI  H18S22053  -0.023   3.544   3.971 -1.1281 -1.1658 -1.2781
  191SAPI  C21922054  -0.223   3.625   3.960 -0.0018  0.4038  0.4749
  191SAPI  H19R22055  -0.248   3.605   4.066  2.1492 -0.1684  0.9272
  191SAPI  H19S22056  -0.265   3.547   3.893  2.5211  0.4753 -1.3615
  191SAPI  C22022057  -0.288   3.759   3.919 -0.6883  0.1682 -0.3492
  191SAPI  H20R22058  -0.395   3.755   3.947 -0.0125 -2.0065  2.2858
  191SAPI  H20S22059  -0.276   3.765   3.808  1.3814 -1.7143 -0.2955
  191SAPI  H20T22060  -0.226   3.839   3.966  1.8759 -1.7506 -0.2797
  191SAPI   C3322061   0.775   4.081   3.254 -0.5334 -0.7041 -0.3078
  191SAPI   H3X22062   0.738   4.173   3.204  1.6801  1.8032  2.3135
  191SAPI   H3Y22063   0.849   4.123   3.325 -1.1351 -1.2542  0.6648
  191SAPI   C3422064   0.662   4.035   3.337 -0.1636  0.4063 -0.5639
  191SAPI   H4X22065   0.618   3.945   3.289  0.1245  0.8243 -1.6335
  191SAPI   H4Y22066   0.587   4.114   3.357 -0.2877 -0.0162  0.8018
  191SAPI   C3522067   0.711   3.988   3.475  0.7486  0.6911  0.4534
  191SAPI   H5X22068   0.790   4.053   3.518  0.0457  1.9162 -0.0524
  191SAPI   H5Y22069   0.755   3.886   3.466  1.6791  1.1981 -1.0515
  191SAPI   C3622070   0.589   3.980   3.580  0.2045 -0.5777  0.6898
  191SAPI   H6X22071   0.494   3.938   3.541  0.4469 -0.8784  0.4158
  191SAPI   H6Y22072   0.572   4.085   3.611 -0.1218  0.2380 -1.9634
  191SAPI   C3722073   0.634   3.908   3.703  0.3025  0.6153 -0.5713
  191SAPI   H7X22074   0.553   3.919   3.778  1.2496  0.4542  0.4987
  191SAPI   H7Y22075   0.719   3.954   3.759 -0.5568  0.3339  1.0215
  191SAPI   C3822076   0.641   3.753   3.694 -0.8948 -0.9064  0.1916
  191SAPI   H8X22077   0.721   3.722   3.624  0.2011 -1.6052  1.7123
  191SAPI   H8Y22078   0.542   3.716   3.659 -0.5193 -0.5865 -1.2651
  191SAPI   C3922079   0.666   3.691   3.833 -0.0443  0.1442 -0.0088
  191SAPI   H9X22080   0.575   3.711   3.895 -1.0025  0.0626 -1.3546
  191SAPI   H9Y22081   0.750   3.738   3.888  1.3434 -1.9164 -0.2464
  191SAPI  C31022082   0.680   3.538   3.819  0.3072  0.6570 -0.4045
  191SAPI  H10X22083   0.763   3.510   3.752  2.2060  0.5802  1.8358
  191SAPI  H10Y22084   0.586   3.505   3.769  0.9365 -0.0555 -1.1500
  191SAPI  C31122085   0.693   3.470   3.959  0.3746 -0.5511  0.1459
  191SAPI  H11X22086   0.686   3.364   3.927  0.5022  0.1488 -2.3792
  191SAPI  H11Y22087   0.609   3.490   4.029  1.9960 -0.1979  2.0817
  191SAPI  C31222088   0.817   3.496   4.035  0.3454 -0.8909  0.2129
  191SAPI  H12X22089   0.813   3.426   4.121  0.9076 -1.0208  0.1377
  191SAPI  H12Y22090   0.813   3.603   4.068 -3.2132 -0.6171 -0.7894
  191SAPI  C31322091   0.946   3.470   3.963 -0.2093  0.1518 -0.1481
  191SAPI  H13X22092   0.960   3.547   3.885  2.7287  0.1098  0.2329
  191SAPI  H13Y22093   0.935   3.369   3.918 -1.7080 -0.8077  2.1349
  191SAPI  C31422094   1.079   3.456   4.048 -0.1740  0.6230  0.1154
  191SAPI  H14X22095   1.079   3.544   4.116 -0.9971  0.2787  0.5735
  191SAPI  H14Y22096   1.171   3.467   3.986 -1.2343  2.5034 -1.2065
  191SAPI  C31522097   1.095   3.326   4.135 -0.1243  0.0586 -0.8936
  191SAPI  H15X22098   1.007   3.292   4.193  1.0513 -0.5468  0.5927
  191SAPI  H15Y22099   1.178   3.346   4.205 -0.8124 -1.3441  0.3787
  191SAPI  C31622100   1.144   3.212   4.054  0.2438  0.1353 -0.1664
  191SAPI  H16X22101   1.236   3.242   3.999  0.1560 -0.3577 -0.5899
  191SAPI  H16Y22102   1.062   3.198   3.980 -1.2633  3.1268  0.7837
  191SAPI  C31722103   1.186   3.085   4.130 -0.5461 -0.2952 -0.6673
  191SAPI  H17X22104   1.105   3.045   4.195 -1.6387  1.7550 -0.6867
  191SAPI  H17Y22105   1.270   3.115   4.195 -3.1536  1.5909  2.1167
  191SAPI  C31822106   1.221   2.968   4.040  0.3328 -0.2058 -0.5190
  191SAPI  H18X22107   1.269   2.881   4.090 -1.8471  1.2726  4.8628
  191SAPI  H18Y22108   1.291   3.005   3.962  0.8062  0.0292  0.0080
  191SAPI  H18Z22109   1.129   2.938   3.985  0.6879  0.4129 -1.4807
  192SAPI   C1222110   4.526   1.211   2.211 -0.0264 -0.4407 -0.7682
  192SAPI    H222111   4.625   1.186   2.167  0.6512  1.7324 -0.5864
  192SAPI    O222112   4.453   1.262   2.099  0.1140  0.0719 -0.1031
  192SAPI   HO222113   4.473   1.208   2.022 -0.6612 -1.2638  0.6073
  192SAPI   C1322114   4.462   1.081   2.258 -0.9872 -0.5421 -0.6613
  192SAPI    H322115   4.531   1.038   2.333 -0.2857 -0.4004 -1.2083
  192SAPI    O322116   4.463   0.993   2.156 -0.6365  0.4309  0.0033
  192SAPI   HO322117   4.440   0.906   2.189  0.9624 -0.6588 -1.5343
  192SAPI   C1422118   4.331   1.089   2.319  0.1537 -0.3132  0.5144
  192SAPI    H422119   4.265   1.114   2.233 -1.4678 -1.3604  1.3942
  192SAPI    O422120   4.298   0.962   2.374 -0.0731  0.2839  0.2014
  192SAPI   HO422121   4.209   0.944   2.342  0.4285 -2.2651  0.0146
  192SAPI   C1522122   4.309   1.199   2.414  0.1760 -0.3838  0.4098
  192SAPI    H522123   4.352   1.169   2.512  0.0776  1.3247  1.0106
  192SAPI    O522124   4.168   1.231   2.435 -0.0772 -0.6340  0.3398
  192SAPI   HO522125   4.107   1.179   2.382 -0.2038  0.1724 -0.3361
  192SAPI   C1622126   4.381   1.323   2.366 -0.8418  0.2474 -0.0329
  192SAPI    H622127   4.335   1.354   2.270 -0.7171 -0.8894 -0.4716
  192SAPI    O622128   4.368   1.428   2.470  0.5484  0.3437  1.1014
  192SAPI   HO622129   4.424   1.497   2.432  0.1800  0.6312  1.0679
  192SAPI   C1122130   4.530   1.309   2.328  0.3917  0.2922 -0.5113
  192SAPI    H122131   4.576   1.262   2.417 -1.3200 -0.2788  0.0940
  192SAPI     P22132   4.762   1.438   2.302 -0.1481 -0.8852  0.4634
  192SAPI   O1322133   4.810   1.557   2.224  0.2450  0.1370 -0.0832
  192SAPI   O1422134   4.820   1.313   2.254 -0.1975  0.0059 -0.2145
  192SAPI   O1222135   4.593   1.433   2.294 -0.0169 -0.7613 -0.4171
  192SAPI   O1122136   4.784   1.454   2.456  0.2018 -0.4922 -0.0267
  192SAPI    C122137   4.814   1.346   2.541 -0.0609  0.1371  0.3958
  192SAPI    HA22138   4.794   1.247   2.496 -0.7720  0.7428 -0.6650
  192SAPI    HB22139   4.924   1.342   2.556  0.1224  1.8064 -0.2684
  192SAPI    C222140   4.757   1.360   2.680  0.2197 -0.3474  0.0227
  192SAPI    HS22141   4.651   1.387   2.662  0.2701 -0.4860 -0.4808
  192SAPI   O2122142   4.837   1.460   2.750 -0.0220 -0.0448 -0.2334
  192SAPI   C2122143   4.764   1.534   2.836  0.2383  0.4062  0.3621
  192SAPI   O2222144   4.650   1.511   2.868  0.5756  0.1369  0.2557
  192SAPI   C2222145   4.849   1.641   2.913  0.2767 -0.3678  0.1905
  192SAPI   H2R22146   4.854   1.739   2.860  0.0207  0.4270  1.6043
  192SAPI   H2S22147   4.800   1.666   3.009  1.8734  4.0871  0.0896
  192SAPI    C322148   4.757   1.229   2.763 -0.2367  0.6760 -0.2583
  192SAPI    HX22149   4.725   1.151   2.692 -0.3784  1.7806 -1.4479
  192SAPI    HY22150   4.682   1.241   2.845  0.0433 -1.1547  0.3032
  192SAPI   O3122151   4.888   1.180   2.816 -0.2611  0.6534 -0.4697
  192SAPI   C3122152   4.885   1.054   2.870 -0.6838  0.1645 -0.3764
  192SAPI   O3222153   4.791   0.980   2.876  0.7240  0.2907  0.5640
  192SAPI   C3222154   5.030   1.006   2.900  0.3064 -1.1321  0.1532
  192SAPI   H2X22155   5.102   1.089   2.887 -0.1863 -0.8121 -0.6100
  192SAPI   H2Y22156   5.046   0.925   2.825  0.9869 -1.0368  0.1916
  192SAPI   C2322157   4.996   1.605   2.930  0.0625 -0.3681  0.0508
  192SAPI   H3R22158   5.042   1.691   2.984  2.2815 -0.2868 -1.8068
  192SAPI   H3S22159   5.045   1.591   2.832 -3.9925 -0.4289 -2.1644
  192SAPI   C2422160   5.004   1.484   3.028 -0.7803  0.2830  0.4062
  192SAPI   H4R22161   4.956   1.403   2.970  0.1697  0.4323 -0.6268
  192SAPI   H4S22162   4.938   1.509   3.114 -1.1770  0.0905  0.1601
  192SAPI   C2522163   5.148   1.457   3.067  0.0078 -0.4626 -0.6805
  192SAPI   H5R22164   5.214   1.455   2.978 -3.4249 -0.9362 -3.4098
  192SAPI   C2622165   5.202   1.454   3.193 -0.0980  0.5397 -0.2495
  192SAPI   H6R22166   5.311   1.453   3.208 -0.3025  1.4515  1.5652
  192SAPI   C2722167   5.121   1.466   3.322 -0.3788 -0.2510 -0.5447
  192SAPI   H7R22168   5.173   1.408   3.400 -1.0416 -0.6139 -0.3678
  192SAPI   H7S22169   5.014   1.441   3.305 -0.0173 -0.3419 -3.2172
  192SAPI   C2822170   5.120   1.612   3.360 -0.0303 -0.5834  0.2494
  192SAPI   H8R22171   5.147   1.676   3.275 -2.0694 -1.2841 -1.0268
  192SAPI   C2922172   5.090   1.671   3.482 -0.2809  1.1006  1.2288
  192SAPI   H9R22173   5.107   1.779   3.493  0.0100  1.1604  0.2496
  192SAPI  C21022174   5.047   1.596   3.603 -0.2499  0.1566 -0.2637
  192SAPI  H10R22175   5.051   1.486   3.589  0.3405  0.0283  0.7968
  192SAPI  H10S22176   4.943   1.628   3.624 -0.6425 -0.4789 -1.2015
  192SAPI  C21122177   5.147   1.623   3.716  0.2346 -0.0540 -0.1417
  192SAPI  H11R22178   5.251   1.607   3.687 -0.0628 -0.1921 -1.1696
  192SAPI  C21222179   5.111   1.660   3.840  0.4124 -0.1291 -0.1105
  192SAPI  H12R22180   5.191   1.674   3.913  0.2296  0.0899  0.0502
  192SAPI  C21322181   4.974   1.687   3.893  0.3233 -0.0251  0.3204
  192SAPI  H13R22182   4.907   1.598   3.889 -0.9648  0.8519  1.4207
  192SAPI  H13S22183   4.912   1.751   3.826  2.9634  1.3019 -1.0190
  192SAPI  C21422184   4.995   1.735   4.028 -0.3038  0.9346 -0.0288
  192SAPI  H14R22185   4.999   1.844   4.042 -0.4223  0.8889  0.3790
  192SAPI  C21522186   4.997   1.657   4.143 -0.2654  0.5882  0.3247
  192SAPI  H15R22187   4.984   1.701   4.243  0.1207  1.4220  0.0190
  192SAPI  C21622188   5.001   1.503   4.143  0.2870 -0.4810 -0.3540
  192SAPI  H16R22189   5.105   1.465   4.153 -0.1139 -2.9805 -3.7889
  192SAPI  H16S22190   4.971   1.468   4.042  1.2498  0.7898 -1.1221
  192SAPI  C21722191   4.917   1.436   4.261 -0.5665 -0.4387  0.1054
  192SAPI  H17R22192   4.904   1.329   4.238  1.9306 -0.9198  0.6169
  192SAPI  H17S22193   4.814   1.475   4.248  0.2015  1.8679  0.3086
  192SAPI  C21822194   4.963   1.466   4.400  0.1851 -0.0409 -0.4982
  192SAPI  H18R22195   4.878   1.457   4.471  0.9025 -0.0503  0.3765
  192SAPI  H18S22196   5.003   1.570   4.407  4.7035 -1.6348  0.6920
  192SAPI  C21922197   5.070   1.367   4.455  0.3490 -0.1060  0.2491
  192SAPI  H19R22198   5.096   1.398   4.558  0.9141  0.8299 -0.1553
  192SAPI  H19S22199   5.157   1.376   4.387  0.3286 -0.1821  0.2130
  192SAPI  C22022200   5.023   1.222   4.460  0.4086  0.0312 -0.4034
  192SAPI  H20R22201   4.939   1.206   4.531  1.6677 -0.9240  0.9434
  192SAPI  H20S22202   5.113   1.165   4.492 -0.2553 -0.6201  0.3576
  192SAPI  H20T22203   4.991   1.180   4.362 -1.8570 -1.5276  0.9053
  192SAPI   C3322204   5.043   0.930   3.031 -0.1242 -0.5401 -0.2287
  192SAPI   H3X22205   5.146   0.894   3.053  0.5845 -0.2133 -2.7608
  192SAPI   H3Y22206   4.970   0.847   3.036  0.7093 -1.2466  2.9439
  192SAPI   C3422207   5.011   1.026   3.154 -0.4945  0.7381  0.1643
  192SAPI   H4X22208   4.911   1.073   3.141  0.0619  2.0842  0.5472
  192SAPI   H4Y22209   5.084   1.108   3.140 -1.3611  1.3543 -0.8663
  192SAPI   C3522210   5.021   0.970   3.294  0.3716  0.8035  0.3537
  192SAPI   H5X22211   5.089   0.882   3.298 -0.8024 -0.0598  2.9457
  192SAPI   H5Y22212   4.917   0.937   3.315  0.9017 -0.4770  1.0687
  192SAPI   C3622213   5.080   1.070   3.390  0.2220  0.2310 -0.2568
  192SAPI   H6X22214   5.020   1.164   3.381  3.2434  2.5061  1.4997
  192SAPI   H6Y22215   5.184   1.097   3.363  1.4415 -0.7938  3.0366
  192SAPI   C3722216   5.073   1.023   3.537 -0.7385 -0.0921 -0.3633
  192SAPI   H7X22217   5.135   0.931   3.537  0.7817  0.8363  2.0247
  192SAPI   H7Y22218   4.969   0.997   3.568 -0.7861  0.1592 -0.3118
  192SAPI   C3822219   5.134   1.128   3.631  0.2694 -0.2731  0.5096
  192SAPI   H8X22220   5.083   1.226   3.620  1.7347  0.5752  1.0237
  192SAPI   H8Y22221   5.234   1.154   3.592  0.1103  0.2548  0.4403
  192SAPI   C3922222   5.131   1.082   3.776  0.0397  0.9070 -0.2757
  192SAPI   H9X22223   5.202   0.997   3.787  0.3581  1.3242  1.2296
  192SAPI   H9Y22224   5.031   1.043   3.803  1.0547 -1.9312 -0.2606
  192SAPI  C31022225   5.185   1.189   3.870 -0.7339 -0.2155  1.0857
  192SAPI  H10X22226   5.134   1.286   3.854  0.4041  0.1403 -0.7135
  192SAPI  H10Y22227   5.292   1.215   3.852 -0.8730 -0.8299 -0.7365
  192SAPI  C31122228   5.186   1.142   4.015 -0.3057 -0.4194 -0.0782
  192SAPI  H11X22229   5.118   1.057   4.034 -1.4264  1.0243  3.0604
  192SAPI  H11Y22230   5.144   1.226   4.074  1.4780  1.6822 -1.6387
  192SAPI  C31222231   5.322   1.113   4.080 -0.0719 -0.2545 -0.1009
  192SAPI  H12X22232   5.390   1.197   4.057  1.7974 -0.6192  3.3770
  192SAPI  H12Y22233   5.365   1.021   4.035 -1.2707 -0.1769 -1.4804
  192SAPI  C31322234   5.321   1.093   4.229 -0.5839 -0.2450 -0.5134
  192SAPI  H13X22235   5.255   1.006   4.248 -1.2292  0.1922 -0.7033
  192SAPI  H13Y22236   5.283   1.188   4.273  0.9073 -0.2827  0.9384
  192SAPI  C31422237   5.464   1.057   4.275  0.0451 -0.0607 -0.2507
  192SAPI  H14X22238   5.535   1.138   4.249 -0.3968  0.3142 -0.3193
  192SAPI  H14Y22239   5.511   0.967   4.231  1.5479 -0.8737  2.7525
  192SAPI  C31522240   5.493   1.043   4.428  0.4395  0.4838 -0.2314
  192SAPI  H15X22241   5.601   1.019   4.444  0.4020  0.1351 -0.4859
  192SAPI  H15Y22242   5.429   0.964   4.473 -1.8778  1.9618 -0.7517
  192SAPI  C31622243   5.465   1.180   4.491  0.0819  0.1701 -0.9439
  192SAPI  H16X22244   5.357   1.201   4.483  0.2677  1.0333 -1.3236
  192SAPI  H16Y22245   5.510   1.264   4.434  1.2685 -0.5803 -1.1500
  192SAPI  C31722246   5.508   1.180   4.640 -0.7668  0.1119  0.4349
  192SAPI  H17X22247   5.510   1.282   4.686 -0.3334  1.1422 -1.7384
  192SAPI  H17Y22248   5.616   1.156   4.650 -0.3859  1.2819 -0.5701
  192SAPI  C31822249   5.430   1.095   4.735  0.3147 -0.6366  0.0615
  192SAPI  H18X22250   5.437   0.985   4.717 -1.6873 -0.6033 -1.2044
  192SAPI  H18Y22251   5.325   1.126   4.717  0.0247 -2.1760 -1.0977
  192SAPI  H18Z22252   5.462   1.117   4.839 -0.4132 -0.7366  0.3073
  193SOD    SOD22253   6.407   5.964   8.703  0.3502  0.3008 -0.5291
  194SOD    SOD22254   3.721   3.802   8.184  0.1650  0.4638  0.1367
  195SOD    SOD22255   2.762   6.761   8.234  0.0668  0.5210  0.6589
  196SOD    SOD22256   4.291   0.775   7.804 -0.1862 -0.1376 -0.9011
  197SOD    SOD22257   3.470   3.604   7.780 -0.1166 -0.4101 -0.4903
  198SOD    SOD22258   4.255   6.047   6.766 -0.1079  0.3012 -0.3138
  199SOD    SOD22259   0.681   4.943   1.255 -0.0804 -0.1881 -0.3046
  200SOD    SOD22260   4.985   3.111   2.460  0.0318  0.2277 -0.0013
  201SOD    SOD22261   2.490   3.170   7.843  0.3323 -0.7448 -0.4218
  202SOD    SOD22262   4.204   4.130   2.311  0.0791  0.1606  0.3830
  203SOD    SOD22263   5.014   4.254   0.211 -0.3687  0.1707 -0.1183
  204SOD    SOD22264   1.920   6.784   7.361 -0.1589  0.4007 -0.0769
  205SOD    SOD22265   0.221   2.210   7.593 -0.3793 -0.0389  0.0030
  206SOD    SOD22266   4.874   6.715   8.227  0.2410 -0.3085  0.2796
  207SOD    SOD22267   2.113   2.338   1.765 -0.0717 -0.1778 -0.5202
  208SOD    SOD22268   2.130   2.062   6.680 -0.0974  0.4299  0.5169
  209SOD    SOD22269   5.498   3.086   6.773 -0.1716 -0.2858 -0.3740
  210SOD    SOD22270   1.959   4.758   6.673 -0.0525  0.1051  0.0364
  211SOD    SOD22271   6.107   2.034   2.844 -0.2618 -0.5138  0.0794
  212SOD    SOD22272   4.187   0.849   7.354  0.1239 -0.0471  0.2752
  213SOD    SOD22273   1.172   0.180   0.953 -0.0331  0.4269 -0.0815
  214SOD    SOD22274   5.989   4.913   8.508  0.0372 -0.2393  0.4140
  215SOD    SOD22275   0.067   5.252   1.370  0.1471 -0.5889 -0.0794
  216SOD    SOD22276   1.653   3.101   0.672 -0.0908 -0.3104  0.3159
  217SOD    SOD22277   0.399   2.685   0.623  0.4839 -0.3790  0.0744
  218SOD    SOD22278   0.842   0.671   0.286 -0.5997  0.2909  0.2298
  219SOD    SOD22279   1.981   3.279   1.092 -0.0792 -0.3261  0.2519
  220SOD    SOD22280   4.527   0.828   0.273  0.1252  0.0114 -0.1443
  221SOD    SOD22281   3.548   1.383   1.829  0.6721  0.0077 -0.6542
  222SOD    SOD22282   1.699   5.015   7.043 -0.4214 -0.0434 -0.0775
  223SOD    SOD22283   5.712   1.467   1.833 -0.6339  0.3675  0.2891
  224SOD    SOD22284   6.754   0.784   0.310  0.0190  0.0136 -0.3683
  225SOD    SOD22285   5.121   1.404   0.364 -0.1698 -0.6007 -0.7933
  226SOD    SOD22286   4.853   0.614   8.084  0.7040 -0.6780  0.3026
  227SOD    SOD22287   1.241   5.439   2.328 -0.2750 -0.4513 -0.1242
  228SOD    SOD22288   4.931   2.985   8.520  0.0705 -0.4274 -0.0518
  229SOD    SOD22289   5.488   6.109   8.426 -0.8031 -0.3925 -0.5335
  230SOD    SOD22290   0.418   6.084   8.392  0.4929  0.0580  0.1949
  231SOD    SOD22291   4.187   0.371   2.732  0.2530  0.5426  0.2308
  232SOD    SOD22292   3.768   1.910   1.747 -0.2968  0.0611 -0.3228
  233SOD    SOD22293   6.116   2.039   7.371 -0.4457 -0.2856  0.2185
  234CLA    CLA22294   0.458   2.214   0.082  0.3037  0.1045  0.1777
  235CLA    CLA22295   4.973   1.996   7.533 -0.0432 -0.5499  0.1250
  236CLA    CLA22296   6.110   1.970   0.283  0.2325 -0.0977 -0.0611
  237CLA    CLA22297   6.778   0.038   0.259  0.0188  0.2098  0.4139
  238CLA    CLA22298   3.390   3.288   0.222 -0.3172  0.4453 -0.1060
  239CLA    CLA22299   3.780   0.572   1.093 -0.1040  0.3474 -0.2444
  240CLA    CLA22300   6.482   6.782   8.678 -0.0561  0.2255  0.0660
  241CLA    CLA22301   3.617   2.454   1.054  0.2315 -0.1465  0.0730
  242CLA    CLA22302   5.353   0.397   0.719  0.4504  0.1743  0.4301
  243CLA    CLA22303   2.900   5.642   7.489 -0.2303  0.2666  0.0820
  244CLA    CLA22304   4.218   5.447   0.005 -0.0515 -0.3880 -0.1786
  245CLA    CLA22305   3.615   3.317   1.139 -0.0694 -0.4326 -0.2202
  246CLA    CLA22306   1.707   0.867   0.053  0.1716  0.3441 -0.0988
  247CLA    CLA22307   4.416   0.866   1.278  0.0844  0.0322 -0.1997
  248CLA    CLA22308   2.761   4.491   0.112  0.5392 -0.0680  0.0702
  249CLA    CLA22309   6.235   4.700   0.221  0.3053  0.0824  0.0900
  250CLA    CLA22310   4.254   0.975   8.469  0.1597 -0.0511 -0.0962
  251TIP3   OH222311   4.914   0.708   2.586 -0.2789  0.5003 -0.1444
  251TIP3    H122312   4.984   0.716   2.650  1.0631 -0.2013 -1.4690
  251TIP3    H222313   4.850   0.775   2.612  0.2417  0.2905  1.8433
  252TIP3   OH222314   4.816   5.531   7.282  0.1791 -0.2274 -0.0213
  252TIP3    H122315   4.734   5.563   7.244  0.8169  1.8784  0.2278
  252TIP3    H222316   4.792   5.449   7.326 -1.8045  0.3564  0.0830
  253TIP3   OH222317   1.654   1.349   0.717 -0.4614 -0.2402  0.5660
  253TIP3    H122318   1.597   1.420   0.685  0.0060  0.2323  0.7632
  253TIP3    H222319   1.612   1.269   0.687 -0.9846  0.1245  0.3107
  254TIP3   OH222320   2.020   6.053   1.927 -0.0766  0.5866 -0.2055
  254TIP3    H122321   2.023   6.149   1.920  0.8759  0.8356  2.5555
  254TIP3    H222322   2.089   6.023   1.868  0.3159  1.6558 -0.3120
  255TIP3   OH222323   1.106   1.397   2.823  0.0939  0.2445  0.8849
  255TIP3    H122324   1.038   1.379   2.758 -1.3056 -2.3955  2.8758
  255TIP3    H222325   1.171   1.449   2.776 -1.0464 -1.0868 -2.4631
  256TIP3   OH222326   4.081   0.859   7.138  0.8411 -0.0059  0.9063
  256TIP3    H122327   4.066   0.771   7.103 -1.4238  0.2882  0.9878
  256TIP3    H222328   4.135   0.903   7.072  0.5046 -0.9045  0.0178
  257TIP3   OH222329   3.294   1.012   6.966  0.4143 -0.7510 -0.5151
  257TIP3    H122330   3.384   1.037   6.944  0.2531 -1.1610 -1.7191
  257TIP3    H222331   3.240   1.060   6.903 -0.3535  0.6852  1.1387
  258TIP3   OH222332   4.348   4.270   3.184  0.2909  0.1760  0.1465
  258TIP3    H122333   4.299   4.299   3.107  0.7569  0.0688 -0.1955
  258TIP3    H222334   4.346   4.174   3.180  1.2152  0.1669 -0.3203
  259TIP3   OH222335   5.006   4.907   8.049 -0.7609 -0.2967  0.3241
  259TIP3    H122336   4.916   4.899   8.083 -1.3670  0.8517 -0.9222
  259TIP3    H222337   5.061   4.872   8.119 -2.0406  0.7215  1.9236
  260TIP3   OH222338   3.721   0.531   7.491 -0.2183 -0.3692 -0.1557
  260TIP3    H122339   3.765   0.477   7.556  2.5637  0.9148 -0.8481
  260TIP3    H222340   3.744   0.491   7.407  1.3569  1.4287 -0.6381
  261TIP3   OH222341   0.243   5.831   2.774 -0.1302  0.4036 -0.0923
  261TIP3    H122342   0.293   5.877   2.707  0.0301 -1.5711 -1.4380
  261TIP3    H222343   0.299   5.758   2.801 -1.6778 -1.1034 -0.7007
  262TIP3   OH222344   0.604   4.254   7.879  0.1891  0.1394  0.0408
  262TIP3    H122345   0.620   4.244   7.973  1.3534  0.9389 -0.0402
  262TIP3    H222346   0.509   4.262   7.871 -0.0550 -1.3892  0.9779
  263TIP3   OH222347   5.465   1.939   8.200 -0.7430  0.2854 -0.3037
  263TIP3    H122348   5.453   2.017   8.145 -1.0425  0.5101  0.0681
  263TIP3    H222349   5.471   1.866   8.138  1.7059  0.8243 -0.7844
  264TIP3   OH222350   6.821   6.487   7.874  0.2417  0.2740 -0.4784
  264TIP3    H122351   6.833   6.582   7.874 -0.1257  0.3457  1.1093
  264TIP3    H222352   6.730   6.474   7.899  0.6383 -0.4944  0.6588
  265TIP3   OH222353   5.432   5.570   1.055  0.0420 -0.2499 -0.4968
  265TIP3    H122354   5.496   5.540   0.990  1.4540  0.0131  0.7147
  265TIP3    H222355   5.403   5.655   1.023  1.0870  0.0978 -0.5568
  266TIP3   OH222356   1.798   5.862   1.335  0.0011  0.5848  0.3443
  266TIP3    H122357   1.727   5.893   1.280  0.2499  1.4373  0.4849
  266TIP3    H222358   1.872   5.919   1.312 -0.0919  1.4698  2.0830
  267TIP3   OH222359   0.698   3.843   0.758  0.2248  0.2665 -0.1570
  267TIP3    H122360   0.620   3.856   0.812  0.6908 -0.4767  0.7360
  267TIP3    H222361   0.759   3.910   0.788  0.3365  0.1164 -0.0494
  268TIP3   OH222362   6.626   3.140   1.086  0.4183  0.0117 -0.2596
  268TIP3    H122363   6.606   3.092   1.005 -0.2635 -2.2783  1.1540
  268TIP3    H222364   6.657   3.072   1.146 -0.7785  1.2970  1.9518
  269TIP3   OH222365   5.544   5.076   1.822 -0.1479 -0.1552  0.6915
  269TIP3    H122366   5.565   5.160   1.781  0.3102 -0.3501  0.5263
  269TIP3    H222367   5.479   5.098   1.888  1.2814  0.6089  1.8890
  270TIP3   OH222368   1.580   2.599   0.728 -0.6905  0.2583  0.3479
  270TIP3    H122369   1.651   2.641   0.776 -0.2138 -0.1694  0.0273
  270TIP3    H222370   1.617   2.581   0.642 -1.0509 -0.3477  0.3175
  271TIP3   OH222371   4.003   5.843   7.489  0.2555 -0.3620 -0.0776
  271TIP3    H122372   4.045   5.858   7.404  1.7212  2.5272  1.0599
  271TIP3    H222373   4.038   5.758   7.518  1.7864 -0.1677 -1.2142
  272TIP3   OH222374   4.461   6.402   6.954 -0.1002  0.8792 -0.2030
  272TIP3    H122375   4.547   6.404   6.995  0.1368 -0.3224 -0.6009
  272TIP3    H222376   4.402   6.436   7.021  0.5235  0.6185  0.5004
  273TIP3   OH222377   3.836   4.041   7.314 -0.2576  0.1757 -0.1065
  273TIP3    H122378   3.899   4.025   7.243 -0.8537 -0.8861 -0.4252
  273TIP3    H222379   3.890   4.046   7.392  0.3465  0.6015 -0.5431
  274TIP3   OH222380   5.438   3.383   2.615  0.0756  0.0328  0.1028
  274TIP3    H122381   5.476   3.300   2.641 -0.0660 -0.1075 -0.1313
  274TIP3    H222382   5.423   3.374   2.521 -2.4924 -0.7097  0.5136
  275TIP3   OH222383   4.709   6.574   8.113  0.3649 -0.3234 -0.9839
  275TIP3    H122384   4.657   6.611   8.042 -0.9847 -0.4177 -0.0695
  275TIP3    H222385   4.687   6.481   8.115 -0.3752 -0.1432  0.1741
  276TIP3   OH222386   4.062   2.600   7.807 -0.2730 -0.2193 -0.0211
  276TIP3    H122387   4.115   2.672   7.775 -0.9333 -0.7806 -2.5906
  276TIP3    H222388   4.102   2.575   7.890  0.5816  2.3900  0.4222
  277TIP3   OH222389   2.870   2.078   7.801 -0.2848  0.7303 -0.3017
  277TIP3    H122390   2.944   2.137   7.786 -0.6787  0.6787 -3.0741
  277TIP3    H222391   2.800   2.134   7.834  0.4176  1.1135  0.5804
  278TIP3   OH222392   6.138   0.059   1.173  0.0513 -0.1853  0.0262
  278TIP3    H122393   6.176   0.129   1.121 -0.0547  1.7864  2.4005
  278TIP3    H222394   6.169  -0.022   1.132  4.3950  1.2192  0.0288
  279TIP3   OH222395   0.079   2.375   8.003 -0.1587 -0.1999  0.2137
  279TIP3    H122396   0.055   2.462   8.036 -0.9237 -0.7216  1.0878
  279TIP3    H222397   0.155   2.349   8.054 -0.1207 -0.1749  0.1695
  280TIP3   OH222398   1.807   3.846   7.119  0.2342  0.0238  0.4459
  280TIP3    H122399   1.719   3.842   7.080  0.1089  1.4414  0.5471
  280TIP3    H222400   1.805   3.924   7.173  1.2077 -0.5701  1.3652
  281TIP3   OH222401   5.416   2.374   8.163  0.2796 -0.5877 -0.6109
  281TIP3    H122402   5.415   2.430   8.085  1.9569 -0.3676 -0.4968
  281TIP3    H222403   5.345   2.312   8.148 -0.0751  0.0794 -1.8408
  282TIP3   OH222404   4.896   6.015   1.009  0.2646 -0.3727 -0.3320
  282TIP3    H122405   4.961   6.059   0.955  0.3043 -0.2889 -0.2163
  282TIP3    H222406   4.841   5.968   0.947  1.9002 -2.4694 -0.3147
  283TIP3   OH222407   3.825   6.415   1.827 -0.3168 -0.7198 -0.2406
  283TIP3    H122408   3.755   6.362   1.787  1.1311 -2.1594 -0.9618
  283TIP3    H222409   3.842   6.373   1.911  0.8681 -1.4616 -0.8341
  284TIP3   OH222410   1.669   2.635   6.486 -0.1528 -0.6946 -0.3067
  284TIP3    H122411   1.753   2.618   6.530 -0.6598  0.7129  1.3438
  284TIP3    H222412   1.686   2.616   6.394  2.2371  0.2701 -0.1574
  285TIP3   OH222413   0.304   6.767   1.451 -0.1196  0.2741  0.0889
  285TIP3    H122414   0.267   6.693   1.403  2.1391 -0.3497 -0.8600
  285TIP3    H222415   0.234   6.797   1.508 -1.4696 -1.8757 -0.3364
  286TIP3   OH222416   2.227   5.113   6.795 -0.6309  0.2545  0.1799
  286TIP3    H122417   2.315   5.093   6.829 -0.8932 -1.0317  0.1639
  286TIP3    H222418   2.205   5.198   6.832  1.2108  1.3120 -0.9812
  287TIP3   OH222419   4.885   6.840   2.184 -0.0914 -0.4770 -0.4070
  287TIP3    H122420   4.878   6.757   2.232  0.1953 -1.2078 -1.5769
  287TIP3    H222421   4.920   6.902   2.248  0.1638 -1.3847  0.3595
  288TIP3   OH222422   3.188   4.933   7.182  0.3795 -0.4587  0.0216
  288TIP3    H122423   3.156   4.843   7.174 -0.8675 -0.5017  3.8758
  288TIP3    H222424   3.110   4.987   7.174  0.6552  0.0647  0.7976
  289TIP3   OH222425   4.845   2.752   0.794  0.3286 -0.0215  0.0052
  289TIP3    H122426   4.829   2.704   0.875  0.8448 -0.0716  0.0839
  289TIP3    H222427   4.811   2.840   0.811  0.1349 -0.1248  0.1547
  290TIP3   OH222428   6.666   3.250   0.429  0.7512 -0.6011 -0.1752
  290TIP3    H122429   6.597   3.201   0.384  1.8827 -1.6232 -0.8346
  290TIP3    H222430   6.631   3.339   0.435 -0.0286 -0.7499 -1.8345
  291TIP3   OH222431   2.455   3.538   0.534  0.2143  0.0915  0.2810
  291TIP3    H122432   2.435   3.566   0.623  0.7704  0.9024  0.1601
  291TIP3    H222433   2.370   3.528   0.491 -0.0121  1.3424  0.4114
  292TIP3   OH222434   5.575   2.982   1.881  0.3181 -0.1504 -1.1098
  292TIP3    H122435   5.484   2.953   1.869  0.3487 -0.5678 -0.4186
  292TIP3    H222436   5.568   3.077   1.894  0.0418 -0.0925 -1.6656
  293TIP3   OH222437   3.521   0.204   2.524  0.2014  0.2724 -0.7077
  293TIP3    H122438   3.576   0.282   2.516 -0.2375  0.5534 -1.0194
  293TIP3    H222439   3.555   0.144   2.458  0.1461  0.4413 -0.8917
  294TIP3   OH222440   2.709   0.144   8.469 -0.4453 -0.2068 -0.3916
  294TIP3    H122441   2.721   0.115   8.560 -3.2780 -1.0238 -0.1604
  294TIP3    H222442   2.673   0.068   8.425 -0.2795  0.5599 -1.9025
  295TIP3   OH222443   6.118   4.777   7.440  1.0276 -0.0726  0.1103
  295TIP3    H122444   6.113   4.866   7.404 -0.0089  0.6047  1.8034
  295TIP3    H222445   6.028   4.744   7.434  0.8677 -0.0304  1.7438
  296TIP3   OH222446   3.023   0.940   1.744 -0.2631 -0.3404  0.2796
  296TIP3    H122447   3.086   0.873   1.718  0.2498  0.9916 -2.2413
  296TIP3    H222448   2.938   0.898   1.733  0.0607 -0.7690 -0.6817
  297TIP3   OH222449   6.512   3.672   0.744  1.0388  0.8209  0.0442
  297TIP3    H122450   6.533   3.742   0.683 -1.5484 -0.6484 -2.8450
  297TIP3    H222451   6.592   3.620   0.750  1.7204  1.6778 -1.1608
  298TIP3   OH222452   6.128   2.184   7.543 -0.1272  0.1445 -0.3057
  298TIP3    H122453   6.086   2.255   7.592 -1.2916  1.3040 -2.7808
  298TIP3    H222454   6.221   2.203   7.547 -0.2952  0.8343  0.5091
  299TIP3   OH222455   3.107   6.792   7.826  0.2744  0.0726  0.3141
  299TIP3    H122456   3.163   6.715   7.828 -0.9095 -0.9427 -2.1662
  299TIP3    H222457   3.018   6.758   7.828 -0.3149  1.1800 -2.1802
  300TIP3   OH222458   0.024   6.170   0.154 -0.4375 -0.0607 -0.2826
  300TIP3    H122459   0.051   6.258   0.130  0.3471  0.0394  0.8899
  300TIP3    H222460  -0.047   6.182   0.217  0.9767 -0.1822  1.4122
  301TIP3   OH222461   4.552   2.613   0.823 -0.5762 -0.5242  0.3617
  301TIP3    H122462   4.478   2.620   0.762  0.8127 -0.8269 -1.4533
  301TIP3    H222463   4.570   2.703   0.849 -1.1738 -0.3867  0.3146
  302TIP3   OH222464   3.999   5.989   8.348 -0.0784  0.3235  0.6065
  302TIP3    H122465   4.077   5.961   8.300  1.8700  3.4190  1.6348
  302TIP3    H222466   3.940   5.914   8.343  1.8177 -1.2021 -2.5749
  303TIP3   OH222467   3.681   6.766   1.904 -0.0351 -0.2847  0.3374
  303TIP3    H122468   3.594   6.804   1.898 -0.1714 -0.8190 -1.4877
  303TIP3    H222469   3.729   6.804   1.830  0.4028 -2.1445 -0.3983
  304TIP3   OH222470   3.443   0.340   8.185 -0.4791  0.4224 -0.0245
  304TIP3    H122471   3.348   0.347   8.188 -0.5986 -0.3064 -1.3550
  304TIP3    H222472   3.466   0.367   8.096  0.5577  0.5827  0.2846
  305TIP3   OH222473   5.087   0.598   1.669  0.1400  0.2585  0.3755
  305TIP3    H122474   5.145   0.630   1.600 -1.3894 -0.3557 -1.2767
  305TIP3    H222475   5.089   0.503   1.660  0.2555  0.1318  1.5076
  306TIP3   OH222476   6.138   0.706   0.158  0.0287  0.1943 -0.0064
  306TIP3    H122477   6.115   0.751   0.077  2.5612  0.7195 -0.5215
  306TIP3    H222478   6.054   0.674   0.193 -1.1622  0.1583 -2.6730
  307TIP3   OH222479   0.524   1.373   0.808  0.3526 -0.3383 -0.0684
  307TIP3    H122480   0.515   1.372   0.904  0.3682 -0.7207 -0.0698
  307TIP3    H222481   0.462   1.441   0.779  0.8102  0.2298  0.2560
  308TIP3   OH222482   0.992   0.120   0.086  0.1247 -0.1609 -0.1870
  308TIP3    H122483   0.922   0.120   0.020  1.1812 -0.9135 -1.3494
  308TIP3    H222484   0.946   0.108   0.169 -1.0917 -1.7444 -1.0155
  309TIP3   OH222485   0.552   4.425   0.379  0.4765  0.1224 -0.1346
  309TIP3    H122486   0.588   4.355   0.433  1.2960  1.8966  1.7547
  309TIP3    H222487   0.459   4.403   0.370  1.1332 -2.4713 -1.7635
  310TIP3   OH222488   6.433   2.090   8.391  0.4130  0.3617 -1.0270
  310TIP3    H122489   6.367   2.021   8.398 -1.5967  2.2473 -0.2155
  310TIP3    H222490   6.392   2.156   8.336  2.8938  0.3112 -3.0611
  311TIP3   OH222491   1.200   0.862   7.133  0.5571  0.5029 -0.4717
  311TIP3    H122492   1.173   0.913   7.057  3.8869  2.8187 -0.3058
  311TIP3    H222493   1.174   0.772   7.112 -2.1979  1.6319 -2.4688
  312TIP3   OH222494   1.163   1.126   2.241  0.1256  0.0757 -0.0043
  312TIP3    H122495   1.103   1.180   2.292  2.1991  2.1071  0.4821
  312TIP3    H222496   1.133   1.137   2.150 -0.4983  0.7091  0.2664
  313TIP3   OH222497   3.808   2.058   0.783  0.5753  0.0494  0.2993
  313TIP3    H122498   3.868   2.025   0.717 -1.2422  0.0037 -1.4414
  313TIP3    H222499   3.848   2.140   0.814  2.6607 -1.1681  1.0280
  314TIP3   OH222500   6.838   1.720   6.500 -0.0919 -0.0138  0.1024
  314TIP3    H122501   6.900   1.775   6.548  2.0285 -0.7368 -1.6569
  314TIP3    H222502   6.835   1.638   6.549 -0.7341  0.4967  0.9345
  315TIP3   OH222503   3.921   6.522   8.536 -0.0199 -0.0556  0.2987
  315TIP3    H122504   3.965   6.521   8.622  2.6826  0.4274 -0.9597
  315TIP3    H222505   3.899   6.614   8.522  2.2195  0.3826 -0.7031
  316TIP3   OH222506   2.360   2.060   0.663 -0.5319 -0.5083  0.5941
  316TIP3    H122507   2.289   2.080   0.602 -1.1760 -0.1651  1.4249
  316TIP3    H222508   2.341   2.113   0.740  0.9779  0.0586  0.6119
  317TIP3   OH222509   4.215   6.238   0.782 -0.0861 -0.0491  0.3627
  317TIP3    H122510   4.154   6.165   0.785 -0.2649  0.1161  0.9732
  317TIP3    H222511   4.296   6.203   0.819  0.5068 -0.5380 -1.3009
  318TIP3   OH222512   6.473   4.616   1.867  0.5410  0.0904  0.3036
  318TIP3    H122513   6.393   4.565   1.879  0.2253  0.0055 -1.7329
  318TIP3    H222514   6.444   4.707   1.873  0.5813  0.0523  1.1101
  319TIP3   OH222515   4.901   1.750   0.545 -0.3747 -0.3633  0.2603
  319TIP3    H122516   4.881   1.657   0.532 -1.6903 -0.1109  0.3618
  319TIP3    H222517   4.894   1.762   0.640 -0.7448 -0.0581  0.1978
  320TIP3   OH222518   6.351   5.342   0.780  0.2796  0.2717  0.9460
  320TIP3    H122519   6.355   5.398   0.857 -0.7530  1.0549  0.4641
  320TIP3    H222520   6.284   5.277   0.801  0.4166  0.1232  0.9286
  321TIP3   OH222521   1.571   5.030   1.565 -0.1751 -0.1627  0.6118
  321TIP3    H122522   1.565   4.961   1.631  2.2073 -1.0488  0.0021
  321TIP3    H222523   1.481   5.060   1.553 -1.2821 -2.9789  1.1102
  322TIP3   OH222524   0.270   0.302   0.112  0.4598 -0.3010 -0.4416
  322TIP3    H122525   0.285   0.392   0.141 -0.5730 -0.8905  2.1816
  322TIP3    H222526   0.352   0.256   0.131 -0.5292 -0.9364  3.0092
  323TIP3   OH222527   4.143   0.408   7.173 -0.5234 -0.2028 -0.2042
  323TIP3    H122528   4.139   0.346   7.246 -3.6324  0.2076  0.1034
  323TIP3    H222529   4.171   0.355   7.099  0.3463 -1.1536  0.7584
  324TIP3   OH222530   6.036   0.082   1.411  0.2770  0.4368 -0.2668
  324TIP3    H122531   6.071   0.065   1.324  1.1865  1.8267 -0.2039
  324TIP3    H222532   6.060   0.005   1.462 -0.4045 -0.4647 -1.2680
  325TIP3   OH222533   0.074   4.454   7.083  0.6249 -0.3962 -0.1320
  325TIP3    H122534   0.132   4.411   7.021 -0.3419 -1.7936 -0.1149
  325TIP3    H222535   0.039   4.530   7.035 -0.5175 -1.7387 -1.5232
  326TIP3   OH222536   1.129   2.593   8.103 -0.3362  0.4367 -0.8046
  326TIP3    H122537   1.123   2.587   8.008  2.8145  0.5491 -1.0884
  326TIP3    H222538   1.187   2.667   8.119  0.4826 -0.5681  1.1480
  327TIP3   OH222539   3.164   3.925   7.926  0.4365 -0.5069  0.4913
  327TIP3    H122540   3.118   3.978   7.992 -1.3496  0.0357 -1.1103
  327TIP3    H222541   3.249   3.968   7.916 -0.4620  1.2901  0.2095
  328TIP3   OH222542   0.746   4.411   1.005 -0.5650  0.3051 -0.1110
  328TIP3    H122543   0.653   4.410   0.981 -0.2966  3.4385 -1.7378
  328TIP3    H222544   0.788   4.356   0.939 -0.8536  2.2335 -2.0201
  329TIP3   OH222545   4.680   3.530   2.074  0.6617  0.0681  0.0978
  329TIP3    H122546   4.738   3.505   2.146  0.6034  1.3669  0.6282
  329TIP3    H222547   4.654   3.620   2.095 -0.6992 -0.1239 -0.6830
  330TIP3   OH222548   3.387   2.721   0.081  0.0526  0.6116  0.3638
  330TIP3    H122549   3.317   2.698   0.142  1.1161 -0.9743  1.0546
  330TIP3    H222550   3.375   2.661   0.007 -0.4971  1.6990 -0.4482
  331TIP3   OH222551   3.651   1.519   2.997  0.3200 -0.4834  0.2623
  331TIP3    H122552   3.744   1.534   2.980 -0.1116  1.7833 -0.3018
  331TIP3    H222553   3.620   1.471   2.920  0.7285 -0.0241 -0.1889
  332TIP3   OH222554   2.503   2.005   0.143  0.9262 -0.8617 -0.9171
  332TIP3    H122555   2.432   1.942   0.124  0.4882 -0.7559  0.3009
  332TIP3    H222556   2.558   1.959   0.206  0.5402  0.0180  0.0695
  333TIP3   OH222557   1.863   4.963   6.722  0.3450  0.2236  0.2146
  333TIP3    H122558   1.906   5.043   6.693 -0.6949  2.8686  4.9567
  333TIP3    H222559   1.781   4.960   6.673  1.3913  0.6705 -1.6808
  334TIP3   OH222560   1.836   6.385   7.619  0.4892  0.0788 -0.8855
  334TIP3    H122561   1.860   6.373   7.527 -0.0021 -0.3851 -0.9601
  334TIP3    H222562   1.917   6.412   7.661  0.3795  1.8972 -1.7414
  335TIP3   OH222563   5.277   5.881   1.891 -0.5054  0.2455 -0.0351
  335TIP3    H122564   5.311   5.933   1.818  1.2614 -1.5271 -0.5607
  335TIP3    H222565   5.257   5.796   1.853 -0.1216 -0.5251  1.4129
  336TIP3   OH222566   5.412   2.908   8.429  0.3450 -0.3735  0.3381
  336TIP3    H122567   5.499   2.939   8.405  1.0988  0.3733  3.5796
  336TIP3    H222568   5.426   2.855   8.507 -2.0207 -1.1155  0.3407
  337TIP3   OH222569   5.095   3.857   1.246 -0.3932  0.1425 -0.2668
  337TIP3    H122570   5.147   3.778   1.262 -0.7223  0.1167  0.7158
  337TIP3    H222571   5.042   3.867   1.325 -0.8454  0.9694 -0.6702
  338TIP3   OH222572   2.046   5.250   1.260  0.4998  0.0212 -0.6955
  338TIP3    H122573   2.099   5.324   1.230  0.6882 -0.1859 -0.8884
  338TIP3    H222574   1.980   5.238   1.191 -0.5283  0.9992  0.0943
  339TIP3   OH222575   6.612   6.650   8.184  0.0747  0.0254 -0.9251
  339TIP3    H122576   6.579   6.583   8.125  0.8886 -0.8032 -0.4659
  339TIP3    H222577   6.584   6.621   8.271  0.7152  0.0889 -0.6885
  340TIP3   OH222578   1.682   3.505   0.007 -0.1945 -0.2787 -0.0631
  340TIP3    H122579   1.625   3.583   0.004 -1.1432 -0.9285  0.4271
  340TIP3    H222580   1.651   3.450  -0.065  1.9592  0.7404 -1.8696
  341TIP3   OH222581   6.289   5.156   7.091 -0.0912 -0.0623 -0.7761
  341TIP3    H122582   6.230   5.125   7.022  0.7150  0.2191 -1.6086
  341TIP3    H222583   6.376   5.130   7.062  0.4624  1.6956 -0.8011
  342TIP3   OH222584   3.404   4.649   8.254  0.7935  0.0217  0.5959
  342TIP3    H122585   3.355   4.708   8.196  0.5208 -0.5367  0.2548
  342TIP3    H222586   3.361   4.658   8.339 -0.1291 -0.7356  0.2124
  343TIP3   OH222587   5.659   2.453   1.401  0.7334  0.2246 -0.4418
  343TIP3    H122588   5.686   2.529   1.452  1.5746 -0.1109 -0.3685
  343TIP3    H222589   5.636   2.387   1.467  0.5214  0.2392 -0.5017
  344TIP3   OH222590   4.010   1.889   1.834  0.1728 -0.2124 -1.0514
  344TIP3    H122591   4.004   1.848   1.920  0.2092  1.8267 -0.0032
  344TIP3    H222592   4.070   1.833   1.785  2.1965 -0.1204  1.0996
  345TIP3   OH222593   2.786   2.455   1.979  0.4780  0.1024  0.4279
  345TIP3    H122594   2.766   2.516   2.049  0.0293  0.9704 -0.4291
  345TIP3    H222595   2.856   2.400   2.014  0.1276  0.3842  1.6139
  346TIP3   OH222596   4.150   2.627   0.538  0.9663 -0.6121 -0.3874
  346TIP3    H122597   4.133   2.711   0.496  0.4604 -0.9432 -0.8748
  346TIP3    H222598   4.098   2.564   0.487 -1.6434 -0.7114  2.1286
  347TIP3   OH222599   3.616   6.749   8.369  0.5266  0.2806 -0.1096
  347TIP3    H122600   3.589   6.760   8.278 -0.2648  0.9585  0.1957
  347TIP3    H222601   3.556   6.683   8.403 -0.0762  1.0047  0.2745
  348TIP3   OH222602   1.725   1.320   2.145  0.4876 -0.1214  0.0480
  348TIP3    H122603   1.717   1.267   2.065  0.4444  0.4947 -0.3591
  348TIP3    H222604   1.641   1.366   2.152  0.5289 -0.0959  0.3973
  349TIP3   OH222605   1.518   1.150   0.605  0.6765 -0.4634  0.3400
  349TIP3    H122606   1.440   1.194   0.570  0.8110  0.2556  0.9077
  349TIP3    H222607   1.506   1.058   0.583 -2.1260 -1.0424  3.4267
  350TIP3   OH222608   0.426   2.539   8.110 -0.1744 -0.0629  0.3919
  350TIP3    H122609   0.499   2.524   8.171  0.1908  0.2484  0.0342
  350TIP3    H222610   0.366   2.466   8.127 -1.0005  1.0359  2.4550
  351TIP3   OH222611   0.493   6.334   0.927  0.2011  0.0338 -0.1514
  351TIP3    H122612   0.454   6.315   1.013  1.3477 -1.2283  0.1113
  351TIP3    H222613   0.419   6.329   0.866 -0.1105 -2.4872  0.3170
  352TIP3   OH222614   5.165   5.142   7.539 -0.0758 -0.0339 -0.1965
  352TIP3    H122615   5.108   5.069   7.562 -1.1819  0.6418 -0.7182
  352TIP3    H222616   5.174   5.136   7.444  0.6735 -0.0902 -0.1261
  353TIP3   OH222617   6.102   5.917   7.774 -0.2114  0.3878  0.3021
  353TIP3    H122618   6.091   5.875   7.689  1.4550 -0.5053  0.4850
  353TIP3    H222619   6.019   5.903   7.819 -0.6789 -0.2222 -0.7216
  354TIP3   OH222620   5.794   4.472   1.444 -0.5381 -0.2154 -0.1722
  354TIP3    H122621   5.874   4.494   1.397 -0.8759  1.7383  0.0835
  354TIP3    H222622   5.818   4.479   1.537 -1.2011  1.3344 -0.0875
  355TIP3   OH222623   5.194   2.402   1.005 -0.4837 -0.0303 -0.5463
  355TIP3    H122624   5.124   2.342   1.028 -0.1793  0.5082  2.0683
  355TIP3    H222625   5.239   2.360   0.932 -0.3569 -2.9315  1.0651
  356TIP3   OH222626   0.989   4.837   7.288 -0.1976  0.0041  0.1088
  356TIP3    H122627   0.993   4.843   7.192  1.6049  2.7552  0.2325
  356TIP3    H222628   0.995   4.743   7.306 -0.3944 -0.5912 -2.4623
  357TIP3   OH222629   6.588   0.501   0.754 -0.2898  0.0842  0.0116
  357TIP3    H122630   6.661   0.439   0.758  0.3137  0.7266 -0.5831
  357TIP3    H222631   6.532   0.478   0.827 -0.2725 -1.4035 -0.4237
  358TIP3   OH222632   5.063   3.384   8.376  0.5000  0.7245 -0.3513
  358TIP3    H122633   5.090   3.358   8.288  1.2685 -0.1825  0.1347
  358TIP3    H222634   5.115   3.330   8.434 -0.1821  1.1307  0.6715
  359TIP3   OH222635   1.221   3.256   6.790 -0.2092 -0.1792  0.6817
  359TIP3    H122636   1.244   3.163   6.784 -0.3788 -0.2869  1.5286
  359TIP3    H222637   1.242   3.292   6.704  1.0097 -0.7470  0.7188
  360TIP3   OH222638   0.376   3.218   1.527 -0.3663  0.5931 -0.0848
  360TIP3    H122639   0.374   3.288   1.592  0.2030 -0.6832  1.3552
  360TIP3    H222640   0.354   3.139   1.576 -0.3021 -0.3545 -1.5290
  361TIP3   OH222641   5.509   5.546   1.857 -0.0268 -0.0515 -0.3867
  361TIP3    H122642   5.422   5.586   1.864 -0.0589 -0.1259 -0.3633
  361TIP3    H222643   5.568   5.611   1.895 -0.1045 -0.1110 -0.1603
  362TIP3   OH222644   1.420   2.336   6.948 -0.8874  0.8841  0.4620
  362TIP3    H122645   1.374   2.370   6.871 -1.5652 -0.2585  0.3512
  362TIP3    H222646   1.367   2.263   6.978  1.0784 -0.8297  0.0345
  363TIP3   OH222647   3.441   4.084   1.196  0.2226  0.2094  0.0103
  363TIP3    H122648   3.409   4.028   1.267  0.2024  0.5275  0.2551
  363TIP3    H222649   3.488   4.025   1.138  1.1639  0.1160  0.8435
  364TIP3   OH222650   0.788   1.655   7.562 -0.3951  0.0082 -0.1039
  364TIP3    H122651   0.722   1.639   7.494 -1.1335 -1.3890  0.9098
  364TIP3    H222652   0.838   1.574   7.568 -0.0021  0.2908  0.6786
  365TIP3   OH222653   2.183   2.103   1.189 -0.6689  0.1739 -0.2743
  365TIP3    H122654   2.194   2.026   1.133  0.1049 -0.5870  0.8941
  365TIP3    H222655   2.216   2.176   1.136  2.7766 -0.9131  0.1655
  366TIP3   OH222656   4.949   6.599   1.455  0.4682 -0.5528  0.3699
  366TIP3    H122657   5.019   6.644   1.407  0.1844 -1.2508 -0.7317
  366TIP3    H222658   4.941   6.647   1.537  1.0888  0.5654 -0.2102
  367TIP3   OH222659   1.405   2.850   8.680 -0.1109 -0.6800 -0.2455
  367TIP3    H122660   1.467   2.923   8.679 -0.0143 -0.7627 -0.6378
  367TIP3    H222661   1.396   2.826   8.588  0.0975 -1.3654 -0.0887
  368TIP3   OH222662   3.595   3.261   0.722  0.3898  0.2783  0.0760
  368TIP3    H122663   3.519   3.263   0.780  0.4798  0.6186  0.1852
  368TIP3    H222664   3.663   3.219   0.773  0.2874  0.0132 -0.0060
  369TIP3   OH222665   0.666   4.504   7.297  0.5809  0.1910 -0.0340
  369TIP3    H122666   0.581   4.460   7.299  0.5602  0.1101 -1.4040
  369TIP3    H222667   0.652   4.585   7.345 -0.3184  0.2275 -0.3310
  370TIP3   OH222668   2.187   1.517   8.514 -0.1474 -0.0488 -0.1732
  370TIP3    H122669   2.100   1.558   8.514 -0.6167 -1.0154 -0.5086
  370TIP3    H222670   2.231   1.555   8.438 -0.7066 -0.4071 -0.6910
  371TIP3   OH222671   1.924   1.771   6.300  0.3909 -0.1418 -0.0904
  371TIP3    H122672   1.834   1.745   6.322  0.3633 -2.8384 -2.7325
  371TIP3    H222673   1.916   1.860   6.267 -1.5609 -0.7255 -1.3636
  372TIP3   OH222674   1.996   1.828   0.300 -0.6106 -0.0292 -0.6418
  372TIP3    H122675   2.056   1.864   0.365  0.4087  0.1213 -1.6278
  372TIP3    H222676   1.952   1.904   0.263 -0.9856 -0.0918 -0.3294
  373TIP3   OH222677   3.730   4.211   1.455  0.0950  0.1190  0.1536
  373TIP3    H122678   3.661   4.186   1.516 -2.1208  1.0187 -1.8096
  373TIP3    H222679   3.685   4.266   1.390  2.8229  1.3345 -0.8578
  374TIP3   OH222680   2.232   2.763   1.086 -0.4011  0.5808  0.1285
  374TIP3    H122681   2.302   2.698   1.078 -1.0761 -0.1918  0.4089
  374TIP3    H222682   2.165   2.736   1.024 -0.0653  1.8596 -0.8320
  375TIP3   OH222683   1.515   3.863   1.706 -0.0155 -0.3443  0.3506
  375TIP3    H122684   1.457   3.830   1.637  0.8077 -0.4029 -0.3155
  375TIP3    H222685   1.600   3.824   1.687  0.3010 -0.0845  1.2029
  376TIP3   OH222686   5.280   1.593   1.962 -0.1471  0.0090  0.5169
  376TIP3    H122687   5.263   1.569   2.053  1.0221  0.4346  0.8765
  376TIP3    H222688   5.203   1.564   1.914 -0.8566 -0.0715  1.6684
  377TIP3   OH222689   1.665   5.491   7.717 -0.1942 -0.4384 -0.3323
  377TIP3    H122690   1.604   5.543   7.666  0.7369  0.4448 -0.5799
  377TIP3    H222691   1.752   5.516   7.684  0.3040 -1.8421 -0.1767
  378TIP3   OH222692   4.419   0.368   2.069 -0.6038 -0.4296  0.8662
  378TIP3    H122693   4.469   0.447   2.090 -0.4048 -0.0814 -0.8124
  378TIP3    H222694   4.456   0.336   1.987 -2.6990 -0.5234 -0.1097
  379TIP3   OH222695   5.764   6.264   7.465  0.0864  0.3775 -0.3668
  379TIP3    H122696   5.696   6.317   7.507 -1.2247 -0.8610 -0.8293
  379TIP3    H222697   5.739   6.173   7.485  1.7937 -0.0992 -0.2924
  380TIP3   OH222698   6.547   6.229   8.396 -0.0191 -0.3135 -0.4324
  380TIP3    H122699   6.474   6.277   8.357 -1.4398  0.3678  2.7471
  380TIP3    H222700   6.625   6.269   8.357 -1.2499 -0.2129 -2.9902
  381TIP3   OH222701   2.354   5.468   1.364 -0.0787 -0.4365  0.4412
  381TIP3    H122702   2.382   5.377   1.359  2.0256  0.1809 -0.0297
  381TIP3    H222703   2.277   5.473   1.306  1.2866 -1.4122 -1.5859
  382TIP3   OH222704   6.217   3.681   6.396  0.3989  0.0007 -0.8132
  382TIP3    H122705   6.300   3.645   6.428 -0.0510  1.3035  2.1943
  382TIP3    H222706   6.152   3.616   6.421  0.1721  0.4948 -0.0864
  383TIP3   OH222707   0.351   2.172   2.415  0.1201  0.2794  0.0930
  383TIP3    H122708   0.393   2.187   2.500  1.9003  0.1293 -0.7160
  383TIP3    H222709   0.339   2.260   2.379 -1.0683  0.3737  0.6622
  384TIP3   OH222710   0.715   2.734   8.600 -0.3359 -0.2581 -0.3369
  384TIP3    H122711   0.677   2.697   8.520 -0.1509  0.6662 -0.8664
  384TIP3    H222712   0.639   2.765   8.650 -0.4371 -0.6260 -0.2593
  385TIP3   OH222713   6.787   4.683   1.108 -0.1444 -0.3653 -0.6300
  385TIP3    H122714   6.876   4.667   1.076 -0.1219 -1.6082  0.0238
  385TIP3    H222715   6.792   4.666   1.202 -1.3536 -1.7510 -0.7878
  386TIP3   OH222716   5.082   3.763   6.890 -0.0172 -0.1316  0.6699
  386TIP3    H122717   5.103   3.851   6.920  0.0401 -0.0839  0.4919
  386TIP3    H222718   4.994   3.771   6.852  0.6995  0.2580 -1.0144
  387TIP3   OH222719   5.865   2.105   7.626 -0.3895 -0.1535 -0.0012
  387TIP3    H122720   5.877   2.199   7.642 -2.4494  0.2014 -0.1324
  387TIP3    H222721   5.908   2.089   7.542  1.4032  0.2803  0.7914
  388TIP3   OH222722   5.076   0.727   8.553 -0.2871 -0.2021 -1.0098
  388TIP3    H122723   5.154   0.767   8.514  0.3695  1.3830  1.6474
  388TIP3    H222724   5.013   0.798   8.560  0.2980  0.1551  2.2961
  389TIP3   OH222725   3.809   5.307   1.377 -0.5774 -0.0198 -0.3303
  389TIP3    H122726   3.798   5.213   1.360  0.4005 -0.3537  0.7400
  389TIP3    H222727   3.739   5.329   1.438  0.4249 -0.5463  1.0427
  390TIP3   OH222728   2.133   0.393   7.113 -0.1279  0.4276  0.7270
  390TIP3    H122729   2.084   0.365   7.036  1.0164  0.7091 -0.1269
  390TIP3    H222730   2.219   0.418   7.080  0.2969  0.8498  2.0560
  391TIP3   OH222731   0.257   4.289   6.804  0.3535 -0.3679 -0.0954
  391TIP3    H122732   0.182   4.232   6.786  0.2087  0.1777 -1.3897
  391TIP3    H222733   0.254   4.355   6.734  1.8907 -0.1806 -0.0257
  392TIP3   OH222734   6.056   2.140   0.024  0.3579 -0.1331 -0.2306
  392TIP3    H122735   6.082   2.096   0.105 -0.7508 -0.3401  0.0375
  392TIP3    H222736   6.137   2.175  -0.012  1.0144 -0.9112  0.4502
  393TIP3   OH222737   3.301   2.036   6.504 -0.4210 -0.0912 -0.0812
  393TIP3    H122738   3.281   1.943   6.511 -0.0626 -0.2472 -1.0193
  393TIP3    H222739   3.217   2.080   6.518 -0.7438 -0.5889 -0.4285
  394TIP3   OH222740   3.193   2.471   1.677 -0.4227 -0.2220  0.0005
  394TIP3    H122741   3.216   2.502   1.590 -0.6821  0.2274  0.0875
  394TIP3    H222742   3.099   2.490   1.686  0.1370  2.4046  1.4297
  395TIP3   OH222743   5.351   0.292   7.711  0.4752 -0.2612  0.7919
  395TIP3    H122744   5.383   0.206   7.686 -0.1383 -0.3974  0.4748
  395TIP3    H222745   5.400   0.313   7.791  1.1918 -0.5612  0.4381
  396TIP3   OH222746   1.771   2.363   6.332 -0.3122 -0.2644 -0.7297
  396TIP3    H122747   1.856   2.359   6.288 -1.4542 -2.7133 -3.0066
  396TIP3    H222748   1.721   2.428   6.282 -0.1078  0.5015  0.0378
  397TIP3   OH222749   6.083   6.837   8.040 -0.0417  0.9907 -0.2243
  397TIP3    H122750   5.999   6.882   8.049 -0.8228 -0.5233  0.3597
  397TIP3    H222751   6.069   6.776   7.967  0.3441  0.2890  0.2835
  398TIP3   OH222752   4.210   5.125   0.232 -0.1281 -0.1796  0.5021
  398TIP3    H122753   4.243   5.201   0.279  0.3131  0.7825 -1.2874
  398TIP3    H222754   4.119   5.145   0.212  0.5820  0.9953 -1.9777
  399TIP3   OH222755   5.210   1.548   2.226 -0.1671 -0.1327 -0.1275
  399TIP3    H122756   5.143   1.598   2.181 -0.5789  0.1303  0.7620
  399TIP3    H222757   5.167   1.467   2.253  0.4221 -0.8775 -1.3175
  400TIP3   OH222758   6.793   0.401   2.121 -0.0781  0.1558 -0.3342
  400TIP3    H122759   6.765   0.314   2.093 -0.0576 -0.1815  0.6916
  400TIP3    H222760   6.858   0.427   2.055  0.4938 -0.9274 -0.2262
  401TIP3   OH222761   3.612   4.878   1.790  0.6721  0.0551 -0.0256
  401TIP3    H122762   3.610   4.839   1.877 -2.8645 -1.7209 -0.7234
  401TIP3    H222763   3.576   4.966   1.801  0.2349 -0.1667  0.3305
  402TIP3   OH222764   1.744   2.662   1.308  0.4725 -0.5980 -0.0628
  402TIP3    H122765   1.812   2.597   1.322 -0.9957 -2.1933 -0.0668
  402TIP3    H222766   1.708   2.679   1.395  1.1831  0.6347  0.0145
  403TIP3   OH222767   1.029   3.891   8.645  0.0323  0.1444  0.1259
  403TIP3    H122768   1.114   3.856   8.672 -1.0050 -1.8013  1.0788
  403TIP3    H222769   1.014   3.965   8.703 -0.0317 -1.0753  1.7208
  404TIP3   OH222770   5.980   6.594   7.468 -0.5802 -0.3894 -0.2109
  404TIP3    H122771   5.960   6.525   7.405  0.1681 -1.9238  1.1390
  404TIP3    H222772   5.918   6.580   7.540 -0.2944  0.2144  0.1640
  405TIP3   OH222773   6.179   4.072   8.438  0.2659  0.1244 -0.2680
  405TIP3    H122774   6.151   4.163   8.424 -0.0622  0.1208  0.3239
  405TIP3    H222775   6.232   4.077   8.518  1.0204 -0.0556 -0.7492
  406TIP3   OH222776   1.885   3.043   0.753  0.5674  0.1586 -0.3001
  406TIP3    H122777   1.904   3.035   0.847  0.7870 -1.6332 -0.4548
  406TIP3    H222778   1.972   3.049   0.712  0.4616  1.2777 -0.3767
  407TIP3   OH222779   6.805   5.916   0.136  0.7646  0.1041  0.5445
  407TIP3    H122780   6.711   5.931   0.130  0.6820 -0.5030  0.2069
  407TIP3    H222781   6.845   5.996   0.102  0.3438 -0.2660 -0.8677
  408TIP3   OH222782   1.144   1.592   6.020 -0.0331 -0.0800 -0.0205
  408TIP3    H122783   1.157   1.687   6.012  1.4245 -0.3382 -1.4575
  408TIP3    H222784   1.186   1.556   5.941  3.1082 -2.2045  2.3481
  409TIP3   OH222785   2.249   1.937   0.056  0.0674 -0.2897 -0.3582
  409TIP3    H122786   2.266   1.966  -0.034  2.4383 -0.5087 -0.0370
  409TIP3    H222787   2.156   1.914   0.056 -1.0249  3.4136 -1.6841
  410TIP3   OH222788   3.292   6.135   1.106  0.1033  0.5025  0.0824
  410TIP3    H122789   3.243   6.116   1.186  1.1680  0.4903  0.7458
  410TIP3    H222790   3.367   6.076   1.109  0.9429  1.5266 -0.1919
  411TIP3   OH222791   3.989   0.852   1.808 -0.1702 -0.2884 -0.4582
  411TIP3    H122792   3.919   0.807   1.856 -1.8771  1.8377 -0.8000
  411TIP3    H222793   4.070   0.813   1.842 -1.4506 -2.0706  0.7628
  412TIP3   OH222794   3.038   5.615   7.183  0.2341 -0.4868 -0.4756
  412TIP3    H122795   3.128   5.642   7.199 -0.4330  1.5881  0.0189
  412TIP3    H222796   2.994   5.626   7.267 -1.0529  1.0694 -1.3023
  413TIP3   OH222797   6.115   5.746   0.240 -0.8465 -0.4362  0.1931
  413TIP3    H122798   6.114   5.812   0.171  1.5210 -0.1440  0.3470
  413TIP3    H222799   6.145   5.793   0.318  0.9997 -1.6557  0.2843
  414TIP3   OH222800   0.707   1.815   1.350  0.1615  0.4465  0.2527
  414TIP3    H122801   0.755   1.798   1.431  0.2331  0.4233  0.2059
  414TIP3    H222802   0.728   1.906   1.328 -1.4272  1.1022  1.3131
  415TIP3   OH222803   3.770   2.203   6.777 -0.1099 -0.0983 -0.0456
  415TIP3    H122804   3.704   2.151   6.731  0.8402 -0.2976 -1.2269
  415TIP3    H222805   3.724   2.284   6.800 -1.8062 -1.6595  2.4320
  416TIP3   OH222806   1.120   1.093   8.379 -0.4871  0.5372  0.0669
  416TIP3    H122807   1.140   1.162   8.315  0.5540 -1.5352 -1.9984
  416TIP3    H222808   1.026   1.103   8.397 -0.3141  2.5840  0.0064
  417TIP3   OH222809   3.612   4.650   6.749 -0.1815 -0.2809  0.0554
  417TIP3    H122810   3.545   4.651   6.818  0.6258 -0.5400  0.8512
  417TIP3    H222811   3.676   4.715   6.778  0.0087 -0.1640 -0.6223
  418TIP3   OH222812   6.534   5.052   7.088 -0.1812  0.2651  0.5907
  418TIP3    H122813   6.568   5.113   7.022  0.8790 -0.2557  0.6251
  418TIP3    H222814   6.513   4.972   7.038 -1.0485  0.4631  0.6268
  419TIP3   OH222815   5.875   2.022   2.328 -0.6770  0.0938 -0.4858
  419TIP3    H122816   5.956   2.031   2.378  1.0342 -0.2414 -2.9936
  419TIP3    H222817   5.868   1.928   2.311 -0.8574  0.2527 -1.3546
  420TIP3   OH222818   0.229   3.198   2.134  0.3688  0.3537 -0.2666
  420TIP3    H122819   0.304   3.233   2.085  0.7200  1.5190  1.0521
  420TIP3    H222820   0.216   3.110   2.098  0.9623  0.9427 -2.0425
  421TIP3   OH222821   6.576   1.182   1.801 -0.4478 -0.2705 -0.1968
  421TIP3    H122822   6.524   1.117   1.848  0.1707 -0.9947 -0.5000
  421TIP3    H222823   6.623   1.132   1.735 -0.6161  0.6063 -1.0122
  422TIP3   OH222824   1.641   0.226   7.413  0.0521  0.1729 -0.2117
  422TIP3    H122825   1.653   0.294   7.478  0.0348  2.9617 -2.9041
  422TIP3    H222826   1.565   0.253   7.362 -0.4288 -2.2865 -0.9519
  423TIP3   OH222827   0.743   5.090   7.300 -0.3097  0.0918  0.1225
  423TIP3    H122828   0.656   5.117   7.270  0.2413  1.5778 -0.2396
  423TIP3    H222829   0.804   5.147   7.253  0.8787 -0.9792  0.3077
  424TIP3   OH222830   1.553   1.331   8.517 -1.1368 -0.0442 -0.3430
  424TIP3    H122831   1.557   1.426   8.504  2.8304 -0.3014 -2.9020
  424TIP3    H222832   1.573   1.294   8.431 -3.9782 -3.3845  0.1819
  425TIP3   OH222833   1.094   5.121   8.015  0.2067  0.6163 -0.4414
  425TIP3    H122834   1.179   5.079   8.001 -0.5270 -1.6056  1.2321
  425TIP3    H222835   1.040   5.089   7.943  0.0237 -0.2891  0.0832
  426TIP3   OH222836   0.165   1.096   7.841 -0.7833  0.5476 -0.2583
  426TIP3    H122837   0.089   1.148   7.813 -1.7102  0.2350  1.5732
  426TIP3    H222838   0.225   1.102   7.767 -2.5857  0.7784 -1.8002
  427TIP3   OH222839   4.314   3.696   1.951 -0.1383 -0.3557  0.4570
  427TIP3    H122840   4.251   3.733   1.888 -1.2344 -1.4079  0.8823
  427TIP3    H222841   4.326   3.605   1.922  0.6698 -0.3623  0.7863
  428TIP3   OH222842   0.302   5.756   0.269 -0.1398  0.0498 -0.0789
  428TIP3    H122843   0.387   5.728   0.302  0.4108  0.2055 -1.3149
  428TIP3    H222844   0.249   5.677   0.269 -0.6580  0.3068  2.5467
  429TIP3   OH222845   5.262   4.259   8.574  0.1760  0.0956  0.5527
  429TIP3    H122846   5.296   4.182   8.530  1.3524  0.8743  0.0763
  429TIP3    H222847   5.168   4.242   8.583  0.0088 -0.3652 -1.6495
  430TIP3   OH222848   0.978   1.973   0.800  0.2308 -0.3760 -0.2174
  430TIP3    H122849   0.972   1.898   0.740 -0.0560  0.0005 -0.6644
  430TIP3    H222850   0.949   2.048   0.748 -0.6057 -0.1373  0.5656
  431TIP3   OH222851   4.545   5.661   1.323  0.4021  0.1535  0.2685
  431TIP3    H122852   4.501   5.708   1.393 -0.2237 -0.2191  0.1341
  431TIP3    H222853   4.519   5.569   1.336 -2.8834  0.4583 -2.6166
  432TIP3   OH222854   0.167   4.309   2.527  0.6917 -0.1320  0.1360
  432TIP3    H122855   0.159   4.229   2.476  1.7808  0.1881 -0.5723
  432TIP3    H222856   0.229   4.288   2.596 -0.2600 -0.3608  0.9452
  433TIP3   OH222857   6.694   0.697   1.032 -0.0526 -0.3029 -0.0671
  433TIP3    H122858   6.698   0.602   1.020  0.5558 -0.3640  0.5455
  433TIP3    H222859   6.602   0.715   1.050 -0.3079 -0.6751 -0.9578
  434TIP3   OH222860   1.373   5.875   8.122  0.5959  0.1229 -0.3505
  434TIP3    H122861   1.348   5.807   8.184  2.8397 -0.8463 -0.4236
  434TIP3    H222862   1.422   5.938   8.174  1.8975 -0.3453 -0.9840
  435TIP3   OH222863   4.974   4.291   7.680  0.0877 -0.5400  0.0336
  435TIP3    H122864   5.035   4.238   7.731 -0.5700 -1.0571  0.3092
  435TIP3    H222865   5.025   4.323   7.606  0.4694 -1.6599 -0.1961
  436TIP3   OH222866   2.211   2.138   0.248 -0.2072 -0.3317 -0.4059
  436TIP3    H122867   2.260   2.073   0.199 -0.0801 -0.5877  0.0557
  436TIP3    H222868   2.208   2.104   0.337  2.2505  1.5764  0.5109
  437TIP3   OH222869   5.071   4.430   1.918 -0.1251 -0.1158  0.5027
  437TIP3    H122870   5.124   4.505   1.893 -1.8058  0.8222 -0.4747
  437TIP3    H222871   5.097   4.361   1.857  0.4959  0.0815  0.5389
  438TIP3   OH222872   4.452   6.116   8.536  0.4579  0.3786 -0.4559
  438TIP3    H122873   4.520   6.124   8.603 -0.1589  0.3331  0.1826
  438TIP3    H222874   4.390   6.186   8.557  1.2587  1.7081 -2.1945
  439TIP3   OH222875   5.108   1.379   8.666  0.4343 -0.1350  0.0866
  439TIP3    H122876   5.057   1.407   8.742 -2.0333  1.1991 -1.9023
  439TIP3    H222877   5.175   1.447   8.656 -1.2276  1.4541 -0.7197
  440TIP3   OH222878   4.029   6.499   0.098  0.0166 -0.2751  0.3117
  440TIP3    H122879   4.105   6.553   0.118  0.1930 -1.1045  2.1492
  440TIP3    H222880   4.044   6.418   0.147 -1.2523 -1.1389 -0.6489
  441TIP3   OH222881   0.189   1.342   6.475  1.0330  0.0785  0.5680
  441TIP3    H122882   0.146   1.257   6.471  0.6109  0.2762  0.7556
  441TIP3    H222883   0.275   1.328   6.436  1.0446 -0.4806  0.7842
  442TIP3   OH222884   4.833   0.386   7.172 -0.0824  0.1623  0.0892
  442TIP3    H122885   4.879   0.302   7.169  0.8578  0.5944  1.6023
  442TIP3    H222886   4.867   0.435   7.097 -0.0913 -0.5204 -0.3661
  443TIP3   OH222887   1.115   2.616   7.188 -0.2039 -0.1127  0.1073
  443TIP3    H122888   1.131   2.648   7.099 -1.7455  2.1512  0.5481
  443TIP3    H222889   1.044   2.553   7.178  1.2818 -1.7783 -0.4977
  444TIP3   OH222890   1.005   0.256   8.440 -0.3924 -0.0049 -0.4745
  444TIP3    H122891   0.920   0.225   8.472  0.3874 -0.5930  1.0872
  444TIP3    H222892   1.063   0.181   8.445  0.3871  0.5363 -0.9940
  445TIP3   OH222893   3.297   3.430   2.406  0.3111 -0.0467  0.6799
  445TIP3    H122894   3.332   3.387   2.328 -0.5073 -0.3675  0.4795
  445TIP3    H222895   3.251   3.507   2.373  0.6437  0.2523  0.9164
  446TIP3   OH222896   6.397   0.269   8.493 -0.3530 -0.6293  0.1237
  446TIP3    H122897   6.344   0.343   8.525 -0.6346 -0.7397 -0.0898
  446TIP3    H222898   6.475   0.270   8.549 -0.0460  0.2318 -0.2944
  447TIP3   OH222899   4.832   0.637   7.398  0.6836  0.3776 -0.0696
  447TIP3    H122900   4.778   0.559   7.385 -0.1566  0.6509  1.5821
  447TIP3    H222901   4.771   0.705   7.426  1.9040  0.4853  2.6765
  448TIP3   OH222902   6.736   3.762   0.232  0.0791  0.0357  0.5222
  448TIP3    H122903   6.663   3.823   0.237 -0.3730 -0.3994 -0.4342
  448TIP3    H222904   6.814   3.818   0.227 -0.4098  0.6228 -1.7147
  449TIP3   OH222905   0.786   2.729   6.239 -0.4628  0.0906  0.2815
  449TIP3    H122906   0.793   2.662   6.308 -0.8812 -0.4269 -0.1676
  449TIP3    H222907   0.876   2.758   6.225 -0.3691  0.1963  1.0370
  450TIP3   OH222908   4.398   4.964   1.048 -0.3031  0.2513  0.4384
  450TIP3    H122909   4.474   5.022   1.041  1.0337 -1.3849  0.8957
  450TIP3    H222910   4.433   4.881   1.077 -2.5295 -0.0453  2.6216
  451TIP3   OH222911   0.488   2.355   2.105 -0.4939 -0.1808 -0.3767
  451TIP3    H122912   0.393   2.366   2.110 -0.4236  0.2937  0.0025
  451TIP3    H222913   0.518   2.432   2.055 -0.2060  0.2213  0.4035
  452TIP3   OH222914   1.328   0.618   1.078 -0.2999 -0.3378  0.0468
  452TIP3    H122915   1.274   0.646   1.152  1.5282  0.6739  1.0864
  452TIP3    H222916   1.415   0.653   1.098  0.5327 -1.0931 -2.0044
  453TIP3   OH222917   2.712   6.824   8.665  0.4477 -0.1853  0.0011
  453TIP3    H122918   2.640   6.762   8.682  0.3207 -0.7961 -2.3782
  453TIP3    H222919   2.790   6.780   8.700  0.1669 -1.1497 -0.5432
  454TIP3   OH222920   5.350   1.098   2.773  0.2185  0.9846  0.3191
  454TIP3    H122921   5.291   1.169   2.748  1.6318  2.0557 -0.1113
  454TIP3    H222922   5.437   1.138   2.774  1.4064 -1.2154 -2.2275
  455TIP3   OH222923   1.600   6.679   1.988  0.3151  0.5129 -0.3356
  455TIP3    H122924   1.540   6.691   1.914 -0.1838  0.5251  0.0710
  455TIP3    H222925   1.594   6.586   2.008  0.1211  0.5913 -0.0305
  456TIP3   OH222926   1.208   6.791   8.688 -0.1769  0.0914  0.4082
  456TIP3    H122927   1.301   6.797   8.707 -0.3734  0.9741  1.1635
  456TIP3    H222928   1.168   6.860   8.741 -1.2693 -0.3280  0.1609
  457TIP3   OH222929   1.764   0.226   1.469  0.2305  0.4868  0.2417
  457TIP3    H122930   1.833   0.292   1.478 -0.4982  1.3773 -0.4996
  457TIP3    H222931   1.683   0.274   1.485 -0.2639 -0.3877  0.3859
  458TIP3   OH222932   6.165   0.073   0.871  0.2267  0.3121 -0.4241
  458TIP3    H122933   6.095   0.022   0.830  2.0740 -0.4999 -2.7869
  458TIP3    H222934   6.142   0.164   0.855 -0.1146  0.0433 -1.5597
  459TIP3   OH222935   2.561   0.426   7.768 -0.1782  0.1098 -0.1973
  459TIP3    H122936   2.586   0.385   7.685  0.8623 -1.1878  0.6880
  459TIP3    H222937   2.489   0.372   7.800  0.1065 -0.0439  0.2014
  460TIP3   OH222938   0.889   4.480   0.569  0.0362  0.2035 -0.0404
  460TIP3    H122939   0.825   4.548   0.549  0.1087 -0.0182 -1.0867
  460TIP3    H222940   0.885   4.420   0.494 -0.3653 -1.2128  1.0627
  461TIP3   OH222941   6.223   5.445   6.485 -0.0576 -0.2495  0.6060
  461TIP3    H122942   6.186   5.533   6.483  1.3436  0.3744 -2.1452
  461TIP3    H222943   6.162   5.392   6.433  0.9274 -0.0423 -0.8053
  462TIP3   OH222944   0.758   4.698   0.750 -0.5307 -0.1615 -0.3048
  462TIP3    H122945   0.667   4.680   0.729 -0.2709 -1.2916 -0.5220
  462TIP3    H222946   0.794   4.737   0.670 -0.6697 -0.2620 -0.4160
  463TIP3   OH222947   6.360   4.271   1.298  0.1047  0.4291 -0.3296
  463TIP3    H122948   6.313   4.286   1.380  2.7479  1.8533  1.0446
  463TIP3    H222949   6.352   4.177   1.282  1.0360 -0.2467  2.6137
  464TIP3   OH222950   1.364   1.427   6.896  0.3232  0.2055  0.0184
  464TIP3    H122951   1.458   1.419   6.910  0.2124 -1.7807 -0.0369
  464TIP3    H222952   1.343   1.356   6.835 -1.6053 -1.2663  2.2287
  465TIP3   OH222953   4.159   5.016   0.877  0.1193 -0.0858 -0.4450
  465TIP3    H122954   4.149   4.922   0.859 -0.7397 -0.2096  0.5914
  465TIP3    H222955   4.226   5.020   0.945 -0.4242 -0.0155  0.0928
  466TIP3   OH222956   3.413   5.664   7.445 -0.5643  0.1447  0.6836
  466TIP3    H122957   3.357   5.674   7.522 -0.6846 -0.8339  0.7357
  466TIP3    H222958   3.492   5.621   7.478 -2.0059 -3.5842 -0.2334
  467TIP3   OH222959   3.576   2.432   0.669  0.0605  0.0147 -0.0816
  467TIP3    H122960   3.498   2.487   0.668  1.1488  1.6272  0.0502
  467TIP3    H222961   3.599   2.425   0.762 -0.5964 -1.5176  0.0061
  468TIP3   OH222962   5.047   4.133   8.698  0.4071  0.3047 -0.4997
  468TIP3    H122963   4.995   4.124   8.618 -0.0593  1.5624 -0.3702
  468TIP3    H222964   5.090   4.048   8.710 -1.2549 -0.6196 -0.8719
  469TIP3   OH222965   2.781   3.646   2.601  0.1196 -0.5496  0.5924
  469TIP3    H122966   2.770   3.741   2.594  1.2953 -0.4333  0.1773
  469TIP3    H222967   2.868   3.629   2.566 -0.6274 -1.9624 -0.7155
  470TIP3   OH222968   4.655   3.453   7.747 -0.0762 -0.7952  0.7486
  470TIP3    H122969   4.663   3.541   7.782 -0.7624 -0.1838 -0.5604
  470TIP3    H222970   4.653   3.465   7.652 -2.1704 -2.0317  0.5789
  471TIP3   OH222971   4.080   1.482   2.398 -0.6835 -0.1972 -0.0313
  471TIP3    H122972   4.130   1.490   2.317 -0.3787  0.0147  0.1767
  471TIP3    H222973   4.109   1.400   2.437  0.0730  0.2922  0.4692
  472TIP3   OH222974   4.964   3.088   1.327 -0.5393 -0.5609 -0.6174
  472TIP3    H122975   5.050   3.128   1.316 -0.5442 -0.1956  0.5817
  472TIP3    H222976   4.976   2.997   1.300  0.0625 -0.3596 -1.0423
  473TIP3   OH222977   0.937   5.727   6.957 -0.0559 -0.3219 -0.4160
  473TIP3    H122978   0.866   5.765   7.009 -1.2767  0.6164 -2.6193
  473TIP3    H222979   0.971   5.801   6.905  2.8337 -0.6517  0.7983
  474TIP3   OH222980   0.582   2.763   8.082 -0.2852  0.2724 -0.1936
  474TIP3    H122981   0.627   2.756   8.166  1.0422  0.4094 -0.8706
  474TIP3    H222982   0.518   2.692   8.083 -0.5230  0.4850  1.0694
  475TIP3   OH222983   2.490   1.276   6.460 -0.0223 -0.1687 -0.2531
  475TIP3    H122984   2.487   1.196   6.513  2.2532 -1.0177 -1.2535
  475TIP3    H222985   2.524   1.343   6.520 -0.0746 -0.4420  0.0878
  476TIP3   OH222986   5.603   5.477   7.765 -0.2522 -0.4090  0.3261
  476TIP3    H122987   5.592   5.557   7.817  3.0563  0.9699 -0.8127
  476TIP3    H222988   5.594   5.506   7.675  2.1278 -1.0403 -0.1617
  477TIP3   OH222989   1.793   1.012   0.680  0.1298  0.3582  0.3634
  477TIP3    H122990   1.733   0.963   0.737 -0.6523 -0.5691 -1.1726
  477TIP3    H222991   1.870   1.027   0.734 -0.7444 -0.0677  1.8097
  478TIP3   OH222992   1.577   0.646   7.277 -0.0536  0.1104  0.3129
  478TIP3    H122993   1.567   0.607   7.190 -0.9922 -0.2372  0.5582
  478TIP3    H222994   1.497   0.621   7.323 -0.3979  1.7797  0.6955
  479TIP3   OH222995   6.293   4.442   0.500 -0.2774  0.4174 -0.3922
  479TIP3    H122996   6.295   4.511   0.434  0.4349  0.2463 -0.5554
  479TIP3    H222997   6.286   4.361   0.450 -0.9854  0.3502 -0.2048
  480TIP3   OH222998   5.593   6.853   0.778  0.0082  0.4319  0.2443
  480TIP3    H122999   5.521   6.791   0.789  1.2059 -0.8419  1.3308
  480TIP3    H223000   5.592   6.875   0.685  0.5809 -2.6087 -0.5940
  481TIP3   OH223001   1.310   2.778   1.431 -0.0460 -0.1961 -0.9099
  481TIP3    H123002   1.223   2.798   1.398 -0.9091  0.8930  1.7665
  481TIP3    H223003   1.306   2.686   1.457 -0.6828  0.0619 -0.0591
  482TIP3   OH223004   0.040   6.321   1.950 -0.4251 -0.6250 -0.0651
  482TIP3    H123005   0.078   6.353   2.032  2.7593  1.2266 -2.0546
  482TIP3    H223006  -0.012   6.394   1.917  0.9171 -0.1282 -1.1567
  483TIP3   OH223007   2.140   0.765   1.880  0.0998  0.1560  0.4175
  483TIP3    H123008   2.052   0.733   1.901  0.2037  1.3880  3.1729
  483TIP3    H223009   2.126   0.846   1.832 -0.3105  0.5737  1.2244
  484TIP3   OH223010   1.625   1.540   1.485  0.2063 -0.1193  0.5604
  484TIP3    H123011   1.666   1.593   1.553 -1.3025  0.7540  0.8363
  484TIP3    H223012   1.661   1.452   1.498  1.1947  0.3933  1.4077
  485TIP3   OH223013   0.526   4.354   2.101  0.3896  0.0610  0.2069
  485TIP3    H123014   0.466   4.328   2.170  0.0626  0.1874 -0.0260
  485TIP3    H223015   0.482   4.328   2.020 -0.1010  1.6141 -0.0592
  486TIP3   OH223016   4.105   5.643   1.698 -0.0571  0.4724 -0.1261
  486TIP3    H123017   4.066   5.730   1.691  1.5637  1.3943  1.4795
  486TIP3    H223018   4.067   5.593   1.626 -0.9000  2.5563 -1.1830
  487TIP3   OH223019   6.810   1.833   7.037 -0.2797 -0.4630 -0.2056
  487TIP3    H123020   6.853   1.774   6.976  0.0359 -1.2744  0.7789
  487TIP3    H223021   6.825   1.921   7.001 -1.1192 -0.9776 -1.9122
  488TIP3   OH223022   5.818   2.063   0.290  0.2696  0.1271 -0.0361
  488TIP3    H123023   5.912   2.045   0.281  0.8147  2.8254 -0.5331
  488TIP3    H223024   5.787   2.074   0.200 -0.4453 -0.3205  0.1479
  489TIP3   OH223025   1.851   6.628   0.419  0.7554  0.2073  0.2691
  489TIP3    H123026   1.757   6.622   0.402  0.9206 -1.2747 -0.2020
  489TIP3    H223027   1.876   6.714   0.384 -0.1210 -0.0506 -1.0541
  490TIP3   OH223028   1.830   0.181   6.806 -0.2659  0.2757  0.0307
  490TIP3    H123029   1.892   0.120   6.765  0.8695  0.0245  2.0319
  490TIP3    H223030   1.757   0.126   6.834  0.1461  0.0453  0.6503
  491TIP3   OH223031   6.315   4.804   1.574 -0.3178  0.1515  0.1167
  491TIP3    H123032   6.371   4.822   1.649  0.9925  1.4335 -1.1078
  491TIP3    H223033   6.253   4.877   1.572 -0.4946  0.0017  0.0653
  492TIP3   OH223034   3.564   6.093   8.652  0.0637  0.1101  0.1610
  492TIP3    H123035   3.481   6.046   8.647  1.0064 -1.7334  1.1131
  492TIP3    H223036   3.630   6.025   8.666  1.6114  1.6283  0.5989
  493TIP3   OH223037   2.037   5.188   0.724  0.0802 -0.1173  0.3213
  493TIP3    H123038   2.021   5.112   0.669 -1.6502  0.3162  0.1843
  493TIP3    H223039   2.025   5.264   0.667 -0.5717  0.3088  0.9963
  494TIP3   OH223040   6.229   5.666   8.535  0.3320 -0.6341  0.4796
  494TIP3    H123041   6.257   5.653   8.445 -0.4307 -2.3897  0.4361
  494TIP3    H223042   6.142   5.626   8.539 -1.1747  2.4074  1.1996
  495TIP3   OH223043   2.378   5.824   0.259 -0.3235  0.1681  0.1846
  495TIP3    H123044   2.350   5.855   0.173  1.0659 -0.0726 -0.3857
  495TIP3    H223045   2.435   5.893   0.293 -2.6188  1.3388  1.9764
  496TIP3   OH223046   3.483   1.239   1.632  0.3658 -0.8941 -0.0342
  496TIP3    H123047   3.552   1.222   1.568  0.5271 -1.6984  0.3481
  496TIP3    H223048   3.404   1.253   1.580  0.5642 -1.2092 -0.4178
  497TIP3   OH223049   2.936   5.821   1.604  0.3832  0.2174 -0.2929
  497TIP3    H123050   2.990   5.811   1.525  1.6623 -2.1456  0.7605
  497TIP3    H223051   2.849   5.843   1.571  0.2515 -3.0005 -2.6403
  498TIP3   OH223052   2.351   6.250   7.612 -0.6241  0.1799 -0.9356
  498TIP3    H123053   2.430   6.202   7.586 -0.0172 -0.2605  1.4669
  498TIP3    H223054   2.384   6.331   7.651 -1.2407 -0.4687  1.0451
  499TIP3   OH223055   2.492   1.827   1.237 -0.2966  0.2974 -0.4580
  499TIP3    H123056   2.551   1.760   1.202 -1.0068 -0.9795  0.6821
  499TIP3    H223057   2.405   1.800   1.208 -0.6410  0.4898  0.3742
  500TIP3   OH223058   5.712   0.313   1.954 -0.3075 -0.0950  0.6524
  500TIP3    H123059   5.636   0.368   1.970 -0.0573  0.9765 -1.5685
  500TIP3    H223060   5.777   0.343   2.017 -1.2252 -0.0551  1.6065
  501TIP3   OH223061   1.173   6.538   1.740 -0.2249  0.6217 -0.1832
  501TIP3    H123062   1.188   6.603   1.809  0.3444 -0.5162  0.8114
  501TIP3    H223063   1.189   6.585   1.658  1.6232  1.3701  0.5651
  502TIP3   OH223064   4.082   0.054   1.392  0.1014  0.2376 -0.4095
  502TIP3    H123065   4.100  -0.015   1.456 -0.9750  0.7390  0.4855
  502TIP3    H223066   4.008   0.102   1.430  0.0358  1.1211 -1.6059
  503TIP3   OH223067   1.847   3.813   8.539  0.7909  0.3011  0.1198
  503TIP3    H123068   1.875   3.724   8.560 -1.8646 -0.6399  0.0694
  503TIP3    H223069   1.878   3.867   8.612 -0.0657 -1.2286  1.6798
  504TIP3   OH223070   6.289   1.385   8.467  0.0497  0.0703  0.4128
  504TIP3    H123071   6.337   1.362   8.546 -0.1447  1.4269  0.9579
  504TIP3    H223072   6.246   1.468   8.488 -1.2728 -0.3184 -0.5878
  505TIP3   OH223073   4.475   1.581   2.089 -0.0095  0.4906 -0.0036
  505TIP3    H123074   4.512   1.512   2.144  1.3923  1.5500  0.4339
  505TIP3    H223075   4.520   1.661   2.117  0.8320  1.0595 -2.7412
  506TIP3   OH223076   1.837   0.650   0.688  0.3309  0.0444 -0.4652
  506TIP3    H123077   1.887   0.693   0.758  0.1530  0.3526 -0.5255
  506TIP3    H223078   1.863   0.695   0.608 -0.8775  0.9747 -0.3617
  507TIP3   OH223079   4.691   4.372   1.578 -0.4529 -0.4719 -0.5234
  507TIP3    H123080   4.758   4.351   1.513 -0.6709  0.2019 -0.9738
  507TIP3    H223081   4.691   4.467   1.582 -2.8971 -0.3287 -2.1412
  508TIP3   OH223082   6.298   0.190   0.109 -0.2493 -0.1960 -0.9537
  508TIP3    H123083   6.341   0.122   0.056  0.9356 -0.7679  0.6642
  508TIP3    H223084   6.371   0.239   0.148 -1.0892  0.4681 -0.1896
  509TIP3   OH223085   4.299   2.295   7.799  0.3957 -0.0835  0.1089
  509TIP3    H123086   4.276   2.292   7.892  0.8871  3.1710  0.4673
  509TIP3    H223087   4.219   2.268   7.753  0.5889 -3.2187  1.3908
  510TIP3   OH223088   5.976   6.515   8.572  0.0564 -0.5314  0.7944
  510TIP3    H123089   5.993   6.422   8.563  0.0463 -0.3608 -1.4921
  510TIP3    H223090   6.046   6.557   8.522 -1.4752  0.5437 -0.5650
  511TIP3   OH223091   4.340   5.793   1.612 -0.0838  0.3301 -0.2321
  511TIP3    H123092   4.390   5.751   1.681 -1.5989 -1.2148 -0.0076
  511TIP3    H223093   4.250   5.764   1.626 -1.4196  4.0781  0.2748
  512TIP3   OH223094   3.859   6.400   7.956 -0.2515 -0.3054 -0.1586
  512TIP3    H123095   3.871   6.484   8.000 -1.6900  0.9905 -2.0910
  512TIP3    H223096   3.801   6.419   7.882 -1.3676 -3.1824 -0.1494
  513TIP3   OH223097   0.270   1.610   1.845 -0.2036  0.5673 -0.6201
  513TIP3    H123098   0.254   1.688   1.898  3.2569  2.1018 -1.5921
  513TIP3    H223099   0.300   1.643   1.761 -1.7053 -1.8723 -2.2526
  514TIP3   OH223100   1.615   0.001   6.868  0.0738 -0.1530  0.5903
  514TIP3    H123101   1.524  -0.029   6.865  0.3875 -1.2345 -2.7279
  514TIP3    H223102   1.661  -0.067   6.916 -0.8281  0.5353  2.5378
  515TIP3   OH223103   2.434   1.905   8.077 -0.3193  0.3577 -0.1282
  515TIP3    H123104   2.354   1.853   8.075  0.7085 -1.3439  0.9006
  515TIP3    H223105   2.498   1.850   8.121  0.7559  2.6468  1.3895
  516TIP3   OH223106   0.874   2.398   7.129 -0.0034 -0.1674  0.2209
  516TIP3    H123107   0.869   2.389   7.034 -0.7043  0.6429  0.1625
  516TIP3    H223108   0.807   2.464   7.150  0.0949 -0.3874  1.2803
  517TIP3   OH223109   2.128   6.261   6.695 -0.4747  0.5424  0.5015
  517TIP3    H123110   2.091   6.176   6.672  0.5837  0.6139 -1.7786
  517TIP3    H223111   2.152   6.252   6.788  0.0375 -1.8183  0.2140
  518TIP3   OH223112   0.997   4.051   0.905  0.7397 -0.0433 -0.1113
  518TIP3    H123113   0.970   4.139   0.877  2.0517 -0.2232 -2.1219
  518TIP3    H223114   0.997   4.056   1.001 -1.4681  1.4144 -0.1116
  519TIP3   OH223115   0.240   0.775   0.937  0.0734 -0.0568  0.5634
  519TIP3    H123116   0.208   0.719   1.007 -0.1681 -2.0121 -1.0234
  519TIP3    H223117   0.333   0.788   0.957 -0.0114 -0.5226  1.2834
  520TIP3   OH223118   3.142   4.328   1.482 -0.1420 -0.5817  0.0043
  520TIP3    H123119   3.122   4.415   1.518 -0.4322 -1.3258  1.7385
  520TIP3    H223120   3.071   4.272   1.514  1.3437 -1.9612  1.0064
  521TIP3   OH223121   4.238   5.955   1.850  0.1626  0.2717 -0.6795
  521TIP3    H123122   4.162   5.913   1.809 -0.6799  0.1956  0.9078
  521TIP3    H223123   4.236   6.045   1.818 -2.1332  0.9992  1.2674
  522TIP3   OH223124   4.984   3.620   8.484  0.2352  0.6992  0.2753
  522TIP3    H123125   4.968   3.611   8.578 -1.0796 -0.2446 -0.0142
  522TIP3    H223126   4.993   3.530   8.452 -3.1180  0.7084 -1.0743
  523TIP3   OH223127   1.488   2.273   2.956 -1.3600  0.3604 -0.2680
  523TIP3    H123128   1.536   2.349   2.926 -0.2296  0.3331  1.3660
  523TIP3    H223129   1.396   2.297   2.946 -1.0737  2.5837  1.6255
  524TIP3   OH223130   0.414   5.720   1.215  0.7126  0.2896  0.0101
  524TIP3    H123131   0.468   5.676   1.281  0.8999 -1.4221 -1.2128
  524TIP3    H223132   0.475   5.773   1.164  0.9529 -0.2039 -0.2207
  525TIP3   OH223133   1.507   3.021   0.279 -0.3709 -0.1140 -0.2949
  525TIP3    H123134   1.491   2.970   0.358 -0.3464  2.5378  1.5466
  525TIP3    H223135   1.586   2.983   0.241 -0.0212 -1.0718  1.3168
  526TIP3   OH223136   5.809   6.436   6.992  0.8383 -0.4614 -0.4501
  526TIP3    H123137   5.797   6.530   7.004  0.6091 -0.5390 -0.0580
  526TIP3    H223138   5.879   6.412   7.053  1.2349 -0.4624 -0.8978
  527TIP3   OH223139   6.094   1.001   0.263 -0.0717  0.6061 -0.3851
  527TIP3    H123140   6.034   1.059   0.217 -0.4535 -0.0219 -0.6897
  527TIP3    H223141   6.044   0.921   0.279 -0.5191  1.3476  2.5678
  528TIP3   OH223142   0.914   1.051   7.073  0.5925  0.7095 -0.3879
  528TIP3    H123143   0.848   1.120   7.084  1.6441  1.4452  2.1413
  528TIP3    H223144   0.992   1.097   7.045  1.7839  0.9637  2.9209
  529TIP3   OH223145   1.992   1.936   0.029 -0.8361 -0.0525  0.2689
  529TIP3    H123146   1.936   2.004   0.066 -0.3638  0.1113  0.6929
  529TIP3    H223147   1.973   1.939  -0.065 -0.0729  1.3849  0.1267
  530TIP3   OH223148   0.341   2.844   1.110 -0.1661  0.1971  0.1083
  530TIP3    H123149   0.370   2.889   1.189 -1.7624  0.1468  0.7580
  530TIP3    H223150   0.277   2.902   1.071  0.9321  0.4326 -1.4395
  531TIP3   OH223151   4.380   2.643   1.251  0.1043  0.4143 -0.2228
  531TIP3    H123152   4.452   2.612   1.306 -2.2208 -1.4078  2.1140
  531TIP3    H223153   4.345   2.719   1.298  0.6934  1.5624 -1.5676
  532TIP3   OH223154   0.928   4.311   0.830 -0.5475 -0.1399 -0.4909
  532TIP3    H123155   0.973   4.395   0.844 -0.1344 -0.5026  0.4496
  532TIP3    H223156   0.913   4.308   0.735 -0.0700  0.7428 -0.6135
  533TIP3   OH223157   0.648   3.510   8.493 -0.3495 -0.5459 -0.1028
  533TIP3    H123158   0.591   3.538   8.564  1.4240 -1.0862  1.5976
  533TIP3    H223159   0.588   3.468   8.430 -2.0877  0.8923  0.5047
  534TIP3   OH223160   4.921   6.050   2.186 -0.5251  0.3761 -0.2220
  534TIP3    H123161   4.946   5.986   2.253  1.3037  0.1398 -1.0577
  534TIP3    H223162   4.837   6.018   2.153 -0.2497 -0.9214  0.2474
  535TIP3   OH223163   3.078   4.489   2.816 -0.0682 -0.2362 -0.5731
  535TIP3    H123164   3.139   4.484   2.742 -1.3351 -1.0265 -1.6129
  535TIP3    H223165   3.113   4.428   2.881  1.4989  1.0611 -0.1460
  536TIP3   OH223166   3.124   4.708   0.156  0.4036  0.4569 -0.0507
  536TIP3    H123167   3.074   4.788   0.172  1.9651  1.1411  1.6861
  536TIP3    H223168   3.083   4.642   0.213  1.3885  1.0110  1.3515
  537TIP3   OH223169   4.331   2.093   8.394 -0.5625  0.3870  0.1002
  537TIP3    H123170   4.283   2.077   8.475 -0.3944  1.1450  0.3623
  537TIP3    H223171   4.272   2.147   8.342 -0.6983 -0.1603 -0.3145
  538TIP3   OH223172   0.656   0.683   8.021  0.0376  0.1089  0.2203
  538TIP3    H123173   0.734   0.726   8.055  0.2307 -0.8014  1.0002
  538TIP3    H223174   0.669   0.682   7.927  0.4380  0.9540  0.2559
  539TIP3   OH223175   4.779   5.726   1.515  0.2103 -0.1899  0.3137
  539TIP3    H123176   4.732   5.763   1.590  0.6576  0.1338  0.4419
  539TIP3    H223177   4.776   5.794   1.449  1.0473  0.0898  0.5536
  540TIP3   OH223178   3.190   2.324   8.007  0.2682  0.3011 -0.0502
  540TIP3    H123179   3.235   2.242   8.026  2.2719  0.4767 -3.2632
  540TIP3    H223180   3.202   2.376   8.087 -0.2939 -2.1081  1.7445
  541TIP3   OH223181   6.222   0.741   8.509 -0.1263  0.2154 -0.0418
  541TIP3    H123182   6.217   0.757   8.415  0.0630  0.6803  0.0256
  541TIP3    H223183   6.141   0.777   8.545 -0.7501 -1.0080 -0.1640
  542TIP3   OH223184   6.741   2.685   0.092 -0.5493 -0.5602 -0.0796
  542TIP3    H123185   6.715   2.771   0.125 -0.1487 -0.1322 -0.8453
  542TIP3    H223186   6.661   2.649   0.054  0.0009  1.1022 -3.1846
  543TIP3   OH223187   5.492   2.365   1.159  0.3862 -0.6712 -0.3157
  543TIP3    H123188   5.551   2.376   1.233  1.3767 -3.7457 -0.5067
  543TIP3    H223189   5.421   2.428   1.174  0.9847 -0.6097  2.7461
  544TIP3   OH223190   4.713   3.273   0.252  0.8022  0.1067  0.4769
  544TIP3    H123191   4.662   3.221   0.190 -1.7649  2.0939  0.7824
  544TIP3    H223192   4.726   3.357   0.209  3.8261 -0.2597  0.4783
  545TIP3   OH223193   3.619   2.134   7.453 -0.3482 -0.3186  0.5921
  545TIP3    H123194   3.595   2.224   7.432  0.5719 -0.1322  0.2870
  545TIP3    H223195   3.695   2.142   7.510 -0.9924 -0.8937  1.5569
  546TIP3   OH223196   0.964   6.165   2.204 -0.2271 -0.4250  0.4050
  546TIP3    H123197   0.946   6.131   2.292  0.4951 -0.9255  0.3690
  546TIP3    H223198   1.013   6.246   2.220  2.3374 -1.8847  0.4934
  547TIP3   OH223199   0.353   1.984   6.919  0.0427 -0.5254  0.0629
  547TIP3    H123200   0.375   2.030   6.839  0.0360 -1.1413 -0.2955
  547TIP3    H223201   0.258   1.976   6.918 -0.0018 -0.0520  0.3994
  548TIP3   OH223202   5.243   3.081   1.247 -0.2722 -0.0002  0.6386
  548TIP3    H123203   5.298   3.003   1.247 -0.4623 -0.2580 -2.4532
  548TIP3    H223204   5.305   3.154   1.254  0.4189 -0.3379 -1.3916
  549TIP3   OH223205   1.122   4.750   2.547 -0.3518  0.2461 -0.0459
  549TIP3    H123206   1.036   4.791   2.541 -1.1506 -1.1715  1.0767
  549TIP3    H223207   1.103   4.659   2.570  1.4552 -0.0019  0.6032
  550TIP3   OH223208   2.923   3.384   1.043  0.1447  0.4386 -0.0282
  550TIP3    H123209   2.903   3.297   1.009  0.6283  0.1490  0.4043
  550TIP3    H223210   2.871   3.443   0.989 -0.0468 -0.1008 -0.4526
  551TIP3   OH223211   3.952   4.000   1.922  0.0405 -0.1743  0.4377
  551TIP3    H123212   3.879   3.996   1.862  0.6921  0.4710 -0.4240
  551TIP3    H223213   3.916   3.972   2.006 -1.2293  0.2932  0.0705
  552TIP3   OH223214   3.491   1.015   0.313 -0.7043 -0.7291  0.3770
  552TIP3    H123215   3.450   1.063   0.241 -0.9430 -0.9600  0.3575
  552TIP3    H223216   3.540   1.082   0.362  1.2472 -0.8873 -1.2234
  553TIP3   OH223217   0.030   1.277   0.719  0.2127 -0.0133 -0.5683
  553TIP3    H123218   0.111   1.307   0.677 -0.0595  1.2167 -0.2622
  553TIP3    H223219  -0.039   1.295   0.655  0.0919 -0.3756 -0.5400
  554TIP3   OH223220   4.237   2.775   1.470  0.6427 -0.7077  0.4457
  554TIP3    H123221   4.159   2.773   1.415  0.2943  0.4928  0.8706
  554TIP3    H223222   4.262   2.867   1.473  0.5023 -0.6892  2.4870
  555TIP3   OH223223   4.225   1.499   7.584 -0.1729 -0.0256  0.6316
  555TIP3    H123224   4.241   1.594   7.584  2.0333 -0.3262  2.1655
  555TIP3    H223225   4.211   1.478   7.491  2.2573  1.4211 -0.1604
  556TIP3   OH223226   6.771   6.533   1.855  0.0105  0.3785  0.3681
  556TIP3    H123227   6.802   6.588   1.783 -0.4205  2.3795  1.6418
  556TIP3    H223228   6.688   6.573   1.882 -0.4929 -1.1192  1.1320
  557TIP3   OH223229   4.207   6.364   8.596 -0.5587  0.2013  0.0706
  557TIP3    H123230   4.197   6.446   8.548  3.0567 -1.5161 -4.3845
  557TIP3    H223231   4.135   6.309   8.564 -1.4072  0.7170  1.0213
  558TIP3   OH223232   5.722   3.119   0.761  0.9396 -0.0576 -0.3998
  558TIP3    H123233   5.795   3.102   0.820  0.2149  0.3273  0.6502
  558TIP3    H223234   5.681   3.034   0.749 -1.2824  0.3191  2.9562
  559TIP3   OH223235   2.184   5.821   1.853  0.3021 -0.0646 -0.0629
  559TIP3    H123236   2.211   5.834   1.944  0.5251 -0.4091 -0.0774
  559TIP3    H223237   2.159   5.729   1.849  1.1162 -0.2712 -0.5586
  560TIP3   OH223238   2.964   3.089   1.259  0.4839  0.7014 -0.1223
  560TIP3    H123239   2.928   3.010   1.299  1.0174  0.7411  0.4621
  560TIP3    H223240   2.891   3.151   1.257 -0.5691 -0.4856 -2.6127
  561TIP3   OH223241   3.377   1.734   1.857  0.3500  0.0456  0.1225
  561TIP3    H123242   3.339   1.809   1.811  1.4849 -0.4921 -1.8046
  561TIP3    H223243   3.340   1.738   1.945 -2.6851  0.5959 -1.0836
  562TIP3   OH223244   3.371   0.001   2.242 -0.2886  0.0806  0.1345
  562TIP3    H123245   3.445   0.059   2.260  0.8775 -1.4839  0.5931
  562TIP3    H223246   3.294   0.058   2.246  0.7087  1.4178  1.5700
  563TIP3   OH223247   5.565   0.809   6.747  0.1719  0.0539  0.1752
  563TIP3    H123248   5.509   0.855   6.810 -0.7669 -0.5892 -0.1594
  563TIP3    H223249   5.512   0.734   6.718  1.6673 -1.2990  0.7724
  564TIP3   OH223250   0.931   5.999   1.450  0.2406 -0.6409 -0.1289
  564TIP3    H123251   0.924   6.094   1.446 -2.4318 -0.8159 -1.3608
  564TIP3    H223252   0.855   5.971   1.500  1.0638 -2.1544  0.3482
  565TIP3   OH223253   3.340   2.575   0.715  0.2272  0.2503 -0.2528
  565TIP3    H123254   3.308   2.554   0.802  0.6503  1.1513  0.1423
  565TIP3    H223255   3.276   2.636   0.679  0.4866  0.5386 -0.2330
  566TIP3   OH223256   4.458   2.304   1.416 -0.7145 -0.5194 -0.2357
  566TIP3    H123257   4.551   2.282   1.424 -0.9251 -1.1812  0.6093
  566TIP3    H223258   4.454   2.398   1.436 -0.2650 -0.5616  0.0777
  567TIP3   OH223259   3.441   1.857   2.609 -0.0322 -1.1116 -0.6157
  567TIP3    H123260   3.509   1.822   2.666 -0.6728 -1.9281 -0.3263
  567TIP3    H223261   3.359   1.829   2.650 -0.5304 -0.6329 -1.2634
  568TIP3   OH223262   5.594   6.540   0.960  0.2587  0.2811 -0.1617
  568TIP3    H123263   5.660   6.557   0.893 -0.5000 -0.1071 -1.0239
  568TIP3    H223264   5.632   6.471   1.014  0.7476  0.3832 -0.3711
  569TIP3   OH223265   6.429   6.226   1.402  0.2813  0.3855 -0.4847
  569TIP3    H123266   6.498   6.283   1.438  0.5161 -0.0824 -0.1864
  569TIP3    H223267   6.366   6.217   1.474  0.2061  0.3248 -0.5579
  570TIP3   OH223268   5.002   6.573   7.153 -0.3489  0.0816  0.3987
  570TIP3    H123269   5.024   6.480   7.157 -0.2642  0.1215  1.0280
  570TIP3    H223270   5.064   6.614   7.213 -1.0464  0.4124  0.8998
  571TIP3   OH223271   5.873   2.096   7.342 -0.3856 -0.3310  0.0647
  571TIP3    H123272   5.851   2.006   7.316  0.8205  0.2912 -3.5359
  571TIP3    H223273   5.788   2.141   7.346 -1.5045 -2.1333  5.3514
  572TIP3   OH223274   5.147   1.013   1.652 -0.2545  0.2264 -0.1680
  572TIP3    H123275   5.086   0.944   1.677 -1.4335  1.2096 -0.2092
  572TIP3    H223276   5.123   1.088   1.707  1.3723  0.4550  0.2993
  573TIP3   OH223277   6.662   4.071   1.463  0.1946 -0.1438 -0.0198
  573TIP3    H123278   6.744   4.115   1.441  0.8345 -1.8454 -1.2533
  573TIP3    H223279   6.596   4.140   1.458  1.3741  1.0006 -0.2728
  574TIP3   OH223280   5.080   4.819   8.376  0.3626  0.5155  0.4201
  574TIP3    H123281   5.010   4.883   8.392 -1.1516 -1.0913  0.6061
  574TIP3    H223282   5.038   4.750   8.325  1.1767 -1.5706  2.3898
  575TIP3   OH223283   1.475   4.644   6.805  0.8252  0.4154 -0.2565
  575TIP3    H123284   1.413   4.572   6.814  0.3109  0.8581 -0.1728
  575TIP3    H223285   1.443   4.694   6.730  0.9689  0.7505 -0.0995
  576TIP3   OH223286   3.569   4.978   8.279  0.8951 -0.1336 -0.1457
  576TIP3    H123287   3.549   4.916   8.209 -0.8422  3.9653 -3.7206
  576TIP3    H223288   3.487   4.990   8.326  1.6636 -1.6522  1.7322
  577TIP3   OH223289   2.214   2.465   8.287 -0.1354  0.0890  0.5731
  577TIP3    H123290   2.186   2.377   8.260  1.1160 -0.4426  0.9339
  577TIP3    H223291   2.208   2.463   8.383 -1.1992  0.7985  0.5378
  578TIP3   OH223292   6.079   1.436   7.419  0.2349  0.4629  0.1434
  578TIP3    H123293   6.142   1.372   7.385  0.9192  0.8000  0.7304
  578TIP3    H223294   6.094   1.436   7.514  0.1966  1.4269  0.1587
  579TIP3   OH223295   5.744   3.310   7.787 -0.0919  0.8049  0.5564
  579TIP3    H123296   5.669   3.258   7.815 -1.2963  3.2759  2.2402
  579TIP3    H223297   5.811   3.293   7.853  0.7708 -1.0266 -0.6878
  580TIP3   OH223298   5.531   1.708   8.050  0.1691 -0.0046  0.0265
  580TIP3    H123299   5.595   1.758   8.000  0.5200  1.3965  1.7871
  580TIP3    H223300   5.583   1.656   8.112 -0.2062 -2.3837 -1.5214
  581TIP3   OH223301   4.512   3.171   8.368 -0.0832  0.0575 -0.0687
  581TIP3    H123302   4.506   3.091   8.316  1.6808 -0.3799  0.3510
  581TIP3    H223303   4.434   3.169   8.424  0.0595 -1.5050  0.1158
  582TIP3   OH223304   1.625   4.313   1.897 -0.3143 -0.0511 -0.3832
  582TIP3    H123305   1.632   4.247   1.966 -1.2398  0.6470  0.4065
  582TIP3    H223306   1.671   4.389   1.932  1.6668 -0.5596 -1.7193
  583TIP3   OH223307   6.567   4.833   0.920  0.4894 -0.0081 -0.0511
  583TIP3    H123308   6.651   4.847   0.965  1.4253 -0.7600 -1.4767
  583TIP3    H223309   6.530   4.755   0.962  1.0760 -0.3649 -0.1792
  584TIP3   OH223310   5.514   2.580   1.685  0.3822  0.9600 -0.1354
  584TIP3    H123311   5.579   2.631   1.636 -0.3841  0.3723 -1.8369
  584TIP3    H223312   5.538   2.489   1.668  0.3569  0.7361  0.9792
  585TIP3   OH223313   5.272   5.983   7.821 -0.8473  0.3888 -0.0529
  585TIP3    H123314   5.218   5.907   7.842  0.6234 -0.6730  0.0574
  585TIP3    H223315   5.291   5.974   7.728 -0.6932  0.6404 -0.0473
  586TIP3   OH223316   2.379   0.414   1.715  0.2986 -0.1123 -0.1617
  586TIP3    H123317   2.357   0.505   1.700 -0.4219 -0.2993 -0.2786
  586TIP3    H223318   2.309   0.364   1.671 -0.2161 -0.6934  1.2473
  587TIP3   OH223319   5.837   3.659   1.771 -0.7936 -0.0732  0.2689
  587TIP3    H123320   5.819   3.719   1.844 -2.9698 -0.3227 -0.0039
  587TIP3    H223321   5.796   3.577   1.797  1.1534 -1.1674  0.1107
  588TIP3   OH223322   0.716   6.566   1.159  0.8721 -0.1195  0.4666
  588TIP3    H123323   0.622   6.547   1.164  0.1613  2.4603 -0.9412
  588TIP3    H223324   0.741   6.589   1.248  0.0164 -0.2425  0.7502
  589TIP3   OH223325   6.405   4.641   7.735  0.2402 -0.1035  0.0242
  589TIP3    H123326   6.398   4.575   7.804 -0.2132  1.2537  1.3222
  589TIP3    H223327   6.346   4.611   7.666 -1.0903 -0.3396  1.2208
  590TIP3   OH223328   3.318   2.452   0.962 -0.2866  0.5760  0.4555
  590TIP3    H123329   3.241   2.442   1.018 -0.8167 -1.1443 -0.4977
  590TIP3    H223330   3.392   2.432   1.020 -0.6490  0.9953  1.0732
  591TIP3   OH223331   4.247   3.575   0.968  0.2851 -0.4049  0.1969
  591TIP3    H123332   4.312   3.522   0.921  1.0656  1.8015 -1.3766
  591TIP3    H223333   4.278   3.576   1.059  1.2177 -1.1755 -0.0990
  592TIP3   OH223334   0.567   5.425   2.881 -0.2816  0.5360 -0.4038
  592TIP3    H123335   0.660   5.410   2.869 -0.0217  0.7190  1.2061
  592TIP3    H223336   0.526   5.343   2.854  0.1093  1.1630 -3.2337
  593TIP3   OH223337   2.854   0.303   1.171 -0.7804 -0.0536 -0.1101
  593TIP3    H123338   2.927   0.365   1.164  0.3363 -1.3372 -0.2513
  593TIP3    H223339   2.872   0.238   1.102 -1.1579 -1.2887  0.9273
  594TIP3   OH223340   4.251   2.396   0.734 -0.4472 -0.0621  0.5868
  594TIP3    H123341   4.278   2.450   0.809  0.6291  0.4351 -0.1445
  594TIP3    H223342   4.192   2.452   0.684  2.1314  1.2355 -1.1992
  595TIP3   OH223343   3.697   1.700   2.705  0.3545 -0.4337 -0.1428
  595TIP3    H123344   3.689   1.731   2.795  0.9455  0.5734 -0.4107
  595TIP3    H223345   3.782   1.735   2.676  1.2833 -2.7031 -0.3433
  596TIP3   OH223346   6.616   0.208   8.634 -0.3185  0.3397 -0.1206
  596TIP3    H123347   6.598   0.115   8.648 -1.5849  0.7158  0.9014
  596TIP3    H223348   6.605   0.248   8.720  1.5238  1.2577 -0.2687
  597TIP3   OH223349   6.433   1.921   7.308  0.2926 -0.8552  0.0049
  597TIP3    H123350   6.512   1.972   7.289  0.9516 -1.8093  0.1160
  597TIP3    H223351   6.380   1.929   7.229  1.0600 -1.2140 -0.5643
  598TIP3   OH223352   2.790   2.643   1.400  0.2752 -0.2135  0.2967
  598TIP3    H123353   2.738   2.623   1.323  0.1865 -0.6881  0.4780
  598TIP3    H223354   2.749   2.594   1.471  0.1224  0.5133  0.7309
  599TIP3   OH223355   3.268   2.915   8.132  0.1330  0.4839 -0.7199
  599TIP3    H123356   3.186   2.959   8.153 -0.5561 -1.1068  0.0801
  599TIP3    H223357   3.328   2.940   8.202 -0.3726 -0.1447 -0.0550
  600TIP3   OH223358   0.433   5.757   7.936  0.4541 -0.0452  0.5875
  600TIP3    H123359   0.434   5.721   7.848 -0.5423  1.4205 -0.0600
  600TIP3    H223360   0.517   5.801   7.946  0.4073  0.1382  0.1959
  601TIP3   OH223361   1.642   1.206   7.682 -0.5156 -0.4601  0.2558
  601TIP3    H123362   1.684   1.127   7.717  0.4185  0.1297  0.4875
  601TIP3    H223363   1.714   1.258   7.646 -1.1126  0.3043  0.1448
  602TIP3   OH223364   2.823   6.735   7.809 -0.0976 -0.0001  0.7949
  602TIP3    H123365   2.790   6.825   7.810  0.8591  0.3969 -0.3926
  602TIP3    H223366   2.777   6.693   7.736 -0.1116 -0.2907  0.9699
  603TIP3   OH223367   3.408   2.649   6.807  0.3035 -0.1540  0.7581
  603TIP3    H123368   3.342   2.651   6.877  2.2725 -0.4158  2.7506
  603TIP3    H223369   3.492   2.661   6.853  1.6045  1.0884 -1.7546
  604TIP3   OH223370   6.225   5.665   1.041 -0.2082 -0.8522  0.0410
  604TIP3    H123371   6.263   5.629   0.960  0.2798  2.0169 -1.1429
  604TIP3    H223372   6.173   5.739   1.011  0.0232  0.3306  2.3820
  605TIP3   OH223373   1.343   4.849   7.151  0.3129  0.3559 -0.3886
  605TIP3    H123374   1.366   4.803   7.232  1.4472  0.5289 -0.5933
  605TIP3    H223375   1.426   4.857   7.104 -0.6002 -1.6116 -2.5420
  606TIP3   OH223376   0.553   1.435   1.358  0.3787 -0.3255  0.3437
  606TIP3    H123377   0.621   1.502   1.352  0.4596 -0.4188  0.2181
  606TIP3    H223378   0.549   1.414   1.451  0.1099  0.1039  0.4321
  607TIP3   OH223379   2.502   3.011   8.597  0.1701 -0.4862 -0.1634
  607TIP3    H123380   2.491   2.977   8.686  2.6002 -1.1365 -0.0363
  607TIP3    H223381   2.419   2.992   8.553 -0.7003 -1.0888  1.6671
  608TIP3   OH223382   5.645   1.271   7.111  0.0589  0.3723 -0.3409
  608TIP3    H123383   5.729   1.240   7.078  0.4280 -0.3867  1.2356
  608TIP3    H223384   5.610   1.326   7.040  2.3068  1.5222 -0.6398
  609TIP3   OH223385   1.426   1.207   2.317 -0.6946 -0.0381 -0.1437
  609TIP3    H123386   1.332   1.187   2.315 -0.2232 -2.7592  0.5567
  609TIP3    H223387   1.442   1.238   2.406 -0.6805 -1.1788  0.2650
  610TIP3   OH223388   2.992   2.358   0.121 -0.5953  0.1607 -0.2350
  610TIP3    H123389   2.955   2.377   0.207  1.4498  1.3522  0.4331
  610TIP3    H223390   2.924   2.384   0.059 -0.9095  2.2840  0.9375
  611TIP3   OH223391   2.114   6.162   2.645 -0.5221  0.0138 -0.4454
  611TIP3    H123392   2.118   6.190   2.554 -2.0717  1.3583 -0.1602
  611TIP3    H223393   2.021   6.147   2.661 -0.1179 -1.6558  0.5253
  612TIP3   OH223394   1.782   1.420   8.307  0.3879  0.4638 -0.3769
  612TIP3    H123395   1.848   1.447   8.242  0.6758  0.4402 -0.0986
  612TIP3    H223396   1.834   1.386   8.380  0.1351  2.0004  0.5533
  613TIP3   OH223397   3.243   2.577   8.233  0.1816 -0.2037 -0.2117
  613TIP3    H123398   3.214   2.613   8.149  1.9134 -0.6033 -1.0306
  613TIP3    H223399   3.287   2.650   8.276  1.0802 -0.5089 -0.5753
  614TIP3   OH223400   2.865   4.953   1.309 -0.3103  0.2938  0.7017
  614TIP3    H123401   2.950   4.911   1.321 -0.0793  1.0437  1.8255
  614TIP3    H223402   2.887   5.046   1.294 -0.9754  0.7198  2.2589
  615TIP3   OH223403   4.370   6.413   0.401 -0.7885 -0.4822  0.3152
  615TIP3    H123404   4.450   6.379   0.440  0.5973  1.3192 -0.8146
  615TIP3    H223405   4.347   6.488   0.455 -2.0588 -1.2870  0.9465
  616TIP3   OH223406   4.994   3.149   0.220  0.3529 -0.1017 -0.5752
  616TIP3    H123407   4.911   3.195   0.209  0.2740 -0.1092 -0.0452
  616TIP3    H223408   4.998   3.128   0.314  0.8969 -0.2042 -0.6156
  617TIP3   OH223409   6.523   5.568   0.919  0.4143 -0.1589  0.3465
  617TIP3    H123410   6.522   5.618   0.837  0.2157 -1.7864 -0.6994
  617TIP3    H223411   6.604   5.518   0.915  2.7429  2.9364  3.2904
  618TIP3   OH223412   5.509   1.755   7.041 -0.0663 -0.0905 -0.0825
  618TIP3    H123413   5.457   1.693   6.990  0.6687  0.2440 -1.2704
  618TIP3    H223414   5.517   1.832   6.985 -0.6413  0.9659  1.2105
  619TIP3   OH223415   2.487   4.406   1.559  0.1029  0.0343 -0.0651
  619TIP3    H123416   2.530   4.330   1.520 -1.7253 -0.9580 -0.2414
  619TIP3    H223417   2.558   4.470   1.569  1.2045 -0.7110 -2.3108
  620TIP3   OH223418   0.286   3.422   0.578  0.5699  0.5211 -0.2414
  620TIP3    H123419   0.194   3.434   0.554  1.1815  0.0853 -3.1350
  620TIP3    H223420   0.333   3.420   0.494  3.6748  3.8678  1.1626
  621TIP3   OH223421   0.861   0.335   1.881 -0.2268  0.6659  0.3139
  621TIP3    H123422   0.836   0.399   1.815 -0.9086  0.1081  0.0265
  621TIP3    H223423   0.813   0.255   1.858  1.8121 -0.4596 -0.2795
  622TIP3   OH223424   4.305   0.562   2.600  0.2391 -0.3389  0.2155
  622TIP3    H123425   4.329   0.653   2.616 -0.6869  0.1106 -0.8733
  622TIP3    H223426   4.346   0.540   2.517  0.6518 -1.0063  0.5796
  623TIP3   OH223427   1.044   1.492   0.310 -0.5171 -0.6429  0.5898
  623TIP3    H123428   1.024   1.455   0.396 -1.6957  1.6969  1.4118
  623TIP3    H223429   0.975   1.458   0.253 -1.4092  0.0019  1.2561
  624TIP3   OH223430   6.154   4.124   7.698  0.2263  0.6688  0.2905
  624TIP3    H123431   6.213   4.057   7.733 -1.7732 -0.6108  1.4264
  624TIP3    H223432   6.085   4.132   7.764 -1.2211  1.6224 -1.2552
  625TIP3   OH223433   0.537   6.232   0.468  0.7144 -0.2164  0.2686
  625TIP3    H123434   0.484   6.201   0.542  1.1016 -0.6893  0.3510
  625TIP3    H223435   0.509   6.178   0.395  1.0612 -0.4473  0.3053
  626TIP3   OH223436   6.499   6.294   7.011  0.2745  0.2828 -0.2742
  626TIP3    H123437   6.462   6.281   6.924 -0.0111 -1.8282  0.1198
  626TIP3    H223438   6.436   6.352   7.055  0.6541  1.7455 -1.5695
  627TIP3   OH223439   5.322   3.067   0.333 -0.1082  0.2652 -0.3873
  627TIP3    H123440   5.228   3.051   0.345  0.4748 -3.8928  0.0633
  627TIP3    H223441   5.355   3.082   0.422 -0.3529  2.4329 -0.6123
  628TIP3   OH223442   2.274   4.201   2.079  0.0925  0.2946  0.3573
  628TIP3    H123443   2.230   4.123   2.112 -0.1295 -0.1346 -0.8999
  628TIP3    H223444   2.219   4.274   2.107  0.9271  0.1348  2.5858
  629TIP3   OH223445   4.925   3.826   7.821  0.6963 -0.4310  0.1916
  629TIP3    H123446   5.002   3.867   7.862  0.4945  0.0497  0.0927
  629TIP3    H223447   4.934   3.847   7.728 -0.4073  1.0377  0.3906
  630TIP3   OH223448   1.813   6.769   8.100  0.3092  0.1246 -0.6487
  630TIP3    H123449   1.770   6.739   8.181 -0.3408  1.0438 -0.6329
  630TIP3    H223450   1.896   6.722   8.098  0.3607  0.1248  0.5950
  631TIP3   OH223451   0.183   6.234   1.395 -0.0142  0.0562  0.3188
  631TIP3    H123452   0.158   6.280   1.316 -1.4863 -1.0010  0.1272
  631TIP3    H223453   0.165   6.295   1.466  0.4069  0.6610 -0.0890
  632TIP3   OH223454   5.320   4.229   1.723  0.1008 -0.8761 -0.5925
  632TIP3    H123455   5.245   4.186   1.683 -0.3111 -0.2462 -0.5209
  632TIP3    H223456   5.393   4.169   1.708 -0.3108 -1.2630 -1.1098
  633TIP3   OH223457   2.096   5.863   7.367  0.3385 -0.1669 -0.3701
  633TIP3    H123458   2.113   5.901   7.280  1.2423 -2.3362 -1.2147
  633TIP3    H223459   2.176   5.879   7.417  0.1279  0.3739 -0.2025
  634TIP3   OH223460   6.837   3.735   0.800 -0.5354  0.4033 -0.0828
  634TIP3    H123461   6.793   3.650   0.792 -1.6972  0.9468  0.3603
  634TIP3    H223462   6.777   3.789   0.850  0.1107  1.5533 -0.5064
  635TIP3   OH223463   5.914   3.133   0.296 -0.0473  0.2324  0.9461
  635TIP3    H123464   5.884   3.196   0.361 -1.0388  0.2826  0.4575
  635TIP3    H223465   5.969   3.183   0.236  1.6994 -0.0169  2.2857
  636TIP3   OH223466   4.879   5.690   8.490 -0.4424 -0.3085  0.3523
  636TIP3    H123467   4.824   5.643   8.552  0.2027 -0.5549  0.7523
  636TIP3    H223468   4.836   5.678   8.405 -1.0477 -0.4131  0.6670
  637TIP3   OH223469   1.897   0.843   0.446 -0.2128  0.0101  0.1172
  637TIP3    H123470   1.977   0.879   0.409  0.1640 -0.5183  0.3947
  637TIP3    H223471   1.875   0.902   0.518  0.1741 -0.0865  0.3162
  638TIP3   OH223472   1.946   4.050   7.470  0.2153  0.1897  0.1407
  638TIP3    H123473   1.874   4.065   7.410  0.3096  2.1857  0.4610
  638TIP3    H223474   2.024   4.077   7.421  0.5429 -0.1769  0.4481
  639TIP3   OH223475   0.581   4.617   1.759  0.4371  0.2551 -0.3580
  639TIP3    H123476   0.666   4.649   1.788  1.4399 -1.5030 -1.2330
  639TIP3    H223477   0.594   4.523   1.745 -1.9863 -0.3287  0.7392
  640TIP3   OH223478   1.362   0.257   6.774 -0.0036  0.7573 -0.2571
  640TIP3    H123479   1.276   0.219   6.755  0.4826 -1.6628  1.9303
  640TIP3    H223480   1.423   0.207   6.719  0.4575 -0.6258  1.4458
  641TIP3   OH223481   3.233   5.344   1.657  0.2350 -0.0595  0.3473
  641TIP3    H123482   3.182   5.425   1.657  0.4415  0.0724 -0.6202
  641TIP3    H223483   3.238   5.318   1.566  2.7971  0.5015  0.2395
  642TIP3   OH223484   0.868   0.474   0.715 -0.1211 -0.1006  0.6919
  642TIP3    H123485   0.896   0.396   0.667  1.9420  0.3151  1.1261
  642TIP3    H223486   0.810   0.441   0.783 -2.2732 -0.8092 -1.3796
  643TIP3   OH223487   1.365   0.522   6.777  0.1468  0.3807 -0.2311
  643TIP3    H123488   1.282   0.551   6.740  1.5473  1.9236 -2.4322
  643TIP3    H223489   1.364   0.427   6.767 -0.9632  0.4730 -1.1665
  644TIP3   OH223490   3.806   2.423   7.182 -0.6740 -0.6680 -0.3024
  644TIP3    H123491   3.867   2.458   7.117  1.2128  1.7054  2.4529
  644TIP3    H223492   3.745   2.494   7.199 -1.8037 -1.6305 -0.1900
  645TIP3   OH223493   5.675   6.430   6.734 -0.3085 -0.0115  0.3847
  645TIP3    H123494   5.650   6.522   6.742 -1.0872 -0.2364  0.7256
  645TIP3    H223495   5.712   6.407   6.819 -0.4882 -0.1108  0.4390
  646TIP3   OH223496   1.311   4.133   8.321  0.3242  0.4017 -0.2557
  646TIP3    H123497   1.341   4.193   8.253 -0.3983  1.7468  0.5400
  646TIP3    H223498   1.383   4.129   8.384  0.4953  0.1891 -0.4674
  647TIP3   OH223499   3.455   3.334   2.180  0.5281  0.2092  0.8115
  647TIP3    H123500   3.454   3.418   2.133  1.2687  0.5888  1.4613
  647TIP3    H223501   3.386   3.283   2.137  2.4721 -0.2322 -2.1091
  648TIP3   OH223502   1.057   2.814   1.692 -1.0153 -0.0846 -0.0934
  648TIP3    H123503   1.071   2.732   1.645 -0.3692  0.9486 -1.8019
  648TIP3    H223504   0.983   2.855   1.648 -0.1275  1.1118 -0.5384
  649TIP3   OH223505   0.295   4.335   2.768  0.2849  0.6152  0.0927
  649TIP3    H123506   0.313   4.413   2.715 -0.3062  0.4361 -0.3831
  649TIP3    H223507   0.378   4.317   2.813  0.6110  1.1425 -0.2812
  650TIP3   OH223508   1.254   0.136   2.078  0.3495  0.3917 -0.0047
  650TIP3    H123509   1.259   0.080   2.000  2.5714 -0.8323  0.9413
  650TIP3    H223510   1.261   0.076   2.152  0.4294  1.7269  1.1193
  651TIP3   OH223511   5.911   6.413   7.284  0.5351  0.2525  0.3763
  651TIP3    H123512   5.990   6.359   7.292  0.7782  0.6568  0.7523
  651TIP3    H223513   5.840   6.355   7.311  0.2472 -1.1626 -2.9869
  652TIP3   OH223514   6.617   1.158   8.293  0.1243  0.4947  0.0696
  652TIP3    H123515   6.536   1.111   8.313  0.4964  0.3479  1.3073
  652TIP3    H223516   6.617   1.165   8.198 -0.1370 -1.7046 -0.1526
  653TIP3   OH223517   6.180   2.111   1.355 -0.0541  0.0644  0.0573
  653TIP3    H123518   6.172   2.188   1.411 -1.5433  0.3201 -0.4678
  653TIP3    H223519   6.234   2.140   1.282 -0.5945  0.6217 -0.1306
  654TIP3   OH223520   2.734   2.964   1.379 -0.2690  0.0603 -0.2837
  654TIP3    H123521   2.745   2.872   1.355 -2.5831 -0.7632  1.3934
  654TIP3    H223522   2.701   3.006   1.300 -0.4661 -0.8610 -0.7025
  655TIP3   OH223523   1.757   1.865   1.370  0.9288  0.5586  0.4324
  655TIP3    H123524   1.683   1.805   1.374  1.2001  0.0595 -1.0881
  655TIP3    H223525   1.729   1.933   1.308  1.0134  1.4471  1.3496
  656TIP3   OH223526   2.410   5.102   7.602 -0.0748  0.3264 -0.5420
  656TIP3    H123527   2.394   5.109   7.696 -0.3231 -0.7951 -0.4881
  656TIP3    H223528   2.491   5.052   7.596 -0.5404 -0.3903 -0.9369
  657TIP3   OH223529   5.804   1.677   1.859  0.0892 -0.0168  0.4875
  657TIP3    H123530   5.771   1.741   1.923 -0.5608 -0.9564  1.1171
  657TIP3    H223531   5.776   1.712   1.774  1.8273  1.7710  0.5753
  658TIP3   OH223532   1.575   0.508   1.431  0.4245  0.0033  0.5198
  658TIP3    H123533   1.664   0.538   1.447  0.7060 -0.5007 -0.0391
  658TIP3    H223534   1.519   0.583   1.450  1.1298  1.0398 -1.2499
  659TIP3   OH223535   5.488   3.790   7.911  0.1509  0.2612 -0.5193
  659TIP3    H123536   5.554   3.858   7.898  0.0388  0.3481 -0.6371
  659TIP3    H223537   5.476   3.751   7.825 -1.4087  1.5826 -0.9620
  660TIP3   OH223538   4.234   5.908   6.943  0.1843  0.4559  0.1077
  660TIP3    H123539   4.157   5.886   6.996 -0.6855  0.7974 -0.9868
  660TIP3    H223540   4.305   5.859   6.984 -0.5371  0.4070  1.3585
  661TIP3   OH223541   0.910   0.587   1.130 -0.0702  0.5985 -0.1242
  661TIP3    H123542   0.929   0.637   1.209 -0.5502 -0.2690  0.5646
  661TIP3    H223543   0.996   0.562   1.097  0.1259  0.3430  0.5463
  662TIP3   OH223544   5.644   5.691   1.461 -0.5868 -0.1141  1.3708
  662TIP3    H123545   5.624   5.784   1.453  0.1805 -0.0642 -4.5485
  662TIP3    H223546   5.735   5.688   1.488  0.1176  1.1252 -0.6314
  663TIP3   OH223547   5.684   1.599   0.798  0.4354  0.2468 -0.2573
  663TIP3    H123548   5.691   1.694   0.798  1.9904  0.1679 -1.2746
  663TIP3    H223549   5.711   1.572   0.886  0.2988  0.7173 -0.0679
  664TIP3   OH223550   3.670   3.079   1.644  0.3577 -0.2966  0.1946
  664TIP3    H123551   3.592   3.120   1.682  0.9627  0.7854  0.3144
  664TIP3    H223552   3.694   3.137   1.571  0.8973 -0.7585  0.0014
  665TIP3   OH223553   2.791   1.796   0.586 -0.0089 -0.4333  0.4520
  665TIP3    H123554   2.868   1.809   0.641  0.1827  0.2789  0.0233
  665TIP3    H223555   2.818   1.730   0.522  0.5922  0.5480 -0.3315
  666TIP3   OH223556   1.172   1.768   1.516 -0.1905  0.1185 -0.8364
  666TIP3    H123557   1.180   1.859   1.490  1.0350  0.0770 -0.6714
  666TIP3    H223558   1.250   1.751   1.569 -0.9128 -0.7375  0.0013
  667TIP3   OH223559   1.820   1.436   0.266  0.5413  0.0901  0.1920
  667TIP3    H123560   1.767   1.398   0.336  1.5709 -0.2910  0.7897
  667TIP3    H223561   1.837   1.364   0.206  2.2108 -0.3776  1.1519
  668TIP3   OH223562   6.457   2.787   6.519  0.0833  0.4480 -0.7271
  668TIP3    H123563   6.529   2.724   6.522 -1.6850 -1.6753  0.1723
  668TIP3    H223564   6.480   2.854   6.582  1.4315  0.0039 -0.7305
  669TIP3   OH223565   1.743   4.107   6.675  0.2832  0.1046  0.0066
  669TIP3    H123566   1.704   4.091   6.760  0.3533  2.3118  0.5064
  669TIP3    H223567   1.836   4.085   6.687  0.4713  1.2877  0.7794
  670TIP3   OH223568   4.492   2.762   0.500  0.1110  0.0940  0.1594
  670TIP3    H123569   4.418   2.761   0.561 -0.7935 -1.4720 -0.8920
  670TIP3    H223570   4.567   2.738   0.554 -1.1142 -4.2478  0.3049
  671TIP3   OH223571   5.958   1.810   7.455 -0.0231  0.3444  0.3752
  671TIP3    H123572   6.049   1.782   7.450 -0.3218 -0.7090  0.6142
  671TIP3    H223573   5.907   1.730   7.440 -0.9294  1.1785 -1.3736
  672TIP3   OH223574   4.387   4.731   0.173 -0.0673 -0.0977 -0.0515
  672TIP3    H123575   4.415   4.779   0.095 -0.2415  1.8591  1.0196
  672TIP3    H223576   4.364   4.644   0.141 -0.0141  0.6084 -2.1455
  673TIP3   OH223577   6.095   0.019   2.485  0.5229 -0.6222 -0.4878
  673TIP3    H123578   6.129  -0.055   2.536  2.8930 -0.0010 -1.0065
  673TIP3    H223579   6.174   0.061   2.450 -0.7128  2.2965 -0.0270
  674TIP3   OH223580   4.864   6.257   1.878  0.2844 -0.2366 -0.8895
  674TIP3    H123581   4.831   6.283   1.792 -0.9862 -0.3550 -0.4581
  674TIP3    H223582   4.919   6.180   1.860 -1.6422 -1.5724 -1.4138
  675TIP3   OH223583   0.122   3.298   0.060 -0.0227  0.0857  0.5307
  675TIP3    H123584   0.071   3.267   0.135 -0.4414  0.6672  0.4983
  675TIP3    H223585   0.152   3.385   0.087 -2.6691  1.6205 -1.0517
  676TIP3   OH223586   2.548   4.339   7.598  0.2555 -0.3794  0.4114
  676TIP3    H123587   2.519   4.322   7.508 -0.6614 -1.4213  0.8824
  676TIP3    H223588   2.470   4.368   7.644  0.1030 -2.2557  1.4494
  677TIP3   OH223589   4.047   4.924   1.644 -0.0526  0.2174 -0.3319
  677TIP3    H123590   4.110   4.892   1.708  0.8054 -1.1054 -1.7475
  677TIP3    H223591   4.060   5.019   1.642  1.2668  0.0641  0.0720
  678TIP3   OH223592   1.310   5.366   7.506  0.0105 -0.6046  0.6028
  678TIP3    H123593   1.233   5.310   7.493  0.1388 -0.5119 -0.6032
  678TIP3    H223594   1.298   5.438   7.445  1.5351 -1.0969 -0.3015
  679TIP3   OH223595   2.006   3.806   6.908 -0.5908 -0.6231 -0.0602
  679TIP3    H123596   1.950   3.794   6.985 -2.0183 -0.9858 -1.1136
  679TIP3    H223597   2.047   3.720   6.895  1.1262 -0.0692  1.3545
  680TIP3   OH223598   3.766   5.172   7.401 -0.5189 -0.3774  0.0782
  680TIP3    H123599   3.827   5.099   7.411 -1.6415 -1.3457  0.1051
  680TIP3    H223600   3.746   5.201   7.490  0.0443  0.0738  0.0621
  681TIP3   OH223601   3.509   5.440   0.677  0.6836  0.2167  0.1483
  681TIP3    H123602   3.549   5.361   0.640  0.8435 -0.6503  2.0779
  681TIP3    H223603   3.431   5.454   0.623  1.7504 -0.0345 -1.5198
  682TIP3   OH223604   4.724   5.197   1.494  0.1348 -0.3348  0.0948
  682TIP3    H123605   4.756   5.268   1.550  0.0493 -0.4042  0.2334
  682TIP3    H223606   4.634   5.184   1.522  0.5261 -1.3457  0.9431
  683TIP3   OH223607   1.052   6.074   2.466 -0.2523  0.3671 -0.2344
  683TIP3    H123608   1.124   6.064   2.403 -0.1908 -0.3319 -0.0539
  683TIP3    H223609   1.092   6.060   2.551 -0.3404  1.3043 -0.0284
  684TIP3   OH223610   1.158   2.308   0.990  0.3764 -0.2627 -0.1964
  684TIP3    H123611   1.175   2.333   0.900 -1.1287 -0.6265 -0.6202
  684TIP3    H223612   1.157   2.390   1.039  3.3755 -0.2196 -0.0496
  685TIP3   OH223613   3.313   0.587   8.597  0.1011  0.2985 -0.0864
  685TIP3    H123614   3.345   0.673   8.570  1.1258 -1.1484 -4.1487
  685TIP3    H223615   3.365   0.565   8.674  1.2573  2.4580 -0.1734
  686TIP3   OH223616   1.315   5.123   1.572 -0.4891 -0.1238  0.1241
  686TIP3    H123617   1.244   5.174   1.534 -1.2169  0.9880  2.7350
  686TIP3    H223618   1.331   5.164   1.657  1.4953 -1.9697  0.7344
  687TIP3   OH223619   2.916   4.200   0.560  1.0797  0.2548 -0.1514
  687TIP3    H123620   2.972   4.181   0.485  1.7027 -0.3861  0.4537
  687TIP3    H223621   2.961   4.272   0.605  0.9883  0.2840 -0.1069
  688TIP3   OH223622   4.480   0.422   8.664 -0.3807 -0.4891  0.3625
  688TIP3    H123623   4.397   0.447   8.704 -0.5976  0.2524 -0.5311
  688TIP3    H223624   4.536   0.399   8.738 -0.5108  1.6314  1.1828
  689TIP3   OH223625   6.116   1.165   1.021 -0.0927  0.4664 -0.8488
  689TIP3    H123626   6.122   1.220   0.943 -1.2741  1.6282 -0.1606
  689TIP3    H223627   6.092   1.226   1.091  2.7448 -0.2064  0.8417
  690TIP3   OH223628   2.044   3.822   7.640  0.4510  0.6087 -0.9437
  690TIP3    H123629   2.021   3.915   7.646 -2.0115 -0.0360  1.1961
  690TIP3    H223630   1.977   3.784   7.583  0.6518 -0.0790 -0.7337
  691TIP3   OH223631   2.577   1.151   0.969 -0.1867  0.1212  0.3363
  691TIP3    H123632   2.607   1.161   0.879  0.7657  0.5044  0.6876
  691TIP3    H223633   2.497   1.202   0.974  0.5672  1.3548  0.1001
  692TIP3   OH223634   0.788   3.892   1.539 -0.1277  0.1933  0.9545
  692TIP3    H123635   0.733   3.835   1.592 -3.1438  2.1437  0.1641
  692TIP3    H223636   0.803   3.969   1.594 -0.5747  0.8449  0.1894
  693TIP3   OH223637   4.013   3.508   2.732  0.3877 -0.1618  0.3415
  693TIP3    H123638   3.978   3.419   2.734  0.5296 -0.2705 -0.8186
  693TIP3    H223639   4.106   3.498   2.754  0.4382 -0.3346  0.0619
  694TIP3   OH223640   0.853   6.504   8.419 -0.0344  0.1292  0.2091
  694TIP3    H123641   0.766   6.507   8.379  0.3751  1.5271 -0.6363
  694TIP3    H223642   0.910   6.473   8.348  0.4075  0.8470  0.2456
  695TIP3   OH223643   0.923   0.775   1.339  0.1841  0.1412  1.2254
  695TIP3    H123644   1.000   0.826   1.364  1.0523 -1.0964  1.1864
  695TIP3    H223645   0.872   0.834   1.284  2.3319  0.2668 -0.8165
  696TIP3   OH223646   0.439   4.624   2.388  0.7058 -0.2362  0.3426
  696TIP3    H123647   0.440   4.559   2.459 -1.8679  0.1498  0.8552
  696TIP3    H223648   0.416   4.706   2.432 -3.0928 -0.3529 -1.0384
  697TIP3   OH223649   6.651   3.927   1.915 -0.4741  0.4309 -0.9359
  697TIP3    H123650   6.681   3.986   1.985  0.5813 -0.4974 -0.5622
  697TIP3    H223651   6.619   3.985   1.847  0.8619  1.4735 -0.7334
  698TIP3   OH223652   6.160   3.776   0.463  0.2677  0.0258  0.1346
  698TIP3    H123653   6.232   3.713   0.467 -0.0175 -0.4290 -1.2773
  698TIP3    H223654   6.189   3.841   0.399 -0.3768  0.0993 -0.0900
  699TIP3   OH223655   1.143   1.406   7.295  0.3345 -0.5184  0.0227
  699TIP3    H123656   1.212   1.472   7.293 -0.7977  0.7437  0.4767
  699TIP3    H223657   1.166   1.350   7.369  1.5314 -0.8963 -0.6170
  700TIP3   OH223658   3.482   6.585   7.394 -0.2020  0.0712  0.7974
  700TIP3    H123659   3.534   6.506   7.412 -0.1686  0.0502  0.6156
  700TIP3    H223660   3.543   6.643   7.348 -1.2634 -1.3443 -2.7208
  701TIP3   OH223661   5.745   3.549   0.659 -0.1541 -0.4897 -0.3451
  701TIP3    H123662   5.821   3.538   0.601 -0.9855 -0.4439 -1.4799
  701TIP3    H223663   5.671   3.519   0.607 -0.8294 -1.3111  1.0324
  702TIP3   OH223664   0.878   3.176   7.445  0.3813  0.3660  0.4286
  702TIP3    H123665   0.822   3.218   7.380  2.0266  1.3422 -0.4185
  702TIP3    H223666   0.850   3.084   7.446 -0.1583  0.4913 -1.1190
  703TIP3   OH223667   0.063   6.331   1.097 -0.3658 -0.1831  0.2222
  703TIP3    H123668  -0.024   6.293   1.101 -0.5363  0.2047  0.3167
  703TIP3    H223669   0.062   6.386   1.019  0.0305 -0.7357 -0.1809
  704TIP3   OH223670   3.154   1.341   7.689  0.2124 -0.2626  0.0932
  704TIP3    H123671   3.180   1.250   7.672  0.8741 -0.0810  0.0999
  704TIP3    H223672   3.058   1.341   7.682  0.2978 -0.6707 -1.3297
  705TIP3   OH223673   6.123   4.474   0.888  0.4165 -0.1498 -0.1496
  705TIP3    H123674   6.029   4.458   0.896  0.5758 -2.2845 -1.6781
  705TIP3    H223675   6.155   4.477   0.978 -1.0929  0.5749  0.3924
  706TIP3   OH223676   2.144   0.866   0.816 -0.4707 -0.2327 -0.3235
  706TIP3    H123677   2.100   0.943   0.778 -0.7981 -0.3502 -0.1843
  706TIP3    H223678   2.140   0.800   0.747 -1.7041 -0.6857  0.1513
  707TIP3   OH223679   0.393   4.597   8.015 -0.0983  0.0060  0.2290
  707TIP3    H123680   0.458   4.649   8.061 -0.4457 -1.0094  1.9566
  707TIP3    H223681   0.352   4.544   8.083 -0.8803 -1.3311 -1.2199
  708TIP3   OH223682   2.357   0.109   2.174 -0.2751  0.0532 -0.4636
  708TIP3    H123683   2.393   0.072   2.093 -0.1305  1.1037 -0.8916
  708TIP3    H223684   2.284   0.163   2.145 -0.5021  0.0842  0.1563
  709TIP3   OH223685   0.605   4.442   1.462  0.4377  0.9211 -0.2775
  709TIP3    H123686   0.683   4.409   1.419  0.5047  0.4858  0.1695
  709TIP3    H223687   0.620   4.426   1.555 -0.2565  0.6640 -0.2037
  710TIP3   OH223688   5.396   2.111   7.835  0.2568  0.4184 -0.5012
  710TIP3    H123689   5.469   2.101   7.896  0.2311 -0.4993 -0.6141
  710TIP3    H223690   5.386   2.206   7.825  2.2914  0.5840 -1.5187
  711TIP3   OH223691   6.278   2.254   8.607  0.3429 -0.4356  0.5447
  711TIP3    H123692   6.354   2.237   8.663  1.3602 -0.4841 -0.7933
  711TIP3    H223693   6.309   2.234   8.518 -1.3719 -0.8766  0.0096
  712TIP3   OH223694   4.910   1.367   0.452  0.0687 -0.0180  0.2092
  712TIP3    H123695   4.836   1.427   0.458  0.3866  0.2575  4.8438
  712TIP3    H223696   4.871   1.284   0.423 -1.4042  0.9292 -0.6261
  713TIP3   OH223697   6.144   2.711   2.029 -0.0618  0.2308  0.2613
  713TIP3    H123698   6.176   2.623   2.048  1.0431  0.2244 -1.4143
  713TIP3    H223699   6.110   2.706   1.939  0.2511  1.5538  0.0379
  714TIP3   OH223700   3.431   6.533   8.456  0.2297  0.6851 -0.2020
  714TIP3    H123701   3.506   6.481   8.483  0.1515  0.3556 -0.6086
  714TIP3    H223702   3.359   6.502   8.511  0.2191  0.4685 -0.3360
  715TIP3   OH223703   3.994   1.896   0.119 -0.1704  0.4914  0.7496
  715TIP3    H123704   4.045   1.907   0.199 -0.7569 -0.6168  1.3059
  715TIP3    H223705   3.905   1.921   0.143 -0.5940 -0.9639  0.7994
  716TIP3   OH223706   0.139   1.236   8.187 -0.4714 -0.1176 -0.7907
  716TIP3    H123707   0.110   1.171   8.251 -0.2994 -0.1252 -0.7198
  716TIP3    H223708   0.229   1.256   8.213 -0.6515  0.4352 -0.5804
  717TIP3   OH223709   5.598   3.500   7.240 -0.4347 -0.2675 -0.1611
  717TIP3    H123710   5.523   3.458   7.197 -0.7862 -0.6087  0.7622
  717TIP3    H223711   5.673   3.445   7.216 -0.7151 -0.7754  0.1046
  718TIP3   OH223712   0.033   3.292   2.347 -0.2578  0.1210  0.4049
  718TIP3    H123713   0.021   3.366   2.287 -0.6802 -0.0872  0.2279
  718TIP3    H223714   0.119   3.255   2.323 -0.0807  0.5047  0.4438
  719TIP3   OH223715   3.038   4.947   8.045  0.3487 -0.4684  0.6327
  719TIP3    H123716   3.013   4.855   8.043  0.8383 -0.6002 -1.0408
  719TIP3    H223717   2.992   4.986   7.971 -0.4793  0.8274  1.7831
  720TIP3   OH223718   1.260   1.424   0.521  0.1471 -0.5960 -0.2464
  720TIP3    H123719   1.284   1.359   0.455 -1.1107 -0.2789 -1.0589
  720TIP3    H223720   1.164   1.419   0.524  0.1243  0.2412  0.6990
  721TIP3   OH223721   2.464   5.096   0.150  0.0285  0.4235 -0.1585
  721TIP3    H123722   2.525   5.036   0.108  0.4655  0.5926  0.2184
  721TIP3    H223723   2.520   5.164   0.188 -0.4138  0.7187 -0.0255
  722TIP3   OH223724   6.635   6.275   7.372 -0.1167  0.1774 -0.0182
  722TIP3    H123725   6.648   6.341   7.304  2.3829  1.2471  1.3732
  722TIP3    H223726   6.707   6.288   7.433 -1.5453 -1.5462  2.2262
  723TIP3   OH223727   5.013   1.725   0.013 -0.0167 -0.4680  0.0342
  723TIP3    H123728   4.923   1.753  -0.006  0.0465 -0.7838 -0.7476
  723TIP3    H223729   5.050   1.702  -0.072  0.4945 -1.2705  0.4584
  724TIP3   OH223730   0.003   0.157   0.629  0.2899  0.8967 -0.0169
  724TIP3    H123731  -0.039   0.115   0.554 -1.3184  2.5260 -0.0733
  724TIP3    H223732   0.034   0.241   0.596 -1.1977  2.0229  1.2810
  725TIP3   OH223733   5.440   0.072   7.577  0.4636 -0.3903  0.0516
  725TIP3    H123734   5.404   0.057   7.490 -0.0431 -1.7239  0.4705
  725TIP3    H223735   5.534   0.083   7.563  0.3046  0.0276 -0.7146
  726TIP3   OH223736   4.464   0.048   1.136  0.7487 -0.3638 -0.1126
  726TIP3    H123737   4.553   0.070   1.163  0.6770 -0.2688  0.0456
  726TIP3    H223738   4.411   0.061   1.215  0.6091 -0.5050 -0.1821
  727TIP3   OH223739   4.207   1.363   0.744 -0.3260 -0.0200 -0.2035
  727TIP3    H123740   4.140   1.307   0.705 -1.7312 -0.4317  2.5619
  727TIP3    H223741   4.158   1.439   0.776  0.5587 -0.1153  1.4790
  728TIP3   OH223742   5.264   3.597   0.928 -0.1636 -0.5096  0.7024
  728TIP3    H123743   5.319   3.666   0.891 -2.0465  1.0781  0.6742
  728TIP3    H223744   5.176   3.617   0.896 -1.3406 -0.9908  3.3749
  729TIP3   OH223745   5.948   0.558   1.014  0.2373 -0.4004 -0.2712
  729TIP3    H123746   5.880   0.616   0.979  1.0023  0.5255 -0.2488
  729TIP3    H223747   5.927   0.551   1.107  0.1051 -0.2056 -0.2853
  730TIP3   OH223748   3.333   3.823   8.404  0.3260 -0.7454 -0.5001
  730TIP3    H123749   3.343   3.880   8.480  1.7299 -1.1003 -0.4062
  730TIP3    H223750   3.252   3.855   8.362  2.1181  2.8263 -1.6886
  731TIP3   OH223751   4.742   1.600   1.968  0.5233 -0.0942 -0.4112
  731TIP3    H123752   4.759   1.566   2.056  1.1120 -0.2618 -0.5832
  731TIP3    H223753   4.684   1.536   1.928 -2.3098  1.4874  0.8883
  732TIP3   OH223754   5.550   1.009   8.374 -0.3128  0.4646  0.3079
  732TIP3    H123755   5.606   0.992   8.450 -1.0286  0.6052  0.8757
  732TIP3    H223756   5.612   1.023   8.302  0.3628 -1.2988  0.4818
  733TIP3   OH223757   1.782   4.372   6.632 -0.0546  0.1413  0.2604
  733TIP3    H123758   1.789   4.277   6.641 -0.9745  0.0500  0.1405
  733TIP3    H223759   1.688   4.388   6.621  0.2831  0.7905 -2.5724
  734TIP3   OH223760   1.127   4.629   1.994 -0.2852 -0.3437 -0.0527
  734TIP3    H123761   1.054   4.597   2.047  0.8098 -0.2003  1.5971
  734TIP3    H223762   1.188   4.556   1.988 -0.2317 -0.2445 -0.8296
  735TIP3   OH223763   3.459   6.382   7.146  0.0318 -0.2590 -0.2035
  735TIP3    H123764   3.500   6.324   7.082  0.2971  0.1407 -0.4020
  735TIP3    H223765   3.526   6.395   7.213 -0.0158 -0.1554 -0.1753
  736TIP3   OH223766   2.305   0.421   0.464  0.5069  0.4375 -0.2370
  736TIP3    H123767   2.361   0.345   0.446  1.8776  0.7500  2.2305
  736TIP3    H223768   2.337   0.489   0.404  1.0065 -0.1641 -0.6674
  737TIP3   OH223769   0.971   2.031   0.248 -0.0987  0.3511  0.7401
  737TIP3    H123770   0.973   1.936   0.254 -2.7520  0.1154 -0.6365
  737TIP3    H223771   0.895   2.057   0.299 -0.1485  1.6177  0.0666
  738TIP3   OH223772   5.660   5.877   0.504  0.7081  0.3846 -0.1078
  738TIP3    H123773   5.731   5.878   0.439  0.6837  0.7605 -0.1293
  738TIP3    H223774   5.603   5.949   0.478  1.4714  1.4939  1.1844
  739TIP3   OH223775   2.864   2.011   8.613 -0.3191 -0.4655  0.4817
  739TIP3    H123776   2.890   2.063   8.536 -0.1222 -0.3847  0.5998
  739TIP3    H223777   2.798   1.951   8.580 -1.0445  0.3113  0.4824
  740TIP3   OH223778   3.219   5.818   1.825  0.3491 -0.5705 -0.0294
  740TIP3    H123779   3.193   5.875   1.753  0.5585 -2.6208 -1.8207
  740TIP3    H223780   3.314   5.829   1.831  0.0566  1.8247  2.0237
  741TIP3   OH223781   1.684   3.362   6.946 -0.8767 -0.0028  0.5487
  741TIP3    H123782   1.704   3.319   7.029 -0.0025 -0.5712  0.0558
  741TIP3    H223783   1.662   3.453   6.971 -1.0481 -0.2693  1.4256
  742TIP3   OH223784   5.192   4.853   2.916 -0.0682 -0.0239  0.5102
  742TIP3    H123785   5.108   4.833   2.874  0.1516 -1.5136  0.7414
  742TIP3    H223786   5.228   4.925   2.864 -0.5964 -0.6684 -0.8063
  743TIP3   OH223787   4.992   2.716   7.552  1.0352 -0.9096  0.1016
  743TIP3    H123788   4.959   2.643   7.603  0.5071 -0.8310 -0.1198
  743TIP3    H223789   4.920   2.780   7.552  0.5331 -1.4051 -1.7329
  744TIP3   OH223790   6.433   5.064   1.459  0.5078 -0.1515 -0.6002
  744TIP3    H123791   6.465   5.121   1.388 -0.6848 -0.7119 -1.6160
  744TIP3    H223792   6.429   4.977   1.420  2.7356 -1.0971  1.0647
  745TIP3   OH223793   5.883   0.538   1.495 -0.2441 -0.3143  0.4192
  745TIP3    H123794   5.832   0.538   1.576 -0.9285 -0.0942 -0.0063
  745TIP3    H223795   5.921   0.451   1.490 -0.4825 -0.4405  0.8018
  746TIP3   OH223796   4.500   5.018   7.571  0.4290  0.5569  0.4622
  746TIP3    H123797   4.513   5.069   7.491  0.3421 -0.1391 -0.0043
  746TIP3    H223798   4.588   4.988   7.595  0.1881 -1.2341 -0.7340
  747TIP3   OH223799   4.986   6.786   8.605  0.3079  0.1763  0.0264
  747TIP3    H123800   5.018   6.826   8.686  0.7549 -1.6388  0.8091
  747TIP3    H223801   4.994   6.855   8.539  1.5434  1.1894  1.1680
  748TIP3   OH223802   2.544   0.638   0.603 -0.2103 -0.1877  1.5603
  748TIP3    H123803   2.505   0.585   0.673  0.7451 -0.1708  2.1286
  748TIP3    H223804   2.570   0.719   0.647 -1.7337  0.8226  0.6844
  749TIP3   OH223805   1.627   4.228   0.150  0.6867 -0.7441  0.8541
  749TIP3    H123806   1.589   4.299   0.201  1.0642 -1.0419  1.5732
  749TIP3    H223807   1.553   4.172   0.127  0.4922 -0.5200  0.9363
  750TIP3   OH223808   3.133   6.465   1.568  0.0488 -0.1109  0.4676
  750TIP3    H123809   3.111   6.387   1.620 -1.4455 -0.2773 -0.3808
  750TIP3    H223810   3.057   6.479   1.511  0.7579  1.3272 -0.1770
  751TIP3   OH223811   1.116   3.087   7.340 -0.4001  0.3146  0.0626
  751TIP3    H123812   1.132   3.009   7.393  2.3422  1.0579  0.4616
  751TIP3    H223813   1.044   3.132   7.385 -0.7288 -1.0067  0.9120
  752TIP3   OH223814   6.407   0.790   1.034 -0.0387  0.4555 -0.0508
  752TIP3    H123815   6.365   0.863   1.080 -0.0176 -0.3293  1.2400
  752TIP3    H223816   6.333   0.738   1.000 -0.1577 -0.6422  1.7773
  753TIP3   OH223817   5.183   3.906   7.929 -0.4686 -0.1446  0.0594
  753TIP3    H123818   5.175   3.997   7.958  0.5281 -0.2861  0.8558
  753TIP3    H223819   5.276   3.885   7.941 -0.6108 -1.1501 -0.4771
  754TIP3   OH223820   6.015   5.530   1.177  0.0086  0.0449  0.2043
  754TIP3    H123821   6.056   5.451   1.214 -0.4063  0.7640  2.3460
  754TIP3    H223822   6.089   5.588   1.157  0.3470 -0.9576 -1.7535
  755TIP3   OH223823   5.595   6.338   7.821  0.6342  1.0442 -0.1819
  755TIP3    H123824   5.622   6.345   7.912  1.9942  0.2340 -0.4975
  755TIP3    H223825   5.539   6.415   7.807  1.2765  1.7647  1.0343
  756TIP3   OH223826   3.379   5.956   2.293  0.0662  0.2551 -0.6288
  756TIP3    H123827   3.450   5.968   2.355 -1.1250 -0.7840  1.0217
  756TIP3    H223828   3.347   6.044   2.275  1.5308  0.7035 -1.1503
  757TIP3   OH223829   6.361   0.954   6.916  0.3503 -0.0187  0.4605
  757TIP3    H123830   6.377   0.882   6.977  2.1302  0.0075  0.0987
  757TIP3    H223831   6.446   0.967   6.872 -0.5723  0.6747 -1.2328
  758TIP3   OH223832   0.256   3.032   6.245  0.4168 -0.7087  0.4364
  758TIP3    H123833   0.300   3.018   6.161 -1.2279 -0.8307 -0.4412
  758TIP3    H223834   0.163   3.030   6.224 -0.0236 -0.1115  2.1813
  759TIP3   OH223835   5.248   0.586   8.694 -0.2182  0.4656  0.0682
  759TIP3    H123836   5.329   0.636   8.692 -0.5766  1.0820 -1.8237
  759TIP3    H223837   5.185   0.641   8.647 -0.8746 -1.2858 -1.2416
  760TIP3   OH223838   6.405   2.868   0.206 -0.5156  0.1550  0.1357
  760TIP3    H123839   6.362   2.809   0.268  1.2486 -1.5959 -0.2113
  760TIP3    H223840   6.345   2.872   0.131 -1.4313  0.1934  0.8429
  761TIP3   OH223841   5.869   5.406   0.453 -0.0014  0.3265 -0.6674
  761TIP3    H123842   5.942   5.345   0.441  0.0544 -0.5138  2.7777
  761TIP3    H223843   5.894   5.457   0.530 -2.3234  1.1399 -0.3841
  762TIP3   OH223844   5.842   2.219   0.870  0.2766  0.1331  0.1301
  762TIP3    H123845   5.934   2.239   0.890 -0.1018  3.0284 -0.5913
  762TIP3    H223846   5.805   2.195   0.955  1.2941  0.8160  0.7994
  763TIP3   OH223847   6.145   5.133   6.868  0.2041  0.1946  0.5310
  763TIP3    H123848   6.190   5.213   6.841  2.0860 -0.3410  1.8809
  763TIP3    H223849   6.097   5.106   6.791 -0.6249  2.6900  0.0741
  764TIP3   OH223850   3.900   0.821   0.915 -0.1325 -0.1929  0.2196
  764TIP3    H123851   3.966   0.865   0.969  0.0412 -0.6534  0.3925
  764TIP3    H223852   3.880   0.741   0.964 -0.2068 -0.4604 -0.2441
  765TIP3   OH223853   6.399   2.168   7.587 -0.0677 -0.2930 -0.5806
  765TIP3    H123854   6.486   2.179   7.548 -0.1049  1.7278 -0.1763
  765TIP3    H223855   6.411   2.102   7.655  1.0343 -0.3812 -0.8417
  766TIP3   OH223856   5.305   2.882   6.689  0.1043  0.5918 -0.5504
  766TIP3    H123857   5.242   2.933   6.638  2.7170  1.9726 -2.6452
  766TIP3    H223858   5.344   2.822   6.626  0.2795 -0.8856  0.8962
  767TIP3   OH223859   0.943   1.203   8.634 -0.0645 -0.4566 -0.2403
  767TIP3    H123860   1.031   1.190   8.599  1.0656 -0.0843  2.2339
  767TIP3    H223861   0.929   1.298   8.629 -0.2041 -0.4879 -0.4112
  768TIP3   OH223862   5.772   4.390   6.827  0.1049  0.6194 -0.6833
  768TIP3    H123863   5.727   4.308   6.846  0.1426  0.7370 -0.0514
  768TIP3    H223864   5.704   4.448   6.793  0.3544 -0.1195 -2.5275
  769TIP3   OH223865   0.769   2.915   0.560  0.4822  0.2785  0.1446
  769TIP3    H123866   0.830   2.970   0.511  0.3016 -0.7619 -1.3215
  769TIP3    H223867   0.825   2.862   0.617  0.8770  0.0670 -0.4285
  770TIP3   OH223868   5.089   3.309   2.378  0.2972  0.0953  0.4092
  770TIP3    H123869   5.090   3.356   2.461 -1.0128  0.6631  0.1340
  770TIP3    H223870   5.181   3.297   2.356  0.7375  2.6550  0.4582
  771TIP3   OH223871   1.455   2.786   0.421 -1.0681 -0.2440  0.6672
  771TIP3    H123872   1.433   2.732   0.345 -0.9545 -0.0727  0.5104
  771TIP3    H223873   1.378   2.780   0.478 -0.6746 -1.3355  1.1003
  772TIP3   OH223874   3.697   5.053   1.363  0.7031  0.1258  0.2159
  772TIP3    H123875   3.677   5.005   1.283  0.5225  0.5335  0.0136
  772TIP3    H223876   3.706   4.985   1.430 -0.4065 -0.1397  0.1136
  773TIP3   OH223877   0.801   3.711   1.751 -0.0317  0.0648 -0.1146
  773TIP3    H123878   0.786   3.653   1.824 -0.2665  0.0695 -0.1586
  773TIP3    H223879   0.875   3.765   1.778 -0.7823  0.7870  0.5581
  774TIP3   OH223880   1.341   5.950   7.675 -0.6138 -0.0562 -0.3060
  774TIP3    H123881   1.322   5.972   7.766 -1.0370 -0.5844 -0.2611
  774TIP3    H223882   1.425   5.904   7.679 -0.3307  0.4514 -0.2601
  775TIP3   OH223883   1.489   0.490   7.045 -0.3703 -0.3122 -0.2260
  775TIP3    H123884   1.542   0.420   7.007 -0.8230 -0.0565 -1.3493
  775TIP3    H223885   1.431   0.519   6.974 -2.7958 -1.3069  1.2147
  776TIP3   OH223886   1.508   4.964   0.202  0.1379  0.8369 -0.1248
  776TIP3    H123887   1.549   5.027   0.144 -0.3991 -0.3703 -1.8771
  776TIP3    H223888   1.415   4.986   0.200 -0.0667 -0.0337 -0.8175
  777TIP3   OH223889   2.705   5.589   0.279  0.3882 -0.2385  1.0366
  777TIP3    H123890   2.630   5.587   0.339  1.1326 -0.6842  1.9870
  777TIP3    H223891   2.670   5.560   0.195 -0.8652  1.1883  1.0189
  778TIP3   OH223892   6.031   1.788   0.538 -0.5658 -0.6536 -0.1239
  778TIP3    H123893   6.040   1.833   0.453 -3.1096 -0.0367 -0.1688
  778TIP3    H223894   6.005   1.858   0.599 -1.1767 -1.4960  0.5981
  779TIP3   OH223895   6.675   6.443   0.385 -0.0019  0.6214 -0.0746
  779TIP3    H123896   6.644   6.526   0.422  0.8498  0.9781 -0.1427
  779TIP3    H223897   6.764   6.434   0.419  0.4666  0.5069 -1.2955
  780TIP3   OH223898   2.553   0.682   8.278  0.3753  0.7940  0.1192
  780TIP3    H123899   2.509   0.635   8.348  0.9602  0.1970  0.0995
  780TIP3    H223900   2.501   0.762   8.266 -0.6373  0.1564  0.1430
  781TIP3   OH223901   1.689   1.987   6.756 -0.1752 -0.0689 -0.0087
  781TIP3    H123902   1.648   2.070   6.781  2.2060  1.2321 -0.1241
  781TIP3    H223903   1.645   1.961   6.676  1.5259  3.2215 -2.2326
  782TIP3   OH223904   0.077   1.755   2.436  0.0076  0.9088  0.2976
  782TIP3    H123905   0.127   1.821   2.484 -0.3555  1.5048 -0.1479
  782TIP3    H223906   0.144   1.700   2.395  0.3459  2.8248 -1.8705
  783TIP3   OH223907   4.304   6.386   2.262  0.2664 -0.3007  0.3896
  783TIP3    H123908   4.262   6.417   2.343  1.3800  1.4401  0.3552
  783TIP3    H223909   4.232   6.356   2.208 -0.6991  0.3542  1.2676
  784TIP3   OH223910   2.308   3.793   8.571 -0.2822  0.4016  0.0040
  784TIP3    H123911   2.269   3.880   8.565 -2.1597 -0.3731  0.2740
  784TIP3    H223912   2.257   3.740   8.510  2.0870 -0.1257 -1.6634
  785TIP3   OH223913   1.579   1.255   6.362 -0.0878  0.2352  0.5631
  785TIP3    H123914   1.654   1.311   6.338  0.1618 -0.0850  0.5872
  785TIP3    H223915   1.554   1.285   6.449  0.1699  0.1793  0.6572
  786TIP3   OH223916   6.263   6.379   7.199 -0.0013  0.4146  0.0403
  786TIP3    H123917   6.305   6.346   7.278  1.3019 -0.7719 -1.0966
  786TIP3    H223918   6.266   6.474   7.207  0.3492  0.3107  1.2798
  787TIP3   OH223919   3.102   1.098   0.558  0.6455 -0.5180  0.0945
  787TIP3    H123920   3.168   1.040   0.518 -0.4277 -2.1175  0.5568
  787TIP3    H223921   3.020   1.076   0.513  0.0202 -0.0582  0.9865
  788TIP3   OH223922   1.801   3.552   1.398 -0.2690  0.6894 -0.6021
  788TIP3    H123923   1.765   3.588   1.317 -1.6157 -0.1817 -0.4293
  788TIP3    H223924   1.733   3.569   1.464 -1.0589 -2.1865 -0.5428
  789TIP3   OH223925   5.794   6.677   6.846  0.4043  0.7899 -0.2272
  789TIP3    H123926   5.736   6.660   6.921  1.0903  0.5637  0.2571
  789TIP3    H223927   5.852   6.746   6.875  1.9086 -0.5699  0.1428
  790TIP3   OH223928   2.457   1.515   8.281  0.2593 -0.4482  0.0492
  790TIP3    H123929   2.370   1.501   8.243  0.6124  0.1783 -1.0305
  790TIP3    H223930   2.443   1.579   8.351  0.0411  0.7179 -1.0267
  791TIP3   OH223931   1.659   2.081   2.246  0.4116 -0.0348 -0.0117
  791TIP3    H123932   1.642   2.033   2.327  0.8460  0.0451  0.1321
  791TIP3    H223933   1.572   2.095   2.207  0.2327 -0.4120  0.2419
  792TIP3   OH223934   3.698   5.335   0.294 -0.3101  0.1233  0.3086
  792TIP3    H123935   3.721   5.393   0.222  0.2054 -3.0456 -2.3277
  792TIP3    H223936   3.748   5.368   0.368  0.5617  2.4914 -1.2015
  793TIP3   OH223937   3.561   6.438   0.828 -0.1997  0.4056  0.4963
  793TIP3    H123938   3.496   6.508   0.833  0.2405  0.7563  1.4737
  793TIP3    H223939   3.512   6.357   0.844 -0.8120  0.4029 -1.1943
  794TIP3   OH223940   1.177   0.204   0.282  0.5383  0.3052 -0.6420
  794TIP3    H123941   1.112   0.174   0.218  0.1098 -0.1160 -0.0291
  794TIP3    H223942   1.195   0.126   0.335 -0.9993  1.2173  1.3434
  795TIP3   OH223943   1.407   4.918   0.732  0.0554  0.2977 -0.0668
  795TIP3    H123944   1.386   4.991   0.674  0.2841  0.8188  0.4881
  795TIP3    H223945   1.503   4.914   0.731  0.0212 -1.2328 -1.5776
  796TIP3   OH223946   4.635   1.257   0.684 -0.3986  0.6336  0.0110
  796TIP3    H123947   4.683   1.289   0.608 -0.0613  0.6129  0.2127
  796TIP3    H223948   4.553   1.221   0.648  0.8659 -1.7706 -0.6702
  797TIP3   OH223949   5.087   4.106   0.935  0.6994  1.0057  0.3845
  797TIP3    H123950   5.051   4.129   0.849 -1.4361 -1.5190  0.4682
  797TIP3    H223951   5.179   4.131   0.930  0.6736  0.8775 -2.6823
  798TIP3   OH223952   2.636   3.148   8.283 -0.1746 -0.2372  0.3601
  798TIP3    H123953   2.652   3.220   8.345  2.1287 -0.0893 -0.2953
  798TIP3    H223954   2.667   3.070   8.329 -0.2088 -0.4056  0.0953
  799TIP3   OH223955   0.902   5.862   7.941 -0.4870 -0.4404 -0.1643
  799TIP3    H123956   0.970   5.815   7.893  0.6725 -2.0317  2.7792
  799TIP3    H223957   0.899   5.948   7.899  2.3384 -0.7863 -1.3256
  800TIP3   OH223958   1.227   2.002   7.284  0.6436  0.1672 -0.3061
  800TIP3    H123959   1.201   2.093   7.279  2.9436  1.0022  1.1478
  800TIP3    H223960   1.169   1.956   7.222 -1.1710  2.4165 -0.3813
  801TIP3   OH223961   6.154   1.159   8.649  0.1086  0.3619 -0.0198
  801TIP3    H123962   6.074   1.176   8.697 -0.2444  1.2180 -0.8937
  801TIP3    H223963   6.182   1.244   8.615  0.3729 -0.1937 -1.2820
  802TIP3   OH223964   4.890   0.612   8.320  0.0043 -0.4052  0.1914
  802TIP3    H123965   4.881   0.685   8.381 -0.8911 -0.6338  0.3566
  802TIP3    H223966   4.872   0.534   8.373  0.0550 -0.6733 -0.1792
  803TIP3   OH223967   1.726   5.067   8.378 -0.5774 -0.1343  0.1920
  803TIP3    H123968   1.683   4.982   8.391 -1.6929  0.0388 -1.9326
  803TIP3    H223969   1.811   5.044   8.340 -1.0966 -0.3104 -0.8977
  804TIP3   OH223970   0.127   3.839   0.251 -0.3209 -0.2099  0.2117
  804TIP3    H123971   0.218   3.868   0.242 -1.2602  2.5870 -1.5177
  804TIP3    H223972   0.120   3.811   0.343  1.8133  1.2748  0.9008
  805TIP3   OH223973   1.789   1.493   6.773 -0.4689 -0.0541  0.0963
  805TIP3    H123974   1.731   1.568   6.785 -0.7897 -0.1111 -1.0006
  805TIP3    H223975   1.875   1.532   6.758 -0.2149  0.0318  1.5965
  806TIP3   OH223976   0.516   1.943   8.546 -0.2585  0.0252  0.3668
  806TIP3    H123977   0.594   1.890   8.532  0.0383  0.9885 -2.2409
  806TIP3    H223978   0.539   1.999   8.621  1.0639 -0.5867  0.4554
  807TIP3   OH223979   3.350   0.693   7.853  0.2252 -0.1721 -0.3004
  807TIP3    H123980   3.298   0.660   7.780 -0.4068  0.1713 -0.0105
  807TIP3    H223981   3.414   0.751   7.812  0.2599 -0.4466 -0.6401
  808TIP3   OH223982   2.187   3.932   7.118 -0.3391 -0.0830  0.0017
  808TIP3    H123983   2.122   3.912   7.050  1.3657  0.3042 -1.8249
  808TIP3    H223984   2.205   3.847   7.158 -1.1343 -0.3850 -0.2585
  809TIP3   OH223985   4.104   2.956   2.413  0.0762  0.3864  0.0560
  809TIP3    H123986   4.192   2.989   2.433  0.0886  1.5598 -1.7422
  809TIP3    H223987   4.045   3.017   2.456  0.1290  1.2097 -1.0175
  810TIP3   OH223988   2.002   6.008   2.209  0.6533  0.0007 -0.2452
  810TIP3    H123989   2.090   5.975   2.191  0.6930  0.1252 -0.2822
  810TIP3    H223990   1.984   6.068   2.137  0.9625  0.7972  0.3243
  811TIP3   OH223991   3.924   5.744   8.455  0.4583  0.0117 -0.3451
  811TIP3    H123992   4.018   5.743   8.474  0.7640 -1.2061 -1.7503
  811TIP3    H223993   3.892   5.661   8.490 -0.0324  0.2508 -0.2209
  812TIP3   OH223994   4.725   5.108   8.502 -0.0220  0.1974  0.0977
  812TIP3    H123995   4.721   5.037   8.565  0.2338 -0.7447 -0.9122
  812TIP3    H223996   4.707   5.187   8.553 -0.8172 -0.6388  1.1487
  813TIP3   OH223997   2.124   5.884   0.327 -0.5241  0.0190  0.4088
  813TIP3    H123998   2.096   5.896   0.236 -0.8013  0.4977  0.5556
  813TIP3    H223999   2.210   5.841   0.320 -0.2667  0.6026 -0.0993
  814TIP3   OH224000   3.239   1.550   7.397  0.1182  0.4642  0.7337
  814TIP3    H124001   3.177   1.597   7.341 -0.5379 -0.2039  0.8792
  814TIP3    H224002   3.187   1.479   7.436  0.5227  0.9666  2.2635
  815TIP3   OH224003   6.000   6.017   1.372 -0.1527 -0.0068 -0.4718
  815TIP3    H124004   5.979   5.930   1.340  0.4575  0.1497 -1.3165
  815TIP3    H224005   6.080   6.005   1.424  0.1038  0.0897 -0.8385
  816TIP3   OH224006   6.376   5.924   7.617  0.1694 -0.2708  0.3049
  816TIP3    H124007   6.411   5.941   7.529 -0.0560  1.0783  0.4544
  816TIP3    H224008   6.301   5.865   7.602  0.6279 -0.7189 -0.3121
  817TIP3   OH224009   0.745   1.105   7.967  0.6946  0.8239  0.2589
  817TIP3    H124010   0.661   1.122   8.011  1.5124  3.8140  0.8979
  817TIP3    H224011   0.785   1.036   8.020 -0.4382  0.9004  1.2888
  818TIP3   OH224012   5.967   3.655   7.400 -0.0851 -0.3201  0.1045
  818TIP3    H124013   6.007   3.575   7.365 -1.1123 -0.2076 -1.4611
  818TIP3    H224014   5.910   3.624   7.471  2.5570 -0.4847  2.2905
  819TIP3   OH224015   5.898   0.811   1.735 -0.0417 -0.7899  0.1325
  819TIP3    H124016   5.811   0.775   1.751 -1.1461  1.7875  0.5489
  819TIP3    H224017   5.917   0.862   1.814  1.1890 -0.1033 -0.5721
  820TIP3   OH224018   5.105   0.517   0.584  0.4002 -0.0083  0.0999
  820TIP3    H124019   5.041   0.528   0.654  0.7929  2.1182  0.2009
  820TIP3    H224020   5.185   0.489   0.628  0.7363  1.6223  0.6064
  821TIP3   OH224021   3.120   1.937   2.001 -0.8844 -0.3132 -0.2108
  821TIP3    H124022   3.168   1.999   2.056  0.4870  0.6833 -2.3971
  821TIP3    H224023   3.030   1.971   1.999 -1.1744 -0.7778  1.8879
  822TIP3   OH224024   4.753   4.082   6.897  1.0138 -0.3465  0.0869
  822TIP3    H124025   4.779   4.006   6.845  1.2112  1.2264 -2.2627
  822TIP3    H224026   4.821   4.147   6.882  0.0483  0.8687  0.7291
  823TIP3   OH224027   6.834   4.749   1.394  0.4160 -0.4765 -0.3512
  823TIP3    H124028   6.791   4.663   1.391  0.2735 -0.3846 -0.9077
  823TIP3    H224029   6.882   4.748   1.478  1.5870 -1.6707 -0.9933
  824TIP3   OH224030   6.591   2.948   2.208  0.1496  0.1290 -0.1301
  824TIP3    H124031   6.523   2.918   2.148  0.6074 -0.7771 -0.2190
  824TIP3    H224032   6.554   3.025   2.252 -0.5204  0.2659 -0.9314
  825TIP3   OH224033   0.579   5.793   0.430  0.2704  0.6643  0.2728
  825TIP3    H124034   0.567   5.802   0.525 -0.3037  1.4492  0.1387
  825TIP3    H224035   0.641   5.862   0.407 -0.5683  1.3130 -0.0982
  826TIP3   OH224036   2.067   1.172   1.988 -0.8545  0.7509  0.4388
  826TIP3    H124037   2.051   1.256   2.030 -2.5545  0.2799  0.8164
  826TIP3    H224038   2.023   1.108   2.045  1.9598 -0.6873  1.2239
  827TIP3   OH224039   6.341   6.456   1.250  0.3386  0.7535 -0.3387
  827TIP3    H124040   6.359   6.384   1.311  0.0890 -0.2222 -1.3871
  827TIP3    H224041   6.415   6.454   1.189  0.4704  1.5732 -0.2132
  828TIP3   OH224042   2.166   2.774   0.790  0.7545 -0.5302  0.4425
  828TIP3    H124043   2.251   2.729   0.786  0.9539 -0.0761 -0.8820
  828TIP3    H224044   2.106   2.708   0.825  1.4172 -1.2341  0.2873
  829TIP3   OH224045   2.382   4.048   0.773 -0.0288  0.1123  0.4555
  829TIP3    H124046   2.464   4.093   0.752  0.2407 -1.1283 -1.3516
  829TIP3    H224047   2.409   3.975   0.829 -0.0855  0.4864  0.9751
  830TIP3   OH224048   6.762   0.985   0.034  0.1644 -0.1891 -0.0254
  830TIP3    H124049   6.831   0.941   0.085  0.1977 -1.6277 -1.2630
  830TIP3    H224050   6.806   1.061  -0.003  0.6100 -0.1127  0.6253
  831TIP3   OH224051   2.193   0.718   7.462 -0.0274  0.1451 -0.1346
  831TIP3    H124052   2.230   0.777   7.397  1.0811 -0.5890 -0.1959
  831TIP3    H224053   2.264   0.658   7.483 -0.8099 -0.5169  0.7005
  832TIP3   OH224054   1.551   5.920   0.565  0.3381  0.1711 -0.2797
  832TIP3    H124055   1.491   5.994   0.557  1.8366  1.3048 -1.7241
  832TIP3    H224056   1.608   5.944   0.638 -0.7155 -0.7826  0.9149
  833TIP3   OH224057   4.525   2.038   0.275 -0.2047  0.2679  0.0394
  833TIP3    H124058   4.458   2.074   0.332  0.6895  0.6908  0.8551
  833TIP3    H224059   4.593   2.106   0.272 -0.8462  0.9230 -2.7091
  834TIP3   OH224060   6.755   0.455   8.586 -0.5826  0.2332 -0.2381
  834TIP3    H124061   6.687   0.388   8.588 -0.7108  0.3825  0.7133
  834TIP3    H224062   6.810   0.436   8.661 -0.6264  1.1913  0.0582
  835TIP3   OH224063   5.420   1.660   0.495 -0.0949 -0.3019 -0.5483
  835TIP3    H124064   5.425   1.567   0.517  0.8344 -0.5493 -1.6635
  835TIP3    H224065   5.327   1.676   0.478 -0.2128 -1.1374 -0.7317
  836TIP3   OH224066   1.829   4.128   1.753 -0.3811 -0.1163  0.1610
  836TIP3    H124067   1.795   4.199   1.808  0.4962  0.8993 -0.5685
  836TIP3    H224068   1.916   4.157   1.727 -0.4700 -0.9358 -1.1188
  837TIP3   OH224069   1.172   2.111   6.740 -0.5698  0.0393 -0.3916
  837TIP3    H124070   1.262   2.105   6.708  0.0592  1.6539  0.9008
  837TIP3    H224071   1.118   2.121   6.662  0.6694  1.6102 -1.0914
  838TIP3   OH224072   4.276   5.927   0.091  0.2045 -0.1520 -0.0321
  838TIP3    H124073   4.365   5.958   0.111 -0.6841  2.0959  0.8627
  838TIP3    H224074   4.247   5.983   0.019 -1.1696  0.5655  1.0292
  839TIP3   OH224075   0.764   0.393   0.959 -0.1464  0.3324 -0.4705
  839TIP3    H124076   0.711   0.353   1.027  3.0612  0.1335  2.1603
  839TIP3    H224077   0.789   0.478   0.995  2.5318 -0.2208 -0.8306
  840TIP3   OH224078   4.087   0.181   7.273 -0.8093 -0.1681  0.3451
  840TIP3    H124079   4.161   0.120   7.267 -0.8154 -0.0434 -1.6176
  840TIP3    H224080   4.020   0.134   7.321  0.0361 -0.8145  0.9158
  841TIP3   OH224081   2.003   2.886   0.223 -0.0942  0.0729 -0.7469
  841TIP3    H124082   2.074   2.902   0.162 -0.5169  1.0698 -0.9830
  841TIP3    H224083   1.971   2.973   0.247 -0.3545 -0.3193  0.3974
  842TIP3   OH224084   1.874   3.355   2.448  0.2481  0.1291  0.1713
  842TIP3    H124085   1.807   3.422   2.436  0.2429 -0.0000 -0.6257
  842TIP3    H224086   1.901   3.333   2.359  0.0954 -1.0791  0.4087
  843TIP3   OH224087   6.312   5.909   0.714 -0.3814  0.3279  0.1367
  843TIP3    H124088   6.363   5.968   0.769  2.3444 -0.3724 -1.4352
  843TIP3    H224089   6.283   5.839   0.773  0.3992  0.8295  1.1398
  844TIP3   OH224090   5.672   3.884   7.495 -0.1313 -0.0048  0.6568
  844TIP3    H124091   5.612   3.956   7.513  0.1479  0.2810  0.4700
  844TIP3    H224092   5.755   3.913   7.533  0.4430  0.5664 -0.9434
  845TIP3   OH224093   1.599   3.129   0.956 -0.5261 -0.2764  0.0945
  845TIP3    H124094   1.629   3.198   1.015 -0.3047  0.8358 -1.2732
  845TIP3    H224095   1.509   3.153   0.935 -0.4553 -0.4006 -0.3680
  846TIP3   OH224096   0.455   0.488   6.738 -0.4948 -0.2825  0.0295
  846TIP3    H124097   0.384   0.436   6.699  0.4681 -2.0462  0.5294
  846TIP3    H224098   0.486   0.543   6.666 -2.0923  0.2479 -0.2935
  847TIP3   OH224099   2.568   5.358   2.013 -0.0849 -0.2006  0.6221
  847TIP3    H124100   2.515   5.430   1.980  1.1192  0.3503 -0.2041
  847TIP3    H224101   2.509   5.308   2.069 -1.1076  1.0834  0.7379
  848TIP3   OH224102   3.893   0.464   1.368 -0.1139 -0.2574 -0.4348
  848TIP3    H124103   3.977   0.445   1.325 -0.5576 -1.6105 -0.7554
  848TIP3    H224104   3.843   0.511   1.302 -0.4727 -1.5760 -1.1413
  849TIP3   OH224105   3.668   2.346   7.879 -0.4226  0.5065  0.4173
  849TIP3    H124106   3.602   2.411   7.903 -0.9951  0.5443 -1.1523
  849TIP3    H224107   3.621   2.263   7.882 -0.4506  0.4886 -0.2873
  850TIP3   OH224108   5.632   6.153   0.725 -0.1299 -0.4761 -0.2363
  850TIP3    H124109   5.657   6.071   0.768  1.0930  0.0463  0.1090
  850TIP3    H224110   5.714   6.184   0.686 -0.6939  0.3250 -0.8004
  851TIP3   OH224111   4.827   3.086   1.032  0.2917 -0.2006  0.1159
  851TIP3    H124112   4.918   3.109   1.014  0.6443 -1.4737  0.1571
  851TIP3    H224113   4.795   3.156   1.090  1.5842 -0.3113  1.0081
  852TIP3   OH224114   2.937   6.723   0.020  0.5764  0.0317 -0.4617
  852TIP3    H124115   3.025   6.744  -0.010  0.9737 -0.4247  0.3444
  852TIP3    H224116   2.949   6.645   0.076 -0.2052  0.4969  0.3820
  853TIP3   OH224117   1.108   3.143   1.738 -0.0189 -0.8408  0.5095
  853TIP3    H124118   1.058   3.155   1.819 -1.1807  0.0247 -0.3132
  853TIP3    H224119   1.094   3.051   1.714 -1.5873 -0.5029  0.0647
  854TIP3   OH224120   1.486   5.143   8.594  0.3692  0.1181  0.2964
  854TIP3    H124121   1.433   5.064   8.599  0.5714 -0.0227  0.2450
  854TIP3    H224122   1.551   5.124   8.527 -0.1351  0.6677 -0.3595
  855TIP3   OH224123   4.415   3.461   1.836 -0.1062 -0.2758 -0.0744
  855TIP3    H124124   4.508   3.458   1.857  0.1470  0.6653 -0.9816
  855TIP3    H224125   4.411   3.441   1.743 -0.7730  0.1091 -0.1334
  856TIP3   OH224126   0.064   3.501   2.164 -0.0580  0.0176 -0.1697
  856TIP3    H124127   0.111   3.584   2.167  0.3769 -0.1526 -1.5726
  856TIP3    H224128   0.072   3.472   2.073  0.0528 -1.7041  0.3546
  857TIP3   OH224129   3.730   5.284   7.643  0.2920  0.0398  0.1477
  857TIP3    H124130   3.683   5.240   7.714 -0.9222 -1.7977 -1.6727
  857TIP3    H224131   3.822   5.265   7.661 -0.0818 -1.5299  0.5487
  858TIP3   OH224132   6.212   6.431   2.055 -0.9414 -0.1437  0.2424
  858TIP3    H124133   6.201   6.401   1.965 -1.0389  1.4234 -0.2806
  858TIP3    H224134   6.140   6.492   2.070 -0.0494  0.8012  0.8610
  859TIP3   OH224135   1.185   5.999   1.591 -0.0488  0.4825  0.0310
  859TIP3    H124136   1.090   6.014   1.588  0.0376  0.8913 -0.8077
  859TIP3    H224137   1.213   6.005   1.500  0.8377  0.6924  0.3110
  860TIP3   OH224138   3.273   5.042   2.210  0.2335  0.0230  0.7594
  860TIP3    H124139   3.368   5.051   2.201  0.0129  0.8860 -1.3345
  860TIP3    H224140   3.242   5.132   2.224 -0.5741  0.5000 -3.1110
  861TIP3   OH224141   2.923   6.021   0.436 -0.3830  0.5224 -0.1691
  861TIP3    H124142   2.969   6.043   0.517  1.7155  2.2094 -1.7063
  861TIP3    H224143   2.945   5.929   0.421  0.5277  0.6394  0.3821
  862TIP3   OH224144   3.732   1.950   0.282 -0.0180 -0.5285 -0.1141
  862TIP3    H124145   3.713   2.044   0.283  0.3877 -0.4331 -0.7655
  862TIP3    H224146   3.690   1.918   0.203  0.5463 -0.7409 -0.3338
  863TIP3   OH224147   1.996   1.698   2.452 -0.5395  0.0533 -0.5812
  863TIP3    H124148   1.965   1.770   2.506  1.2801  1.2789 -1.0954
  863TIP3    H224149   2.029   1.739   2.372  2.3462 -1.0658 -0.1004
  864TIP3   OH224150   0.771   6.539   8.665  0.2391  0.3318 -0.9073
  864TIP3    H124151   0.795   6.543   8.572 -2.0025  0.7209 -1.5167
  864TIP3    H224152   0.693   6.594   8.672  0.3888  0.3485  1.2410
  865TIP3   OH224153   5.441   2.295   8.554 -0.1690 -0.8051 -0.5267
  865TIP3    H124154   5.362   2.245   8.532  0.0277 -0.8154 -1.2217
  865TIP3    H224155   5.412   2.386   8.553 -0.2820 -0.8361 -0.2940
  866TIP3   OH224156   1.337   3.743   0.763  0.2520 -0.0415  0.3239
  866TIP3    H124157   1.399   3.766   0.832 -0.7615  2.1928  0.5501
  866TIP3    H224158   1.251   3.749   0.804 -0.3085  0.3892 -0.8754
  867TIP3   OH224159   4.540   2.688   0.252  0.0150 -0.0894  0.0500
  867TIP3    H124160   4.633   2.678   0.228 -0.0400 -0.1260 -0.1482
  867TIP3    H224161   4.542   2.707   0.345  0.2053 -0.4779  0.1292
  868TIP3   OH224162   4.494   2.839   7.855  0.8424  0.1221 -0.9706
  868TIP3    H124163   4.514   2.932   7.842  0.9082  0.3657  0.6326
  868TIP3    H224164   4.566   2.793   7.812  1.0469  0.8144 -1.3943
  869TIP3   OH224165   5.804   6.585   0.784  0.6088  0.1197  0.1962
  869TIP3    H124166   5.881   6.534   0.760  0.2648 -0.7128  0.7822
  869TIP3    H224167   5.834   6.642   0.855  0.8080  0.1554  0.0822
  870TIP3   OH224168   4.533   0.591   2.251 -0.4768  0.2389  0.3732
  870TIP3    H124169   4.470   0.527   2.285 -0.9791 -0.6340 -2.0285
  870TIP3    H224170   4.605   0.588   2.313 -0.9479 -1.9122  0.9062
  871TIP3   OH224171   1.379   3.454   1.460  0.0661 -0.4735 -0.2104
  871TIP3    H124172   1.334   3.373   1.483  0.8269 -1.1301 -0.9400
  871TIP3    H224173   1.456   3.456   1.517 -0.6901  0.4968  0.8291
  872TIP3   OH224174   5.760   2.844   7.998 -0.5359 -0.2461 -0.0242
  872TIP3    H124175   5.728   2.900   8.069 -0.6213 -0.3084 -0.0131
  872TIP3    H224176   5.828   2.895   7.955 -0.8064 -0.0178 -0.1889
  873TIP3   OH224177   1.182   2.886   7.516  0.0633 -0.0970 -0.5225
  873TIP3    H124178   1.138   2.805   7.542  0.0882 -0.6278 -2.0587
  873TIP3    H224179   1.153   2.950   7.581 -0.6442 -1.1210  0.2136
  874TIP3   OH224180   1.605   0.916   0.939 -0.2691 -0.3014 -0.2180
  874TIP3    H124181   1.619   0.830   0.978 -1.0484 -0.2198  0.2572
  874TIP3    H224182   1.518   0.911   0.900 -0.2289  0.2066 -0.3819
  875TIP3   OH224183   4.255   2.645   2.000  1.0338  0.6550  0.2866
  875TIP3    H124184   4.307   2.572   1.966  1.2756  0.3690  1.2524
  875TIP3    H224185   4.222   2.689   1.921  3.2358  1.2143 -0.3785
  876TIP3   OH224186   4.581   4.111   1.205  0.3917  0.0272 -0.5005
  876TIP3    H124187   4.615   4.137   1.291  0.5748 -0.3756 -0.4499
  876TIP3    H224188   4.613   4.179   1.146 -0.5574  0.8478 -0.1006
  877TIP3   OH224189   6.665   0.865   7.163 -0.1868  0.0593  0.0977
  877TIP3    H124190   6.698   0.883   7.251 -0.5227 -0.7434  0.3999
  877TIP3    H224191   6.685   0.944   7.113 -0.7341  0.8737  1.1104
  878TIP3   OH224192   2.138   0.069   7.057 -0.0789 -0.4406 -0.1445
  878TIP3    H124193   2.121   0.163   7.050 -1.5531 -0.7468 -1.1985
  878TIP3    H224194   2.232   0.061   7.044 -0.0641  0.8181 -1.0410
  879TIP3   OH224195   0.705   3.167   1.071  0.1753 -0.4061  0.1478
  879TIP3    H124196   0.702   3.144   0.978  0.0402 -0.4447  0.1604
  879TIP3    H224197   0.696   3.083   1.116 -0.6431 -0.2983  0.1958
  880TIP3   OH224198   4.566   6.633   7.903 -0.0297 -0.1009 -0.1276
  880TIP3    H124199   4.584   6.675   7.818  0.4093 -2.3403 -1.2203
  880TIP3    H224200   4.503   6.691   7.946 -2.7240 -0.3499 -3.3242
  881TIP3   OH224201   6.368   6.184   0.047  0.3245 -0.8811  0.0559
  881TIP3    H124202   6.338   6.195   0.137 -1.7665 -0.6619 -0.5990
  881TIP3    H224203   6.456   6.221   0.046  0.0750 -0.1311  1.8162
  882TIP3   OH224204   1.861   2.559   7.695 -0.4892  0.7220 -0.1355
  882TIP3    H124205   1.843   2.650   7.674  2.0756  1.4794  0.5843
  882TIP3    H224206   1.886   2.519   7.612 -0.6655  0.9103 -0.2783
  883TIP3   OH224207   6.442   5.129   6.671 -0.0366 -0.0892 -0.5301
  883TIP3    H124208   6.437   5.137   6.575  1.9406  1.1975 -0.5875
  883TIP3    H224209   6.400   5.207   6.704  2.3713  1.3119 -0.5244
  884TIP3   OH224210   1.582   5.782   1.842  0.0078  0.9998  0.8501
  884TIP3    H124211   1.657   5.814   1.892  0.5483 -0.6230  1.1298
  884TIP3    H224212   1.615   5.769   1.753 -0.2229  1.2454  0.7250
  885TIP3   OH224213   1.259   6.550   0.496  0.5215 -0.2059 -0.6923
  885TIP3    H124214   1.278   6.465   0.535 -3.1250 -0.7943  0.2218
  885TIP3    H224215   1.186   6.584   0.548  1.2598  3.1092 -1.5988
  886TIP3   OH224216   4.775   5.987   0.424 -0.3405 -0.3772 -0.2391
  886TIP3    H124217   4.860   6.009   0.462 -1.4889  0.1486  2.1811
  886TIP3    H224218   4.783   5.894   0.399  0.0347 -1.2595  2.8090
  887TIP3   OH224219   4.401   1.338   1.627 -0.5364 -0.2063  0.1457
  887TIP3    H124220   4.433   1.259   1.583 -2.1557 -1.2476  0.7356
  887TIP3    H224221   4.306   1.337   1.613 -0.7554  0.8965  1.3189
  888TIP3   OH224222   3.308   1.996   1.100  0.5578  0.4603 -0.0305
  888TIP3    H124223   3.224   2.013   1.143 -0.8822  0.0218 -2.4992
  888TIP3    H224224   3.349   1.929   1.156 -0.8433  0.4627  1.0768
  889TIP3   OH224225   2.971   3.436   0.035  0.6957 -0.1058  0.0771
  889TIP3    H124226   2.897   3.458  -0.022  0.5392  1.6887  0.9061
  889TIP3    H224227   3.037   3.400  -0.025 -0.5756 -1.1672 -0.7650
  890TIP3   OH224228   2.626   1.712   8.173 -0.8215  0.1501  0.0672
  890TIP3    H124229   2.633   1.670   8.088  0.4886 -0.6370  0.5251
  890TIP3    H224230   2.609   1.640   8.234 -2.0688  0.7409  0.4530
  891TIP3   OH224231   2.418   6.169   0.038 -0.7480 -0.3865  0.3171
  891TIP3    H124232   2.361   6.195   0.111 -1.5097 -0.9110 -0.0738
  891TIP3    H224233   2.407   6.074   0.032  1.8048 -0.8359  1.5760
  892TIP3   OH224234   3.114   3.491   2.748  1.0058  0.1559 -0.0134
  892TIP3    H124235   3.140   3.404   2.715 -0.4239  0.3764 -1.8667
  892TIP3    H224236   3.038   3.473   2.804  0.9353  0.1702 -0.1037
  893TIP3   OH224237   3.077   4.189   2.436 -0.3485  0.2328 -0.2572
  893TIP3    H124238   2.989   4.173   2.470  0.2873 -0.0432  1.3197
  893TIP3    H224239   3.130   4.118   2.473  0.2780 -0.4999 -2.3976
  894TIP3   OH224240   0.482   6.058   1.758  0.0284 -0.8378 -0.6910
  894TIP3    H124241   0.406   6.115   1.765  0.6736  0.3205 -2.3622
  894TIP3    H224242   0.459   5.980   1.809 -1.9679 -0.2223 -0.5776
  895TIP3   OH224243   5.362   5.112   6.649 -0.4072  0.6165  0.5566
  895TIP3    H124244   5.396   5.035   6.604 -3.5215  0.8556 -2.6389
  895TIP3    H224245   5.312   5.077   6.723 -2.0850 -0.5547 -1.0568
  896TIP3   OH224246   5.938   2.057   3.004  0.0484 -0.2320  0.0955
  896TIP3    H124247   5.899   2.143   3.023  0.0643 -0.5657  1.7879
  896TIP3    H224248   5.863   1.998   2.994  0.0650 -0.3844  0.8381
  897TIP3   OH224249   4.936   4.819   7.311 -0.6365  0.5668 -0.0104
  897TIP3    H124250   4.882   4.776   7.244  0.8286 -1.5528  0.0629
  897TIP3    H224251   5.024   4.821   7.272 -0.1996  1.2869  0.9991
  898TIP3   OH224252   2.697   3.993   7.946  0.0537  0.1573  0.4966
  898TIP3    H124253   2.761   3.931   7.912  0.6754  1.0183  0.0505
  898TIP3    H224254   2.683   4.055   7.874  0.4587  1.3046  1.3737
  899TIP3   OH224255   5.814   4.882   1.386  0.1273 -0.2338 -0.3906
  899TIP3    H124256   5.828   4.866   1.479 -1.0076  2.5892  0.3656
  899TIP3    H224257   5.718   4.879   1.376  0.0425  2.2039 -0.8276
  900TIP3   OH224258   2.809   6.767   7.462 -0.1582 -0.1275 -0.8723
  900TIP3    H124259   2.765   6.784   7.379 -1.7314  0.8285  0.1088
  900TIP3    H224260   2.793   6.846   7.514  0.0079 -1.0658  0.6567
  901TIP3   OH224261   1.679   4.609   1.913 -0.3554  0.5542  0.7844
  901TIP3    H124262   1.598   4.595   1.962 -0.7723  0.7194  0.1565
  901TIP3    H224263   1.652   4.658   1.835  0.2184 -0.0757  0.1702
  902TIP3   OH224264   4.976   1.678   2.562  0.2595  0.1639  0.3218
  902TIP3    H124265   4.913   1.611   2.534  0.8601  0.8977 -3.1639
  902TIP3    H224266   4.932   1.761   2.544  1.2541  0.6882  0.2553
  903TIP3   OH224267   3.291   4.927   1.929  0.0637  0.0066  0.4252
  903TIP3    H124268   3.365   4.987   1.936 -0.4641  0.8642 -0.9910
  903TIP3    H224269   3.231   4.954   1.999 -1.3977  3.0059 -1.7251
  904TIP3   OH224270   5.033   2.912   8.146  0.5331 -0.2224  0.3854
  904TIP3    H124271   4.953   2.919   8.095 -1.2674 -3.6103  2.4112
  904TIP3    H224272   5.021   2.973   8.219 -0.1052 -0.5359  0.5471
  905TIP3   OH224273   5.124   5.110   0.123 -0.1914  0.3218 -0.2849
  905TIP3    H124274   5.053   5.105   0.187  0.7007 -0.2491  0.6737
  905TIP3    H224275   5.079   5.106   0.038 -1.3518  0.6200  0.2886
  906TIP3   OH224276   2.344   4.348   0.771 -0.4974  0.1637  0.0393
  906TIP3    H124277   2.273   4.322   0.713  0.8413 -0.0041 -1.6226
  906TIP3    H224278   2.423   4.315   0.727  0.7160  1.4970  1.1289
  907TIP3   OH224279   2.792   6.419   0.072 -0.5910 -0.6566 -0.2966
  907TIP3    H124280   2.746   6.455   0.148  0.2982  0.5629 -0.3059
  907TIP3    H224281   2.884   6.441   0.087 -0.6045  1.4558 -2.6650
  908TIP3   OH224282   1.270   3.746   8.224  0.1392  0.2084 -0.1775
  908TIP3    H124283   1.286   3.708   8.311 -2.4270 -2.3131 -0.6191
  908TIP3    H224284   1.187   3.793   8.234 -0.6594 -0.8588 -1.3833
  909TIP3   OH224285   6.121   3.349   2.470 -0.4082 -0.7786  0.0228
  909TIP3    H124286   6.065   3.329   2.546  1.4870 -0.5353  1.5672
  909TIP3    H224287   6.110   3.442   2.455 -0.6515 -0.7908  0.1276
  910TIP3   OH224288   6.196   1.211   1.329  0.2723 -0.3698 -0.2582
  910TIP3    H124289   6.114   1.256   1.308  0.4008  0.1527  0.3408
  910TIP3    H224290   6.265   1.273   1.305  0.4855 -0.6411 -0.3616
  911TIP3   OH224291   4.638   6.277   8.064 -0.4819 -0.0972 -0.1263
  911TIP3    H124292   4.699   6.223   8.013 -1.4084 -0.8104 -0.5204
  911TIP3    H224293   4.603   6.217   8.130 -0.7184  0.3146  0.1197
  912TIP3   OH224294   6.082   0.055   0.592  0.0091 -0.5832 -0.2262
  912TIP3    H124295   6.039   0.060   0.506  0.2834 -2.0732 -0.4830
  912TIP3    H224296   6.153   0.120   0.587 -0.6955  0.1633 -0.6934
  913TIP3   OH224297   4.734   0.365   8.479 -0.5397  0.0229  0.4191
  913TIP3    H124298   4.706   0.404   8.561 -0.7923  0.0360  0.3271
  913TIP3    H224299   4.658   0.373   8.421 -0.5364 -0.4352  0.3430
  914TIP3   OH224300   6.056   4.193   1.718  0.1492 -0.0374 -0.1301
  914TIP3    H124301   5.962   4.208   1.711  0.1545  0.1096  0.1248
  914TIP3    H224302   6.066   4.137   1.795  0.2673 -0.0911 -0.1835
  915TIP3   OH224303   4.369   0.833   2.613  0.3992  0.1309 -0.5842
  915TIP3    H124304   4.375   0.921   2.650 -0.3180  0.8570 -2.0965
  915TIP3    H224305   4.336   0.847   2.524 -5.1909 -1.9582  0.7550
  916TIP3   OH224306   0.631   3.288   1.726 -0.0190  0.6160 -0.3439
  916TIP3    H124307   0.684   3.214   1.754 -1.1541 -1.0158 -2.2066
  916TIP3    H224308   0.571   3.304   1.799  0.2268 -0.3292  0.0862
  917TIP3   OH224309   4.320   0.335   1.339  0.2290  0.0912 -0.1894
  917TIP3    H124310   4.397   0.359   1.287 -0.2636  2.7054  0.1551
  917TIP3    H224311   4.322   0.396   1.413 -2.2658  0.3704 -0.2850
  918TIP3   OH224312   1.988   5.165   7.666 -0.4599 -0.1743  0.2513
  918TIP3    H124313   1.899   5.156   7.700 -0.9244 -1.1662 -1.1201
  918TIP3    H224314   2.003   5.259   7.661 -0.0545  0.0917  3.8202
  919TIP3   OH224315   2.864   5.509   8.091  0.0089 -0.0154  0.4520
  919TIP3    H124316   2.836   5.468   8.172 -1.1009  0.3096  0.2437
  919TIP3    H224317   2.790   5.501   8.032  0.6617  0.0965 -0.4101
  920TIP3   OH224318   2.201   5.203   0.931 -0.3737 -0.0095 -0.0031
  920TIP3    H124319   2.260   5.132   0.905 -0.6869 -0.1790 -0.2542
  920TIP3    H224320   2.153   5.225   0.851 -1.1040 -0.3055  0.3457
  921TIP3   OH224321   1.963   0.369   1.812  0.5152  0.1368  0.5129
  921TIP3    H124322   1.959   0.313   1.889 -0.0315 -1.1611 -0.4251
  921TIP3    H224323   2.046   0.346   1.769  0.5097  0.3886  0.3612
  922TIP3   OH224324   2.042   6.166   1.666 -0.6728  0.3461  0.0798
  922TIP3    H124325   2.033   6.225   1.740  1.0212  0.9381 -0.1321
  922TIP3    H224326   1.986   6.092   1.686 -2.2155  1.6406  0.7413
  923TIP3   OH224327   1.557   6.620   1.238  0.0053 -0.1706  0.1791
  923TIP3    H124328   1.554   6.714   1.221 -0.2589 -0.1232  0.4772
  923TIP3    H224329   1.608   6.612   1.319  0.7500 -0.3496 -0.3006
  924TIP3   OH224330   2.601   2.165   0.508  0.0184  0.3974  0.0715
  924TIP3    H124331   2.596   2.155   0.413  0.0478 -1.5265  0.2193
  924TIP3    H224332   2.520   2.125   0.540  0.0482  0.9519  0.8675
  925TIP3   OH224333   6.486   2.375   0.969  0.1788  0.0349  0.2302
  925TIP3    H124334   6.442   2.457   0.947  0.0210 -0.4741 -1.4432
  925TIP3    H224335   6.578   2.392   0.950  0.4259  0.3893  1.6362
  926TIP3   OH224336   6.694   1.462   1.480  0.5197 -0.4720 -0.7347
  926TIP3    H124337   6.673   1.555   1.470 -1.7522 -0.9047 -0.5693
  926TIP3    H224338   6.675   1.442   1.572  1.3174 -1.0397 -0.6778
  927TIP3   OH224339   4.405   0.559   7.167  0.4700 -0.3064  0.2472
  927TIP3    H124340   4.394   0.624   7.098  0.3196 -1.1790 -0.5688
  927TIP3    H224341   4.326   0.506   7.164  1.5416 -1.9536 -0.6537
  928TIP3   OH224342   1.248   5.516   2.102  0.0185  0.2490  0.3229
  928TIP3    H124343   1.335   5.516   2.062  0.0620  0.1381  0.4176
  928TIP3    H224344   1.187   5.517   2.028  0.1003  0.9775  0.2557
  929TIP3   OH224345   5.682   6.802   2.247  0.2152 -0.4857  0.0894
  929TIP3    H124346   5.713   6.712   2.238  1.1645 -0.2141  0.5024
  929TIP3    H224347   5.685   6.837   2.158  1.1661 -0.4585  0.1171
  930TIP3   OH224348   5.518   4.309   7.261 -0.0666  0.2460  0.1641
  930TIP3    H124349   5.505   4.216   7.281 -0.4331  0.4712  1.0159
  930TIP3    H224350   5.529   4.311   7.166  1.1771 -0.8028  0.2592
  931TIP3   OH224351   1.082   2.242   1.527 -0.0263  0.3785  0.5202
  931TIP3    H124352   1.048   2.154   1.544 -1.1782  0.8669  0.8097
  931TIP3    H224353   1.177   2.233   1.539 -0.3013 -0.3972  2.5818
  932TIP3   OH224354   6.482   6.781   1.065 -0.2127  0.2675 -0.0418
  932TIP3    H124355   6.497   6.801   1.158  1.8161 -0.3404 -0.1861
  932TIP3    H224356   6.396   6.740   1.063  0.0436 -0.4641  1.7131
  933TIP3   OH224357   2.623   1.075   1.771 -0.7848 -0.7386  0.2717
  933TIP3    H124358   2.669   1.156   1.749 -2.3944 -0.1149 -1.0427
  933TIP3    H224359   2.542   1.104   1.812 -0.2642 -1.7959  2.1617
  934TIP3   OH224360   6.280   6.166   1.891  0.6812 -0.9004 -0.1861
  934TIP3    H124361   6.285   6.099   1.823  1.2831 -0.1696 -0.8864
  934TIP3    H224362   6.352   6.146   1.950  1.9193  0.0560 -1.2992
  935TIP3   OH224363   4.340   3.155   0.866 -0.0583 -0.3140  0.1225
  935TIP3    H124364   4.414   3.177   0.809  1.7018 -4.0292  0.7001
  935TIP3    H224365   4.289   3.091   0.815 -1.6064  0.4414  0.6606
  936TIP3   OH224366   6.490   5.732   8.670 -0.6638 -0.2947  0.8827
  936TIP3    H124367   6.422   5.709   8.607 -0.7714  0.7303  0.6116
  936TIP3    H224368   6.541   5.651   8.681  0.3507 -0.1291 -1.7425
  937TIP3   OH224369   3.109   4.509   8.329 -0.0787  0.1319 -0.1035
  937TIP3    H124370   3.186   4.524   8.384 -0.7465  1.0742  0.6250
  937TIP3    H224371   3.076   4.423   8.356  0.4288 -0.0524 -0.0654
  938TIP3   OH224372   0.494   5.844   2.056 -0.3636 -0.3171 -0.1636
  938TIP3    H124373   0.533   5.927   2.083 -0.6122 -0.6900  1.4286
  938TIP3    H224374   0.563   5.801   2.004  1.0606 -0.5608  1.8150
  939TIP3   OH224375   2.234   2.048   7.346  0.4183  0.0450  0.1329
  939TIP3    H124376   2.315   2.024   7.391  0.8074  0.5761 -0.2870
  939TIP3    H224377   2.223   1.981   7.278 -0.1231 -0.7073  0.9258
  940TIP3   OH224378   4.834   3.099   2.291 -0.6391 -0.2487  0.3039
  940TIP3    H124379   4.855   3.010   2.261 -3.1223 -1.3104  1.4351
  940TIP3    H224380   4.802   3.144   2.213  0.7710 -0.2311 -0.3075
  941TIP3   OH224381   2.008   0.533   7.853 -0.5557  0.3219 -0.2156
  941TIP3    H124382   1.981   0.621   7.828 -2.3086  1.6180  5.0350
  941TIP3    H224383   1.945   0.475   7.810 -0.9521  1.7979 -1.7133
  942TIP3   OH224384   0.672   2.955   0.112  0.1663  0.3986 -0.2544
  942TIP3    H124385   0.753   3.006   0.113  0.9739 -0.8258 -0.4827
  942TIP3    H224386   0.679   2.897   0.188  0.0981 -0.5829 -0.9771
  943TIP3   OH224387   2.106   6.149   0.364  0.2955  0.0236 -0.3602
  943TIP3    H124388   2.133   6.174   0.453  1.2330 -1.1416 -0.2843
  943TIP3    H224389   2.096   6.054   0.368  0.1627 -0.0202 -1.4537
  944TIP3   OH224390   3.352   5.998   8.366 -0.6100 -0.0204  0.5177
  944TIP3    H124391   3.329   6.014   8.457  0.9700 -1.0253  1.1217
  944TIP3    H224392   3.396   6.078   8.338  2.2351 -1.0066  1.8220
  945TIP3   OH224393   1.117   5.370   6.626  0.1480  0.1108 -0.3867
  945TIP3    H124394   1.027   5.339   6.622 -0.3064  1.1089  1.1662
  945TIP3    H224395   1.124   5.433   6.554 -0.0991 -0.6489 -1.0854
  946TIP3   OH224396   1.560   1.755   0.783  0.3578 -0.4570  0.1142
  946TIP3    H124397   1.483   1.705   0.755  0.4242 -0.9349  0.7470
  946TIP3    H224398   1.598   1.702   0.853  0.7934  0.1865  0.3695
  947TIP3   OH224399   4.210   1.544   2.162 -0.5256  0.2691  0.4784
  947TIP3    H124400   4.227   1.486   2.088 -1.4498  0.7055 -0.0983
  947TIP3    H224401   4.295   1.582   2.184  0.0747 -1.1506  0.7571
  948TIP3   OH224402   0.378   0.815   1.803 -0.5007  0.0212  0.7781
  948TIP3    H124403   0.368   0.906   1.775 -1.5205 -0.2541  0.2034
  948TIP3    H224404   0.374   0.765   1.722  0.5360 -0.5143  1.0408
  949TIP3   OH224405   1.738   4.309   1.015 -0.4909 -0.1905 -0.1558
  949TIP3    H124406   1.765   4.343   1.100  1.6318  0.3142 -0.9553
  949TIP3    H224407   1.697   4.383   0.971  1.5261  0.6072 -0.8099
  950TIP3   OH224408   1.656   1.363   7.006 -0.4581 -0.0646 -0.5643
  950TIP3    H124409   1.698   1.400   7.084  0.0093 -2.6845  0.5409
  950TIP3    H224410   1.729   1.332   6.952 -0.8618 -0.4770 -0.8787
  951TIP3   OH224411   0.133   4.710   1.647  0.2193 -0.3305 -0.1700
  951TIP3    H124412   0.199   4.644   1.668  2.4058  1.1778 -1.8710
  951TIP3    H224413   0.112   4.752   1.730  1.8529 -0.4800  0.3360
  952TIP3   OH224414   6.474   2.610   8.400 -0.0978  0.1199  0.0157
  952TIP3    H124415   6.498   2.519   8.383 -0.3862  0.2264 -1.0510
  952TIP3    H224416   6.393   2.623   8.350 -0.5902  0.6929  0.9250
  953TIP3   OH224417   5.569   5.766   1.996 -0.5735  0.1028  0.4579
  953TIP3    H124418   5.598   5.783   2.086 -1.9231  0.1944  0.8935
  953TIP3    H224419   5.525   5.846   1.970 -0.5547 -0.0798 -0.1368
  954TIP3   OH224420   2.014   3.785   2.393  0.6014 -0.4894  0.0457
  954TIP3    H124421   2.059   3.869   2.395  1.2167 -0.8230  1.2568
  954TIP3    H224422   2.025   3.750   2.482 -1.5690 -0.8375  0.2422
  955TIP3   OH224423   3.561   4.780   1.383 -0.6130 -0.3616  0.3916
  955TIP3    H124424   3.636   4.778   1.444 -0.8532 -1.6359  0.6776
  955TIP3    H224425   3.519   4.695   1.395 -2.0814  0.3107  0.1796
  956TIP3   OH224426   0.817   4.420   1.265 -0.3357  0.5448 -0.1449
  956TIP3    H124427   0.861   4.338   1.286 -1.7203  0.1033  1.2424
  956TIP3    H224428   0.807   4.418   1.170  1.1561 -0.0735 -0.3196
  957TIP3   OH224429   1.957   2.246   1.937 -0.4688 -0.3539 -0.3178
  957TIP3    H124430   1.907   2.167   1.957  0.4766 -0.7461  0.5886
  957TIP3    H224431   2.018   2.255   2.010  0.9107  0.0129 -1.4741
  958TIP3   OH224432   2.191   4.677   2.249  0.0007 -0.0798  0.0823
  958TIP3    H124433   2.252   4.750   2.242  0.3148 -0.2326  1.0182
  958TIP3    H224434   2.159   4.680   2.340 -1.0569 -0.2633 -0.2688
  959TIP3   OH224435   3.091   1.395   0.746 -0.0461 -0.5066 -0.4550
  959TIP3    H124436   3.179   1.363   0.764 -0.9266 -2.3368  1.0024
  959TIP3    H224437   3.067   1.444   0.825 -0.5059 -0.4702 -0.6127
  960TIP3   OH224438   6.175   1.498   2.452 -0.3634 -0.7739  0.5420
  960TIP3    H124439   6.216   1.458   2.529 -1.5212 -0.3980  1.3635
  960TIP3    H224440   6.184   1.431   2.384 -0.3310 -1.5613  1.2996
  961TIP3   OH224441   0.044   5.601   2.380 -0.1354 -0.4395 -0.9264
  961TIP3    H124442  -0.043   5.620   2.344 -0.9435  0.3651  1.3072
  961TIP3    H224443   0.028   5.540   2.452  0.6465  2.2316  1.7070
  962TIP3   OH224444   3.600   2.132   8.276 -0.5299  1.0458  0.2036
  962TIP3    H124445   3.636   2.107   8.361 -1.3863  0.8922  0.5317
  962TIP3    H224446   3.568   2.051   8.238  1.1245  0.8636 -0.9224
  963TIP3   OH224447   0.041   2.014   1.523  0.1763 -0.4068  0.2275
  963TIP3    H124448   0.037   2.080   1.593 -0.8640 -0.8637  0.6168
  963TIP3    H224449  -0.036   2.031   1.469 -0.3194 -1.5322  0.5515
  964TIP3   OH224450   2.756   2.900   8.333  0.2339  0.1138  1.1156
  964TIP3    H124451   2.828   2.962   8.325  0.0988  0.1696  0.2554
  964TIP3    H224452   2.792   2.817   8.299 -0.3544  0.3500 -0.1311
  965TIP3   OH224453   5.839   4.998   0.539 -0.4630 -0.0999  0.2228
  965TIP3    H124454   5.808   5.053   0.611  0.8124  0.0116  0.7128
  965TIP3    H224455   5.868   5.061   0.472 -0.3797 -0.1906  0.1731
  966TIP3   OH224456   4.969   4.419   8.479  0.4108  0.3533 -0.6202
  966TIP3    H124457   5.042   4.426   8.418  1.2564 -0.8434  0.2075
  966TIP3    H224458   4.891   4.422   8.424  1.1398 -0.2699 -1.7182
  967TIP3   OH224459   6.496   2.633   8.674 -0.2536  0.2655 -0.2419
  967TIP3    H124460   6.505   2.621   8.580 -0.7848 -4.2074  0.0743
  967TIP3    H224461   6.402   2.636   8.690 -0.2392 -0.9617  0.2224
  968TIP3   OH224462   1.278   1.265   1.873  0.5032 -0.3717 -0.5976
  968TIP3    H124463   1.327   1.339   1.838 -0.2512  0.4546  0.0360
  968TIP3    H224464   1.324   1.241   1.953 -0.8899  1.3885  0.8325
  969TIP3   OH224465   3.878   5.535   0.795  0.0559  0.6071 -0.2464
  969TIP3    H124466   3.861   5.471   0.864  1.3404 -0.0371 -0.5049
  969TIP3    H224467   3.842   5.617   0.830 -0.4968  0.0171  0.6152
  970TIP3   OH224468   5.708   1.280   1.208 -0.0252 -0.1648  0.2420
  970TIP3    H124469   5.683   1.267   1.117 -1.4710 -2.0611  0.8533
  970TIP3    H224470   5.649   1.224   1.258  1.3921  0.0342  2.2814
  971TIP3   OH224471   2.802   5.215   8.121 -1.3604 -0.6134 -0.8506
  971TIP3    H124472   2.891   5.192   8.148 -0.1394  1.1167 -3.0287
  971TIP3    H224473   2.762   5.253   8.200  0.0288 -0.8780  0.0179
  972TIP3   OH224474   3.169   4.037   7.676  0.0504 -0.0637  0.3542
  972TIP3    H124475   3.155   3.986   7.755  0.2924  0.6107  0.8506
  972TIP3    H224476   3.082   4.062   7.647  0.0176  1.9972  1.9913
  973TIP3   OH224477   0.122   1.597   0.405  0.5998 -0.2388  0.0619
  973TIP3    H124478   0.141   1.676   0.355 -0.5174 -0.3169 -0.5005
  973TIP3    H224479   0.040   1.616   0.451  0.7019 -0.8064  0.4915
  974TIP3   OH224480   2.114   4.830   0.168  0.5311  0.3822  0.3624
  974TIP3    H124481   2.160   4.770   0.226  0.2471  0.5105  0.7246
  974TIP3    H224482   2.044   4.778   0.129  1.0877  0.1376 -0.3316
  975TIP3   OH224483   0.692   3.830   8.490 -0.5353 -0.3041 -0.7118
  975TIP3    H124484   0.603   3.797   8.504 -0.0793 -0.5018  2.4608
  975TIP3    H224485   0.681   3.924   8.480 -1.0623 -0.1476  1.0075
  976TIP3   OH224486   5.531   2.100   0.847  0.0358  0.5687  0.7888
  976TIP3    H124487   5.585   2.178   0.834 -0.1236  0.7850  1.3758
  976TIP3    H224488   5.580   2.029   0.806  0.1581  0.9877  0.2030
  977TIP3   OH224489   5.849   5.996   8.019  0.0253  0.4074  0.1445
  977TIP3    H124490   5.900   6.073   7.990  0.2050  0.3238  0.2350
  977TIP3    H224491   5.770   5.999   7.966 -0.1345  0.8590  0.4010
  978TIP3   OH224492   2.159   1.985   1.449 -0.3385 -0.1396  0.2650
  978TIP3    H124493   2.160   2.008   1.356 -0.2110 -1.9213 -0.2072
  978TIP3    H224494   2.232   1.924   1.460 -1.1885 -1.0454  1.2182
  979TIP3   OH224495   6.063   5.185   6.474 -0.6357 -0.1601 -0.2196
  979TIP3    H124496   6.046   5.139   6.557  1.3378  0.7181  0.7423
  979TIP3    H224497   5.987   5.166   6.420 -1.4524 -1.7262  1.3789
  980TIP3   OH224498   0.320   3.206   8.405 -0.2076  0.0668 -0.2405
  980TIP3    H124499   0.275   3.148   8.467  0.0533  1.4027  1.2606
  980TIP3    H224500   0.331   3.153   8.327  0.4047 -2.0625  1.2076
  981TIP3   OH224501   4.140   5.137   2.513 -0.0100  0.3227  0.7510
  981TIP3    H124502   4.187   5.109   2.591 -1.1311  0.4514  1.4952
  981TIP3    H224503   4.186   5.215   2.483  0.3847  0.3142  1.3293
  982TIP3   OH224504   0.795   5.117   1.694  0.1179  0.2713 -0.7286
  982TIP3    H124505   0.786   5.073   1.778  1.0858 -1.1444 -1.3237
  982TIP3    H224506   0.887   5.143   1.690 -0.3203  1.9622 -0.6028
  983TIP3   OH224507   2.637   3.744   1.398  0.1594 -0.2393 -0.1924
  983TIP3    H124508   2.581   3.821   1.387  1.5247  0.6741 -1.0032
  983TIP3    H224509   2.709   3.757   1.336  1.0431 -1.5964  0.4927
  984TIP3   OH224510   0.872   6.702   7.093  0.4397 -0.0111  0.0986
  984TIP3    H124511   0.935   6.672   7.028 -0.0805 -0.6554 -0.1051
  984TIP3    H224512   0.791   6.657   7.072  0.0657  0.3428  0.7419
  985TIP3   OH224513   2.769   1.575   1.582 -0.2232 -0.2675 -0.0025
  985TIP3    H124514   2.838   1.632   1.547 -0.7192 -0.3813 -1.2049
  985TIP3    H224515   2.803   1.544   1.666  0.0840  1.7693  0.6805
  986TIP3   OH224516   3.989   1.823   1.237 -0.0823 -0.7802 -0.2267
  986TIP3    H124517   3.964   1.807   1.146 -1.3496 -1.5458  0.2262
  986TIP3    H224518   3.923   1.776   1.288  0.8893 -0.7595  1.0848
  987TIP3   OH224519   1.064   2.794   1.317 -0.4486 -0.3334  0.2739
  987TIP3    H124520   0.991   2.732   1.312 -0.9169  0.0661  1.6299
  987TIP3    H224521   1.023   2.878   1.335  0.1478  0.4925 -1.9602
  988TIP3   OH224522   2.430   6.645   0.906 -0.3644 -0.5076 -0.2538
  988TIP3    H124523   2.387   6.729   0.892 -1.1187 -0.1867  3.1235
  988TIP3    H224524   2.361   6.589   0.942  1.2963 -0.7402  2.9834
  989TIP3   OH224525   4.999   1.917   1.260  0.9317  0.1739 -0.0407
  989TIP3    H124526   4.944   1.848   1.297 -0.0435  1.0120  0.1006
  989TIP3    H224527   5.003   1.897   1.166  1.2721 -0.4770  0.0998
  990TIP3   OH224528   4.004   2.749   1.330  0.1534  0.2396 -0.6947
  990TIP3    H124529   3.989   2.676   1.271 -1.1021  0.0338 -0.1600
  990TIP3    H224530   3.917   2.788   1.342  0.4173  0.4302  0.7888
  991TIP3   OH224531   2.648   3.342   0.588  0.3413  0.0069 -0.0144
  991TIP3    H124532   2.592   3.390   0.527  0.7750 -0.7270 -1.0186
  991TIP3    H224533   2.718   3.404   0.609 -0.2024  0.5172  0.3237
  992TIP3   OH224534   4.152   0.717   8.594  0.1298 -0.0418 -0.1625
  992TIP3    H124535   4.184   0.789   8.540  1.0482 -0.7027 -0.5116
  992TIP3    H224536   4.101   0.663   8.534  0.5111 -0.3660 -0.1986
  993TIP3   OH224537   2.178   0.366   6.840  0.1516  0.3593 -0.2308
  993TIP3    H124538   2.159   0.431   6.773 -0.5095 -0.1555 -0.5514
  993TIP3    H224539   2.267   0.387   6.869  0.1679  1.0348 -0.7426
  994TIP3   OH224540   6.727   5.344   0.876 -0.1391  0.0984  0.0969
  994TIP3    H124541   6.659   5.282   0.899  0.1150 -0.2296 -0.0296
  994TIP3    H224542   6.808   5.294   0.881  0.1700  0.6625  0.9308
  995TIP3   OH224543   0.431   6.053   1.286  0.4432  0.1546 -0.1334
  995TIP3    H124544   0.473   6.003   1.216  0.4145  1.6314 -1.2608
  995TIP3    H224545   0.420   5.990   1.357  2.8829 -0.7695 -0.4561
  996TIP3   OH224546   0.225   6.764   8.462 -0.0307 -0.7221 -0.1478
  996TIP3    H124547   0.176   6.814   8.528 -0.5144 -0.3226 -0.8012
  996TIP3    H224548   0.161   6.743   8.395  0.7041 -0.1050 -1.0689
  997TIP3   OH224549   6.681   2.244   8.651 -0.0481 -0.1234 -0.2139
  997TIP3    H124550   6.613   2.219   8.713  0.7875  0.4634  0.9716
  997TIP3    H224551   6.764   2.229   8.697  0.5904  0.6959 -1.0259
  998TIP3   OH224552   1.768   1.742   7.137 -0.2776 -0.2472 -0.1465
  998TIP3    H124553   1.691   1.742   7.080  0.4794 -1.5060 -1.2154
  998TIP3    H224554   1.842   1.750   7.077  0.4564  0.4237  0.8306
  999TIP3   OH224555   0.886   2.930   6.438 -0.0849  0.1222 -0.5030
  999TIP3    H124556   0.853   2.962   6.354  2.0845  1.0373 -1.0745
  999TIP3    H224557   0.979   2.914   6.422  0.3893  0.3714  1.7379
 1000TIP3   OH224558   5.231   1.313   6.929 -0.1728 -0.1529 -0.2302
 1000TIP3    H124559   5.141   1.295   6.956 -0.7350  1.4765 -0.8692
 1000TIP3    H224560   5.269   1.227   6.913 -0.6350 -1.0639  2.9804
 1001TIP3   OH224561   3.425   5.767   0.714 -0.3394 -0.1097 -0.3190
 1001TIP3    H124562   3.438   5.706   0.786  1.2122  2.5095  1.7939
 1001TIP3    H224563   3.486   5.738   0.647  0.8106 -0.5263  0.8744
 1002TIP3   OH224564   4.288   6.440   1.607  0.0008 -0.2532 -0.8495
 1002TIP3    H124565   4.323   6.521   1.570  1.5400  0.2655  1.5119
 1002TIP3    H224566   4.362   6.379   1.602 -0.7008 -1.0794 -1.2736
 1003TIP3   OH224567   4.419   1.708   8.356  0.2634  0.4502  0.1638
 1003TIP3    H124568   4.413   1.724   8.450 -0.4314  1.3707 -0.0353
 1003TIP3    H224569   4.472   1.780   8.323  2.1601 -0.8830  0.0900
 1004TIP3   OH224570   5.907   3.258   8.023 -0.4151  0.6173  0.4019
 1004TIP3    H124571   5.844   3.211   8.078 -0.1126 -1.8532 -1.2210
 1004TIP3    H224572   5.957   3.312   8.084 -3.5516  2.1210  1.8521
 1005TIP3   OH224573   4.556   2.867   0.901  0.3516  0.8232 -0.2311
 1005TIP3    H124574   4.596   2.863   0.988  1.6762  0.2311 -0.8394
 1005TIP3    H224575   4.485   2.931   0.910 -0.3681 -0.1462  1.6002
 1006TIP3   OH224576   1.223   3.581   1.281  0.4155 -0.3058  0.3315
 1006TIP3    H124577   1.282   3.527   1.334  0.7609  0.1585  0.4260
 1006TIP3    H224578   1.214   3.662   1.331  2.1944  0.8846 -1.1528
 1007TIP3   OH224579   5.065   1.323   1.281 -0.2894  0.0581  0.7785
 1007TIP3    H124580   5.025   1.405   1.310 -0.2231  0.0056  1.0235
 1007TIP3    H224581   4.991   1.269   1.252 -0.1244  1.3702 -2.4669
 1008TIP3   OH224582   1.502   4.538   2.931  0.4680 -0.8579  0.3174
 1008TIP3    H124583   1.424   4.560   2.880  1.0675 -1.4621 -0.8772
 1008TIP3    H224584   1.550   4.620   2.938  0.2462 -0.7121  0.1389
 1009TIP3   OH224585   5.678   4.167   0.187  0.2092 -0.1229  0.0789
 1009TIP3    H124586   5.630   4.108   0.129  0.4174 -0.1939 -0.0194
 1009TIP3    H224587   5.689   4.117   0.268  0.0478 -0.0769  0.1303
 1010TIP3   OH224588   6.536   3.463   7.417  0.5021 -0.1215 -0.6489
 1010TIP3    H124589   6.543   3.432   7.327 -1.8016 -0.4003 -0.7879
 1010TIP3    H224590   6.503   3.387   7.466  0.1138  0.5161  0.0935
 1011TIP3   OH224591   5.552   1.039   8.693 -0.1851  0.4109  0.6981
 1011TIP3    H124592   5.468   1.074   8.662  0.1264  0.0795 -0.5747
 1011TIP3    H224593   5.574   1.093   8.769 -0.6807  1.6852 -0.0322
 1012TIP3   OH224594   2.482   2.153   8.155  0.0516 -0.1561  0.2757
 1012TIP3    H124595   2.502   2.060   8.153  0.8613  0.0209 -0.6272
 1012TIP3    H224596   2.387   2.158   8.147  0.0241 -0.8944  0.1506
 1013TIP3   OH224597   4.896   5.311   1.958  0.4839  0.0175  0.0562
 1013TIP3    H124598   4.856   5.337   2.040  0.8175 -0.0700  0.2474
 1013TIP3    H224599   4.837   5.244   1.923 -0.8057  1.5410 -0.8271
 1014TIP3   OH224600   1.962   0.239   7.983 -0.0057  0.1216  0.1847
 1014TIP3    H124601   1.991   0.295   8.055  0.2249 -1.7821  1.6769
 1014TIP3    H224602   1.877   0.206   8.012 -0.4818  0.2729 -1.0003
 1015TIP3   OH224603   4.838   0.963   7.014 -0.0987  0.0800  0.0126
 1015TIP3    H124604   4.914   0.970   7.071 -1.6914 -0.5483  2.3845
 1015TIP3    H224605   4.800   0.878   7.034 -1.7706  0.6335 -0.5948
 1016TIP3   OH224606   0.776   6.177   0.336  0.1325  0.1687  0.8439
 1016TIP3    H124607   0.758   6.208   0.247 -0.3663  1.2863  1.3152
 1016TIP3    H224608   0.707   6.217   0.389  0.5182 -0.3614  1.7575
 1017TIP3   OH224609   5.148   0.962   0.457  0.3076 -0.1970  0.6494
 1017TIP3    H124610   5.211   0.908   0.506 -0.1409  0.1010  1.5832
 1017TIP3    H224611   5.063   0.934   0.490 -0.0846 -0.7865 -0.7921
 1018TIP3   OH224612   4.957   1.464   0.720 -0.8888 -0.2654 -0.1209
 1018TIP3    H124613   4.940   1.370   0.721 -2.6389  0.0277 -0.0051
 1018TIP3    H224614   5.042   1.474   0.763 -0.1749 -1.8685 -1.0745
 1019TIP3   OH224615   3.737   0.112   1.006  0.0733 -0.2547  0.0879
 1019TIP3    H124616   3.729   0.051   0.933  1.8299  0.0422 -0.4076
 1019TIP3    H224617   3.804   0.075   1.062  1.5185  1.3865 -0.4589
 1020TIP3   OH224618   5.095   5.669   2.575 -0.0403  0.4424 -0.3012
 1020TIP3    H124619   5.130   5.756   2.592 -0.5294  0.5124  0.3880
 1020TIP3    H224620   5.022   5.660   2.636  0.2641 -0.6114 -0.0740
 1021TIP3   OH224621   6.834   4.746   2.203  0.1498 -0.1371 -0.4618
 1021TIP3    H124622   6.893   4.686   2.250  1.3671  1.1666 -0.2750
 1021TIP3    H224623   6.797   4.801   2.272 -2.8585 -2.1259 -0.3036
 1022TIP3   OH224624   2.301   4.818   0.480  0.7526 -0.3521 -0.7230
 1022TIP3    H124625   2.311   4.763   0.402  1.0982  0.3810 -1.1982
 1022TIP3    H224626   2.276   4.904   0.447 -3.9404 -1.1094  0.1630
 1023TIP3   OH224627   6.125   3.878   6.968  0.5060 -0.3101 -0.0462
 1023TIP3    H124628   6.089   3.862   6.880  1.2001  2.7980 -1.0188
 1023TIP3    H224629   6.061   3.837   7.027 -2.6181  1.5218 -1.8477
 1024TIP3   OH224630   1.759   5.484   0.497 -0.1570  0.4262 -0.4076
 1024TIP3    H124631   1.717   5.562   0.535  0.8879  0.5513  0.5374
 1024TIP3    H224632   1.814   5.519   0.427 -0.0556  0.4927 -0.2961
 1025TIP3   OH224633   1.887   4.469   0.689 -0.3520 -0.3068 -0.5135
 1025TIP3    H124634   1.810   4.449   0.636 -0.1521  1.3579 -1.4789
 1025TIP3    H224635   1.871   4.423   0.772 -1.8726 -0.8455 -1.0634
 1026TIP3   OH224636   5.694   2.230   8.508 -0.1651  0.4383  0.6347
 1026TIP3    H124637   5.708   2.280   8.428  0.4668 -0.0524  0.4268
 1026TIP3    H224638   5.599   2.218   8.513 -0.1656 -0.0799 -0.3924
 1027TIP3   OH224639   5.986   5.580   8.469  0.6632  0.1109 -0.1834
 1027TIP3    H124640   6.009   5.595   8.377  3.6844 -1.9196  0.0801
 1027TIP3    H224641   5.917   5.643   8.487  1.4783  2.1125 -3.2444
 1028TIP3   OH224642   6.017   2.603   1.536  0.0353  0.0855  0.3008
 1028TIP3    H124643   6.024   2.628   1.444  2.1295  0.7083  0.5941
 1028TIP3    H224644   6.063   2.519   1.542 -0.4903 -0.1856  0.7165
 1029TIP3   OH224645   3.092   4.884   2.102  0.5695  0.4449 -0.2582
 1029TIP3    H124646   3.111   4.799   2.140 -0.4212 -0.1584 -1.0701
 1029TIP3    H224647   3.149   4.945   2.149 -1.4816 -0.0414  3.1567
 1030TIP3   OH224648   4.697   6.125   7.594  0.1204 -0.4009  0.0864
 1030TIP3    H124649   4.714   6.193   7.659  0.7143 -0.1167 -0.3610
 1030TIP3    H224650   4.732   6.161   7.512 -1.3001 -0.4357 -0.5559
 1031TIP3   OH224651   2.135   4.471   2.047 -0.1612 -1.0038 -0.3231
 1031TIP3    H124652   2.083   4.517   1.981  0.5693  0.6583  0.1998
 1031TIP3    H224653   2.173   4.541   2.099  0.6282 -2.2546  0.8198
 1032TIP3   OH224654   4.358   5.585   2.064  0.3913  0.1432  0.3473
 1032TIP3    H124655   4.279   5.586   2.010  0.4649 -1.3900  0.1580
 1032TIP3    H224656   4.326   5.596   2.153  0.1580  1.4836  0.1113
 1033TIP3   OH224657   5.399   6.829   1.484  0.2149  0.0534  0.1175
 1033TIP3    H124658   5.478   6.777   1.501  0.7421  0.7538 -0.1491
 1033TIP3    H224659   5.428   6.897   1.423 -0.9732 -0.6857 -1.3445
 1034TIP3   OH224660   5.749   3.153   2.065  0.0841  0.0217 -0.2269
 1034TIP3    H124661   5.664   3.177   2.101  0.0922  0.9233 -0.7930
 1034TIP3    H224662   5.805   3.141   2.142 -0.1368  1.0029  0.0942
 1035TIP3   OH224663   5.539   4.885   7.039 -0.4519 -0.4727 -0.3616
 1035TIP3    H124664   5.466   4.845   7.086 -1.3232  0.2081 -1.0895
 1035TIP3    H224665   5.539   4.843   6.953  0.5166 -1.0214 -0.1045
 1036TIP3   OH224666   0.836   5.114   7.569 -0.2294 -0.4039  0.1182
 1036TIP3    H124667   0.840   5.210   7.569  1.8594 -0.4529 -0.1424
 1036TIP3    H224668   0.785   5.092   7.491 -0.5341  0.4784  0.0556
 1037TIP3   OH224669   2.486   5.691   7.625  0.2964  0.1620 -0.1276
 1037TIP3    H124670   2.523   5.614   7.668 -0.3372 -0.5989 -0.9058
 1037TIP3    H224671   2.563   5.743   7.600  0.6872  0.4080  1.4923
 1038TIP3   OH224672   6.382   3.559   0.445 -0.0929  0.1097 -0.5134
 1038TIP3    H124673   6.348   3.486   0.394  1.8560  0.0369 -1.7927
 1038TIP3    H224674   6.409   3.520   0.528  0.6713 -0.6160 -1.0825
 1039TIP3   OH224675   2.200   5.401   0.190  0.2176  0.2217  0.3834
 1039TIP3    H124676   2.245   5.460   0.131 -0.4709  0.1217 -0.2562
 1039TIP3    H224677   2.130   5.362   0.137  0.3222 -0.7568  0.9349
 1040TIP3   OH224678   1.304   3.599   8.001 -0.2685  0.1804  0.1238
 1040TIP3    H124679   1.268   3.635   8.081  0.9555 -1.9857  1.7662
 1040TIP3    H224680   1.388   3.561   8.027 -0.6088 -2.1332 -1.7767
 1041TIP3   OH224681   5.759   2.849   8.572 -0.2012 -0.1707 -0.2122
 1041TIP3    H124682   5.715   2.764   8.571 -0.9131  0.1867  0.3262
 1041TIP3    H224683   5.846   2.830   8.608  0.0141 -0.8308 -1.0435
 1042TIP3   OH224684   1.456   2.287   1.352 -0.1158 -0.5044  0.4317
 1042TIP3    H124685   1.449   2.289   1.448  0.3342 -0.7828  0.4695
 1042TIP3    H224686   1.445   2.195   1.329  2.9807 -0.9900  0.4740
 1043TIP3   OH224687   6.631   4.967   1.647 -0.0734 -0.1225 -0.0986
 1043TIP3    H124688   6.576   5.014   1.583  0.0483 -0.1742 -0.2409
 1043TIP3    H224689   6.576   4.961   1.725 -0.3290 -0.2999 -0.2881
 1044TIP3   OH224690   4.321   5.299   2.386 -0.2563 -0.0476 -0.1438
 1044TIP3    H124691   4.378   5.273   2.313 -1.2936  0.9965 -1.3647
 1044TIP3    H224692   4.279   5.379   2.357 -1.5704 -0.2152  1.1595
 1045TIP3   OH224693   1.720   5.733   1.580  0.5078 -0.0518  0.3487
 1045TIP3    H124694   1.806   5.727   1.622  0.1695  0.5597  1.1642
 1045TIP3    H224695   1.736   5.779   1.498  0.9878 -0.1302  0.3945
 1046TIP3   OH224696   3.111   5.976   7.678 -0.0145  0.1516  0.1708
 1046TIP3    H124697   3.102   6.017   7.593 -0.9321 -1.1921 -0.4146
 1046TIP3    H224698   3.141   6.046   7.736 -1.7732  1.7170 -0.7025
 1047TIP3   OH224699   0.412   3.970   7.091  0.0892  0.3128  0.5029
 1047TIP3    H124700   0.344   3.991   7.155  1.1758  1.0160  1.4811
 1047TIP3    H224701   0.371   3.982   7.006 -1.1514  0.2054  1.0684
 1048TIP3   OH224702   2.814   1.819   2.241  0.7414 -0.1222 -0.1967
 1048TIP3    H124703   2.829   1.835   2.334 -2.3547 -1.9573  0.7885
 1048TIP3    H224704   2.772   1.899   2.209 -0.6330 -0.4234  0.7509
 1049TIP3   OH224705   6.594   4.820   2.047  0.1874  0.5543  0.6978
 1049TIP3    H124706   6.545   4.850   2.124  1.9008  1.0490  1.6622
 1049TIP3    H224707   6.677   4.788   2.083  0.5904 -0.2675 -0.8651
 1050TIP3   OH224708   5.240   3.674   6.410  0.3944 -0.5682 -0.1232
 1050TIP3    H124709   5.256   3.668   6.504 -2.7322 -0.0939  0.5418
 1050TIP3    H224710   5.253   3.585   6.378  2.3003 -0.5772  0.5352
 1051TIP3   OH224711   2.720   2.610   6.733 -0.1912  0.8048 -0.1710
 1051TIP3    H124712   2.753   2.665   6.804 -0.5508 -0.4011  0.9723
 1051TIP3    H224713   2.709   2.670   6.660 -0.3778  2.2159  0.9599
 1052TIP3   OH224714   0.225   4.405   8.668 -0.1959  0.1739 -0.0358
 1052TIP3    H124715   0.215   4.500   8.672 -2.1095 -0.0400  2.5514
 1052TIP3    H224716   0.225   4.377   8.759 -0.2223 -2.3832 -0.7395
 1053TIP3   OH224717   4.633   4.188   7.147  0.1182 -0.2251  0.1184
 1053TIP3    H124718   4.708   4.173   7.204  1.7172  0.6137 -1.6373
 1053TIP3    H224719   4.657   4.145   7.065 -1.3667  0.0288 -0.4891
 1054TIP3   OH224720   5.184   1.603   1.133  0.3593 -0.0463 -0.3851
 1054TIP3    H124721   5.272   1.638   1.149 -0.1704  1.1627 -0.0301
 1054TIP3    H224722   5.160   1.559   1.215  0.2721  0.4247 -0.1556
 1055TIP3   OH224723   2.283   1.226   7.146 -0.1263  0.0852 -0.1493
 1055TIP3    H124724   2.201   1.275   7.140 -1.2065 -1.3488  2.0194
 1055TIP3    H224725   2.267   1.145   7.098 -0.7844 -1.1304  2.0049
 1056TIP3   OH224726   2.562   0.989   1.491  0.9590 -0.2642 -0.4201
 1056TIP3    H124727   2.573   0.894   1.496 -0.3239 -0.3755  3.5586
 1056TIP3    H224728   2.607   1.022   1.568 -0.7046  2.1030 -0.3562
 1057TIP3   OH224729   0.478   3.014   7.932 -0.1205  0.4030  0.0946
 1057TIP3    H124730   0.482   2.993   7.838  0.7041  0.4525  0.1042
 1057TIP3    H224731   0.531   2.945   7.973  0.0417  0.7374  0.4530
 1058TIP3   OH224732   2.487   6.760   7.762 -0.4845  0.7234 -0.0666
 1058TIP3    H124733   2.423   6.830   7.749 -0.6808  0.7046  0.7487
 1058TIP3    H224734   2.506   6.728   7.674 -3.0547 -0.6036 -0.2295
 1059TIP3   OH224735   0.464   3.731   1.337  0.3291 -0.3246 -0.5627
 1059TIP3    H124736   0.543   3.739   1.285  0.7272 -1.9928 -0.2812
 1059TIP3    H224737   0.495   3.699   1.422 -0.6287 -0.9591 -0.4406
 1060TIP3   OH224738   5.302   0.985   0.251  0.4270 -0.4446 -0.5918
 1060TIP3    H124739   5.389   0.987   0.291  0.4561 -0.6899 -0.6380
 1060TIP3    H224740   5.242   0.972   0.324  0.6152 -2.7618 -0.7823
 1061TIP3   OH224741   6.437   4.927   1.830  0.3728  0.4592 -1.0887
 1061TIP3    H124742   6.482   4.890   1.906 -0.3564  0.1398 -0.8035
 1061TIP3    H224743   6.366   4.978   1.867 -1.1179 -1.1739 -1.5643
 1062TIP3   OH224744   2.768   5.918   2.358 -0.0661  0.4027  0.2437
 1062TIP3    H124745   2.796   5.869   2.436  0.2187 -2.4501 -1.5134
 1062TIP3    H224746   2.721   5.993   2.393 -0.8442 -1.2891  3.1838
 1063TIP3   OH224747   4.060   2.943   7.522 -0.0274  0.3827  0.4830
 1063TIP3    H124748   4.091   2.857   7.495 -2.1844 -0.5705  0.8206
 1063TIP3    H224749   4.020   2.980   7.444 -1.9149 -0.3144  1.0612
 1064TIP3   OH224750   3.272   1.071   2.040  0.0872  0.2331  0.2557
 1064TIP3    H124751   3.233   1.000   2.092 -0.6263  0.5519  0.1726
 1064TIP3    H224752   3.307   1.132   2.106 -0.3743  0.3923  0.3599
 1065TIP3   OH224753   5.678   2.265   2.648  0.1819  0.0543  0.2003
 1065TIP3    H124754   5.687   2.361   2.641 -1.4184  0.2314  0.2516
 1065TIP3    H224755   5.636   2.239   2.566 -0.9602 -0.3663  0.8916
 1066TIP3   OH224756   1.250   1.256   1.220  0.6008  0.1171  0.4864
 1066TIP3    H124757   1.254   1.323   1.287  0.2971 -0.3745  1.0050
 1066TIP3    H224758   1.283   1.177   1.262  0.2465 -0.2383  0.1151
 1067TIP3   OH224759   2.230   2.815   7.209  0.1036 -0.0573 -0.0549
 1067TIP3    H124760   2.208   2.896   7.254 -0.4115  1.5876 -3.0036
 1067TIP3    H224761   2.315   2.789   7.245  0.7908  2.3751  0.2224
 1068TIP3   OH224762   3.775   2.621   7.466 -1.0443  0.2754  0.4049
 1068TIP3    H124763   3.808   2.655   7.382 -0.2472 -0.7164  0.3004
 1068TIP3    H224764   3.812   2.680   7.532  0.7231 -0.6150  0.2642
 1069TIP3   OH224765   5.848   1.421   1.656  0.1271 -0.1034  0.0862
 1069TIP3    H124766   5.853   1.459   1.568  0.2318  0.5920  0.3852
 1069TIP3    H224767   5.939   1.406   1.681  0.0525 -1.7267 -0.5141
 1070TIP3   OH224768   4.203   3.445   7.155 -0.8188  0.0066  0.3255
 1070TIP3    H124769   4.230   3.536   7.171  1.7225 -0.7910  1.0368
 1070TIP3    H224770   4.144   3.451   7.080 -1.4469  2.3373  0.9154
 1071TIP3   OH224771   1.440   6.743   1.770  0.2994  0.1881 -0.3258
 1071TIP3    H124772   1.455   6.778   1.682  2.6667  0.7992  0.2504
 1071TIP3    H224773   1.356   6.780   1.797  0.2152  1.1286 -1.7718
 1072TIP3   OH224774   1.806   4.359   2.324 -0.2134 -0.3215 -0.0670
 1072TIP3    H124775   1.793   4.443   2.366 -0.5709 -1.3372  1.9985
 1072TIP3    H224776   1.882   4.321   2.369  1.0734 -0.4217 -2.1756
 1073TIP3   OH224777   2.582   2.329   1.369 -0.1317  0.4157  0.1377
 1073TIP3    H124778   2.632   2.247   1.366  0.0023  0.5223 -1.9909
 1073TIP3    H224779   2.603   2.367   1.455  0.1652 -1.5273  0.9901
 1074TIP3   OH224780   0.291   6.617   0.984  0.0368 -0.5238  0.4755
 1074TIP3    H124781   0.381   6.588   0.973  0.6968  0.1622  3.2788
 1074TIP3    H224782   0.274   6.674   0.909  1.9898 -0.5537 -0.0287
 1075TIP3   OH224783   2.468   1.401   8.584 -0.2513 -0.2370 -0.3639
 1075TIP3    H124784   2.441   1.492   8.574 -1.0962 -0.5884 -1.4930
 1075TIP3    H224785   2.552   1.405   8.630 -0.4539  1.0839 -0.0883
 1076TIP3   OH224786   1.881   1.283   0.057  0.1013 -0.0208 -0.0402
 1076TIP3    H124787   1.871   1.187   0.062 -1.9831  0.2061  1.3351
 1076TIP3    H224788   1.918   1.298  -0.030 -0.1707 -2.0408 -0.5723
 1077TIP3   OH224789   0.507   5.214   0.308  0.4436 -0.0654  0.0053
 1077TIP3    H124790   0.469   5.183   0.225 -1.7704  1.3662  0.3973
 1077TIP3    H224791   0.552   5.295   0.285 -0.2640  0.3899  0.1930
 1078TIP3   OH224792   5.274   4.505   0.553  0.1562  0.7053 -0.5226
 1078TIP3    H124793   5.276   4.466   0.640 -0.8478  2.3089  0.2677
 1078TIP3    H224794   5.317   4.440   0.497 -1.3365 -1.4680  0.6926
 1079TIP3   OH224795   3.651   1.502   0.692  0.6477  0.2042  0.0369
 1079TIP3    H124796   3.667   1.473   0.782 -2.6519  0.7609  0.9044
 1079TIP3    H224797   3.561   1.476   0.674  1.3733 -0.3298 -3.3440
 1080TIP3   OH224798   6.647   5.605   8.071  0.9770  0.6606 -0.2775
 1080TIP3    H124799   6.594   5.685   8.075 -0.4672 -0.2899  0.3303
 1080TIP3    H224800   6.692   5.603   8.156  0.0038  0.1859  0.2452
 1081TIP3   OH224801   1.761   3.266   0.188  0.1420  0.1698 -0.1013
 1081TIP3    H124802   1.854   3.285   0.204  0.5595 -1.0820 -0.9087
 1081TIP3    H224803   1.736   3.330   0.121  1.1872 -1.1631 -1.8621
 1082TIP3   OH224804   4.998   1.021   2.385  0.0377 -0.0300  0.6556
 1082TIP3    H124805   5.061   0.997   2.317 -0.8179 -2.0496  0.4982
 1082TIP3    H224806   5.050   1.027   2.465  0.6224 -0.4092  0.3102
 1083TIP3   OH224807   2.859   5.800   0.670  0.3554  0.5211  0.2934
 1083TIP3    H124808   2.899   5.745   0.738 -0.3624 -0.9429 -0.4111
 1083TIP3    H224809   2.871   5.890   0.701  2.2332  0.0236  1.1326
 1084TIP3   OH224810   0.306   0.759   7.802  0.6000 -1.2177  0.5048
 1084TIP3    H124811   0.239   0.795   7.743 -0.2804 -0.0244  2.1192
 1084TIP3    H224812   0.382   0.745   7.747 -0.7533 -1.9864 -1.2849
 1085TIP3   OH224813   3.820   5.880   0.298 -0.3443  0.1983 -0.5178
 1085TIP3    H124814   3.914   5.898   0.296 -0.3694  0.6886  1.2839
 1085TIP3    H224815   3.811   5.806   0.358 -1.2218  1.1155  0.5283
 1086TIP3   OH224816   1.600   1.033   2.726  0.2788  0.0158  0.3772
 1086TIP3    H124817   1.653   1.099   2.772  0.7136 -0.1808  0.1729
 1086TIP3    H224818   1.537   1.083   2.675 -0.0149  0.2432  0.9672
 1087TIP3   OH224819   0.583   5.771   2.319 -0.2938  0.0512  0.0021
 1087TIP3    H124820   0.501   5.768   2.370 -0.5247 -2.9573 -0.3665
 1087TIP3    H224821   0.554   5.774   2.228 -0.0120 -0.6087 -0.1150
 1088TIP3   OH224822   1.755   1.056   2.341  0.3717 -0.4387  0.2731
 1088TIP3    H124823   1.677   1.105   2.315  1.2186  0.6853 -0.2859
 1088TIP3    H224824   1.752   0.976   2.288  0.2479  0.1936 -0.7133
 1089TIP3   OH224825   5.749   0.352   0.905  0.4642  0.2614 -0.3240
 1089TIP3    H124826   5.708   0.364   0.991 -1.0032  1.3273 -1.1254
 1089TIP3    H224827   5.827   0.407   0.908  1.3868 -1.0633  0.9087
 1090TIP3   OH224828   0.786   5.342   1.208  0.2457  0.9002  0.0319
 1090TIP3    H124829   0.727   5.406   1.249 -0.4410  0.3905 -0.1352
 1090TIP3    H224830   0.778   5.360   1.114 -1.5300 -0.7129 -0.1859
 1091TIP3   OH224831   1.327   2.723   8.430  0.2950  0.3517  0.0741
 1091TIP3    H124832   1.374   2.792   8.384 -1.6236  1.5749 -0.1615
 1091TIP3    H224833   1.244   2.715   8.383 -0.1036 -1.1441  0.9623
 1092TIP3   OH224834   1.499   5.648   1.380 -0.3367  0.1169  0.2541
 1092TIP3    H124835   1.445   5.722   1.351 -0.0909  0.0502 -0.3920
 1092TIP3    H224836   1.588   5.674   1.357  0.1124  0.8289  2.5293
 1093TIP3   OH224837   1.029   2.485   0.432  0.7941 -0.3451  0.1144
 1093TIP3    H124838   1.086   2.488   0.509 -0.1778  0.1050  0.8398
 1093TIP3    H224839   1.061   2.554   0.374  1.1024 -0.2292  0.4238
 1094TIP3   OH224840   5.781   6.436   1.385  0.1312  0.6953  0.6067
 1094TIP3    H124841   5.852   6.497   1.365 -0.4093  0.7299 -1.4044
 1094TIP3    H224842   5.733   6.478   1.457  2.0642  0.6980  1.9625
 1095TIP3   OH224843   0.058   2.697   7.577  0.1249  0.1996  0.3289
 1095TIP3    H124844  -0.033   2.719   7.557  0.0800 -1.3831 -1.5035
 1095TIP3    H224845   0.081   2.755   7.649 -1.6153  2.2304 -0.6218
 1096TIP3   OH224846   1.835   4.293   7.567  0.0551  0.9358  0.4616
 1096TIP3    H124847   1.897   4.222   7.555 -1.7606 -0.4824 -1.2515
 1096TIP3    H224848   1.841   4.316   7.659  0.5760 -1.5655  1.1152
 1097TIP3   OH224849   1.406   5.292   6.907  0.0355  0.0812  0.3685
 1097TIP3    H124850   1.489   5.246   6.900  0.5607  0.8726  1.0604
 1097TIP3    H224851   1.389   5.294   7.001 -0.9128 -0.3083  0.2136
 1098TIP3   OH224852   3.562   4.197   7.369  0.2773  0.3821  0.0686
 1098TIP3    H124853   3.549   4.215   7.276  0.3847 -3.1149 -0.7694
 1098TIP3    H224854   3.650   4.160   7.374  0.5593  1.1541  1.7400
 1099TIP3   OH224855   1.820   1.201   0.919  0.5990 -0.4228 -0.1240
 1099TIP3    H124856   1.743   1.243   0.883  0.4707  0.0219  0.6607
 1099TIP3    H224857   1.836   1.127   0.861 -2.1291 -2.2871  1.2785
 1100TIP3   OH224858   1.829   5.327   7.426  0.1369  0.3849  0.2918
 1100TIP3    H124859   1.887   5.295   7.357  1.6110  1.4159  1.0098
 1100TIP3    H224860   1.888   5.365   7.491 -1.1607 -1.0898  2.4327
 1101TIP3   OH224861   5.122   6.472   0.239  0.5410 -0.2875 -0.1542
 1101TIP3    H124862   5.123   6.521   0.321  0.7665 -1.1530  0.3625
 1101TIP3    H224863   5.199   6.417   0.243  0.0209 -1.0576 -0.5076
 1102TIP3   OH224864   5.988   5.314   7.534  0.1652  0.2378  0.0936
 1102TIP3    H124865   5.918   5.248   7.535 -1.0650  1.4768  0.1110
 1102TIP3    H224866   6.065   5.268   7.565 -0.8880 -0.9617  1.0628
 1103TIP3   OH224867   2.322   1.287   1.133 -0.0349  0.4666  0.2152
 1103TIP3    H124868   2.263   1.354   1.168 -1.9632 -0.9106 -0.2537
 1103TIP3    H224869   2.264   1.217   1.103  1.8388 -0.7927 -0.6542
 1104TIP3   OH224870   5.354   1.799   8.665 -0.3200 -0.4396  0.3177
 1104TIP3    H124871   5.346   1.892   8.684 -1.0056 -0.4217 -0.0365
 1104TIP3    H224872   5.382   1.795   8.574  1.9394 -0.5506  0.9528
 1105TIP3   OH224873   6.514   4.105   1.762  0.2503  0.2287 -0.3990
 1105TIP3    H124874   6.474   4.062   1.838  0.6935  1.2479  0.4359
 1105TIP3    H224875   6.495   4.047   1.689 -0.9547 -0.3339  0.3351
 1106TIP3   OH224876   3.739   3.769   0.898  0.2091  0.5864 -0.0188
 1106TIP3    H124877   3.834   3.770   0.910  0.0381  1.6570  1.4345
 1106TIP3    H224878   3.718   3.677   0.882  1.3472  0.1260  1.0003
 1107TIP3   OH224879   0.124   3.243   1.275  0.0825  0.0978  0.4667
 1107TIP3    H124880   0.159   3.157   1.300 -0.8152 -0.5011 -0.2374
 1107TIP3    H224881   0.198   3.302   1.282  0.9219 -0.8888  0.2322
 1108TIP3   OH224882   6.808   5.590   2.054  0.6039 -0.0846 -0.2813
 1108TIP3    H124883   6.810   5.507   2.103 -0.1168 -0.7993 -1.4255
 1108TIP3    H224884   6.745   5.644   2.102  1.3143 -0.0512  0.6592
 1109TIP3   OH224885   3.640   4.330   6.863 -0.1369  0.0020  0.2117
 1109TIP3    H124886   3.550   4.347   6.837 -0.2736  0.2802  0.8307
 1109TIP3    H224887   3.693   4.366   6.792 -0.5115 -0.2564 -0.2042
 1110TIP3   OH224888   3.318   6.158   1.858  0.0658  0.2624  0.1751
 1110TIP3    H124889   3.378   6.168   1.932  0.5243 -1.2930  0.0651
 1110TIP3    H224890   3.321   6.241   1.812 -0.9850  1.6527  2.4258
 1111TIP3   OH224891   3.374   0.162   8.547 -0.0067  0.3906  0.3243
 1111TIP3    H124892   3.294   0.149   8.599  0.0682 -0.5364  0.2318
 1111TIP3    H224893   3.353   0.123   8.462  0.9035 -0.8381  0.6408
 1112TIP3   OH224894   3.220   6.025   0.851 -0.2121  0.1706  0.4301
 1112TIP3    H124895   3.202   6.059   0.939 -2.0146 -1.1221  0.6238
 1112TIP3    H224896   3.239   5.932   0.864  1.4369  0.3557 -0.3908
 1113TIP3   OH224897   0.730   2.335   1.459 -0.6297  0.0106 -0.0945
 1113TIP3    H124898   0.795   2.268   1.438 -0.5849  0.1186 -0.2970
 1113TIP3    H224899   0.676   2.341   1.381  0.6634  1.7401 -0.9106
 1114TIP3   OH224900   3.752   0.823   1.300 -0.1808 -0.2782  0.4220
 1114TIP3    H124901   3.664   0.858   1.287 -0.5837 -0.5976  2.0200
 1114TIP3    H224902   3.762   0.755   1.233 -2.4016 -2.4542  2.1290
 1115TIP3   OH224903   4.581   4.938   1.330 -0.2061 -0.3132 -0.2055
 1115TIP3    H124904   4.562   4.868   1.268 -0.2077  0.9926 -1.7673
 1115TIP3    H224905   4.670   4.966   1.308  0.4143 -0.8526  1.4670
 1116TIP3   OH224906   6.574   6.486   0.076 -0.9035 -0.1258  0.2531
 1116TIP3    H124907   6.548   6.569   0.036  1.6693 -0.7065 -3.0698
 1116TIP3    H224908   6.621   6.512   0.156 -0.3953  1.6364 -0.5701
 1117TIP3   OH224909   5.383   1.764   8.397  0.6120 -0.1208 -0.0786
 1117TIP3    H124910   5.425   1.822   8.335  0.6207 -0.4586 -0.3922
 1117TIP3    H224911   5.415   1.676   8.374 -0.5417 -0.4345 -0.5770
 1118TIP3   OH224912   3.046   4.694   8.592  0.5296  0.5545  0.1185
 1118TIP3    H124913   3.071   4.698   8.684  0.7459  1.4787  0.0278
 1118TIP3    H224914   2.992   4.615   8.585 -1.1660  1.5325  1.4332
 1119TIP3   OH224915   6.417   4.164   0.666  0.8805 -0.8438 -0.4195
 1119TIP3    H124916   6.481   4.221   0.624  0.0921 -0.3600 -0.9886
 1119TIP3    H224917   6.340   4.169   0.610  0.8325 -2.5829 -0.5513
 1120TIP3   OH224918   3.217   2.813   0.901  0.1669 -0.0176 -0.1763
 1120TIP3    H124919   3.226   2.904   0.874 -1.7497 -0.1736 -1.4683
 1120TIP3    H224920   3.288   2.767   0.855 -0.4237  0.4202 -1.5396
 1121TIP3   OH224921   3.573   6.539   1.151 -0.9428  0.8058 -0.2295
 1121TIP3    H124922   3.641   6.478   1.123  1.1109  2.2611  1.3584
 1121TIP3    H224923   3.492   6.501   1.116  0.6736 -0.7487 -2.5982
 1122TIP3   OH224924   6.081   0.905   7.849 -0.1526 -0.3749 -0.0665
 1122TIP3    H124925   6.121   0.873   7.768 -2.0762 -2.3731 -0.2887
 1122TIP3    H224926   6.121   0.852   7.918  1.4262  1.2718  0.3542
 1123TIP3   OH224927   3.062   1.199   1.791  0.0370  0.4965 -0.2978
 1123TIP3    H124928   3.076   1.237   1.704 -0.9500 -0.7609 -1.0454
 1123TIP3    H224929   3.036   1.108   1.774 -2.7181  0.8961  1.1419
 1124TIP3   OH224930   3.088   2.665   2.431 -0.4377 -0.0897  0.5577
 1124TIP3    H124931   3.126   2.740   2.477 -1.3542 -0.1087  1.3788
 1124TIP3    H224932   3.003   2.697   2.400  0.0962 -0.1154 -1.0484
 1125TIP3   OH224933   1.018   2.155   8.112 -0.1962  0.2054 -0.1345
 1125TIP3    H124934   1.113   2.158   8.098 -0.2273 -1.3887 -0.9514
 1125TIP3    H224935   1.000   2.227   8.172  1.4390  0.9399 -0.4827
 1126TIP3   OH224936   1.924   4.638   0.493 -0.3158 -0.1229  0.1675
 1126TIP3    H124937   1.897   4.555   0.533 -0.9866 -0.8594 -1.6776
 1126TIP3    H224938   1.922   4.620   0.399  0.1039  1.8331 -0.2503
 1127TIP3   OH224939   5.611   6.493   8.047  0.8526 -0.2555 -0.0473
 1127TIP3    H124940   5.562   6.532   7.975 -2.3618 -1.7137  1.1480
 1127TIP3    H224941   5.601   6.555   8.119 -0.2575 -1.0349  0.5055
 1128TIP3   OH224942   6.123   0.995   7.289 -0.0169  0.4018  0.1875
 1128TIP3    H124943   6.074   1.027   7.365 -2.9426 -3.7765  0.4091
 1128TIP3    H224944   6.061   1.002   7.216  0.4787 -1.2631 -0.4306
 1129TIP3   OH224945   5.603   5.044   8.624 -0.0623 -0.0233  0.3018
 1129TIP3    H124946   5.539   5.114   8.635 -0.7423 -0.3921 -1.0918
 1129TIP3    H224947   5.558   4.965   8.654  0.3745 -0.0337  0.9693
 1130TIP3   OH224948   2.548   1.196   2.151  0.3129  0.2102  0.9323
 1130TIP3    H124949   2.606   1.272   2.143 -1.2124  1.5117  1.6128
 1130TIP3    H224950   2.467   1.223   2.106 -0.1223 -1.1668  0.8571
 1131TIP3   OH224951   4.254   4.434   1.583 -0.0501 -0.0487 -0.5898
 1131TIP3    H124952   4.181   4.374   1.567 -1.6601  1.5141  0.4501
 1131TIP3    H224953   4.222   4.492   1.653  2.3026  0.5388  0.0737
 1132TIP3   OH224954   5.883   2.284   1.563 -0.3073  0.3596  0.0355
 1132TIP3    H124955   5.853   2.327   1.643 -1.5913 -0.0432 -0.2041
 1132TIP3    H224956   5.975   2.310   1.554 -0.1069  0.3253  1.6848
 1133TIP3   OH224957   4.252   4.410   0.458  0.5625 -0.6718  0.2228
 1133TIP3    H124958   4.209   4.495   0.451 -1.4907 -1.7391 -1.1285
 1133TIP3    H224959   4.241   4.385   0.550 -1.1576 -0.6081  0.0598
 1134TIP3   OH224960   1.777   2.469   1.634  0.2499  0.5507 -0.3702
 1134TIP3    H124961   1.690   2.493   1.667 -0.6327 -1.1262 -1.3350
 1134TIP3    H224962   1.762   2.388   1.585  2.1661  0.8732 -1.5784
 1135TIP3   OH224963   0.067   2.803   1.699  0.5898 -0.1591 -0.1468
 1135TIP3    H124964   0.151   2.839   1.670 -0.4180  1.5585 -1.0983
 1135TIP3    H224965   0.028   2.873   1.751 -1.5707  0.3953 -2.3236
 1136TIP3   OH224966   1.519   3.889   0.527  0.0471 -0.5463 -0.1394
 1136TIP3    H124967   1.543   3.921   0.614 -1.4440 -0.7727  0.3845
 1136TIP3    H224968   1.495   3.797   0.541  1.8670 -1.2213 -1.1854
 1137TIP3   OH224969   2.780   5.964   8.395 -0.2927 -0.2429 -0.3452
 1137TIP3    H124970   2.863   6.006   8.418 -0.6099  0.0348  0.2870
 1137TIP3    H224971   2.713   6.028   8.417 -0.5899  0.3330 -2.6918
 1138TIP3   OH224972   6.433   2.641   0.553 -0.0076  0.0177 -0.4558
 1138TIP3    H124973   6.480   2.559   0.540 -0.6670 -0.6457  1.0110
 1138TIP3    H224974   6.366   2.642   0.485  1.2837  0.3520 -1.7536
 1139TIP3   OH224975   2.825   1.405   1.090  0.3552 -0.5926 -0.7217
 1139TIP3    H124976   2.769   1.404   1.012  0.4861  1.0507 -0.8899
 1139TIP3    H224977   2.912   1.383   1.058  0.1441 -1.3835 -0.7703
 1140TIP3   OH224978   4.553   0.501   7.571  0.0734 -0.0587 -0.4485
 1140TIP3    H124979   4.577   0.480   7.481 -1.1195 -0.1060 -0.7683
 1140TIP3    H224980   4.576   0.593   7.582 -0.5153  0.1643 -1.0595
 1141TIP3   OH224981   5.654   0.284   8.224 -0.2902 -0.1490  0.2717
 1141TIP3    H124982   5.642   0.342   8.299  0.1224  1.8803 -1.1504
 1141TIP3    H224983   5.565   0.262   8.197 -0.7663  3.4215 -1.7237
 1142TIP3   OH224984   2.268   2.949   8.499 -0.2937  0.4361 -0.4757
 1142TIP3    H124985   2.256   2.874   8.558  1.1551 -0.3687 -1.1406
 1142TIP3    H224986   2.277   2.910   8.412  2.6530  1.1103 -0.5913
 1143TIP3   OH224987   1.921   1.199   1.403 -0.5393  0.2115 -0.1769
 1143TIP3    H124988   1.861   1.169   1.471 -1.8791 -1.4017 -1.9805
 1143TIP3    H224989   2.003   1.155   1.423 -0.7319  0.2251  0.7022
 1144TIP3   OH224990   2.814   0.985   0.979  0.1435 -0.4378 -0.2209
 1144TIP3    H124991   2.865   1.051   0.930  2.4362  0.6490  3.2638
 1144TIP3    H224992   2.728   1.025   0.991  0.9220  1.1664  0.2547
 1145TIP3   OH224993   3.753   5.689   7.925 -0.7274 -0.9714  0.0368
 1145TIP3    H124994   3.783   5.687   8.015  1.0100 -0.3027 -0.4940
 1145TIP3    H224995   3.725   5.779   7.910 -1.3448 -1.1645  0.0027
 1146TIP3   OH224996   2.294   3.481   2.361  0.2791 -0.2357 -0.3795
 1146TIP3    H124997   2.373   3.445   2.403 -0.1340  1.4043  2.0232
 1146TIP3    H224998   2.288   3.570   2.395 -2.5537 -0.2613 -0.6046
 1147TIP3   OH224999   2.086   3.037   7.321  0.5926 -0.2045 -0.1384
 1147TIP3    H125000   2.128   3.091   7.389 -1.2604 -0.0195  0.9531
 1147TIP3    H225001   2.094   3.089   7.241  0.7995  0.6774  0.4366
 1148TIP3   OH225002   4.636   0.591   0.274 -0.0218  0.5114  0.2740
 1148TIP3    H125003   4.561   0.533   0.283  0.0713  0.3545  0.0253
 1148TIP3    H225004   4.679   0.588   0.360  0.3852 -0.3403  0.0488
 1149TIP3   OH225005   1.387   2.428   8.211 -0.3229 -0.0950 -0.2504
 1149TIP3    H125006   1.327   2.502   8.226 -0.7722 -0.4861 -0.0999
 1149TIP3    H225007   1.473   2.469   8.203 -0.5188  0.4204  0.1824
 1150TIP3   OH225008   4.229   0.522   0.513  0.3848 -0.1139  0.6266
 1150TIP3    H125009   4.254   0.506   0.422  1.6160 -0.2398  0.9692
 1150TIP3    H225010   4.225   0.434   0.552  0.3192 -0.0312  0.8072
 1151TIP3   OH225011   6.827   0.532   1.315 -0.5668 -0.4702 -0.0299
 1151TIP3    H125012   6.866   0.475   1.381 -1.4796  0.3109  1.2455
 1151TIP3    H225013   6.758   0.578   1.362 -1.2904  0.0816 -1.5659
 1152TIP3   OH225014   4.222   3.820   0.420  0.1009 -0.7698  0.4200
 1152TIP3    H125015   4.271   3.892   0.460  1.2074 -0.7073 -0.9363
 1152TIP3    H225016   4.242   3.744   0.474  1.1578 -0.5967  0.3025
 1153TIP3   OH225017   5.498   2.909   6.955  0.2305  0.3288  0.4822
 1153TIP3    H125018   5.525   2.899   7.046 -1.1601  0.4858  0.9443
 1153TIP3    H225019   5.513   2.824   6.915 -0.0782 -0.0303  1.1249
 1154TIP3   OH225020   1.178   4.158   6.600  0.2959 -0.4976  0.1307
 1154TIP3    H125021   1.189   4.152   6.695 -1.9915 -2.2826  0.3627
 1154TIP3    H225022   1.182   4.252   6.582  1.5910 -0.1659  1.8418
 1155TIP3   OH225023   2.122   4.249   1.012 -0.3999 -0.0805 -0.5360
 1155TIP3    H125024   2.094   4.308   1.082  0.0155 -2.4257  1.7590
 1155TIP3    H225025   2.137   4.306   0.937 -1.6228  2.4795  1.0342
 1156TIP3   OH225026   4.703   1.012   8.331 -0.7619 -0.4819 -0.4236
 1156TIP3    H125027   4.787   0.972   8.354 -1.4938 -1.4746  0.6851
 1156TIP3    H225028   4.710   1.034   8.239  1.1660  0.6220 -0.0505
 1157TIP3   OH225029   1.108   5.618   2.659  0.0855  0.3020  0.3749
 1157TIP3    H125030   1.083   5.664   2.740 -2.2525 -1.5170  0.7987
 1157TIP3    H225031   1.032   5.563   2.638  1.3142 -0.5984 -2.1193
 1158TIP3   OH225032   0.812   4.118   1.720  0.4719  0.2893  0.4634
 1158TIP3    H125033   0.770   4.204   1.724 -1.1577 -0.4997  1.7768
 1158TIP3    H225034   0.823   4.093   1.812  0.1652 -1.2416  0.1068
 1159TIP3   OH225035   5.752   2.924   0.248 -0.2527  0.0990  0.4869
 1159TIP3    H125036   5.673   2.961   0.208  0.1842  0.8730  0.3090
 1159TIP3    H225037   5.808   3.000   0.264  0.0753 -0.3357  1.4736
 1160TIP3   OH225038   2.069   6.736   0.008  0.6542  0.0633  0.0398
 1160TIP3    H125039   2.075   6.661  -0.051  0.4171 -0.3278  0.5023
 1160TIP3    H225040   2.059   6.697   0.095  0.2371  0.6282  0.2547
 1161TIP3   OH225041   3.083   5.824   6.559  0.3525 -0.0274  0.7200
 1161TIP3    H125042   3.022   5.895   6.581  1.0907  0.4384  1.3096
 1161TIP3    H225043   3.027   5.752   6.532 -0.3999  0.9574 -0.4307
 1162TIP3   OH225044   3.804   2.321   7.656 -0.2736 -0.4073 -0.3246
 1162TIP3    H125045   3.727   2.347   7.604 -0.4794 -1.2560 -0.4653
 1162TIP3    H225046   3.778   2.337   7.747  0.0208  0.9143 -0.4509
 1163TIP3   OH225047   0.048   2.047   8.502  0.0017  0.2330  0.2554
 1163TIP3    H125048  -0.045   2.066   8.491 -0.2684 -1.1261 -0.0064
 1163TIP3    H225049   0.050   1.968   8.556  0.9262 -0.7355 -1.1310
 1164TIP3   OH225050   4.743   5.091   1.851 -0.1765  0.3423  0.1223
 1164TIP3    H125051   4.784   5.045   1.924 -0.4125  0.5959  0.4140
 1164TIP3    H225052   4.778   5.048   1.773  1.6709  1.3751  0.3130
 1165TIP3   OH225053   5.505   3.240   2.068 -0.0094 -0.0702  0.4078
 1165TIP3    H125054   5.481   3.302   1.999  0.5463 -0.1764  0.1144
 1165TIP3    H225055   5.428   3.184   2.077  0.9589 -2.0758 -2.3626
 1166TIP3   OH225056   5.935   2.672   0.976  0.7503 -0.1876 -0.2347
 1166TIP3    H125057   6.029   2.652   0.978  0.5705 -1.0959 -0.2357
 1166TIP3    H225058   5.916   2.704   1.064  0.8697 -1.0066  0.1043
 1167TIP3   OH225059   4.491   3.675   0.047  0.2142  0.4053  0.2537
 1167TIP3    H125060   4.404   3.640   0.029  0.2692  0.0530  0.6517
 1167TIP3    H225061   4.551   3.610   0.012  0.3208 -0.1180  1.3533
 1168TIP3   OH225062   5.109   6.668   0.537  0.4513  0.2308  0.3199
 1168TIP3    H125063   5.026   6.669   0.490  0.1120  0.7033  0.9150
 1168TIP3    H225064   5.092   6.718   0.617  1.9524  2.4763 -0.6463
 1169TIP3   OH225065   3.618   4.613   8.442 -0.8294  0.0898 -0.1052
 1169TIP3    H125066   3.697   4.629   8.391  0.1240 -0.2196  1.2178
 1169TIP3    H225067   3.548   4.657   8.393 -0.1827 -1.1348 -2.2449
 1170TIP3   OH225068   0.321   4.951   8.637 -0.3431 -0.4627 -0.0538
 1170TIP3    H125069   0.271   4.981   8.562  0.5352  0.7450 -0.1834
 1170TIP3    H225070   0.395   4.903   8.598  0.6319  0.9625 -0.0427
 1171TIP3   OH225071   2.259   1.463   1.563 -0.3641 -0.5085 -0.0242
 1171TIP3    H125072   2.337   1.411   1.580  0.0776  0.6280  1.6841
 1171TIP3    H225073   2.286   1.526   1.497 -0.1077 -0.7163 -0.1204
 1172TIP3   OH225074   2.653   1.190   0.723 -0.3626  0.4278  0.0128
 1172TIP3    H125075   2.743   1.218   0.707  0.6453 -2.8562 -0.8624
 1172TIP3    H225076   2.618   1.172   0.636 -0.4180 -2.1498  0.5031
 1173TIP3   OH225077   0.458   5.312   6.781 -0.0903 -0.0275  0.3309
 1173TIP3    H125078   0.385   5.314   6.719 -0.6723 -0.1912  1.0078
 1173TIP3    H225079   0.524   5.256   6.738 -0.2408  0.3561 -0.4051
 1174TIP3   OH225080   4.930   0.532   7.844  0.0368 -0.1492  0.0113
 1174TIP3    H125081   4.976   0.457   7.806  0.6548 -0.0325  0.5081
 1174TIP3    H225082   4.838   0.514   7.827  0.0485 -1.7043  1.2814
 1175TIP3   OH225083   5.752   4.404   8.238 -0.5333 -0.8815  0.2647
 1175TIP3    H125084   5.712   4.356   8.311  2.4328 -0.0151  2.6820
 1175TIP3    H225085   5.783   4.485   8.277  1.0519 -0.2971 -2.0089
 1176TIP3   OH225086   1.770   5.992   0.337 -0.1683  0.7734  0.9029
 1176TIP3    H125087   1.796   6.023   0.424 -0.2129  0.5615  0.9938
 1176TIP3    H225088   1.700   5.929   0.354  0.7399 -0.2911  0.8187
 1177TIP3   OH225089   0.054   4.819   0.734 -0.0380  0.1888  0.4978
 1177TIP3    H125090   0.129   4.809   0.676 -0.3375 -1.5302  0.3403
 1177TIP3    H225091  -0.019   4.840   0.677 -0.5746 -2.6340  0.0157
 1178TIP3   OH225092   2.893   2.684   0.225 -0.8645 -0.2589 -0.3621
 1178TIP3    H125093   2.825   2.688   0.159  0.0194 -2.0762 -1.4546
 1178TIP3    H225094   2.873   2.606   0.276  0.7969 -1.2842 -1.2046
 1179TIP3   OH225095   2.111   2.407   0.254 -0.4627  0.2755  0.3092
 1179TIP3    H125096   2.133   2.314   0.257 -1.9008 -0.1240 -0.7038
 1179TIP3    H225097   2.049   2.419   0.326 -1.9652 -0.0584 -0.8804
 1180TIP3   OH225098   6.855   2.500   2.064 -0.0049 -0.7786 -0.7778
 1180TIP3    H125099   6.857   2.572   2.127  1.9939  0.4331 -2.1012
 1180TIP3    H225100   6.776   2.515   2.013  0.5748  0.7444 -1.2792
 1181TIP3   OH225101   6.834   2.118   2.245  0.0793 -0.2617  0.4247
 1181TIP3    H125102   6.841   2.026   2.217  0.3217 -0.0254 -0.3379
 1181TIP3    H225103   6.764   2.118   2.310 -0.0931 -0.9460  0.2558
 1182TIP3   OH225104   3.407   4.345   0.655  0.3855  0.3236  0.2219
 1182TIP3    H125105   3.461   4.423   0.671  0.7624  0.1884 -0.3536
 1182TIP3    H225106   3.447   4.304   0.578 -0.5013  0.1862 -0.1801
 1183TIP3   OH225107   1.337   4.834   7.466 -0.3263 -0.0992  0.3936
 1183TIP3    H125108   1.356   4.818   7.559  1.9440  1.8864  0.3445
 1183TIP3    H225109   1.291   4.918   7.465 -1.5146 -0.7329 -0.2221
 1184TIP3   OH225110   5.155   0.966   2.599 -0.2509 -0.3341  0.0400
 1184TIP3    H125111   5.223   1.017   2.644 -1.3024  1.1823 -0.0397
 1184TIP3    H225112   5.132   0.897   2.662  0.5750 -0.2109  0.5003
 1185TIP3   OH225113   4.493   4.198   1.504  0.3675  0.7040  0.4822
 1185TIP3    H125114   4.432   4.202   1.578  2.0917  1.9448  1.9152
 1185TIP3    H225115   4.556   4.267   1.521  0.6708  1.2541 -2.3631
 1186TIP3   OH225116   1.678   3.292   8.553  0.6561  0.9380 -0.2202
 1186TIP3    H125117   1.761   3.252   8.526  0.1340 -0.0802 -0.3498
 1186TIP3    H225118   1.611   3.234   8.518 -0.0994  1.2213  0.7276
 1187TIP3   OH225119   6.279   3.091   2.048 -0.5975  0.1346  0.8640
 1187TIP3    H125120   6.262   3.139   1.967 -0.2543 -0.6711  0.2962
 1187TIP3    H225121   6.303   3.158   2.111  0.0573  0.6949  0.0454
 1188TIP3   OH225122   2.253   4.898   1.955 -0.4260  0.1415 -0.4147
 1188TIP3    H125123   2.321   4.966   1.952 -1.0689  0.9153  1.1762
 1188TIP3    H225124   2.252   4.871   2.047 -1.5320 -0.6267 -0.6430
 1189TIP3   OH225125   4.217   2.841   7.787 -0.2996 -0.2448 -0.6167
 1189TIP3    H125126   4.312   2.841   7.804 -0.4928 -0.7480  0.6132
 1189TIP3    H225127   4.194   2.933   7.778 -0.1709  0.1546  2.2488
 1190TIP3   OH225128   4.638   4.389   1.089  0.4681  0.4047 -0.5807
 1190TIP3    H125129   4.667   4.434   1.168 -0.7317  0.2247 -0.0119
 1190TIP3    H225130   4.588   4.454   1.040 -2.3124 -0.5110  0.8213
 1191TIP3   OH225131   5.062   3.073   7.723 -0.6788  0.0887  0.0200
 1191TIP3    H125132   5.135   3.132   7.704 -0.6867  0.0732 -0.0594
 1191TIP3    H225133   5.006   3.078   7.646  0.0077 -1.0615 -0.5797
 1192TIP3   OH225134   4.235   6.630   0.242 -0.4452  0.0168 -0.2620
 1192TIP3    H125135   4.302   6.679   0.193 -2.8923  1.5921 -2.2701
 1192TIP3    H225136   4.282   6.555   0.278  2.8064  2.0506  0.1354
 1193TIP3   OH225137   2.069   0.091   7.346 -0.0828 -0.0937  0.1633
 1193TIP3    H125138   2.092   0.176   7.383  0.1936 -0.9617  2.1082
 1193TIP3    H225139   2.123   0.083   7.268 -0.0450  1.4628  0.0034
 1194TIP3   OH225140   1.069   3.513   1.788  0.0311  0.3153  0.2332
 1194TIP3    H125141   1.012   3.512   1.865 -0.2571  0.7937  0.0306
 1194TIP3    H225142   1.087   3.420   1.771  1.8235  0.2418  2.1197
 1195TIP3   OH225143   2.516   2.069   0.932  0.1601  0.6492 -0.4921
 1195TIP3    H125144   2.489   1.987   0.890 -1.0004  0.9548 -0.3878
 1195TIP3    H225145   2.610   2.060   0.945  0.1202 -0.4790 -0.8937
 1196TIP3   OH225146   3.393   2.354   8.310 -0.4596 -0.5878  0.2332
 1196TIP3    H125147   3.467   2.313   8.266  0.2679 -0.9154  1.6822
 1196TIP3    H225148   3.377   2.435   8.261 -0.1609 -1.2641 -1.0220
 1197TIP3   OH225149   5.592   2.650   8.265 -0.0767  0.0452  0.7254
 1197TIP3    H125150   5.593   2.559   8.234  0.6044  0.3944 -0.3091
 1197TIP3    H225151   5.504   2.682   8.243 -0.5161 -0.5138  1.5997
 1198TIP3   OH225152   6.212   4.263   2.513  0.3634 -0.4424 -0.4837
 1198TIP3    H125153   6.287   4.294   2.564  1.9440 -2.4986 -1.4435
 1198TIP3    H225154   6.185   4.182   2.557 -2.2692  0.9544  0.6833
 1199TIP3   OH225155   3.583   0.389   0.030 -0.3605  0.6192 -0.2980
 1199TIP3    H125156   3.639   0.317   0.057 -0.2888  1.1710  1.0834
 1199TIP3    H225157   3.498   0.372   0.070 -0.5431  0.9558 -0.5261
 1200TIP3   OH225158   4.257   6.154   8.312  0.3593 -0.6584 -0.2565
 1200TIP3    H125159   4.276   6.129   8.222  1.0726  1.2880 -0.7046
 1200TIP3    H225160   4.163   6.174   8.312  0.5232  0.1604 -0.8082
 1201TIP3   OH225161   5.457   2.177   1.836  0.0300 -0.8362  0.1920
 1201TIP3    H125162   5.494   2.182   1.924  0.7268  0.1791 -0.1431
 1201TIP3    H225163   5.366   2.152   1.850  0.1401 -0.7114  1.2065
 1202TIP3   OH225164   1.098   6.755   1.274  0.5076 -0.1323  0.1525
 1202TIP3    H125165   1.029   6.724   1.333  0.3744  1.1042  0.6798
 1202TIP3    H225166   1.051   6.788   1.198  0.6197 -0.6463 -0.1499
 1203TIP3   OH225167   3.779   0.242   7.502  0.1801  0.2176  0.0580
 1203TIP3    H125168   3.819   0.304   7.442 -1.9488 -0.1911 -1.9526
 1203TIP3    H225169   3.850   0.183   7.528  1.1493  0.2407 -2.3369
 1204TIP3   OH225170   4.725   3.652   6.658  0.3191  0.1204 -0.0287
 1204TIP3    H125171   4.659   3.593   6.693  1.2812 -2.1794 -1.8567
 1204TIP3    H225172   4.796   3.595   6.628  1.8838  2.2935 -0.7700
 1205TIP3   OH225173   0.824   5.856   0.934 -0.0910  0.0651  0.1036
 1205TIP3    H125174   0.884   5.928   0.916 -2.1822  2.1244  0.8883
 1205TIP3    H225175   0.837   5.835   1.026  0.9743 -1.0870 -0.2760
 1206TIP3   OH225176   6.861   0.349   0.113 -0.3074  0.7282  0.0681
 1206TIP3    H125177   6.809   0.270   0.122 -0.9155  0.9504 -1.2359
 1206TIP3    H225178   6.950   0.322   0.135 -0.7608  0.0701  1.1741
 1207TIP3   OH225179   6.025   1.972   1.017  0.7302 -1.2280 -0.5144
 1207TIP3    H125180   6.084   2.027   0.965  1.5376 -0.5355  1.0695
 1207TIP3    H225181   6.031   1.885   0.976  0.5798 -0.4976 -2.1481
 1208TIP3   OH225182   0.354   4.707   2.750  0.2043  0.1507  0.2543
 1208TIP3    H125183   0.278   4.670   2.707  0.9622 -1.1040 -0.0329
 1208TIP3    H225184   0.380   4.781   2.695  0.3457 -0.6066 -0.7071
 1209TIP3   OH225185   4.968   4.734   1.293  0.8818  0.8634 -0.2052
 1209TIP3    H125186   5.005   4.813   1.334  5.2224  0.1191 -2.1070
 1209TIP3    H225187   5.005   4.662   1.345  0.0370  0.0376 -0.7313
 1210TIP3   OH225188   3.071   0.027   2.206  0.2345  0.0983  0.4607
 1210TIP3    H125189   3.049  -0.067   2.204 -3.0519  0.7473 -0.1093
 1210TIP3    H225190   3.058   0.052   2.298  0.1127  0.1862  0.4193
 1211TIP3   OH225191   1.804   0.904   1.325  0.0671  0.8350 -0.3786
 1211TIP3    H125192   1.853   0.959   1.264  0.6522  0.9554  0.1886
 1211TIP3    H225193   1.866   0.886   1.396 -0.8442  1.3609  0.5722
 1212TIP3   OH225194   6.575   3.382   2.035 -0.5247  0.1232  0.2397
 1212TIP3    H125195   6.649   3.327   2.009 -1.1848  0.1786 -1.9237
 1212TIP3    H225196   6.569   3.371   2.130  1.0788 -1.3589  0.2077
 1213TIP3   OH225197   2.122   0.874   7.918  0.1323 -0.3798  0.5640
 1213TIP3    H125198   2.054   0.830   7.969 -0.2324  0.3949  0.7723
 1213TIP3    H225199   2.204   0.849   7.961 -0.0037 -1.4074  0.2470
 1214TIP3   OH225200   0.484   3.285   7.798 -0.1442 -0.0593 -0.6433
 1214TIP3    H125201   0.461   3.196   7.827 -1.6370 -0.0612 -1.7213
 1214TIP3    H225202   0.566   3.304   7.843  0.4035 -2.1277 -0.6529
 1215TIP3   OH225203   2.487   1.667   8.520 -0.1507  0.0052 -0.2888
 1215TIP3    H125204   2.425   1.737   8.498 -0.6908 -0.0195  1.0570
 1215TIP3    H225205   2.508   1.681   8.612 -0.5692 -1.8117  0.1330
 1216TIP3   OH225206   1.738   4.732   8.494  0.3772  0.6778 -0.1759
 1216TIP3    H125207   1.674   4.705   8.560 -0.5228  0.5487 -1.0722
 1216TIP3    H225208   1.790   4.800   8.538  0.5973 -0.2479  1.0522
 1217TIP3   OH225209   4.120   4.680   0.009  0.5239 -0.1421 -0.0512
 1217TIP3    H125210   4.192   4.715  -0.044  1.1052 -2.8099 -1.1838
 1217TIP3    H225211   4.160   4.611   0.061 -1.0312 -1.0032  0.0409
 1218TIP3   OH225212   4.697   0.594   0.577 -0.6939  0.1587  0.0310
 1218TIP3    H125213   4.728   0.504   0.563  0.1016  0.4562 -0.1829
 1218TIP3    H225214   4.610   0.583   0.614 -0.2442 -0.7291  0.8977
 1219TIP3   OH225215   6.608   1.688   7.494  0.0564 -0.2917  0.5328
 1219TIP3    H125216   6.566   1.755   7.441  1.9348 -1.4742 -2.7213
 1219TIP3    H225217   6.599   1.720   7.584  1.1691  4.5570 -0.7808
 1220TIP3   OH225218   1.343   1.583   0.103 -0.1017 -0.0414  0.3478
 1220TIP3    H125219   1.361   1.670   0.140  0.6412 -0.6647  1.5407
 1220TIP3    H225220   1.418   1.530   0.131 -0.6808 -1.1372 -0.1255
 1221TIP3   OH225221   5.111   4.163   8.200 -0.5069  0.3298  0.7132
 1221TIP3    H125222   5.116   4.164   8.296  0.9476  0.4735  0.6604
 1221TIP3    H225223   5.199   4.138   8.172 -0.9878  0.0244 -0.5899
 1222TIP3   OH225224   0.635   0.257   8.232  0.1400  0.6973  0.0240
 1222TIP3    H125225   0.577   0.293   8.165 -0.5211  0.1836  0.3158
 1222TIP3    H225226   0.674   0.180   8.191  0.2912  0.7984 -0.0230
 1223TIP3   OH225227   0.558   5.333   0.904  0.0866 -0.4699  0.6901
 1223TIP3    H125228   0.483   5.316   0.962  0.3138 -0.2213  1.0581
 1223TIP3    H225229   0.539   5.418   0.864 -0.5354 -1.0666 -0.3455
 1224TIP3   OH225230   0.069   0.878   0.206  0.2064 -0.2925  0.1662
 1224TIP3    H125231   0.116   0.812   0.154  2.1735  1.8344 -0.9359
 1224TIP3    H225232   0.136   0.914   0.265 -1.4625 -1.0707  2.7297
 1225TIP3   OH225233   3.537   2.145   0.304 -0.5138 -0.0247 -0.2692
 1225TIP3    H125234   3.573   2.175   0.387  1.2276 -2.3142 -0.0914
 1225TIP3    H225235   3.467   2.206   0.285 -0.8031  0.7507  2.7410
 1226TIP3   OH225236   3.213   1.700   6.900  0.2935 -0.2086  0.0678
 1226TIP3    H125237   3.121   1.677   6.911  0.3856 -1.3189 -1.2820
 1226TIP3    H225238   3.252   1.684   6.986 -0.9201  1.0989  0.8916
 1227TIP3   OH225239   3.260   1.970   1.699  0.0085 -0.4010  0.9800
 1227TIP3    H125240   3.280   2.049   1.647 -0.7391  0.0239  1.3244
 1227TIP3    H225241   3.184   1.995   1.751  0.3674 -1.0383  1.8147
 1228TIP3   OH225242   4.154   0.407   8.102  0.4579  0.4036  0.1227
 1228TIP3    H125243   4.207   0.331   8.125 -1.0509 -1.0883 -1.0637
 1228TIP3    H225244   4.074   0.397   8.154 -0.1266  0.6497 -0.6983
 1229TIP3   OH225245   2.950   5.855   1.999 -0.4074  0.0740 -0.3864
 1229TIP3    H125246   2.902   5.926   2.042 -1.1959  0.9321 -2.5149
 1229TIP3    H225247   3.034   5.894   1.974 -0.7690  0.2532 -1.3954
 1230TIP3   OH225248   5.028   0.074   1.492  0.2509  0.2845 -0.2663
 1230TIP3    H125249   5.034   0.120   1.409 -2.8677  1.1425 -0.1742
 1230TIP3    H225250   5.118   0.049   1.513  1.8001  3.8583 -1.7362
 1231TIP3   OH225251   5.894   0.209   2.530 -0.0091 -0.5681  0.1566
 1231TIP3    H125252   5.975   0.164   2.509  0.3053 -0.3524  0.8610
 1231TIP3    H225253   5.921   0.295   2.562 -0.4396 -0.8739  1.4035
 1232TIP3   OH225254   2.115   1.717   7.564 -0.7451 -0.7653 -0.5162
 1232TIP3    H125255   2.160   1.697   7.482 -0.1172  0.6498 -0.5495
 1232TIP3    H225256   2.023   1.699   7.546 -0.2882 -3.4312 -0.5409
 1233TIP3   OH225257   4.723   2.295   7.721 -0.9612 -0.1698 -0.2197
 1233TIP3    H125258   4.696   2.342   7.800  0.0458 -0.6769  0.4445
 1233TIP3    H225259   4.699   2.204   7.738 -1.2447 -0.2013 -0.7450
 1234TIP3   OH225260   6.858   6.001   0.874  0.7996  0.4599  0.3062
 1234TIP3    H125261   6.953   6.002   0.886  0.9962 -0.4082 -0.9777
 1234TIP3    H225262   6.824   6.046   0.951  2.3198  2.3889 -0.0816
 1235TIP3   OH225263   0.478   3.017   8.612  0.4459  0.4519 -0.1683
 1235TIP3    H125264   0.525   3.022   8.695 -1.3185  1.0504  0.8576
 1235TIP3    H225265   0.388   2.996   8.637 -0.4378  2.0042 -1.8088
 1236TIP3   OH225266   2.232   2.281   6.649 -0.1009  0.0608 -0.3806
 1236TIP3    H125267   2.303   2.249   6.593  0.0795  0.2101 -0.2423
 1236TIP3    H225268   2.235   2.376   6.641 -0.9074  0.0348 -1.1128
 1237TIP3   OH225269   1.422   5.395   0.717  0.4735 -0.2919  0.3542
 1237TIP3    H125270   1.371   5.314   0.717 -0.3874  0.1478  2.9812
 1237TIP3    H225271   1.471   5.392   0.799  0.6564  1.6981  0.3661
 1238TIP3   OH225272   5.034   1.749   2.179 -0.0134 -0.0055 -0.1879
 1238TIP3    H125273   4.958   1.691   2.189  1.3966 -1.7874  1.0907
 1238TIP3    H225274   4.998   1.832   2.151 -2.3349 -1.0529 -0.5310
 1239TIP3   OH225275   0.036   6.310   0.508  0.6089 -0.0094  0.3072
 1239TIP3    H125276   0.042   6.300   0.603 -0.0996  0.4270  0.4073
 1239TIP3    H225277   0.126   6.324   0.480  0.7388  0.6413  1.0113
 1240TIP3   OH225278   3.096   1.104   6.791  0.0232 -0.6617 -0.0112
 1240TIP3    H125279   3.021   1.047   6.805 -2.2021  2.0462 -0.0288
 1240TIP3    H225280   3.102   1.112   6.696 -2.1458  1.9219 -0.0611
 1241TIP3   OH225281   3.540   5.664   0.292 -0.0207 -0.1404  0.1802
 1241TIP3    H125282   3.631   5.657   0.265 -0.1326  0.3059 -0.3327
 1241TIP3    H225283   3.536   5.620   0.377  0.5099 -0.8448 -0.1499
 1242TIP3   OH225284   5.783   6.339   8.192  0.4260 -0.0255  0.2620
 1242TIP3    H125285   5.852   6.402   8.173  0.1546  0.4641  0.8631
 1242TIP3    H225286   5.703   6.380   8.159  0.3755 -0.4638 -0.1750
 1243TIP3   OH225287   2.385   2.459   0.134 -0.0874 -0.1066 -0.0032
 1243TIP3    H125288   2.318   2.425   0.075 -1.1418 -0.2629  1.2418
 1243TIP3    H225289   2.337   2.483   0.214  1.0016  1.8681  0.1180
 1244TIP3   OH225290   4.229   0.980   7.902 -0.3455  0.2434  0.1594
 1244TIP3    H125291   4.235   1.074   7.885  0.5172  0.5182  1.7519
 1244TIP3    H225292   4.158   0.972   7.966 -1.6621 -0.4254 -1.3244
 1245TIP3   OH225293   0.206   2.763   2.626 -0.3991  0.3228  0.5385
 1245TIP3    H125294   0.140   2.760   2.695 -1.6112  2.6924 -0.4077
 1245TIP3    H225295   0.223   2.856   2.614  1.6456 -0.1544 -0.6594
 1246TIP3   OH225296   6.153   2.459   0.546 -0.4178 -0.1100 -0.3751
 1246TIP3    H125297   6.113   2.498   0.469 -0.1500 -1.9057 -1.4598
 1246TIP3    H225298   6.120   2.370   0.549  0.0414 -0.2718  1.2690
 1247TIP3   OH225299   3.334   1.094   7.553 -0.6295  0.3196  0.2181
 1247TIP3    H125300   3.293   1.063   7.472 -1.9731  0.1077  0.9368
 1247TIP3    H225301   3.379   1.175   7.528  0.8148 -0.8465 -1.1644
 1248TIP3   OH225302   0.840   3.936   0.395  0.3784 -0.2272 -0.3685
 1248TIP3    H125303   0.906   3.941   0.464  2.3100 -0.5381 -2.1133
 1248TIP3    H225304   0.888   3.913   0.316 -1.1405  3.3137 -2.6117
 1249TIP3   OH225305   1.732   6.720   0.111  0.4407 -0.6229  0.7023
 1249TIP3    H125306   1.772   6.806   0.110 -0.5482 -0.1372  1.7220
 1249TIP3    H225307   1.784   6.669   0.049  0.9239  0.7449 -0.0568
 1250TIP3   OH225308   4.137   4.509   2.771 -0.0425  0.2909 -0.0224
 1250TIP3    H125309   4.154   4.481   2.681 -1.3587  1.3526 -0.6377
 1250TIP3    H225310   4.134   4.605   2.766  0.9246  0.4349  1.3768
 1251TIP3   OH225311   2.819   4.091   8.172  0.5059 -0.1184  0.4065
 1251TIP3    H125312   2.779   4.051   8.095  1.9396 -0.0948 -0.3875
 1251TIP3    H225313   2.766   4.169   8.190 -0.6613 -0.8759  0.2926
 1252TIP3   OH225314   1.628   3.428   7.335 -0.0763  0.5747  0.1589
 1252TIP3    H125315   1.587   3.501   7.380 -0.1719  0.8376 -0.3545
 1252TIP3    H225316   1.623   3.355   7.398  0.2474  1.0673  0.7648
 1253TIP3   OH225317   1.600   0.158   7.746  0.1784 -0.1367 -0.0411
 1253TIP3    H125318   1.657   0.082   7.740  0.9225  0.1823  2.3302
 1253TIP3    H225319   1.512   0.121   7.757  0.6130 -0.7227  1.8507
 1254TIP3   OH225320   3.133   3.702   2.561 -0.2862  0.0596 -0.2679
 1254TIP3    H125321   3.093   3.639   2.501  0.3566 -0.6178 -0.0024
 1254TIP3    H225322   3.162   3.650   2.636  2.4543  0.2020 -1.1039
 1255TIP3   OH225323   0.912   4.275   8.586 -0.1322  0.5762 -0.3653
 1255TIP3    H125324   0.994   4.316   8.561  0.4766  0.1803  0.8620
 1255TIP3    H225325   0.912   4.191   8.541  0.7273  0.0667  0.5307
 1256TIP3   OH225326   1.258   4.598   2.746  0.1674 -0.1178  0.4008
 1256TIP3    H125327   1.171   4.564   2.727  0.5369 -1.4764  1.0821
 1256TIP3    H225328   1.302   4.599   2.661  0.1312 -1.3251  0.3520
 1257TIP3   OH225329   6.458   5.652   1.874 -0.5459 -0.3375  0.0034
 1257TIP3    H125330   6.419   5.565   1.872  0.6375 -0.9000  0.4256
 1257TIP3    H225331   6.464   5.674   1.967 -1.5918  0.5657 -0.1203
 1258TIP3   OH225332   3.090   1.293   1.033 -0.2773 -0.4398  0.3036
 1258TIP3    H125333   3.125   1.268   1.118  1.4771 -0.4216 -0.3821
 1258TIP3    H225334   3.150   1.253   0.969 -1.4121 -0.2539 -0.9260
 1259TIP3   OH225335   6.053   1.447   7.703  0.3362 -0.3324  0.3541
 1259TIP3    H125336   6.043   1.536   7.738  1.6841 -0.6316  1.6082
 1259TIP3    H225337   6.062   1.392   7.781  1.2182 -1.3351 -0.4389
 1260TIP3   OH225338   5.693   3.139   1.324  0.1347  0.4476 -0.2531
 1260TIP3    H125339   5.787   3.124   1.326  0.0696  0.0363  1.7823
 1260TIP3    H225340   5.663   3.091   1.247  1.4260 -0.4677 -0.2118
 1261TIP3   OH225341   5.785   0.882   0.378 -0.1006  0.6578  0.6271
 1261TIP3    H125342   5.850   0.892   0.447  0.9508 -1.5200  0.0708
 1261TIP3    H225343   5.744   0.798   0.396  0.3403 -0.0645 -1.4396
 1262TIP3   OH225344   5.928   2.925   2.863 -0.0451 -0.1659  0.0841
 1262TIP3    H125345   5.959   2.838   2.889  1.0247 -0.0202 -0.6275
 1262TIP3    H225346   5.863   2.908   2.795  0.4537 -0.4037 -0.3375
 1263TIP3   OH225347   4.020   6.224   7.761 -0.2355 -0.5959  1.0252
 1263TIP3    H125348   3.952   6.258   7.819 -0.2196  0.6415  0.3687
 1263TIP3    H225349   3.976   6.215   7.676 -0.5097 -3.2786  1.3807
 1264TIP3   OH225350   0.048   5.960   7.948  0.0124  0.7357  0.0204
 1264TIP3    H125351   0.024   5.994   8.034 -1.5927  2.0743 -0.9031
 1264TIP3    H225352   0.054   6.038   7.892  1.7727 -0.0218 -0.9573
 1265TIP3   OH225353   4.006   1.687   2.044  0.1153 -0.3001 -0.1770
 1265TIP3    H125354   4.060   1.633   2.102  1.7459  0.6145 -0.7953
 1265TIP3    H225355   3.918   1.683   2.082  0.8979 -0.6957  1.6579
 1266TIP3   OH225356   3.015   1.708   2.094 -0.5373 -0.0113 -0.0486
 1266TIP3    H125357   3.066   1.768   2.040  1.1284 -0.3049  1.1053
 1266TIP3    H225358   2.961   1.765   2.149  0.1810  0.4050  0.2380
 1267TIP3   OH225359   5.172   5.340   6.685  0.0986 -0.3672 -0.0092
 1267TIP3    H125360   5.256   5.296   6.674  0.1888 -0.0018 -0.9236
 1267TIP3    H225361   5.110   5.271   6.708  0.9988 -0.3779  2.7459
 1268TIP3   OH225362   2.555   3.387   7.954 -0.8999  0.3011  0.3209
 1268TIP3    H125363   2.476   3.439   7.945  0.4184  2.1187 -1.8859
 1268TIP3    H225364   2.618   3.445   7.996  0.2569  0.1245 -1.0941
 1269TIP3   OH225365   1.107   5.551   1.512 -0.3938 -0.1906 -0.0497
 1269TIP3    H125366   1.017   5.550   1.546  0.0934 -0.8453  1.3129
 1269TIP3    H225367   1.160   5.521   1.586  0.6556 -2.4945 -1.6515
 1270TIP3   OH225368   1.833   3.564   7.210 -0.3126 -0.0383 -0.3617
 1270TIP3    H125369   1.765   3.504   7.240 -0.8852  1.6523  1.9917
 1270TIP3    H225370   1.785   3.639   7.174  0.3278  0.3780 -0.3703
 1271TIP3   OH225371   6.765   5.237   8.255  0.2236 -0.0170  0.3036
 1271TIP3    H125372   6.825   5.301   8.217  2.2820 -2.0140 -0.1073
 1271TIP3    H225373   6.752   5.266   8.345  1.0397  1.0070  0.1056
 1272TIP3   OH225374   4.529   2.521   2.001  0.1661  0.0738  0.4924
 1272TIP3    H125375   4.561   2.461   2.069  1.2936  0.0826 -0.0083
 1272TIP3    H225376   4.576   2.603   2.017  1.3267 -0.2687 -0.9728
 1273TIP3   OH225377   0.215   3.831   1.239  0.1254  0.0949 -0.0726
 1273TIP3    H125378   0.297   3.786   1.257 -0.5590 -0.6374  1.3622
 1273TIP3    H225379   0.159   3.764   1.199  0.2791  0.6458 -1.2489
 1274TIP3   OH225380   4.626   4.328   8.344 -0.1416 -0.3673 -0.0204
 1274TIP3    H125381   4.653   4.267   8.276  1.3117  0.6679 -0.4235
 1274TIP3    H225382   4.648   4.414   8.309 -0.1694  0.2426  1.3971
 1275TIP3   OH225383   5.125   6.309   1.538  0.6342  0.0822  0.0716
 1275TIP3    H125384   5.055   6.261   1.582  0.9744  0.3346  0.9162
 1275TIP3    H225385   5.099   6.311   1.446 -0.8384  0.7798  0.4670
 1276TIP3   OH225386   6.281   0.558   2.055 -0.3513 -0.1741  0.2549
 1276TIP3    H125387   6.365   0.536   2.097  0.3986 -0.0092 -1.1214
 1276TIP3    H225388   6.237   0.473   2.045  0.0171 -0.3622  0.2152
 1277TIP3   OH225389   5.545   1.364   8.534 -0.3544 -0.0527  0.0456
 1277TIP3    H125390   5.514   1.340   8.446  1.2907 -2.6853  0.0630
 1277TIP3    H225391   5.613   1.299   8.553  0.4700  1.4527  2.6296
 1278TIP3   OH225392   4.431   3.482   0.742 -0.1693  0.1533 -0.4012
 1278TIP3    H125393   4.450   3.389   0.732  0.0007  0.1624 -0.1818
 1278TIP3    H225394   4.508   3.527   0.707  0.4745  0.1806  0.9650
 1279TIP3   OH225395   0.301   2.044   8.395 -0.2211 -0.2981  0.1759
 1279TIP3    H125396   0.377   2.034   8.453 -0.6807 -0.6663  0.7401
 1279TIP3    H225397   0.227   2.057   8.455 -0.8325 -1.4997 -0.2807
 1280TIP3   OH225398   4.699   0.171   2.082 -0.1113 -0.0802  0.0430
 1280TIP3    H125399   4.675   0.227   2.156 -1.0568 -0.8697  0.3495
 1280TIP3    H225400   4.764   0.110   2.118  0.6655  0.5854 -0.2061
 1281TIP3   OH225401   3.477   0.118   0.656 -0.0633 -0.6263  0.2004
 1281TIP3    H125402   3.478   0.088   0.565  0.8138  0.9087 -0.3441
 1281TIP3    H225403   3.569   0.112   0.684 -0.2739 -0.7659  0.8740
 1282TIP3   OH225404   2.144   0.303   1.615 -0.5448 -0.5839 -0.3520
 1282TIP3    H125405   2.123   0.210   1.602  1.0128 -1.0780  0.4754
 1282TIP3    H225406   2.106   0.346   1.539 -2.3908 -1.7062 -0.1417
 1283TIP3   OH225407   6.125   2.735   6.345  0.1941 -0.1521 -0.0623
 1283TIP3    H125408   6.065   2.785   6.290 -0.5698 -0.7394  0.2204
 1283TIP3    H225409   6.125   2.647   6.306 -1.1735 -0.8688  1.4537
 1284TIP3   OH225410   1.623   4.567   7.131 -0.1476  0.1049  0.6847
 1284TIP3    H125411   1.587   4.633   7.189 -0.3703 -0.4405  1.1698
 1284TIP3    H225412   1.674   4.509   7.188  0.6284  0.2584  0.1651
 1285TIP3   OH225413   0.789   3.763   0.039  0.4672  0.1932  0.6817
 1285TIP3    H125414   0.740   3.784  -0.041 -1.0655  2.3960  2.0777
 1285TIP3    H225415   0.871   3.811   0.029  0.8109 -0.5293 -0.0761
 1286TIP3   OH225416   5.588   4.671   8.424  0.0194 -0.4623 -0.0122
 1286TIP3    H125417   5.496   4.696   8.420  0.6282  1.8547 -1.2753
 1286TIP3    H225418   5.613   4.684   8.516 -0.4132  1.0076 -0.0783
 1287TIP3   OH225419   6.818   0.847   0.825 -0.9192  0.1169  0.4771
 1287TIP3    H125420   6.800   0.787   0.897 -0.2049  0.9315  1.3505
 1287TIP3    H225421   6.847   0.928   0.867  0.8296  0.1721 -0.7143
 1288TIP3   OH225422   0.261   1.607   2.290 -0.5335  0.0124  0.4317
 1288TIP3    H125423   0.322   1.680   2.299  2.2357 -1.8349 -1.4588
 1288TIP3    H225424   0.314   1.530   2.311 -3.0644 -1.5580  1.4433
 1289TIP3   OH225425   1.171   1.673   7.489 -0.6060 -0.0967 -0.1859
 1289TIP3    H125426   1.148   1.762   7.516  0.7450  0.5476 -1.0566
 1289TIP3    H225427   1.224   1.639   7.561  3.3054  1.7503 -1.9037
 1290TIP3   OH225428   6.249   3.929   7.271 -0.1372  0.0422 -0.3342
 1290TIP3    H125429   6.153   3.926   7.263 -0.5572  3.4562  1.5250
 1290TIP3    H225430   6.280   3.949   7.183 -1.1309 -0.7828 -0.8958
 1291TIP3   OH225431   3.610   0.059   8.626  0.4475  0.6119  0.2531
 1291TIP3    H125432   3.524   0.101   8.633  0.2610  0.4480 -0.8505
 1291TIP3    H225433   3.606   0.010   8.543  1.2579 -0.1968  0.6727
 1292TIP3   OH225434   5.684   3.356   2.863  0.2050 -0.3057 -0.2359
 1292TIP3    H125435   5.651   3.286   2.807 -0.2637  0.0822 -0.4534
 1292TIP3    H225436   5.613   3.420   2.866 -0.2445 -0.8121  1.6958
 1293TIP3   OH225437   1.158   2.063   8.617  0.2259 -0.4251 -0.6972
 1293TIP3    H125438   1.153   2.054   8.521  2.8561 -2.0261 -0.7844
 1293TIP3    H225439   1.251   2.081   8.634 -0.1396 -0.4293  1.6072
 1294TIP3   OH225440   3.955   3.414   0.599  0.5137  0.2734 -0.1450
 1294TIP3    H125441   3.901   3.378   0.529 -1.1896  1.9451  0.2152
 1294TIP3    H225442   3.908   3.492   0.628  1.8228  0.3634  1.9949
 1295TIP3   OH225443   6.099   3.380   8.171  0.5144  0.2697 -0.1915
 1295TIP3    H125444   6.134   3.443   8.107 -0.7699  1.1601 -0.0545
 1295TIP3    H225445   6.176   3.331   8.200  1.1837  0.0472 -2.1727
 1296TIP3   OH225446   4.965   3.657   7.138 -0.0338  0.2802  0.5219
 1296TIP3    H125447   4.987   3.669   7.046 -2.7398  4.1486  0.0931
 1296TIP3    H225448   4.944   3.565   7.147  0.0266 -0.1628 -2.8050
 1297TIP3   OH225449   3.074   1.133   8.684 -0.0127 -0.0522 -0.6590
 1297TIP3    H125450   3.087   1.062   8.622  0.4369 -1.3768  0.8974
 1297TIP3    H225451   2.981   1.132   8.704  0.0842 -0.5794 -0.2205
 1298TIP3   OH225452   3.417   0.334   7.171  0.4250 -0.2197 -0.2421
 1298TIP3    H125453   3.437   0.248   7.134  1.2092 -0.8272  1.4850
 1298TIP3    H225454   3.336   0.322   7.220  0.4197  0.0650 -0.1776
 1299TIP3   OH225455   4.047   3.751   0.882 -0.7832 -0.1118 -0.0288
 1299TIP3    H125456   4.105   3.683   0.915 -1.6290 -0.8132  0.0450
 1299TIP3    H225457   4.086   3.833   0.914 -0.7008 -0.6653  1.3542
 1300TIP3   OH225458   2.736   6.660   0.928  0.5607  0.5176 -0.0206
 1300TIP3    H125459   2.641   6.650   0.923  0.5104  1.1742 -0.4456
 1300TIP3    H225460   2.767   6.636   0.840  0.6603  1.5852 -0.2927
 1301TIP3   OH225461   4.113   4.261   1.966 -0.2670 -0.2633  0.0487
 1301TIP3    H125462   4.146   4.289   1.881  1.9820 -0.5102  0.7892
 1301TIP3    H225463   4.049   4.192   1.946 -0.5741  0.4271 -1.4531
 1302TIP3   OH225464   4.110   3.359   1.469  0.1436  0.3065 -0.4319
 1302TIP3    H125465   4.204   3.349   1.454  0.4464  1.2446  0.7249
 1302TIP3    H225466   4.069   3.324   1.390  1.3845 -1.8471 -0.1997
 1303TIP3   OH225467   1.967   1.857   7.283 -0.7239 -0.1821  0.6662
 1303TIP3    H125468   1.885   1.841   7.236 -0.1714  1.2818 -0.9217
 1303TIP3    H225469   1.953   1.940   7.329 -0.8313 -0.9964  2.1769
 1304TIP3   OH225470   3.409   0.908   8.140 -0.1988  0.5736 -0.1388
 1304TIP3    H125471   3.328   0.957   8.152 -0.0872  0.3620  1.7664
 1304TIP3    H225472   3.382   0.825   8.101 -1.0317  0.1658  1.2503
 1305TIP3   OH225473   1.809   4.995   6.378  0.4572  0.1448 -0.6384
 1305TIP3    H125474   1.813   5.081   6.419 -1.4088 -0.7514  1.6760
 1305TIP3    H225475   1.716   4.975   6.372  0.8247 -2.3984  0.5670
 1306TIP3   OH225476   0.100   1.685   6.239  0.3610 -0.2176 -0.5362
 1306TIP3    H125477   0.024   1.728   6.199 -0.8316 -2.0321 -0.3841
 1306TIP3    H225478   0.074   1.673   6.330 -0.6304 -3.6294 -1.1079
 1307TIP3   OH225479   0.175   2.719   0.532  0.0517 -0.6555  0.3914
 1307TIP3    H125480   0.176   2.814   0.522 -0.0187 -0.6254  0.6732
 1307TIP3    H225481   0.201   2.686   0.446 -0.4577 -0.3924  0.1330
 1308TIP3   OH225482   3.014   5.329   8.479  0.5741  0.3613  0.6942
 1308TIP3    H125483   3.063   5.300   8.402  0.1818 -1.6681  1.1536
 1308TIP3    H225484   3.074   5.315   8.552  0.7171  1.6777  0.8513
 1309TIP3   OH225485   6.021   6.059   8.602 -0.1497  0.3789  0.1804
 1309TIP3    H125486   6.037   6.149   8.629 -1.4316  1.0900 -1.2354
 1309TIP3    H225487   5.957   6.067   8.531  0.9135 -1.5373 -1.0769
 1310TIP3   OH225488   0.857   2.736   7.096  0.1519 -0.7440 -0.5581
 1310TIP3    H125489   0.814   2.821   7.099 -1.4694 -1.5479  1.1073
 1310TIP3    H225490   0.934   2.746   7.153 -0.3004 -0.5177  0.0173
 1311TIP3   OH225491   6.478   1.724   1.512  0.7115 -0.5345  0.4994
 1311TIP3    H125492   6.471   1.726   1.608  2.0693 -0.6516  0.6109
 1311TIP3    H225493   6.430   1.802   1.483 -0.2095 -0.8130  1.2327
 1312TIP3   OH225494   0.240   0.835   1.369  0.5074 -0.5970  0.6139
 1312TIP3    H125495   0.284   0.903   1.317  0.8860 -1.3479 -0.0649
 1312TIP3    H225496   0.225   0.877   1.454 -0.5834  0.8307 -0.2288
 1313TIP3   OH225497   0.912   6.641   2.201 -0.0071  0.7088 -0.1373
 1313TIP3    H125498   0.926   6.592   2.282 -1.5177 -0.0381 -0.2981
 1313TIP3    H225499   0.832   6.691   2.217 -1.6702 -1.1995 -1.9200
 1314TIP3   OH225500   5.983   0.308   1.218 -0.0909  0.0629  0.1975
 1314TIP3    H125501   6.012   0.227   1.177  2.9038  1.0812  0.0594
 1314TIP3    H225502   5.893   0.290   1.246 -1.5566 -1.5081 -4.5672
 1315TIP3   OH225503   6.254   1.310   2.062 -0.7407  0.4251 -0.4103
 1315TIP3    H125504   6.308   1.257   2.121 -2.3474 -0.5783  0.2365
 1315TIP3    H225505   6.187   1.348   2.118 -2.0104 -0.1434 -1.4911
 1316TIP3   OH225506   1.301   2.174   8.184  0.3995 -0.1325 -0.7566
 1316TIP3    H125507   1.303   2.270   8.187  2.8143 -0.0962 -1.5522
 1316TIP3    H225508   1.389   2.149   8.156 -0.4379 -2.5664 -1.4511
 1317TIP3   OH225509   5.311   2.625   6.826 -0.2345 -0.0613 -0.0879
 1317TIP3    H125510   5.387   2.617   6.884 -0.9331 -1.0546  0.7119
 1317TIP3    H225511   5.340   2.686   6.758  1.6216 -1.1572 -0.3545
 1318TIP3   OH225512   1.762   0.116   6.341  0.2968 -0.7398 -0.4398
 1318TIP3    H125513   1.666   0.120   6.346  0.3530 -0.0707  0.3968
 1318TIP3    H225514   1.791   0.194   6.388  1.2349 -0.2894 -1.7175
 1319TIP3   OH225515   4.799   1.489   1.121  0.3556 -0.0151  0.2456
 1319TIP3    H125516   4.746   1.459   1.047  0.9980  0.9779 -0.6522
 1319TIP3    H225517   4.738   1.492   1.195 -0.8171  0.9332 -0.7208
 1320TIP3   OH225518   6.516   0.356   0.155  0.2273  0.0472  0.3170
 1320TIP3    H125519   6.575   0.360   0.230 -0.8921 -2.6327  1.4902
 1320TIP3    H225520   6.464   0.436   0.161  3.3700  2.3283 -0.5807
 1321TIP3   OH225521   2.052   1.440   7.411  0.1997 -0.4521 -0.0038
 1321TIP3    H125522   1.973   1.448   7.358  0.1279 -1.2486 -0.0328
 1321TIP3    H225523   2.119   1.485   7.360 -0.5011  1.4398  0.6606
 1322TIP3   OH225524   6.465   1.386   6.309  0.0635 -0.5818 -1.0945
 1322TIP3    H125525   6.414   1.462   6.336 -0.5347 -0.9598 -1.1337
 1322TIP3    H225526   6.553   1.420   6.292 -0.3682  0.2082 -1.7658
 1323TIP3   OH225527   0.582   1.370   1.636  0.4183  0.0657 -0.4438
 1323TIP3    H125528   0.630   1.438   1.684 -0.4831  0.3605  0.0599
 1323TIP3    H225529   0.497   1.367   1.678  0.0272 -0.5288 -1.2601
 1324TIP3   OH225530   5.465   3.150   0.578 -0.0786  0.5041 -0.2041
 1324TIP3    H125531   5.518   3.071   0.567 -1.0082 -0.1057 -0.4663
 1324TIP3    H225532   5.381   3.117   0.612  0.0524  1.5417  1.2168
 1325TIP3   OH225533   0.528   1.125   8.122  0.0433  0.0982  0.1037
 1325TIP3    H125534   0.434   1.133   8.107  0.0162  0.9708  0.7320
 1325TIP3    H225535   0.539   1.136   8.216  0.4327 -3.3133  0.6101
 1326TIP3   OH225536   1.820   2.085   0.221  0.1121 -0.4642  0.4021
 1326TIP3    H125537   1.735   2.056   0.186 -0.5405  0.0388  1.5032
 1326TIP3    H225538   1.798   2.124   0.306  1.3153  0.6978  0.2035
 1327TIP3   OH225539   5.603   0.064   2.017 -0.3010  0.1439 -0.4918
 1327TIP3    H125540   5.655   0.143   2.000 -1.3219  1.5720  2.3106
 1327TIP3    H225541   5.512   0.095   2.014 -0.6984 -0.7781  1.2270
 1328TIP3   OH225542   0.173   2.902   7.385  0.0489  0.1634  0.0790
 1328TIP3    H125543   0.110   2.890   7.315  0.8644 -0.3381 -0.5950
 1328TIP3    H225544   0.177   2.817   7.430  0.2130  0.2009  0.1388
 1329TIP3   OH225545   1.919   2.108   6.709  0.1671  0.2925  0.3091
 1329TIP3    H125546   1.845   2.051   6.730 -0.2964  0.0775 -1.6824
 1329TIP3    H225547   1.897   2.192   6.750 -0.0938 -0.3676  1.5857
 1330TIP3   OH225548   6.178   6.666   8.439  0.1198 -0.7809  0.2911
 1330TIP3    H125549   6.209   6.683   8.350 -0.7300  0.0077  0.1297
 1330TIP3    H225550   6.189   6.749   8.485 -1.9057 -0.3853  0.1530
 1331TIP3   OH225551   0.511   3.480   7.348 -0.3109  0.1799 -0.5798
 1331TIP3    H125552   0.431   3.532   7.350 -1.5239 -1.6327  0.9187
 1331TIP3    H225553   0.493   3.411   7.284 -0.2331 -0.6418  0.2706
 1332TIP3   OH225554   5.887   3.952   1.844 -0.3353 -0.2404 -0.5238
 1332TIP3    H125555   5.833   4.032   1.843  0.2068  0.1435 -2.2560
 1332TIP3    H225556   5.947   3.965   1.917 -1.0536  0.3764 -0.0231
 1333TIP3   OH225557   3.658   2.205   0.558 -0.1526 -0.4929  0.0494
 1333TIP3    H125558   3.678   2.146   0.631  0.6544  1.0532  1.1451
 1333TIP3    H225559   3.627   2.285   0.601 -2.1237 -0.3967 -1.4177
 1334TIP3   OH225560   3.229   1.777   6.622 -0.2305  0.4358  0.0410
 1334TIP3    H125561   3.214   1.759   6.715  2.0829  0.9588  0.5743
 1334TIP3    H225562   3.225   1.692   6.580  1.7234 -0.2548  1.1381
 1335TIP3   OH225563   5.180   4.847   7.177 -0.1516  0.6306 -0.2059
 1335TIP3    H125564   5.191   4.849   7.082 -1.9556  0.0785 -0.4674
 1335TIP3    H225565   5.232   4.772   7.205 -1.0295 -0.3267 -1.0202
 1336TIP3   OH225566   0.653   2.438   1.057 -0.3030  0.0615 -0.4657
 1336TIP3    H125567   0.585   2.500   1.031 -0.6301 -0.2312 -0.3119
 1336TIP3    H225568   0.616   2.392   1.133  0.4364  0.5654  0.2241
 1337TIP3   OH225569   2.856   2.465   0.364  0.1457  0.6053 -0.4835
 1337TIP3    H125570   2.887   2.441   0.451 -0.5685  1.0580 -0.0959
 1337TIP3    H225571   2.789   2.399   0.344  1.2586 -0.3172 -1.2795
 1338TIP3   OH225572   6.601   2.235   2.177  0.1034  0.0840 -0.1893
 1338TIP3    H125573   6.591   2.212   2.269  0.2762  1.2962  0.1506
 1338TIP3    H225574   6.684   2.195   2.151 -0.2514 -0.7911 -0.0065
 1339TIP3   OH225575   6.210   4.477   6.668 -0.0798  0.1327 -0.5540
 1339TIP3    H125576   6.280   4.424   6.633  0.5376  0.4742  0.1368
 1339TIP3    H225577   6.132   4.421   6.664  0.0011  0.0924 -2.2459
 1340TIP3   OH225578   0.462   6.027   0.272  0.0344  0.1384 -0.7680
 1340TIP3    H125579   0.395   5.972   0.313 -0.9608  2.9293  1.7353
 1340TIP3    H225580   0.415   6.076   0.205 -0.1469  1.0026 -0.0350
 1341TIP3   OH225581   0.108   1.696   6.853 -0.8191  0.1896 -0.3644
 1341TIP3    H125582   0.142   1.607   6.846 -2.4906 -0.3803 -1.9330
 1341TIP3    H225583   0.159   1.746   6.789 -0.1828  0.2919  0.2051
 1342TIP3   OH225584   2.252   2.874   0.475 -0.4020 -0.7813 -0.7215
 1342TIP3    H125585   2.228   2.788   0.440 -0.7059 -1.2724  0.6163
 1342TIP3    H225586   2.348   2.872   0.479 -0.3828 -0.8495 -1.2005
 1343TIP3   OH225587   4.806   5.564   0.940 -0.2356  0.4142  0.4585
 1343TIP3    H125588   4.775   5.630   1.003  0.8446  1.6953 -0.2976
 1343TIP3    H225589   4.893   5.595   0.914  0.8547 -2.0147  1.0174
 1344TIP3   OH225590   2.185   2.238   2.161  0.1223  0.5984 -0.6268
 1344TIP3    H125591   2.236   2.315   2.187 -2.0246  0.9416  3.3762
 1344TIP3    H225592   2.226   2.165   2.207 -1.5428  0.5371  0.8893
 1345TIP3   OH225593   5.729   2.302   7.864 -0.3727 -0.0386  0.5238
 1345TIP3    H125594   5.698   2.223   7.909 -0.5811  0.1830  0.7664
 1345TIP3    H225595   5.660   2.322   7.801  1.1630 -2.0544 -2.0464
 1346TIP3   OH225596   2.759   0.215   0.121 -0.5110 -0.0209  0.3290
 1346TIP3    H125597   2.753   0.141   0.061  2.1837 -0.3397  0.3291
 1346TIP3    H225598   2.803   0.283   0.071 -2.1488  1.3097  0.6252
 1347TIP3   OH225599   0.055   5.726   0.934  0.6249 -0.1963  0.4707
 1347TIP3    H125600   0.039   5.810   0.892  2.1239  1.0889  2.3189
 1347TIP3    H225601  -0.025   5.710   0.985 -0.5753 -1.0433 -1.5369
 1348TIP3   OH225602   1.666   4.755   0.261 -0.1619 -0.0074 -0.9843
 1348TIP3    H125603   1.618   4.828   0.222  0.0801  0.2773 -0.7486
 1348TIP3    H225604   1.739   4.795   0.307 -1.2071 -0.2021  0.9474
 1349TIP3   OH225605   1.044   3.755   0.256  0.6630  0.0648 -1.0270
 1349TIP3    H125606   1.096   3.796   0.187 -1.0547 -0.0687 -2.4910
 1349TIP3    H225607   1.018   3.671   0.219 -1.4225  0.5564 -0.8189
 1350TIP3   OH225608   0.109   3.734   8.611 -0.8309  0.9697  0.0014
 1350TIP3    H125609   0.158   3.655   8.586 -0.9522  0.9953 -0.3230
 1350TIP3    H225610   0.030   3.701   8.654 -0.3761  0.9305  0.8468
 1351TIP3   OH225611   5.880   4.807   1.628 -0.4146  0.0888 -0.9937
 1351TIP3    H125612   5.790   4.774   1.639 -0.0677 -0.2774  1.1276
 1351TIP3    H225613   5.926   4.779   1.706  1.4278  0.7912 -1.7641
 1352TIP3   OH225614   1.115   0.708   8.142 -0.0183  0.1178  0.5626
 1352TIP3    H125615   1.190   0.736   8.195 -0.4082  0.2070  1.0767
 1352TIP3    H225616   1.094   0.620   8.176 -0.1292  0.0844  0.4073
 1353TIP3   OH225617   4.939   3.562   0.381  0.3037  0.4840  0.6932
 1353TIP3    H125618   5.013   3.540   0.438  1.0053 -2.6573 -1.2190
 1353TIP3    H225619   4.862   3.530   0.429  0.4897  0.8399  1.2503
 1354TIP3   OH225620   1.002   2.496   1.918 -1.0603  0.2670 -0.1223
 1354TIP3    H125621   1.029   2.463   1.832 -1.8074  0.7874 -0.5730
 1354TIP3    H225622   1.067   2.563   1.939 -0.5350 -0.2740 -0.0040
 1355TIP3   OH225623   6.310   4.002   1.281 -0.2295 -0.3271  1.0105
 1355TIP3    H125624   6.387   3.961   1.242 -1.8332 -1.1328 -1.5605
 1355TIP3    H225625   6.236   3.952   1.245 -1.9648 -0.2334  4.1488
 1356TIP3   OH225626   0.944   3.278   8.302 -0.3628 -0.3214 -0.5725
 1356TIP3    H125627   1.008   3.345   8.280 -1.5937  1.5270  1.1784
 1356TIP3    H225628   0.861   3.312   8.270 -0.9884 -1.0847  0.1982
 1357TIP3   OH225629   2.185   5.625   8.590  0.2951 -0.2752  0.5972
 1357TIP3    H125630   2.242   5.578   8.651  3.3564  0.7024 -1.2912
 1357TIP3    H225631   2.116   5.563   8.569  1.4231 -2.0917  1.9447
 1358TIP3   OH225632   0.782   4.317   0.121 -0.1350  0.2750  0.2503
 1358TIP3    H125633   0.690   4.344   0.120 -0.4895 -0.7144  1.8375
 1358TIP3    H225634   0.813   4.333   0.032 -1.0606  3.2017  0.3406
 1359TIP3   OH225635   1.457   3.248   1.701  0.0579  0.0624 -0.3325
 1359TIP3    H125636   1.405   3.264   1.781 -0.2004  0.1590 -0.5180
 1359TIP3    H225637   1.421   3.167   1.665 -2.0550  1.6607 -2.1024
 1360TIP3   OH225638   3.887   2.456   0.602 -0.5016  0.3513 -0.1196
 1360TIP3    H125639   3.810   2.468   0.546 -0.3605  1.1639 -0.1468
 1360TIP3    H225640   3.886   2.531   0.660  0.7383  0.8121 -0.6646
 1361TIP3   OH225641   3.211   1.080   1.241  0.1056  0.0380  0.2330
 1361TIP3    H125642   3.186   0.997   1.281 -0.3390  0.0181 -0.0830
 1361TIP3    H225643   3.272   1.056   1.171 -1.7240 -0.2502 -1.3492
 1362TIP3   OH225644   0.034   5.808   0.598 -0.1295 -0.1161  0.1410
 1362TIP3    H125645   0.128   5.792   0.588 -0.6531 -2.4795 -2.1636
 1362TIP3    H225646   0.014   5.878   0.537 -0.1131 -0.8602 -0.7404
 1363TIP3   OH225647   2.055   2.666   8.148  0.9944  0.1511  0.2525
 1363TIP3    H125648   2.122   2.612   8.190  1.4269 -0.9095 -1.6443
 1363TIP3    H225649   2.099   2.701   8.070 -0.7186 -0.9201 -1.2756
 1364TIP3   OH225650   3.984   5.122   8.526 -0.0882  0.3751 -0.4591
 1364TIP3    H125651   4.072   5.143   8.556  0.3566 -1.9254  0.0731
 1364TIP3    H225652   3.926   5.165   8.589  0.8137 -2.4482  2.6165
 1365TIP3   OH225653   2.649   5.525   1.412 -0.0838 -0.2681  0.0876
 1365TIP3    H125654   2.557   5.517   1.388 -0.2103 -2.2643  1.0593
 1365TIP3    H225655   2.652   5.509   1.506  0.9842  2.5366  0.6375
 1366TIP3   OH225656   0.875   2.985   8.353 -0.0093  0.4799  0.6809
 1366TIP3    H125657   0.901   3.075   8.330  0.7114  0.6839  2.1243
 1366TIP3    H225658   0.782   2.992   8.372 -1.3910 -0.2212 -4.3931
 1367TIP3   OH225659   0.838   5.837   2.130  0.0295  0.0492  0.2371
 1367TIP3    H125660   0.925   5.813   2.161  1.9609  5.5980  0.2199
 1367TIP3    H225661   0.788   5.857   2.209 -0.0453  0.1202  0.1730
 1368TIP3   OH225662   5.657   1.649   1.074 -0.6272 -0.4657  0.2548
 1368TIP3    H125663   5.576   1.659   1.124 -1.0938  1.3001 -0.7758
 1368TIP3    H225664   5.726   1.678   1.134 -0.9641 -0.1780  0.5023
 1369TIP3   OH225665   0.925   0.466   2.669  1.0178  0.0216  0.1031
 1369TIP3    H125666   1.017   0.472   2.644  1.1684 -0.9338  0.4124
 1369TIP3    H225667   0.902   0.555   2.697  2.1355  0.0600  0.9656
 1370TIP3   OH225668   1.923   6.420   7.348 -0.4689  0.1386  0.7212
 1370TIP3    H125669   1.902   6.342   7.296 -0.4146 -0.4231  1.5251
 1370TIP3    H225670   1.999   6.394   7.400  1.8419  1.8634 -1.5188
 1371TIP3   OH225671   6.417   4.058   0.281  0.0818 -0.1182  0.8995
 1371TIP3    H125672   6.448   3.968   0.273 -0.2418 -0.1821  0.3247
 1371TIP3    H225673   6.489   4.112   0.247  0.2923 -0.1464  1.2825
 1372TIP3   OH225674   4.488   0.366   8.403  0.0176  0.2081 -0.2499
 1372TIP3    H125675   4.405   0.320   8.388 -0.0995  0.0654  0.7607
 1372TIP3    H225676   4.480   0.402   8.491  1.5254 -0.9269  0.4167
 1373TIP3   OH225677   6.594   2.097   0.374  0.3123 -0.2826 -0.1208
 1373TIP3    H125678   6.503   2.123   0.362  0.5259  0.5653 -0.0269
 1373TIP3    H225679   6.609   2.106   0.468  0.8907  1.0266 -0.3200
 1374TIP3   OH225680   6.598   2.861   8.368 -0.2331 -0.1995  0.0031
 1374TIP3    H125681   6.561   2.777   8.339 -1.3035  0.4460 -0.5266
 1374TIP3    H225682   6.529   2.900   8.421 -0.3431  1.0478 -1.0286
 1375TIP3   OH225683   5.463   1.787   1.678  0.2877  0.6000 -0.2290
 1375TIP3    H125684   5.434   1.850   1.613  0.9099  0.6421 -0.4813
 1375TIP3    H225685   5.432   1.821   1.762 -0.8861  0.3245 -0.5380
 1376TIP3   OH225686   0.190   4.720   8.216 -0.1230 -0.2269 -0.1939
 1376TIP3    H125687   0.144   4.710   8.133 -0.4351  0.1434 -0.0635
 1376TIP3    H225688   0.250   4.793   8.202 -0.1227 -0.2119 -0.1155
 1377TIP3   OH225689   5.001   4.000   2.405  0.1472 -0.0937 -0.5053
 1377TIP3    H125690   5.093   4.006   2.428 -0.1064  2.2840  0.0525
 1377TIP3    H225691   4.954   4.027   2.483 -0.9757  0.0964 -1.2172
 1378TIP3   OH225692   4.814   0.743   0.800  0.4834 -0.9930 -0.1783
 1378TIP3    H125693   4.880   0.676   0.820 -0.6388 -1.7016  1.3153
 1378TIP3    H225694   4.741   0.693   0.762  1.1597 -0.0928 -2.9269
 1379TIP3   OH225695   5.950   5.166   8.130 -0.1841 -0.1488  0.4875
 1379TIP3    H125696   5.858   5.147   8.151 -1.1169  2.3457 -1.0511
 1379TIP3    H225697   5.958   5.145   8.037  0.8206 -0.3175  0.6054
 1380TIP3   OH225698   2.932   6.494   7.485  0.2882 -0.3059  0.0226
 1380TIP3    H125699   3.023   6.515   7.465  0.6414 -0.6743  1.1855
 1380TIP3    H225700   2.886   6.578   7.476  0.5318 -0.3063 -1.5761
 1381TIP3   OH225701   3.310   6.807   1.371 -0.1767  0.4238  0.2781
 1381TIP3    H125702   3.224   6.770   1.354 -0.4920  2.0715 -2.1250
 1381TIP3    H225703   3.304   6.897   1.342  2.1166  0.8543  0.9300
 1382TIP3   OH225704   0.897   0.400   7.008 -0.3871  0.1811  0.1538
 1382TIP3    H125705   0.974   0.360   7.049  0.4198  0.1662 -1.3208
 1382TIP3    H225706   0.826   0.339   7.028  0.3613 -0.8022 -0.0821
 1383TIP3   OH225707   3.798   5.663   7.640  0.0850  0.1405 -0.2493
 1383TIP3    H125708   3.817   5.661   7.734  0.8304 -1.4419 -0.4084
 1383TIP3    H225709   3.884   5.653   7.598 -0.4470 -1.3323 -1.0561
 1384TIP3   OH225710   3.778   2.908   7.802  0.2604  0.1988  0.4175
 1384TIP3    H125711   3.732   2.930   7.883 -0.8024  1.4781 -0.4940
 1384TIP3    H225712   3.782   2.812   7.802 -3.9067 -0.1591 -0.1774
 1385TIP3   OH225713   4.724   5.841   0.103 -0.5189 -0.2708 -0.5410
 1385TIP3    H125714   4.718   5.760   0.052 -0.2166  0.0460 -1.0941
 1385TIP3    H225715   4.715   5.813   0.194 -1.5944 -0.7921 -0.7884
 1386TIP3   OH225716   1.408   6.278   0.924  0.0330 -0.3238  0.8434
 1386TIP3    H125717   1.328   6.251   0.969 -1.9507  1.2944 -1.4640
 1386TIP3    H225718   1.398   6.373   0.913  1.9018 -0.2005 -0.1865
 1387TIP3   OH225719   1.581   1.124   6.129  0.0570 -0.0680 -0.2513
 1387TIP3    H125720   1.675   1.115   6.113 -0.1229  0.5768 -1.8330
 1387TIP3    H225721   1.575   1.168   6.214  1.1200 -1.9590  0.8728
 1388TIP3   OH225722   6.774   3.325   6.484  0.1439 -0.0140  0.3046
 1388TIP3    H125723   6.749   3.413   6.511  1.2027  0.7962 -1.1938
 1388TIP3    H225724   6.819   3.338   6.401 -0.5432 -2.0749 -0.4511
 1389TIP3   OH225725   6.770   1.405   6.390 -0.1702 -0.0904 -0.1215
 1389TIP3    H125726   6.842   1.427   6.449  0.1404  1.7392 -1.1369
 1389TIP3    H225727   6.787   1.314   6.365  2.7053  0.7074 -1.5141
 1390TIP3   OH225728   4.674   0.085   1.807  0.0967  0.2933  0.2601
 1390TIP3    H125729   4.696   0.114   1.896  1.1886 -0.6593  0.3317
 1390TIP3    H225730   4.752   0.038   1.778  0.2727  1.7115 -1.7195
 1391TIP3   OH225731   0.525   0.554   7.217  0.2808  0.3609  0.2175
 1391TIP3    H125732   0.605   0.582   7.173  1.3078 -0.9501  1.1558
 1391TIP3    H225733   0.517   0.461   7.195  1.0161 -0.4369  2.9786
 1392TIP3   OH225734   6.080   6.519   1.289  0.1737 -1.0624  0.2118
 1392TIP3    H125735   6.031   6.509   1.208 -0.6256  0.6427  0.4477
 1392TIP3    H225736   6.164   6.476   1.271 -0.8820 -2.8807 -0.6363
 1393TIP3   OH225737   1.680   3.018   0.029  0.0924 -0.0987  0.3246
 1393TIP3    H125738   1.701   2.939   0.079 -0.5870 -0.9487 -0.6985
 1393TIP3    H225739   1.728   3.088   0.074  0.8806 -1.1170  1.1239
 1394TIP3   OH225740   0.120   1.027   1.175  0.4408 -0.1660 -0.3700
 1394TIP3    H125741   0.059   0.968   1.219 -1.2598  2.8178  1.6927
 1394TIP3    H225742   0.080   1.044   1.090  0.2401 -0.8879 -0.4278
 1395TIP3   OH225743   4.855   6.152   1.406 -0.0881 -0.1182 -0.0566
 1395TIP3    H125744   4.936   6.190   1.371  0.1026 -1.4030 -1.1318
 1395TIP3    H225745   4.792   6.224   1.406  1.6043  1.5503  3.0284
 1396TIP3   OH225746   2.703   0.552   7.529  0.2232 -0.2776 -0.1370
 1396TIP3    H125747   2.752   0.629   7.558  1.0243  0.3465 -2.8674
 1396TIP3    H225748   2.749   0.478   7.569  1.8999  0.4530 -0.6088
 1397TIP3   OH225749   3.352   0.126   7.491 -0.1981  0.1273  0.0882
 1397TIP3    H125750   3.358   0.034   7.518  0.2461  0.3750  0.8746
 1397TIP3    H225751   3.431   0.140   7.439 -0.2051  0.0903  0.0677
 1398TIP3   OH225752   5.979   3.942   2.152  0.0386 -0.8002  0.5637
 1398TIP3    H125753   6.053   3.893   2.187 -0.7183 -1.0820  1.8120
 1398TIP3    H225754   5.901   3.901   2.191 -0.7405 -0.0594 -0.1544
 1399TIP3   OH225755   2.776   6.645   7.057 -0.4918  0.1143  0.3852
 1399TIP3    H125756   2.781   6.735   7.090 -2.2456  0.7306 -0.8498
 1399TIP3    H225757   2.853   6.637   7.000 -1.2959  1.5451 -0.9931
 1400TIP3   OH225758   4.953   1.724   8.242  0.1048  0.4363  0.0828
 1400TIP3    H125759   4.988   1.737   8.154 -1.6307 -0.7487 -0.8586
 1400TIP3    H225760   4.878   1.783   8.248 -1.2778 -1.2029 -0.2115
 1401TIP3   OH225761   5.994   1.540   0.698 -0.1259  0.4632  0.5126
 1401TIP3    H125762   6.071   1.510   0.649 -0.5161 -1.8401  1.1964
 1401TIP3    H225763   5.955   1.607   0.642  0.8178 -0.3301 -1.1679
 1402TIP3   OH225764   2.294   2.343   0.769  0.5681  0.3932 -0.1611
 1402TIP3    H125765   2.255   2.300   0.693 -0.8923 -1.2675  1.4245
 1402TIP3    H225766   2.258   2.432   0.768 -0.7901 -0.1312 -0.5205
 1403TIP3   OH225767   5.378   4.609   7.702 -0.6154 -0.1597  0.1526
 1403TIP3    H125768   5.451   4.670   7.714  1.7609 -2.7392 -0.0335
 1403TIP3    H225769   5.361   4.610   7.608  1.2170 -1.5614 -0.2557
 1404TIP3   OH225770   2.721   2.408   7.459  0.4401 -0.1877 -0.3385
 1404TIP3    H125771   2.790   2.343   7.473  1.8851  0.9691 -1.6702
 1404TIP3    H225772   2.668   2.372   7.388  0.4397 -0.5083 -0.1753
 1405TIP3   OH225773   4.158   5.822   2.166 -0.2275  0.8122 -0.7639
 1405TIP3    H125774   4.097   5.818   2.240 -0.6622  1.4976 -1.0708
 1405TIP3    H225775   4.121   5.761   2.102  0.7574 -0.6458 -0.0030
 1406TIP3   OH225776   5.423   1.427   1.425  0.5338  0.0082 -0.9656
 1406TIP3    H125777   5.329   1.414   1.435  0.2279 -0.0221 -3.2807
 1406TIP3    H225778   5.448   1.369   1.353  1.6337  2.3708 -2.6486
 1407TIP3   OH225779   0.437   6.328   1.458 -0.3095 -0.3912  0.4745
 1407TIP3    H125780   0.370   6.260   1.464 -0.6540 -0.0611  0.3874
 1407TIP3    H225781   0.484   6.323   1.541 -1.1576  0.1116  1.0011
 1408TIP3   OH225782   6.537   5.176   1.923 -0.3309  0.3347  0.3164
 1408TIP3    H125783   6.493   5.156   2.006  0.5384 -0.4577  0.6149
 1408TIP3    H225784   6.628   5.147   1.937 -0.2038  0.0408 -0.9669
 1409TIP3   OH225785   4.652   1.501   0.530 -0.1330 -0.1891 -0.0542
 1409TIP3    H125786   4.601   1.513   0.450 -0.2303 -2.0044 -0.3015
 1409TIP3    H225787   4.588   1.515   0.601 -1.2574 -3.0792 -0.3620
 1410TIP3   OH225788   1.451   0.753   1.516  0.5083  0.1091  0.0818
 1410TIP3    H125789   1.506   0.811   1.569  1.7332 -0.6831 -0.2788
 1410TIP3    H225790   1.472   0.777   1.426  0.3982 -0.3228 -0.0600
 1411TIP3   OH225791   5.640   3.479   2.239  0.4676  0.0272 -0.2988
 1411TIP3    H125792   5.641   3.420   2.164  1.1265  0.4504 -0.6296
 1411TIP3    H225793   5.732   3.489   2.264  0.2729  0.0592  0.4319
 1412TIP3   OH225794   0.913   1.924   6.817  0.3610  0.0393 -0.5885
 1412TIP3    H125795   0.991   1.966   6.780  1.4069 -0.2157  1.2126
 1412TIP3    H225796   0.852   1.997   6.830  1.4196  0.7394  0.6807
 1413TIP3   OH225797   1.985   0.431   1.445  0.2504 -0.0080 -0.4776
 1413TIP3    H125798   1.944   0.506   1.488  1.8084  1.1780 -0.9814
 1413TIP3    H225799   2.003   0.461   1.356  1.9238 -0.5586 -0.3635
 1414TIP3   OH225800   3.882   6.119   7.488  0.0524  0.2198  0.0253
 1414TIP3    H125801   3.934   6.168   7.424 -0.9159  0.9131 -0.2653
 1414TIP3    H225802   3.919   6.031   7.487  1.0490  0.6257 -0.3529
 1415TIP3   OH225803   6.228   4.175   7.410 -0.3435  0.6642 -0.4762
 1415TIP3    H125804   6.206   4.152   7.501 -0.9093 -0.0383 -0.7859
 1415TIP3    H225805   6.274   4.098   7.376  2.0873  1.8285 -0.0645
 1416TIP3   OH225806   1.269   6.848   6.155  0.0740 -0.4036 -0.3936
 1416TIP3    H125807   1.205   6.780   6.137  1.1740 -1.7475  0.6059
 1416TIP3    H225808   1.331   6.809   6.216  0.8021  1.4664  0.1613
 1417TIP3   OH225809   0.237   6.470   7.073 -0.1723 -0.4260 -0.3619
 1417TIP3    H125810   0.275   6.550   7.037  0.5433 -0.5236  0.1573
 1417TIP3    H225811   0.158   6.455   7.021 -0.6041  0.9014 -0.1281
 1418TIP3   OH225812   3.319   4.190   0.288 -1.6434  0.1835  0.3350
 1418TIP3    H125813   3.302   4.240   0.209 -1.4867 -2.4683 -1.4942
 1418TIP3    H225814   3.405   4.221   0.318 -0.2270 -0.8469 -2.3457
 1419TIP3   OH225815   4.918   2.787   8.397 -0.2965 -0.2515  0.0947
 1419TIP3    H125816   4.887   2.715   8.451 -1.1082 -0.3944 -0.5291
 1419TIP3    H225817   5.008   2.764   8.374 -0.7579 -1.4339 -0.6636
 1420TIP3   OH225818   2.813   1.652   8.517  0.2064 -0.5056  0.4625
 1420TIP3    H125819   2.835   1.620   8.430  0.1590  0.3259  0.1432
 1420TIP3    H225820   2.722   1.679   8.511 -0.2122 -1.6600  1.1339
 1421TIP3   OH225821   4.326   4.262   1.269 -0.0061 -0.3540  0.0385
 1421TIP3    H125822   4.366   4.193   1.323 -1.4115 -2.0953 -1.0585
 1421TIP3    H225823   4.240   4.276   1.308  0.6423  1.6609  0.9233
 1422TIP3   OH225824   3.918   0.114   8.212 -0.0254 -0.6449  0.5572
 1422TIP3    H125825   3.892   0.161   8.292  0.0154 -3.4637  2.3362
 1422TIP3    H225826   3.843   0.125   8.153  0.1857  1.9804  0.6341
 1423TIP3   OH225827   1.604   3.250   1.351  0.4942 -0.0637  0.3706
 1423TIP3    H125828   1.551   3.299   1.414  0.8028  1.8646 -0.8036
 1423TIP3    H225829   1.556   3.168   1.338 -0.3432  0.1335  1.9624
 1424TIP3   OH225830   2.638   4.626   8.369 -0.1252 -0.6527 -0.2383
 1424TIP3    H125831   2.656   4.544   8.416  0.2714 -1.1596 -1.2418
 1424TIP3    H225832   2.725   4.662   8.352 -0.2466 -0.6709 -0.9116
 1425TIP3   OH225833   6.120   3.155   6.723 -0.4724 -0.0125  0.2109
 1425TIP3    H125834   6.169   3.227   6.762  0.8173 -1.2534  0.9718
 1425TIP3    H225835   6.181   3.081   6.724 -2.2904 -1.5865  1.0468
 1426TIP3   OH225836   2.703   1.664   1.172 -0.5635  0.0991 -0.0749
 1426TIP3    H125837   2.713   1.703   1.085  0.2752  0.5242  0.1989
 1426TIP3    H225838   2.729   1.572   1.160 -0.7418  0.0808 -0.3340
 1427TIP3   OH225839   1.959   6.709   1.829 -0.0899  0.5368 -0.6955
 1427TIP3    H125840   1.886   6.650   1.806  0.8852 -0.0967 -2.3955
 1427TIP3    H225841   1.923   6.767   1.896 -1.6499 -0.8241 -0.2863
 1428TIP3   OH225842   0.487   0.076   1.036 -0.1850 -0.0410  0.2913
 1428TIP3    H125843   0.497   0.163   1.073 -0.8322  0.6058 -0.9928
 1428TIP3    H225844   0.397   0.051   1.057 -0.9329  0.7822 -1.6477
 1429TIP3   OH225845   4.850   5.469   7.824  0.1783 -0.1534 -0.1389
 1429TIP3    H125846   4.760   5.453   7.854 -0.4684  3.3571  0.1767
 1429TIP3    H225847   4.858   5.414   7.746 -2.5724  0.0451 -0.6864
 1430TIP3   OH225848   2.663   4.185   6.937 -0.1077 -0.4760 -0.1123
 1430TIP3    H125849   2.595   4.182   6.870  0.9029 -1.1537 -1.1400
 1430TIP3    H225850   2.708   4.268   6.921  1.7417 -1.7184 -1.9908
 1431TIP3   OH225851   3.514   3.894   1.017 -0.1562 -0.4572  0.5948
 1431TIP3    H125852   3.469   3.910   0.935 -1.0582 -2.7303  0.5673
 1431TIP3    H225853   3.588   3.838   0.993  1.2855  1.1848  0.9900
 1432TIP3   OH225854   6.571   4.869   8.694 -0.2463  0.2055  0.4771
 1432TIP3    H125855   6.525   4.828   8.768  0.6012 -0.4438  0.6549
 1432TIP3    H225856   6.522   4.950   8.677 -0.4878  0.3345  1.7062
 1433TIP3   OH225857   3.954   5.123   2.298  0.0545 -0.4567  0.1124
 1433TIP3    H125858   3.990   5.195   2.246 -0.7426  0.1061  0.3240
 1433TIP3    H225859   4.005   5.125   2.380  0.0264 -0.1239  0.1215
 1434TIP3   OH225860   5.162   3.464   2.578  0.4188 -0.4753  0.2120
 1434TIP3    H125861   5.218   3.433   2.649 -0.6034  1.3806  1.9368
 1434TIP3    H225862   5.223   3.493   2.510  1.5892  0.9298  1.7785
 1435TIP3   OH225863   3.604   2.917   1.959  0.3841  0.2711 -0.2052
 1435TIP3    H125864   3.570   2.930   2.047  1.8287 -0.6600  0.5317
 1435TIP3    H225865   3.552   2.975   1.904 -0.0719  1.4090  1.3614
 1436TIP3   OH225866   1.826   6.363   6.694  0.4945 -0.5721  0.1540
 1436TIP3    H125867   1.823   6.271   6.719  0.5651 -0.0501  2.2613
 1436TIP3    H225868   1.901   6.370   6.636  0.3308 -1.8793 -0.2455
 1437TIP3   OH225869   0.607   5.019   2.750 -0.0815  0.2528 -0.5566
 1437TIP3    H125870   0.644   4.931   2.753 -0.6564  0.0054 -0.4921
 1437TIP3    H225871   0.650   5.066   2.821 -0.6495 -0.3390  0.1987
 1438TIP3   OH225872   4.354   5.153   1.310 -0.8028  0.3558  0.1480
 1438TIP3    H125873   4.315   5.122   1.228 -0.5769  0.0973  0.1360
 1438TIP3    H225874   4.432   5.098   1.321 -1.0837  0.0740  0.7756
 1439TIP3   OH225875   3.474   1.548   1.695  0.0845 -0.3284 -0.1370
 1439TIP3    H125876   3.422   1.602   1.754  0.5984  0.0747 -0.0403
 1439TIP3    H225877   3.451   1.579   1.607 -0.4932 -0.7557 -0.1384
 1440TIP3   OH225878   4.373   1.765   8.610 -0.0803 -0.3553 -0.0129
 1440TIP3    H125879   4.348   1.848   8.652  0.0445 -0.1547 -0.3378
 1440TIP3    H225880   4.392   1.706   8.684  0.3163  0.0511  0.2133
 1441TIP3   OH225881   3.539   5.556   7.124  0.0758 -0.0542 -0.0707
 1441TIP3    H125882   3.493   5.514   7.197 -3.0282  2.2830 -0.4959
 1441TIP3    H225883   3.513   5.506   7.047 -0.7193  0.4321 -0.1331
 1442TIP3   OH225884   1.589   5.385   0.002 -0.0581  0.3904  0.1622
 1442TIP3    H125885   1.521   5.451  -0.012  0.2446  0.5367 -0.6707
 1442TIP3    H225886   1.562   5.312  -0.054  0.4855  0.4670 -0.2065
 1443TIP3   OH225887   1.233   6.233   7.926 -0.7256  0.1985 -0.2069
 1443TIP3    H125888   1.258   6.146   7.957  0.0117 -0.0398 -1.3948
 1443TIP3    H225889   1.280   6.293   7.983 -0.3870 -0.2009 -0.0613
 1444TIP3   OH225890   5.426   0.437   0.400 -0.1002  0.3941  0.1742
 1444TIP3    H125891   5.361   0.502   0.373  0.4631  0.7866 -0.2708
 1444TIP3    H225892   5.396   0.407   0.485 -0.4021  1.2011  0.3628
 1445TIP3   OH225893   1.156   0.962   0.554  0.3583 -0.1851  1.0601
 1445TIP3    H125894   1.148   0.966   0.458  1.7474 -0.1646  0.9188
 1445TIP3    H225895   1.163   0.868   0.573  0.4518 -0.1687  1.1059
 1446TIP3   OH225896   4.862   2.451   8.300 -0.2974 -0.0074 -0.2136
 1446TIP3    H125897   4.844   2.516   8.233  1.3092 -0.3073 -0.9888
 1446TIP3    H225898   4.941   2.406   8.270 -0.3012 -1.0622  1.2152
 1447TIP3   OH225899   6.699   6.441   7.151 -0.0431  0.3248 -0.3634
 1447TIP3    H125900   6.655   6.386   7.086  0.1544  2.1608 -2.1474
 1447TIP3    H225901   6.789   6.450   7.117  0.8465 -0.7605  1.5538
 1448TIP3   OH225902   6.251   2.294   8.310 -0.1252 -0.2365  0.4760
 1448TIP3    H125903   6.180   2.331   8.362  0.0657  0.9868 -0.1079
 1448TIP3    H225904   6.236   2.327   8.221  0.7502 -0.5726  0.1894
 1449TIP3   OH225905   0.373   3.848   8.601 -0.4056  0.6228  0.0398
 1449TIP3    H125906   0.406   3.926   8.556  0.0173  1.4871  1.7734
 1449TIP3    H225907   0.278   3.857   8.598 -0.3513  1.7093  1.0156
 1450TIP3   OH225908   0.528   4.856   0.167  0.2294 -0.6937  0.1616
 1450TIP3    H125909   0.597   4.907   0.125  0.5312 -1.8797 -0.8441
 1450TIP3    H225910   0.457   4.918   0.180  1.3809  0.4957  1.0036
 1451TIP3   OH225911   5.248   0.570   0.274 -0.7794 -0.4009 -0.8740
 1451TIP3    H125912   5.156   0.594   0.281 -0.5483  0.4179 -0.5555
 1451TIP3    H225913   5.267   0.577   0.180 -1.1704 -1.1004 -1.0135
 1452TIP3   OH225914   5.164   4.121   1.199  0.5022  0.1620 -0.0966
 1452TIP3    H125915   5.170   4.029   1.225 -0.2914  0.1406  0.0107
 1452TIP3    H225916   5.133   4.119   1.108  1.8652  0.2893 -0.5994
 1453TIP3   OH225917   0.937   4.144   0.567  0.1565 -0.5486 -0.9256
 1453TIP3    H125918   0.947   4.182   0.480 -0.9089 -1.8917 -1.6742
 1453TIP3    H225919   1.003   4.075   0.571  0.5944 -0.1127 -0.4222
 1454TIP3   OH225920   4.289   5.345   0.387  0.0848  0.0383 -0.1156
 1454TIP3    H125921   4.308   5.353   0.480 -2.3449  0.2978  0.4172
 1454TIP3    H225922   4.297   5.435   0.353 -1.6261  0.4296  0.4356
 1455TIP3   OH225923   2.532   4.775   2.412 -0.0413 -0.5259 -0.0200
 1455TIP3    H125924   2.525   4.867   2.385 -1.0431 -0.7176 -0.4190
 1455TIP3    H225925   2.519   4.778   2.507  1.4589 -0.0983  0.2124
 1456TIP3   OH225926   4.131   3.403   7.611 -0.3027 -0.1650 -0.5691
 1456TIP3    H125927   4.222   3.431   7.607 -0.3756  0.5480  1.4237
 1456TIP3    H225928   4.124   3.332   7.548  1.6859 -0.3782 -0.5963
 1457TIP3   OH225929   1.771   4.396   1.270 -0.2268  0.1441  0.5868
 1457TIP3    H125930   1.817   4.355   1.343 -4.4032 -1.3357  2.7677
 1457TIP3    H225931   1.796   4.488   1.275  0.5930 -0.1364  3.1523
 1458TIP3   OH225932   0.363   3.499   1.683  0.4712  0.1370 -0.2144
 1458TIP3    H125933   0.327   3.524   1.768  0.2867 -0.6896 -0.0470
 1458TIP3    H225934   0.287   3.488   1.626  0.4154 -1.6386  0.1472
 1459TIP3   OH225935   6.110   4.024   1.499  0.5179 -0.1873 -0.0866
 1459TIP3    H125936   6.103   4.072   1.417  4.3846  0.1719 -0.4288
 1459TIP3    H225937   6.123   4.092   1.566 -4.1060 -0.3613  1.3017
 1460TIP3   OH225938   1.846   4.227   0.303 -0.1806  0.7513 -0.4293
 1460TIP3    H125939   1.833   4.167   0.376 -0.1877  1.4112  0.1260
 1460TIP3    H225940   1.786   4.195   0.235  0.7153 -0.5920 -0.6158
 1461TIP3   OH225941   1.793   3.565   8.333 -0.6358 -0.7340  0.3222
 1461TIP3    H125942   1.869   3.588   8.281  0.0001 -0.2017  1.4431
 1461TIP3    H225943   1.800   3.619   8.411 -2.7285  0.0893 -0.0005
 1462TIP3   OH225944   2.793   5.936   1.262 -0.9988 -0.0564  0.1805
 1462TIP3    H125945   2.714   5.974   1.224 -0.5646  1.5599  0.8093
 1462TIP3    H225946   2.815   5.994   1.335 -0.0134 -1.2687  0.8937
 1463TIP3   OH225947   3.504   3.112   2.574 -0.7667 -0.7302  0.0523
 1463TIP3    H125948   3.565   3.097   2.501 -0.8626  1.6807 -0.5843
 1463TIP3    H225949   3.529   3.046   2.639 -0.6810 -2.9685 -2.1030
 1464TIP3   OH225950   3.507   5.754   2.098 -0.5490 -0.2278 -0.6673
 1464TIP3    H125951   3.515   5.811   2.021 -0.6285  1.2455  0.3735
 1464TIP3    H225952   3.454   5.804   2.160 -3.2219 -2.6433 -0.7925
 1465TIP3   OH225953   3.715   0.673   8.051 -0.0978  0.2562 -0.0746
 1465TIP3    H125954   3.762   0.753   8.073  1.0445 -0.3042 -0.4307
 1465TIP3    H225955   3.669   0.650   8.132  1.2668  0.1256  0.6971
 1466TIP3   OH225956   6.120   1.511   1.755  0.5241 -0.0414  0.6881
 1466TIP3    H125957   6.043   1.551   1.795 -1.7494 -1.3691 -2.0272
 1466TIP3    H225958   6.136   1.564   1.677  1.5554 -0.6151  0.4928
 1467TIP3   OH225959   3.828   2.286   0.326  0.3664 -0.5652 -0.6948
 1467TIP3    H125960   3.760   2.298   0.392  0.6399  0.5565 -0.5894
 1467TIP3    H225961   3.867   2.373   0.316  2.2429 -1.3000 -0.2361
 1468TIP3   OH225962   6.618   3.277   2.309 -0.2867  0.0958  0.1637
 1468TIP3    H125963   6.555   3.215   2.346 -0.6475  0.3301 -0.0584
 1468TIP3    H225964   6.702   3.251   2.347 -0.6862  0.4868  1.3442
 1469TIP3   OH225965   6.247   4.257   2.228  0.5735  0.0446  0.2990
 1469TIP3    H125966   6.335   4.219   2.226  1.1297  1.2739 -1.9153
 1469TIP3    H225967   6.222   4.255   2.321  3.1794  0.2345  1.0901
 1470TIP3   OH225968   1.013   1.570   7.825  0.5714 -0.3935 -0.0540
 1470TIP3    H125969   0.967   1.607   7.900 -0.0802  0.2165 -0.7364
 1470TIP3    H225970   1.087   1.629   7.811  1.1244 -0.9202  0.5419
 1471TIP3   OH225971   4.860   2.867   0.370 -0.2512  0.2140 -0.2579
 1471TIP3    H125972   4.850   2.836   0.280  0.9577  0.5302 -0.5148
 1471TIP3    H225973   4.920   2.941   0.364  0.4058 -0.1902  0.8712
 1472TIP3   OH225974   0.536   0.217   0.133 -0.2080  0.0202 -0.9195
 1472TIP3    H125975   0.620   0.221   0.087 -0.3308 -1.6693 -1.3294
 1472TIP3    H225976   0.558   0.239   0.224  1.1427 -2.7110 -0.5009
 1473TIP3   OH225977   2.049   6.758   2.219  0.8583 -0.4398 -0.5286
 1473TIP3    H125978   1.963   6.777   2.182 -0.1824 -0.8722  1.5066
 1473TIP3    H225979   2.071   6.836   2.269  1.6015 -0.3897 -0.9222
 1474TIP3   OH225980   2.236   3.435   2.648 -0.0095  0.3058  0.2536
 1474TIP3    H125981   2.244   3.370   2.718 -2.2731  0.4395  0.7247
 1474TIP3    H225982   2.311   3.419   2.591  0.7133 -1.2226  1.5533
 1475TIP3   OH225983   5.666   2.936   8.335  0.2799  0.1876 -0.2605
 1475TIP3    H125984   5.640   2.855   8.292 -0.6274  0.5805 -0.4902
 1475TIP3    H225985   5.702   2.909   8.419 -0.6988 -0.4191 -0.0205
 1476TIP3   OH225986   6.196   3.722   7.722 -0.3025  0.4931 -0.6482
 1476TIP3    H125987   6.217   3.700   7.631 -1.2876  2.0765 -1.2976
 1476TIP3    H225988   6.281   3.722   7.766 -0.0579 -3.8480 -0.6150
 1477TIP3   OH225989   6.319   1.273   0.206  0.3442 -0.2996  0.0298
 1477TIP3    H125990   6.315   1.187   0.164  2.7429  0.5951 -2.3352
 1477TIP3    H225991   6.240   1.317   0.177  0.1203 -1.0068 -0.4744
 1478TIP3   OH225992   2.953   1.221   8.137  0.6041  1.1114  0.0931
 1478TIP3    H125993   3.027   1.175   8.097 -0.2734  0.2140 -0.5319
 1478TIP3    H225994   2.946   1.184   8.224  1.0339  1.3816  0.2500
 1479TIP3   OH225995   0.979   0.961   7.826 -0.0181 -0.3041 -0.6783
 1479TIP3    H125996   1.047   1.021   7.795  1.2220 -1.8785 -1.1758
 1479TIP3    H225997   0.920   0.952   7.751  0.0650 -0.0859 -0.7723
 1480TIP3   OH225998   3.606   1.677   1.287 -0.1047  0.1316 -0.0342
 1480TIP3    H125999   3.663   1.708   1.357  1.0846  0.2697 -1.0271
 1480TIP3    H226000   3.596   1.753   1.230  0.4934 -0.4957 -0.9987
 1481TIP3   OH226001   1.024   5.021   8.590  0.5806  0.0133  0.3309
 1481TIP3    H126002   1.078   5.051   8.663  1.4134  0.7014 -0.5407
 1481TIP3    H226003   0.999   5.102   8.545 -0.9723 -0.3148  0.5513
 1482TIP3   OH226004   2.715   5.865   7.639  0.5279 -0.1792  0.7166
 1482TIP3    H126005   2.757   5.802   7.580  0.3838  0.9883 -0.7093
 1482TIP3    H226006   2.774   5.871   7.714  1.6446 -0.4019 -0.1137
 1483TIP3   OH226007   1.637   0.583   8.229 -0.2944  0.2167 -1.0797
 1483TIP3    H126008   1.617   0.503   8.278  0.0926  0.4964 -0.4474
 1483TIP3    H226009   1.552   0.627   8.220 -0.2674  0.5686  0.0949
 1484TIP3   OH226010   5.783   4.950   1.055  0.1643 -0.5697 -0.0065
 1484TIP3    H126011   5.721   4.877   1.051 -0.9648  0.3784 -0.0587
 1484TIP3    H226012   5.796   4.965   1.149  0.2303 -0.6976  0.0047
 1485TIP3   OH226013   5.410   5.296   2.037  0.0546  0.3184 -0.1093
 1485TIP3    H126014   5.324   5.312   1.999  0.2283  0.9703 -0.2476
 1485TIP3    H226015   5.466   5.363   1.997  0.8972 -0.8516 -0.9281
 1486TIP3   OH226016   5.127   4.676   0.899 -0.1672  0.1973  0.6730
 1486TIP3    H126017   5.213   4.715   0.911  0.4235 -0.9897  0.5012
 1486TIP3    H226018   5.139   4.583   0.919 -0.9223 -0.3878 -1.2446
 1487TIP3   OH226019   5.474   0.904   1.892  0.2401  0.2380 -0.8799
 1487TIP3    H126020   5.433   0.971   1.947  0.9782  0.8019 -0.9988
 1487TIP3    H226021   5.523   0.954   1.827  0.5961 -0.4266 -1.1314
 1488TIP3   OH226022   2.905   3.397   8.356  0.3581  0.1864  0.1852
 1488TIP3    H126023   2.964   3.464   8.392  0.2606  0.3927 -0.0314
 1488TIP3    H226024   2.818   3.436   8.364  0.2775 -0.0180  0.2849
 1489TIP3   OH226025   0.295   5.770   7.326 -0.1638 -0.0272  0.1306
 1489TIP3    H126026   0.222   5.780   7.265  0.0969 -2.3008 -0.6608
 1489TIP3    H226027   0.371   5.756   7.269  0.2336 -1.3194  0.9256
 1490TIP3   OH226028   5.392   4.477   1.434  0.0604  0.4067  0.2345
 1490TIP3    H126029   5.477   4.472   1.476 -0.3256  0.0966  0.9917
 1490TIP3    H226030   5.349   4.552   1.476  0.2646  1.0873 -0.7308
 1491TIP3   OH226031   2.342   5.897   7.513 -0.0974  0.0793 -0.1357
 1491TIP3    H126032   2.371   5.821   7.563 -0.4099 -1.3042 -1.9673
 1491TIP3    H226033   2.422   5.946   7.495  0.1927 -0.1498  0.4890
 1492TIP3   OH226034   2.834   5.055   7.869 -0.8529 -0.1125  0.2632
 1492TIP3    H126035   2.797   5.075   7.956 -1.7884 -0.3192 -0.0742
 1492TIP3    H226036   2.810   5.130   7.815  1.6027  1.0812  0.6689
 1493TIP3   OH226037   6.681   1.270   8.015  0.3920  0.3172 -0.2964
 1493TIP3    H126038   6.770   1.305   8.026  0.2380  0.1329  2.0756
 1493TIP3    H226039   6.693   1.175   8.010  0.2967  0.2397  0.7847
 1494TIP3   OH226040   4.388   3.077   1.143  0.1917 -0.3129  0.4242
 1494TIP3    H126041   4.326   3.151   1.143  0.8498  0.2688 -0.6528
 1494TIP3    H226042   4.372   3.032   1.060 -0.0729 -1.2897  0.9900
 1495TIP3   OH226043   0.276   2.432   7.167 -0.2863  0.1552 -0.3057
 1495TIP3    H126044   0.339   2.500   7.190  0.5641  0.2951 -2.7192
 1495TIP3    H226045   0.286   2.421   7.072 -1.2398 -2.4934 -0.1983
 1496TIP3   OH226046   3.334   3.718   7.383 -0.5101 -0.4543 -0.3852
 1496TIP3    H126047   3.401   3.696   7.318  0.6904  1.8981 -0.0677
 1496TIP3    H226048   3.291   3.796   7.347 -2.0434 -1.0073  0.1618
 1497TIP3   OH226049   3.622   3.555   7.606 -0.0336  0.1888  0.4679
 1497TIP3    H126050   3.628   3.471   7.562 -1.9868  0.6509 -0.7868
 1497TIP3    H226051   3.670   3.616   7.549  0.6113  0.1171  0.9190
 1498TIP3   OH226052   4.524   3.790   6.938  0.0190 -0.3811 -0.5543
 1498TIP3    H126053   4.575   3.868   6.916  0.9785 -0.3294  1.5627
 1498TIP3    H226054   4.525   3.737   6.859  0.9909  0.8826 -1.4337
 1499TIP3   OH226055   6.399   4.919   6.873  0.5995 -0.3999  0.3011
 1499TIP3    H126056   6.395   4.990   6.809  0.0986  0.0896  0.8686
 1499TIP3    H226057   6.387   4.839   6.821 -1.5985  0.0826 -0.0234
 1500TIP3   OH226058   6.379   2.901   0.495  0.5988  0.3272 -0.0165
 1500TIP3    H126059   6.285   2.892   0.480  0.1603  1.2222  1.8230
 1500TIP3    H226060   6.406   2.814   0.526  0.5521 -0.1398 -1.2326
 1501TIP3   OH226061   3.304   2.538   1.436  0.6444  0.4091 -0.1690
 1501TIP3    H126062   3.327   2.459   1.387 -0.1639  1.3302 -2.1879
 1501TIP3    H226063   3.340   2.610   1.383  0.4373  1.4408  1.0394
 1502TIP3   OH226064   2.942   0.204   0.329  0.3781 -0.5854 -0.2890
 1502TIP3    H126065   2.874   0.204   0.260  1.2950  0.2280 -1.2263
 1502TIP3    H226066   2.919   0.129   0.384 -0.9136 -0.7211 -0.9501
 1503TIP3   OH226067   5.513   6.087   1.203  0.1915  0.4508 -0.2928
 1503TIP3    H126068   5.574   6.015   1.191 -0.9964 -0.5143 -0.8204
 1503TIP3    H226069   5.504   6.126   1.116  0.7429  1.1901 -0.0329
 1504TIP3   OH226070   4.846   1.421   7.790  0.1196  0.0794 -0.2843
 1504TIP3    H126071   4.857   1.501   7.739 -1.9993  0.8192  0.3431
 1504TIP3    H226072   4.772   1.438   7.847  0.8553 -1.6290  1.3060
 1505TIP3   OH226073   3.339   0.219   1.396  0.4528 -0.1042 -0.8985
 1505TIP3    H126074   3.302   0.290   1.343 -0.7866 -0.3886 -0.4315
 1505TIP3    H226075   3.378   0.263   1.471 -1.6359  0.0327  0.1728
 1506TIP3   OH226076   4.038   6.133   1.206  0.5492  1.0890  0.5399
 1506TIP3    H126077   4.082   6.116   1.289 -0.4700  0.9842  1.0783
 1506TIP3    H226078   3.953   6.090   1.214  1.0641 -0.3969 -1.2304
 1507TIP3   OH226079   3.901   1.503   2.874  0.1617 -0.5078 -0.4050
 1507TIP3    H126080   3.960   1.539   2.807  1.3816 -1.0040  0.3667
 1507TIP3    H226081   3.884   1.414   2.845  0.1796 -0.5190 -0.3808
 1508TIP3   OH226082   2.869   0.422   2.354 -0.5385  0.0916 -0.0993
 1508TIP3    H126083   2.860   0.514   2.378 -1.0670  0.1798 -0.6187
 1508TIP3    H226084   2.793   0.379   2.395 -0.1208 -0.1755  0.4137
 1509TIP3   OH226085   4.872   6.593   2.371  0.2408 -0.7083  0.3694
 1509TIP3    H126086   4.862   6.560   2.282  1.0984 -1.2099  0.4485
 1509TIP3    H226087   4.902   6.518   2.422 -0.2653 -0.4305  1.0923
 1510TIP3   OH226088   6.429   0.270   8.079 -0.3242 -0.5646 -0.4838
 1510TIP3    H126089   6.508   0.268   8.024 -0.7573  0.3908 -1.1525
 1510TIP3    H226090   6.428   0.358   8.117  0.0619 -1.2518  1.2432
 1511TIP3   OH226091   3.131   6.116   0.621  0.0698  0.0417  0.3245
 1511TIP3    H126092   3.216   6.140   0.584  0.7830 -4.1339 -1.3264
 1511TIP3    H226093   3.152   6.070   0.703 -0.6299 -0.5113  0.2081
 1512TIP3   OH226094   1.430   6.107   1.392 -0.1108 -0.2524 -0.2437
 1512TIP3    H126095   1.373   6.177   1.425  1.4504  1.0830 -0.1842
 1512TIP3    H226096   1.461   6.140   1.308  1.9075 -0.0803  0.5106
 1513TIP3   OH226097   0.531   1.740   7.351  0.4546 -0.3435  0.1249
 1513TIP3    H126098   0.522   1.653   7.390  1.0078 -0.5671 -0.2317
 1513TIP3    H226099   0.504   1.729   7.260  0.1106 -0.0443  0.1908
 1514TIP3   OH226100   4.879   6.664   7.703 -0.0977 -0.0318  0.3505
 1514TIP3    H126101   4.857   6.738   7.759 -1.7431  1.7104 -2.3726
 1514TIP3    H226102   4.913   6.704   7.623 -0.1233 -2.2915 -0.8621
 1515TIP3   OH226103   6.341   3.223   8.154  0.5494 -0.4691 -0.2704
 1515TIP3    H126104   6.426   3.182   8.141  1.3169  0.6622  0.8787
 1515TIP3    H226105   6.283   3.153   8.183  1.1601 -1.1939 -0.7927
 1516TIP3   OH226106   3.038   4.977   0.134  0.1359  0.1229  0.0859
 1516TIP3    H126107   3.063   5.002   0.044  1.5027 -1.2194  0.0624
 1516TIP3    H226108   3.069   5.050   0.188  2.0985 -0.4028 -0.2286
 1517TIP3   OH226109   4.894   2.190   1.532 -0.0706  0.4143 -0.0203
 1517TIP3    H126110   4.978   2.192   1.485 -0.9357  0.2618 -1.6598
 1517TIP3    H226111   4.918   2.194   1.624  1.9104 -2.6990 -0.2671
 1518TIP3   OH226112   4.203   1.255   7.883 -0.5486  0.0565 -0.0344
 1518TIP3    H126113   4.175   1.294   7.966  0.6135 -0.2866  0.5439
 1518TIP3    H226114   4.298   1.268   7.881 -0.5660  0.0825 -1.3321
 1519TIP3   OH226115   1.866   2.410   6.765  0.0086 -0.2127  0.6491
 1519TIP3    H126116   1.917   2.440   6.840  2.4192  0.3610 -1.1226
 1519TIP3    H226117   1.854   2.488   6.711 -1.3965 -0.6867  0.2090
 1520TIP3   OH226118   0.758   1.604   7.152 -0.2428 -0.9579 -0.0686
 1520TIP3    H126119   0.781   1.534   7.213  0.7856 -0.2982  0.3268
 1520TIP3    H226120   0.669   1.629   7.175  0.8377  0.7728  2.6552
 1521TIP3   OH226121   1.945   4.581   1.890  0.0490 -0.6117  0.4009
 1521TIP3    H126122   1.935   4.514   1.822  0.2452  0.2272 -0.4816
 1521TIP3    H226123   1.856   4.597   1.922 -0.1375 -0.5165 -0.1572
 1522TIP3   OH226124   2.065   4.331   8.670 -0.5315  0.0813 -0.0380
 1522TIP3    H126125   2.141   4.345   8.613  0.6718  0.1932  1.5204
 1522TIP3    H226126   1.999   4.392   8.638 -1.0271 -1.8695 -3.1264
 1523TIP3   OH226127   2.493   2.887   7.528  0.1007 -0.1863  0.1539
 1523TIP3    H126128   2.480   2.834   7.450 -3.0102 -0.8169  0.9570
 1523TIP3    H226129   2.554   2.837   7.582 -1.1313 -1.9735 -0.0308
 1524TIP3   OH226130   0.161   5.816   8.698  0.3217  0.5872  0.0387
 1524TIP3    H126131   0.154   5.725   8.725  3.0619  0.9780  2.5452
 1524TIP3    H226132   0.125   5.866   8.771 -0.1624  1.5639 -0.8351
 1525TIP3   OH226133   6.510   0.508   2.185 -0.2121  0.2200 -0.5737
 1525TIP3    H126134   6.489   0.427   2.232 -1.2082  0.9668  0.3364
 1525TIP3    H226135   6.600   0.496   2.155  0.4068 -0.4085  1.3513
 1526TIP3   OH226136   2.252   3.321   0.516 -0.2839  0.0744  0.1852
 1526TIP3    H126137   2.213   3.336   0.430 -0.2869 -0.5351  0.0750
 1526TIP3    H226138   2.243   3.405   0.561 -1.7411 -0.0379  0.1751
 1527TIP3   OH226139   3.825   6.733   0.066  0.0678  0.4475 -0.3279
 1527TIP3    H126140   3.876   6.751   0.145  0.1497 -2.8629  0.5035
 1527TIP3    H226141   3.753   6.796   0.069 -0.5300 -0.2084  3.0064
 1528TIP3   OH226142   1.032   3.099   0.729  0.4088  0.5592  0.4032
 1528TIP3    H126143   1.022   3.193   0.746  0.2439  0.6837 -0.3465
 1528TIP3    H226144   1.061   3.094   0.638  0.5753 -0.1099  0.4890
 1529TIP3   OH226145   5.362   2.070   0.010 -0.1177  0.4987  0.6413
 1529TIP3    H126146   5.340   2.146  -0.044 -1.4717 -0.0999  0.3275
 1529TIP3    H226147   5.295   2.069   0.078 -0.9782 -1.2113 -0.1829
 1530TIP3   OH226148   3.612   0.822   1.724  0.2412 -0.0345  0.5904
 1530TIP3    H126149   3.644   0.782   1.643  0.3247  1.4009 -0.1209
 1530TIP3    H226150   3.552   0.891   1.694  0.9983  1.1474  1.6966
 1531TIP3   OH226151   4.243   3.311   1.085  0.3137 -0.7282 -0.4685
 1531TIP3    H126152   4.149   3.308   1.068  0.3648  1.9484 -1.8087
 1531TIP3    H226153   4.283   3.285   1.002  0.7008  0.4319 -0.6627
 1532TIP3   OH226154   5.384   4.852   1.777  0.3008  0.3214  0.2007
 1532TIP3    H126155   5.375   4.882   1.867 -3.4499  0.2851 -0.0012
 1532TIP3    H226156   5.396   4.932   1.726  1.2961  0.4348  0.5833
 1533TIP3   OH226157   3.051   2.287   7.765 -0.7438  0.0794 -0.1242
 1533TIP3    H126158   3.126   2.292   7.706 -1.7905  2.0199 -1.4001
 1533TIP3    H226159   3.086   2.310   7.851  0.7488 -2.5112  0.0623
 1534TIP3   OH226160   0.374   0.388   8.371 -0.0681 -0.3566 -0.6358
 1534TIP3    H126161   0.466   0.365   8.379  0.3912  1.5403 -0.0125
 1534TIP3    H226162   0.331   0.339   8.442  0.6796 -0.2057 -0.0675
 1535TIP3   OH226163   0.165   2.557   2.390 -0.8325 -0.0644  0.0551
 1535TIP3    H126164   0.165   2.643   2.433  0.9816  0.5591 -1.0976
 1535TIP3    H226165   0.248   2.517   2.417 -0.5605 -0.4546 -1.3257
 1536TIP3   OH226166   3.991   4.329   7.272 -0.0977 -0.2857 -0.1477
 1536TIP3    H126167   4.003   4.234   7.275 -0.8577 -0.4041 -0.6159
 1536TIP3    H226168   3.971   4.347   7.180  0.1742  0.3485 -0.0867
 1537TIP3   OH226169   6.236   3.016   8.309  0.2075 -0.1151 -0.1658
 1537TIP3    H126170   6.245   3.078   8.381 -0.2699  0.6609 -0.7570
 1537TIP3    H226171   6.154   2.969   8.328  0.3830 -0.3123  0.0971
 1538TIP3   OH226172   0.798   4.728   1.296 -0.4227 -0.8730 -0.1637
 1538TIP3    H126173   0.839   4.705   1.380  0.3495 -1.1840 -0.6221
 1538TIP3    H226174   0.771   4.644   1.258 -0.7353 -0.7355 -0.2561
 1539TIP3   OH226175   3.699   5.438   1.023 -0.1292 -0.2968  0.3026
 1539TIP3    H126176   3.708   5.514   1.080 -2.8416  0.2004  0.2103
 1539TIP3    H226177   3.769   5.379   1.051  0.2167  0.9957  2.3976
 1540TIP3   OH226178   4.870   1.970   0.871  0.0104  0.1041 -0.0889
 1540TIP3    H126179   4.883   1.897   0.932  0.5443  1.5368  1.6241
 1540TIP3    H226180   4.957   1.985   0.834  0.0903  0.4245  0.2282
 1541TIP3   OH226181   4.930   0.121   7.116 -0.3261 -0.0313 -0.2449
 1541TIP3    H126182   4.885   0.067   7.181 -0.2878  0.4840  0.2187
 1541TIP3    H226183   4.947   0.062   7.043 -1.3708 -0.3471 -0.2541
 1542TIP3   OH226184   6.074   6.423   1.798 -0.0065 -0.3090  0.3536
 1542TIP3    H126185   6.082   6.451   1.707 -0.8435  0.9110  0.6294
 1542TIP3    H226186   5.980   6.414   1.812 -0.0104  1.0656  1.5180
 1543TIP3   OH226187   2.309   2.556   6.681 -0.3610 -0.2571 -0.2093
 1543TIP3    H126188   2.241   2.624   6.683 -0.3783 -0.2789  0.0376
 1543TIP3    H226189   2.363   2.578   6.605  0.0406  0.4248  0.2607
 1544TIP3   OH226190   5.786   0.709   2.087  0.3863 -0.0123 -0.0538
 1544TIP3    H126191   5.786   0.669   2.174 -0.0766  1.2912  0.5726
 1544TIP3    H226192   5.872   0.689   2.052  0.2793 -1.2894  0.3446
 1545TIP3   OH226193   2.459   0.661   7.527 -0.1088 -0.3752  0.3128
 1545TIP3    H126194   2.538   0.606   7.521 -1.3894 -2.2221 -0.7239
 1545TIP3    H226195   2.478   0.737   7.473  1.2259 -0.4499  0.6542
 1546TIP3   OH226196   1.945   1.065   0.247  0.3077 -0.8667 -0.1974
 1546TIP3    H126197   1.880   1.017   0.197 -1.4680 -0.0017  1.1691
 1546TIP3    H226198   2.018   1.077   0.186 -2.0906  0.9830 -2.9742
 1547TIP3   OH226199   5.158   0.137   7.984 -0.0063  0.3710 -0.0361
 1547TIP3    H126200   5.078   0.091   8.012 -1.9266  3.7772  0.6045
 1547TIP3    H226201   5.168   0.113   7.892 -1.0286 -1.0519  0.1748
 1548TIP3   OH226202   5.104   3.701   8.110  0.5430 -0.4130 -0.3905
 1548TIP3    H126203   5.009   3.703   8.127  0.6620  0.0085  0.2644
 1548TIP3    H226204   5.114   3.754   8.031  0.2641 -0.1606 -0.2630
 1549TIP3   OH226205   4.670   6.174   0.650  0.3159 -0.2290 -0.2901
 1549TIP3    H126206   4.695   6.124   0.573  1.1763 -0.5673  0.1877
 1549TIP3    H226207   4.623   6.250   0.616 -1.0430 -1.3656 -1.0201
 1550TIP3   OH226208   5.494   6.613   0.148  0.3103  0.5314  0.2273
 1550TIP3    H126209   5.588   6.612   0.166  0.4392 -0.1158 -0.4256
 1550TIP3    H226210   5.453   6.623   0.233  0.8989 -1.9970  0.8983
 1551TIP3   OH226211   4.065   2.226   1.627  0.0982 -0.3618  0.3454
 1551TIP3    H126212   4.153   2.195   1.607 -0.0931 -0.9099  0.3454
 1551TIP3    H226213   4.078   2.290   1.697  0.3296 -1.7121  1.5558
 1552TIP3   OH226214   6.030   5.583   8.208 -0.1796 -0.3119 -0.5432
 1552TIP3    H126215   6.045   5.488   8.206  0.2251 -0.3433  1.5505
 1552TIP3    H226216   6.117   5.621   8.211 -0.2532 -0.1085  2.5279
 1553TIP3   OH226217   1.946   1.047   8.654 -0.3441 -0.1736 -0.0878
 1553TIP3    H126218   1.883   0.975   8.653 -0.1693 -0.4113  1.8953
 1553TIP3    H226219   2.007   1.027   8.584 -3.0444  0.6854 -2.9113
 1554TIP3   OH226220   1.939   0.612   1.972  0.1182 -0.3468 -0.1202
 1554TIP3    H126221   1.965   0.528   1.933 -1.1149  0.0272 -1.8428
 1554TIP3    H226222   1.844   0.609   1.974  0.0740  0.8486  0.1697
 1555TIP3   OH226223   5.076   3.225   7.981 -0.4040 -0.0000 -0.3725
 1555TIP3    H126224   5.104   3.174   7.905 -0.2799  0.4785 -0.6484
 1555TIP3    H226225   4.994   3.266   7.955 -0.3088  0.2473 -0.2826
 1556TIP3   OH226226   6.365   3.712   7.425  0.2631 -0.0178 -0.0603
 1556TIP3    H126227   6.313   3.785   7.392  1.0517  1.0384  0.9259
 1556TIP3    H226228   6.455   3.735   7.402  0.3853 -1.6227 -1.4058
 1557TIP3   OH226229   4.521   2.636   8.210  0.5614  0.0928 -0.6147
 1557TIP3    H126230   4.437   2.642   8.164 -1.1774  0.7932  2.3580
 1557TIP3    H226231   4.553   2.726   8.214 -0.5840  0.4551  1.5894
 1558TIP3   OH226232   0.318   2.982   2.514 -0.1727  0.0194  0.2548
 1558TIP3    H126233   0.400   2.978   2.563  1.3437 -0.9447 -2.2047
 1558TIP3    H226234   0.308   3.075   2.492  0.1614  0.1684  0.7279
 1559TIP3   OH226235   5.289   6.365   7.976 -0.0816  0.1276 -0.6759
 1559TIP3    H126236   5.241   6.448   7.979  2.9835  2.0825 -1.5954
 1559TIP3    H226237   5.343   6.366   8.055 -1.4678 -2.0901  0.4070
 1560TIP3   OH226238   5.230   5.436   0.820 -0.3056  0.2644  0.1260
 1560TIP3    H126239   5.164   5.501   0.846 -0.0379  0.3813  0.5349
 1560TIP3    H226240   5.284   5.481   0.754  0.2321  0.6718  0.8212
 1561TIP3   OH226241   3.764   0.166   0.153 -0.1019  0.2659 -0.0675
 1561TIP3    H126242   3.724   0.123   0.077 -0.3433 -0.7215  0.6005
 1561TIP3    H226243   3.726   0.121   0.229  1.7192 -0.2030  0.6044
 1562TIP3   OH226244   0.986   5.002   2.262 -0.1511  0.3267  0.2173
 1562TIP3    H126245   1.037   4.946   2.320  0.5315  1.2720  0.5646
 1562TIP3    H226246   0.980   4.954   2.180 -0.4964 -0.7078  0.8289
 1563TIP3   OH226247   1.955   3.618   1.941 -0.4700 -0.1531 -0.3997
 1563TIP3    H126248   1.976   3.575   2.024 -0.9494 -0.3509 -0.3772
 1563TIP3    H226249   2.001   3.566   1.875  0.4366  0.3831 -0.2035
 1564TIP3   OH226250   1.399   5.377   1.378 -0.0080  0.1432 -0.1091
 1564TIP3    H126251   1.444   5.461   1.380  1.7248 -0.6596 -1.7047
 1564TIP3    H226252   1.464   5.316   1.342 -1.9402 -1.3950 -1.2365
 1565TIP3   OH226253   4.305   5.458   7.879  0.0825 -0.4680 -0.0133
 1565TIP3    H126254   4.263   5.436   7.962  0.0732  1.2545  0.4669
 1565TIP3    H226255   4.286   5.550   7.865  0.3848 -0.6293 -1.7801
 1566TIP3   OH226256   6.032   4.246   1.301 -0.3818  0.5267  0.0812
 1566TIP3    H126257   5.971   4.181   1.266 -1.8187  0.3130  2.7105
 1566TIP3    H226258   6.039   4.312   1.232 -4.1566  0.8895 -0.1582
 1567TIP3   OH226259   5.990   2.602   7.527  0.6010 -0.7160  0.1316
 1567TIP3    H126260   6.064   2.639   7.576  0.8929 -1.3589  0.1878
 1567TIP3    H226261   6.003   2.634   7.438 -0.9170  1.9519  0.7591
 1568TIP3   OH226262   5.372   4.408   8.357 -0.0518  0.0151  0.2189
 1568TIP3    H126263   5.374   4.483   8.417  0.8410 -0.4418  0.7759
 1568TIP3    H226264   5.343   4.334   8.410 -1.5397  0.0590 -0.4760
 1569TIP3   OH226265   4.869   6.794   1.690 -0.3139 -0.3453  0.0877
 1569TIP3    H126266   4.913   6.791   1.775  0.0203  1.3285  0.0069
 1569TIP3    H226267   4.928   6.846   1.635  0.2632 -2.6759 -1.6849
 1570TIP3   OH226268   0.736   5.172   2.961 -0.1629  0.2324  0.6230
 1570TIP3    H126269   0.769   5.221   2.886 -0.9200  1.6245  1.1404
 1570TIP3    H226270   0.765   5.223   3.037 -1.0866 -0.0377  1.1787
 1571TIP3   OH226271   4.645   4.062   7.592 -0.5984 -0.1190 -0.0535
 1571TIP3    H126272   4.650   3.981   7.542  1.6336  0.1894 -0.4497
 1571TIP3    H226273   4.672   4.037   7.680  0.2072  0.1945 -0.2041
 1572TIP3   OH226274   0.334   1.103   8.462 -0.0342  0.3934  0.1578
 1572TIP3    H126275   0.326   1.017   8.419 -0.1627 -0.3033  1.5168
 1572TIP3    H226276   0.380   1.157   8.398  0.2458 -0.7525 -0.6513
 1573TIP3   OH226277   2.919   1.926   6.969  0.4389  0.0693 -0.3544
 1573TIP3    H126278   2.830   1.936   6.934  0.0133  1.7118  1.0529
 1573TIP3    H226279   2.936   1.832   6.966 -1.7515 -0.4003  0.3099
 1574TIP3   OH226280   3.087   0.036   1.926 -0.3322 -0.1241 -0.3331
 1574TIP3    H126281   3.002   0.079   1.919  0.5297  1.5372 -1.1416
 1574TIP3    H226282   3.095   0.013   2.019 -1.6906 -0.3896 -0.2673
 1575TIP3   OH226283   5.907   1.161   0.127 -0.1252  0.1165  0.0962
 1575TIP3    H126284   5.887   1.246   0.087 -1.0023  0.2762  0.8583
 1575TIP3    H226285   5.822   1.127   0.155  0.5145  0.3267  2.4653
 1576TIP3   OH226286   5.684   0.586   8.131 -0.0807  0.3177 -0.3578
 1576TIP3    H126287   5.652   0.585   8.040  0.0156 -1.7921 -0.4178
 1576TIP3    H226288   5.779   0.576   8.122 -0.2210 -1.6631 -0.0343
 1577TIP3   OH226289   5.857   0.724   7.684 -0.1415  0.8684  0.0685
 1577TIP3    H126290   5.917   0.791   7.651  0.6151 -0.2278 -0.8404
 1577TIP3    H226291   5.914   0.651   7.708 -0.9438  0.5876  1.1722
 1578TIP3   OH226292   3.199   5.008   2.511  0.0051  0.4008  0.3475
 1578TIP3    H126293   3.293   5.002   2.491  0.1283  0.1928  0.9676
 1578TIP3    H226294   3.178   5.101   2.498  0.0563  0.2709 -0.7928
 1579TIP3   OH226295   6.190   2.936   8.667  0.0120  0.0587  0.4678
 1579TIP3    H126296   6.173   3.030   8.657 -0.1099 -0.1267 -1.6970
 1579TIP3    H226297   6.278   2.924   8.632  0.9397 -0.3466  2.8248
 1580TIP3   OH226298   0.934   2.981   0.950 -0.4192 -0.8860  0.0562
 1580TIP3    H126299   0.967   3.040   1.017  0.6346 -0.6101 -0.6886
 1580TIP3    H226300   0.979   3.007   0.870 -2.5390 -0.4212 -1.0539
 1581TIP3   OH226301   6.460   3.808   0.316 -0.8937  0.4434 -0.1677
 1581TIP3    H126302   6.487   3.820   0.407 -0.6189 -0.5595 -0.1028
 1581TIP3    H226303   6.402   3.731   0.319  1.6928 -1.6900 -1.2693
 1582TIP3   OH226304   1.024   0.355   0.490 -0.1559  0.1376  0.4715
 1582TIP3    H126305   0.996   0.419   0.425 -1.9957  0.1943  1.2440
 1582TIP3    H226306   1.073   0.289   0.441 -0.0234  1.0581 -0.6612
 1583TIP3   OH226307   6.429   5.481   7.559  0.3415  0.7115 -0.2436
 1583TIP3    H126308   6.367   5.516   7.495 -0.3340 -2.5863 -1.6106
 1583TIP3    H226309   6.514   5.517   7.534 -0.0470  0.1397 -2.5266
 1584TIP3   OH226310   5.888   0.860   8.152 -0.0957 -0.4862  0.3816
 1584TIP3    H126311   5.846   0.846   8.067  2.1495  0.5645 -0.9965
 1584TIP3    H226312   5.917   0.773   8.178 -1.0601 -0.8641  0.2392
 1585TIP3   OH226313   1.442   5.922   0.174 -0.7112 -0.1955  0.6945
 1585TIP3    H126314   1.375   5.944   0.110 -0.9742 -0.5341  0.8496
 1585TIP3    H226315   1.524   5.921   0.124 -0.7499  0.6630  0.5929
 1586TIP3   OH226316   3.337   5.514   1.256  0.0865 -0.1208 -0.5803
 1586TIP3    H126317   3.262   5.488   1.201  0.1250 -0.8334 -0.3112
 1586TIP3    H226318   3.344   5.608   1.244 -1.4736  0.1228  0.1468
 1587TIP3   OH226319   1.725   0.323   2.292  0.0999 -0.1209  0.5442
 1587TIP3    H126320   1.786   0.394   2.312  0.0636 -0.0422  0.3707
 1587TIP3    H226321   1.758   0.249   2.343 -0.7199  0.4201  1.9316
 1588TIP3   OH226322   6.837   1.728   1.432  0.5541 -0.8709 -0.2660
 1588TIP3    H126323   6.844   1.822   1.416 -0.5748 -1.0883 -2.3527
 1588TIP3    H226324   6.821   1.721   1.526  2.3783  0.8870  0.2394
 1589TIP3   OH226325   5.696   3.685   0.399  0.3318 -0.3253 -0.3132
 1589TIP3    H126326   5.756   3.635   0.345 -1.1542 -0.6661 -1.7283
 1589TIP3    H226327   5.749   3.756   0.435  1.9629 -1.6439 -0.0174
 1590TIP3   OH226328   5.785   1.848   7.184 -0.1329  0.2480  0.0134
 1590TIP3    H126329   5.838   1.790   7.130 -0.9282 -0.9303  0.4550
 1590TIP3    H226330   5.797   1.815   7.273 -1.9821 -0.3898  0.0650
 1591TIP3   OH226331   5.429   1.285   8.276 -0.0561 -0.4088 -0.2213
 1591TIP3    H126332   5.486   1.290   8.200  1.6329 -0.8708  0.9547
 1591TIP3    H226333   5.425   1.191   8.297  1.6538 -0.1204  1.7373
 1592TIP3   OH226334   2.737   4.766   2.652  0.4089 -0.4844  0.4431
 1592TIP3    H126335   2.801   4.837   2.660 -0.0962  0.0851 -0.5126
 1592TIP3    H226336   2.652   4.807   2.666  0.1078 -0.8865 -0.1674
 1593TIP3   OH226337   6.012   1.275   8.328 -0.4007 -0.3686 -0.2982
 1593TIP3    H126338   6.003   1.288   8.234  3.6451  2.5757 -0.5434
 1593TIP3    H226339   5.990   1.360   8.366  0.2510 -0.8255  1.1647
 1594TIP3   OH226340   0.036   5.786   7.759  0.0956  0.1541  0.8631
 1594TIP3    H126341  -0.003   5.859   7.807  0.6413  0.3800  0.9740
 1594TIP3    H226342   0.001   5.707   7.801 -0.2575  0.3527  0.9405
 1595TIP3   OH226343   2.906   6.088   7.530  0.3744 -0.0167  0.2193
 1595TIP3    H126344   2.954   6.019   7.484 -1.3479 -0.6476 -0.7158
 1595TIP3    H226345   2.894   6.157   7.464 -3.0065 -1.3469 -0.7826
 1596TIP3   OH226346   6.446   2.207   0.125 -0.6679  0.6228 -0.1383
 1596TIP3    H126347   6.416   2.200   0.216  1.7347  0.5572  0.7236
 1596TIP3    H226348   6.399   2.138   0.079 -0.0944 -1.0367  1.6183
 1597TIP3   OH226349   0.672   0.994   7.712 -0.2558  0.3167  0.2460
 1597TIP3    H126350   0.690   1.021   7.802 -2.9224 -1.2972  1.3956
 1597TIP3    H226351   0.579   1.013   7.699 -0.5514 -1.7588 -1.2720
 1598TIP3   OH226352   2.602   2.137   8.533  0.4342  0.2981  0.2805
 1598TIP3    H126353   2.633   2.060   8.485  1.0288  0.6013  0.1613
 1598TIP3    H226354   2.591   2.105   8.623 -0.2055 -0.1450  0.0530
 1599TIP3   OH226355   5.217   0.597   1.440  0.2322  0.1781  0.4922
 1599TIP3    H126356   5.185   0.614   1.352 -0.8359  0.2832  0.8825
 1599TIP3    H226357   5.199   0.504   1.455  1.3177 -0.0894  0.2549
 1600TIP3   OH226358   3.341   4.964   7.417  0.3686 -0.2472 -0.0482
 1600TIP3    H126359   3.286   4.963   7.339  0.6944 -0.5500 -0.2785
 1600TIP3    H226360   3.411   5.026   7.396  0.9770 -1.0155 -0.3721
 1601TIP3   OH226361   2.551   3.553   1.553  0.3376  0.0174  0.0023
 1601TIP3    H126362   2.604   3.612   1.500 -1.0581  0.3485 -1.0735
 1601TIP3    H226363   2.523   3.606   1.627 -1.2745  0.9070 -1.1826
 1602TIP3   OH226364   1.284   5.740   1.685  0.0634 -0.0762 -0.3874
 1602TIP3    H126365   1.247   5.803   1.624 -0.8798 -0.0764  0.1743
 1602TIP3    H226366   1.276   5.782   1.771  0.5096 -0.4693 -0.1490
 1603TIP3   OH226367   2.124   4.379   8.222  0.2931  0.2877  0.3266
 1603TIP3    H126368   2.170   4.434   8.159  1.8495 -1.6269 -0.3149
 1603TIP3    H226369   2.036   4.369   8.186  0.1122  1.9520  0.2463
 1604TIP3   OH226370   3.920   4.599   1.241  0.1046 -0.9245 -0.1059
 1604TIP3    H126371   3.942   4.680   1.287  0.3013 -2.2710  2.3238
 1604TIP3    H226372   3.829   4.583   1.264 -0.9426  0.0734 -3.0405
 1605TIP3   OH226373   5.847   5.320   2.433 -0.0687 -0.2380  0.2745
 1605TIP3    H126374   5.916   5.275   2.384 -2.1284 -1.5942 -1.5357
 1605TIP3    H226375   5.871   5.307   2.525  2.0998 -0.5826 -0.2856
 1606TIP3   OH226376   4.186   0.765   0.763  0.3292 -0.0421  0.8185
 1606TIP3    H126377   4.157   0.675   0.778 -1.6891  0.5432  0.7254
 1606TIP3    H226378   4.200   0.800   0.851  0.7427 -0.3214  0.8680
 1607TIP3   OH226379   1.378   0.860   0.090 -0.1815  0.1769 -0.0051
 1607TIP3    H126380   1.399   0.902   0.174 -0.3699 -0.8955  0.5955
 1607TIP3    H226381   1.459   0.868   0.039 -0.1943  1.2159  0.0978
 1608TIP3   OH226382   4.436   5.017   0.077 -0.5243  0.1274  1.1071
 1608TIP3    H126383   4.365   5.061   0.123 -0.2759  1.6553  0.1011
 1608TIP3    H226384   4.516   5.050   0.119 -0.3547  0.2337  0.7120
 1609TIP3   OH226385   1.142   4.846   1.752 -0.6807  0.6100  0.4083
 1609TIP3    H126386   1.112   4.887   1.671  1.9903  2.3522  0.1774
 1609TIP3    H226387   1.214   4.790   1.724 -1.6061 -1.0890  1.2816
 1610TIP3   OH226388   5.519   5.779   0.714 -0.0886 -0.4300 -0.4292
 1610TIP3    H126389   5.560   5.805   0.631 -0.0435  0.3496 -0.1707
 1610TIP3    H226390   5.455   5.848   0.731  0.7886  0.1043  0.8166
 1611TIP3   OH226391   6.019   6.214   2.018  0.0818  1.3013 -0.3177
 1611TIP3    H126392   6.013   6.269   2.096  0.0600  1.1977 -0.2461
 1611TIP3    H226393   6.090   6.252   1.967  0.6824  0.8432  0.1714
 1612TIP3   OH226394   5.619   3.104   1.591  0.6539 -0.3681  0.4467
 1612TIP3    H126395   5.632   3.111   1.497 -0.3366  0.0872  0.3411
 1612TIP3    H226396   5.541   3.156   1.610  1.1279 -0.0300  1.5954
 1613TIP3   OH226397   0.102   3.894   0.601 -0.2957  0.0428  0.4688
 1613TIP3    H126398   0.049   3.845   0.664  0.2205 -1.6895 -0.4084
 1613TIP3    H226399   0.152   3.828   0.553  1.6519  1.5071  0.3172
 1614TIP3   OH226400   4.877   4.691   7.017  0.1616 -0.4268  0.5623
 1614TIP3    H126401   4.851   4.620   6.959 -2.6181  0.5841  0.3968
 1614TIP3    H226402   4.870   4.770   6.962  1.4614  0.1556  1.1993
 1615TIP3   OH226403   1.117   4.138   7.968  0.1148 -0.0611 -0.3354
 1615TIP3    H126404   1.056   4.163   8.038 -0.4990 -1.0233 -0.5126
 1615TIP3    H226405   1.076   4.173   7.889  0.9608  1.2941 -0.2075
 1616TIP3   OH226406   5.657   2.167   2.399 -0.1299 -0.1708  0.0424
 1616TIP3    H126407   5.627   2.085   2.358  1.5757 -0.5361 -0.5505
 1616TIP3    H226408   5.752   2.166   2.387 -0.1917  2.8005 -1.7306
 1617TIP3   OH226409   5.350   5.281   1.369 -0.0056  0.3292 -0.1257
 1617TIP3    H126410   5.345   5.251   1.460 -0.1752 -0.7674 -0.4807
 1617TIP3    H226411   5.350   5.376   1.376 -0.3404  0.2724  1.0102
 1618TIP3   OH226412   4.193   6.675   1.133 -0.3896 -0.2492  0.8762
 1618TIP3    H126413   4.220   6.691   1.223  0.9174  0.6960  0.3547
 1618TIP3    H226414   4.158   6.586   1.133 -1.7088  0.2091  2.5794
 1619TIP3   OH226415   2.904   2.674   7.724 -0.5821 -0.8861 -0.1826
 1619TIP3    H126416   2.896   2.615   7.799 -1.7287  0.7679  1.0668
 1619TIP3    H226417   2.997   2.675   7.704  0.0459 -0.0944  2.3669
 1620TIP3   OH226418   1.701   2.056   1.199  0.4784  0.0736  1.1121
 1620TIP3    H126419   1.630   2.086   1.142  0.6481  0.5812  1.1630
 1620TIP3    H226420   1.780   2.094   1.161  0.9856 -2.0122 -0.0256
 1621TIP3   OH226421   6.071   6.826   7.368  0.1832 -0.2585 -0.4598
 1621TIP3    H126422   6.038   6.737   7.381 -0.5795  0.0553 -0.2227
 1621TIP3    H226423   6.151   6.829   7.419 -1.3328  0.1094  2.0474
 1622TIP3   OH226424   0.411   4.461   8.450 -0.6658 -0.2513  0.1989
 1622TIP3    H126425   0.458   4.541   8.427 -0.3857 -0.3309  0.4990
 1622TIP3    H226426   0.330   4.491   8.491 -0.2288 -0.1227  0.9892
 1623TIP3   OH226427   6.249   2.698   7.576  0.0667  0.0109 -0.1331
 1623TIP3    H126428   6.247   2.783   7.533 -0.3668 -0.0681 -0.2739
 1623TIP3    H226429   6.329   2.699   7.629  0.8033 -0.0169 -1.2052
 1624TIP3   OH226430   4.417   1.605   1.149  0.1182  0.5177 -0.3522
 1624TIP3    H126431   4.479   1.674   1.124 -0.8951  0.9424 -1.8330
 1624TIP3    H226432   4.412   1.549   1.071 -1.9566  0.9498 -0.5639
 1625TIP3   OH226433   5.333   1.207   1.026 -0.0921  0.2775  0.4784
 1625TIP3    H126434   5.261   1.150   0.999  0.0859 -0.5416  1.6888
 1625TIP3    H226435   5.292   1.292   1.042 -0.3429  0.5640 -1.4408
 1626TIP3   OH226436   0.897   4.172   1.391  0.4633 -0.5278 -0.1013
 1626TIP3    H126437   0.890   4.208   1.480 -0.3808 -1.0296  0.0473
 1626TIP3    H226438   0.991   4.159   1.378  0.7175  0.7747  0.2148
 1627TIP3   OH226439   3.527   2.104   6.660  0.2033  0.1054 -0.4078
 1627TIP3    H126440   3.480   2.055   6.593 -0.4434 -0.2815  0.3049
 1627TIP3    H226441   3.467   2.172   6.688  0.1034 -0.2922  0.3983
 1628TIP3   OH226442   4.416   4.079   2.387 -0.2334 -0.0964 -0.0840
 1628TIP3    H126443   4.509   4.100   2.399 -0.4537  0.4322  0.7531
 1628TIP3    H226444   4.395   4.019   2.459 -0.4671 -0.4792 -0.4631
 1629TIP3   OH226445   4.627   5.681   8.006 -0.3451  0.1470  0.3287
 1629TIP3    H126446   4.619   5.685   8.101 -0.3314  2.0560  0.2970
 1629TIP3    H226447   4.581   5.601   7.981 -1.4213  0.2533  1.8337
 1630TIP3   OH226448   1.209   5.543   8.395 -0.4460 -0.1421 -0.1712
 1630TIP3    H126449   1.150   5.482   8.440 -1.9668  1.0018 -0.5139
 1630TIP3    H226450   1.271   5.570   8.463  0.5591 -2.3724 -0.1331
 1631TIP3   OH226451   0.684   1.566   0.422 -0.2712  0.6936  0.2455
 1631TIP3    H126452   0.593   1.595   0.416 -0.3086  0.8203  1.3139
 1631TIP3    H226453   0.719   1.581   0.334 -1.2424  0.7572 -0.1459
 1632TIP3   OH226454   2.438   5.357   0.365 -0.7303 -0.3330  0.4272
 1632TIP3    H126455   2.443   5.449   0.388  0.0341  0.1505 -1.5012
 1632TIP3    H226456   2.366   5.351   0.302 -1.1757 -1.1722  0.9921
 1633TIP3   OH226457   0.067   4.863   1.925  0.0174  0.0941  0.9090
 1633TIP3    H126458   0.011   4.939   1.918  0.2146  0.1790  0.2196
 1633TIP3    H226459   0.054   4.832   2.015 -1.6319 -0.2815  0.5736
 1634TIP3   OH226460   5.775   5.126   0.756  0.3698  0.3404  0.1843
 1634TIP3    H126461   5.864   5.138   0.788  0.0936  0.0666  1.1081
 1634TIP3    H226462   5.727   5.203   0.787  0.5487  1.1001 -1.3661
 1635TIP3   OH226463   4.016   4.897   8.238 -0.3986 -0.1175 -0.5992
 1635TIP3    H126464   4.095   4.914   8.185 -1.1294 -0.5790 -1.8755
 1635TIP3    H226465   4.049   4.892   8.328  1.3404 -2.0485 -1.2424
 1636TIP3   OH226466   0.037   4.318   0.742  0.0206  0.4100  0.3627
 1636TIP3    H126467  -0.016   4.370   0.803 -0.9313 -1.2013  0.9726
 1636TIP3    H226468  -0.000   4.230   0.747  0.5369  0.0016 -1.8402
 1637TIP3   OH226469   2.573   4.790   7.166 -0.3160  0.4863  0.2470
 1637TIP3    H126470   2.548   4.700   7.145 -0.8892  0.4253  1.1726
 1637TIP3    H226471   2.622   4.819   7.089 -1.8943  0.0934 -0.9576
 1638TIP3   OH226472   6.543   1.243   0.381  0.0788 -0.6264  0.3148
 1638TIP3    H126473   6.455   1.232   0.346 -0.6522  1.6051  1.2227
 1638TIP3    H226474   6.589   1.162   0.358 -2.0517 -1.6630 -0.5762
 1639TIP3   OH226475   0.592   6.546   2.306 -0.2539 -0.3503  0.2947
 1639TIP3    H126476   0.626   6.634   2.286  1.6937 -0.6069  2.0689
 1639TIP3    H226477   0.573   6.549   2.400 -2.0607 -1.2806 -0.0050
 1640TIP3   OH226478   0.832   4.702   6.162 -0.0790  0.3242 -0.1306
 1640TIP3    H126479   0.885   4.652   6.100 -0.5774  0.8731 -1.0285
 1640TIP3    H226480   0.894   4.737   6.225  0.3503 -0.8920  0.1537
 1641TIP3   OH226481   6.561   4.367   1.647 -0.6641 -0.1617  0.3741
 1641TIP3    H126482   6.551   4.279   1.683  0.4317  0.2638  1.8395
 1641TIP3    H226483   6.472   4.400   1.639 -1.1933 -1.8278 -1.4405
 1642TIP3   OH226484   1.662   4.055   1.056 -0.4283  0.4536 -0.2822
 1642TIP3    H126485   1.724   4.128   1.061  0.3260 -0.1845 -0.0667
 1642TIP3    H226486   1.642   4.047   0.963  0.7510 -0.0800 -0.5141
 1643TIP3   OH226487   3.016   4.270   8.391  0.5387 -0.3836  0.4713
 1643TIP3    H126488   3.059   4.188   8.412  1.1793 -0.0208  0.6051
 1643TIP3    H226489   2.927   4.260   8.425 -0.1153 -1.8797 -1.5010
 1644TIP3   OH226490   4.495   3.588   8.266 -0.0453  0.9326 -0.0894
 1644TIP3    H126491   4.416   3.580   8.320 -0.2561 -0.6134 -0.5800
 1644TIP3    H226492   4.565   3.608   8.329 -0.6687  1.4610  0.4531
 1645TIP3   OH226493   2.965   6.122   2.418  0.6727  0.5564  0.1970
 1645TIP3    H126494   2.916   6.099   2.497 -1.9911 -0.1534 -1.5296
 1645TIP3    H226495   2.986   6.215   2.429 -0.4039  0.6876  1.3300
 1646TIP3   OH226496   0.975   3.331   6.871  0.1510 -0.3394  0.3256
 1646TIP3    H126497   1.067   3.312   6.851  0.5928  0.3644  1.5641
 1646TIP3    H226498   0.925   3.269   6.817  1.2855  0.2334 -1.4638
 1647TIP3   OH226499   4.537   1.325   1.273 -0.0242  0.8909 -0.1275
 1647TIP3    H126500   4.446   1.351   1.256 -0.1754 -0.1160 -1.0201
 1647TIP3    H226501   4.557   1.264   1.202  0.3794 -1.2113  1.7162
 1648TIP3   OH226502   0.775   2.169   6.752  0.0958  0.1796 -0.2826
 1648TIP3    H126503   0.680   2.159   6.748  0.1459  0.0209 -1.7896
 1648TIP3    H226504   0.805   2.139   6.666  1.6434 -1.0607  0.6374
 1649TIP3   OH226505   3.537   4.913   6.932  0.4873  0.0810  0.1494
 1649TIP3    H126506   3.611   4.913   6.993 -0.0858 -1.3360  0.8918
 1649TIP3    H226507   3.509   4.822   6.929 -1.1763  0.5756 -0.1942
 1650TIP3   OH226508   1.501   4.242   8.497 -0.3410  0.3083 -0.0706
 1650TIP3    H126509   1.576   4.182   8.495 -0.2595 -0.0867  4.4628
 1650TIP3    H226510   1.538   4.326   8.471  0.2893 -0.8146 -3.2744
 1651TIP3   OH226511   0.259   0.879   7.548  0.2459 -0.1050 -0.5950
 1651TIP3    H126512   0.174   0.846   7.521  1.2733 -2.2608 -1.4136
 1651TIP3    H226513   0.322   0.829   7.496  2.0827  0.2043  1.1933
 1652TIP3   OH226514   3.249   1.118   0.851  0.0045  0.2304 -0.5825
 1652TIP3    H126515   3.304   1.120   0.772 -0.7087  1.6222 -1.0752
 1652TIP3    H226516   3.210   1.030   0.851  0.5517 -0.0272 -1.3944
 1653TIP3   OH226517   4.884   3.281   0.650  0.1147 -0.9357  0.0568
 1653TIP3    H126518   4.811   3.320   0.603 -0.1959 -1.6511 -0.0631
 1653TIP3    H226519   4.938   3.356   0.677 -0.0982 -0.4743 -0.7725
 1654TIP3   OH226520   5.317   4.696   1.566  0.5300 -0.1429 -0.0274
 1654TIP3    H126521   5.343   4.754   1.637  1.3748  1.6779 -1.6976
 1654TIP3    H226522   5.227   4.723   1.544 -0.0995 -1.3805  0.9656
 1655TIP3   OH226523   3.629   1.538   7.333  0.5394  0.5253 -0.8577
 1655TIP3    H126524   3.602   1.491   7.254 -0.2880  0.1910 -0.3950
 1655TIP3    H226525   3.724   1.532   7.334  0.5042 -0.2044 -1.3827
 1656TIP3   OH226526   6.326   4.863   8.099 -0.2603  0.0113  0.1296
 1656TIP3    H126527   6.338   4.954   8.127  2.4967  0.0208 -0.6922
 1656TIP3    H226528   6.259   4.868   8.031 -0.3764  1.3915  0.3025
 1657TIP3   OH226529   1.711   0.171   8.559 -0.4107  0.3940 -0.4283
 1657TIP3    H126530   1.766   0.237   8.599  0.7122 -1.1311  0.6616
 1657TIP3    H226531   1.764   0.091   8.561 -1.9226 -0.6785 -1.1525
 1658TIP3   OH226532   5.479   0.251   1.514  0.0154  0.2147  0.9074
 1658TIP3    H126533   5.565   0.270   1.476 -0.2124 -0.6255 -0.0922
 1658TIP3    H226534   5.417   0.271   1.444 -0.4818 -0.5694  1.1062
 1659TIP3   OH226535   0.019   3.018   8.004 -0.0940  0.5045  0.2717
 1659TIP3    H126536   0.084   2.948   7.996 -0.8953 -0.2738  0.4154
 1659TIP3    H226537   0.057   3.091   7.955  0.8077  0.0112  0.2089
 1660TIP3   OH226538   2.086   1.864   8.190  0.1004 -0.9722  0.2476
 1660TIP3    H126539   2.077   1.920   8.113 -0.7114 -1.5781 -0.1204
 1660TIP3    H226540   2.025   1.792   8.174  0.0158 -1.1797  1.4013
 1661TIP3   OH226541   1.170   4.934   7.689  0.4553  0.0426  0.5047
 1661TIP3    H126542   1.200   5.024   7.702  2.8642 -0.7357  0.7271
 1661TIP3    H226543   1.140   4.932   7.599  0.9451  0.9227  0.3081
 1662TIP3   OH226544   4.726   1.753   0.307 -0.8099  0.1189 -0.3416
 1662TIP3    H126545   4.632   1.752   0.324 -0.6588  0.4192  0.6060
 1662TIP3    H226546   4.766   1.753   0.394  0.0646  0.1362 -0.7300
 1663TIP3   OH226547   3.590   0.919   2.715 -0.2777  0.0651 -0.5721
 1663TIP3    H126548   3.560   0.857   2.649  0.2870  1.4313 -2.1971
 1663TIP3    H226549   3.676   0.886   2.741 -0.5993 -0.6041 -0.3305
 1664TIP3   OH226550   3.929   0.461   1.874  0.1694 -0.4813  0.3814
 1664TIP3    H126551   3.976   0.461   1.790 -0.3156  0.1116  0.0981
 1664TIP3    H226552   3.936   0.551   1.905 -1.9899  0.0075 -0.3777
 1665TIP3   OH226553   4.839   4.886   0.787  0.3057 -0.4005 -0.0791
 1665TIP3    H126554   4.830   4.796   0.758 -0.9558 -0.0831 -0.7723
 1665TIP3    H226555   4.931   4.895   0.812 -0.3062 -3.0532  4.0924
 1666TIP3   OH226556   1.399   4.190   1.272 -0.3891  0.3203 -0.7534
 1666TIP3    H126557   1.375   4.238   1.352 -0.7743 -0.5167 -0.3550
 1666TIP3    H226558   1.487   4.158   1.289  0.3117  1.7803 -1.4568
 1667TIP3   OH226559   3.536   5.645   1.464 -0.1699  0.6738 -0.1165
 1667TIP3    H126560   3.527   5.607   1.552  0.3972 -0.5742 -0.5637
 1667TIP3    H226561   3.484   5.587   1.408  2.6181 -0.9965 -1.2142
 1668TIP3   OH226562   5.992   3.335   2.719 -0.0649 -0.2398 -0.7005
 1668TIP3    H126563   6.030   3.280   2.788  1.2093  0.1627 -1.0566
 1668TIP3    H226564   5.898   3.329   2.733  0.1519 -0.5312  0.7909
 1669TIP3   OH226565   3.133   0.790   1.259 -0.0484 -0.2892 -0.2966
 1669TIP3    H126566   3.079   0.802   1.181 -0.7811 -0.9643  0.0868
 1669TIP3    H226567   3.073   0.753   1.324  0.2039  1.5008  1.0227
 1670TIP3   OH226568   1.913   4.299   1.456  0.0121 -0.3942  0.4669
 1670TIP3    H126569   2.000   4.304   1.418  0.0335  0.7797  0.6234
 1670TIP3    H226570   1.908   4.375   1.514 -0.9365 -0.7237  0.8354
 1671TIP3   OH226571   6.408   3.881   0.941  0.5413 -0.0466  0.4550
 1671TIP3    H126572   6.420   3.873   0.846 -1.4228  0.3343  0.1254
 1671TIP3    H226573   6.390   3.974   0.955 -1.8093 -0.4864  0.7911
 1672TIP3   OH226574   5.352   3.544   8.070 -0.2283  0.0139 -0.0509
 1672TIP3    H126575   5.340   3.524   7.978 -1.1254 -1.6540  0.3877
 1672TIP3    H226576   5.268   3.580   8.098 -0.0570  0.2386  0.1831
 1673TIP3   OH226577   6.592   2.674   1.930 -0.2938  0.2144  0.0752
 1673TIP3    H126578   6.510   2.695   1.976  0.0940  1.3082  0.2901
 1673TIP3    H226579   6.635   2.759   1.917  0.9556 -0.3770  0.2277
 1674TIP3   OH226580   6.348   6.029   8.453  0.4661  0.2397  0.7529
 1674TIP3    H126581   6.396   6.099   8.408  1.9340 -1.4029 -0.3788
 1674TIP3    H226582   6.283   6.000   8.389  0.6999 -0.2482  0.7308
 1675TIP3   OH226583   6.110   3.414   2.097 -0.5961 -0.4143  0.0927
 1675TIP3    H126584   6.152   3.417   2.011 -1.1288 -0.1891 -0.1602
 1675TIP3    H226585   6.169   3.359   2.150 -0.6444 -1.1843 -0.6261
 1676TIP3   OH226586   4.369   1.353   0.973 -0.4429 -0.3675  0.1758
 1676TIP3    H126587   4.304   1.342   0.904 -0.0339 -0.4648 -0.1998
 1676TIP3    H226588   4.379   1.266   1.011 -2.1829  0.0557  1.7681
 1677TIP3   OH226589   1.638   0.216   0.683  0.3219  0.1945 -0.5733
 1677TIP3    H126590   1.564   0.258   0.638  0.1483 -0.8420 -1.3128
 1677TIP3    H226591   1.715   0.248   0.637  0.2190  0.0710 -0.8392
 1678TIP3   OH226592   0.134   3.876   7.237  0.0750  0.3949  0.0090
 1678TIP3    H126593   0.080   3.920   7.303  2.3944  3.0841  0.3385
 1678TIP3    H226594   0.126   3.931   7.159  2.3285  0.9879  0.1186
 1679TIP3   OH226595   1.407   6.600   0.989  0.5146 -0.5327 -0.2458
 1679TIP3    H126596   1.359   6.549   1.055  0.0478  1.3079  0.9067
 1679TIP3    H226597   1.481   6.638   1.036  0.1254  0.8917 -0.7300
 1680TIP3   OH226598   4.088   3.095   1.697 -0.2476  0.4707  0.5801
 1680TIP3    H126599   4.155   3.072   1.633  0.7454  1.4503  1.2387
 1680TIP3    H226600   4.012   3.041   1.672 -0.3418  1.7204 -2.1905
 1681TIP3   OH226601   1.475   2.507   7.688  0.1292  0.1993  0.2660
 1681TIP3    H126602   1.465   2.442   7.618  1.3445  0.1058  0.1549
 1681TIP3    H226603   1.415   2.477   7.757  0.2400 -0.7216 -0.0191
 1682TIP3   OH226604   6.798   5.133   2.036  0.3694 -0.3276  0.4608
 1682TIP3    H126605   6.776   5.060   2.093 -0.0129  0.5732  1.5132
 1682TIP3    H226606   6.775   5.211   2.087 -3.6104  0.6056 -2.1964
 1683TIP3   OH226607   4.106   3.836   1.795  0.2220 -0.0048  0.5332
 1683TIP3    H126608   4.058   3.897   1.851 -1.5088 -0.8254  0.0209
 1683TIP3    H226609   4.089   3.868   1.706 -1.1286 -1.4430  0.2243
 1684TIP3   OH226610   3.368   5.372   1.917  0.5578 -0.3604 -0.0897
 1684TIP3    H126611   3.395   5.283   1.942 -0.3995 -0.8713 -0.8419
 1684TIP3    H226612   3.310   5.359   1.842  1.1619  0.9702 -0.8112
 1685TIP3   OH226613   0.344   3.031   8.207 -0.3961 -0.0427  0.0449
 1685TIP3    H126614   0.305   2.943   8.208 -1.4004  0.3878  0.0204
 1685TIP3    H226615   0.379   3.040   8.118  0.1621 -0.5984  0.1980
 1686TIP3   OH226616   0.086   3.651   6.573 -0.0635  0.0095  0.1629
 1686TIP3    H126617   0.111   3.711   6.643 -0.2644  0.5092 -0.1864
 1686TIP3    H226618  -0.010   3.654   6.571 -0.0610 -0.0391 -0.0966
 1687TIP3   OH226619   3.801   5.128   8.333 -0.2707 -0.4313  0.3000
 1687TIP3    H126620   3.731   5.063   8.325  1.3786 -2.1805 -0.8937
 1687TIP3    H226621   3.861   5.090   8.396  0.7260 -0.1039 -0.4278
 1688TIP3   OH226622   3.186   0.928   0.222  0.1649 -0.1294  0.0768
 1688TIP3    H126623   3.227   0.990   0.162 -0.1761  0.1624  0.1429
 1688TIP3    H226624   3.251   0.914   0.291  1.1002 -1.4892 -1.0299
 1689TIP3   OH226625   1.056   0.489   1.469 -0.4495  0.1641  0.7832
 1689TIP3    H126626   1.143   0.482   1.509  0.1561 -1.6382 -0.6853
 1689TIP3    H226627   0.999   0.516   1.541  1.0499 -0.2059  2.1844
 1690TIP3   OH226628   4.106   0.878   1.412  0.4004 -0.0234 -0.1604
 1690TIP3    H126629   4.188   0.899   1.366  0.4356 -1.8084 -1.0030
 1690TIP3    H226630   4.128   0.802   1.466 -0.2473  0.6427  1.0946
 1691TIP3   OH226631   0.670   5.120   8.093  0.4294  0.0566 -0.0819
 1691TIP3    H126632   0.619   5.190   8.135 -0.2648 -0.3252 -0.2738
 1691TIP3    H226633   0.723   5.084   8.164 -0.9987 -0.8266  0.6095
 1692TIP3   OH226634   4.582   3.466   6.805  0.0741 -0.7151  0.0335
 1692TIP3    H126635   4.487   3.466   6.807  0.0900 -0.6973  1.2035
 1692TIP3    H226636   4.609   3.458   6.897  1.2008  0.0813 -0.2038
 1693TIP3   OH226637   1.674   5.048   7.501  0.5784  1.2193  0.4106
 1693TIP3    H126638   1.637   5.125   7.457  1.1214  0.9560 -0.5203
 1693TIP3    H226639   1.711   5.083   7.583 -2.0059  1.4377  1.5876
 1694TIP3   OH226640   6.447   5.128   2.178  0.1391  0.8728 -0.1353
 1694TIP3    H126641   6.460   5.169   2.263 -0.4870  0.6487  0.0791
 1694TIP3    H226642   6.365   5.078   2.188 -1.3764  2.8835 -1.6039
 1695TIP3   OH226643   1.824   5.520   0.034 -0.5216 -0.1133  0.8141
 1695TIP3    H126644   1.733   5.492   0.028 -0.4234 -0.2820 -0.1708
 1695TIP3    H226645   1.875   5.440   0.026 -0.2493 -0.5463  4.8762
 1696TIP3   OH226646   1.568   0.222   0.192 -0.4168 -0.4642  0.0383
 1696TIP3    H126647   1.620   0.259   0.120  0.0718  1.4196  1.2568
 1696TIP3    H226648   1.633   0.204   0.261 -1.1368  0.3814  0.9847
 1697TIP3   OH226649   0.863   2.207   0.731  0.5112  0.0796 -0.3039
 1697TIP3    H126650   0.779   2.247   0.756  0.0528 -0.9803 -0.0918
 1697TIP3    H226651   0.924   2.281   0.725 -0.8795  1.1493 -2.4619
 1698TIP3   OH226652   4.466   5.820   2.241 -0.4677  0.3795  0.1413
 1698TIP3    H126653   4.502   5.821   2.330  0.9462 -4.3705 -0.0583
 1698TIP3    H226654   4.371   5.813   2.253 -0.3397  0.3890  1.2499
 1699TIP3   OH226655   0.636   6.701   0.438  0.7053 -0.1983  0.1558
 1699TIP3    H126656   0.608   6.659   0.520  0.9987 -0.0827  0.3162
 1699TIP3    H226657   0.722   6.664   0.421  0.9853  0.3712  0.3192
 1700TIP3   OH226658   0.967   1.755   7.327 -0.0518  0.5168 -0.5523
 1700TIP3    H126659   0.904   1.745   7.398  0.9099 -0.6222  0.1763
 1700TIP3    H226660   1.047   1.714   7.360  0.7148  0.8587 -1.9149
 1701TIP3   OH226661   6.484   1.144   7.159 -0.4001 -0.5528  0.3013
 1701TIP3    H126662   6.484   1.052   7.132 -1.0649 -0.0008 -1.7789
 1701TIP3    H226663   6.561   1.182   7.116 -0.7119  0.0743  0.2878
 1702TIP3   OH226664   6.158   1.705   6.560 -0.3941 -0.4141  0.3595
 1702TIP3    H126665   6.130   1.691   6.650 -0.7433 -1.1211  0.1451
 1702TIP3    H226666   6.081   1.740   6.516 -0.2707 -0.2206  0.2978
 1703TIP3   OH226667   6.251   6.411   0.879 -0.6962 -0.0291 -0.2259
 1703TIP3    H126668   6.299   6.343   0.927  0.5802 -0.7425 -2.3815
 1703TIP3    H226669   6.310   6.436   0.809 -2.3486  1.2221 -1.2292
 1704TIP3   OH226670   0.088   5.550   0.045 -0.4282 -0.1736  0.5060
 1704TIP3    H126671   0.060   5.460   0.030  0.1524 -0.1456 -0.9156
 1704TIP3    H226672   0.132   5.548   0.130  0.7572 -1.5276 -0.1086
 1705TIP3   OH226673   0.032   3.712   2.552  1.0264 -0.0270 -0.3986
 1705TIP3    H126674   0.021   3.639   2.612  2.6888  0.7096  0.8763
 1705TIP3    H226675  -0.025   3.781   2.587  2.0223  0.4152  0.4318
 1706TIP3   OH226676   1.443   0.962   7.974  0.2874 -0.1157 -0.2612
 1706TIP3    H126677   1.537   0.978   7.987 -0.0523  1.0167  1.1776
 1706TIP3    H226678   1.433   0.954   7.880  1.9292 -0.9995 -0.4094
 1707TIP3   OH226679   1.061   6.646   0.672 -0.2984  0.3664 -0.3888
 1707TIP3    H126680   0.978   6.636   0.626 -0.2947  0.9456 -0.5315
 1707TIP3    H226681   1.037   6.682   0.757 -0.3709 -1.3759  0.3598
 1708TIP3   OH226682   5.827   4.081   1.256  0.0125 -0.2544  0.0627
 1708TIP3    H126683   5.829   3.994   1.217 -0.5270  0.2208 -1.1022
 1708TIP3    H226684   5.790   4.068   1.343 -0.5479 -1.1348 -0.2920
 1709TIP3   OH226685   5.657   4.683   1.736  0.3788  0.0677  0.4366
 1709TIP3    H126686   5.682   4.614   1.798 -1.5870 -1.1386 -0.0301
 1709TIP3    H226687   5.581   4.647   1.690 -0.5734  2.4935  0.0006
 1710TIP3   OH226688   1.540   6.113   1.639 -0.4415  0.0650 -0.1795
 1710TIP3    H126689   1.482   6.095   1.565 -2.0137 -0.2579  1.0586
 1710TIP3    H226690   1.627   6.122   1.601 -1.2205 -0.0026 -2.0549
 1711TIP3   OH226691   4.937   3.391   1.156  0.4001 -0.0982 -0.0380
 1711TIP3    H126692   4.916   3.435   1.238 -0.7090  1.1611 -0.9579
 1711TIP3    H226693   5.023   3.352   1.171  0.8528  1.3072  1.2602
 1712TIP3   OH226694   2.720   5.641   1.804 -0.3409 -0.4797  0.0589
 1712TIP3    H126695   2.785   5.709   1.788 -0.0853 -0.8685 -0.5796
 1712TIP3    H226696   2.664   5.677   1.872 -1.6620  1.4055 -1.8992
 1713TIP3   OH226697   3.521   6.621   0.259  0.3894 -0.2942 -0.6289
 1713TIP3    H126698   3.563   6.543   0.222  0.3556 -0.5772 -0.0683
 1713TIP3    H226699   3.441   6.632   0.207 -1.0324 -2.2254  0.9943
 1714TIP3   OH226700   1.263   4.264   0.552  0.4440  0.1290  0.3108
 1714TIP3    H126701   1.241   4.209   0.626  0.0401  0.7621  0.6739
 1714TIP3    H226702   1.259   4.354   0.586  1.0843  0.3843 -0.2631
 1715TIP3   OH226703   0.614   6.113   7.201 -0.0984 -0.4943  0.7542
 1715TIP3    H126704   0.540   6.128   7.261 -0.0167 -0.8195  0.9354
 1715TIP3    H226705   0.682   6.172   7.233 -1.0446  1.5741 -0.8095
 1716TIP3   OH226706   2.718   4.029   1.345 -0.8193 -0.2991 -0.4386
 1716TIP3    H126707   2.689   4.119   1.331  2.4112  0.8265 -0.7756
 1716TIP3    H226708   2.737   4.023   1.439  0.5655 -0.0258 -0.6747
 1717TIP3   OH226709   5.065   2.869   0.733  0.1613 -0.4094  0.3688
 1717TIP3    H126710   5.049   2.950   0.781 -0.0013  0.2822 -0.8357
 1717TIP3    H226711   5.003   2.806   0.771 -0.7219  0.4205  0.3221
 1718TIP3   OH226712   0.295   5.327   8.032 -0.1433  0.2552 -0.3666
 1718TIP3    H126713   0.286   5.407   7.979 -0.0674  0.6213  0.1662
 1718TIP3    H226714   0.388   5.323   8.054 -0.1257 -0.0476 -0.4863
 1719TIP3   OH226715   5.619   3.444   1.642  0.0769 -0.2638  0.0989
 1719TIP3    H126716   5.622   3.515   1.578  0.5643 -0.5612 -0.2219
 1719TIP3    H226717   5.581   3.370   1.595 -0.3067 -0.2543  0.3911
 1720TIP3   OH226718   5.816   5.779   0.261 -0.2769  0.3984 -0.4084
 1720TIP3    H126719   5.788   5.688   0.270 -1.6462  0.9708  1.7660
 1720TIP3    H226720   5.912   5.775   0.262 -0.2835 -1.0910 -1.7260
 1721TIP3   OH226721   5.882   3.559   8.005  0.2251  0.2396  0.4306
 1721TIP3    H126722   5.893   3.564   7.910 -1.8455 -0.1976  0.1166
 1721TIP3    H226723   5.971   3.555   8.040  1.0388  1.1204 -1.4361
 1722TIP3   OH226724   0.317   5.814   0.603 -0.4385 -0.2934  0.3146
 1722TIP3    H126725   0.365   5.834   0.683  0.9275  0.8508 -0.7341
 1722TIP3    H226726   0.338   5.723   0.584  0.8645  0.0045  0.2169
 1723TIP3   OH226727   4.397   2.378   7.542 -0.2697 -0.1449 -0.1795
 1723TIP3    H126728   4.336   2.372   7.615  0.7532 -0.9209  0.6379
 1723TIP3    H226729   4.441   2.293   7.540  0.0311  0.0143 -1.4306
 1724TIP3   OH226730   6.222   4.762   1.091 -0.3044 -0.3086  0.1394
 1724TIP3    H126731   6.158   4.816   1.044 -1.0063 -1.5843 -0.4154
 1724TIP3    H226732   6.169   4.697   1.138  0.5069 -0.3437  1.0355
 1725TIP3   OH226733   5.232   0.051   1.685 -0.2906  0.9090  0.3022
 1725TIP3    H126734   5.286   0.027   1.610 -0.8584  2.0095 -0.4855
 1725TIP3    H226735   5.263  -0.005   1.756  1.0110  0.6200 -0.4610
 1726TIP3   OH226736   3.531   5.323   1.526 -0.0878 -0.3176 -0.1066
 1726TIP3    H126737   3.440   5.313   1.499  0.3012 -0.3351 -1.4839
 1726TIP3    H226738   3.553   5.241   1.569 -0.9520  0.0040  0.9765
 1727TIP3   OH226739   0.407   4.899   2.562 -0.2366 -0.3852  0.2456
 1727TIP3    H126740   0.502   4.903   2.553 -0.1549 -1.5479  0.5503
 1727TIP3    H226741   0.379   4.991   2.554  1.0576  0.2055  1.9473
 1728TIP3   OH226742   2.224   4.658   8.576  0.2039 -0.0386 -0.4352
 1728TIP3    H126743   2.163   4.664   8.650  0.6915 -0.0272 -0.0339
 1728TIP3    H226744   2.263   4.745   8.569  2.3336 -0.7836  1.1678
 1729TIP3   OH226745   3.618   0.376   8.404  0.3017  0.5109  0.3571
 1729TIP3    H126746   3.555   0.359   8.335  0.9241  2.4080 -0.7669
 1729TIP3    H226747   3.567   0.371   8.485 -0.6533 -0.7408 -0.2909
 1730TIP3   OH226748   5.746   3.030   7.644  0.6041  0.3736  0.9225
 1730TIP3    H126749   5.800   2.988   7.577  0.2346 -0.8556  1.3676
 1730TIP3    H226750   5.809   3.071   7.703  1.0330 -0.5885  1.1419
 1731TIP3   OH226751   3.344   1.679   2.118 -0.1496 -0.5665 -0.1067
 1731TIP3    H126752   3.318   1.600   2.165 -1.4515 -0.5335 -0.7448
 1731TIP3    H226753   3.440   1.677   2.120 -0.0962 -0.0906  3.2793
 1732TIP3   OH226754   6.645   4.868   0.656  0.0664 -0.1193  0.8660
 1732TIP3    H126755   6.608   4.844   0.741 -0.9461 -0.5787  0.3171
 1732TIP3    H226756   6.621   4.795   0.598  1.0823 -0.0007  0.2740
 1733TIP3   OH226757   2.634   4.637   1.854 -0.2037  0.4838  0.0394
 1733TIP3    H126758   2.648   4.655   1.761 -0.0896  0.2298  0.0067
 1733TIP3    H226759   2.697   4.693   1.899 -0.3335  0.6887 -0.0302
 1734TIP3   OH226760   2.803   1.646   7.494  0.2740 -0.0098 -0.3463
 1734TIP3    H126761   2.773   1.702   7.565  1.7361  0.3455  0.0290
 1734TIP3    H226762   2.899   1.650   7.499  0.4049 -1.1278 -1.4332
 1735TIP3   OH226763   3.477   6.395   6.414  0.3937  0.4483 -0.7358
 1735TIP3    H126764   3.448   6.473   6.460 -1.4141  0.0323 -1.0930
 1735TIP3    H226765   3.538   6.352   6.474  0.0407  1.2163  0.1908
 1736TIP3   OH226766   5.290   5.107   0.423  0.6986  0.0487 -0.6457
 1736TIP3    H126767   5.276   5.117   0.517  0.9698 -1.0025 -0.4849
 1736TIP3    H226768   5.221   5.048   0.394 -0.2186  1.4284 -1.3740
 1737TIP3   OH226769   0.317   3.073   0.614 -0.4864 -0.0207  0.1469
 1737TIP3    H126770   0.279   3.095   0.529  0.7747 -0.7476 -0.6552
 1737TIP3    H226771   0.255   3.105   0.678 -1.5082  0.4873 -1.0615
 1738TIP3   OH226772   2.767   0.042   0.758  0.2932  0.2865  0.3102
 1738TIP3    H126773   2.802  -0.032   0.807 -1.5010 -0.4993  0.4717
 1738TIP3    H226774   2.814   0.118   0.792  2.3258 -0.7641  0.0017
 1739TIP3   OH226775   6.458   2.643   1.481 -0.0552  0.5684 -0.3943
 1739TIP3    H126776   6.541   2.685   1.460  0.8790 -1.1506 -0.3497
 1739TIP3    H226777   6.421   2.697   1.551  0.4497  2.0155 -1.2095
 1740TIP3   OH226778   2.378   5.101   7.886 -0.0967  0.0507  0.0153
 1740TIP3    H126779   2.431   5.165   7.935 -0.1566  0.3205 -0.2667
 1740TIP3    H226780   2.416   5.016   7.909  1.3574  0.3129 -1.2300
 1741TIP3   OH226781   0.215   1.889   7.964 -0.2951  0.3774  0.0335
 1741TIP3    H126782   0.258   1.917   8.045 -1.4483  0.7186  0.5437
 1741TIP3    H226783   0.139   1.839   7.993 -1.5568  1.7209 -0.7681
 1742TIP3   OH226784   4.706   6.406   7.060  0.0945  0.4075 -0.6162
 1742TIP3    H126785   4.693   6.463   7.135  0.1464 -1.2922  0.7466
 1742TIP3    H226786   4.795   6.426   7.030 -0.2415  1.7188 -0.8215
 1743TIP3   OH226787   5.362   6.619   0.402 -0.3012 -0.2647 -0.0207
 1743TIP3    H126788   5.280   6.632   0.450  0.2673  0.4187  0.7997
 1743TIP3    H226789   5.375   6.524   0.402  0.8093 -0.2060  3.1706
 1744TIP3   OH226790   2.873   6.124   7.838 -0.0577  0.1175  0.3495
 1744TIP3    H126791   2.962   6.132   7.871 -0.3831 -2.6965  2.3197
 1744TIP3    H226792   2.882   6.122   7.743  1.7196  1.6628  0.4196
 1745TIP3   OH226793   0.465   1.842   1.216  0.2419  0.1628  0.1032
 1745TIP3    H126794   0.400   1.888   1.270  1.2071  2.6203 -0.6944
 1745TIP3    H226795   0.534   1.819   1.278 -0.7295 -1.3000  0.7122
 1746TIP3   OH226796   0.335   4.272   7.624  0.1531  0.4674 -0.0763
 1746TIP3    H126797   0.243   4.273   7.599  0.3513  0.1708 -0.8560
 1746TIP3    H226798   0.336   4.301   7.715 -0.7246  0.2860 -0.0033
 1747TIP3   OH226799   5.921   0.562   0.711  0.3217 -0.4949 -0.0041
 1747TIP3    H126800   5.902   0.495   0.645 -2.6271 -1.5321  1.7086
 1747TIP3    H226801   5.923   0.644   0.662  0.7620 -1.4531 -1.6891
 1748TIP3   OH226802   1.138   0.184   1.187  0.1928 -0.1557 -0.0482
 1748TIP3    H126803   1.190   0.232   1.251  0.1301  2.6803 -1.9133
 1748TIP3    H226804   1.048   0.193   1.218  0.1974  0.8808 -0.2903
 1749TIP3   OH226805   0.745   6.365   1.869 -0.4308  0.1036  0.0412
 1749TIP3    H126806   0.735   6.328   1.956 -0.7738 -0.4041 -0.2086
 1749TIP3    H226807   0.726   6.458   1.879 -0.5949  0.0213  0.4830
 1750TIP3   OH226808   3.930   0.222   0.556  0.0933  0.9074  0.3419
 1750TIP3    H126809   4.021   0.236   0.530  0.6373 -3.0346 -0.4312
 1750TIP3    H226810   3.931   0.229   0.651  1.2375  0.7914  0.3523
 1751TIP3   OH226811   0.611   0.696   0.618 -0.1555  0.0795 -0.5437
 1751TIP3    H126812   0.538   0.757   0.608 -0.0676  0.3110  0.1187
 1751TIP3    H226813   0.616   0.681   0.713 -0.3227 -1.1432 -0.7045
 1752TIP3   OH226814   5.399   2.473   2.282  0.4966  0.1806 -0.5270
 1752TIP3    H126815   5.449   2.497   2.360  0.5144  0.6508 -0.6816
 1752TIP3    H226816   5.308   2.472   2.311  0.4846  0.5563 -0.5487
 1753TIP3   OH226817   2.804   3.540   7.011  0.0783 -0.2162  0.1094
 1753TIP3    H126818   2.716   3.509   6.991 -0.4008 -1.0644  3.0581
 1753TIP3    H226819   2.799   3.635   7.000 -0.7537 -0.3666 -1.0843
 1754TIP3   OH226820   1.898   4.933   0.292 -0.0456  0.3791  0.1115
 1754TIP3    H126821   1.989   4.922   0.263 -0.0352 -0.1674  0.3445
 1754TIP3    H226822   1.900   5.010   0.349  0.3448  0.1428  0.4230
 1755TIP3   OH226823   0.216   2.957   1.992  1.1606 -0.2946 -0.2293
 1755TIP3    H126824   0.140   2.910   1.958  0.8865  0.4692 -0.6921
 1755TIP3    H226825   0.270   2.889   2.032  0.1193 -0.8109  0.3345
 1756TIP3   OH226826   1.496   6.347   2.295  0.1748  0.4234 -0.3637
 1756TIP3    H126827   1.581   6.371   2.332  0.1271 -0.4933  0.3612
 1756TIP3    H226828   1.447   6.312   2.369  0.2426 -1.9312 -1.3362
 1757TIP3   OH226829   6.232   6.829   1.585 -0.3977 -0.0696  0.6414
 1757TIP3    H126830   6.285   6.873   1.652  0.1869 -0.4419  0.4287
 1757TIP3    H226831   6.269   6.741   1.579  0.5532  0.4059 -1.2361
 1758TIP3   OH226832   6.741   6.071   1.343  0.0055  0.3019  0.1564
 1758TIP3    H126833   6.711   6.141   1.401 -1.5765  0.5091 -0.8631
 1758TIP3    H226834   6.703   5.991   1.380 -0.1444  0.2925 -0.0203
 1759TIP3   OH226835   0.010   2.126   0.639  0.0015  0.0160 -0.3734
 1759TIP3    H126836   0.084   2.184   0.619  0.3068 -0.0245  0.5632
 1759TIP3    H226837   0.051   2.042   0.658 -0.1691  0.2637  1.2334
 1760TIP3   OH226838   3.293   4.165   7.426  0.5324  0.0692 -0.1183
 1760TIP3    H126839   3.262   4.100   7.489  0.9106 -0.3283 -0.3355
 1760TIP3    H226840   3.370   4.204   7.467  1.9984 -1.6021 -1.1434
 1761TIP3   OH226841   6.696   1.576   0.057  0.5885  0.2426  0.0738
 1761TIP3    H126842   6.643   1.496   0.056  0.0525  0.5976 -0.8267
 1761TIP3    H226843   6.784   1.546   0.077  0.2695 -0.4995  0.3953
 1762TIP3   OH226844   4.869   3.497   1.655 -0.0534  0.1341 -0.3586
 1762TIP3    H126845   4.797   3.561   1.649 -0.1803  0.0998  0.6252
 1762TIP3    H226846   4.834   3.427   1.711  0.2459 -0.5830 -1.0519
 1763TIP3   OH226847   2.187   5.710   1.173  0.3734 -0.5527  0.5468
 1763TIP3    H126848   2.158   5.625   1.139 -0.2220  0.4855 -1.7497
 1763TIP3    H226849   2.271   5.725   1.131  0.6872 -0.1891  1.2875
 1764TIP3   OH226850   6.690   1.402   8.454  0.2457 -0.1354 -0.6014
 1764TIP3    H126851   6.648   1.358   8.528  0.1090 -0.3512 -0.8098
 1764TIP3    H226852   6.707   1.333   8.391  1.2656 -0.1199 -0.3624
 1765TIP3   OH226853   1.940   2.949   8.528  0.1174  0.6801  0.2340
 1765TIP3    H126854   1.995   2.900   8.467  0.6157 -0.4852  1.5780
 1765TIP3    H226855   1.914   2.884   8.594 -2.2283  1.3733  0.0763
 1766TIP3   OH226856   5.022   6.182   2.623  0.2050  0.3314  0.7094
 1766TIP3    H126857   5.047   6.225   2.705  0.0523  0.7071  0.5572
 1766TIP3    H226858   5.053   6.092   2.634  3.1439  1.1163 -0.0962
 1767TIP3   OH226859   6.438   4.858   1.240  0.5809  0.0012 -0.1998
 1767TIP3    H126860   6.366   4.810   1.200  2.4118 -2.7548 -0.4550
 1767TIP3    H226861   6.485   4.792   1.292  3.8607  1.2165 -1.3693
 1768TIP3   OH226862   3.511   4.111   7.032  0.6855 -0.3814 -0.1014
 1768TIP3    H126863   3.537   4.194   6.992  0.3667 -0.6769 -0.9508
 1768TIP3    H226864   3.521   4.047   6.962 -2.1499 -0.5516 -0.4517
 1769TIP3   OH226865   0.077   3.683   1.916 -0.0994 -0.0173 -0.7635
 1769TIP3    H126866   0.143   3.716   1.855 -1.8102  2.8244 -1.2641
 1769TIP3    H226867   0.008   3.749   1.914 -1.9382 -1.7203  1.4538
 1770TIP3   OH226868   5.181   5.939   2.566 -0.5313  0.0882 -0.3574
 1770TIP3    H126869   5.221   5.932   2.652 -0.5203 -0.2999 -0.3937
 1770TIP3    H226870   5.253   5.928   2.505 -0.8079 -1.5825 -0.4389
 1771TIP3   OH226871   2.117   2.836   2.055  0.2579 -0.1974 -0.1453
 1771TIP3    H126872   2.075   2.757   2.091 -0.3310  0.0817 -0.2106
 1771TIP3    H226873   2.120   2.897   2.129 -0.9019  0.3564 -0.5320
 1772TIP3   OH226874   5.884   5.143   1.412 -0.0425  0.7479  0.3810
 1772TIP3    H126875   5.796   5.158   1.446  0.1458  0.4631  1.0063
 1772TIP3    H226876   5.894   5.048   1.410 -0.6012  0.6789 -1.9429
 1773TIP3   OH226877   4.442   5.852   0.672 -0.1689  0.9563  0.6455
 1773TIP3    H126878   4.398   5.770   0.697  0.9955 -0.2488 -0.9935
 1773TIP3    H226879   4.379   5.920   0.695 -1.0575 -0.3523  2.3578
 1774TIP3   OH226880   6.700   2.576   2.571 -0.1252  0.0844 -0.1480
 1774TIP3    H126881   6.742   2.650   2.527 -0.3386  0.6333  0.5438
 1774TIP3    H226882   6.713   2.502   2.512  0.3628  0.6076 -0.7106
 1775TIP3   OH226883   2.680   6.543   8.267  0.7160  0.1603 -0.3403
 1775TIP3    H126884   2.645   6.483   8.201  4.2253  0.1100 -2.3720
 1775TIP3    H226885   2.694   6.489   8.344  0.0486 -0.6653 -0.7836
 1776TIP3   OH226886   3.733   1.890   1.980  0.0693 -0.3535  0.5914
 1776TIP3    H126887   3.662   1.940   2.022 -1.2600 -1.1485 -0.6053
 1776TIP3    H226888   3.732   1.805   2.024  0.5986 -0.2091  0.8866
 1777TIP3   OH226889   5.134   4.220   1.455 -0.8530  0.7521  0.4644
 1777TIP3    H126890   5.110   4.186   1.369 -0.6879  0.1027  0.6693
 1777TIP3    H226891   5.228   4.201   1.463 -0.6019  1.8318  0.3290
 1778TIP3   OH226892   2.086   1.638   7.835 -0.0532  0.8643 -0.1350
 1778TIP3    H126893   2.014   1.577   7.850  0.5527  0.1381 -0.1330
 1778TIP3    H226894   2.072   1.670   7.746 -0.7807  1.2853  0.1236
 1779TIP3   OH226895   3.193   5.906   6.284  0.2690 -0.0077 -0.5215
 1779TIP3    H126896   3.287   5.923   6.282  0.0617  1.0852 -1.1789
 1779TIP3    H226897   3.180   5.859   6.367  1.1115  1.6153  0.5970
 1780TIP3   OH226898   1.592   1.933   0.107 -0.0165  0.2683 -0.3727
 1780TIP3    H126899   1.639   1.857   0.142 -0.0834 -1.1022 -3.0081
 1780TIP3    H226900   1.503   1.924   0.140  0.0763 -0.5990 -0.3407
 1781TIP3   OH226901   3.666   6.846   0.330 -0.3917 -0.0428  0.3737
 1781TIP3    H126902   3.748   6.827   0.375 -0.8512  1.6542  2.0434
 1781TIP3    H226903   3.627   6.760   0.314  0.8590 -0.7822  1.1771
 1782TIP3   OH226904   0.963   4.653   6.572 -0.1744  0.0828 -0.1016
 1782TIP3    H126905   0.944   4.705   6.494 -1.4880 -0.2710 -0.0444
 1782TIP3    H226906   0.877   4.619   6.599  0.6383 -2.3127 -0.3031
 1783TIP3   OH226907   6.656   5.629   7.594  0.0842  0.3185 -0.5526
 1783TIP3    H126908   6.721   5.695   7.573  0.1105  1.0646  1.5940
 1783TIP3    H226909   6.607   5.666   7.668 -0.3637 -1.7589  0.2618
 1784TIP3   OH226910   0.648   0.842   8.601  0.3528 -0.3974 -0.0427
 1784TIP3    H126911   0.681   0.858   8.513 -0.9374  0.0382 -0.4848
 1784TIP3    H226912   0.670   0.922   8.649  1.6579 -0.9101  0.2371
 1785TIP3   OH226913   2.594   1.042   8.270  0.0409  0.2816  0.0655
 1785TIP3    H126914   2.591   1.019   8.177 -0.1123  0.9061 -0.0840
 1785TIP3    H226915   2.664   0.987   8.306 -0.8101 -0.9953 -0.1231
 1786TIP3   OH226916   0.902   2.499   0.011 -0.7422 -0.3416  0.1475
 1786TIP3    H126917   0.823   2.551  -0.007  0.8338  1.4188 -2.3514
 1786TIP3    H226918   0.874   2.408  -0.001 -2.4176  0.2427 -0.7072
 1787TIP3   OH226919   4.897   1.975   1.799 -0.4408  0.7810 -0.2159
 1787TIP3    H126920   4.897   2.071   1.789 -0.9446  0.9029  0.7907
 1787TIP3    H226921   4.810   1.948   1.770 -0.0370  0.5350 -1.2143
 1788TIP3   OH226922   5.550   5.716   7.883 -0.2289 -0.2055 -0.1490
 1788TIP3    H126923   5.510   5.735   7.968  0.3022 -0.7502  0.2340
 1788TIP3    H226924   5.643   5.704   7.902 -0.4317 -2.7721 -0.3843
 1789TIP3   OH226925   0.904   3.159   0.110 -0.0166 -0.1601 -0.0022
 1789TIP3    H126926   0.992   3.140   0.142 -0.6962 -0.8527  1.5526
 1789TIP3    H226927   0.917   3.223   0.040  1.6383  0.7080  1.0351
 1790TIP3   OH226928   2.381   0.882   8.451  0.0916 -0.2020 -0.1742
 1790TIP3    H126929   2.419   0.964   8.483 -0.7869  0.5952 -1.1108
 1790TIP3    H226930   2.321   0.909   8.381  0.7152 -1.7563 -1.3589
 1791TIP3   OH226931   0.100   6.421   0.092 -0.2002  1.0392  0.4589
 1791TIP3    H126932   0.194   6.438   0.096  0.3442 -0.8552 -1.7247
 1791TIP3    H226933   0.061   6.506   0.068  0.9068  1.8458  1.4119
 1792TIP3   OH226934   4.948   4.658   0.688  0.1396 -0.0230  0.8690
 1792TIP3    H126935   5.012   4.654   0.759  2.5208 -3.5692 -1.1463
 1792TIP3    H226936   4.902   4.574   0.694 -0.6267  0.2443 -0.8930
 1793TIP3   OH226937   1.865   1.749   0.982 -0.5569 -0.1933  0.2175
 1793TIP3    H126938   1.866   1.656   0.960 -1.5571 -0.2043  0.1796
 1793TIP3    H226939   1.875   1.751   1.078 -0.9007 -0.3568  0.2567
 1794TIP3   OH226940   2.240   2.239   7.957 -0.3793 -0.3193 -0.2041
 1794TIP3    H126941   2.262   2.326   7.988 -0.7016 -0.2190 -0.2513
 1794TIP3    H226942   2.264   2.240   7.864  2.9096 -1.4019  0.5031
 1795TIP3   OH226943   6.774   6.701   0.500  0.2658 -0.4455  0.1820
 1795TIP3    H126944   6.689   6.704   0.545  1.6015  1.2671  2.8774
 1795TIP3    H226945   6.771   6.772   0.437 -0.6734 -1.0967 -0.5197
 1796TIP3   OH226946   4.131   2.240   0.017  0.1403  0.2405  0.2768
 1796TIP3    H126947   4.221   2.269   0.033 -1.0792  3.2113  2.5877
 1796TIP3    H226948   4.109   2.186   0.093 -0.7648  1.5479  0.9641
 1797TIP3   OH226949   0.285   6.358   0.372 -0.4837 -0.1436 -0.2805
 1797TIP3    H126950   0.242   6.443   0.386 -4.5882 -2.1808  1.1731
 1797TIP3    H226951   0.356   6.377   0.311 -0.3539  4.5032  0.9407
 1798TIP3   OH226952   1.267   1.709   0.450 -0.2977  0.1421 -0.5312
 1798TIP3    H126953   1.251   1.615   0.443 -0.6250 -0.0824  2.1996
 1798TIP3    H226954   1.362   1.717   0.445 -0.0861 -0.6393  1.2041
 1799TIP3   OH226955   4.164   6.007   8.572 -0.0155  0.1478  0.4081
 1799TIP3    H126956   4.071   6.012   8.547  0.0055  1.5947  0.4999
 1799TIP3    H226957   4.209   6.053   8.502  0.5466  0.1629  0.7762
 1800TIP3   OH226958   2.663   1.767   0.933  0.0247 -0.1303 -0.6704
 1800TIP3    H126959   2.708   1.848   0.957  0.2888 -0.6468  0.6236
 1800TIP3    H226960   2.615   1.790   0.853  0.7043  1.0809 -0.7650
 1801TIP3   OH226961   5.572   0.975   7.700  0.3621  0.1992  0.1069
 1801TIP3    H126962   5.592   1.037   7.630 -0.5390  1.1984  0.6910
 1801TIP3    H226963   5.590   0.889   7.663  0.6913  0.7575 -1.0673
 1802TIP3   OH226964   6.497   1.447   0.839  0.0556  0.6329 -0.2702
 1802TIP3    H126965   6.563   1.396   0.792 -0.2611  1.9304 -2.2502
 1802TIP3    H226966   6.434   1.471   0.771 -1.8247  0.4583  1.3427
 1803TIP3   OH226967   0.326   1.993   7.585  0.0416 -0.2067 -0.2393
 1803TIP3    H126968   0.369   2.002   7.671 -0.8385 -1.3875  0.3586
 1803TIP3    H226969   0.270   1.916   7.595 -1.6964  0.8821 -1.2112
 1804TIP3   OH226970   0.030   4.188   8.028 -1.1523 -0.0316  0.4682
 1804TIP3    H126971   0.060   4.199   8.118 -0.1128  1.6241 -0.0445
 1804TIP3    H226972   0.046   4.096   8.008 -0.6685 -0.2275  1.7151
 1805TIP3   OH226973   3.864   2.909   1.704  0.1152 -0.0215 -0.0354
 1805TIP3    H126974   3.827   2.843   1.646 -0.9490  1.7381 -1.4330
 1805TIP3    H226975   3.795   2.974   1.715  1.8377  2.0172 -0.5537
 1806TIP3   OH226976   2.170   0.945   7.054  0.3350 -0.0238  0.1540
 1806TIP3    H126977   2.178   0.989   6.969 -1.2671 -0.4729 -0.2691
 1806TIP3    H226978   2.119   0.866   7.035  0.4352 -0.4199  1.4460
 1807TIP3   OH226979   5.922   1.730   8.095  0.6294 -0.0933 -0.2964
 1807TIP3    H126980   5.932   1.793   8.165  0.2795  0.6172 -0.8720
 1807TIP3    H226981   5.864   1.662   8.131 -0.6322  0.9356 -0.3255
 1808TIP3   OH226982   3.059   4.169   0.351 -0.2139  0.2518 -0.0769
 1808TIP3    H126983   3.155   4.175   0.344  0.1537  0.3007  3.3532
 1808TIP3    H226984   3.027   4.240   0.296  1.5707 -0.7077 -2.5540
 1809TIP3   OH226985   6.792   6.717   2.101 -0.3210  0.0047 -0.0104
 1809TIP3    H126986   6.828   6.633   2.075 -1.2454 -0.4067  0.0011
 1809TIP3    H226987   6.716   6.729   2.045 -1.4431 -0.1820  1.4027
 1810TIP3   OH226988   6.451   3.114   0.339  0.2986  0.2146 -0.0775
 1810TIP3    H126989   6.427   3.076   0.254  1.3569 -0.8296  0.0671
 1810TIP3    H226990   6.435   3.044   0.402  1.0690  0.4333  0.3730
 1811TIP3   OH226991   4.260   6.538   8.229  0.3636  0.0718  0.2060
 1811TIP3    H126992   4.292   6.451   8.252 -1.0942 -0.9517 -1.3568
 1811TIP3    H226993   4.192   6.521   8.163  1.0326  2.4631 -1.2182
 1812TIP3   OH226994   4.874   3.501   0.118 -1.0434  0.5264 -0.4583
 1812TIP3    H126995   4.963   3.499   0.083 -1.4318 -1.3605 -1.4846
 1812TIP3    H226996   4.884   3.529   0.209  0.2748  3.0749 -1.2830
 1813TIP3   OH226997   6.237   3.020   6.942 -1.0190  0.2869  0.0267
 1813TIP3    H126998   6.150   3.020   6.902 -1.0184 -1.6124 -0.0492
 1813TIP3    H226999   6.259   2.927   6.953 -0.1147  0.7121  2.4986
 1814TIP3   OH227000   3.614   4.740   2.027 -0.4069  0.3938 -0.3862
 1814TIP3    H127001   3.583   4.788   2.104 -0.0804  0.5000 -0.3145
 1814TIP3    H227002   3.681   4.681   2.062  2.2701  2.8331 -0.9932
 1815TIP3   OH227003   1.162   6.782   0.961 -0.0937 -0.3048 -0.0075
 1815TIP3    H127004   1.105   6.704   0.962 -1.4643  0.6670  0.1201
 1815TIP3    H227005   1.243   6.751   0.921 -0.7089 -1.7444 -0.2183
 1816TIP3   OH227006   6.778   2.110   6.542 -0.3722  0.6677  0.1649
 1816TIP3    H127007   6.865   2.086   6.510  0.0763  1.1728  0.9899
 1816TIP3    H227008   6.759   2.194   6.500 -0.3061  0.7364  0.2727
 1817TIP3   OH227009   3.299   0.514   1.393  0.2163  0.4092 -0.0627
 1817TIP3    H127010   3.351   0.573   1.339 -0.4060 -0.1680 -1.3515
 1817TIP3    H227011   3.313   0.544   1.483 -1.3170  3.5240 -0.7418
 1818TIP3   OH227012   0.901   6.012   7.586  0.1358 -0.0849  0.1401
 1818TIP3    H127013   0.824   6.045   7.539 -0.3202  0.1587  1.0442
 1818TIP3    H227014   0.953   6.090   7.605  2.4841 -0.5120 -3.5840
 1819TIP3   OH227015   1.447   1.780   7.120 -0.2479 -0.3326 -0.0540
 1819TIP3    H127016   1.389   1.785   7.044  0.1688  0.1127 -0.3478
 1819TIP3    H227017   1.497   1.861   7.117 -1.2489  0.3993  1.5402
 1820TIP3   OH227018   1.682   4.821   1.166 -0.2861 -0.2049  0.3366
 1820TIP3    H127019   1.590   4.794   1.169 -0.2767 -0.2056  2.0676
 1820TIP3    H227020   1.717   4.792   1.251  1.2305  0.0670 -0.1769
 1821TIP3   OH227021   4.177   3.988   0.995 -0.4686  0.0936  0.1624
 1821TIP3    H127022   4.144   4.038   1.070 -0.8254 -1.1441  0.8657
 1821TIP3    H227023   4.260   3.952   1.024 -0.8343 -0.7890  0.1612
 1822TIP3   OH227024   4.853   5.843   2.729 -0.1184 -0.1682 -1.1251
 1822TIP3    H127025   4.871   5.919   2.784  0.5532 -1.2499  0.2115
 1822TIP3    H227026   4.805   5.783   2.786 -1.9644 -0.1774 -2.5970
 1823TIP3   OH227027   3.943   4.560   7.874  0.4277 -0.2916  0.0552
 1823TIP3    H127028   3.872   4.532   7.932 -0.2423 -0.0342 -0.6058
 1823TIP3    H227029   3.900   4.622   7.814  0.9705 -0.9329 -1.0251
 1824TIP3   OH227030   5.654   0.049   0.203 -0.2167  0.2918  0.4245
 1824TIP3    H127031   5.684  -0.041   0.193 -0.7176  0.0884  0.7100
 1824TIP3    H227032   5.589   0.045   0.273 -1.1653  0.6490 -0.4022
 1825TIP3   OH227033   5.330   3.255   8.522  0.1103  0.1118  0.2284
 1825TIP3    H127034   5.414   3.211   8.532 -0.4509 -0.5162  3.3196
 1825TIP3    H227035   5.280   3.228   8.599 -3.0103  0.3483 -1.5519
 1826TIP3   OH227036   0.868   4.948   6.972 -0.4949 -0.0616  0.4099
 1826TIP3    H127037   0.855   4.969   6.879 -0.0123 -0.1609  0.3202
 1826TIP3    H227038   0.890   5.031   7.013  0.5383 -0.2249  0.2101
 1827TIP3   OH227039   5.775   4.851   0.211  0.3384  0.1198  0.1588
 1827TIP3    H127040   5.848   4.909   0.191  0.6479  0.6905  2.6377
 1827TIP3    H227041   5.718   4.902   0.268  0.0203 -1.6008  1.4723
 1828TIP3   OH227042   1.734   4.066   7.278 -0.0639 -0.0966  0.1983
 1828TIP3    H127043   1.714   4.150   7.235 -1.3483 -1.3594 -1.8612
 1828TIP3    H227044   1.672   4.060   7.350  1.2766  1.5018  1.5681
 1829TIP3   OH227045   6.177   3.707   1.994 -1.0806  0.4573 -0.0175
 1829TIP3    H127046   6.131   3.625   2.009 -1.8567  1.0263  0.8288
 1829TIP3    H227047   6.182   3.748   2.080  0.8054  0.5435 -0.1310
 1830TIP3   OH227048   1.737   6.403   2.419  0.1262 -0.3486 -0.0154
 1830TIP3    H127049   1.797   6.474   2.442 -1.2425  0.7421  0.4043
 1830TIP3    H227050   1.746   6.340   2.491  1.8553 -0.9711 -0.7355
 1831TIP3   OH227051   2.916   1.505   8.304 -0.1836  0.8640  0.1585
 1831TIP3    H127052   2.859   1.439   8.265 -0.3838  1.1786 -0.0875
 1831TIP3    H227053   3.001   1.490   8.263  0.2737 -0.4762  1.5099
 1832TIP3   OH227054   3.440   4.411   8.130 -0.8331  0.2284 -0.2072
 1832TIP3    H127055   3.421   4.458   8.211  0.7506  1.7866 -0.6819
 1832TIP3    H227056   3.357   4.371   8.105 -2.2044  2.5492  0.3794
 1833TIP3   OH227057   5.960   4.964   7.228  0.1385  0.0740  0.7200
 1833TIP3    H127058   5.976   5.058   7.215 -1.3246  0.1922 -0.5572
 1833TIP3    H227059   5.865   4.958   7.239  0.2887 -1.2059  1.4520
 1834TIP3   OH227060   6.835   0.071   8.060 -0.1286  0.9676  0.2648
 1834TIP3    H127061   6.896   0.139   8.089 -0.2004  1.1115  0.0888
 1834TIP3    H227062   6.770   0.065   8.129 -0.3036  1.3124  0.1343
 1835TIP3   OH227063   4.725   5.849   7.504 -0.0662 -0.1711  0.3012
 1835TIP3    H127064   4.816   5.831   7.480  0.2192  0.8960  0.5608
 1835TIP3    H227065   4.728   5.931   7.553 -0.8710 -1.2777  2.3435
 1836TIP3   OH227066   4.425   4.855   7.206 -0.4539  0.2721 -0.1735
 1836TIP3    H127067   4.358   4.804   7.251 -2.5672  1.6081 -1.5847
 1836TIP3    H227068   4.503   4.800   7.208 -1.6146 -1.4442  1.3998
 1837TIP3   OH227069   5.934   1.719   0.915 -0.3716  0.4066  0.3717
 1837TIP3    H127070   5.933   1.795   0.857 -0.6809 -0.4175 -0.7462
 1837TIP3    H227071   5.939   1.644   0.856  0.5350 -0.4285  1.4721
 1838TIP3   OH227072   1.177   2.923   1.110 -0.0098 -0.2449  0.2205
 1838TIP3    H127073   1.153   2.853   1.171 -2.0613 -2.4062 -2.8014
 1838TIP3    H227074   1.139   3.002   1.148  1.6553 -0.7497  3.3229
 1839TIP3   OH227075   1.436   1.078   1.544  0.2768  0.0022  0.0593
 1839TIP3    H127076   1.486   1.153   1.575  0.1994  0.3776 -0.6999
 1839TIP3    H227077   1.447   1.079   1.449 -1.0631  0.0224 -0.1193
 1840TIP3   OH227078   3.216   1.249   7.195 -0.1587 -0.0414  0.1922
 1840TIP3    H127079   3.266   1.294   7.127  0.8574 -0.6781  0.4997
 1840TIP3    H227080   3.222   1.156   7.173 -2.0243 -0.1041 -0.2941
 1841TIP3   OH227081   0.998   5.488   6.412 -0.1881 -0.0265  0.1357
 1841TIP3    H127082   1.011   5.543   6.335 -0.4703  1.6098  1.2074
 1841TIP3    H227083   0.932   5.424   6.385 -0.6932  0.8629 -0.8054
 1842TIP3   OH227084   0.320   5.582   1.503 -0.1325 -0.0220  0.2035
 1842TIP3    H127085   0.244   5.542   1.460 -0.3248  1.0482 -0.4831
 1842TIP3    H227086   0.343   5.521   1.573 -0.7672 -1.0376 -0.4591
 1843TIP3   OH227087   1.284   2.097   7.808 -0.2463 -0.2797  0.0650
 1843TIP3    H127088   1.297   2.105   7.714  0.9548 -0.5561  0.1994
 1843TIP3    H227089   1.191   2.116   7.821 -0.4893 -0.5499 -1.2056
 1844TIP3   OH227090   0.762   2.781   0.318  0.0607 -0.3792  0.5459
 1844TIP3    H127091   0.855   2.763   0.304  0.0416 -1.9732  2.1005
 1844TIP3    H227092   0.758   2.820   0.405 -0.8278 -1.7982  1.1760
 1845TIP3   OH227093   3.666   3.539   6.958  0.5075  0.2896  0.0680
 1845TIP3    H127094   3.591   3.534   7.018 -0.3110  1.3657 -0.8346
 1845TIP3    H227095   3.722   3.607   6.995  0.5219  0.2215  0.1722
 1846TIP3   OH227096   0.580   5.145   1.217  0.1507  0.0000 -0.5186
 1846TIP3    H127097   0.640   5.208   1.256 -0.7066  1.6414 -1.7623
 1846TIP3    H227098   0.504   5.197   1.191 -1.7973 -1.9695  0.8870
 1847TIP3   OH227099   2.268   4.098   7.725  0.1989  0.2522  0.4272
 1847TIP3    H127100   2.334   4.030   7.732  0.2510  0.2392 -0.1315
 1847TIP3    H227101   2.206   4.080   7.796  0.1037 -0.5008  0.1544
 1848TIP3   OH227102   3.028   1.471   8.612 -0.2696  0.0207  0.1069
 1848TIP3    H127103   2.940   1.440   8.590 -0.3013  0.7298 -0.8124
 1848TIP3    H227104   3.022   1.566   8.607  0.7653  0.0639 -0.9057
 1849TIP3   OH227105   0.937   2.860   8.604 -0.4374 -0.3014  0.4501
 1849TIP3    H127106   0.911   2.913   8.528  1.4725 -1.5706 -1.2117
 1849TIP3    H227107   0.863   2.803   8.620 -0.2333 -1.2877 -1.7336
 1850TIP3   OH227108   1.146   3.618   7.709  0.0111  0.1423  0.3919
 1850TIP3    H127109   1.175   3.615   7.800 -1.2521 -1.8156  0.7902
 1850TIP3    H227110   1.065   3.566   7.707 -0.7276  1.2359 -1.6018
 1851TIP3   OH227111   0.056   4.243   8.318  0.5306 -0.4626 -0.1938
 1851TIP3    H127112   0.058   4.180   8.390  0.2692  0.2219  0.4227
 1851TIP3    H227113   0.058   4.328   8.361  0.7986 -0.0462 -1.0174
 1852TIP3   OH227114   3.512   4.507   8.655 -0.3193  0.2626 -0.0486
 1852TIP3    H127115   3.569   4.542   8.723 -0.0870 -0.3823  0.1010
 1852TIP3    H227116   3.552   4.536   8.573  0.3344 -0.3225  0.0494
 1853TIP3   OH227117   1.732   4.423   8.633  0.1922  0.3003  0.4750
 1853TIP3    H127118   1.689   4.483   8.693 -0.1072  1.0315 -0.4435
 1853TIP3    H227119   1.740   4.341   8.682  0.5414  1.0540  1.7177
 1854TIP3   OH227120   6.735   2.138   1.046 -0.1341  0.0990  0.0850
 1854TIP3    H127121   6.738   2.196   0.970 -0.7359 -0.8601 -0.6884
 1854TIP3    H227122   6.817   2.089   1.043  0.4463  0.9840  0.8277
 1855TIP3   OH227123   3.962   3.125   7.698  0.1570  0.2397 -0.1763
 1855TIP3    H127124   4.013   3.093   7.624 -0.1927  1.0737 -0.7845
 1855TIP3    H227125   3.897   3.057   7.714  0.7211 -0.2981 -0.1317
 1856TIP3   OH227126   3.353   4.114   7.912  0.0224  0.3076  0.2564
 1856TIP3    H127127   3.308   4.152   7.988 -0.1011  0.5564  0.0615
 1856TIP3    H227128   3.289   4.120   7.841  0.0654 -0.1095  0.1806
 1857TIP3   OH227129   4.240   6.451   7.396 -0.2056 -0.0445 -0.1395
 1857TIP3    H127130   4.308   6.406   7.444  0.0906 -0.5476 -1.0099
 1857TIP3    H227131   4.161   6.438   7.448  0.6415  2.0386  1.8091
 1858TIP3   OH227132   4.562   0.119   8.514  0.1410  0.2368 -0.3034
 1858TIP3    H127133   4.467   0.109   8.519  0.1381  0.8635  2.1095
 1858TIP3    H227134   4.575   0.213   8.502  0.4467  0.1646 -0.5204
 1859TIP3   OH227135   6.248   4.926   6.549  0.1859  0.5349 -0.5709
 1859TIP3    H127136   6.269   4.999   6.490 -0.3432  0.1105 -1.3072
 1859TIP3    H227137   6.162   4.949   6.585  0.4736  0.7552 -0.0181
 1860TIP3   OH227138   0.756   3.105   8.094 -0.1414 -0.3329 -0.1506
 1860TIP3    H127139   0.723   3.118   8.183  0.6544  0.9138 -0.0130
 1860TIP3    H227140   0.677   3.092   8.042 -0.6277 -0.9430  0.7036
 1861TIP3   OH227141   0.919   4.698   0.966 -0.1251 -0.0591 -0.4176
 1861TIP3    H127142   0.972   4.621   0.984 -0.5214  0.0374  1.2869
 1861TIP3    H227143   0.876   4.678   0.883  0.5438 -1.2321 -0.5066
 1862TIP3   OH227144   3.470   4.633   0.519 -0.2461  0.5682  0.6297
 1862TIP3    H127145   3.501   4.699   0.459 -0.2434  0.9871  1.0840
 1862TIP3    H227146   3.523   4.645   0.598  2.1248 -2.1339 -0.3714
 1863TIP3   OH227147   2.738   1.613   7.914 -0.2660 -0.2308  0.1867
 1863TIP3    H127148   2.823   1.571   7.923  0.3365  1.3369  3.0784
 1863TIP3    H227149   2.752   1.684   7.851  0.7728  0.3771  1.0700
 1864TIP3   OH227150   1.660   2.216   0.781  0.3197 -0.0796  0.0528
 1864TIP3    H127151   1.603   2.282   0.822  1.2498  1.1902 -0.6429
 1864TIP3    H227152   1.642   2.136   0.830 -0.2004  0.8911  1.5194
 1865TIP3   OH227153   6.682   1.353   0.563  0.4871 -0.5561  0.1078
 1865TIP3    H127154   6.671   1.440   0.526  1.2395 -0.6291 -0.3208
 1865TIP3    H227155   6.620   1.298   0.516 -1.4134  0.1001  1.7399
 1866TIP3   OH227156   2.847   5.389   1.946  0.1198  0.0139 -0.2428
 1866TIP3    H127157   2.873   5.308   1.901 -1.2971 -2.2023  2.5440
 1866TIP3    H227158   2.762   5.368   1.986  0.3554  2.3779  1.7952
 1867TIP3   OH227159   3.469   0.440   7.900 -0.1224  0.1578  0.5414
 1867TIP3    H127160   3.499   0.451   7.810 -0.2604  0.0863  0.4867
 1867TIP3    H227161   3.441   0.527   7.927  0.3794  0.2783  0.6811
 1868TIP3   OH227162   2.687   1.360   8.291 -0.4156 -0.0659  0.9055
 1868TIP3    H127163   2.609   1.416   8.289 -0.4663 -0.0855  1.9745
 1868TIP3    H227164   2.662   1.283   8.240 -0.6356  0.5041  0.1263
 1869TIP3   OH227165   0.092   4.476   1.460 -0.3403  0.1980  0.4480
 1869TIP3    H127166   0.068   4.546   1.522 -1.0441 -0.2424  0.6812
 1869TIP3    H227167   0.179   4.502   1.428 -0.6111  1.2177  0.4801
 1870TIP3   OH227168   1.404   4.881   8.603 -0.2979 -0.4297 -0.1878
 1870TIP3    H127169   1.399   4.797   8.648  1.5820 -0.1229  0.7306
 1870TIP3    H227170   1.467   4.867   8.532  2.2218  0.7919  1.6481
 1871TIP3   OH227171   4.105   0.428   7.558 -0.1187 -0.1254 -0.4551
 1871TIP3    H127172   4.097   0.337   7.529  1.2122 -1.1180  2.0120
 1871TIP3    H227173   4.162   0.424   7.635  0.6156  2.9124 -0.7073
 1872TIP3   OH227174   5.238   5.524   1.236 -0.2150  0.1946  0.0753
 1872TIP3    H127175   5.175   5.473   1.185  0.0811  0.4510 -0.5584
 1872TIP3    H227176   5.316   5.529   1.181  0.3787 -0.1420  0.8596
 1873TIP3   OH227177   0.310   4.368   8.218  0.7271  0.2288 -0.4569
 1873TIP3    H127178   0.222   4.335   8.239  0.3744  0.5020 -1.4446
 1873TIP3    H227179   0.352   4.380   8.304  0.7975 -2.4814 -0.0225
 1874TIP3   OH227180   1.678   0.475   2.075  0.4439 -0.0085 -0.2462
 1874TIP3    H127181   1.702   0.429   2.156  3.5521  0.5357 -0.7274
 1874TIP3    H227182   1.616   0.542   2.103  1.6435  0.3466  1.8144
 1875TIP3   OH227183   1.083   2.568   7.837  0.1145  0.1983  0.3302
 1875TIP3    H127184   1.092   2.508   7.763  0.4019  1.5298 -0.7621
 1875TIP3    H227185   0.992   2.597   7.832  0.7294  2.0541 -0.9610
 1876TIP3   OH227186   4.570   2.995   7.257  0.7673 -0.0662 -0.7747
 1876TIP3    H127187   4.505   3.018   7.191 -1.4366 -2.0819  0.5423
 1876TIP3    H227188   4.632   2.939   7.212 -0.6836 -1.3770 -1.2184
 1877TIP3   OH227189   5.681   5.233   8.449  0.0913 -0.3565  0.3114
 1877TIP3    H127190   5.719   5.311   8.488  2.1699 -1.8349  1.4652
 1877TIP3    H227191   5.653   5.180   8.524 -0.4445 -1.1159 -0.4022
 1878TIP3   OH227192   0.109   4.429   7.882  0.0346 -0.3477  0.3743
 1878TIP3    H127193   0.051   4.375   7.935  0.1760 -1.3809 -0.4909
 1878TIP3    H227194   0.080   4.413   7.792 -0.3692  1.5562  0.1317
 1879TIP3   OH227195   1.498   3.491   0.896 -0.6270  0.8057 -0.1775
 1879TIP3    H127196   1.457   3.405   0.896  0.3160  0.3419 -0.4121
 1879TIP3    H227197   1.463   3.535   0.974 -0.9238  0.1187  0.0818
 1880TIP3   OH227198   2.474   5.623   0.441  0.0834  0.0439  0.0525
 1880TIP3    H127199   2.429   5.668   0.369  0.9516 -0.8755 -1.0954
 1880TIP3    H227200   2.505   5.694   0.498  0.1384  0.8337 -0.9316
 1881TIP3   OH227201   6.710   1.675   8.460  0.3422  0.1803 -0.1219
 1881TIP3    H127202   6.714   1.583   8.435  1.8511 -0.0821  0.9341
 1881TIP3    H227203   6.715   1.674   8.556 -0.7251  1.3235 -0.0229
 1882TIP3   OH227204   0.676   4.807   7.242  0.3794 -1.0204 -0.3944
 1882TIP3    H127205   0.723   4.871   7.189 -0.9835  1.7963  1.5362
 1882TIP3    H227206   0.728   4.800   7.322 -0.6214 -0.5494  0.3179
 1883TIP3   OH227207   0.717   3.540   7.189 -0.0758  0.0038  0.1092
 1883TIP3    H127208   0.655   3.545   7.262 -0.9829  0.9490 -0.6822
 1883TIP3    H227209   0.726   3.631   7.160 -1.4452 -0.5452 -2.2901
 1884TIP3   OH227210   3.276   0.885   2.546  0.3679 -0.2436  0.0670
 1884TIP3    H127211   3.273   0.885   2.642 -0.0354 -0.1525  0.0541
 1884TIP3    H227212   3.342   0.818   2.524  0.0641 -0.6514  0.3935
 1885TIP3   OH227213   1.088   0.634   0.321  0.7469  0.4377  0.1934
 1885TIP3    H127214   1.167   0.581   0.329  0.4182  0.0641  1.0326
 1885TIP3    H227215   1.064   0.656   0.411  0.0176  0.7341 -0.0647
 1886TIP3   OH227216   2.121   1.406   1.309 -0.5292 -0.2599 -0.0982
 1886TIP3    H127217   2.163   1.439   1.388 -0.0165 -0.6399 -0.2002
 1886TIP3    H227218   2.053   1.346   1.340  1.2630 -2.3493  0.0792
 1887TIP3   OH227219   2.291   0.113   8.382 -0.6244  0.0026 -0.2087
 1887TIP3    H127220   2.299   0.068   8.466  0.1358 -2.5736 -1.5747
 1887TIP3    H227221   2.199   0.100   8.356 -0.0524 -2.3124 -1.3269
 1888TIP3   OH227222   5.853   0.435   6.875 -0.3959  0.1717 -0.6136
 1888TIP3    H127223   5.866   0.349   6.835 -1.3768 -0.0724 -0.4388
 1888TIP3    H227224   5.859   0.496   6.802  1.0706  0.0405 -0.6256
 1889TIP3   OH227225   2.729   3.805   6.995  0.2808  0.1417 -0.0234
 1889TIP3    H127226   2.731   3.859   7.074 -2.5173 -1.7239  1.4804
 1889TIP3    H227227   2.636   3.797   6.973  0.9181  0.5184 -3.5683
 1890TIP3   OH227228   2.574   0.292   2.212  0.0264 -0.5623 -0.1028
 1890TIP3    H127229   2.525   0.332   2.284  0.1476 -0.3497 -0.1360
 1890TIP3    H227230   2.540   0.203   2.205 -1.6540  0.1200 -1.2941
 1891TIP3   OH227231   5.029   2.234   1.790 -0.3109  0.0919 -0.2550
 1891TIP3    H127232   4.972   2.295   1.836 -1.9935 -1.8941  0.4780
 1891TIP3    H227233   5.094   2.208   1.854 -0.9743 -0.5578  0.1795
 1892TIP3   OH227234   2.855   1.916   2.503 -0.2542 -0.0337 -0.6520
 1892TIP3    H127235   2.811   1.999   2.482  1.1417  1.3703  1.6225
 1892TIP3    H227236   2.893   1.930   2.590  2.2071 -2.1673 -1.2629
 1893TIP3   OH227237   5.603   6.643   8.269  0.1685 -0.3728  0.0764
 1893TIP3    H127238   5.595   6.601   8.354 -1.0205 -0.8766 -0.2539
 1893TIP3    H227239   5.668   6.712   8.281 -0.5263  0.0561  1.5976
 1894TIP3   OH227240   4.283   1.052   7.438  0.0960  0.1978 -0.2455
 1894TIP3    H127241   4.218   1.109   7.479 -1.6032 -0.1146 -2.3236
 1894TIP3    H227242   4.359   1.109   7.425 -1.0531  1.6467 -1.0050
 1895TIP3   OH227243   4.627   0.464   7.325 -0.2107 -0.0213  0.9977
 1895TIP3    H127244   4.704   0.436   7.276  0.1728  2.9415 -0.3215
 1895TIP3    H227245   4.574   0.512   7.261  0.3423  4.1643  3.3433
 1896TIP3   OH227246   2.022   0.022   6.340  0.1990 -0.8395 -0.1165
 1896TIP3    H127247   2.025   0.108   6.381 -0.5139 -0.9342  0.1434
 1896TIP3    H227248   1.937   0.019   6.296 -0.4307 -1.9498  1.0962
 1897TIP3   OH227249   6.848   4.019   1.706  0.3883 -0.3086  0.3000
 1897TIP3    H127250   6.818   3.942   1.657 -0.6214  0.9931 -1.2152
 1897TIP3    H227251   6.849   4.090   1.641 -1.6668  1.6872  2.2868
 1898TIP3   OH227252   0.493   5.321   1.871  0.1883 -0.1000 -0.2731
 1898TIP3    H127253   0.478   5.390   1.935 -1.0828  1.1071 -1.7807
 1898TIP3    H227254   0.532   5.249   1.921 -2.1008  0.1906  2.1479
 1899TIP3   OH227255   5.849   3.325   3.092  0.6319  0.4505 -0.4610
 1899TIP3    H127256   5.891   3.258   3.038  1.4544 -0.6310  1.4409
 1899TIP3    H227257   5.766   3.343   3.047  1.1014 -0.6696 -1.8587
 1900TIP3   OH227258   1.193   3.130   7.956  0.1988  0.5642 -1.2728
 1900TIP3    H127259   1.120   3.185   7.983 -1.1520 -1.2260 -1.0879
 1900TIP3    H227260   1.271   3.176   7.987 -1.0023  1.0852  1.2113
 1901TIP3   OH227261   4.191   3.560   8.686  0.2148  0.5214  0.3050
 1901TIP3    H127262   4.147   3.535   8.767 -0.2851  2.5644  0.7250
 1901TIP3    H227263   4.127   3.616   8.641 -0.4455 -2.3027 -2.6421
 1902TIP3   OH227264   1.253   0.574   7.717 -0.0462 -0.2472  0.6393
 1902TIP3    H127265   1.179   0.606   7.769 -0.5718  0.1051 -0.2985
 1902TIP3    H227266   1.330   0.613   7.758 -0.6734  2.6893 -0.7185
 1903TIP3   OH227267   2.958   5.213   1.386 -0.7771  0.0399  0.7862
 1903TIP3    H127268   3.047   5.179   1.386 -0.5108  0.7136  0.7177
 1903TIP3    H227269   2.958   5.278   1.456 -0.3223  2.2733 -1.1598
 1904TIP3   OH227270   4.775   0.885   1.331  0.2788  0.0852 -0.2285
 1904TIP3    H127271   4.831   0.867   1.256  0.1362 -1.7647  0.0798
 1904TIP3    H227272   4.686   0.878   1.298  0.1489  2.3830 -0.5634
 1905TIP3   OH227273   1.543   1.391   7.406 -0.3142  0.2916  0.3705
 1905TIP3    H127274   1.501   1.338   7.474 -1.0375  1.3271  0.7581
 1905TIP3    H227275   1.478   1.458   7.385  1.5066  2.6306  1.7797
 1906TIP3   OH227276   3.871   2.692   0.750 -0.2638  0.3856 -0.3000
 1906TIP3    H127277   3.785   2.729   0.768 -0.7566 -0.4707 -0.8423
 1906TIP3    H227278   3.904   2.745   0.677 -0.1334  0.9930  0.1885
 1907TIP3   OH227279   3.269   3.104   0.474 -0.4281  0.3733  0.6037
 1907TIP3    H127280   3.186   3.150   0.486  0.1728  1.6761  0.0673
 1907TIP3    H227281   3.310   3.149   0.400  0.8545 -0.0839  1.0097
 1908TIP3   OH227282   1.597   2.269   8.602 -0.1956  0.4201  0.3232
 1908TIP3    H127283   1.614   2.278   8.696  2.0347  0.5975 -0.0353
 1908TIP3    H227284   1.540   2.343   8.580 -0.8341  0.3125  1.5334
 1909TIP3   OH227285   3.069   5.723   1.379 -0.1257  0.2821  0.0288
 1909TIP3    H127286   3.143   5.764   1.334 -0.6727  0.1038 -1.0709
 1909TIP3    H227287   3.003   5.711   1.310  0.5039 -3.7272 -0.1002
 1910TIP3   OH227288   3.958   6.515   0.423  0.0623 -0.4290 -0.0141
 1910TIP3    H127289   3.999   6.430   0.440 -1.1696 -0.8087  1.2401
 1910TIP3    H227290   3.989   6.540   0.336  0.6118 -2.0632 -0.3104
 1911TIP3   OH227291   3.858   4.750   7.343  0.1227 -0.4890  0.6950
 1911TIP3    H127292   3.889   4.833   7.380 -0.5408  0.0327  0.1225
 1911TIP3    H227293   3.769   4.769   7.314 -0.0696 -1.4332  0.6253
 1912TIP3   OH227294   1.510   3.658   7.441 -0.5565  0.1962 -0.5473
 1912TIP3    H127295   1.489   3.727   7.378  0.0390 -0.2144 -1.2098
 1912TIP3    H227296   1.480   3.692   7.525  1.4766  2.1542 -0.5062
 1913TIP3   OH227297   6.029   1.402   2.207  0.4742 -0.5584 -0.0372
 1913TIP3    H127298   5.966   1.441   2.268  2.0616  1.7088  0.2645
 1913TIP3    H227299   6.069   1.330   2.255  0.4184  0.0551  0.9450
 1914TIP3   OH227300   3.778   0.441   2.711  0.0735 -0.1671 -0.0498
 1914TIP3    H127301   3.767   0.495   2.789 -1.1128 -1.8954  1.0517
 1914TIP3    H227302   3.700   0.460   2.658  1.4800  1.9518 -1.4997
 1915TIP3   OH227303   4.443   1.426   7.780 -0.1696  0.2207 -0.1052
 1915TIP3    H127304   4.359   1.419   7.734 -0.2749  1.0150 -0.0442
 1915TIP3    H227305   4.504   1.457   7.713  0.3611 -1.4803 -0.4554
 1916TIP3   OH227306   4.625   4.941   6.950 -0.1273 -0.5336 -0.3495
 1916TIP3    H127307   4.718   4.928   6.929  0.1281 -0.3586  0.6584
 1916TIP3    H227308   4.582   4.862   6.917  0.2579 -0.2959 -1.4852
 1917TIP3   OH227309   0.072   4.518   0.568  0.5838 -0.2823  0.0110
 1917TIP3    H127310  -0.007   4.565   0.596  1.9116  1.7494  0.5504
 1917TIP3    H227311   0.069   4.435   0.616 -0.8394  0.0581  0.5780
 1918TIP3   OH227312   6.816   5.820   7.458 -0.2848  0.1293  0.5492
 1918TIP3    H127313   6.744   5.881   7.443  0.2385  0.6015 -0.1438
 1918TIP3    H227314   6.850   5.844   7.544  0.4575  1.4157 -0.0698
 1919TIP3   OH227315   0.709   1.683   0.126  0.0317 -0.1955  0.0489
 1919TIP3    H127316   0.671   1.765   0.094 -0.2652 -0.6799 -0.8996
 1919TIP3    H227317   0.640   1.618   0.114  0.0213 -0.4714  1.4398
 1920TIP3   OH227318   5.316   4.758   0.244  0.1153 -0.4445  0.0546
 1920TIP3    H127319   5.341   4.666   0.230  0.1498 -0.5288  0.6572
 1920TIP3    H227320   5.230   4.753   0.286  1.0796 -0.2780  2.1860
 1921TIP3   OH227321   1.985   5.199   7.224 -0.2688 -0.5732  0.6423
 1921TIP3    H127322   2.048   5.130   7.245 -2.0506 -2.6787 -0.5285
 1921TIP3    H227323   1.964   5.185   7.132 -2.2750  0.1666  0.9366
 1922TIP3   OH227324   0.853   2.596   1.332 -0.5706 -0.0247 -0.3258
 1922TIP3    H127325   0.839   2.502   1.344  1.3457 -0.4165 -0.7433
 1922TIP3    H227326   0.850   2.608   1.237 -1.5571  0.5007 -0.2440
 1923TIP3   OH227327   4.548   0.860   8.515 -0.0807 -0.1485  0.1973
 1923TIP3    H127328   4.458   0.878   8.491  0.2690  2.4101  0.4691
 1923TIP3    H227329   4.599   0.930   8.474  1.5527 -0.5157  1.4528
 1924TIP3   OH227330   4.117   0.880   0.326 -0.0290 -0.3685 -0.2683
 1924TIP3    H127331   4.098   0.898   0.234 -0.7743 -1.0039 -0.2427
 1924TIP3    H227332   4.034   0.896   0.371  0.6764  1.3387  0.5111
 1925TIP3   OH227333   5.632   1.360   7.366 -0.5046 -0.4313 -0.2547
 1925TIP3    H127334   5.637   1.308   7.286 -1.2869  0.6281 -1.0140
 1925TIP3    H227335   5.640   1.451   7.336  0.8839 -0.0767  1.0446
 1926TIP3   OH227336   4.242   1.833   0.970  0.3894 -0.2631 -0.0088
 1926TIP3    H127337   4.226   1.884   1.049 -0.3195 -0.4449 -0.0234
 1926TIP3    H227338   4.335   1.845   0.951  0.0902  1.6924 -0.4833
 1927TIP3   OH227339   6.304   3.498   8.637  0.1094 -0.0698 -0.8515
 1927TIP3    H127340   6.368   3.478   8.706 -0.9044 -0.3097  0.0566
 1927TIP3    H227341   6.305   3.594   8.630  1.2119 -0.1124 -1.5021
 1928TIP3   OH227342   1.910   0.389   6.967 -0.2903 -0.0927 -0.1763
 1928TIP3    H127343   1.868   0.357   7.047 -0.0480 -1.8914 -0.7165
 1928TIP3    H227344   1.876   0.332   6.898  0.7629  0.3574 -1.1027
 1929TIP3   OH227345   2.415   0.121   0.221  0.0134 -0.1476 -0.2027
 1929TIP3    H127346   2.453   0.206   0.198  0.5881 -0.0836  0.8854
 1929TIP3    H227347   2.369   0.093   0.142 -0.5507  1.3689 -0.4450
 1930TIP3   OH227348   5.619   5.176   1.543 -0.2638  0.2183 -0.0893
 1930TIP3    H127349   5.538   5.125   1.541 -0.0285 -0.1475 -0.9171
 1930TIP3    H227350   5.591   5.266   1.529 -0.6974  0.3686  1.5082
 1931TIP3   OH227351   2.696   0.561   7.977 -0.6265  0.4633 -0.3831
 1931TIP3    H127352   2.765   0.502   8.005  0.6173  1.6052 -0.9466
 1931TIP3    H227353   2.615   0.511   7.989  0.2838 -0.9058  0.2601
 1932TIP3   OH227354   5.912   4.341   2.176  0.2350  0.0210  0.1787
 1932TIP3    H127355   5.950   4.364   2.261  0.6131 -1.1359  0.3384
 1932TIP3    H227356   5.847   4.274   2.196 -0.7470  0.8024 -0.2907
 1933TIP3   OH227357   2.696   1.930   8.373 -0.0529 -0.1399 -0.5206
 1933TIP3    H127358   2.781   1.962   8.343 -0.4066  0.8232 -0.5499
 1933TIP3    H227359   2.672   1.862   8.311  1.5922 -1.8509  0.6326
 1934TIP3   OH227360   2.385   0.463   0.805  0.7879  0.3061 -0.7486
 1934TIP3    H127361   2.387   0.549   0.846  1.3475  0.6076 -1.3897
 1934TIP3    H227362   2.394   0.402   0.877 -2.5854  0.6232  0.1159
 1935TIP3   OH227363   4.753   3.491   0.968  0.2676  0.0913  0.0043
 1935TIP3    H127364   4.805   3.472   1.046 -1.0560  0.4671  1.0035
 1935TIP3    H227365   4.679   3.430   0.973 -0.4670  0.9341 -0.3100
 1936TIP3   OH227366   2.586   0.071   2.754 -0.3533 -0.1387 -0.6259
 1936TIP3    H127367   2.648   0.097   2.822  0.6652  1.7656 -2.1971
 1936TIP3    H227368   2.613  -0.018   2.730  0.9896  0.1812 -0.3850
 1937TIP3   OH227369   4.725   2.922   8.628  0.4335  0.2503 -0.0146
 1937TIP3    H127370   4.671   2.983   8.678 -0.4324 -1.4985  1.3153
 1937TIP3    H227371   4.662   2.858   8.594  1.3820 -0.3185 -0.7399
 1938TIP3   OH227372   3.245   0.952   7.340  0.1601 -0.6106 -0.0921
 1938TIP3    H127373   3.162   0.956   7.294  0.1605 -0.2926 -0.0698
 1938TIP3    H227374   3.289   0.875   7.304  1.8573  1.7241 -3.5378
 1939TIP3   OH227375   0.613   6.475   8.303 -0.0368 -0.4235  0.1794
 1939TIP3    H127376   0.560   6.554   8.297  0.3008 -0.2243 -0.2726
 1939TIP3    H227377   0.563   6.409   8.255  0.6207  0.0502 -1.2275
 1940TIP3   OH227378   2.280   2.422   1.609 -0.2075 -0.3058  0.3145
 1940TIP3    H127379   2.363   2.432   1.654 -0.1351  0.5774  0.0057
 1940TIP3    H227380   2.301   2.433   1.516 -1.0303  2.7264  0.3876
 1941TIP3   OH227381   3.898   5.462   8.548  0.4304 -0.3812  0.2785
 1941TIP3    H127382   3.881   5.371   8.522  1.0693 -0.5462  0.4318
 1941TIP3    H227383   3.993   5.471   8.545  0.3881  0.2097  0.5288
 1942TIP3   OH227384   2.409   5.516   0.040 -0.4140 -0.2720 -0.2569
 1942TIP3    H127385   2.479   5.455   0.061 -0.4345  0.3746  1.9199
 1942TIP3    H227386   2.452   5.601   0.033 -0.9063  0.0863  0.8121
 1943TIP3   OH227387   3.232   5.522   2.114  0.1592  0.0183 -0.4023
 1943TIP3    H127388   3.272   5.479   2.038  0.7035 -0.3056  0.0599
 1943TIP3    H227389   3.254   5.466   2.188  1.4496  1.3955  0.3165
 1944TIP3   OH227390   3.887   4.529   1.541 -0.1566 -0.0645  0.3615
 1944TIP3    H127391   3.799   4.506   1.570  0.0462 -1.3174  0.0383
 1944TIP3    H227392   3.922   4.449   1.502 -0.2464  1.3153 -2.9909
 1945TIP3   OH227393   6.121   2.240   0.951 -0.2220 -0.4296  0.2144
 1945TIP3    H127394   6.213   2.222   0.972  0.5957 -1.2490 -3.3714
 1945TIP3    H227395   6.117   2.336   0.946  0.5218 -0.3941  0.0674
 1946TIP3   OH227396   0.523   1.549   8.183  0.1327  0.1454  0.4867
 1946TIP3    H127397   0.587   1.527   8.116 -1.2241 -2.9830  0.0553
 1946TIP3    H227398   0.504   1.642   8.169  3.1664  0.6978 -0.5026
 1947TIP3   OH227399   1.852   5.667   0.293 -0.0032  0.1216  0.1554
 1947TIP3    H127400   1.758   5.681   0.303  0.2542  1.6644  0.6376
 1947TIP3    H227401   1.862   5.634   0.204 -0.9660  0.3579 -0.0530
 1948TIP3   OH227402   0.652   5.365   1.643  0.0494  0.4460  0.3951
 1948TIP3    H127403   0.619   5.385   1.731  0.9335  1.3551  0.5445
 1948TIP3    H227404   0.681   5.274   1.648  0.5353  0.6311  1.2006
 1949TIP3   OH227405   1.432   2.113   6.637 -0.3132  0.1542 -0.0739
 1949TIP3    H127406   1.504   2.173   6.620 -1.4491  1.5683 -0.0783
 1949TIP3    H227407   1.457   2.032   6.593  1.4468  0.4581  0.2755
 1950TIP3   OH227408   3.584   4.893   0.807  0.2586 -0.0787  0.5893
 1950TIP3    H127409   3.504   4.909   0.756  1.0132 -0.8331 -0.8790
 1950TIP3    H227410   3.597   4.974   0.857 -0.6311  0.5977 -0.2438
 1951TIP3   OH227411   3.195   6.400   8.125 -0.5572  0.0531  0.1466
 1951TIP3    H127412   3.104   6.403   8.098 -0.6280 -0.4727  0.3134
 1951TIP3    H227413   3.233   6.327   8.075 -0.2746  0.1543  0.2099
 1952TIP3   OH227414   6.563   4.362   1.086  0.1877 -0.0240 -0.3894
 1952TIP3    H127415   6.543   4.270   1.071 -1.6777  0.2250  0.3295
 1952TIP3    H227416   6.596   4.365   1.176  1.4444 -0.1190 -0.8202
 1953TIP3   OH227417   1.920   2.579   0.662  0.4357 -0.1022 -0.0452
 1953TIP3    H127418   2.013   2.580   0.641  0.4666 -1.3718 -0.0149
 1953TIP3    H227419   1.894   2.671   0.658  1.3559  0.1292 -1.4930
 1954TIP3   OH227420   2.688   0.694   8.598 -0.5768 -0.5061 -0.4423
 1954TIP3    H127421   2.670   0.724   8.687 -2.5054  2.3797 -1.6225
 1954TIP3    H227422   2.633   0.617   8.586  0.0384 -1.1850  0.9612
 1955TIP3   OH227423   3.546   5.239   2.493 -0.4277 -0.0377  0.2200
 1955TIP3    H127424   3.587   5.158   2.524  2.2987  0.0759 -2.5735
 1955TIP3    H227425   3.564   5.302   2.562  0.5258 -1.0153  0.9085
 1956TIP3   OH227426   3.695   6.464   0.062 -0.4390 -0.4873 -0.1074
 1956TIP3    H127427   3.752   6.537   0.037 -0.9693  0.4422  1.3226
 1956TIP3    H227428   3.735   6.427   0.140  0.0387 -2.0223 -1.0236
 1957TIP3   OH227429   5.484   5.876   8.480  0.3955 -0.4167 -0.4907
 1957TIP3    H127430   5.505   5.871   8.573  0.4408 -2.2522 -0.5549
 1957TIP3    H227431   5.453   5.788   8.458  0.3650 -0.0127 -2.2028
 1958TIP3   OH227432   2.660   2.729   7.652 -0.3204  0.0094  0.0855
 1958TIP3    H127433   2.754   2.714   7.657 -0.2807  0.5719  1.2662
 1958TIP3    H227434   2.621   2.645   7.675 -0.0863  0.6620  3.3732
 1959TIP3   OH227435   3.809   2.147   1.720 -0.0092 -0.4227 -0.3269
 1959TIP3    H127436   3.899   2.145   1.685 -0.3311  0.1042 -1.2252
 1959TIP3    H227437   3.801   2.233   1.759 -0.4652 -0.0446 -1.2250
 1960TIP3   OH227438   5.328   3.780   0.721  0.2822  0.1650 -0.0292
 1960TIP3    H127439   5.311   3.707   0.662 -1.7761  0.4114  0.1856
 1960TIP3    H227440   5.421   3.800   0.709  0.2050 -0.5764 -2.2819
 1961TIP3   OH227441   2.607   6.741   8.042 -0.0978  0.3922  0.4892
 1961TIP3    H127442   2.571   6.753   7.954  1.0521 -1.2610 -0.2821
 1961TIP3    H227443   2.551   6.674   8.082  0.1583  0.1751  0.4928
 1962TIP3   OH227444   0.308   4.898   1.525  0.3087 -0.5565  0.1579
 1962TIP3    H127445   0.368   4.895   1.600 -0.0355  0.5349  0.4860
 1962TIP3    H227446   0.251   4.822   1.537  0.9660 -1.0229  0.3941
 1963TIP3   OH227447   3.375   1.420   0.649  0.2246 -0.5535 -0.2145
 1963TIP3    H127448   3.320   1.498   0.653  1.8360  0.5928  0.9224
 1963TIP3    H227449   3.349   1.376   0.568 -2.0258  0.1400  0.0694
 1964TIP3   OH227450   4.953   3.939   1.470 -0.2880  0.0017 -0.7387
 1964TIP3    H127451   4.952   3.917   1.563  0.4392 -2.1955 -1.1969
 1964TIP3    H227452   4.862   3.958   1.448 -0.7606 -1.3329  0.0248
 1965TIP3   OH227453   5.520   3.227   6.592  0.0291  0.1804 -0.5420
 1965TIP3    H127454   5.496   3.264   6.507 -0.9692  1.1996  0.1456
 1965TIP3    H227455   5.569   3.297   6.636 -2.4018  1.0551  1.0168
 1966TIP3   OH227456   3.532   1.994   0.788 -0.6873 -0.1389  1.0027
 1966TIP3    H127457   3.487   2.078   0.795 -0.1587  0.2022  0.4216
 1966TIP3    H227458   3.625   2.015   0.794 -0.4661 -0.4736 -0.7134
 1967TIP3   OH227459   3.577   3.182   8.691 -0.2350 -0.3559  0.0231
 1967TIP3    H127460   3.535   3.096   8.683 -0.7050 -0.1799  0.5465
 1967TIP3    H227461   3.526   3.228   8.757 -0.7495  0.7924 -1.1265
 1968TIP3   OH227462   4.236   5.132   8.620 -0.7874 -0.4286 -0.4357
 1968TIP3    H127463   4.216   5.209   8.673 -1.3684 -0.2230 -0.9527
 1968TIP3    H227464   4.321   5.101   8.654 -0.0618  1.0085 -0.8820
 1969TIP3   OH227465   0.366   6.541   8.559 -0.5522  0.1403 -0.3761
 1969TIP3    H127466   0.296   6.601   8.535  0.5185  1.8989  0.6428
 1969TIP3    H227467   0.443   6.597   8.568  0.3784 -1.2953  1.1947
 1970TIP3   OH227468   6.692   1.974   7.239 -0.1878 -0.0084  0.1280
 1970TIP3    H127469   6.732   1.909   7.181 -2.8053 -0.8656 -0.8817
 1970TIP3    H227470   6.739   2.055   7.221  0.6828 -0.8048 -1.3928
 1971TIP3   OH227471   3.398   4.049   1.907  0.1660 -0.1829  0.5462
 1971TIP3    H127472   3.482   4.084   1.939 -0.6917  0.8388  1.7394
 1971TIP3    H227473   3.352   4.020   1.985 -1.5164  1.3320  0.1758
 1972TIP3   OH227474   1.368   3.180   1.209 -0.4102 -0.3142  0.1749
 1972TIP3    H127475   1.388   3.092   1.240 -2.5850 -0.5396  1.1636
 1972TIP3    H227476   1.276   3.192   1.230 -0.0526  2.4097  0.5719
 1973TIP3   OH227477   1.977   2.092   7.440  0.4555  0.2660 -0.2698
 1973TIP3    H127478   1.936   2.144   7.370 -3.5557 -1.5630  0.4578
 1973TIP3    H227479   2.058   2.059   7.400 -0.3161  1.4398 -3.0860
 1974TIP3   OH227480   1.527   5.636   8.060 -0.0183 -0.2511  0.1944
 1974TIP3    H127481   1.476   5.715   8.042 -0.3959 -0.5681 -0.1623
 1974TIP3    H227482   1.496   5.572   7.995 -0.6539 -1.0949  1.2752
 1975TIP3   OH227483   0.068   0.400   0.532 -0.3470  0.3737 -0.5919
 1975TIP3    H127484  -0.014   0.394   0.483 -0.4360  1.3692 -0.5875
 1975TIP3    H227485   0.053   0.471   0.595  0.1658 -0.1211  0.1025
 1976TIP3   OH227486   6.483   2.985   7.856 -0.2878 -0.3996  0.0412
 1976TIP3    H127487   6.579   2.986   7.846 -0.2191 -0.0984  0.7482
 1976TIP3    H227488   6.468   2.952   7.944 -0.7675  1.6875  0.7917
 1977TIP3   OH227489   5.446   0.110   8.313 -0.1229  0.1989 -0.1666
 1977TIP3    H127490   5.383   0.180   8.332 -1.2622 -0.6965 -0.5640
 1977TIP3    H227491   5.393   0.031   8.306  1.2876 -1.0099  1.7621
 1978TIP3   OH227492   0.489   2.883   0.523 -0.3943 -0.0576 -0.7008
 1978TIP3    H127493   0.581   2.909   0.521 -0.0922 -1.0511 -0.3572
 1978TIP3    H227494   0.445   2.957   0.565 -0.2344  1.7005 -3.3963
 1979TIP3   OH227495   4.683   3.633   0.743  0.8666 -0.4263 -0.3680
 1979TIP3    H127496   4.633   3.714   0.749 -1.5670 -1.8478 -0.3460
 1979TIP3    H227497   4.678   3.594   0.830  0.2564 -1.5564 -0.8893
 1980TIP3   OH227498   6.622   4.451   7.360 -0.0048 -0.0772  0.4302
 1980TIP3    H127499   6.625   4.534   7.408  1.4928  0.5338 -0.6285
 1980TIP3    H227500   6.535   4.450   7.320  0.4481  1.7182 -0.7184
 1981TIP3   OH227501   1.145   4.488   0.631  0.2471  0.3165 -0.1863
 1981TIP3    H127502   1.055   4.471   0.603 -0.0294 -0.2530  0.9971
 1981TIP3    H227503   1.144   4.476   0.726  1.8279 -0.7962 -0.2681
 1982TIP3   OH227504   6.208   6.048   8.191 -0.7759  0.3862 -0.7613
 1982TIP3    H127505   6.121   6.069   8.225 -0.6109 -0.1200  0.0042
 1982TIP3    H227506   6.191   5.996   8.113 -1.1658  0.4373 -0.7134
 1983TIP3   OH227507   1.735   1.723   7.837  0.0483  0.4413 -0.6443
 1983TIP3    H127508   1.699   1.808   7.812  1.3147  1.0916 -0.2906
 1983TIP3    H227509   1.673   1.690   7.903 -0.6375  0.9191 -1.0334
 1984TIP3   OH227510   0.525   0.660   0.873 -0.2588  0.0393  0.5911
 1984TIP3    H127511   0.540   0.581   0.925 -1.1072  0.6179  1.7497
 1984TIP3    H227512   0.442   0.644   0.828  0.0073 -0.0758  0.1343
 1985TIP3   OH227513   2.335   5.002   7.119  0.2718 -0.3922 -0.0546
 1985TIP3    H127514   2.392   4.979   7.045 -0.5367 -1.4583 -0.3668
 1985TIP3    H227515   2.281   5.074   7.085 -1.0580 -1.7819 -1.0208
 1986TIP3   OH227516   4.725   5.710   8.278  0.3415 -0.0990 -0.4282
 1986TIP3    H127517   4.651   5.650   8.292 -0.5240  0.8563 -0.7462
 1986TIP3    H227518   4.693   5.795   8.310  1.0114  0.5009 -1.3025
 1987TIP3   OH227519   2.080   0.907   2.557  0.5820 -0.2478 -0.2832
 1987TIP3    H127520   2.070   0.814   2.535  0.5649 -0.0921 -0.9401
 1987TIP3    H227521   1.991   0.939   2.569  0.6017 -0.3913  0.2776
 1988TIP3   OH227522   0.746   6.394   0.600 -0.4928 -0.3002  0.6536
 1988TIP3    H127523   0.676   6.340   0.563 -0.4178  0.9575 -1.4566
 1988TIP3    H227524   0.703   6.442   0.671 -1.4334 -0.5623  0.2857
 1989TIP3   OH227525   4.166   3.998   7.391  0.2506 -0.4090  0.1193
 1989TIP3    H127526   4.097   4.011   7.457  1.1049 -0.2209  1.0088
 1989TIP3    H227527   4.122   4.011   7.307 -0.5952  0.7008  0.6951
 1990TIP3   OH227528   4.668   4.444   7.939 -0.0795  0.1526 -0.1243
 1990TIP3    H127529   4.703   4.454   7.850 -2.8033  1.3885 -1.1868
 1990TIP3    H227530   4.652   4.533   7.969 -0.3291 -0.2908  1.1024
 1991TIP3   OH227531   4.834   3.221   2.607  0.1177  0.4719 -0.0837
 1991TIP3    H127532   4.827   3.263   2.692 -1.5398 -1.3431  0.7503
 1991TIP3    H227533   4.752   3.244   2.562  0.1736 -0.0666 -0.4718
 1992TIP3   OH227534   3.140   6.659   1.011  0.6843 -0.1563  0.2398
 1992TIP3    H127535   3.229   6.648   1.045  0.4709 -1.7855  0.3417
 1992TIP3    H227536   3.094   6.708   1.079  1.6031  1.1487 -0.0308
 1993TIP3   OH227537   1.924   0.871   6.769  0.0005  0.9087 -0.1440
 1993TIP3    H127538   2.002   0.925   6.779  1.3802 -1.1828  0.9338
 1993TIP3    H227539   1.951   0.784   6.796 -2.2585 -0.2757 -1.4226
 1994TIP3   OH227540   2.291   4.578   0.312 -0.3540  0.1960 -0.5705
 1994TIP3    H127541   2.351   4.523   0.261 -0.1743  0.6065 -0.8057
 1994TIP3    H227542   2.210   4.526   0.318  0.2969 -0.7557  0.5204
 1995TIP3   OH227543   5.406   2.254   0.421 -0.2310  0.5206 -0.0303
 1995TIP3    H127544   5.438   2.274   0.508 -1.2832  0.0812  0.4737
 1995TIP3    H227545   5.329   2.310   0.410 -1.0210 -0.5334 -0.0471
 1996TIP3   OH227546   6.705   2.568   8.032  0.0095  0.0760  0.2941
 1996TIP3    H127547   6.728   2.643   8.088  1.5193  1.1078 -1.6188
 1996TIP3    H227548   6.679   2.500   8.094 -0.7580  1.9290  2.1436
 1997TIP3   OH227549   5.659   4.239   1.473  0.2873  0.4653 -0.4065
 1997TIP3    H127550   5.686   4.235   1.565 -0.8220 -2.4240 -0.1144
 1997TIP3    H227551   5.704   4.316   1.438  2.5684  0.3323  1.9709
 1998TIP3   OH227552   5.629   4.475   0.442  0.2464  0.2026 -0.0835
 1998TIP3    H127553   5.671   4.515   0.366 -0.3904  1.1500  0.0412
 1998TIP3    H227554   5.543   4.447   0.410  0.7143 -1.1615 -0.1851
 1999TIP3   OH227555   4.871   2.013   6.653 -0.0612  0.4172 -0.3076
 1999TIP3    H127556   4.965   2.026   6.641  0.3528 -0.7949  1.2675
 1999TIP3    H227557   4.848   2.074   6.723  0.2080 -1.2585  1.3344
 2000TIP3   OH227558   3.579   0.311   7.663 -0.0944  0.6679  0.3761
 2000TIP3    H127559   3.653   0.280   7.611 -0.4768 -0.4967  0.5192
 2000TIP3    H227560   3.543   0.384   7.612  1.0513  1.1703  0.2420
 2001TIP3   OH227561   2.184   3.042   2.273 -0.0111 -0.1080  0.9456
 2001TIP3    H127562   2.187   3.114   2.336 -1.3040  0.5186  0.3178
 2001TIP3    H227563   2.211   2.965   2.323  0.2124  0.5968  1.9294
 2002TIP3   OH227564   2.982   6.210   7.295 -0.2972 -0.1169  0.2022
 2002TIP3    H127565   2.962   6.280   7.232 -0.8782 -0.8756 -0.4780
 2002TIP3    H227566   3.068   6.234   7.331 -0.8091  1.3198  0.5204
 2003TIP3   OH227567   5.389   2.739   0.072 -0.7941  0.0273 -0.4192
 2003TIP3    H127568   5.389   2.675   0.143 -0.3646 -1.8080 -1.9843
 2003TIP3    H227569   5.440   2.697   0.002  0.8399  2.7146 -0.9971
 2004TIP3   OH227570   2.958   3.504   2.418 -0.0769  0.2173 -0.6555
 2004TIP3    H127571   2.962   3.512   2.323  1.0495 -0.0157 -0.6375
 2004TIP3    H227572   2.931   3.413   2.433 -1.2041  0.5169 -0.7419
 2005TIP3   OH227573   6.683   1.070   1.575  0.7237 -0.8081  0.3296
 2005TIP3    H127574   6.752   1.116   1.528  0.9044  0.0233  1.3653
 2005TIP3    H227575   6.616   1.052   1.509  0.8317  0.5993 -0.1926
 2006TIP3   OH227576   2.947   2.267   7.507  0.2940  0.0450  0.3014
 2006TIP3    H127577   3.041   2.280   7.499  0.6030 -1.1888  1.5650
 2006TIP3    H227578   2.927   2.289   7.598 -0.7096  0.6029 -0.0328
 2007TIP3   OH227579   3.883   6.613   1.015  0.0906  0.0175 -0.6595
 2007TIP3    H127580   3.947   6.543   1.023 -0.5179 -0.5329 -0.5442
 2007TIP3    H227581   3.876   6.649   1.103  0.6670  0.4701 -0.7902
 2008TIP3   OH227582   3.096   1.330   1.551 -0.0711 -0.3055  0.6409
 2008TIP3    H127583   3.175   1.326   1.498 -0.3010  0.2909  0.2381
 2008TIP3    H227584   3.030   1.366   1.493 -0.2624  0.6333  1.4105
 2009TIP3   OH227585   1.648   1.796   8.550 -0.1457  0.2295 -0.1300
 2009TIP3    H127586   1.645   1.853   8.627 -0.1678  0.0906 -0.0285
 2009TIP3    H227587   1.700   1.720   8.577  0.0471  0.2891 -0.3247
 2010TIP3   OH227588   0.641   0.458   8.540  0.5819  0.5519  0.7230
 2010TIP3    H127589   0.726   0.490   8.512 -0.2899  0.5284 -2.2982
 2010TIP3    H227590   0.579   0.524   8.509 -0.8794 -1.8214 -1.8275
 2011TIP3   OH227591   1.344   4.232   1.527  0.2458 -0.1564 -0.0049
 2011TIP3    H127592   1.423   4.211   1.579  0.3155  1.5716  0.6342
 2011TIP3    H227593   1.287   4.156   1.540  0.5864 -0.1345  2.0041
 2012TIP3   OH227594   5.992   3.130   1.337  0.3108  0.0390 -0.3313
 2012TIP3    H127595   6.013   3.132   1.244 -0.8148  0.0601 -0.6028
 2012TIP3    H227596   6.064   3.178   1.379  1.6088 -1.2500 -1.0067
 2013TIP3   OH227597   1.201   5.948   7.919 -0.3588 -0.5635 -0.1128
 2013TIP3    H127598   1.252   5.929   7.998 -1.4997  1.2294  1.1144
 2013TIP3    H227599   1.160   5.864   7.897 -0.0114 -1.1128  1.1904
 2014TIP3   OH227600   1.769   3.878   0.400  0.1324 -0.1219  0.0622
 2014TIP3    H127601   1.812   3.942   0.457 -0.9342  2.4268 -1.8392
 2014TIP3    H227602   1.680   3.870   0.436  0.1132 -0.1606  0.0065
 2015TIP3   OH227603   1.954   4.528   8.450  0.3394  0.1027 -0.4749
 2015TIP3    H127604   1.879   4.586   8.442  0.5473  0.3081 -0.9517
 2015TIP3    H227605   1.994   4.527   8.363  0.5009 -0.5322 -0.4016
 2016TIP3   OH227606   6.852   4.996   8.188  0.0743  0.1437 -0.3769
 2016TIP3    H127607   6.833   5.086   8.216 -1.1278  0.7734 -2.8828
 2016TIP3    H227608   6.767   4.952   8.191 -0.0932  0.1973 -2.5898
 2017TIP3   OH227609   6.155   2.523   0.806  0.0853  0.0829 -0.3151
 2017TIP3    H127610   6.240   2.566   0.797  1.6417 -2.8826 -1.0407
 2017TIP3    H227611   6.139   2.483   0.720 -0.0403 -2.7152  0.9070
 2018TIP3   OH227612   1.220   5.001   8.363 -0.0308  0.1350  0.3092
 2018TIP3    H127613   1.179   4.978   8.446 -1.9405  0.6164 -0.4391
 2018TIP3    H227614   1.232   5.096   8.368 -0.6136  0.2384 -0.1389
 2019TIP3   OH227615   3.480   5.266   2.225 -0.3482  0.5827  0.2045
 2019TIP3    H127616   3.507   5.207   2.295 -0.4021  1.5443  1.0553
 2019TIP3    H227617   3.398   5.304   2.255 -1.3430 -0.3630 -1.2098
 2020TIP3   OH227618   0.171   0.638   1.184  0.1633  0.5551  0.5693
 2020TIP3    H127619   0.088   0.605   1.217  0.0792 -1.1955 -1.1471
 2020TIP3    H227620   0.193   0.712   1.240 -2.7629  1.3604  0.7798
 2021TIP3   OH227621   5.807   5.670   7.893  0.4590 -0.0956 -0.3380
 2021TIP3    H127622   5.870   5.598   7.891 -0.8623 -1.3091  0.4117
 2021TIP3    H227623   5.820   5.715   7.809  0.0056 -2.3753 -1.7260
 2022TIP3   OH227624   2.994   0.639   7.186 -0.2924 -0.3869 -0.1610
 2022TIP3    H127625   2.953   0.700   7.124 -0.7566 -0.0380  0.4826
 2022TIP3    H227626   2.921   0.586   7.219  0.1487 -1.5294 -0.9532
 2023TIP3   OH227627   5.098   6.301   2.150  0.3118  0.0860  0.7080
 2023TIP3    H127628   5.112   6.252   2.068 -1.0851 -0.2021  0.6243
 2023TIP3    H227629   5.033   6.249   2.198  2.0968 -0.4921  2.6549
 2024TIP3   OH227630   5.201   5.108   7.285  0.7357  0.6451  0.3343
 2024TIP3    H127631   5.167   5.030   7.243 -0.6492  1.1233  0.4951
 2024TIP3    H227632   5.290   5.117   7.252  0.8298 -0.8373  0.1202
 2025TIP3   OH227633   5.408   3.321   2.340  0.2040  0.1891  0.4329
 2025TIP3    H127634   5.486   3.360   2.302  1.0035 -0.3928  1.4313
 2025TIP3    H227635   5.383   3.252   2.279  0.4883  0.3529  0.1303
 2026TIP3   OH227636   5.155   4.398   0.862 -0.3985 -0.3940 -0.4075
 2026TIP3    H127637   5.196   4.332   0.917 -0.3934 -1.2087 -1.3709
 2026TIP3    H227638   5.080   4.354   0.822 -0.7089  0.3339 -0.6495
 2027TIP3   OH227639   2.332   1.987   6.583  0.0431 -0.5970 -0.4678
 2027TIP3    H127640   2.400   2.019   6.642  0.3140  1.0271 -1.5912
 2027TIP3    H227641   2.377   1.923   6.527  0.3278 -0.5094 -0.3411
 2028TIP3   OH227642   0.213   6.111   0.660 -0.0341  0.5027 -0.1889
 2028TIP3    H127643   0.135   6.061   0.637 -0.5910  0.1209  2.2311
 2028TIP3    H227644   0.279   6.044   0.681  0.6633  0.8220 -1.3009
 2029TIP3   OH227645   4.660   6.621   1.720 -0.1090  1.0414 -0.4109
 2029TIP3    H127646   4.739   6.675   1.711 -0.0111  0.9166 -0.2997
 2029TIP3    H227647   4.589   6.676   1.686  0.2437  0.5778 -1.9521
 2030TIP3   OH227648   1.367   5.355   7.906  0.1388  0.1439  0.3608
 2030TIP3    H127649   1.412   5.285   7.953 -1.2866 -1.0681  0.0075
 2030TIP3    H227650   1.298   5.384   7.966 -1.4553 -1.1555 -0.7447
 2031TIP3   OH227651   0.713   3.437   1.215  0.6865 -0.6180  0.8342
 2031TIP3    H127652   0.674   3.421   1.301 -0.8872 -2.6745 -0.1788
 2031TIP3    H227653   0.743   3.350   1.186 -0.1626 -0.2601 -1.2984
 2032TIP3   OH227654   4.289   3.738   0.656  0.1304  0.3510  0.2246
 2032TIP3    H127655   4.290   3.671   0.725 -0.6285  0.6697  0.5524
 2032TIP3    H227656   4.321   3.817   0.699  2.3874 -0.0729 -0.4998
 2033TIP3   OH227657   6.465   5.796   8.129  0.3746  0.7289  0.9492
 2033TIP3    H127658   6.385   5.837   8.096  0.4694  0.3380  0.2054
 2033TIP3    H227659   6.504   5.863   8.185  0.1820  1.4125  0.2898
 2034TIP3   OH227660   5.095   5.772   7.852  0.1819 -0.3228 -0.4958
 2034TIP3    H127661   5.004   5.760   7.825 -0.5436  2.3768  0.4630
 2034TIP3    H227662   5.098   5.744   7.943  0.8205 -2.1989 -1.0491
 2035TIP3   OH227663   4.260   4.490   7.489  0.0263 -0.0856  0.5033
 2035TIP3    H127664   4.338   4.532   7.526 -0.4126 -0.5634  2.0441
 2035TIP3    H227665   4.187   4.546   7.518 -0.1697  1.1045 -2.0039
 2036TIP3   OH227666   4.297   2.750   8.071 -0.8324  0.0252 -0.4165
 2036TIP3    H127667   4.218   2.697   8.080 -1.2192  0.7271  0.5218
 2036TIP3    H227668   4.337   2.721   7.989  0.1081 -3.2037  1.0318
 2037TIP3   OH227669   2.998   3.208   0.815 -0.1784  0.7339 -0.5886
 2037TIP3    H127670   2.905   3.225   0.831  0.2016  1.9427  0.4888
 2037TIP3    H227671   3.017   3.252   0.732 -0.4577  0.8787 -0.5778
 2038TIP3   OH227672   0.471   3.837   7.356  0.2139 -0.1226 -0.0628
 2038TIP3    H127673   0.455   3.927   7.385 -0.0828  0.1032 -0.9155
 2038TIP3    H227674   0.520   3.846   7.275 -2.5194 -0.5955 -1.8930
 2039TIP3   OH227675   6.386   4.149   0.933 -0.4573  0.3579 -0.2836
 2039TIP3    H127676   6.400   4.152   0.838 -0.2340 -0.3910 -0.2854
 2039TIP3    H227677   6.334   4.227   0.953 -1.4113 -0.0195 -1.1808
 2040TIP3   OH227678   3.987   3.486   0.175 -0.5093 -0.3689 -0.1820
 2040TIP3    H127679   3.940   3.414   0.135 -1.3911  0.1238 -0.0557
 2040TIP3    H227680   3.920   3.553   0.192  0.1298  0.1144  0.5327
 2041TIP3   OH227681   1.245   2.524   2.082 -0.2366  0.4650  0.0234
 2041TIP3    H127682   1.255   2.619   2.083 -3.6066  0.9866  2.3645
 2041TIP3    H227683   1.323   2.491   2.127  0.7476  2.1342 -0.3889
 2042TIP3   OH227684   1.374   3.695   1.047 -0.4280  0.4823 -0.2126
 2042TIP3    H127685   1.345   3.777   1.086  0.0629  0.7931 -0.5011
 2042TIP3    H227686   1.314   3.629   1.083 -0.6313  0.9184  0.2538
 2043TIP3   OH227687   3.037   4.207   2.156 -0.2514 -0.1351  0.0901
 2043TIP3    H127688   2.982   4.281   2.131 -3.4266 -2.5605 -0.7355
 2043TIP3    H227689   3.040   4.210   2.252 -2.0964 -0.0186  0.1827
 2044TIP3   OH227690   1.803   0.244   7.180 -0.1126  0.0125 -0.0932
 2044TIP3    H127691   1.832   0.153   7.187  1.1858  0.5021  1.6170
 2044TIP3    H227692   1.745   0.256   7.255 -0.3705  0.5745 -0.3786
 2045TIP3   OH227693   0.045   2.342   0.287  0.4297  0.1939 -0.2207
 2045TIP3    H127694  -0.026   2.401   0.313 -2.9613 -3.2607 -0.7803
 2045TIP3    H227695   0.067   2.295   0.368 -0.3705 -1.0031 -0.6582
 2046TIP3   OH227696   4.025   4.153   0.675  0.2839 -0.1094  0.3468
 2046TIP3    H127697   3.971   4.099   0.733  0.1231 -1.6293 -1.1239
 2046TIP3    H227698   4.018   4.241   0.710 -1.7695 -0.5608  1.2123
 2047TIP3   OH227699   1.148   1.534   1.032  0.1069  0.0426 -0.4078
 2047TIP3    H127700   1.223   1.529   1.091 -0.5359 -0.5717  0.3890
 2047TIP3    H227701   1.131   1.628   1.023  0.0783  0.1421  0.5762
 2048TIP3   OH227702   3.339   6.015   0.265 -0.2361  0.3903 -0.0117
 2048TIP3    H127703   3.315   6.008   0.358 -2.8568  0.5179 -0.5871
 2048TIP3    H227704   3.418   6.069   0.264 -0.5359  0.9566  2.1056
 2049TIP3   OH227705   3.854   1.967   7.606  0.2475 -0.1219 -0.9737
 2049TIP3    H127706   3.765   1.963   7.641  0.6913 -0.5410  0.1356
 2049TIP3    H227707   3.845   1.935   7.516 -1.1017  2.1312 -1.7087
 2050TIP3   OH227708   1.489   1.116   2.032 -0.7323  0.4591 -0.1560
 2050TIP3    H127709   1.416   1.056   2.048 -1.6035  1.7490  0.8893
 2050TIP3    H227710   1.483   1.181   2.102  0.4461  1.5310 -0.9995
 2051TIP3   OH227711   6.210   2.486   2.153 -0.7228  0.8207  0.0313
 2051TIP3    H127712   6.237   2.394   2.159  2.2704  1.4915 -1.1359
 2051TIP3    H227713   6.260   2.530   2.222  0.2539  1.9639 -1.3463
 2052TIP3   OH227714   6.433   3.415   1.814  0.1522  0.0790  0.4232
 2052TIP3    H127715   6.498   3.432   1.882 -0.5237 -0.6169  1.2617
 2052TIP3    H227716   6.416   3.501   1.775  0.5271  0.4915  1.1433
 2053TIP3   OH227717   6.857   4.880   0.337  0.2202  0.1342 -0.0763
 2053TIP3    H127718   6.798   4.832   0.395  0.0687  2.4527  1.8794
 2053TIP3    H227719   6.936   4.894   0.389  0.4436  1.4903 -0.7247
 2054TIP3   OH227720   5.523   4.442   8.090  0.3033 -0.0999 -0.7459
 2054TIP3    H127721   5.605   4.426   8.136  0.1395  1.6073  0.2087
 2054TIP3    H227722   5.459   4.461   8.159 -0.3871  0.7109 -1.5708
 2055TIP3   OH227723   2.224   5.371   7.305 -0.0659  0.2432 -0.1997
 2055TIP3    H127724   2.318   5.374   7.322 -0.3063  0.5726  1.1597
 2055TIP3    H227725   2.183   5.403   7.386 -1.3736 -0.5394 -0.5136
 2056TIP3   OH227726   1.099   5.938   8.309 -0.1511  0.2275  0.0205
 2056TIP3    H127727   1.158   6.002   8.348 -1.1739  0.1293  1.8203
 2056TIP3    H227728   1.052   5.900   8.383 -1.1416 -1.0302 -1.2008
 2057TIP3   OH227729   6.008   1.684   1.555 -0.9468  0.3255  0.2412
 2057TIP3    H127730   5.920   1.673   1.591 -0.7303  0.2736  0.7737
 2057TIP3    H227731   6.009   1.774   1.521 -0.6575  0.9652  1.8525
 2058TIP3   OH227732   4.934   5.657   8.054 -0.4892  0.0295  0.4457
 2058TIP3    H127733   4.854   5.707   8.075 -0.7205 -0.7624  1.5571
 2058TIP3    H227734   4.902   5.580   8.006 -0.3438 -0.0436  0.4658
 2059TIP3   OH227735   1.268   4.539   2.328  0.0132 -0.4808 -0.1997
 2059TIP3    H127736   1.304   4.466   2.277  0.8103  1.1364 -2.1113
 2059TIP3    H227737   1.174   4.531   2.319  0.0831 -1.5095 -0.0468
 2060TIP3   OH227738   1.228   0.107   8.494  0.0120  0.1953 -0.3168
 2060TIP3    H127739   1.208   0.019   8.526  2.3367 -0.4944 -0.5838
 2060TIP3    H227740   1.242   0.158   8.573 -0.7314  0.1976 -0.1733
 2061TIP3   OH227741   4.441   0.078   7.837  0.3547  0.0860 -0.6399
 2061TIP3    H127742   4.493   0.159   7.833  1.9885 -0.9153 -0.5692
 2061TIP3    H227743   4.385   0.090   7.913  1.4570  0.6734  0.1107
 2062TIP3   OH227744   0.123   3.382   1.912  0.4713  0.1935  0.1643
 2062TIP3    H127745   0.208   3.338   1.918  0.1737 -0.4591 -0.2416
 2062TIP3    H227746   0.106   3.389   1.818 -0.7027 -1.2678  0.2292
 2063TIP3   OH227747   0.230   3.510   8.489 -0.0185  0.4679  0.3386
 2063TIP3    H127748   0.298   3.500   8.556 -0.7086 -0.7455  0.8778
 2063TIP3    H227749   0.239   3.433   8.434 -2.9698 -1.4972  2.3115
 2064TIP3   OH227750   5.079   4.073   0.345  0.7410 -0.2233  0.0440
 2064TIP3    H127751   5.041   3.986   0.336  0.1125  0.0692 -0.2363
 2064TIP3    H227752   5.137   4.067   0.420  2.8815 -1.6237 -1.6298
 2065TIP3   OH227753   3.530   5.569   1.734  0.0213  0.0509 -0.0878
 2065TIP3    H127754   3.441   5.536   1.749 -0.0874  0.2182 -0.3561
 2065TIP3    H227755   3.576   5.550   1.815  0.0783 -1.1382 -0.3741
 2066TIP3   OH227756   5.780   0.482   1.738 -0.1685  0.0304 -0.7045
 2066TIP3    H127757   5.716   0.546   1.770  2.3258  2.1848  0.3700
 2066TIP3    H227758   5.784   0.415   1.807  1.7469  2.1771  1.4548
 2067TIP3   OH227759   1.308   2.671   2.368 -0.2207  0.1975 -0.4889
 2067TIP3    H127760   1.369   2.679   2.294 -0.2884 -0.2776 -0.6008
 2067TIP3    H227761   1.364   2.658   2.444 -0.1929 -2.3151 -0.8610
 2068TIP3   OH227762   2.969   5.170   1.803  0.1750  0.2909 -0.4143
 2068TIP3    H127763   2.950   5.106   1.734 -2.5040  0.2826  0.2457
 2068TIP3    H227764   3.003   5.246   1.757 -0.1482 -0.2604 -1.5914
 2069TIP3   OH227765   1.142   4.770   1.375  0.1772 -0.3917  0.3921
 2069TIP3    H127766   1.122   4.690   1.424  0.7523 -1.2481 -0.7352
 2069TIP3    H227767   1.099   4.840   1.425 -0.7898 -1.4624  1.1081
 2070TIP3   OH227768   5.165   5.297   1.631  0.4614 -0.5012  0.7509
 2070TIP3    H127769   5.104   5.365   1.601  0.2010 -1.0566 -0.0242
 2070TIP3    H227770   5.168   5.308   1.726 -0.8770 -0.4676  0.8129
 2071TIP3   OH227771   4.608   6.550   1.988  0.1611  0.1039 -0.8058
 2071TIP3    H127772   4.656   6.583   1.912  1.2561 -0.6025 -0.4445
 2071TIP3    H227773   4.519   6.536   1.956  1.1333 -2.4910 -2.6543
 2072TIP3   OH227774   1.078   5.679   7.833  0.0150  0.2043 -0.4784
 2072TIP3    H127775   1.162   5.635   7.820  0.8235  1.3157  0.7132
 2072TIP3    H227776   1.015   5.608   7.844  1.1515 -0.6703  0.7294
 2073TIP3   OH227777   5.134   0.685   2.758 -0.0492 -0.1254  0.1016
 2073TIP3    H127778   5.205   0.712   2.816 -0.8651  0.2270  0.9708
 2073TIP3    H227779   5.107   0.599   2.792  0.5311 -0.6650 -0.7707
 2074TIP3   OH227780   6.401   0.893   7.979  0.3535 -0.0974 -0.5326
 2074TIP3    H127781   6.413   0.800   7.960 -0.3186  0.0257 -1.6116
 2074TIP3    H227782   6.429   0.938   7.899 -1.4170  0.5014 -0.8708
 2075TIP3   OH227783   1.520   0.376   1.200 -0.0967 -0.3486  0.1233
 2075TIP3    H127784   1.427   0.398   1.192 -0.1254 -0.7895 -1.0218
 2075TIP3    H227785   1.548   0.416   1.283 -0.9529  1.0394 -0.2265
 2076TIP3   OH227786   6.183   2.701   1.114 -0.1809 -0.9225 -0.1230
 2076TIP3    H127787   6.179   2.766   1.184 -0.3112 -1.7140  0.6243
 2076TIP3    H227788   6.277   2.685   1.102 -0.1754 -1.3274  0.4025
 2077TIP3   OH227789   5.390   4.856   6.554 -0.0910  0.6171 -0.1984
 2077TIP3    H127790   5.299   4.826   6.558  0.2312 -0.4286 -0.4220
 2077TIP3    H227791   5.437   4.786   6.508  0.7177  1.4200 -0.6329
 2078TIP3   OH227792   5.543   4.817   6.774  0.2232  0.3195  0.1269
 2078TIP3    H127793   5.627   4.850   6.743 -0.1285  0.2009 -0.9913
 2078TIP3    H227794   5.483   4.833   6.701 -0.9278  1.2034  1.2229
 2079TIP3   OH227795   1.743   3.244   7.859  0.0504 -0.3540 -0.7474
 2079TIP3    H127796   1.692   3.318   7.827 -1.3770 -0.6034  0.8372
 2079TIP3    H227797   1.679   3.177   7.881  1.2654 -1.8139 -1.4006
 2080TIP3   OH227798   1.088   6.563   8.612 -0.3175 -0.1021 -0.0239
 2080TIP3    H127799   1.133   6.642   8.642 -0.0029 -0.6933  1.0997
 2080TIP3    H227800   1.015   6.596   8.559  0.4242  0.9069 -0.4434
 2081TIP3   OH227801   2.648   1.699   2.543 -0.3457  0.4364  0.2972
 2081TIP3    H127802   2.646   1.615   2.495 -2.4697  0.4917  0.1941
 2081TIP3    H227803   2.738   1.706   2.574 -0.0064 -1.7111 -0.0079
 2082TIP3   OH227804   5.507   5.573   8.517 -0.1187  0.4658 -0.2760
 2082TIP3    H127805   5.548   5.588   8.432 -0.5516  2.6855 -0.1437
 2082TIP3    H227806   5.552   5.496   8.552  0.8577  0.2056 -2.0063
 2083TIP3   OH227807   3.077   1.434   2.032 -0.3172 -0.4315 -0.1735
 2083TIP3    H127808   3.052   1.526   2.026 -0.5240 -0.4727  0.0340
 2083TIP3    H227809   3.104   1.422   2.123  2.0368 -0.0056 -0.7687
 2084TIP3   OH227810   3.190   5.439   8.285 -0.1471  0.6540  0.0172
 2084TIP3    H127811   3.221   5.495   8.356  0.2922  0.5765 -0.1101
 2084TIP3    H227812   3.101   5.469   8.268  0.0142  1.1770  0.0874
 2085TIP3   OH227813   5.539   4.903   8.038  0.0896  0.1554  0.1894
 2085TIP3    H127814   5.575   4.824   8.079  1.1633  0.7760  0.5016
 2085TIP3    H227815   5.601   4.923   7.967 -0.1422  0.7514  0.1498
 2086TIP3   OH227816   3.227   1.570   1.111  0.0724 -0.0214 -0.3879
 2086TIP3    H127817   3.194   1.632   1.046  0.6843  2.2605  1.3578
 2086TIP3    H227818   3.253   1.494   1.059 -2.5172  0.3352 -2.4203
 2087TIP3   OH227819   0.820   4.790   0.515 -0.4211 -0.6133 -0.9379
 2087TIP3    H127820   0.884   4.789   0.444  2.0196  1.9213  1.0005
 2087TIP3    H227821   0.736   4.778   0.471  0.9908  0.1225 -4.1569
 2088TIP3   OH227822   0.642   6.583   1.987 -0.3296 -0.4907 -0.4588
 2088TIP3    H127823   0.676   6.567   2.075 -1.7328  3.3664  1.0031
 2088TIP3    H227824   0.555   6.542   1.986  0.8166 -3.1548 -1.2806
 2089TIP3   OH227825   3.692   5.053   2.255 -1.0044  0.1983 -0.4974
 2089TIP3    H127826   3.762   5.083   2.314  0.5302 -2.5051 -0.8058
 2089TIP3    H227827   3.725   5.070   2.167 -0.6039 -1.3167 -0.6515
 2090TIP3   OH227828   3.217   2.246   7.550  0.0860  0.6545 -0.1234
 2090TIP3    H127829   3.303   2.232   7.589 -0.1481  1.3887  0.6876
 2090TIP3    H227830   3.209   2.177   7.484  0.1831 -1.1709  1.6708
 2091TIP3   OH227831   1.932   0.641   8.454 -0.1593 -0.4902 -0.1024
 2091TIP3    H127832   1.845   0.666   8.421  0.2162  0.7315 -0.2125
 2091TIP3    H227833   1.938   0.686   8.539  0.5346 -0.2218 -0.2928
 2092TIP3   OH227834   4.085   0.532   1.116  0.2563  0.1656 -0.0970
 2092TIP3    H127835   4.116   0.442   1.113  1.3799  0.4133  2.0308
 2092TIP3    H227836   3.989   0.525   1.112  0.3438 -1.0935 -0.1605
 2093TIP3   OH227837   1.200   1.397   1.504  0.3587 -0.2896 -0.5860
 2093TIP3    H127838   1.114   1.439   1.515  0.0332 -1.1458  0.2994
 2093TIP3    H227839   1.196   1.319   1.560  0.8311 -1.6911 -2.3822
 2094TIP3   OH227840   6.641   5.756   0.715 -0.5649 -0.4290 -0.2601
 2094TIP3    H127841   6.601   5.752   0.628  0.6438 -2.0368 -0.7955
 2094TIP3    H227842   6.735   5.759   0.697 -0.3416  0.7801  0.9916
 2095TIP3   OH227843   4.767   4.056   0.926 -0.1725 -0.0562  0.5615
 2095TIP3    H127844   4.743   3.977   0.879  1.4565 -0.8640  1.0047
 2095TIP3    H227845   4.704   4.122   0.896 -1.2733 -1.3795 -0.1617
 2096TIP3   OH227846   3.686   0.469   2.078  0.0456  0.4928 -0.1343
 2096TIP3    H127847   3.663   0.417   2.156 -1.6938 -1.1482 -1.6517
 2096TIP3    H227848   3.774   0.440   2.055 -0.8776 -1.8698 -0.9286
 2097TIP3   OH227849   2.804   5.041   0.869 -0.1387  0.7186  0.6033
 2097TIP3    H127850   2.804   5.132   0.838  0.3593  0.6232  0.3201
 2097TIP3    H227851   2.725   5.003   0.830  0.7341  0.4580 -1.0106
 2098TIP3   OH227852   3.881   3.106   8.090  0.1457 -0.6356 -0.2923
 2098TIP3    H127853   3.802   3.054   8.075  0.3524 -1.0877  0.1495
 2098TIP3    H227854   3.953   3.047   8.067  0.3510 -0.0301 -1.2645
 2099TIP3   OH227855   1.129   5.267   1.403  0.0225  0.0908  0.0035
 2099TIP3    H127856   1.078   5.334   1.449 -0.7226 -0.0445 -0.6106
 2099TIP3    H227857   1.211   5.311   1.378 -0.5253  0.8231 -0.5390
 2100TIP3   OH227858   4.820   2.696   0.148  0.5553 -0.2534 -0.3667
 2100TIP3    H127859   4.913   2.693   0.126  0.4171 -1.7634 -0.8346
 2100TIP3    H227860   4.774   2.699   0.064  0.1591  1.0938 -0.1382
 2101TIP3   OH227861   6.622   4.872   8.130 -0.1793  0.0144 -0.6568
 2101TIP3    H127862   6.531   4.898   8.113 -0.5133 -0.2585  0.5818
 2101TIP3    H227863   6.669   4.895   8.050 -1.1707  1.0020 -0.9884
 2102TIP3   OH227864   3.081   5.701   8.006 -0.2144  0.2753 -0.4692
 2102TIP3    H127865   3.017   5.641   8.044 -0.0018  0.2021 -0.2170
 2102TIP3    H227866   3.088   5.772   8.070 -0.8002  0.8024 -0.9821
 2103TIP3   OH227867   4.062   0.987   0.023  0.2949 -0.0485  0.4360
 2103TIP3    H127868   4.094   1.077   0.032  0.1097 -0.0122  0.7482
 2103TIP3    H227869   4.091   0.960  -0.064  2.2127 -0.4371  1.1552
 2104TIP3   OH227870   5.077   1.200   0.201  0.6898  0.4446  0.1598
 2104TIP3    H127871   5.017   1.149   0.147 -0.5698  0.3887  1.5485
 2104TIP3    H227872   5.150   1.141   0.218 -0.5468 -0.8088  1.3961
 2105TIP3   OH227873   2.127   6.048   7.967  0.1303  0.5511 -0.5461
 2105TIP3    H127874   2.139   6.057   7.873 -0.0747 -2.3339 -0.9324
 2105TIP3    H227875   2.194   5.985   7.994 -0.9115 -0.0049  0.9126
 2106TIP3   OH227876   3.741   2.542   0.137 -0.8701 -0.1315  0.2708
 2106TIP3    H127877   3.836   2.542   0.125 -0.3840  2.4546  3.0355
 2106TIP3    H227878   3.706   2.546   0.048  1.5801 -0.9479 -0.8083
 2107TIP3   OH227879   6.801   3.953   8.202  0.4900  0.0580  0.5614
 2107TIP3    H127880   6.828   3.886   8.264  2.8485  1.5465  1.2981
 2107TIP3    H227881   6.866   3.949   8.132 -2.0105 -1.4649 -1.8881
 2108TIP3   OH227882   6.475   4.679   7.217  0.0074  0.1788 -0.3126
 2108TIP3    H127883   6.406   4.681   7.283  1.3581 -0.0068  1.1603
 2108TIP3    H227884   6.542   4.739   7.251 -0.2610  1.9738 -2.7023
 2109TIP3   OH227885   2.936   1.107   8.372 -0.4298 -0.3610 -0.1229
 2109TIP3    H127886   3.023   1.080   8.402 -0.8479 -0.0100  1.4934
 2109TIP3    H227887   2.885   1.027   8.369 -0.2624 -0.4607 -0.3379
 2110TIP3   OH227888   2.683   0.418   0.523 -0.2098 -0.2450  0.1906
 2110TIP3    H127889   2.776   0.431   0.544 -0.2698  0.8938 -0.1509
 2110TIP3    H227890   2.642   0.501   0.549 -1.4601 -1.3965  2.0764
 2111TIP3   OH227891   3.004   0.766   1.000  0.0420 -0.1143  0.3979
 2111TIP3    H127892   3.050   0.786   0.919  0.0999 -0.6301  0.2991
 2111TIP3    H227893   2.917   0.804   0.989 -0.1789 -0.7691 -0.1844
 2112TIP3   OH227894   0.995   6.437   8.183  0.2088  0.3587  0.0808
 2112TIP3    H127895   0.918   6.410   8.133  0.2967  1.7195 -0.8219
 2112TIP3    H227896   1.053   6.361   8.180 -1.2088 -0.8266  1.0851
 2113TIP3   OH227897   4.868   6.593   8.419  0.1169  0.8280 -0.7778
 2113TIP3    H127898   4.902   6.507   8.443 -0.1153  0.7024 -0.8964
 2113TIP3    H227899   4.888   6.648   8.494  1.1608  0.9155 -1.1023
 2114TIP3   OH227900   1.004   4.862   2.013 -0.1483 -0.1795  0.4205
 2114TIP3    H127901   1.034   4.867   1.922  2.2200 -0.4212  1.1356
 2114TIP3    H227902   1.045   4.783   2.048 -1.5727 -0.4667  1.5593
 2115TIP3   OH227903   6.065   4.956   0.298 -0.2609 -0.0718  0.4265
 2115TIP3    H127904   6.099   4.877   0.256  1.1142  0.2100  0.9527
 2115TIP3    H227905   6.015   4.924   0.373 -0.6826 -0.4765 -0.0229
 2116TIP3   OH227906   3.468   6.273   1.405  0.1295  0.2398 -0.0095
 2116TIP3    H127907   3.433   6.248   1.491 -0.5165  0.1651 -0.2877
 2116TIP3    H227908   3.441   6.364   1.395 -1.7684 -0.3784 -1.0805
 2117TIP3   OH227909   5.564   5.844   7.635  0.0313  0.7685 -0.1867
 2117TIP3    H127910   5.554   5.820   7.727 -0.5153  1.5574 -0.0265
 2117TIP3    H227911   5.587   5.762   7.591  0.6340  0.4458  0.6966
 2118TIP3   OH227912   4.295   5.255   0.675  0.1287 -0.3907 -0.4028
 2118TIP3    H127913   4.264   5.343   0.694 -0.7436 -1.0532  1.6197
 2118TIP3    H227914   4.345   5.230   0.754  1.6514 -1.1689 -1.5571
 2119TIP3   OH227915   5.151   2.593   8.080 -0.5234  0.2945 -0.5383
 2119TIP3    H127916   5.159   2.522   8.017 -1.4179  0.4936 -0.8835
 2119TIP3    H227917   5.235   2.639   8.075 -0.9754  0.9665 -2.3952
 2120TIP3   OH227918   4.929   3.580   7.494  0.0524  0.0892 -0.2884
 2120TIP3    H127919   4.838   3.551   7.493  0.4035 -1.0670 -0.1929
 2120TIP3    H227920   4.949   3.597   7.402  0.5108 -2.2930 -0.7008
 2121TIP3   OH227921   6.000   4.308   8.377  0.4881 -0.5694  0.3900
 2121TIP3    H127922   5.914   4.269   8.393  0.1309 -0.1796 -0.5323
 2121TIP3    H227923   6.013   4.299   8.282  1.3191 -0.3277  0.4742
 2122TIP3   OH227924   1.920   2.837   1.162  0.2908  0.2307 -0.3163
 2122TIP3    H127925   1.848   2.815   1.222  2.3601 -1.6628  1.6767
 2122TIP3    H227926   1.993   2.858   1.220  1.5737  1.4585 -2.2651
 2123TIP3   OH227927   5.264   6.494   2.596 -0.2085 -0.2258  0.0650
 2123TIP3    H127928   5.199   6.526   2.659 -0.2577  0.1505 -0.1744
 2123TIP3    H227929   5.214   6.478   2.516 -0.0746 -0.3123 -0.0013
 2124TIP3   OH227930   5.172   0.236   1.918  0.5703  0.5407 -0.2854
 2124TIP3    H127931   5.185   0.180   1.842  0.9611  0.6125 -0.2754
 2124TIP3    H227932   5.189   0.325   1.886 -0.7086  0.7394 -0.4657
 2125TIP3   OH227933   0.507   4.842   8.108 -0.6027 -0.1315 -0.2110
 2125TIP3    H127934   0.428   4.895   8.098 -0.4004  0.1397 -0.3739
 2125TIP3    H227935   0.502   4.809   8.198 -1.5093 -1.1010 -0.5881
 2126TIP3   OH227936   2.699   6.476   1.142  0.2245  0.4172  0.2742
 2126TIP3    H127937   2.702   6.556   1.090  0.1774  0.7264  0.7400
 2126TIP3    H227938   2.630   6.492   1.206 -1.9391 -1.1493 -1.4952
 2127TIP3   OH227939   4.016   3.908   1.535  0.5407 -0.1882  0.4637
 2127TIP3    H127940   4.020   3.978   1.470 -1.1455  0.5379  1.0923
 2127TIP3    H227941   3.928   3.914   1.572 -0.1314 -3.4249 -0.3094
 2128TIP3   OH227942   0.272   6.606   7.971  0.4469 -0.2800 -0.5840
 2128TIP3    H127943   0.275   6.698   7.996  2.2437 -0.7526  1.1779
 2128TIP3    H227944   0.269   6.607   7.875 -0.4199  1.5798 -0.5835
 2129TIP3   OH227945   2.810   0.353   7.004 -0.2859 -0.2704 -0.5798
 2129TIP3    H127946   2.833   0.272   6.959  0.5196  0.4444 -1.4853
 2129TIP3    H227947   2.886   0.410   6.993 -0.4816  0.3082  0.7902
 2130TIP3   OH227948   0.496   2.702   0.034 -0.1944 -0.2366  0.0832
 2130TIP3    H127949   0.494   2.771   0.100 -1.1802 -0.1716 -0.0048
 2130TIP3    H227950   0.416   2.715  -0.017  0.1000 -0.8479 -0.5479
 2131TIP3   OH227951   2.574   0.547   2.081 -0.1718  0.8084 -0.3402
 2131TIP3    H127952   2.611   0.467   2.117 -1.7286  0.4285  0.4943
 2131TIP3    H227953   2.648   0.608   2.076  0.6783 -0.1152  0.6510
 2132TIP3   OH227954   2.781   1.357   7.460  0.6228  0.2406 -0.2128
 2132TIP3    H127955   2.741   1.444   7.464  0.7310  0.5242 -3.1211
 2132TIP3    H227956   2.857   1.369   7.402  1.3033 -1.5736  0.2412
 2133TIP3   OH227957   4.003   6.775   0.299 -0.0177 -0.3481 -0.4070
 2133TIP3    H127958   4.092   6.747   0.277  0.7724  1.2547  0.5115
 2133TIP3    H227959   4.003   6.779   0.395 -1.0923 -0.3439 -0.3979
 2134TIP3   OH227960   1.405   3.787   1.475  0.1605 -0.5890  0.0116
 2134TIP3    H127961   1.422   3.697   1.447  0.0954 -1.2935  2.0297
 2134TIP3    H227962   1.434   3.841   1.402  0.4369 -2.2362 -1.1534
 2135TIP3   OH227963   0.569   6.724   8.661 -0.0612 -0.5820 -0.2403
 2135TIP3    H127964   0.535   6.733   8.750 -1.4781  0.2267 -0.8353
 2135TIP3    H227965   0.554   6.810   8.620  0.9180 -0.8171 -1.1560
 2136TIP3   OH227966   3.548   1.279   0.397 -0.3430  0.9906  0.0229
 2136TIP3    H127967   3.474   1.340   0.393 -0.1438  1.3028  0.8246
 2136TIP3    H227968   3.604   1.314   0.467  0.7168  0.9300 -0.7715
 2137TIP3   OH227969   4.104   5.626   1.972  0.4567 -0.2208 -0.4386
 2137TIP3    H127970   4.039   5.556   1.979  0.7994 -0.4191  1.0943
 2137TIP3    H227971   4.116   5.638   1.877 -1.6649 -0.2783 -0.7702
 2138TIP3   OH227972   4.410   1.194   8.656  0.1937  0.1705 -0.1194
 2138TIP3    H127973   4.476   1.233   8.599 -0.6332  2.1263  0.1541
 2138TIP3    H227974   4.377   1.119   8.607  0.8004  0.6973 -1.3940
 2139TIP3   OH227975   6.481   2.506   6.695 -0.4301  0.0703 -0.0396
 2139TIP3    H127976   6.487   2.589   6.742  0.6157 -0.0819  0.1319
 2139TIP3    H227977   6.448   2.444   6.760  1.1090 -0.1643  0.5671
 2140TIP3   OH227978   6.465   2.622   0.814 -0.1335 -0.2710 -0.2140
 2140TIP3    H127979   6.536   2.678   0.845  1.2458 -1.4688 -1.1052
 2140TIP3    H227980   6.453   2.648   0.722  0.8826 -1.7352 -0.7944
 2141TIP3   OH227981   2.127   6.343   7.510 -0.0406 -1.0068 -0.3243
 2141TIP3    H127982   2.207   6.291   7.514 -0.3189 -1.3963  0.3028
 2141TIP3    H227983   2.148   6.423   7.557  0.0908 -0.9586 -0.4645
 2142TIP3   OH227984   1.551   3.822   8.602 -0.2054 -0.1217 -0.3836
 2142TIP3    H127985   1.526   3.833   8.694  0.3280  1.6265 -0.3989
 2142TIP3    H227986   1.647   3.820   8.603 -0.1186  1.6196 -1.0012
 2143TIP3   OH227987   0.997   5.494   1.934 -0.2078 -0.5324 -0.4034
 2143TIP3    H127988   0.953   5.485   2.019 -0.6926  0.3787 -0.5440
 2143TIP3    H227989   0.937   5.546   1.881  0.5229 -0.2676 -0.9933
 2144TIP3   OH227990   1.368   4.473   7.108 -0.0332 -0.0500  0.4603
 2144TIP3    H127991   1.450   4.522   7.100  0.4974 -1.0608 -0.8478
 2144TIP3    H227992   1.318   4.519   7.174  1.3550  0.9466  0.8580
 2145TIP3   OH227993   2.890   6.422   1.355 -0.0321  0.4445 -0.7570
 2145TIP3    H127994   2.838   6.478   1.412 -0.5203 -1.3283  0.6213
 2145TIP3    H227995   2.828   6.395   1.286  0.3542  1.9782 -1.7488
 2146TIP3   OH227996   6.692   0.019   8.296 -0.6955  0.0959 -0.7451
 2146TIP3    H127997   6.653  -0.060   8.259 -1.5307  0.1613 -0.0311
 2146TIP3    H227998   6.617   0.073   8.322 -0.1303  0.6346 -0.2088
 2147TIP3   OH227999   0.590   3.412   0.095 -0.1243  0.1461 -0.0181
 2147TIP3    H128000   0.617   3.325   0.066  0.3708  0.4094 -0.3563
 2147TIP3    H228001   0.657   3.438   0.158  0.1982  0.6300 -0.5507
 2148TIP3   OH228002   1.115   2.392   0.164  0.0440 -0.2863  0.0448
 2148TIP3    H128003   1.089   2.421   0.252  0.3979  0.9647 -0.2320
 2148TIP3    H228004   1.033   2.386   0.115  0.0543  2.2123 -0.4206
 2149TIP3   OH228005   2.798   1.285   8.526 -0.0584  0.0873 -0.3727
 2149TIP3    H128006   2.746   1.316   8.452 -0.2313 -1.6729 -1.0458
 2149TIP3    H228007   2.851   1.214   8.490  0.2419 -0.4597  1.0741
 2150TIP3   OH228008   4.201   4.087   7.845 -0.0764  0.5355 -0.2251
 2150TIP3    H128009   4.274   4.026   7.834  0.1833  1.1672 -2.5390
 2150TIP3    H228010   4.235   4.171   7.816 -1.0995  1.3278  0.7606
 2151TIP3   OH228011   2.516   4.423   0.982 -0.5805  0.0467  0.4483
 2151TIP3    H128012   2.518   4.497   1.042 -1.1082  0.9849 -0.6686
 2151TIP3    H228013   2.442   4.439   0.925  0.3202 -0.4545 -0.9170
 2152TIP3   OH228014   0.756   1.796   8.462 -0.3575 -0.0814 -0.3339
 2152TIP3    H128015   0.760   1.713   8.414  0.3000 -0.4885  0.4034
 2152TIP3    H228016   0.814   1.783   8.537  0.9369  1.5335 -0.9776
 2153TIP3   OH228017   3.640   4.953   8.569 -0.0583 -0.5201  0.2014
 2153TIP3    H128018   3.642   4.936   8.475  1.3990  0.7738 -0.0334
 2153TIP3    H228019   3.701   4.890   8.606  0.9055  0.2916  0.0234
 2154TIP3   OH228020   0.747   1.420   1.112  0.7645  0.2829  0.2387
 2154TIP3    H128021   0.798   1.377   1.181  0.2584 -2.3124 -0.9003
 2154TIP3    H228022   0.792   1.396   1.031 -0.1597  1.0842 -0.5305
 2155TIP3   OH228023   3.786   0.833   7.466 -0.3577 -0.2267 -0.2398
 2155TIP3    H128024   3.800   0.749   7.509 -0.5754 -1.7781 -2.9591
 2155TIP3    H228025   3.870   0.878   7.474  0.2380 -1.3417 -0.0028
 2156TIP3   OH228026   4.571   3.006   2.636 -0.0309  0.1752  0.3564
 2156TIP3    H128027   4.522   3.085   2.659  0.7950  1.7931 -2.7848
 2156TIP3    H228028   4.663   3.033   2.641  0.3142 -0.9883  0.4554
 2157TIP3   OH228029   3.991   1.202   2.083  0.4585 -0.0407  0.3857
 2157TIP3    H128030   4.054   1.175   2.017 -0.1042 -0.0598 -0.1537
 2157TIP3    H228031   3.999   1.137   2.152 -0.0748 -0.9482 -0.3877
 2158TIP3   OH228032   0.280   5.569   1.020 -0.1537  0.4492  0.2413
 2158TIP3    H128033   0.208   5.627   0.996 -1.6610 -0.7441  1.6164
 2158TIP3    H228034   0.335   5.621   1.078  0.0562  1.3334 -0.7191
 2159TIP3   OH228035   5.648   4.741   8.689  0.1414  0.0643 -0.1351
 2159TIP3    H128036   5.701   4.794   8.748 -0.1080 -0.0054  0.1535
 2159TIP3    H228037   5.612   4.671   8.745 -0.4628  0.2606 -0.2680
 2160TIP3   OH228038   4.870   0.244   0.947 -0.1888 -0.0900 -0.0838
 2160TIP3    H128039   4.952   0.283   0.917  0.9218 -2.5562 -0.5212
 2160TIP3    H228040   4.897   0.165   0.994 -2.2911 -0.6235  0.3102
 2161TIP3   OH228041   6.043   6.411   1.053  0.5716 -0.3482  0.6644
 2161TIP3    H128042   6.046   6.319   1.081  1.7421 -0.5032  0.0664
 2161TIP3    H228043   6.103   6.417   0.980 -1.0363  0.4771 -0.6632
 2162TIP3   OH228044   5.282   1.682   2.573 -0.0543  0.0186  0.1377
 2162TIP3    H128045   5.188   1.665   2.584 -0.3138 -1.6833 -3.3590
 2162TIP3    H228046   5.286   1.772   2.542 -0.8452 -0.5593 -1.8198
 2163TIP3   OH228047   4.716   4.644   1.603  0.0883  0.3250  0.2010
 2163TIP3    H128048   4.688   4.734   1.585 -0.9708 -0.2811 -1.3412
 2163TIP3    H228049   4.811   4.651   1.612  0.0275  1.6034  0.1072
 2164TIP3   OH228050   6.296   6.187   2.201 -0.5333 -0.0818 -0.3839
 2164TIP3    H128051   6.212   6.143   2.218 -1.5559  1.1269 -1.9838
 2164TIP3    H228052   6.272   6.278   2.184  1.2696  0.5665  0.3473
 2165TIP3   OH228053   1.379   4.895   2.021 -0.0135 -0.1553 -0.5500
 2165TIP3    H128054   1.390   4.800   2.029 -0.6679 -0.0709  2.1034
 2165TIP3    H228055   1.303   4.906   1.963  1.3011 -1.1245 -2.5885
 2166TIP3   OH228056   2.128   1.834   6.753  0.5211 -0.0501  0.2219
 2166TIP3    H128057   2.067   1.775   6.708  2.3244 -0.3353 -2.0950
 2166TIP3    H228058   2.205   1.780   6.769  1.0344  0.8748  0.9387
 2167TIP3   OH228059   1.916   0.510   7.250  0.6752 -0.0405 -0.4523
 2167TIP3    H128060   2.002   0.474   7.230  0.0573 -1.1888 -1.1130
 2167TIP3    H228061   1.856   0.437   7.239 -0.2030  0.2519  1.7515
 2168TIP3   OH228062   4.381   5.649   0.889 -0.0700  0.5162 -0.2388
 2168TIP3    H128063   4.443   5.608   0.950 -1.3568  0.0659  0.7937
 2168TIP3    H228064   4.384   5.592   0.811 -1.2112 -1.1401  0.8590
 2169TIP3   OH228065   5.530   0.990   0.422  0.5738  0.2597 -0.4330
 2169TIP3    H128066   5.507   0.991   0.514 -0.8921 -0.3023 -0.7630
 2169TIP3    H228067   5.613   0.943   0.418  0.7358  0.4432  0.6107
 2170TIP3   OH228068   4.846   1.812   7.299  0.1165 -0.6068 -0.3649
 2170TIP3    H128069   4.752   1.824   7.311  0.4136  1.9743  0.0764
 2170TIP3    H228070   4.886   1.868   7.366  2.0555 -3.6364  1.2426
 2171TIP3   OH228071   1.081   1.916   7.584 -0.1613  0.2732 -0.0920
 2171TIP3    H128072   1.147   1.983   7.569  0.6542 -0.4299  0.2654
 2171TIP3    H228073   1.045   1.937   7.670  0.8119 -0.3157  0.4773
 2172TIP3   OH228074   3.268   3.258   2.621 -0.1746 -0.5245 -0.1990
 2172TIP3    H128075   3.261   3.317   2.547 -1.3593 -0.0098  0.3002
 2172TIP3    H228076   3.356   3.222   2.615  0.9464  2.0047  0.0294
 2173TIP3   OH228077   3.086   6.143   1.985  0.2197  0.3564  0.5425
 2173TIP3    H128078   3.178   6.141   1.958 -0.1649 -0.3783 -0.8031
 2173TIP3    H228079   3.039   6.103   1.912 -1.4989  3.2516 -0.0722
 2174TIP3   OH228080   0.912   4.491   7.647  0.1603  0.0672 -0.0494
 2174TIP3    H128081   0.825   4.468   7.616 -0.4375 -0.0252  1.5806
 2174TIP3    H228082   0.904   4.582   7.675 -0.3514 -0.7670  2.9446
 2175TIP3   OH228083   3.787   5.979   2.024 -0.3330 -0.0156  0.3701
 2175TIP3    H128084   3.720   6.046   2.016  1.7993  2.1501 -0.9622
 2175TIP3    H228085   3.833   5.999   2.105 -1.8275 -2.1626  1.8737
 2176TIP3   OH228086   4.822   5.801   7.808  0.0345  0.0259 -0.2502
 2176TIP3    H128087   4.753   5.737   7.826 -0.7665  0.6007 -1.2249
 2176TIP3    H228088   4.825   5.808   7.713  1.3983  0.0742 -0.2287
 2177TIP3   OH228089   2.106   3.045   0.021 -0.8622  0.1870 -0.3551
 2177TIP3    H128090   2.102   3.139   0.038  0.2118  0.4271 -1.3098
 2177TIP3    H228091   2.040   3.031  -0.047 -1.3291  0.1651  0.0958
 2178TIP3   OH228092   0.313   0.932   8.039 -0.2565 -0.2853 -0.3665
 2178TIP3    H128093   0.240   0.991   8.018  0.1284 -0.1619 -1.4273
 2178TIP3    H228094   0.344   0.902   7.954  0.5385 -0.8275  0.1050
 2179TIP3   OH228095   4.232   4.538   2.077 -0.1330 -0.1807  0.8338
 2179TIP3    H128096   4.165   4.539   2.145 -0.4480  1.0885  0.5242
 2179TIP3    H228097   4.314   4.522   2.124 -0.5535 -1.1678  1.2780
 2180TIP3   OH228098   3.870   0.188   2.102  0.1130 -0.1879  0.1969
 2180TIP3    H128099   3.792   0.208   2.153 -0.2348 -0.8752 -0.0556
 2180TIP3    H228100   3.942   0.225   2.152 -0.5005  1.7623 -0.2876
 2181TIP3   OH228101   1.674   1.707   8.183 -0.0282 -0.3588 -0.1501
 2181TIP3    H128102   1.637   1.792   8.207 -0.9529 -0.9266  0.4857
 2181TIP3    H228103   1.632   1.645   8.242 -1.2143 -1.5892 -2.1578
 2182TIP3   OH228104   5.905   6.502   0.337 -0.2040 -1.2800 -0.7089
 2182TIP3    H128105   5.990   6.543   0.322 -0.5239 -0.5475 -0.5396
 2182TIP3    H228106   5.871   6.544   0.416 -0.5419 -1.8622 -0.5399
 2183TIP3   OH228107   2.205   6.238   2.369 -0.3673 -0.3048  0.1272
 2183TIP3    H128108   2.249   6.200   2.293 -1.7971 -1.1039 -0.3339
 2183TIP3    H228109   2.166   6.319   2.336  0.2787  0.1265  0.4021
 2184TIP3   OH228110   6.114   4.591   7.924  0.1733  0.2776 -0.4008
 2184TIP3    H128111   6.086   4.605   7.834 -0.5276 -2.0633 -0.6252
 2184TIP3    H228112   6.089   4.671   7.970 -0.6300  1.0013 -2.0147
 2185TIP3   OH228113   1.451   2.967   7.478  0.1177 -0.2644 -0.5446
 2185TIP3    H128114   1.356   2.957   7.491  0.0287  1.0263 -0.0269
 2185TIP3    H228115   1.490   2.896   7.530 -0.4970  0.6501  1.2494
 2186TIP3   OH228116   3.572   2.927   0.078 -0.2428 -0.0545 -0.8969
 2186TIP3    H128117   3.504   2.861   0.095 -0.5006  0.0368 -1.5402
 2186TIP3    H228118   3.618   2.894   0.002 -1.2416  1.1591 -2.0703
 2187TIP3   OH228119   6.538   5.740   0.430  0.5664 -0.3000  0.4777
 2187TIP3    H128120   6.498   5.654   0.420  0.8918 -0.5463  1.2537
 2187TIP3    H228121   6.612   5.739   0.369  1.4373 -1.1175  1.5065
 2188TIP3   OH228122   0.529   1.448   0.116 -0.2359  0.1850  0.4271
 2188TIP3    H128123   0.443   1.442   0.157 -0.7507 -0.7548 -0.7333
 2188TIP3    H228124   0.566   1.360   0.125 -0.0198  0.1879 -0.3759
 2189TIP3   OH228125   1.273   3.987   0.410  0.4185 -0.9367 -0.3350
 2189TIP3    H128126   1.279   4.060   0.473  0.3718 -0.6022 -0.7114
 2189TIP3    H228127   1.356   3.941   0.420  0.5577 -0.6793 -0.2751
 2190TIP3   OH228128   1.689   0.789   2.280 -0.0655  0.0827  0.2338
 2190TIP3    H128129   1.620   0.727   2.255 -0.2946 -0.5869  2.3390
 2190TIP3    H228130   1.745   0.739   2.340 -0.0787  1.7839  1.7592
 2191TIP3   OH228131   2.022   4.875   7.297  0.5824  0.2035 -0.1838
 2191TIP3    H128132   2.089   4.809   7.276  0.5706  0.9847 -3.0484
 2191TIP3    H228133   2.068   4.939   7.352  1.4750 -0.5210 -0.0597
 2192TIP3   OH228134   2.236   3.094   1.495  0.5594 -0.0302  0.1302
 2192TIP3    H128135   2.313   3.113   1.549 -0.7071 -0.6058  2.2531
 2192TIP3    H228136   2.163   3.137   1.540 -0.5032 -0.0773 -1.4399
 2193TIP3   OH228137   6.278   1.273   7.305 -0.2474 -0.2005  0.3620
 2193TIP3    H128138   6.315   1.359   7.328 -3.5566  1.8365 -1.2495
 2193TIP3    H228139   6.352   1.224   7.269  1.5346  2.4111  0.1881
 2194TIP3   OH228140   6.408   3.022   8.555 -0.3277 -0.1469 -0.2106
 2194TIP3    H128141   6.378   3.104   8.516  1.9399  0.5516 -0.5909
 2194TIP3    H228142   6.483   3.046   8.609  0.2126 -1.9299 -0.0858
 2195TIP3   OH228143   1.817   1.185   6.861  0.0623 -0.1984 -0.1277
 2195TIP3    H128144   1.883   1.187   6.792 -0.1657 -1.7319 -0.4058
 2195TIP3    H228145   1.733   1.190   6.815 -0.0725  0.7154  0.1721
 2196TIP3   OH228146   3.020   4.304   0.067 -0.0418 -0.0844 -0.4223
 2196TIP3    H128147   3.104   4.350   0.066 -0.0775  0.1068  1.4593
 2196TIP3    H228148   2.955   4.373   0.080 -0.1395 -0.5313  1.8869
 2197TIP3   OH228149   0.435   6.325   2.266  0.1273  0.3377  0.0488
 2197TIP3    H128150   0.487   6.248   2.289  0.0688  0.4454  0.5408
 2197TIP3    H228151   0.485   6.399   2.300 -1.0434  0.3612  1.8538
 2198TIP3   OH228152   2.420   0.047   2.436  0.4384  1.2145 -0.3499
 2198TIP3    H128153   2.393   0.052   2.344 -1.9077 -0.8847  0.0965
 2198TIP3    H228154   2.348   0.089   2.484  1.3532  1.7554  0.5810
 2199TIP3   OH228155   5.805   1.488   7.934  0.5627 -0.4468 -0.2619
 2199TIP3    H128156   5.747   1.456   7.865 -0.0198  1.1682 -0.5800
 2199TIP3    H228157   5.825   1.578   7.908 -1.2064  0.9184  2.5430
 2200TIP3   OH228158   0.321   6.037   7.977 -0.0697 -0.5482  0.3432
 2200TIP3    H128159   0.360   6.023   7.890 -2.3022  0.9066 -0.9720
 2200TIP3    H228160   0.243   5.982   7.977 -2.1046  2.1827 -0.0882
 2201TIP3   OH228161   3.819   4.493   7.420 -0.5684  0.6990 -0.1046
 2201TIP3    H128162   3.843   4.581   7.394  2.5417  0.0772  0.2349
 2201TIP3    H228163   3.885   4.437   7.380 -0.1392 -1.0589  2.7706
 2202TIP3   OH228164   2.005   0.047   1.603 -0.0751  0.3618 -0.4019
 2202TIP3    H128165   1.914   0.076   1.609  0.4631  1.7819  2.1580
 2202TIP3    H228166   2.004  -0.042   1.637 -0.2791  1.0437  1.4741
 2203TIP3   OH228167   0.326   1.996   7.217  0.0640 -0.5719 -0.0346
 2203TIP3    H128168   0.372   2.008   7.134  0.1787 -0.9537 -0.0290
 2203TIP3    H228169   0.317   1.901   7.227  0.5621 -0.5607  0.6559
 2204TIP3   OH228170   1.118   6.815   7.724  0.3220 -0.3690  0.2870
 2204TIP3    H128171   1.102   6.739   7.779 -0.3372  0.4965  1.3134
 2204TIP3    H228172   1.122   6.779   7.635 -0.2530 -1.5535  0.7167
 2205TIP3   OH228173   3.452   2.591   0.400  0.9306  0.7603 -0.3172
 2205TIP3    H128174   3.438   2.683   0.420  0.7371  0.6868 -0.1070
 2205TIP3    H228175   3.432   2.546   0.482 -1.2814  0.3088 -1.0391
 2206TIP3   OH228176   3.726   6.177   7.718 -0.1957  0.1189  0.3107
 2206TIP3    H128177   3.764   6.175   7.630  1.1223  0.2320  0.8486
 2206TIP3    H228178   3.667   6.102   7.721  2.0759 -1.7850  0.3024
 2207TIP3   OH228179   5.262   0.727   0.522  0.0196  0.0590 -0.1037
 2207TIP3    H128180   5.195   0.664   0.547 -1.1696  1.7070  1.1113
 2207TIP3    H228181   5.286   0.703   0.433 -2.8460 -0.0888 -0.9358
 2208TIP3   OH228182   2.684   0.852   0.743  0.3095 -0.0589 -0.0940
 2208TIP3    H128183   2.602   0.899   0.731  0.1773  0.0417  1.0372
 2208TIP3    H228184   2.732   0.903   0.809  0.8923 -0.5900 -0.0932
 2209TIP3   OH228185   2.333   3.505   2.986  0.1489  0.1089 -0.2562
 2209TIP3    H128186   2.371   3.581   2.942 -0.1171  1.1190  1.1828
 2209TIP3    H228187   2.296   3.541   3.067 -0.8496 -1.4027 -0.0075
 2210TIP3   OH228188   0.672   1.905   0.860  0.5255  0.2790  0.3929
 2210TIP3    H128189   0.748   1.955   0.830  0.1105  1.3594  1.0989
 2210TIP3    H228190   0.708   1.844   0.924  1.2709 -1.4119 -1.5032
 2211TIP3   OH228191   4.033   5.450   7.796  0.0394  0.0607  0.4945
 2211TIP3    H128192   3.992   5.380   7.746  0.8623  0.3081 -0.5661
 2211TIP3    H228193   4.112   5.411   7.833  0.4163  0.3796  0.0346
 2212TIP3   OH228194   6.435   6.673   2.370 -0.2721 -0.1204 -0.7545
 2212TIP3    H128195   6.418   6.584   2.338 -0.5854 -0.8895  1.4261
 2212TIP3    H228196   6.356   6.696   2.418 -0.3563  1.5419 -1.6205
 2213TIP3   OH228197   2.259   0.447   7.890 -0.3210  0.1777 -0.0063
 2213TIP3    H128198   2.179   0.499   7.893 -1.3826 -1.2442 -1.7532
 2213TIP3    H228199   2.242   0.381   7.823  2.2481 -0.3169 -0.2465
 2214TIP3   OH228200   0.309   4.547   1.761 -0.8992 -0.4696 -0.2388
 2214TIP3    H128201   0.309   4.549   1.857  0.4362 -0.0925 -0.2213
 2214TIP3    H228202   0.396   4.579   1.737 -2.1984  2.4065 -1.6426
 2215TIP3   OH228203   3.254   1.280   8.007  0.3888 -0.3339 -0.1394
 2215TIP3    H128204   3.219   1.297   7.919 -1.8346 -0.2955  0.7064
 2215TIP3    H228205   3.349   1.294   7.998  0.0839  0.7372 -2.2630
 2216TIP3   OH228206   4.266   2.346   2.176  0.3889 -0.2164  0.3038
 2216TIP3    H128207   4.349   2.361   2.220  0.7511  0.0887 -0.4742
 2216TIP3    H228208   4.241   2.257   2.201  0.1573  0.2429  1.8021
 2217TIP3   OH228209   6.401   6.231   2.618 -0.3187  0.6486 -0.2382
 2217TIP3    H128210   6.369   6.153   2.575 -0.6904  0.6110  0.1001
 2217TIP3    H228211   6.496   6.231   2.602 -0.1045 -0.5857  0.8705
 2218TIP3   OH228212   5.784   1.198   8.520 -0.0329  0.0167  0.0677
 2218TIP3    H128213   5.766   1.113   8.480 -0.1674  1.0932 -2.3111
 2218TIP3    H228214   5.860   1.231   8.473  0.6226  0.8289  1.6372
 2219TIP3   OH228215   6.719   6.698   1.231  0.2478  0.4027 -0.2519
 2219TIP3    H128216   6.751   6.788   1.230  0.1888  0.4187 -1.3675
 2219TIP3    H228217   6.697   6.681   1.323 -0.2113  1.6850 -0.1148
 2220TIP3   OH228218   2.089   3.464   1.742 -0.0710  0.4946 -0.3101
 2220TIP3    H128219   2.069   3.531   1.677  2.8629  1.1750 -0.6658
 2220TIP3    H228220   2.182   3.443   1.728  0.2815 -0.4559  2.6356
 2221TIP3   OH228221   6.804   4.552   0.111 -0.2864 -0.2870  0.9560
 2221TIP3    H128222   6.728   4.565   0.055  0.0781 -0.3716  0.4307
 2221TIP3    H228223   6.870   4.612   0.076 -0.0244 -0.4035  1.2433
 2222TIP3   OH228224   3.892   4.124   8.660 -0.0259  0.0742  0.1606
 2222TIP3    H128225   3.865   4.044   8.707 -0.4915 -0.0603 -0.3132
 2222TIP3    H228226   3.812   4.153   8.617  0.6259 -0.4429 -1.4630
 2223TIP3   OH228227   5.822   0.663   7.027  0.8263  0.3066 -0.2022
 2223TIP3    H128228   5.895   0.716   6.993 -0.2779  0.8966 -1.7673
 2223TIP3    H228229   5.804   0.600   6.958  0.1194 -0.1067  0.3525
 2224TIP3   OH228230   2.631   3.132   1.183  0.4416 -0.2229  0.1334
 2224TIP3    H128231   2.624   3.226   1.196  0.9555 -0.0553 -0.7155
 2224TIP3    H228232   2.540   3.102   1.175  0.2311  0.0533  1.2390
 2225TIP3   OH228233   2.566   3.197   2.737 -0.0372 -0.6192 -0.0034
 2225TIP3    H128234   2.567   3.293   2.742  0.6576 -0.6003 -0.5290
 2225TIP3    H228235   2.658   3.171   2.741 -0.1992 -1.2485 -0.2290
 2226TIP3   OH228236   1.331   6.575   2.303  0.1737 -0.6019 -0.3841
 2226TIP3    H128237   1.419   6.539   2.305  0.7187  0.6837 -0.2689
 2226TIP3    H228238   1.274   6.498   2.299  1.2645 -1.4698  0.1958
 2227TIP3   OH228239   5.223   0.255   8.296  0.8159  0.1505  0.2429
 2227TIP3    H128240   5.233   0.298   8.211 -0.3749 -1.4238 -0.7615
 2227TIP3    H228241   5.177   0.320   8.350 -1.9331 -0.0998 -1.5595
 2228TIP3   OH228242   4.124   2.957   8.044 -0.3070 -0.2939 -0.2732
 2228TIP3    H128243   4.158   2.991   7.961 -1.1814 -1.0384 -0.9484
 2228TIP3    H228244   4.184   2.887   8.068  1.8782  1.9633  1.4400
 2229TIP3   OH228245   2.058   3.845   7.926  0.2149  0.3006 -0.0174
 2229TIP3    H128246   2.042   3.939   7.927  1.1072  0.5534 -2.3702
 2229TIP3    H228247   2.032   3.818   7.838 -0.2163 -1.7127  0.6736
 2230TIP3   OH228248   1.420   3.233   0.033 -0.3173  0.6612 -0.5123
 2230TIP3    H128249   1.504   3.186   0.037 -0.4724  0.4264  0.1444
 2230TIP3    H228250   1.369   3.195   0.104 -1.1820  0.4281 -1.2419
 2231TIP3   OH228251   6.755   3.567   1.728 -0.4863  0.1660 -0.1761
 2231TIP3    H128252   6.717   3.648   1.691 -0.0034 -0.2096 -1.5756
 2231TIP3    H228253   6.821   3.598   1.789 -1.8682  0.8245  1.0558
 2232TIP3   OH228254   4.554   3.106   0.430  0.1272 -0.0163  0.1506
 2232TIP3    H128255   4.608   3.176   0.394  0.7797 -0.9029 -0.6588
 2232TIP3    H228256   4.578   3.029   0.379 -0.8740 -0.7444  0.7405
 2233TIP3   OH228257   5.357   0.157   2.116 -0.1454 -0.0181 -0.1213
 2233TIP3    H128258   5.311   0.132   2.195 -1.1498 -0.5847 -0.8662
 2233TIP3    H228259   5.290   0.198   2.061  0.6409  0.8215 -0.4838
 2234TIP3   OH228260   0.948   0.199   7.746  0.2593 -0.0316  0.1876
 2234TIP3    H128261   0.893   0.209   7.668  1.8191  0.8521 -0.8600
 2234TIP3    H228262   0.984   0.110   7.738  1.6510  0.5896 -1.0084
 2235TIP3   OH228263   0.674   4.976   1.482  0.5663  0.2130 -0.1649
 2235TIP3    H128264   0.593   4.957   1.528  0.5135 -0.0347 -0.3566
 2235TIP3    H228265   0.719   5.040   1.536  0.0633  0.6385 -0.2487
 2236TIP3   OH228266   4.065   1.279   0.063 -0.0497 -0.3946  0.1847
 2236TIP3    H128267   4.047   1.354   0.006 -2.2889 -2.2144 -1.7322
 2236TIP3    H228268   3.988   1.274   0.120 -0.2908 -1.5991 -0.2150
 2237TIP3   OH228269   1.920   1.323   0.651 -0.2479  0.3080  0.6388
 2237TIP3    H128270   1.959   1.404   0.617  2.0835  0.8464  4.0916
 2237TIP3    H228271   1.834   1.349   0.683 -0.5574  0.8077 -0.5330
 2238TIP3   OH228272   2.409   6.463   7.951  0.0740  0.2790 -0.1611
 2238TIP3    H128273   2.337   6.526   7.950 -0.5365 -0.4056 -1.1391
 2238TIP3    H228274   2.380   6.394   8.011 -0.9362 -0.9093 -1.9352
 2239TIP3   OH228275   6.079   1.950   6.867  0.5773  0.3747  0.2886
 2239TIP3    H128276   6.161   1.954   6.819 -0.6816  1.1237 -1.9701
 2239TIP3    H228277   6.060   1.856   6.874  0.3343  0.2398 -1.6302
 2240TIP3   OH228278   1.199   4.000   0.746  0.0230 -0.2051  0.4924
 2240TIP3    H128279   1.265   3.952   0.796  0.9834  0.8413  0.2741
 2240TIP3    H228280   1.133   4.024   0.811 -0.8935 -2.4247  0.4812
 2241TIP3   OH228281   1.197   6.204   1.080  0.0054 -0.0754 -0.0625
 2241TIP3    H128282   1.181   6.129   1.137 -2.3937 -0.7608 -1.4974
 2241TIP3    H228283   1.142   6.274   1.116 -0.8450 -0.2478 -0.9938
 2242TIP3   OH228284   5.243   0.007   7.754  0.6434 -0.3091  0.2438
 2242TIP3    H128285   5.210  -0.056   7.690  0.5161 -0.5384  0.5313
 2242TIP3    H228286   5.331   0.028   7.724  0.3589  0.0507 -0.3474
 2243TIP3   OH228287   2.130   0.285   2.161  0.1172  0.1751 -0.1492
 2243TIP3    H128288   2.118   0.378   2.178  1.2854  0.2195  0.5402
 2243TIP3    H228289   2.102   0.242   2.241  0.2582 -0.0040 -0.1951
 2244TIP3   OH228290   3.040   3.257   7.833  0.0200  0.0740  0.0281
 2244TIP3    H128291   3.117   3.211   7.867  2.0430  2.9072 -0.3162
 2244TIP3    H228292   2.999   3.295   7.910 -0.3533 -0.4448  0.0904
 2245TIP3   OH228293   0.399   1.305   8.266 -0.1877 -0.1323 -0.5104
 2245TIP3    H128294   0.420   1.345   8.350  0.4706 -0.2498 -0.6148
 2245TIP3    H228295   0.445   1.359   8.201  1.5460 -1.5954 -0.5817
 2246TIP3   OH228296   1.175   0.691   0.607  0.5900  0.8502 -0.4843
 2246TIP3    H128297   1.135   0.679   0.693 -0.5831 -0.4416 -1.1750
 2246TIP3    H228298   1.232   0.615   0.595  0.5484  0.8874 -0.9577
 2247TIP3   OH228299   5.031   0.883   7.212  0.3460  0.7659 -0.3480
 2247TIP3    H128300   5.051   0.970   7.247  1.5087  0.2054  0.4504
 2247TIP3    H228301   4.987   0.838   7.284  2.2628 -0.2113  0.2813
 2248TIP3   OH228302   5.829   3.240   0.536 -0.1776  0.2551 -0.1900
 2248TIP3    H128303   5.918   3.249   0.569 -0.1554  0.4287 -0.2939
 2248TIP3    H228304   5.781   3.196   0.606 -0.1556  0.7004  0.1145
 2249TIP3   OH228305   4.209   0.502   2.276 -0.2728  0.3660  0.0170
 2249TIP3    H128306   4.274   0.438   2.303 -1.1429  0.2715  2.1074
 2249TIP3    H228307   4.154   0.456   2.212 -0.9748 -1.0728  1.5782
 2250TIP3   OH228308   5.404   6.792   1.886  0.2385  0.4538  0.3251
 2250TIP3    H128309   5.410   6.826   1.976 -2.9627 -0.4786  1.0223
 2250TIP3    H228310   5.381   6.699   1.897 -0.6236  0.4150 -1.4411
 2251TIP3   OH228311   1.264   3.906   1.160 -0.4437 -0.0868 -0.3065
 2251TIP3    H128312   1.173   3.927   1.180 -0.2344 -0.3464  0.9540
 2251TIP3    H228313   1.295   3.982   1.109 -0.8311  0.8868  0.8596
 2252TIP3   OH228314   4.142   3.931   2.484 -0.2250  0.0625 -0.2896
 2252TIP3    H128315   4.139   3.835   2.487  0.9397  0.0453  0.7828
 2252TIP3    H228316   4.051   3.957   2.466 -0.5621 -1.2311 -0.5513
 2253TIP3   OH228317   5.680   3.713   8.114  0.0319  0.7478  0.3631
 2253TIP3    H128318   5.596   3.709   8.068 -0.7537  2.8470  1.4621
 2253TIP3    H228319   5.724   3.632   8.091 -1.9405 -0.0298 -0.9397
 2254TIP3   OH228320   1.287   2.892   8.068 -0.5735 -0.0785  0.2376
 2254TIP3    H128321   1.263   2.965   8.011  0.3736 -1.0522 -1.4672
 2254TIP3    H228322   1.313   2.934   8.150 -1.7272  1.3725 -0.0891
 2255TIP3   OH228323   1.061   1.787   7.046 -0.3093  0.5234  0.2104
 2255TIP3    H128324   0.988   1.826   6.998 -0.0942  0.9123  0.1922
 2255TIP3    H228325   1.020   1.746   7.122 -0.9456 -2.1063 -1.4251
 2256TIP3   OH228326   4.684   2.884   1.193 -0.4199  0.1492 -0.1441
 2256TIP3    H128327   4.763   2.931   1.167 -0.8309 -0.3595 -2.4700
 2256TIP3    H228328   4.716   2.806   1.238  0.3087  1.1990  1.2384
 2257TIP3   OH228329   1.045   3.832   7.495  0.8898  0.5803 -0.2181
 2257TIP3    H128330   1.016   3.788   7.575  1.5809  1.0538  0.3074
 2257TIP3    H228331   1.131   3.795   7.477  1.2481  1.3184 -0.0652
 2258TIP3   OH228332   5.967   4.355   0.598  0.2449  0.1961 -0.0702
 2258TIP3    H128333   6.035   4.290   0.615  0.6021  0.6498  0.2378
 2258TIP3    H228334   6.007   4.417   0.538  0.8969  1.7206  1.8423
 2259TIP3   OH228335   5.542   6.824   0.493 -0.0311  0.0105 -0.4457
 2259TIP3    H128336   5.472   6.766   0.462  1.2652 -1.2135 -1.2506
 2259TIP3    H228337   5.499   6.906   0.513 -1.8169 -0.9531 -0.1458
 2260TIP3   OH228338   3.912   4.949   7.494  0.0154  0.0681  0.2162
 2260TIP3    H128339   3.992   4.992   7.522 -1.4072  2.6573  0.6230
 2260TIP3    H228340   3.872   4.916   7.575  0.0566 -0.1172  0.1624
 2261TIP3   OH228341   3.325   0.230   1.963  0.3462  0.4798  0.4242
 2261TIP3    H128342   3.242   0.213   1.920  0.7209 -0.9453  0.2399
 2261TIP3    H228343   3.370   0.291   1.905 -0.6548  1.4857  0.6571
 2262TIP3   OH228344   1.495   4.975   7.743 -0.5655 -0.3649 -0.5205
 2262TIP3    H128345   1.431   5.045   7.732 -0.5029 -0.1207  0.5669
 2262TIP3    H228346   1.577   5.012   7.710 -0.6802 -0.1746 -0.5942
 2263TIP3   OH228347   5.451   3.952   0.448  0.8029 -0.6119 -0.2063
 2263TIP3    H128348   5.368   3.967   0.494  1.0232  0.8622 -0.2391
 2263TIP3    H228349   5.443   3.863   0.413 -1.7373  0.2290 -2.1394
 2264TIP3   OH228350   4.483   6.643   3.339  0.4719 -0.0384  0.0763
 2264TIP3    H128351   4.542   6.595   3.397  1.7473  1.2381 -0.1063
 2264TIP3    H228352   4.541   6.695   3.284 -0.6965 -0.8576 -2.0697
 2265TIP3   OH228353   3.452   4.963   2.405  0.0840  0.4502  0.2872
 2265TIP3    H128354   3.545   4.984   2.413 -0.1792  1.0271  2.6438
 2265TIP3    H228355   3.451   4.874   2.370  1.4596  0.8449 -0.8765
 2266TIP3   OH228356   2.012   1.789   0.686 -0.2177  0.3343 -0.0996
 2266TIP3    H128357   2.030   1.696   0.670  1.7090  0.1822  2.2797
 2266TIP3    H228358   1.997   1.794   0.781 -0.3387  2.4441 -0.1853
 2267TIP3   OH228359   5.838   4.694   7.420 -0.6466 -0.3707 -0.4453
 2267TIP3    H128360   5.791   4.611   7.431 -0.5024 -0.5968 -1.4321
 2267TIP3    H228361   5.781   4.748   7.366  0.1517 -0.6196 -1.5900
 2268TIP3   OH228362   4.216   1.724   7.425  0.4576  0.2486 -0.5393
 2268TIP3    H128363   4.195   1.646   7.374  1.3385  0.4211 -1.1956
 2268TIP3    H228364   4.268   1.778   7.365 -0.2715  1.4167 -0.1485
 2269TIP3   OH228365   6.570   0.780   0.706  0.3924  0.3941  0.2147
 2269TIP3    H128366   6.644   0.825   0.745  0.5752 -3.0197  4.7001
 2269TIP3    H228367   6.579   0.689   0.735 -4.4608 -0.6716 -0.6419
 2270TIP3   OH228368   2.626   3.978   1.960  0.5480  0.4588 -0.6155
 2270TIP3    H128369   2.606   3.902   2.014  1.6095  1.1133  0.7984
 2270TIP3    H228370   2.721   3.972   1.944  0.3501  0.5889 -1.9546
 2271TIP3   OH228371   3.582   0.363   0.982  0.2284 -0.3699  0.1682
 2271TIP3    H128372   3.608   0.281   1.024  1.8324  0.2696  0.4812
 2271TIP3    H228373   3.632   0.431   1.026  1.2074  0.4529 -2.0468
 2272TIP3   OH228374   4.407   0.755   0.612  0.1950 -0.0038  0.2536
 2272TIP3    H128375   4.432   0.676   0.660 -1.0276  1.0812  2.8736
 2272TIP3    H228376   4.322   0.780   0.648  0.2470  2.1680 -0.9168
 2273TIP3   OH228377   2.380   1.419   2.487 -0.0354  0.1804  0.1493
 2273TIP3    H128378   2.389   1.329   2.518 -1.2790  0.0921  0.3024
 2273TIP3    H228379   2.466   1.441   2.453  0.0120 -1.4278 -0.8748
 2274TIP3   OH228380   3.537   4.533   7.188 -0.0899  0.0943  0.1475
 2274TIP3    H128381   3.525   4.552   7.282  0.5159  0.0573  0.2360
 2274TIP3    H228382   3.631   4.544   7.174  0.0107 -1.1163 -0.1948
 2275TIP3   OH228383   4.121   2.733   1.791 -0.5592  1.0016 -0.3131
 2275TIP3    H128384   4.054   2.801   1.792 -1.9447 -0.3179 -0.2741
 2275TIP3    H228385   4.113   2.692   1.704 -1.3399 -0.5887  0.4573
 2276TIP3   OH228386   2.192   4.575   8.032  0.4448  0.0588  0.2718
 2276TIP3    H128387   2.213   4.623   8.112 -0.5451  2.7342 -0.9531
 2276TIP3    H228388   2.143   4.638   7.978  0.2021 -1.9488 -2.0303
 2277TIP3   OH228389   4.668   3.722   7.804 -0.2373 -0.1370 -0.4515
 2277TIP3    H128390   4.746   3.774   7.824 -0.3238  0.3449 -1.3395
 2277TIP3    H228391   4.643   3.749   7.716 -0.8818 -0.9507 -0.5277
 2278TIP3   OH228392   4.595   5.431   0.241  0.1314  0.4522  0.3561
 2278TIP3    H128393   4.567   5.512   0.199 -0.6544 -0.1873 -0.3664
 2278TIP3    H228394   4.533   5.418   0.312  1.2639  1.3570  1.5645
 2279TIP3   OH228395   6.362   2.617   2.324  0.0826  0.2014  0.4590
 2279TIP3    H128396   6.323   2.686   2.379  0.9934  0.1378  1.2026
 2279TIP3    H228397   6.427   2.663   2.271 -1.3795  0.4202 -1.2445
 2280TIP3   OH228398   2.896   3.307   7.607  0.1633  0.4420  0.1371
 2280TIP3    H128399   2.870   3.392   7.642  0.1412  0.9920 -1.1761
 2280TIP3    H228400   2.970   3.280   7.662 -0.3484  0.9048  1.0922
 2281TIP3   OH228401   0.144   5.166   1.845  0.0421  0.2897 -0.3258
 2281TIP3    H128402   0.101   5.139   1.926  0.1859 -0.4282 -0.4882
 2281TIP3    H228403   0.184   5.251   1.867  0.1083  0.0887  0.3614
 2282TIP3   OH228404   3.869   2.432   2.359  0.9591  0.0466 -0.1095
 2282TIP3    H128405   3.807   2.393   2.421  0.7398  0.8892  0.2078
 2282TIP3    H228406   3.866   2.374   2.283  1.4660 -1.1997  0.7704
 2283TIP3   OH228407   1.747   1.243   2.792 -0.2167  0.1435  0.4084
 2283TIP3    H128408   1.781   1.262   2.879  2.0097  1.7293 -0.6915
 2283TIP3    H228409   1.680   1.310   2.777  1.6096  1.9118 -0.2168
 2284TIP3   OH228410   2.867   2.501   7.951  0.1884 -0.0352  0.3615
 2284TIP3    H128411   2.880   2.565   8.021 -1.0358  1.3846 -0.6414
 2284TIP3    H228412   2.842   2.421   7.996  1.3638  0.2662  1.6355
 2285TIP3   OH228413   1.729   5.170   7.757 -0.0387 -0.4110 -0.0428
 2285TIP3    H128414   1.721   5.131   7.844 -0.6184 -0.4465 -0.1059
 2285TIP3    H228415   1.763   5.258   7.773  0.5144 -0.6597  0.1612
 2286TIP3   OH228416   4.969   2.173   0.098 -0.1966  0.1830  0.4525
 2286TIP3    H128417   4.892   2.139   0.144 -0.8881  0.0479 -0.7570
 2286TIP3    H228418   5.042   2.125   0.136 -0.8351 -0.5018  0.8599
 2287TIP3   OH228419   0.481   0.641   6.955 -0.0759 -0.0671 -0.6739
 2287TIP3    H128420   0.484   0.567   6.894  0.0640 -1.1192  0.5443
 2287TIP3    H228421   0.448   0.602   7.037 -0.3348  1.3048 -0.1075
 2288TIP3   OH228422   0.316   6.222   1.108  0.1408  0.2396  0.6448
 2288TIP3    H128423   0.222   6.240   1.118  0.0465 -0.2595  0.6716
 2288TIP3    H228424   0.338   6.169   1.185  0.2118 -0.5625  0.0732
 2289TIP3   OH228425   6.666   6.283   1.791  0.0196 -1.0219  0.1867
 2289TIP3    H128426   6.756   6.287   1.823 -0.1973 -0.2402  0.7273
 2289TIP3    H228427   6.618   6.240   1.862 -0.2982 -0.0934  0.5502
 2290TIP3   OH228428   6.083   3.435   1.827  0.5831  0.3235 -0.0653
 2290TIP3    H128429   6.092   3.511   1.770  2.0240 -0.1391 -0.4955
 2290TIP3    H228430   5.989   3.428   1.842  0.4429  2.4609  0.3913
 2291TIP3   OH228431   6.292   2.407   8.041 -0.4619  0.4731  0.0236
 2291TIP3    H128432   6.231   2.338   8.016 -1.1332  1.0674 -0.0042
 2291TIP3    H228433   6.311   2.453   7.960 -0.2029  0.4663  0.0811
 2292TIP3   OH228434   6.652   5.522   0.026 -0.5941  0.6531 -0.0130
 2292TIP3    H128435   6.702   5.574   0.089  0.2309  1.3772 -1.2088
 2292TIP3    H228436   6.718   5.487  -0.034 -1.4229  1.0581 -1.2190
 2293TIP3   OH228437   5.487   3.946   2.256  0.4613 -0.4652 -0.2732
 2293TIP3    H128438   5.483   3.887   2.330  0.3249 -1.0530 -0.7400
 2293TIP3    H228439   5.400   3.941   2.216  0.7088 -0.6164 -0.8141
 2294TIP3   OH228440   3.954   1.548   7.699 -0.0947  0.0983  0.6548
 2294TIP3    H128441   4.045   1.536   7.672 -0.5031 -2.1872  0.1349
 2294TIP3    H228442   3.903   1.505   7.631 -1.3808 -1.5657  2.5506
 2295TIP3   OH228443   0.449   5.695   0.003  0.4194  0.3925  0.3759
 2295TIP3    H128444   0.384   5.759   0.031  1.9348  1.1679  2.2943
 2295TIP3    H228445   0.482   5.729  -0.080 -2.4336 -0.6990 -1.3737
 2296TIP3   OH228446   5.186   3.911   0.043 -0.1353 -0.1548  0.1922
 2296TIP3    H128447   5.228   3.924   0.128  1.1499  0.3428 -0.4972
 2296TIP3    H228448   5.233   3.837   0.004 -0.1546  0.1503 -0.4244
 2297TIP3   OH228449   3.133   3.114   2.306  0.3598 -0.1152 -0.0352
 2297TIP3    H128450   3.053   3.063   2.322 -0.3474  0.9602 -0.0338
 2297TIP3    H228451   3.102   3.203   2.290  1.5920  0.4301  0.4643
 2298TIP3   OH228452   4.146   0.344   2.056 -0.0318 -0.2436 -0.2249
 2298TIP3    H128453   4.097   0.402   1.997  1.0801 -1.8545 -2.9512
 2298TIP3    H228454   4.236   0.377   2.051  0.0654 -0.3533  0.6843
 2299TIP3   OH228455   3.145   4.342   0.687  0.7784  0.2591 -0.4770
 2299TIP3    H128456   3.238   4.354   0.668  0.9074  2.1288  1.0812
 2299TIP3    H228457   3.139   4.342   0.782 -0.9678  1.6605 -0.5338
 2300TIP3   OH228458   6.473   3.605   2.674  0.4225  0.1553  0.3926
 2300TIP3    H128459   6.411   3.614   2.747 -0.3147 -0.2770 -0.1658
 2300TIP3    H228460   6.427   3.640   2.598  0.9416  0.0191  0.0088
 2301TIP3   OH228461   3.079   5.226   7.192 -0.7550  0.2714  0.2805
 2301TIP3    H128462   3.040   5.281   7.124  1.2506  0.3909 -0.8416
 2301TIP3    H228463   3.062   5.273   7.274  0.8148  2.5797 -0.6363
 2302TIP3   OH228464   0.154   1.161   2.607 -0.2067 -0.2306 -0.7592
 2302TIP3    H128465   0.079   1.204   2.647  0.8260 -2.7860  5.0866
 2302TIP3    H228466   0.117   1.094   2.549 -2.5460 -0.8709  1.3044
 2303TIP3   OH228467   6.114   6.651   0.526 -0.5324  0.5946 -0.4228
 2303TIP3    H128468   6.110   6.646   0.431 -1.2201  0.0998 -0.3710
 2303TIP3    H228469   6.068   6.732   0.548 -0.6103  0.5690 -0.4932
 2304TIP3   OH228470   0.358   5.446   0.136 -0.5509 -0.2799 -0.4688
 2304TIP3    H128471   0.411   5.526   0.144  1.3768 -1.5767  0.3926
 2304TIP3    H228472   0.345   5.436   0.042 -0.2449  0.6921 -0.6294
 2305TIP3   OH228473   4.913   3.964   2.147 -0.0352 -0.1673  0.3563
 2305TIP3    H128474   4.927   3.994   2.237  0.5323  1.8947 -0.3619
 2305TIP3    H228475   4.957   4.030   2.093 -0.5562 -1.2373 -1.4488
 2306TIP3   OH228476   3.955   5.223   1.874  0.0614 -0.5149  0.2003
 2306TIP3    H128477   3.882   5.203   1.817  0.7018  0.4726 -1.0204
 2306TIP3    H228478   3.925   5.299   1.925 -0.3193 -1.0700  0.8080
 2307TIP3   OH228479   0.648   2.060   1.218  0.0909  0.0524 -0.7064
 2307TIP3    H128480   0.590   1.986   1.204  0.4970 -0.1408 -1.3813
 2307TIP3    H228481   0.603   2.134   1.176 -0.3674  0.2207  0.0643
 2308TIP3   OH228482   3.186   6.753   1.711  0.1863 -0.3252 -0.0661
 2308TIP3    H128483   3.137   6.806   1.774  0.1303 -0.3632 -0.0773
 2308TIP3    H228484   3.137   6.670   1.707 -1.0191  0.4155 -1.7323
 2309TIP3   OH228485   0.293   6.145   0.085 -0.1739 -0.2724  0.5346
 2309TIP3    H128486   0.204   6.171   0.107 -0.4878 -0.3292 -0.6076
 2309TIP3    H228487   0.308   6.182  -0.002  1.8266  1.9402  1.6911
 2310TIP3   OH228488   1.492   2.441   2.130 -0.5386 -0.5501 -0.1190
 2310TIP3    H128489   1.478   2.347   2.133  1.1125 -0.8075  0.3593
 2310TIP3    H228490   1.533   2.462   2.214 -0.8266  0.5988 -0.2415
 2311TIP3   OH228491   5.005   5.088   8.579  0.0487 -0.6554 -0.2639
 2311TIP3    H128492   4.919   5.086   8.537  0.5124 -0.1314 -1.2792
 2311TIP3    H228493   5.066   5.104   8.507  0.7466  2.0468  0.8063
 2312TIP3   OH228494   0.096   2.921   2.337  0.3884  0.0096  0.1592
 2312TIP3    H128495   0.031   2.991   2.346  1.8542  1.1889  2.5206
 2312TIP3    H228496   0.152   2.930   2.414  0.9997 -3.4579  0.2773
 2313TIP3   OH228497   5.266   6.659   8.019 -0.3284  0.1107  0.6736
 2313TIP3    H128498   5.231   6.664   7.930 -0.4657 -0.8698  0.6574
 2313TIP3    H228499   5.188   6.650   8.074 -0.1698 -2.7416  0.5878
 2314TIP3   OH228500   5.269   4.534   7.438  0.0045  0.2618 -0.0374
 2314TIP3    H128501   5.303   4.542   7.348  3.2096 -1.2462  0.8825
 2314TIP3    H228502   5.230   4.447   7.442 -1.3743  0.8414 -0.2644
 2315TIP3   OH228503   1.934   5.672   7.533 -0.3434 -0.1941 -0.1067
 2315TIP3    H128504   1.921   5.734   7.604  2.0370 -0.5890  0.7701
 2315TIP3    H228505   1.962   5.726   7.459  0.5733 -0.0854  0.3060
 2316TIP3   OH228506   0.620   5.055   1.926  0.0224 -0.5307 -0.3470
 2316TIP3    H128507   0.674   5.115   1.979  1.7947 -2.7344  0.5010
 2316TIP3    H228508   0.539   5.045   1.976 -0.6003  1.5753 -0.8249
 2317TIP3   OH228509   0.439   1.443   8.498 -0.1983  0.4491  0.3897
 2317TIP3    H128510   0.499   1.422   8.569 -0.2182 -0.6125  0.1164
 2317TIP3    H228511   0.436   1.539   8.496  0.9160  0.5101  0.8752
 2318TIP3   OH228512   0.500   4.388   2.540  0.0840  0.0243  0.4473
 2318TIP3    H128513   0.574   4.354   2.489  0.6338 -1.9238  2.3772
 2318TIP3    H228514   0.540   4.421   2.620 -0.8742  1.9657  0.1807
 2319TIP3   OH228515   1.626   3.435   7.710 -0.6647  0.4688 -0.2894
 2319TIP3    H128516   1.679   3.511   7.736 -0.5629 -0.0225  0.9693
 2319TIP3    H228517   1.539   3.471   7.695 -0.9667  0.6354  1.6823
 2320TIP3   OH228518   0.267   1.080   6.626  0.3070  0.1817 -0.0155
 2320TIP3    H128519   0.345   1.115   6.583 -1.5358  1.3392 -2.6779
 2320TIP3    H228520   0.281   0.986   6.630  3.2379  0.5790  2.7435
 2321TIP3   OH228521   3.502   6.196   2.078  0.2153  0.0409 -0.0908
 2321TIP3    H128522   3.563   6.253   2.126 -0.8623  2.2604 -1.1757
 2321TIP3    H228523   3.425   6.191   2.134 -0.1206  0.6185 -0.4915
 2322TIP3   OH228524   1.915   6.316   6.412 -0.5447  0.6320  0.0743
 2322TIP3    H128525   1.820   6.313   6.418 -0.4843  0.3383  0.9620
 2322TIP3    H228526   1.943   6.225   6.406 -0.2749  0.6609  0.7469
 2323TIP3   OH228527   4.524   6.206   8.289  0.1315  0.1208  0.1890
 2323TIP3    H128528   4.525   6.133   8.351 -0.8776  0.3919  0.5456
 2323TIP3    H228529   4.432   6.217   8.266  0.1665  1.7431  0.7006
 2324TIP3   OH228530   5.847   2.744   1.226 -0.5499  0.4093  0.3626
 2324TIP3    H128531   5.753   2.727   1.219 -0.4979  0.3363 -0.2276
 2324TIP3    H228532   5.859   2.780   1.314 -1.1280  0.4043  0.4447
 2325TIP3   OH228533   1.889   5.600   8.146  0.1804 -0.3566 -0.0955
 2325TIP3    H128534   1.845   5.522   8.114  1.7449 -1.6554  0.8065
 2325TIP3    H228535   1.982   5.582   8.137  0.5948  1.5042 -0.0732
 2326TIP3   OH228536   2.949   5.379   1.619 -0.4444 -0.5763  0.1878
 2326TIP3    H128537   2.857   5.400   1.638 -1.1025 -2.6185 -0.4851
 2326TIP3    H228538   2.997   5.458   1.645 -2.3949  0.6379  0.3550
 2327TIP3   OH228539   5.683   4.221   8.456 -0.1796  0.1172  0.5097
 2327TIP3    H128540   5.712   4.266   8.536  1.8056 -1.2877  0.6505
 2327TIP3    H228541   5.662   4.132   8.485  0.1369 -0.2799 -0.4662
 2328TIP3   OH228542   0.970   6.840   0.401  0.1626  0.4973 -0.4208
 2328TIP3    H128543   1.066   6.840   0.403  0.1524  0.6106  0.1255
 2328TIP3    H228544   0.946   6.748   0.407  0.2257  0.5162  0.1390
 2329TIP3   OH228545   2.382   1.219   1.932 -0.0299 -0.6474  0.5973
 2329TIP3    H128546   2.290   1.204   1.910 -0.0557  0.3352  0.0009
 2329TIP3    H228547   2.395   1.313   1.918  1.1819 -0.8576  0.2270
 2330TIP3   OH228548   2.388   6.845   7.021  0.8570  0.3485 -0.3174
 2330TIP3    H128549   2.344   6.801   6.948  2.3639 -1.8615  0.0033
 2330TIP3    H228550   2.456   6.898   6.979  0.7533  0.2578 -0.6050
 2331TIP3   OH228551   2.279   1.890   2.582  0.2204 -0.0418 -0.0676
 2331TIP3    H128552   2.229   1.949   2.639 -0.2934 -1.5128  1.0457
 2331TIP3    H228553   2.217   1.863   2.515  0.6900  1.2988 -1.0923
 2332TIP3   OH228554   1.351   0.017   0.780 -0.3915 -0.1561  0.0256
 2332TIP3    H128555   1.274   0.032   0.725 -0.8960 -0.0600  0.7405
 2332TIP3    H228556   1.424   0.012   0.718 -1.4067 -4.3337 -1.1289
 2333TIP3   OH228557   2.419   4.150   0.169 -0.0687  0.3207  0.0388
 2333TIP3    H128558   2.374   4.109   0.243 -0.9167 -1.2942 -1.2999
 2333TIP3    H228559   2.511   4.127   0.181 -0.0964  0.6080  0.8973
 2334TIP3   OH228560   6.089   4.767   8.648  0.1354 -0.6116  0.5929
 2334TIP3    H128561   6.147   4.771   8.724  0.1242 -1.5860  0.6624
 2334TIP3    H228562   6.080   4.674   8.629  0.7991 -0.3597 -1.1144
 2335TIP3   OH228563   4.874   4.974   1.479  0.3023  0.0364 -0.3612
 2335TIP3    H128564   4.938   5.012   1.419  0.3109  2.0738  0.8410
 2335TIP3    H228565   4.807   5.042   1.489  0.1155 -0.3701  1.5933
 2336TIP3   OH228566   3.363   4.694   7.833  0.3544 -0.0591  0.0373
 2336TIP3    H128567   3.323   4.728   7.913 -1.7305 -1.9222 -0.1523
 2336TIP3    H228568   3.361   4.769   7.772 -2.6842  0.0399  0.1274
 2337TIP3   OH228569   4.735   1.466   0.135 -0.0405  0.3431 -0.0906
 2337TIP3    H128570   4.737   1.548   0.184 -1.7187 -0.0387  0.6949
 2337TIP3    H228571   4.776   1.487   0.051  0.2398  1.7821  0.3836
 2338TIP3   OH228572   6.499   4.562   0.259 -0.2581  0.2237  0.1872
 2338TIP3    H128573   6.519   4.556   0.166  0.2591 -0.1093  0.3150
 2338TIP3    H228574   6.425   4.623   0.264 -0.9176 -0.5054 -0.5205
 2339TIP3   OH228575   3.352   5.862   6.651  0.7595 -0.4738 -0.4879
 2339TIP3    H128576   3.367   5.770   6.671  0.0852 -0.3822  0.4534
 2339TIP3    H228577   3.263   5.865   6.616  0.3343 -0.0191  0.6094
 2340TIP3   OH228578   0.850   5.553   1.584 -0.2563 -0.0164 -0.1101
 2340TIP3    H128579   0.780   5.618   1.575 -0.8650 -0.3634  1.6720
 2340TIP3    H228580   0.804   5.471   1.600  0.5547 -0.5377 -0.3692
 2341TIP3   OH228581   5.127   6.357   8.312 -0.5518 -0.1863 -0.0098
 2341TIP3    H128582   5.131   6.404   8.396 -2.4043 -0.9538  0.5551
 2341TIP3    H228583   5.150   6.267   8.334 -2.9102 -0.8287  0.1054
 2342TIP3   OH228584   2.029   3.231   0.208  0.2529 -0.3536  0.4771
 2342TIP3    H128585   2.035   3.196   0.297  1.1675 -0.4220  0.4014
 2342TIP3    H228586   2.107   3.286   0.199 -0.0988  0.0684 -0.1096
 2343TIP3   OH228587   4.730   4.582   1.264 -0.6114 -0.6879  0.2627
 2343TIP3    H128588   4.652   4.636   1.250  0.0111  0.2860  0.4712
 2343TIP3    H228589   4.797   4.644   1.292  0.5979 -1.3035 -1.1478
 2344TIP3   OH228590   5.156   1.655   0.456  0.3685  0.2021  0.1988
 2344TIP3    H128591   5.115   1.715   0.519  0.1599  1.1409 -0.7809
 2344TIP3    H228592   5.168   1.709   0.378  3.9105  0.1170  0.5455
 2345TIP3   OH228593   5.682   2.160   2.099  0.0070 -0.4883  0.7553
 2345TIP3    H128594   5.761   2.138   2.149  1.7271  0.8916 -1.1726
 2345TIP3    H228595   5.688   2.107   2.019  0.5634  1.6341 -0.7152
 2346TIP3   OH228596   6.646   3.790   7.702 -0.0946 -0.1150 -0.0997
 2346TIP3    H128597   6.618   3.816   7.614  2.8481  0.6555 -0.9158
 2346TIP3    H228598   6.566   3.760   7.745 -1.6365 -0.5711 -3.0445
 2347TIP3   OH228599   1.509   2.692   1.822 -0.0755 -0.2092 -0.0328
 2347TIP3    H128600   1.444   2.755   1.854 -1.4416 -0.9075 -1.3178
 2347TIP3    H228601   1.464   2.608   1.823  0.4371 -0.5609 -1.9160
 2348TIP3   OH228602   4.769   0.923   2.337 -0.5370 -0.3020  0.0332
 2348TIP3    H128603   4.854   0.961   2.358 -0.9567  0.9322 -0.4166
 2348TIP3    H228604   4.742   0.876   2.416  0.8957 -1.3701 -0.0768
 2349TIP3   OH228605   6.032   3.155   2.929 -0.2685 -0.0131  0.2322
 2349TIP3    H128606   5.991   3.079   2.888  1.4825 -0.9922  0.2003
 2349TIP3    H228607   6.124   3.150   2.901  0.1404  1.4307  1.2283
 2350TIP3   OH228608   1.991   1.183   7.905 -0.0930  0.0350  0.2883
 2350TIP3    H128609   1.981   1.165   7.999  0.0417 -3.0850 -0.2018
 2350TIP3    H228610   2.085   1.187   7.892 -0.1105  0.3389  0.2475
 2351TIP3   OH228611   2.270   2.123   6.883 -0.1534  0.1299 -0.1774
 2351TIP3    H128612   2.355   2.127   6.840 -0.5414  2.8237 -0.8528
 2351TIP3    H228613   2.233   2.210   6.871 -2.7724 -0.7891  0.6154
 2352TIP3   OH228614   3.213   4.011   0.933  0.5192  0.1297 -0.5163
 2352TIP3    H128615   3.148   3.940   0.932  1.0314 -0.3409 -1.0280
 2352TIP3    H228616   3.254   4.004   1.020 -1.1636  1.4216  0.4376
 2353TIP3   OH228617   5.140   3.037   8.407  0.0746 -0.1498 -0.1847
 2353TIP3    H128618   5.232   3.041   8.435 -0.4134  1.9255  1.4087
 2353TIP3    H228619   5.133   3.104   8.339 -0.5616  0.8372  0.8224
 2354TIP3   OH228620   6.839   0.369   6.508  0.2509  0.0781 -0.5072
 2354TIP3    H128621   6.750   0.384   6.475  0.3923  0.4385 -0.7260
 2354TIP3    H228622   6.826   0.340   6.599 -0.2287 -2.4230 -1.2926
 2355TIP3   OH228623   1.785   6.156   1.501  0.3015  0.0441  0.1018
 2355TIP3    H128624   1.864   6.206   1.521  0.2937 -0.6497  2.0753
 2355TIP3    H228625   1.816   6.082   1.449  1.2327 -0.9828  2.0074
 2356TIP3   OH228626   4.047   4.158   2.792 -0.5005 -0.5662 -0.2804
 2356TIP3    H128627   4.100   4.149   2.713 -0.1820 -0.2288 -0.1063
 2356TIP3    H228628   3.967   4.201   2.761 -0.3879 -0.4587 -0.4243
 2357TIP3   OH228629   1.187   5.315   2.507  0.0622  0.0885  0.3511
 2357TIP3    H128630   1.225   5.243   2.557  0.3204 -1.4573 -1.8976
 2357TIP3    H228631   1.096   5.319   2.535  0.1371 -0.8869  0.7659
 2358TIP3   OH228632   0.080   1.129   1.690 -0.0692  0.2375 -0.2117
 2358TIP3    H128633   0.093   1.224   1.699 -1.2387  0.5008 -1.0725
 2358TIP3    H228634   0.072   1.115   1.595 -0.7782 -0.5994 -0.0371
 2359TIP3   OH228635   2.009   3.057   6.886 -0.6657 -0.1882 -0.3308
 2359TIP3    H128636   2.081   2.997   6.868 -1.1288 -0.5688 -0.9697
 2359TIP3    H228637   2.034   3.102   6.966  0.7893  0.4637 -1.1214
 2360TIP3   OH228638   1.332   6.460   0.234 -0.4179  0.4752 -0.0126
 2360TIP3    H128639   1.320   6.478   0.327 -0.3083  1.0964 -0.1186
 2360TIP3    H228640   1.266   6.393   0.215 -0.2616  0.1423  0.5673
 2361TIP3   OH228641   1.361   4.100   2.060  0.1745 -0.3053  0.0327
 2361TIP3    H128642   1.330   4.041   1.992  0.6519  0.5823 -0.9786
 2361TIP3    H228643   1.292   4.165   2.070  0.6795  0.3297 -0.5584
 2362TIP3   OH228644   1.281   2.854   1.854 -0.0022  0.6154 -0.2666
 2362TIP3    H128645   1.236   2.839   1.938  0.7629  0.4480  0.1204
 2362TIP3    H228646   1.213   2.842   1.788 -0.0602 -1.9461  0.1558
 2363TIP3   OH228647   1.046   2.315   7.632 -0.3771  0.0508  0.9773
 2363TIP3    H128648   0.968   2.270   7.666 -0.3600 -2.5468 -1.9673
 2363TIP3    H228649   1.106   2.244   7.609  0.9639  1.7509 -1.0766
 2364TIP3   OH228650   0.440   6.410   8.112  0.4034  0.1474  0.4087
 2364TIP3    H128651   0.478   6.358   8.041 -0.7690  0.5186 -0.5216
 2364TIP3    H228652   0.386   6.475   8.067 -1.4275 -0.4372  1.6469
 2365TIP3   OH228653   4.804   0.297   0.397  0.2266 -0.7254  0.1100
 2365TIP3    H128654   4.725   0.288   0.451  0.5580 -0.7458  0.6001
 2365TIP3    H228655   4.772   0.293   0.307 -0.1408 -2.4146  0.2826
 2366TIP3   OH228656   2.043   0.123   2.353 -0.0718  0.0421 -0.2921
 2366TIP3    H128657   1.949   0.106   2.361  0.0714 -0.3073  0.7943
 2366TIP3    H228658   2.075   0.126   2.443  0.7887  1.1803 -0.6043
 2367TIP3   OH228659   1.052   0.722   1.681  0.1815 -0.3823 -0.2768
 2367TIP3    H128660   1.107   0.703   1.757 -0.7546  2.8335  1.3842
 2367TIP3    H228661   1.109   0.769   1.621 -0.1969  1.2085  0.5706
 2368TIP3   OH228662   4.478   6.269   1.483  0.3363  0.4200  0.0123
 2368TIP3    H128663   4.572   6.288   1.483  0.3232  0.4775 -0.5679
 2368TIP3    H228664   4.452   6.275   1.392 -0.1811  0.1335  0.1378
 2369TIP3   OH228665   4.413   0.123   1.760 -0.7114  0.8180 -0.7688
 2369TIP3    H128666   4.506   0.123   1.783 -0.9727 -0.0780  0.3948
 2369TIP3    H228667   4.385   0.033   1.771 -1.6274  0.9859 -1.5672
 2370TIP3   OH228668   0.685   6.551   7.331  0.2368 -0.3871  0.1503
 2370TIP3    H128669   0.673   6.576   7.239 -0.0711  0.8123  0.5013
 2370TIP3    H228670   0.712   6.459   7.327  1.5993  0.0185 -1.2145
 2371TIP3   OH228671   1.514   3.197   0.515 -0.6027 -0.4720 -0.1541
 2371TIP3    H128672   1.557   3.204   0.429  0.6939  0.4137  0.5431
 2371TIP3    H228673   1.449   3.266   0.514 -0.5355 -0.4081 -0.3919
 2372TIP3   OH228674   2.912   2.230   8.074  0.0603 -0.7204 -0.1086
 2372TIP3    H128675   2.977   2.245   8.005 -0.2018 -1.0460 -0.4286
 2372TIP3    H228676   2.885   2.139   8.062 -1.1065 -0.3448 -0.5502
 2373TIP3   OH228677   0.127   4.103   2.343  0.1702  0.1133 -0.3056
 2373TIP3    H128678   0.101   4.016   2.376  1.0624 -1.0773 -2.5385
 2373TIP3    H228679   0.164   4.086   2.256  2.0058  2.5376 -0.1101
 2374TIP3   OH228680   0.937   1.039   2.509 -0.1711  0.3165  0.0111
 2374TIP3    H128681   0.861   1.067   2.560  0.5980  2.3621  0.1248
 2374TIP3    H228682   0.918   1.068   2.420 -0.2974 -0.7921 -0.3378
 2375TIP3   OH228683   6.318   2.503   1.883 -0.3563 -0.2518 -0.2426
 2375TIP3    H128684   6.253   2.433   1.873 -0.5532 -0.4970  2.2815
 2375TIP3    H228685   6.366   2.481   1.962 -0.2007  2.3113  0.4616
 2376TIP3   OH228686   5.642   2.842   2.111  0.6185  0.0964 -0.9223
 2376TIP3    H128687   5.639   2.909   2.180  1.8391 -0.6934 -0.0763
 2376TIP3    H228688   5.612   2.888   2.032  0.1684  1.2863 -0.0834
 2377TIP3   OH228689   3.857   0.053   7.871 -0.3386 -0.1099 -0.1849
 2377TIP3    H128690   3.947   0.055   7.836 -0.4213 -1.5845 -0.5505
 2377TIP3    H228691   3.842   0.142   7.903 -0.0001  1.1977 -3.2809
 2378TIP3   OH228692   2.936   3.375   7.201  0.0145 -0.0739  0.2878
 2378TIP3    H128693   2.940   3.292   7.152 -0.3721  0.4028 -0.5810
 2378TIP3    H228694   2.918   3.441   7.134 -0.4389  0.6136  1.0717
 2379TIP3   OH228695   5.935   5.205   1.004 -0.2238 -0.4904 -0.0988
 2379TIP3    H128696   5.914   5.243   1.089  0.4643 -1.7716  0.6763
 2379TIP3    H228697   5.884   5.124   1.001 -0.1084 -0.5444 -0.8449
 2380TIP3   OH228698   6.606   4.690   7.488 -0.1669  0.0157  0.2362
 2380TIP3    H128699   6.553   4.689   7.567 -0.7564  0.1237 -0.1517
 2380TIP3    H228700   6.583   4.772   7.444  1.6180  0.9485  0.9131
 2381TIP3   OH228701   2.612   5.337   7.371 -0.0033 -0.2175  0.2184
 2381TIP3    H128702   2.586   5.301   7.456  1.8447  1.0852  1.4077
 2381TIP3    H228703   2.655   5.264   7.326 -2.4328 -1.3971 -0.3642
 2382TIP3   OH228704   4.942   3.520   1.393 -0.1365 -0.2876  0.1685
 2382TIP3    H128705   4.895   3.601   1.372 -0.4740 -0.6580 -0.5427
 2382TIP3    H228706   4.914   3.499   1.482 -2.2763 -1.1220 -0.6364
 2383TIP3   OH228707   5.695   0.946   2.245  0.1478 -0.0633  0.5981
 2383TIP3    H128708   5.752   0.939   2.322 -0.3912 -2.6234  0.8618
 2383TIP3    H228709   5.731   0.883   2.183 -0.1341  1.1168 -0.8304
 2384TIP3   OH228710   6.167   0.726   8.061 -0.2695  0.3227  0.3367
 2384TIP3    H128711   6.230   0.792   8.089  1.1308 -1.5811  1.9279
 2384TIP3    H228712   6.164   0.663   8.133 -0.4662 -2.1119 -1.6531
 2385TIP3   OH228713   1.741   6.475   1.810  0.8512  0.4781  0.8636
 2385TIP3    H128714   1.683   6.437   1.875  0.3719  1.3620  0.9670
 2385TIP3    H228715   1.684   6.498   1.736  1.2790  0.1148  0.4091
 2386TIP3   OH228716   4.936   4.185   7.988 -0.2248 -0.4252  0.8424
 2386TIP3    H128717   5.011   4.185   7.929 -1.0104 -2.4116 -0.2472
 2386TIP3    H228718   4.974   4.195   8.076  1.1567  0.2156  0.1987
 2387TIP3   OH228719   0.622   0.639   1.177  0.1226  0.9078 -0.5081
 2387TIP3    H128720   0.613   0.731   1.201  0.6916  0.5002  1.5617
 2387TIP3    H228721   0.714   0.619   1.196 -0.2248 -0.2956  0.0164
 2388TIP3   OH228722   0.990   3.766   7.057 -0.3000  0.3681 -0.0433
 2388TIP3    H128723   0.983   3.719   6.973 -1.3949  1.5355 -0.6349
 2388TIP3    H228724   1.082   3.791   7.063 -0.4179  1.2165 -1.4465
 2389TIP3   OH228725   4.463   0.842   1.607  0.0752 -0.1287  0.7101
 2389TIP3    H128726   4.478   0.882   1.521  3.1205 -0.2502  1.0847
 2389TIP3    H228727   4.405   0.768   1.588 -3.1528  2.4430 -0.4520
 2390TIP3   OH228728   1.019   5.938   0.110  0.1481  0.0993 -0.6091
 2390TIP3    H128729   1.011   6.031   0.129  0.4510  0.1877 -0.9003
 2390TIP3    H228730   0.928   5.906   0.107  0.0932  0.0338  1.1226
 2391TIP3   OH228731   5.862   0.358   8.014  0.1927 -0.1482 -0.1771
 2391TIP3    H128732   5.823   0.296   8.075  1.1254  0.7348  1.3971
 2391TIP3    H228733   5.947   0.319   7.992  0.8336  0.5632  0.9110
 2392TIP3   OH228734   1.671   2.528   7.884  0.1981  0.1218 -0.4432
 2392TIP3    H128735   1.601   2.519   7.819  0.3061 -1.7049 -0.3566
 2392TIP3    H228736   1.751   2.538   7.832 -0.0569  2.2952 -0.5435
 2393TIP3   OH228737   3.549   6.354   7.801 -0.4051  0.0837 -0.0960
 2393TIP3    H128738   3.610   6.284   7.778  1.5695  1.2921  1.1218
 2393TIP3    H228739   3.596   6.435   7.778 -2.3619  1.0545 -0.8810
 2394TIP3   OH228740   2.531   2.991   0.857  0.3547  0.7989  0.4956
 2394TIP3    H128741   2.529   3.022   0.766 -1.1161 -0.5885  0.0035
 2394TIP3    H228742   2.609   2.935   0.861 -0.4084 -0.3883 -0.4039
 2395TIP3   OH228743   2.909   6.434   6.527  0.4751  0.1921 -0.2717
 2395TIP3    H128744   2.841   6.427   6.461  0.3745  0.8866 -0.2403
 2395TIP3    H228745   2.909   6.526   6.553 -0.8619 -0.4130  2.1451
 2396TIP3   OH228746   2.758   3.280   0.103 -0.1862 -0.0342 -0.1445
 2396TIP3    H128747   2.828   3.334   0.065 -0.0857  0.1390  0.2860
 2396TIP3    H228748   2.803   3.202   0.135 -0.2285 -0.0428 -0.1068
 2397TIP3   OH228749   6.327   6.225   0.576  1.0014 -0.3003  0.5173
 2397TIP3    H128750   6.303   6.317   0.584  2.1961  0.0842 -0.1304
 2397TIP3    H228751   6.404   6.215   0.631  0.9768 -0.8826  0.4557
 2398TIP3   OH228752   0.636   5.723   1.738  0.4981 -0.0669  0.3399
 2398TIP3    H128753   0.641   5.674   1.821  1.8113  2.4479  1.8480
 2398TIP3    H228754   0.685   5.803   1.754 -0.1676  1.0416 -2.5624
 2399TIP3   OH228755   4.060   4.307   2.217 -0.4398 -0.0133 -0.2028
 2399TIP3    H128756   4.085   4.311   2.125 -1.3170  1.4372 -0.4157
 2399TIP3    H228757   4.060   4.399   2.246 -3.9788  0.0414  0.1278
 2400TIP3   OH228758   1.094   1.604   8.265  0.1679 -0.0402  0.4858
 2400TIP3    H128759   1.065   1.664   8.334  0.1989  1.0023 -0.3850
 2400TIP3    H228760   1.188   1.623   8.255 -0.2410  1.3522 -1.2693
 2401TIP3   OH228761   3.405   1.013   1.798 -0.5487  0.3607  0.1366
 2401TIP3    H128762   3.367   1.043   1.881 -1.3996  0.5098 -0.2937
 2401TIP3    H228763   3.434   1.093   1.755 -1.1928  0.3976 -0.2301
 2402TIP3   OH228764   5.167   6.232   7.356  0.1286  0.6089 -0.1896
 2402TIP3    H128765   5.107   6.236   7.282 -0.1736  1.4610  0.0806
 2402TIP3    H228766   5.135   6.300   7.416  0.4362  0.0185  0.6614
 2403TIP3   OH228767   1.199   5.700   0.093 -0.1031 -0.0986 -0.2252
 2403TIP3    H128768   1.157   5.786   0.093  0.5006  0.2060 -0.6994
 2403TIP3    H228769   1.185   5.666   0.182  0.3047  0.8141  0.1960
 2404TIP3   OH228770   1.557   5.492   8.281  0.0688 -0.3402  0.6684
 2404TIP3    H128771   1.561   5.551   8.206  0.5631 -3.3253 -1.8189
 2404TIP3    H228772   1.486   5.431   8.260 -1.2383 -0.0809  3.6946
 2405TIP3   OH228773   0.042   5.367   2.525 -0.0193 -0.6718 -0.4468
 2405TIP3    H128774  -0.011   5.287   2.535 -0.2386 -0.6207 -1.1568
 2405TIP3    H228775   0.047   5.403   2.614 -1.8541 -0.2614 -0.4672
 2406TIP3   OH228776   2.474   5.503   0.722  0.3755 -0.6770 -0.6004
 2406TIP3    H128777   2.453   5.520   0.630 -0.0452  0.4900 -0.2945
 2406TIP3    H228778   2.570   5.507   0.726  0.5788 -2.9664 -1.3946
 2407TIP3   OH228779   2.683   2.356   8.182  0.4337 -0.6410  0.6580
 2407TIP3    H128780   2.758   2.311   8.143  1.5088 -0.4381  2.3771
 2407TIP3    H228781   2.613   2.291   8.183  0.0976 -0.4236 -2.2273
 2408TIP3   OH228782   3.019   4.588   0.628  0.2804  0.1307 -0.0163
 2408TIP3    H128783   3.074   4.515   0.654  0.7401  0.5980  0.3314
 2408TIP3    H228784   2.953   4.594   0.697  0.2801  0.0812 -0.0124
 2409TIP3   OH228785   3.416   5.292   8.235  0.2053 -0.1760 -0.2625
 2409TIP3    H128786   3.406   5.213   8.181 -0.2860 -0.9930  0.9740
 2409TIP3    H228787   3.330   5.335   8.230  0.4244  0.2071 -0.8089
 2410TIP3   OH228788   0.212   0.232   1.035  0.1534  0.0698 -0.5280
 2410TIP3    H128789   0.148   0.236   0.963  1.8369  0.6406 -2.0724
 2410TIP3    H228790   0.274   0.302   1.016  1.2122 -0.4192  0.9558
 2411TIP3   OH228791   3.141   2.439   7.321  0.0737  0.0681  0.4249
 2411TIP3    H128792   3.077   2.497   7.360  1.8972  1.5161  1.4124
 2411TIP3    H228793   3.205   2.423   7.390  1.1200 -0.8326 -0.6961
 2412TIP3   OH228794   4.775   2.182   6.831 -0.3310  0.0603 -0.0048
 2412TIP3    H128795   4.846   2.218   6.885 -0.2160  0.4693 -0.4179
 2412TIP3    H228796   4.699   2.236   6.853 -1.4962 -2.4807  3.0202
 2413TIP3   OH228797   6.445   3.717   7.875  0.4409 -0.1670 -0.2021
 2413TIP3    H128798   6.480   3.770   7.946  0.7472  1.4887 -1.5132
 2413TIP3    H228799   6.457   3.626   7.904 -0.0703  0.4392  2.1069
 2414TIP3   OH228800   3.443   2.406   0.198  0.2095  0.3778 -0.5866
 2414TIP3    H128801   3.532   2.383   0.174  0.6060  0.8169  0.4302
 2414TIP3    H228802   3.451   2.487   0.249 -0.3887 -1.3810  2.5179
 2415TIP3   OH228803   3.688   5.376   6.700  0.6739 -0.1938 -0.5231
 2415TIP3    H128804   3.707   5.439   6.631  0.5740 -0.2850 -0.6357
 2415TIP3    H228805   3.607   5.408   6.740 -0.4454 -1.2692 -1.8300
 2416TIP3   OH228806   2.691   1.483   0.875  0.0410 -0.3239  0.2007
 2416TIP3    H128807   2.675   1.577   0.873  0.7551 -0.2068 -0.6854
 2416TIP3    H228808   2.665   1.452   0.789 -0.9042 -1.0764  0.7357
 2417TIP3   OH228809   4.230   0.191   2.578 -0.0172  0.4746 -0.5910
 2417TIP3    H128810   4.311   0.189   2.527  0.8560  1.9266  0.6411
 2417TIP3    H228811   4.182   0.113   2.551  1.7977 -0.4395 -1.3379
 2418TIP3   OH228812   5.513   6.467   2.197  0.2370 -0.1344 -0.2633
 2418TIP3    H128813   5.469   6.552   2.188 -0.5075 -0.5098 -0.3055
 2418TIP3    H228814   5.600   6.488   2.230 -0.3851  0.5624  1.0104
 2419TIP3   OH228815   4.820   4.950   1.163 -0.2420 -0.5632 -0.0436
 2419TIP3    H128816   4.883   5.005   1.116 -0.7992  2.1650  2.1305
 2419TIP3    H228817   4.874   4.890   1.214  0.4843 -0.3454 -0.5454
 2420TIP3   OH228818   4.442   6.687   0.986  0.2925  0.1663 -0.2488
 2420TIP3    H128819   4.360   6.713   1.030 -0.2307  1.3178 -1.8103
 2420TIP3    H228820   4.506   6.751   1.017  0.3762 -0.1373  0.2197
 2421TIP3   OH228821   2.331   1.693   0.252 -0.4416 -0.7757 -0.1862
 2421TIP3    H128822   2.253   1.656   0.211 -0.2183 -0.6186 -0.7577
 2421TIP3    H228823   2.366   1.754   0.187 -1.5973  1.5691  1.2484
 2422TIP3   OH228824   3.118   3.958   1.235 -0.2572 -0.5501 -0.4167
 2422TIP3    H128825   3.142   3.875   1.194 -0.8835 -1.4266  0.8850
 2422TIP3    H228826   3.175   3.964   1.312 -0.7787 -0.1914 -0.0471
 2423TIP3   OH228827   1.192   0.659   1.298 -0.0870 -0.2751 -0.7743
 2423TIP3    H128828   1.139   0.587   1.333 -0.4168  0.2922 -0.0918
 2423TIP3    H228829   1.179   0.731   1.359 -1.2949  1.0239 -2.4640
 2424TIP3   OH228830   1.428   2.956   1.635 -0.7267  0.1237 -0.0132
 2424TIP3    H128831   1.400   2.940   1.725  0.9880 -0.4615  0.4519
 2424TIP3    H228832   1.375   2.896   1.582  1.2817 -2.8705  1.1063
 2425TIP3   OH228833   3.549   0.061   1.554 -0.1235 -0.1094  0.2585
 2425TIP3    H128834   3.535   0.033   1.644 -1.0973 -0.7171 -0.0609
 2425TIP3    H228835   3.462   0.055   1.513  0.4051 -0.4421 -0.8691
 2426TIP3   OH228836   1.425   5.954   8.426 -0.2295 -0.2344 -0.1874
 2426TIP3    H128837   1.431   6.024   8.360 -2.5337  0.5089  0.2777
 2426TIP3    H228838   1.401   5.999   8.507  1.4249 -1.2689  0.9405
 2427TIP3   OH228839   1.239   5.230   2.207 -0.5066 -0.0523 -0.5182
 2427TIP3    H128840   1.252   5.263   2.119  0.3525 -1.3702 -0.9111
 2427TIP3    H228841   1.170   5.164   2.199 -0.2516 -0.3587 -0.2741
 2428TIP3   OH228842   0.540   6.329   7.867 -0.6430  0.0929 -0.2163
 2428TIP3    H128843   0.519   6.246   7.824 -0.5875  0.9872 -2.0921
 2428TIP3    H228844   0.534   6.394   7.797  0.7368  1.4847  0.8822
 2429TIP3   OH228845   6.841   0.905   0.507 -0.1450 -0.2868  0.1798
 2429TIP3    H128846   6.851   0.915   0.601 -1.7115  0.1683  0.3340
 2429TIP3    H228847   6.906   0.964   0.469 -0.7994  0.9971  1.0020
 2430TIP3   OH228848   1.725   1.084   8.132 -0.1043  0.3703  0.2353
 2430TIP3    H128849   1.746   1.014   8.070  0.0563 -0.4108  1.1513
 2430TIP3    H228850   1.807   1.103   8.177 -0.8478 -1.4625  2.5789
 2431TIP3   OH228851   2.205   1.836   1.122 -0.1113 -0.4455  0.1948
 2431TIP3    H128852   2.127   1.784   1.143 -0.0974 -1.1535 -1.3460
 2431TIP3    H228853   2.212   1.829   1.027  1.2874  0.4146  0.2239
 2432TIP3   OH228854   5.103   3.586   1.992  0.1605  0.6154  0.5532
 2432TIP3    H128855   5.151   3.569   1.910 -0.5983  2.0033 -0.2277
 2432TIP3    H228856   5.144   3.529   2.056 -0.4956 -2.0492 -1.2103
 2433TIP3   OH228857   2.225   1.386   6.424 -0.2234 -0.2574 -0.2740
 2433TIP3    H128858   2.315   1.355   6.429 -0.1776 -0.1967 -0.7295
 2433TIP3    H228859   2.212   1.434   6.506 -0.0051 -0.6942  0.0177
 2434TIP3   OH228860   0.697   3.806   7.131  0.2157 -0.3049  0.2249
 2434TIP3    H128861   0.653   3.872   7.077  1.3197  2.5602  2.5349
 2434TIP3    H228862   0.788   3.807   7.100  0.6480  0.6867  1.4528
 2435TIP3   OH228863   1.521   5.711   7.603 -0.2172  0.0479  0.1708
 2435TIP3    H128864   1.506   5.696   7.510  0.5269 -0.9751  0.1969
 2435TIP3    H228865   1.581   5.785   7.606  1.7495 -1.4502 -0.3052
 2436TIP3   OH228866   4.740   5.636   2.436 -0.4796  0.5246 -0.5746
 2436TIP3    H128867   4.749   5.543   2.416 -1.0233  0.5933 -1.1551
 2436TIP3    H228868   4.817   5.677   2.396 -0.3930  0.3613 -0.5725
 2437TIP3   OH228869   5.489   1.696   0.215 -0.0243 -0.1337 -0.1524
 2437TIP3    H128870   5.572   1.667   0.178 -0.2803 -1.0691 -0.0114
 2437TIP3    H228871   5.507   1.708   0.308 -0.2648 -1.2367  0.0496
 2438TIP3   OH228872   5.346   6.711   0.788  0.3402  0.0149  0.4949
 2438TIP3    H128873   5.261   6.675   0.812  0.0031 -0.8009 -1.6924
 2438TIP3    H228874   5.326   6.797   0.752  0.4975  0.0420  0.4712
 2439TIP3   OH228875   2.406   6.342   0.827 -0.3671  0.3864  0.7339
 2439TIP3    H128876   2.369   6.259   0.856  1.6057 -0.4153  1.0908
 2439TIP3    H228877   2.349   6.408   0.866 -3.1825 -0.7238 -1.1597
 2440TIP3   OH228878   2.406   4.366   7.384  0.7770  0.0161  0.6268
 2440TIP3    H128879   2.323   4.408   7.407  0.8856  1.6454 -1.6507
 2440TIP3    H228880   2.384   4.306   7.313  1.2274 -1.2467  1.5123
 2441TIP3   OH228881   1.009   0.740   2.763  0.6230  0.0629 -0.3949
 2441TIP3    H128882   0.915   0.754   2.754  0.5831 -1.0054 -2.4944
 2441TIP3    H228883   1.036   0.795   2.836 -1.4838  1.0605 -0.3131
 2442TIP3   OH228884   0.371   2.860   0.225 -0.3579  0.7734  0.0098
 2442TIP3    H128885   0.429   2.825   0.292  1.7028  0.9506 -1.5756
 2442TIP3    H228886   0.379   2.955   0.234  0.0716  0.7980 -0.5711
 2443TIP3   OH228887   0.801   1.169   0.511 -0.8192 -0.3574  0.0573
 2443TIP3    H128888   0.856   1.148   0.436 -1.8923 -0.8488 -0.6089
 2443TIP3    H228889   0.852   1.138   0.587  1.2455  2.0961 -0.2162
 2444TIP3   OH228890   2.451   0.863   6.282  0.4379  0.1399 -0.0060
 2444TIP3    H128891   2.444   0.920   6.206  0.8746 -3.6836 -3.2954
 2444TIP3    H228892   2.361   0.842   6.306  0.3005  0.6266 -0.0979
 2445TIP3   OH228893   3.405   4.255   1.536 -0.2018 -0.3617  0.4324
 2445TIP3    H128894   3.316   4.232   1.562 -1.1893  0.3294 -2.0567
 2445TIP3    H228895   3.399   4.346   1.507  1.3515 -0.2399  0.4113
 2446TIP3   OH228896   0.628   6.581   7.041 -0.0200  0.6145  0.0441
 2446TIP3    H128897   0.601   6.490   7.031  0.8486  0.4377 -0.7988
 2446TIP3    H228898   0.560   6.632   6.996  1.0144  0.1733 -2.0926
 2447TIP3   OH228899   1.140   4.903   0.626 -0.0385  0.4971 -0.0666
 2447TIP3    H128900   1.219   4.881   0.675  0.6873  2.0711 -0.4759
 2447TIP3    H228901   1.073   4.921   0.692 -0.4186 -1.8615  0.2897
 2448TIP3   OH228902   4.407   6.327   7.591 -0.1583 -0.1320  0.0157
 2448TIP3    H128903   4.345   6.254   7.599 -1.2236  0.7809  0.2832
 2448TIP3    H228904   4.477   6.306   7.652 -0.8936 -0.5093  0.7361
 2449TIP3   OH228905   5.137   0.302   0.938 -0.2778  0.2496  0.3527
 2449TIP3    H128906   5.147   0.215   0.977  0.5240 -0.2106 -0.7975
 2449TIP3    H228907   5.205   0.305   0.870 -1.9176  0.7958 -1.3382
 2450TIP3   OH228908   5.931   3.781   1.310  0.7994 -0.2032  0.3892
 2450TIP3    H128909   6.022   3.752   1.321  0.1628 -1.8211  1.7731
 2450TIP3    H228910   5.901   3.799   1.399 -0.2767  0.2221 -0.0519
 2451TIP3   OH228911   2.704   4.084   7.174  0.4268  0.4093 -0.2452
 2451TIP3    H128912   2.776   4.139   7.207  0.3670  0.7156 -0.6170
 2451TIP3    H228913   2.692   4.113   7.084 -0.4858  0.6941 -0.0370
 2452TIP3   OH228914   0.022   3.775   7.868 -0.3178 -0.6835 -0.0131
 2452TIP3    H128915   0.060   3.792   7.782 -0.5124 -0.5182 -0.0674
 2452TIP3    H228916  -0.073   3.781   7.854 -0.3610  1.9250  0.7111
 2453TIP3   OH228917   1.824   3.032   2.008  1.1278 -0.6644 -0.4057
 2453TIP3    H128918   1.918   3.046   2.021  1.1825 -0.9103 -0.5273
 2453TIP3    H228919   1.819   2.957   1.950  0.9549  1.3119 -3.1727
 2454TIP3   OH228920   6.638   6.021   7.042  0.0613 -0.4900  0.4115
 2454TIP3    H128921   6.641   6.100   6.988  0.2662  0.0044  1.1345
 2454TIP3    H228922   6.563   6.034   7.100  2.6466  1.3621  3.7415
 2455TIP3   OH228923   4.087   2.521   8.064 -0.2662 -0.0555 -0.6467
 2455TIP3    H128924   4.059   2.431   8.049  1.9564 -0.5724 -2.2088
 2455TIP3    H228925   4.124   2.520   8.152  0.7182 -0.9923 -1.0410
 2456TIP3   OH228926   1.819   5.214   0.384 -0.2778 -0.6327 -0.7246
 2456TIP3    H128927   1.766   5.289   0.411 -0.9247 -2.2750  3.2418
 2456TIP3    H228928   1.908   5.248   0.378 -0.5957  0.5563  0.7406
 2457TIP3   OH228929   5.578   2.048   7.579  0.0687  0.2621 -0.1157
 2457TIP3    H128930   5.662   2.081   7.612 -0.0576 -0.1356  0.6167
 2457TIP3    H228931   5.602   1.984   7.513  0.4033 -1.0705  1.2362
 2458TIP3   OH228932   1.963   3.297   7.999 -0.5499 -0.9983  0.1234
 2458TIP3    H128933   1.987   3.363   7.934  0.5376 -1.2701  0.2242
 2458TIP3    H228934   1.876   3.268   7.973 -1.5840  1.3072  0.7594
 2459TIP3   OH228935   1.091   3.004   7.733  0.1906  0.6684  0.4818
 2459TIP3    H128936   1.138   3.029   7.812 -0.8814 -1.2909  1.8317
 2459TIP3    H228937   1.010   2.965   7.764  0.4509 -1.7110 -1.4553
 2460TIP3   OH228938   6.428   1.498   7.375 -0.7982 -0.0570  1.0318
 2460TIP3    H128939   6.412   1.534   7.288  1.2995 -1.6269 -0.1030
 2460TIP3    H228940   6.478   1.566   7.421 -0.6660  0.2052  0.5008
 2461TIP3   OH228941   6.433   6.459   2.223  0.5805  0.4275 -0.1180
 2461TIP3    H128942   6.438   6.364   2.237 -0.3746  0.4812  0.7227
 2461TIP3    H228943   6.363   6.470   2.159  1.7731  0.4898 -1.4652
 2462TIP3   OH228944   3.315   6.448   1.152  0.4809  0.0395 -0.0287
 2462TIP3    H128945   3.300   6.443   1.246 -0.1037  2.9745  0.1280
 2462TIP3    H228946   3.233   6.418   1.113 -0.0071  0.6972  0.4693
 2463TIP3   OH228947   4.526   4.437   0.484 -0.6512  0.0349  0.3021
 2463TIP3    H128948   4.545   4.510   0.543 -1.5358 -0.6904  1.5317
 2463TIP3    H228949   4.432   4.441   0.470 -1.1316 -2.2132  2.3135
 2464TIP3   OH228950   1.668   4.420   0.558 -0.0666  0.9011 -0.4167
 2464TIP3    H128951   1.615   4.411   0.479 -0.6909  3.3184 -0.3592
 2464TIP3    H228952   1.632   4.497   0.602  1.5156  0.7590  1.2511
 2465TIP3   OH228953   0.668   1.301   7.741  0.1704 -0.2057  0.2434
 2465TIP3    H128954   0.604   1.231   7.748 -0.0357 -0.1599 -0.9750
 2465TIP3    H228955   0.615   1.380   7.729  0.4278  0.0087  0.5120
 2466TIP3   OH228956   6.526   1.360   0.022 -0.1234 -0.3272  0.0221
 2466TIP3    H128957   6.516   1.272  -0.014 -0.9443 -0.5671  0.8014
 2466TIP3    H228958   6.495   1.353   0.112 -1.3701  1.0300 -0.2569
 2467TIP3   OH228959   4.270   4.608   0.959 -0.8767 -0.2429 -0.4545
 2467TIP3    H128960   4.191   4.647   0.922 -0.9850  0.6395  0.6443
 2467TIP3    H228961   4.246   4.586   1.049  0.9418  2.9304  0.9931
 2468TIP3   OH228962   6.471   1.129   8.631 -0.0510  0.1101  0.5023
 2468TIP3    H128963   6.377   1.129   8.653  0.1324 -0.3739  1.3149
 2468TIP3    H228964   6.488   1.040   8.602 -0.4188  0.8688 -2.3142
 2469TIP3   OH228965   5.283   0.838   8.019 -0.0229  0.1758 -0.0299
 2469TIP3    H128966   5.271   0.894   7.943 -0.6803  2.1969  1.4664
 2469TIP3    H228967   5.377   0.839   8.036 -0.0785  1.3680  0.3173
 2470TIP3   OH228968   0.292   2.985   1.690 -0.2734 -0.3107  0.8696
 2470TIP3    H128969   0.377   2.940   1.685  0.3857  0.9707 -0.3309
 2470TIP3    H228970   0.282   3.007   1.783  1.5600  0.9909  0.8290
 2471TIP3   OH228971   2.299   1.107   2.663  0.2277 -0.0797 -0.0169
 2471TIP3    H128972   2.261   1.063   2.587  0.6136 -0.4765  0.0194
 2471TIP3    H228973   2.233   1.095   2.732 -0.7209  1.4109 -0.6297
 2472TIP3   OH228974   1.190   5.199   0.735 -0.2900 -0.1508  0.2525
 2472TIP3    H128975   1.149   5.181   0.820 -0.3810 -2.0001 -0.1361
 2472TIP3    H228976   1.116   5.217   0.676 -0.3439 -0.5400  0.2000
 2473TIP3   OH228977   3.783   4.688   7.088 -0.1319 -0.3990  0.1577
 2473TIP3    H128978   3.786   4.731   7.002 -0.6399 -0.1385  0.2619
 2473TIP3    H228979   3.836   4.744   7.145 -2.1254  1.0626  0.6906
 2474TIP3   OH228980   4.601   5.430   7.920 -0.2070 -0.5656 -0.5622
 2474TIP3    H128981   4.513   5.444   7.886 -0.1647  0.1798 -0.3902
 2474TIP3    H228982   4.595   5.350   7.971 -0.6022 -0.9306 -1.1747
 2475TIP3   OH228983   3.589   0.162   2.040 -0.1141 -0.2561 -0.0023
 2475TIP3    H128984   3.623   0.180   1.952  0.3684 -0.8636  0.0511
 2475TIP3    H228985   3.496   0.183   2.034 -0.3999 -1.6576 -1.0824
 2476TIP3   OH228986   2.723   6.071   8.113 -0.3885  0.1082  0.0010
 2476TIP3    H128987   2.747   6.058   8.021 -0.2233  1.4824 -0.1711
 2476TIP3    H228988   2.654   6.007   8.129 -0.4687 -0.1016 -1.1024
 2477TIP3   OH228989   2.549   0.175   6.907  0.1372  0.1723 -0.5750
 2477TIP3    H128990   2.496   0.254   6.919 -1.4493 -0.5775 -2.2188
 2477TIP3    H228991   2.619   0.202   6.847  0.8501  0.8061  0.4965
 2478TIP3   OH228992   3.511   0.682   7.296 -0.0022 -0.0455  0.1991
 2478TIP3    H128993   3.418   0.679   7.273 -0.0813  1.0545  0.3322
 2478TIP3    H228994   3.531   0.775   7.303  0.9559 -0.2808  0.8050
 2479TIP3   OH228995   2.878   2.531   1.710 -0.1043 -0.2840  0.1641
 2479TIP3    H128996   2.848   2.621   1.704 -0.7354 -0.4898  0.1359
 2479TIP3    H228997   2.846   2.501   1.795  0.3404 -0.3989  0.2957
 2480TIP3   OH228998   6.777   0.513   2.597 -0.1546 -0.2749  0.4405
 2480TIP3    H128999   6.821   0.471   2.523 -1.6369  0.5782 -0.9931
 2480TIP3    H229000   6.832   0.588   2.618 -0.4013  0.2856 -0.7677
 2481TIP3   OH229001   2.400   5.815   8.425  0.5331  0.1754 -0.4699
 2481TIP3    H129002   2.307   5.833   8.440  0.7314  0.4339  0.5368
 2481TIP3    H229003   2.425   5.872   8.353 -0.7553 -1.9447 -2.7217
 2482TIP3   OH229004   5.245   3.382   1.400  0.2146 -0.0519 -0.4964
 2482TIP3    H129005   5.215   3.450   1.340  0.4059 -0.9211 -1.5887
 2482TIP3    H229006   5.335   3.365   1.375  0.6516  0.3237  0.7432
 2483TIP3   OH229007   1.717   2.823   0.235 -0.5882 -0.1984  0.3813
 2483TIP3    H129008   1.775   2.858   0.303  0.0905  0.6713 -0.6096
 2483TIP3    H229009   1.686   2.739   0.270 -0.1294  0.1499  1.6783
 2484TIP3   OH229010   4.481   5.969   0.432 -0.4893 -0.4987 -0.1892
 2484TIP3    H129011   4.573   5.993   0.425 -0.7396  0.4372 -0.3604
 2484TIP3    H229012   4.476   5.916   0.511  0.0035  0.3965  0.4546
 2485TIP3   OH229013   1.993   3.737   8.180  0.1681  0.1867  0.6896
 2485TIP3    H129014   2.053   3.811   8.181 -0.5329  0.7727  1.9676
 2485TIP3    H229015   1.974   3.722   8.087  1.4301  0.6658  0.3338
 2486TIP3   OH229016   5.043   2.968   0.025 -0.1401  0.6024  0.1284
 2486TIP3    H129017   5.039   3.053   0.069  1.4268  1.4092 -1.1661
 2486TIP3    H229018   5.044   2.904   0.096  1.9923  1.8242  1.3034
 2487TIP3   OH229019   5.257   1.810   2.310 -0.4245  0.6616 -0.4473
 2487TIP3    H129020   5.290   1.720   2.307 -1.7666  0.1419 -0.3423
 2487TIP3    H229021   5.171   1.805   2.267 -0.7516  1.7936  0.0476
 2488TIP3   OH229022   3.524   1.285   8.003 -0.0808  0.0053 -0.7548
 2488TIP3    H129023   3.531   1.193   7.979 -1.2135 -0.2106 -0.3213
 2488TIP3    H229024   3.559   1.290   8.091  0.4012  0.0769 -0.9483
 2489TIP3   OH229025   5.682   2.734   2.850 -0.4483 -0.1439  0.5676
 2489TIP3    H129026   5.756   2.677   2.873  0.5346  0.7367 -0.3077
 2489TIP3    H229027   5.698   2.758   2.758 -2.1931 -0.4651  0.1405
 2490TIP3   OH229028   5.306   5.176   0.720 -0.2126 -0.3404 -0.1391
 2490TIP3    H129029   5.379   5.145   0.773  1.6490  1.5870 -1.4158
 2490TIP3    H229030   5.289   5.265   0.752 -1.1635 -0.3048 -0.6927
 2491TIP3   OH229031   1.981   2.240   0.045 -0.3080  0.1159  0.3587
 2491TIP3    H129032   1.908   2.293   0.077 -0.2494  0.4106  0.0037
 2491TIP3    H229033   2.002   2.183   0.119 -0.5731  0.3723  0.6393
 2492TIP3   OH229034   0.037   6.015   7.159 -0.1448 -0.3262 -0.1075
 2492TIP3    H129035  -0.056   6.016   7.138  0.1751 -1.1142 -1.7291
 2492TIP3    H229036   0.053   5.926   7.190  0.5252 -1.0824 -2.3888
 2493TIP3   OH229037   1.265   3.851   0.072  0.5361  0.5333 -0.2846
 2493TIP3    H129038   1.296   3.923   0.126 -1.2293  1.3396 -0.2885
 2493TIP3    H229039   1.337   3.787   0.073  1.6760  1.7843  0.6319
 2494TIP3   OH229040   2.248   5.435   8.278  0.4759 -0.1514  0.1948
 2494TIP3    H129041   2.175   5.475   8.326 -0.2387 -1.4238  0.2042
 2494TIP3    H229042   2.312   5.412   8.346 -0.2217 -1.2995  0.4841
 2495TIP3   OH229043   3.268   3.080   1.624 -1.1778 -0.1610  0.1818
 2495TIP3    H129044   3.181   3.105   1.655 -1.0720 -0.2218  0.5281
 2495TIP3    H229045   3.313   3.164   1.610 -1.0096 -0.1373  0.8151
 2496TIP3   OH229046   4.957   2.410   0.789 -0.2893  0.0554  0.0873
 2496TIP3    H129047   4.948   2.461   0.869 -1.3884 -0.7576  0.5161
 2496TIP3    H229048   4.895   2.338   0.800  0.6782 -0.9573 -0.8112
 2497TIP3   OH229049   5.344   0.548   8.387  0.2447  0.4504 -0.3366
 2497TIP3    H129050   5.370   0.498   8.464  2.3805  0.7217 -0.8365
 2497TIP3    H229051   5.416   0.610   8.373 -0.7856  1.3965 -1.6973
 2498TIP3   OH229052   0.810   1.598   6.375 -0.6645 -0.4780  0.3981
 2498TIP3    H129053   0.854   1.619   6.457 -2.2843  0.5574  1.0501
 2498TIP3    H229054   0.880   1.568   6.317  1.5139  3.9545  0.3388
 2499TIP3   OH229055   5.803   5.557   2.009 -0.3706 -0.6256 -0.3505
 2499TIP3    H129056   5.863   5.629   2.030 -0.1003 -0.6086 -1.1200
 2499TIP3    H229057   5.739   5.595   1.949 -0.8496 -0.7688  0.0696
 2500TIP3   OH229058   1.487   2.275   7.495 -0.2354  0.1532  0.0707
 2500TIP3    H129059   1.576   2.252   7.523 -0.0474  0.6499 -0.0979
 2500TIP3    H229060   1.485   2.253   7.401 -0.6211 -0.7988  0.2849
 2501TIP3   OH229061   1.005   3.371   0.810 -0.0535  0.1694  0.1789
 2501TIP3    H129062   0.963   3.456   0.795 -1.0129 -0.1723  0.8165
 2501TIP3    H229063   1.015   3.366   0.905  1.6610  0.3280  0.0280
 2502TIP3   OH229064   5.075   0.346   7.711  0.1580  0.0960  0.1694
 2502TIP3    H129065   5.067   0.411   7.641  0.3559 -0.4915 -0.4119
 2502TIP3    H229066   5.168   0.325   7.713 -0.2726 -2.5349 -1.8904
 2503TIP3   OH229067   6.408   0.071   8.265  0.4697 -0.1161 -0.3542
 2503TIP3    H129068   6.437   0.139   8.204  0.7031 -0.4018 -0.5689
 2503TIP3    H229069   6.404   0.115   8.350  1.4703 -0.0385 -0.3292
 2504TIP3   OH229070   6.507   3.309   8.383 -1.1640  0.1422  0.2809
 2504TIP3    H129071   6.600   3.291   8.370 -0.7453  1.2987  1.5314
 2504TIP3    H229072   6.465   3.272   8.305  0.2472 -1.0103  0.0160
 2505TIP3   OH229073   3.142   2.761   0.226  0.1388  0.8546 -0.3755
 2505TIP3    H129074   3.149   2.802   0.313 -0.0819 -0.0299  0.0781
 2505TIP3    H229075   3.050   2.736   0.218  0.4511 -0.4754 -0.1765
 2506TIP3   OH229076   6.592   5.840   7.772  0.1644  0.9880  0.2029
 2506TIP3    H129077   6.607   5.889   7.853 -0.4936 -0.4799  1.2677
 2506TIP3    H229078   6.512   5.877   7.736  0.9379  2.2509 -0.2860
 2507TIP3   OH229079   1.758   0.069   0.445 -0.3225 -0.3299  0.4075
 2507TIP3    H129080   1.798   0.065   0.358 -0.0810 -1.5330  0.5565
 2507TIP3    H229081   1.832   0.061   0.506 -0.4201  1.1300  0.7523
 2508TIP3   OH229082   3.612   1.903   7.274  0.1617  0.5197  0.4328
 2508TIP3    H129083   3.566   1.839   7.328 -1.3815  0.0402 -1.3321
 2508TIP3    H229084   3.604   1.986   7.321 -3.1211  0.5876 -0.0149
 2509TIP3   OH229085   4.775   4.709   7.937  0.0607  0.1376  0.3712
 2509TIP3    H129086   4.843   4.670   7.883 -0.3187 -1.2628  0.8478
 2509TIP3    H229087   4.793   4.803   7.936  0.0739  0.1877 -2.1645
 2510TIP3   OH229088   4.839   4.345   1.324 -0.1996 -0.4369  0.4994
 2510TIP3    H129089   4.785   4.424   1.321  0.3612  0.0004  1.2425
 2510TIP3    H229090   4.869   4.332   1.234 -1.5397 -0.7029  0.0716
 2511TIP3   OH229091   1.065   6.251   8.470  0.2953  0.1782  0.5319
 2511TIP3    H129092   1.143   6.274   8.522  0.7823 -1.2845  0.5040
 2511TIP3    H229093   1.013   6.331   8.468  3.1807  2.1950 -2.0179
 2512TIP3   OH229094   5.854   3.308   1.008  0.4192 -0.8866  0.5788
 2512TIP3    H129095   5.941   3.305   1.048 -0.1284 -2.5774  1.7895
 2512TIP3    H229096   5.826   3.216   1.007 -2.3828 -0.1759  2.6535
 2513TIP3   OH229097   4.454   5.537   0.642  0.1437 -0.5195  0.0440
 2513TIP3    H129098   4.488   5.449   0.627 -1.9455 -1.2035 -1.0323
 2513TIP3    H229099   4.437   5.572   0.555 -0.6774  0.2453  0.4904
 2514TIP3   OH229100   5.095   4.694   8.652  0.5685  0.4164 -0.0892
 2514TIP3    H129101   5.088   4.723   8.561 -1.1092 -1.7890 -0.7458
 2514TIP3    H229102   5.042   4.756   8.701  0.2032  0.7305 -0.8648
 2515TIP3   OH229103   3.642   0.726   2.246 -0.3952 -0.2410  0.5730
 2515TIP3    H129104   3.659   0.632   2.259 -2.8132 -0.4917  2.7091
 2515TIP3    H229105   3.707   0.769   2.303  0.5718 -0.5787 -0.2375
 2516TIP3   OH229106   1.473   2.506   8.491 -0.3818 -0.6353  0.4246
 2516TIP3    H129107   1.417   2.583   8.481 -1.0395 -0.9844  1.2661
 2516TIP3    H229108   1.444   2.447   8.421  1.1865  0.4599 -1.2245
 2517TIP3   OH229109   0.344   2.675   7.874  0.3415 -0.2955  0.1151
 2517TIP3    H129110   0.405   2.639   7.809  0.8730 -0.9187  0.9371
 2517TIP3    H229111   0.379   2.646   7.958 -1.1065 -0.6622  0.6139
 2518TIP3   OH229112   0.236   2.390   2.144  0.5630  0.7430 -0.2414
 2518TIP3    H129113   0.185   2.465   2.115 -0.0675  0.4567  0.1066
 2518TIP3    H229114   0.172   2.320   2.155  1.3490 -0.3113 -2.0472
 2519TIP3   OH229115   1.630   0.780   7.502 -0.2141  0.3242  0.4745
 2519TIP3    H129116   1.622   0.725   7.424  0.9738  1.0656 -0.2127
 2519TIP3    H229117   1.724   0.796   7.510  0.0928 -2.0654  3.7467
 2520TIP3   OH229118   6.592   1.752   8.001 -0.4439  0.2924  0.4769
 2520TIP3    H129119   6.686   1.768   7.998 -0.3260 -0.3179  0.8223
 2520TIP3    H229120   6.583   1.665   8.040 -0.8860 -2.2211 -4.4319
 2521TIP3   OH229121   4.053   5.575   7.550 -0.6629  0.3570 -0.3550
 2521TIP3    H129122   4.038   5.542   7.639 -0.5012  0.6475 -0.2199
 2521TIP3    H229123   4.067   5.496   7.497  0.3466  0.2343  0.0766
 2522TIP3   OH229124   5.476   6.635   2.485 -0.0165  0.2191  0.0966
 2522TIP3    H129125   5.407   6.591   2.535 -0.4386  0.5645 -0.1729
 2522TIP3    H229126   5.429   6.684   2.418  0.3787  1.9096  1.0122
 2523TIP3   OH229127   4.547   4.791   0.382 -0.5039  0.4168  0.3384
 2523TIP3    H129128   4.637   4.809   0.353 -0.3915 -1.0287 -0.2808
 2523TIP3    H229129   4.498   4.778   0.301 -1.1143  0.4797  0.6961
 2524TIP3   OH229130   0.023   0.620   6.386  0.1479  0.4125  0.5228
 2524TIP3    H129131  -0.008   0.533   6.411 -1.7279  0.8738  0.0286
 2524TIP3    H229132   0.113   0.624   6.416  0.8336 -2.2711 -0.8514
 2525TIP3   OH229133   4.190   5.166   7.974 -0.8961 -0.5207  0.4093
 2525TIP3    H129134   4.107   5.161   8.022  0.0405 -3.5696  1.9632
 2525TIP3    H229135   4.216   5.075   7.963  2.7057  0.3325  0.7639
 2526TIP3   OH229136   5.202   1.718   7.673  0.5515  0.3458 -0.1015
 2526TIP3    H129137   5.199   1.801   7.721  0.7892  0.2599  0.0670
 2526TIP3    H229138   5.127   1.721   7.614  0.2268  0.4417  0.3047
 2527TIP3   OH229139   3.506   1.774   0.573 -0.7382 -0.0567 -0.2689
 2527TIP3    H129140   3.465   1.833   0.510  0.8582  0.1003 -1.2251
 2527TIP3    H229141   3.510   1.824   0.654 -2.0322  0.0587 -0.2551
 2528TIP3   OH229142   5.160   2.686   0.419 -0.1561  0.1239  0.0194
 2528TIP3    H129143   5.097   2.743   0.464  1.2244  0.8129  1.1556
 2528TIP3    H229144   5.181   2.619   0.484  0.6005  0.1574 -0.1829
 2529TIP3   OH229145   2.116   3.117   2.003 -0.3272  0.3837 -0.0993
 2529TIP3    H129146   2.151   3.101   2.091  1.5145 -0.9254 -1.0004
 2529TIP3    H229147   2.193   3.143   1.952 -1.3475  1.0257 -1.3574
 2530TIP3   OH229148   5.265   3.672   2.800  0.9492  0.3345 -0.0080
 2530TIP3    H129149   5.212   3.717   2.865  1.3988 -1.0658  1.3779
 2530TIP3    H229150   5.262   3.730   2.723 -0.3548  1.5717  0.9160
 2531TIP3   OH229151   5.775   1.098   8.210 -0.0539 -0.0206 -0.0428
 2531TIP3    H129152   5.800   1.008   8.193  0.7181  0.0520  0.6237
 2531TIP3    H229153   5.857   1.148   8.202 -0.4343  0.5949 -0.2253
 2532TIP3   OH229154   2.498   6.660   8.675  0.5461 -0.5691 -0.7890
 2532TIP3    H129155   2.536   6.637   8.760  0.1668  0.1060 -0.4260
 2532TIP3    H229156   2.495   6.577   8.627 -1.4761 -1.4872  0.7555
 2533TIP3   OH229157   6.664   0.408   1.099  0.0031  0.7316 -0.3272
 2533TIP3    H129158   6.722   0.438   1.169 -0.6138  2.1743 -0.4094
 2533TIP3    H229159   6.712   0.336   1.058  0.5818  0.1585  1.2673
 2534TIP3   OH229160   2.725   2.567   1.113 -0.5543 -0.1186  0.1177
 2534TIP3    H129161   2.763   2.479   1.121  0.6325  0.0061 -2.9656
 2534TIP3    H229162   2.800   2.623   1.091 -1.5668  1.3844  0.3634
 2535TIP3   OH229163   4.946   6.494   0.012  0.3881 -0.1351 -0.3094
 2535TIP3    H129164   5.015   6.475   0.076 -1.0150 -2.2013  0.7184
 2535TIP3    H229165   4.909   6.408  -0.009 -0.7309  0.7413 -2.1496
 2536TIP3   OH229166   4.209   1.390   1.901 -0.7232 -0.3365 -0.3535
 2536TIP3    H129167   4.139   1.437   1.857 -2.7497 -2.2462  0.5819
 2536TIP3    H229168   4.186   1.297   1.889  1.2664 -1.0044  0.5986
 2537TIP3   OH229169   6.826   1.087   0.932 -0.3291 -0.4483 -0.1037
 2537TIP3    H129170   6.739   1.100   0.971 -0.6169  2.7282 -1.4986
 2537TIP3    H229171   6.825   1.141   0.853  2.0162 -2.5126 -1.6763
 2538TIP3   OH229172   6.311   2.941   1.544  0.0872  0.2982  0.1890
 2538TIP3    H129173   6.232   2.981   1.579 -0.1423  0.1717 -0.1765
 2538TIP3    H229174   6.305   2.849   1.568  1.1609  0.6449  2.0208
 2539TIP3   OH229175   4.071   0.741   7.738  0.3722  0.5640  0.5419
 2539TIP3    H129176   4.055   0.686   7.662 -0.3385  0.9734  0.3867
 2539TIP3    H229177   4.032   0.693   7.811 -1.7989  1.6129  0.1477
 2540TIP3   OH229178   3.975   3.196   2.144 -0.2434  0.0475  0.0469
 2540TIP3    H129179   3.891   3.213   2.185 -1.6433 -0.0379 -2.5601
 2540TIP3    H229180   3.967   3.108   2.107  1.0569 -0.0477 -0.0711
 2541TIP3   OH229181   1.004   3.990   7.267  0.0750  0.0058 -0.6301
 2541TIP3    H129182   0.982   3.933   7.341  2.9244 -0.5822 -0.1444
 2541TIP3    H229183   1.045   3.932   7.203 -3.6245  0.1654 -3.5394
 2542TIP3   OH229184   2.323   1.677   7.956  0.0721 -0.2814  0.4664
 2542TIP3    H129185   2.241   1.688   7.908 -0.1096 -0.6588  0.6853
 2542TIP3    H229186   2.365   1.603   7.912  1.0365  0.8853 -0.6621
 2543TIP3   OH229187   2.394   5.564   1.641  0.0256 -0.1775 -0.5292
 2543TIP3    H129188   2.388   5.530   1.551  1.0269 -2.7503  0.2961
 2543TIP3    H229189   2.312   5.537   1.682 -0.4943  1.1233 -0.6642
 2544TIP3   OH229190   0.562   1.790   6.883  0.1635 -0.2214 -0.0888
 2544TIP3    H129191   0.567   1.769   6.790 -0.7671 -2.2595  0.2576
 2544TIP3    H229192   0.495   1.858   6.889 -1.0107 -1.2841 -0.7631
 2545TIP3   OH229193   0.023   1.298   0.383  0.1737 -0.5549  0.3200
 2545TIP3    H129194   0.033   1.374   0.326  0.6546 -1.0686 -0.2974
 2545TIP3    H229195  -0.031   1.329   0.456 -1.8808 -0.2914 -1.2151
 2546TIP3   OH229196   3.564   0.960   7.390  0.1819 -0.3793  0.4179
 2546TIP3    H129197   3.635   0.911   7.433  1.5184  1.3994  0.3674
 2546TIP3    H229198   3.493   0.961   7.454  0.9378 -0.5368  1.2793
 2547TIP3   OH229199   3.292   0.945   1.458 -0.4171  0.4274  0.0114
 2547TIP3    H129200   3.288   0.912   1.548  1.6821 -0.0931 -0.0531
 2547TIP3    H229201   3.237   0.884   1.408  1.2497 -1.4438  0.3619
 2548TIP3   OH229202   3.726   6.142   8.361  0.4321  0.4453 -0.3008
 2548TIP3    H129203   3.815   6.149   8.397  0.0558 -0.6519  0.9559
 2548TIP3    H229204   3.679   6.216   8.399  0.4483  0.1955  0.2155
 2549TIP3   OH229205   0.868   2.713   1.097 -0.4977 -0.2483  0.0486
 2549TIP3    H129206   0.915   2.779   1.046  1.1266 -1.3546  0.0097
 2549TIP3    H229207   0.840   2.648   1.033 -0.0195 -0.7406  0.3175
 2550TIP3   OH229208   3.920   0.421   8.252 -0.0069 -0.1629  0.1979
 2550TIP3    H129209   3.846   0.421   8.311 -0.3063 -0.3665 -0.1765
 2550TIP3    H229210   3.976   0.492   8.284  0.5154 -1.1516  1.5560
 2551TIP3   OH229211   5.953   5.501   0.177 -0.3221  0.2464  0.0846
 2551TIP3    H129212   5.933   5.465   0.263  1.3849 -0.2861  0.2818
 2551TIP3    H229213   6.012   5.574   0.194  0.4398 -0.1763 -0.6458
 2552TIP3   OH229214   3.421   6.154   0.558  0.1078 -0.6207  0.5687
 2552TIP3    H129215   3.472   6.235   0.554 -0.1277 -0.5089 -0.8212
 2552TIP3    H229216   3.474   6.090   0.511 -1.3401 -0.2816 -1.6736
 2553TIP3   OH229217   2.346   2.908   0.163 -0.1070 -0.0768 -0.2106
 2553TIP3    H129218   2.291   2.917   0.086 -0.8817 -0.0676  0.3347
 2553TIP3    H229219   2.289   2.871   0.230 -0.1651  2.2343  1.1242
 2554TIP3   OH229220   0.289   0.038   1.793  0.3229  0.7985 -0.1242
 2554TIP3    H129221   0.366  -0.001   1.835  1.7819  2.7820 -0.8075
 2554TIP3    H229222   0.226   0.050   1.864 -0.3974 -2.9778  0.0741
 2555TIP3   OH229223   3.049   3.328   1.575 -0.2140 -0.1548 -0.0796
 2555TIP3    H129224   3.043   3.280   1.493 -1.8387 -0.6236  0.2853
 2555TIP3    H229225   3.023   3.265   1.642  2.1744 -0.1244  0.9790
 2556TIP3   OH229226   0.722   2.489   0.390 -0.5368  0.2566  0.1605
 2556TIP3    H129227   0.752   2.552   0.325  1.4885 -0.8579 -0.0749
 2556TIP3    H229228   0.770   2.513   0.470  0.5548 -1.1592 -0.0342
 2557TIP3   OH229229   4.525   1.479   7.520  0.2315  0.1649 -0.2273
 2557TIP3    H129230   4.529   1.574   7.506  1.1034  0.3253  0.9191
 2557TIP3    H229231   4.455   1.449   7.462 -0.1815  1.5335 -0.4810
 2558TIP3   OH229232   6.440   0.286   1.964 -0.6943  0.5055  0.1929
 2558TIP3    H129233   6.469   0.376   1.952  0.4860  1.0405  4.9303
 2558TIP3    H229234   6.369   0.292   2.028 -1.1232 -1.9189  0.0574
 2559TIP3   OH229235   4.229   5.302   1.063  0.2477 -0.0485  0.2360
 2559TIP3    H129236   4.193   5.220   1.097  2.1844 -1.4941 -0.9714
 2559TIP3    H229237   4.303   5.275   1.009 -0.4975  2.3240 -2.2116
 2560TIP3   OH229238   3.060   5.884   6.920  0.3637  0.3780  0.2302
 2560TIP3    H129239   3.025   5.879   7.008 -0.6339  1.4967 -0.0800
 2560TIP3    H229240   3.039   5.800   6.880 -1.2282  0.7017  0.3351
 2561TIP3   OH229241   5.088   5.522   1.456  0.1477  0.8119 -0.3953
 2561TIP3    H129242   5.168   5.548   1.411  1.1889 -2.9349 -1.1030
 2561TIP3    H229243   5.022   5.519   1.387 -0.1340  1.9671 -0.1968
 2562TIP3   OH229244   2.982   2.822   1.465 -0.0893 -0.5260 -0.4548
 2562TIP3    H129245   2.948   2.844   1.551 -0.1047 -1.1863 -0.2872
 2562TIP3    H229246   2.917   2.763   1.427 -0.3274  0.1423 -1.1188
 2563TIP3   OH229247   3.288   2.789   7.887  0.0134 -0.3677  0.5160
 2563TIP3    H129248   3.265   2.817   7.975 -3.1156 -1.0049  0.0255
 2563TIP3    H229249   3.255   2.859   7.830  1.6215 -0.1598 -0.2276
 2564TIP3   OH229250   4.549   4.913   2.135  0.2093  0.1490 -0.0843
 2564TIP3    H129251   4.621   4.951   2.186  0.0768  1.0461 -0.5419
 2564TIP3    H229252   4.590   4.884   2.054  0.2371 -0.3330  0.0978
 2565TIP3   OH229253   4.791   1.075   8.080  0.4300  0.1885 -0.4979
 2565TIP3    H129254   4.708   1.104   8.042  0.0120 -0.5629 -0.1728
 2565TIP3    H229255   4.858   1.124   8.032 -0.2106  0.9709 -0.6060
 2566TIP3   OH229256   4.973   5.791   0.696  0.2525  0.1275  0.7391
 2566TIP3    H129257   4.971   5.885   0.679  0.3628 -0.3943 -3.2070
 2566TIP3    H229258   4.885   5.761   0.671  0.3016 -0.8594  1.7023
 2567TIP3   OH229259   6.198   1.872   1.816  0.3079  0.6758 -0.4680
 2567TIP3    H129260   6.125   1.905   1.869 -1.3962  0.5212 -2.5680
 2567TIP3    H229261   6.209   1.938   1.747  1.1621 -0.0420 -1.0378
 2568TIP3   OH229262   0.549   0.519   0.123  0.4967  0.1948 -0.0250
 2568TIP3    H129263   0.620   0.574   0.088 -0.8722  1.2596 -1.2823
 2568TIP3    H229264   0.531   0.457   0.052  0.6012 -0.5079  0.5546
 2569TIP3   OH229265   2.041   1.984   6.456 -0.4829  0.7501  0.8986
 2569TIP3    H129266   2.013   1.892   6.449  0.3396  0.6196 -3.0307
 2569TIP3    H229267   1.961   2.035   6.443 -0.4916  0.5493  0.1704
 2570TIP3   OH229268   0.953   6.474   0.153 -0.3526  0.7282 -0.4539
 2570TIP3    H129269   1.015   6.506   0.088 -0.3138  2.3962  0.3637
 2570TIP3    H229270   0.867   6.483   0.111 -0.2826  1.2914 -0.4821
 2571TIP3   OH229271   2.392   0.903   6.678 -0.6540  0.2451  0.6658
 2571TIP3    H129272   2.307   0.905   6.633 -0.0175  0.7766 -0.5883
 2571TIP3    H229273   2.419   0.995   6.682 -0.5272  0.1650  1.8425
 2572TIP3   OH229274   5.555   5.402   7.176 -0.5350 -0.2613 -0.4179
 2572TIP3    H129275   5.601   5.364   7.251 -0.2930 -1.1341 -0.9990
 2572TIP3    H229276   5.575   5.496   7.180  0.3508 -0.4639 -0.0052
 2573TIP3   OH229277   1.864   0.338   0.588  0.0854  0.8656  0.2505
 2573TIP3    H129278   1.932   0.331   0.654 -0.3958 -1.6628  0.5717
 2573TIP3    H229279   1.912   0.343   0.505  0.6544  1.3093  0.5952
 2574TIP3   OH229280   5.171   0.002   0.075 -0.0137 -0.4389  0.3723
 2574TIP3    H129281   5.210   0.066   0.134 -0.8249 -0.1637  0.6330
 2574TIP3    H229282   5.238  -0.014   0.009 -0.2183  1.6321 -0.4227
 2575TIP3   OH229283   1.765   0.338   1.105  0.3396  0.0146  0.8447
 2575TIP3    H129284   1.752   0.367   1.015  1.7006 -0.8056  0.3566
 2575TIP3    H229285   1.681   0.355   1.148 -0.9655 -1.2416 -1.0395
 2576TIP3   OH229286   5.621   1.409   0.286 -0.6446  0.0571 -0.2241
 2576TIP3    H129287   5.665   1.465   0.222 -1.2235 -0.1815 -0.8407
 2576TIP3    H229288   5.659   1.434   0.370  0.4413  0.0620 -0.7087
 2577TIP3   OH229289   0.056   1.665   1.140 -0.4295  0.0544 -0.1782
 2577TIP3    H129290   0.094   1.577   1.137  0.5851  0.3419  2.0295
 2577TIP3    H229291  -0.008   1.661   1.211 -0.6066  1.0161 -0.2670
 2578TIP3   OH229292   2.085   3.133   0.451  0.3792  0.6567  0.6382
 2578TIP3    H129293   2.119   3.047   0.475 -0.6672  0.5715  1.9911
 2578TIP3    H229294   2.139   3.196   0.499  1.1371  0.7630 -0.3416
 2579TIP3   OH229295   3.825   3.399   6.794 -0.0241  0.2576  0.0133
 2579TIP3    H129296   3.784   3.319   6.763  1.1477 -0.4834  0.3048
 2579TIP3    H229297   3.753   3.451   6.831 -0.6527 -1.1188  0.7885
 2580TIP3   OH229298   1.887   4.655   8.167 -0.1240 -0.1968 -0.3273
 2580TIP3    H129299   1.793   4.663   8.155 -0.2512  1.1426  1.2582
 2580TIP3    H229300   1.924   4.734   8.126  0.5342 -1.5197 -2.4914
 2581TIP3   OH229301   4.685   0.991   0.956  0.3354 -0.1108 -0.2033
 2581TIP3    H129302   4.665   1.010   0.864 -0.2574  0.2865  0.0023
 2581TIP3    H229303   4.696   0.896   0.959 -0.8081 -0.2601 -0.4697
 2582TIP3   OH229304   6.615   5.501   7.344 -0.3875 -0.0446  0.1802
 2582TIP3    H129305   6.616   5.571   7.278 -0.5292  0.0209  0.2466
 2582TIP3    H229306   6.638   5.546   7.426  0.2421 -0.2061  0.0989
 2583TIP3   OH229307   0.148   0.029   2.084 -0.1473 -0.3553 -0.0067
 2583TIP3    H129308   0.214  -0.016   2.137 -0.0739 -1.1391 -0.7513
 2583TIP3    H229309   0.072  -0.030   2.085 -0.7530  0.4071  0.6091
 2584TIP3   OH229310   0.838   5.958   0.494 -0.7313 -0.5590 -0.7224
 2584TIP3    H129311   0.911   5.973   0.553 -0.5080 -0.8821 -0.9180
 2584TIP3    H229312   0.823   6.043   0.452  0.0210 -0.6750 -1.2397
 2585TIP3   OH229313   6.249   4.804   2.031  0.5064 -0.6510 -0.1682
 2585TIP3    H129314   6.229   4.885   2.078  0.2927 -1.1610  0.6324
 2585TIP3    H229315   6.203   4.736   2.079 -0.3563 -1.1069 -1.5622
 2586TIP3   OH229316   6.269   3.863   8.143  0.0143 -0.2523 -0.1687
 2586TIP3    H129317   6.284   3.957   8.152 -0.3448 -0.2552  0.5569
 2586TIP3    H229318   6.266   3.830   8.233 -0.7124 -0.8159 -0.3845
 2587TIP3   OH229319   5.421   0.986   7.383  0.7754 -0.1070  0.0747
 2587TIP3    H129320   5.423   1.068   7.433  1.6302 -0.1353  0.0984
 2587TIP3    H229321   5.512   0.959   7.378  0.8844  0.4748 -2.4395
 2588TIP3   OH229322   3.451   3.867   6.836 -0.6501  0.3311 -0.4399
 2588TIP3    H129323   3.423   3.901   6.750 -0.0988 -0.5779 -0.9980
 2588TIP3    H229324   3.515   3.799   6.815  0.0584  0.6071  0.7312
 2589TIP3   OH229325   4.410   0.609   1.470 -1.0957 -0.1317  0.3102
 2589TIP3    H129326   4.392   0.678   1.406 -0.1017 -0.1553 -0.0141
 2589TIP3    H229327   4.498   0.579   1.449 -0.7038 -0.0710  1.7715
 2590TIP3   OH229328   1.688   5.629   1.126 -0.0672  0.2122  0.0769
 2590TIP3    H129329   1.748   5.579   1.071  0.2822  0.3966  0.2884
 2590TIP3    H229330   1.602   5.619   1.084 -0.6882 -3.2776  1.8627
 2591TIP3   OH229331   5.003   3.581   7.755 -0.2549 -0.4071  0.5443
 2591TIP3    H129332   4.976   3.586   7.664 -1.4958 -1.2642  0.8402
 2591TIP3    H229333   4.975   3.664   7.793 -0.6188 -0.4462  0.3629
 2592TIP3   OH229334   2.946   5.398   0.181  0.1036  0.7719  0.3585
 2592TIP3    H129335   2.985   5.473   0.137 -0.2142  0.1841 -0.9552
 2592TIP3    H229336   2.878   5.435   0.237 -0.8948  1.3788 -1.2152
 2593TIP3   OH229337   0.403   4.282   1.305  0.3724  0.3201  0.0633
 2593TIP3    H129338   0.416   4.362   1.355  0.7106 -0.3020  0.9981
 2593TIP3    H229339   0.342   4.230   1.358 -2.0928  1.0858 -1.8426
 2594TIP3   OH229340   0.355   4.304   2.291  0.1221 -0.4665 -0.0914
 2594TIP3    H129341   0.397   4.286   2.375 -0.4898 -1.7161 -0.0283
 2594TIP3    H229342   0.265   4.328   2.314  0.3117  0.5205 -0.3256
 2595TIP3   OH229343   2.959   4.989   1.593  0.0380  0.8767 -0.2161
 2595TIP3    H129344   2.947   4.896   1.573 -0.0913  0.9265 -0.3707
 2595TIP3    H229345   2.932   5.035   1.513 -0.2678  1.0636 -0.0080
 2596TIP3   OH229346   2.412   3.633   0.264  0.4469 -0.4124  0.2246
 2596TIP3    H129347   2.507   3.631   0.249  0.2635  0.7511 -1.4203
 2596TIP3    H229348   2.401   3.702   0.330  0.7057  0.0596 -0.2100
 2597TIP3   OH229349   4.831   4.756   0.283  0.2901 -0.2665  0.1091
 2597TIP3    H129350   4.866   4.799   0.205 -0.5195 -1.7108 -1.1055
 2597TIP3    H229351   4.904   4.702   0.315  0.3286 -0.4211 -0.2327
 2598TIP3   OH229352   6.210   2.246   2.956 -0.7399  0.4861  0.1983
 2598TIP3    H129353   6.186   2.256   3.048 -0.2275 -0.0139  0.3938
 2598TIP3    H229354   6.187   2.329   2.916 -0.9085  0.7313  0.7938
 2599TIP3   OH229355   6.754   3.512   2.688 -0.0601 -0.1912 -0.0776
 2599TIP3    H129356   6.758   3.449   2.760 -0.2290 -0.2166 -0.0891
 2599TIP3    H229357   6.660   3.519   2.668  0.0829 -1.0948 -1.1084
 2600TIP3   OH229358   6.170   5.315   2.527 -0.6593 -0.0643  0.1074
 2600TIP3    H129359   6.260   5.294   2.553 -1.3693 -1.1465  1.8723
 2600TIP3    H229360   6.161   5.275   2.440  1.0002  1.3890 -0.8017
 2601TIP3   OH229361   3.008   4.796   0.464  0.0459  0.1180 -0.5750
 2601TIP3    H129362   3.051   4.762   0.385 -1.0043 -0.6794 -0.8357
 2601TIP3    H229363   3.027   4.731   0.532  1.4362  1.0945  0.0070
 2602TIP3   OH229364   4.246   2.629   2.267 -0.3326 -0.5849  0.4292
 2602TIP3    H129365   4.252   2.611   2.173 -0.4035 -0.7880  0.4635
 2602TIP3    H229366   4.328   2.597   2.303 -0.8568 -1.7277  0.6328
 2603TIP3   OH229367   3.300   2.108   7.289  0.0751  0.0924 -0.1593
 2603TIP3    H129368   3.258   2.035   7.334  1.0905  0.2322  1.0707
 2603TIP3    H229369   3.341   2.068   7.212 -2.9819  0.0989 -1.9618
 2604TIP3   OH229370   1.167   4.412   8.487 -0.0688 -0.1945 -0.1406
 2604TIP3    H129371   1.156   4.501   8.453  0.1875  0.2065  0.7907
 2604TIP3    H229372   1.209   4.364   8.416 -0.4108  0.3661 -0.7381
 2605TIP3   OH229373   3.088   1.950   8.019 -0.5477 -0.1057  0.0417
 2605TIP3    H129374   3.097   1.952   7.924 -0.3649 -1.0500  0.0248
 2605TIP3    H229375   3.150   2.014   8.051 -0.4159  0.0227 -0.4682
 2606TIP3   OH229376   2.956   3.430   8.032  0.1010 -0.0092  0.5452
 2606TIP3    H129377   3.030   3.468   8.081  0.5324  3.2808 -2.2878
 2606TIP3    H229378   2.882   3.486   8.053 -0.3462 -0.2098 -0.4533
 2607TIP3   OH229379   2.789   3.614   0.687  0.0493  0.1792 -0.5058
 2607TIP3    H129380   2.884   3.607   0.698 -0.0358 -0.3642 -0.1097
 2607TIP3    H229381   2.754   3.603   0.775 -0.5650 -2.8927 -1.0446
 2608TIP3   OH229382   6.797   4.909   7.615 -0.0435 -0.1510 -0.6590
 2608TIP3    H129383   6.786   4.824   7.573 -1.4276  0.5267 -1.7798
 2608TIP3    H229384   6.877   4.901   7.666  0.4375 -1.7662 -1.6044
 2609TIP3   OH229385   3.907   6.754   2.041  0.3307  0.3311 -0.0464
 2609TIP3    H129386   3.926   6.843   2.071  0.4520 -0.2662  1.7667
 2609TIP3    H229387   3.826   6.763   1.991 -1.4066  1.0890  2.6739
 2610TIP3   OH229388   3.216   3.687   2.251  0.3726  0.5259 -0.3894
 2610TIP3    H129389   3.262   3.729   2.323  0.4304 -0.7124  0.3236
 2610TIP3    H229390   3.285   3.646   2.199  0.2239  0.2132 -0.3446
 2611TIP3   OH229391   1.275   4.193   7.139 -0.0946  0.0199  0.1459
 2611TIP3    H129392   1.324   4.273   7.121  1.0383 -0.0418  2.5337
 2611TIP3    H229393   1.200   4.222   7.192  0.7719 -0.5297  1.7332
 2612TIP3   OH229394   4.704   0.881   1.812  0.4013 -0.3262  0.0160
 2612TIP3    H129395   4.735   0.843   1.894 -0.1020  0.0440  0.3796
 2612TIP3    H229396   4.646   0.952   1.838 -1.8938 -1.8561 -0.6084
 2613TIP3   OH229397   1.889   0.709   7.430 -0.2489 -0.0878 -0.3808
 2613TIP3    H129398   1.884   0.628   7.378  0.8239 -1.3806  1.3945
 2613TIP3    H229399   1.978   0.709   7.465  0.3156  2.7263 -1.5761
 2614TIP3   OH229400   5.504   0.233   0.032  0.1633 -0.0204  0.7982
 2614TIP3    H129401   5.438   0.245   0.101  1.6753  1.5529  2.0351
 2614TIP3    H229402   5.551   0.154   0.058 -0.0622 -0.1242  0.8996
 2615TIP3   OH229403   0.857   5.529   7.797 -0.2147  0.0144  0.3047
 2615TIP3    H129404   0.849   5.607   7.743 -0.5778 -0.0121  0.3164
 2615TIP3    H229405   0.847   5.456   7.736  0.9320 -0.0408  0.1631
 2616TIP3   OH229406   1.995   1.867   7.002  0.0230  0.1127  0.0259
 2616TIP3    H129407   2.069   1.883   7.060  1.1128 -1.6556 -0.7782
 2616TIP3    H229408   2.035   1.847   6.917 -1.2812 -1.7846 -0.2173
 2617TIP3   OH229409   2.686   5.388   1.677  0.1920  0.0436 -0.9700
 2617TIP3    H129410   2.696   5.460   1.739 -0.5393 -1.8420  1.4803
 2617TIP3    H229411   2.591   5.371   1.675 -0.1784  1.5909 -4.6019
 2618TIP3   OH229412   6.226   2.236   7.249  0.3279  0.3540 -0.4849
 2618TIP3    H129413   6.319   2.216   7.240  0.5895  0.3502  1.6365
 2618TIP3    H229414   6.225   2.323   7.290 -0.5953  0.3112 -0.4110
 2619TIP3   OH229415   5.764   1.561   7.571  1.3020  0.6000  0.1780
 2619TIP3    H129416   5.703   1.527   7.635  0.0692  2.0842 -0.1526
 2619TIP3    H229417   5.809   1.483   7.536 -0.2360 -0.4991  0.5726
 2620TIP3   OH229418   0.974   1.804   0.006 -0.0105 -0.2111 -0.6209
 2620TIP3    H129419   0.967   1.756   0.088 -3.4455  1.3705  0.2133
 2620TIP3    H229420   1.002   1.892   0.032  0.2182 -0.0764 -1.3030
 2621TIP3   OH229421   3.069   0.958   7.148  0.1681 -0.2179  0.2680
 2621TIP3    H129422   3.000   0.910   7.103 -0.1427  0.9611 -0.5587
 2621TIP3    H229423   3.140   0.962   7.084 -0.3480  1.6412 -0.2379
 2622TIP3   OH229424   6.624   3.545   8.136  0.1932 -0.0256  0.0133
 2622TIP3    H129425   6.552   3.539   8.200 -1.5794 -0.4551 -1.9083
 2622TIP3    H229426   6.613   3.632   8.098  2.1106  0.7883  1.1873
 2623TIP3   OH229427   6.534   1.018   7.701  0.5393  0.1203  0.0363
 2623TIP3    H129428   6.467   0.993   7.638 -1.2182 -0.0643  1.9022
 2623TIP3    H229429   6.614   1.028   7.648 -1.0719  1.1470 -2.3833
 2624TIP3   OH229430   5.905   5.745   1.325  0.0343 -0.1551 -0.6952
 2624TIP3    H129431   5.917   5.670   1.267 -0.8880 -1.0416  0.2275
 2624TIP3    H229432   5.899   5.707   1.413 -1.1321  0.9233 -0.2805
 2625TIP3   OH229433   0.513   1.780   0.658  0.4077  0.0506  0.7242
 2625TIP3    H129434   0.569   1.798   0.734  1.0024  0.3489  0.2322
 2625TIP3    H229435   0.556   1.826   0.586 -0.8437  0.8626  0.4609
 2626TIP3   OH229436   1.613   6.545   6.719  0.0736 -0.0729  0.2857
 2626TIP3    H129437   1.670   6.474   6.692 -0.0523  0.3672 -1.2094
 2626TIP3    H229438   1.614   6.607   6.646 -0.6612  0.9567  1.1000
 2627TIP3   OH229439   6.394   6.624   7.221 -0.2391 -1.0247  0.4896
 2627TIP3    H129440   6.411   6.678   7.144 -0.0073 -1.1745  0.4355
 2627TIP3    H229441   6.424   6.677   7.295 -1.2624 -0.5169  0.5616
 2628TIP3   OH229442   5.807   0.886   8.449  0.3719  0.1636 -0.2860
 2628TIP3    H129443   5.888   0.895   8.499  0.7375 -0.5607 -0.7305
 2628TIP3    H229444   5.836   0.865   8.360 -0.3153 -1.0034 -0.2587
 2629TIP3   OH229445   6.217   1.235   2.333 -0.2908 -0.1577 -0.1352
 2629TIP3    H129446   6.188   1.168   2.394 -0.2933 -0.0753 -0.0453
 2629TIP3    H229447   6.312   1.226   2.328  0.4755  2.9890  3.7221
 2630TIP3   OH229448   2.304   2.135   8.543  0.2510 -0.1941 -0.7520
 2630TIP3    H129449   2.276   2.131   8.451  0.5375 -1.3868 -0.8084
 2630TIP3    H229450   2.399   2.138   8.539  0.3840 -2.2640 -0.5084
 2631TIP3   OH229451   6.222   5.650   0.752  0.1618  0.0340 -0.1414
 2631TIP3    H129452   6.265   5.637   0.667  1.4112 -0.4120  0.5404
 2631TIP3    H229453   6.191   5.563   0.777 -0.2526  0.1747 -0.1595
 2632TIP3   OH229454   3.932   2.617   1.022 -0.3359 -0.5770  0.2179
 2632TIP3    H129455   3.952   2.622   0.929 -0.2379  1.9437  0.3166
 2632TIP3    H229456   3.838   2.596   1.025 -0.7959  1.2343 -0.5189
 2633TIP3   OH229457   4.594   2.422   1.170 -0.0529 -0.1931 -0.1510
 2633TIP3    H129458   4.621   2.345   1.220 -0.9823 -0.3254  0.1682
 2633TIP3    H229459   4.530   2.388   1.108  0.4403  0.1234 -0.8408
 2634TIP3   OH229460   4.424   0.622   1.091 -0.4603 -0.3571  0.1495
 2634TIP3    H129461   4.351   0.666   1.048  2.0017  1.0631 -2.9138
 2634TIP3    H229462   4.443   0.676   1.168 -0.6031  1.1353 -0.8379
 2635TIP3   OH229463   6.296   0.651   0.372  0.0134  0.1625 -0.3263
 2635TIP3    H129464   6.273   0.558   0.369 -0.9064  0.3862 -0.3781
 2635TIP3    H229465   6.246   0.691   0.302  0.7086  0.6447 -0.5595
 2636TIP3   OH229466   6.484   3.589   1.139  0.4181  0.0087  0.7789
 2636TIP3    H129467   6.483   3.629   1.226 -0.7836  0.3145  0.6515
 2636TIP3    H229468   6.454   3.659   1.081 -3.5004 -1.3866  0.7699
 2637TIP3   OH229469   4.905   0.349   8.158  0.0042  0.1024  0.0458
 2637TIP3    H129470   4.882   0.329   8.248  1.9752 -0.6904  0.4186
 2637TIP3    H229471   4.922   0.264   8.117 -1.2311  0.4130 -1.2252
 2638TIP3   OH229472   0.932   3.605   0.487  0.4363  0.4125  0.0038
 2638TIP3    H129473   0.900   3.612   0.577 -1.4672  1.1686 -0.6998
 2638TIP3    H229474   0.963   3.693   0.465  1.4003  0.1058  0.0630
 2639TIP3   OH229475   6.588   2.118   0.643 -0.7360 -0.4580 -0.6901
 2639TIP3    H129476   6.560   2.143   0.731 -2.1572  0.8769 -1.4550
 2639TIP3    H229477   6.679   2.148   0.637 -1.2076  1.1584 -0.2649
 2640TIP3   OH229478   0.926   4.752   7.723  0.4340  0.1410  0.0602
 2640TIP3    H129479   1.009   4.798   7.726  0.9137 -0.6643 -0.3508
 2640TIP3    H229480   0.901   4.739   7.814  1.1536 -0.2813  0.2020
 2641TIP3   OH229481   1.881   2.377   0.863 -0.2930  0.9468 -0.2166
 2641TIP3    H129482   1.824   2.303   0.844  2.2622 -1.0059 -0.8769
 2641TIP3    H229483   1.876   2.432   0.785 -0.2112  0.0465 -0.8713
 2642TIP3   OH229484   4.942   6.851   0.691  0.6693 -0.4234 -0.2529
 2642TIP3    H129485   4.893   6.772   0.714  1.4466 -0.6451  0.7133
 2642TIP3    H229486   4.877   6.908   0.650  0.1503 -1.6454 -1.1813
 2643TIP3   OH229487   0.148   1.109   7.375  0.5645 -0.1279  0.7880
 2643TIP3    H129488   0.193   1.026   7.363  1.0203  0.0657  1.1049
 2643TIP3    H229489   0.110   1.129   7.290  2.1075  0.2989  0.1590
 2644TIP3   OH229490   1.295   0.529   1.617 -0.1215 -0.1588  0.2902
 2644TIP3    H129491   1.298   0.529   1.713  1.5841 -0.5955  0.2583
 2644TIP3    H229492   1.330   0.615   1.592 -0.6503 -0.0086  0.0476
 2645TIP3   OH229493   3.659   4.262   8.540  0.1455 -0.2248  0.3348
 2645TIP3    H129494   3.622   4.331   8.595  1.1928  0.4717  0.1884
 2645TIP3    H229495   3.623   4.281   8.452  3.2602  2.4511 -0.5466
 2646TIP3   OH229496   5.318   1.186   8.660  0.0553 -0.1070  0.4705
 2646TIP3    H129497   5.240   1.216   8.707  0.6064 -0.4901  1.6673
 2646TIP3    H229498   5.375   1.264   8.655 -0.4853  0.2467 -0.6471
 2647TIP3   OH229499   1.453   4.651   2.492  0.1379  0.2675 -0.2186
 2647TIP3    H129500   1.525   4.650   2.429 -0.1196  1.5255 -0.5698
 2647TIP3    H229501   1.382   4.604   2.449  0.5599 -0.5002 -0.0941
 2648TIP3   OH229502   2.997   2.953   2.938  0.5235  0.3269 -0.2076
 2648TIP3    H129503   2.933   2.905   2.885  0.6585  0.7116 -0.7217
 2648TIP3    H229504   3.054   2.996   2.874  0.6001  0.9152  0.2509
 2649TIP3   OH229505   6.550   4.262   7.578  0.0812 -0.1679  0.5327
 2649TIP3    H129506   6.544   4.299   7.666 -0.2909  2.6939 -0.5573
 2649TIP3    H229507   6.483   4.309   7.528  0.8179 -1.1064 -1.4518
 2650TIP3   OH229508   4.202   2.929   0.840 -0.2163  0.1007  0.0929
 2650TIP3    H129509   4.169   2.905   0.927  0.4641  0.0958  0.3566
 2650TIP3    H229510   4.124   2.930   0.785 -0.5605 -0.6482  0.5360
 2651TIP3   OH229511   3.396   0.044   7.122 -0.2907 -0.3953  0.5080
 2651TIP3    H129512   3.457  -0.012   7.074 -0.1418 -0.2791  0.5607
 2651TIP3    H229513   3.445   0.069   7.201  0.4545  1.5548 -0.5116
 2652TIP3   OH229514   1.746   0.070   1.745 -0.0041  0.1905 -0.7525
 2652TIP3    H129515   1.693   0.013   1.802 -0.4984  0.1237 -1.2800
 2652TIP3    H229516   1.732   0.158   1.780  1.0342 -0.0197  0.2876
 2653TIP3   OH229517   2.696   1.016   0.223 -0.2059 -0.2767  0.4023
 2653TIP3    H129518   2.619   1.072   0.228  0.7478  1.1549 -0.3243
 2653TIP3    H229519   2.731   1.030   0.135  1.1727 -0.4672  0.8924
 2654TIP3   OH229520   1.626   3.674   2.673  0.1361  0.8184 -0.0641
 2654TIP3    H129521   1.713   3.697   2.706 -0.2388  1.8091  0.2456
 2654TIP3    H229522   1.569   3.681   2.749 -0.0029 -1.2251  0.0739
 2655TIP3   OH229523   2.490   6.465   7.682  0.2110  0.1292 -0.0709
 2655TIP3    H129524   2.494   6.555   7.650  1.4772  0.2872  0.4763
 2655TIP3    H229525   2.461   6.473   7.773  1.7021  0.1219  0.4279
 2656TIP3   OH229526   6.536   6.140   1.987 -0.5508  0.2909 -0.6054
 2656TIP3    H129527   6.506   6.214   2.040 -1.9516  0.2701 -1.3206
 2656TIP3    H229528   6.549   6.069   2.050 -1.0092  0.6134 -0.1369
 2657TIP3   OH229529   5.384   1.843   0.794 -0.0537 -0.1746 -0.2611
 2657TIP3    H129530   5.405   1.870   0.884  1.2344  1.7127 -1.0536
 2657TIP3    H229531   5.318   1.906   0.765  1.0326  0.5255 -1.2807
 2658TIP3   OH229532   0.886   0.743   2.467  0.0484 -0.4373  0.1682
 2658TIP3    H129533   0.792   0.750   2.446  0.4317  1.7705 -1.2676
 2658TIP3    H229534   0.906   0.825   2.513  1.6053  0.0226 -1.2282
 2659TIP3   OH229535   1.587   5.741   0.371 -0.2928 -0.2065  0.5005
 2659TIP3    H129536   1.548   5.800   0.436  2.0551  0.5038  1.3701
 2659TIP3    H229537   1.534   5.754   0.292  0.3334  3.4636  0.4990
 2660TIP3   OH229538   0.512   4.552   0.609  0.3621  0.2658  0.1800
 2660TIP3    H129539   0.531   4.514   0.523  0.2703  1.1838 -0.2648
 2660TIP3    H229540   0.522   4.480   0.670  1.5254 -0.1642 -0.4749
 2661TIP3   OH229541   2.707   0.596   7.263 -0.5175 -0.8914  0.2981
 2661TIP3    H129542   2.715   0.556   7.350  0.9826 -0.5730  0.3479
 2661TIP3    H229543   2.659   0.532   7.211 -2.4053 -0.6263  1.6197
 2662TIP3   OH229544   5.708   4.448   2.387  0.0624 -0.4764 -0.0975
 2662TIP3    H129545   5.666   4.509   2.447 -0.6862 -1.0231 -0.0589
 2662TIP3    H229546   5.799   4.445   2.417  0.1094  0.5686 -0.0672
 2663TIP3   OH229547   0.282   2.504   0.716 -0.8354 -0.3910 -0.2023
 2663TIP3    H129548   0.312   2.425   0.760 -1.0616  0.7194  2.0915
 2663TIP3    H229549   0.227   2.548   0.780  1.4025  2.9534 -0.3192
 2664TIP3   OH229550   0.712   5.627   2.000 -0.3459  0.2512  0.4208
 2664TIP3    H129551   0.749   5.548   2.040  0.4562  0.2265 -0.3352
 2664TIP3    H229552   0.760   5.698   2.042  0.3253  0.2363 -0.3066
 2665TIP3   OH229553   2.868   2.215   0.492 -0.3702 -0.5238  0.3000
 2665TIP3    H129554   2.785   2.173   0.512  0.0410 -1.4742  0.0854
 2665TIP3    H229555   2.898   2.172   0.412  0.2627 -0.1157  0.3107
 2666TIP3   OH229556   3.752   5.229   8.674 -0.1760 -0.4645 -0.3958
 2666TIP3    H129557   3.721   5.140   8.693  0.2362 -0.3815  0.7608
 2666TIP3    H229558   3.675   5.275   8.642 -1.3318 -0.2753  2.3439
 2667TIP3   OH229559   1.074   6.088   0.676 -0.3498  0.9671 -0.2344
 2667TIP3    H129560   1.006   6.080   0.744 -0.1750 -2.3909 -0.2987
 2667TIP3    H229561   1.155   6.063   0.721  0.3434  1.9904 -0.8940
 2668TIP3   OH229562   5.814   2.339   1.215  1.0610  0.3831 -0.1141
 2668TIP3    H129563   5.907   2.360   1.227  0.8901  0.3795  1.4026
 2668TIP3    H229564   5.769   2.388   1.284  0.0928 -0.7534  0.1016
 2669TIP3   OH229565   3.805   0.308   8.012 -0.0125  0.0929 -0.0838
 2669TIP3    H129566   3.714   0.282   8.027  0.0709 -0.5798 -0.7290
 2669TIP3    H229567   3.831   0.350   8.094 -0.4255 -1.0605  0.6650
 2670TIP3   OH229568   5.180   2.388   7.907  0.2083 -0.9361 -0.0494
 2670TIP3    H129569   5.228   2.375   7.825  0.8278 -1.3616  0.3766
 2670TIP3    H229570   5.106   2.327   7.901 -0.1754 -0.4405 -0.6041
 2671TIP3   OH229571   6.201   1.519   0.932 -0.4962  0.3923 -0.0398
 2671TIP3    H129572   6.242   1.599   0.964  0.4377 -0.3913  0.8119
 2671TIP3    H229573   6.273   1.455   0.929 -0.9193 -0.0752 -1.9823
 2672TIP3   OH229574   5.226   6.142   1.221  0.2781  0.0614 -0.0534
 2672TIP3    H129575   5.191   6.053   1.216  0.2874  0.0772 -0.4125
 2672TIP3    H229576   5.318   6.130   1.247  0.1594 -0.0074  0.3408
 2673TIP3   OH229577   0.732   3.952   6.627 -0.3679 -0.3619 -0.3096
 2673TIP3    H129578   0.816   3.953   6.580 -0.6906 -1.4861 -0.9586
 2673TIP3    H229579   0.666   3.958   6.558 -0.8651  2.2661  0.2814
 2674TIP3   OH229580   2.558   4.586   1.193 -0.3479  0.1594  0.1021
 2674TIP3    H129581   2.600   4.668   1.168  0.6296 -0.3569 -0.0305
 2674TIP3    H229582   2.478   4.612   1.237  0.4806  1.2260  1.0323
 2675TIP3   OH229583   2.157   6.732   0.903  0.3332  0.2864  0.0894
 2675TIP3    H129584   2.133   6.724   0.811  2.5030  1.0686 -0.6050
 2675TIP3    H229585   2.115   6.812   0.933  0.5704  0.6628 -0.5725
 2676TIP3   OH229586   4.551   5.022   6.601  0.6303 -0.5940 -0.7603
 2676TIP3    H129587   4.461   5.019   6.569  0.3611  1.7587 -0.3377
 2676TIP3    H229588   4.604   5.002   6.523 -0.1929 -0.4782 -1.3706
 2677TIP3   OH229589   3.020   0.102   7.635 -0.2964 -0.2480 -0.3592
 2677TIP3    H129590   3.081   0.100   7.561 -0.0079  0.1556 -0.1312
 2677TIP3    H229591   3.045   0.025   7.688 -0.2311 -0.2982 -0.4622
 2678TIP3   OH229592   1.432   3.194   8.450  0.4328 -0.0880 -0.4807
 2678TIP3    H129593   1.400   3.256   8.515  1.8972 -0.1110  0.3063
 2678TIP3    H229594   1.397   3.226   8.367 -1.3187  0.0434  0.2693
 2679TIP3   OH229595   0.613   0.900   1.231  0.1461 -0.1054 -0.3992
 2679TIP3    H129596   0.549   0.934   1.294 -0.9260 -2.1105 -0.3405
 2679TIP3    H229597   0.603   0.957   1.155 -0.6184  0.5619  0.1697
 2680TIP3   OH229598   6.147   4.415   7.321 -0.2582  0.0308  0.2306
 2680TIP3    H129599   6.178   4.328   7.346  0.6171 -0.3227 -1.8801
 2680TIP3    H229600   6.053   4.412   7.335 -0.7242 -2.3375 -2.5216
 2681TIP3   OH229601   1.141   2.795   2.096 -0.3245 -0.5876 -0.3206
 2681TIP3    H129602   1.069   2.767   2.152  0.8041 -0.5000  1.2394
 2681TIP3    H229603   1.190   2.858   2.149  0.2494  0.2513 -1.7810
 2682TIP3   OH229604   4.534   6.573   2.272  0.1427  0.1235 -0.4299
 2682TIP3    H129605   4.579   6.577   2.187  0.6758 -1.2064 -0.2377
 2682TIP3    H229606   4.463   6.510   2.258  1.5360 -1.7964  0.6442
 2683TIP3   OH229607   1.556   4.890   6.927  0.2639  0.2150 -0.6293
 2683TIP3    H129608   1.562   4.800   6.895  1.5156  0.7476 -2.0553
 2683TIP3    H229609   1.485   4.929   6.877  1.1810  0.6004 -1.6930
 2684TIP3   OH229610   5.704   1.887   2.074 -0.1172 -0.7880 -0.5000
 2684TIP3    H129611   5.631   1.923   2.125 -0.7411 -1.5863 -0.8184
 2684TIP3    H229612   5.752   1.833   2.137  1.7059  1.6914  0.3949
 2685TIP3   OH229613   5.049   5.919   8.512 -0.1911  0.0991  0.1074
 2685TIP3    H129614   5.109   5.914   8.586  1.5388 -1.4316 -1.3181
 2685TIP3    H229615   4.991   5.844   8.522 -0.2992  0.1894  0.1700
 2686TIP3   OH229616   0.914   6.560   1.668  0.2264 -0.2146  0.2669
 2686TIP3    H129617   1.003   6.531   1.687 -0.2203 -1.3914  0.6246
 2686TIP3    H229618   0.862   6.530   1.743 -0.1573  2.1564  1.0370
 2687TIP3   OH229619   6.530   3.435   0.075  0.4621  0.0123  0.0692
 2687TIP3    H129620   6.553   3.360   0.020 -0.1763 -1.4352  1.6992
 2687TIP3    H229621   6.544   3.406   0.165 -0.1420  1.7306  0.7794
 2688TIP3   OH229622   3.320   6.356   7.642 -0.1862 -0.0317 -0.0334
 2688TIP3    H129623   3.256   6.418   7.676 -0.3825 -0.6687  0.7992
 2688TIP3    H229624   3.402   6.380   7.685 -0.5654 -1.2366  1.4657
 2689TIP3   OH229625   2.696   5.052   1.805 -0.0464 -0.3476 -0.4628
 2689TIP3    H129626   2.602   5.065   1.820  0.1908  0.5578  0.4272
 2689TIP3    H229627   2.733   5.140   1.817  1.1860 -1.0752  1.5929
 2690TIP3   OH229628   0.126   5.967   1.253 -0.0844  0.4024  0.0457
 2690TIP3    H129629   0.142   5.944   1.345  0.4467 -0.5776 -0.2697
 2690TIP3    H229630   0.044   6.015   1.254 -1.7314 -2.2235  0.7317
 2691TIP3   OH229631   3.029   6.421   7.773 -0.3284  0.0889  0.3320
 2691TIP3    H129632   2.960   6.392   7.833 -1.4137  1.2203 -0.3098
 2691TIP3    H229633   2.984   6.434   7.689  0.6232  0.9997 -0.0660
 2692TIP3   OH229634   0.890   5.088   1.270  0.5169 -0.1802  0.5227
 2692TIP3    H129635   0.984   5.077   1.260  0.5750 -0.6173  1.3916
 2692TIP3    H229636   0.875   5.182   1.265  0.5174 -0.2275 -3.2314
 2693TIP3   OH229637   5.669   1.138   1.765  0.2876  0.6369 -0.3035
 2693TIP3    H129638   5.669   1.071   1.697 -1.5367  0.8294 -0.5397
 2693TIP3    H229639   5.758   1.137   1.801  0.9485 -0.2529 -1.9076
 2694TIP3   OH229640   5.205   0.068   0.707  0.3079 -0.7391  0.6246
 2694TIP3    H129641   5.112   0.053   0.693  0.0529  0.5007  0.8363
 2694TIP3    H229642   5.231   0.128   0.637  0.7873 -0.5518  0.9558
 2695TIP3   OH229643   6.776   1.005   1.862 -0.9334  0.6328 -0.2032
 2695TIP3    H129644   6.828   1.060   1.803 -1.6425  1.1111 -0.3893
 2695TIP3    H229645   6.754   0.928   1.809 -1.8477  1.2097 -0.6887
 2696TIP3   OH229646   1.211   6.807   2.264  0.5288 -0.0860  0.3628
 2696TIP3    H129647   1.128   6.804   2.312  0.9193  0.9743  1.1577
 2696TIP3    H229648   1.253   6.723   2.283 -0.4080 -0.6907 -0.1588
 2697TIP3   OH229649   4.553   4.427   2.015 -0.2262 -0.2305 -0.0144
 2697TIP3    H129650   4.557   4.508   2.065  0.6270 -0.4389  0.2775
 2697TIP3    H229651   4.639   4.421   1.972 -0.7398 -0.3409 -1.0508
 2698TIP3   OH229652   2.044   6.564   7.722 -0.2985 -0.3615  0.2389
 2698TIP3    H129653   2.060   6.650   7.683  2.2121 -0.2058  1.4440
 2698TIP3    H229654   2.037   6.581   7.815  1.1617 -1.5226  0.6037
 2699TIP3   OH229655   0.566   5.410   7.663 -0.2144  0.0283  0.1931
 2699TIP3    H129656   0.605   5.340   7.716 -0.8725  0.7053  1.6208
 2699TIP3    H229657   0.502   5.364   7.608 -0.2468 -0.5699  0.7134
 2700TIP3   OH229658   2.951   6.073   8.602  0.3966 -0.1769 -0.4605
 2700TIP3    H129659   2.868   6.097   8.645  0.7366 -1.9916  1.3447
 2700TIP3    H229660   2.968   5.984   8.631  2.6775 -0.0786 -1.3233
 2701TIP3   OH229661   4.372   4.723   8.586  0.0934 -0.4356 -0.6637
 2701TIP3    H129662   4.346   4.733   8.494 -0.0227  1.8916 -0.4263
 2701TIP3    H229663   4.434   4.650   8.585 -0.2315 -0.7399 -2.5165
 2702TIP3   OH229664   5.946   1.405   0.946  0.0136 -0.3907  0.4123
 2702TIP3    H129665   6.037   1.431   0.961 -0.0623  0.6081 -0.6383
 2702TIP3    H229666   5.928   1.436   0.857 -0.8137 -2.1434 -0.0570
 2703TIP3   OH229667   4.084   6.334   8.123  0.2576 -0.0669 -0.5185
 2703TIP3    H129668   4.141   6.315   8.049 -1.9793 -3.4859 -1.6299
 2703TIP3    H229669   3.996   6.341   8.085 -0.7458 -0.1165  1.6079
 2704TIP3   OH229670   4.044   2.442   7.563 -0.0087  0.0143  0.5637
 2704TIP3    H129671   4.056   2.501   7.637  0.1676  0.5942  0.0752
 2704TIP3    H229672   3.965   2.392   7.585  0.0880  0.1198  1.1767
 2705TIP3   OH229673   1.899   0.286   6.522 -0.3247 -0.1890 -0.2681
 2705TIP3    H129674   1.905   0.270   6.617 -4.1647 -1.2544 -0.0754
 2705TIP3    H229675   1.873   0.378   6.516 -1.1252 -0.4025 -0.1969
 2706TIP3   OH229676   1.983   0.084   0.642 -0.2202  0.4036 -0.6024
 2706TIP3    H129677   2.015   0.165   0.602 -0.7542  1.4989  1.0877
 2706TIP3    H229678   1.957   0.109   0.730  0.7708 -1.8744  0.4244
 2707TIP3   OH229679   3.068   3.778   0.481  0.3421  0.2245  0.0906
 2707TIP3    H129680   3.157   3.782   0.447  0.7917 -0.3125  1.1552
 2707TIP3    H229681   3.024   3.853   0.440  1.3814  0.7238 -0.1627
 2708TIP3   OH229682   6.852   0.686   7.658  0.5627  0.3381 -0.3124
 2708TIP3    H129683   6.916   0.617   7.675 -0.4299 -0.3196  0.9359
 2708TIP3    H229684   6.836   0.725   7.744 -0.6863  0.5116 -0.6082
 2709TIP3   OH229685   1.277   2.122   7.537 -0.3532  0.2873 -0.2626
 2709TIP3    H129686   1.263   2.067   7.460 -0.9984 -0.3307  0.2889
 2709TIP3    H229687   1.368   2.151   7.529 -0.5814  0.7396 -1.5695
 2710TIP3   OH229688   0.910   3.442   1.401  0.2558  0.6056  0.3977
 2710TIP3    H129689   0.859   3.467   1.324  1.8383  2.1582 -0.2192
 2710TIP3    H229690   0.878   3.499   1.471  0.0950  0.5041  0.4061
 2711TIP3   OH229691   5.525   3.810   1.818 -0.3660  0.4759  0.4264
 2711TIP3    H129692   5.602   3.755   1.833 -0.7663 -0.5590 -1.1565
 2711TIP3    H229693   5.457   3.771   1.874  0.2685  1.5528  2.0358
 2712TIP3   OH229694   0.070   6.011   0.422  0.5437  0.0031  0.0053
 2712TIP3    H129695   0.072   5.935   0.362 -2.2274 -0.1626 -0.0032
 2712TIP3    H229696   0.086   6.086   0.365 -1.4146 -0.2141 -0.9361
 2713TIP3   OH229697   2.259   0.078   8.018 -0.1368 -0.0436 -0.1410
 2713TIP3    H129698   2.168   0.108   8.017 -0.3428 -0.4817  1.9240
 2713TIP3    H229699   2.311   0.158   8.030 -0.1482  0.2751 -1.8281
 2714TIP3   OH229700   6.157   5.335   8.138 -0.4247 -0.2032  0.0823
 2714TIP3    H129701   6.094   5.267   8.163  1.2878 -1.9569 -0.0938
 2714TIP3    H229702   6.239   5.287   8.122  1.1244  2.0262  0.8453
 2715TIP3   OH229703   6.138   3.311   1.474 -0.1322  0.6194 -0.4159
 2715TIP3    H129704   6.183   3.358   1.404 -1.9715  3.1116 -0.0520
 2715TIP3    H229705   6.076   3.374   1.510 -1.6203 -1.6307  1.2564
 2716TIP3   OH229706   6.115   0.115   7.137 -0.4506  0.0063 -0.2157
 2716TIP3    H129707   6.098   0.067   7.218 -0.1479 -1.2817 -0.8874
 2716TIP3    H229708   6.210   0.120   7.132 -0.3718 -1.6152 -1.3950
 2717TIP3   OH229709   3.191   1.456   8.220 -0.0765  0.2635  0.2664
 2717TIP3    H129710   3.195   1.382   8.160  0.1601  0.2145  0.3398
 2717TIP3    H229711   3.200   1.533   8.164  0.2102  0.2154  0.2437
 2718TIP3   OH229712   4.483   0.524   0.731  0.0122  0.0887  0.4324
 2718TIP3    H129713   4.408   0.467   0.747  0.3562  0.2213  2.7849
 2718TIP3    H229714   4.547   0.500   0.799  1.3801  1.2172 -0.3997
 2719TIP3   OH229715   0.897   1.395   7.621 -0.4962 -0.2364 -0.1366
 2719TIP3    H129716   0.953   1.441   7.684 -0.1910  0.4473 -0.8848
 2719TIP3    H229717   0.849   1.331   7.673  0.5079 -0.3885  0.6180
 2720TIP3   OH229718   6.197   3.496   7.478  0.2891 -0.1770 -0.4181
 2720TIP3    H129719   6.226   3.586   7.463 -1.9079  0.5649 -0.5699
 2720TIP3    H229720   6.192   3.487   7.573  3.0030 -1.0514 -0.2869
 2721TIP3   OH229721   2.245   4.437   1.696  0.2022  0.0740 -0.0562
 2721TIP3    H129722   2.251   4.520   1.743  1.8781 -0.6678  1.1233
 2721TIP3    H229723   2.327   4.431   1.648 -1.2114  0.5166 -2.7059
 2722TIP3   OH229724   0.889   0.872   8.081 -0.0055  0.8481 -0.6418
 2722TIP3    H129725   0.915   0.894   7.992 -0.4756 -2.7458 -1.7920
 2722TIP3    H229726   0.957   0.814   8.113 -0.3101  1.3545  1.0469
 2723TIP3   OH229727   3.847   4.771   8.660  0.4091 -0.0820  0.1415
 2723TIP3    H129728   3.892   4.831   8.720  1.2051  0.2181 -0.7230
 2723TIP3    H229729   3.917   4.714   8.626  0.0819  0.1018 -0.8842
 2724TIP3   OH229730   6.715   0.822   1.682 -0.1493  0.2506  1.0794
 2724TIP3    H129731   6.675   0.909   1.677  0.2856  0.5639  2.7190
 2724TIP3    H229732   6.652   0.765   1.636  0.0091  1.5286 -0.8722
 2725TIP3   OH229733   6.645   2.532   7.187  0.1587 -0.2779 -0.0072
 2725TIP3    H129734   6.672   2.513   7.097  1.3733 -0.0474  0.2944
 2725TIP3    H229735   6.556   2.568   7.179  0.6139  0.6254 -1.1936
 2726TIP3   OH229736   2.099   6.521   0.515  0.2013  0.6264 -0.9135
 2726TIP3    H129737   2.010   6.540   0.485 -1.1342 -0.6658  1.8598
 2726TIP3    H229738   2.127   6.602   0.558  1.1354  1.6132 -3.1963
 2727TIP3   OH229739   2.683   4.959   6.555  0.2308 -0.1009 -0.2917
 2727TIP3    H129740   2.694   5.038   6.609 -1.0231  0.0395 -0.2292
 2727TIP3    H229741   2.736   4.893   6.599  1.2809  0.6879 -0.3237
 2728TIP3   OH229742   1.625   4.762   1.690 -0.0163 -0.7240 -0.2669
 2728TIP3    H129743   1.604   4.706   1.615 -0.9457  2.1385 -2.3023
 2728TIP3    H229744   1.714   4.792   1.673  0.1983 -0.9604  0.4154
 2729TIP3   OH229745   0.853   3.867   7.866 -0.2521  0.5558  0.3028
 2729TIP3    H129746   0.836   3.888   7.958 -0.0518  0.5331  0.3464
 2729TIP3    H229747   0.941   3.902   7.850 -0.3889  0.7833  0.0506
 2730TIP3   OH229748   3.451   5.359   7.711 -0.0909  0.0193 -0.0656
 2730TIP3    H129749   3.405   5.384   7.791  0.4682 -0.6213  0.4748
 2730TIP3    H229750   3.508   5.434   7.692 -0.5074  0.3333 -0.0822
 2731TIP3   OH229751   3.900   2.308   1.436  0.3121 -0.3593  0.3870
 2731TIP3    H129752   3.957   2.288   1.510 -1.1606 -4.1665  0.7394
 2731TIP3    H229753   3.933   2.254   1.364 -0.4836  0.4280 -0.6127
 2732TIP3   OH229754   1.106   0.218   6.677  0.0594 -0.1708 -0.1799
 2732TIP3    H129755   1.145   0.205   6.591 -0.1197 -0.5995 -0.1960
 2732TIP3    H229756   1.038   0.284   6.662  0.8648  0.6920 -0.1213
 2733TIP3   OH229757   4.129   2.229   8.065 -0.0157 -0.3149 -0.2633
 2733TIP3    H129758   4.210   2.255   8.108  0.4873 -0.7519 -0.9252
 2733TIP3    H229759   4.094   2.159   8.120 -0.4457  0.4992  0.5340
 2734TIP3   OH229760   4.901   1.198   8.665 -0.7008 -0.0172 -0.6044
 2734TIP3    H129761   4.946   1.280   8.686 -3.1810  0.7456  2.5485
 2734TIP3    H229762   4.829   1.225   8.608 -2.0658  0.2748  1.1657
 2735TIP3   OH229763   5.044   3.053   0.475 -0.8919  0.3809 -0.4119
 2735TIP3    H129764   5.013   3.134   0.516  0.9935  1.2095 -0.5287
 2735TIP3    H229765   5.058   2.993   0.548  1.8629  1.6441  0.2345
 2736TIP3   OH229766   5.563   4.873   7.496  0.6100  0.3289  0.8908
 2736TIP3    H129767   5.517   4.790   7.505 -0.8487  0.9437 -0.3137
 2736TIP3    H229768   5.517   4.933   7.555  0.7025  0.6214  0.6711
 2737TIP3   OH229769   2.789   0.840   7.624  0.4793  0.2973  0.2457
 2737TIP3    H129770   2.816   0.855   7.533  1.6661  0.5899  0.6351
 2737TIP3    H229771   2.728   0.911   7.642  2.4327  1.9890  0.5578
 2738TIP3   OH229772   1.490   5.268   0.460 -0.3168  0.5366  0.2045
 2738TIP3    H129773   1.413   5.320   0.437 -0.4425  0.6465  0.8722
 2738TIP3    H229774   1.549   5.331   0.502  1.2716  1.1091 -2.5661
 2739TIP3   OH229775   2.741   0.237   1.591  0.8409  0.1985  0.3696
 2739TIP3    H129776   2.723   0.189   1.510 -1.1513  0.3027  0.6950
 2739TIP3    H229777   2.835   0.227   1.604  0.8621 -1.7084 -0.7778
 2740TIP3   OH229778   4.150   2.829   1.088 -0.5485  0.0179  0.2371
 2740TIP3    H129779   4.120   2.853   1.176  1.7248 -1.6206  1.5952
 2740TIP3    H229780   4.095   2.755   1.063 -1.7939  1.0530 -0.1430
 2741TIP3   OH229781   5.079   4.308   7.155 -0.1186 -0.0679  0.5079
 2741TIP3    H129782   5.132   4.337   7.080 -2.9477  0.7430 -1.3148
 2741TIP3    H229783   5.000   4.362   7.151 -0.6738 -0.4643  3.7439
 2742TIP3   OH229784   1.659   1.739   6.838 -0.0388 -0.4681  0.4041
 2742TIP3    H129785   1.668   1.833   6.822  1.0779 -0.6705 -0.2934
 2742TIP3    H229786   1.574   1.716   6.800  0.2339  0.0452 -0.5595
 2743TIP3   OH229787   1.142   2.365   0.723 -0.6949  0.6919 -0.4725
 2743TIP3    H129788   1.200   2.440   0.706 -0.2026  0.5333  0.4507
 2743TIP3    H229789   1.192   2.289   0.693 -0.4105  0.5533  0.3406
 2744TIP3   OH229790   1.899   5.891   0.986  0.5509 -0.0340 -0.5942
 2744TIP3    H129791   1.943   5.973   0.964 -0.1524  0.2133 -1.1199
 2744TIP3    H229792   1.815   5.918   1.024  0.7838 -0.4970  0.2776
 2745TIP3   OH229793   6.852   0.266   0.872  0.0587  0.1264 -0.1810
 2745TIP3    H129794   6.768   0.226   0.894  0.0891 -0.0757 -0.4303
 2745TIP3    H229795   6.868   0.241   0.781 -0.7020  2.0527 -0.8906
 2746TIP3   OH229796   3.306   3.382   1.890  0.0574 -0.3763 -0.2584
 2746TIP3    H129797   3.239   3.348   1.949  0.2579  0.0374  0.2058
 2746TIP3    H229798   3.290   3.476   1.886  0.5750 -0.2828 -0.1840
 2747TIP3   OH229799   3.613   2.089   1.422 -0.5902  0.6036 -0.8479
 2747TIP3    H129800   3.668   2.067   1.347 -2.2190 -1.2999 -1.5938
 2747TIP3    H229801   3.648   2.172   1.454  1.1536  0.6851 -2.7334
 2748TIP3   OH229802   5.295   3.114   1.912  0.1573 -0.5024 -0.1284
 2748TIP3    H129803   5.214   3.079   1.874 -0.2714  1.2233 -0.9078
 2748TIP3    H229804   5.288   3.093   2.006 -2.3168  1.4948  0.2583
 2749TIP3   OH229805   2.143   0.338   7.448 -0.6753  0.0263 -0.1902
 2749TIP3    H129806   2.110   0.404   7.509 -0.2752  1.0741 -1.0738
 2749TIP3    H229807   2.197   0.387   7.386 -0.8057 -1.0501 -1.1963
 2750TIP3   OH229808   1.009   0.298   8.021 -0.6040 -0.0370  0.4033
 2750TIP3    H129809   1.073   0.307   8.092 -0.7420 -0.6040  0.6062
 2750TIP3    H229810   1.047   0.232   7.963 -0.6125  0.2410  0.0757
 2751TIP3   OH229811   4.760   5.290   1.044  0.2383 -0.1158 -0.0916
 2751TIP3    H129812   4.736   5.206   1.084 -1.7684  0.5810  0.2695
 2751TIP3    H229813   4.814   5.267   0.969  0.5845 -1.6667  0.6016
 2752TIP3   OH229814   0.429   4.010   8.003 -0.4339 -0.2929 -0.5760
 2752TIP3    H129815   0.465   3.989   7.916  0.8383 -1.3255  0.1616
 2752TIP3    H229816   0.497   4.062   8.045 -1.7155  1.6124 -0.7326
 2753TIP3   OH229817   0.042   1.018   2.394  0.2764 -0.3186 -0.2510
 2753TIP3    H129818  -0.051   1.036   2.380  0.1493 -0.3976  0.4418
 2753TIP3    H229819   0.071   0.974   2.315 -0.3191 -0.4515 -0.3952
 2754TIP3   OH229820   1.836   6.081   0.598 -0.0841  0.3168 -0.3657
 2754TIP3    H129821   1.788   6.108   0.676  0.2167  1.6218 -0.6069
 2754TIP3    H229822   1.920   6.050   0.631  0.4762  1.8952 -0.2077
 2755TIP3   OH229823   4.014   2.452   2.074  0.0606 -0.2562 -0.2019
 2755TIP3    H129824   4.092   2.450   2.130  0.7184  0.1578 -1.0737
 2755TIP3    H229825   4.049   2.445   1.985 -1.0187 -1.9410 -0.5345
 2756TIP3   OH229826   0.389   0.600   7.989  0.5368 -0.0843  0.2319
 2756TIP3    H129827   0.473   0.641   8.011  0.5541  0.2433 -0.4431
 2756TIP3    H229828   0.342   0.665   7.938 -0.0785 -0.3217  0.4786
 2757TIP3   OH229829   3.303   4.399   0.080 -0.5824  0.0122  0.2402
 2757TIP3    H129830   3.366   4.448   0.027  0.8493 -1.4834  0.4761
 2757TIP3    H229831   3.285   4.456   0.154  0.8505  0.3254  0.3897
 2758TIP3   OH229832   2.690   2.103   7.261  0.4547  0.3097  0.1977
 2758TIP3    H129833   2.657   2.082   7.173 -0.9099  0.1034  0.7349
 2758TIP3    H229834   2.624   2.068   7.320  1.5125  0.1527  1.3392
 2759TIP3   OH229835   6.237   5.248   0.543 -0.2837 -0.5758  0.0063
 2759TIP3    H129836   6.249   5.254   0.637  0.4214  0.7454 -0.1515
 2759TIP3    H229837   6.303   5.184   0.514  1.4447  1.1045  0.0832
 2760TIP3   OH229838   1.997   2.484   1.300  0.1040  0.2178  0.4774
 2760TIP3    H129839   2.043   2.492   1.383 -0.4253 -1.5357  0.9717
 2760TIP3    H229840   2.061   2.445   1.240  0.7345  2.1689 -0.2177
 2761TIP3   OH229841   2.487   3.542   7.557  0.6077  0.2236  0.1058
 2761TIP3    H129842   2.408   3.559   7.505  0.3073  1.1363  0.8337
 2761TIP3    H229843   2.558   3.582   7.507  0.4843  0.1690 -0.1148
 2762TIP3   OH229844   3.771   6.698   1.292  0.4812 -0.6153  0.1202
 2762TIP3    H129845   3.709   6.625   1.300  1.7606 -1.6142  1.3873
 2762TIP3    H229846   3.800   6.714   1.381  1.1464  0.6457 -0.3116
 2763TIP3   OH229847   6.768   3.981   0.422 -0.3455 -0.0339  0.7121
 2763TIP3    H129848   6.783   4.056   0.364 -0.8636 -0.1932  0.3656
 2763TIP3    H229849   6.851   3.970   0.469  0.1799 -0.0862 -0.2142
 2764TIP3   OH229850   2.763   1.010   8.647 -0.0856  0.0761 -0.7229
 2764TIP3    H129851   2.769   0.929   8.596 -1.8201  0.2134 -1.2083
 2764TIP3    H229852   2.678   1.047   8.622 -0.1048  1.1437  0.8384
 2765TIP3   OH229853   1.595   6.012   8.213  0.0708  0.1593 -0.2017
 2765TIP3    H129854   1.647   6.046   8.141  0.5707 -0.1547  0.0075
 2765TIP3    H229855   1.605   6.077   8.283 -1.8686  1.3979 -0.9922
 2766TIP3   OH229856   2.990   2.470   2.199  0.5622  0.3410  0.2795
 2766TIP3    H129857   2.977   2.486   2.293  1.2560 -2.9590  1.1024
 2766TIP3    H229858   3.074   2.425   2.194  0.6655  0.6739 -1.9871
 2767TIP3   OH229859   1.034   6.540   7.494 -0.2445 -0.3596 -0.3203
 2767TIP3    H129860   0.971   6.498   7.553 -1.0154  0.1339 -0.7750
 2767TIP3    H229861   1.023   6.493   7.411 -0.6698  0.3073 -0.6546
 2768TIP3   OH229862   4.230   5.825   8.212 -0.2870  0.5593 -0.8475
 2768TIP3    H129863   4.236   5.756   8.146  2.2611 -1.1498  0.9965
 2768TIP3    H229864   4.260   5.904   8.168 -1.9884  0.2941 -2.6267
 2769TIP3   OH229865   4.085   1.617   2.652  0.2502  0.3908  0.0627
 2769TIP3    H129866   4.029   1.693   2.637 -0.2734 -0.2816 -1.6056
 2769TIP3    H229867   4.082   1.568   2.570 -0.9479 -2.4090  1.6205
 2770TIP3   OH229868   5.338   3.538   0.543  0.0492 -0.0521 -0.1489
 2770TIP3    H129869   5.352   3.581   0.459  2.0054  0.0472  0.1758
 2770TIP3    H229870   5.420   3.491   0.560 -0.0820  0.3517  1.9316
 2771TIP3   OH229871   1.565   4.974   0.469  0.6401  0.0570  0.3161
 2771TIP3    H129872   1.548   4.928   0.387 -2.3617  0.5620  0.5190
 2771TIP3    H229873   1.540   5.065   0.451  1.4450  0.5052  1.3658
 2772TIP3   OH229874   1.326   3.413   0.535  0.1558 -0.0411 -0.2640
 2772TIP3    H129875   1.311   3.476   0.465  0.3299  0.2766 -0.0176
 2772TIP3    H229876   1.274   3.445   0.609  0.9734  0.3294  0.1602
 2773TIP3   OH229877   3.632   3.279   7.591  0.2158 -0.4037 -0.0620
 2773TIP3    H129878   3.618   3.189   7.621 -1.9927  0.0471  0.4698
 2773TIP3    H229879   3.679   3.322   7.663  0.9487 -1.0277 -0.1609
 2774TIP3   OH229880   6.030   4.472   7.652  0.8799 -0.0385 -0.2240
 2774TIP3    H129881   5.984   4.419   7.587  1.6461 -2.3325  0.9680
 2774TIP3    H229882   6.122   4.450   7.639  1.3398  1.7423 -0.2505
 2775TIP3   OH229883   2.584   3.887   0.902  0.6190 -0.7180  0.2663
 2775TIP3    H129884   2.657   3.934   0.863  0.0948  0.4179  0.5785
 2775TIP3    H229885   2.613   3.866   0.991  0.5742 -0.2778  0.3862
 2776TIP3   OH229886   3.180   1.055   2.336  0.6901  0.4964 -0.6344
 2776TIP3    H129887   3.166   1.136   2.386  0.5442  1.0228 -1.5014
 2776TIP3    H229888   3.224   0.996   2.397 -0.5175  0.7108  0.4691
 2777TIP3   OH229889   5.341   4.216   0.935  0.1903 -0.1131 -0.0906
 2777TIP3    H129890   5.427   4.179   0.916  1.5024  1.1350  2.7740
 2777TIP3    H229891   5.351   4.256   1.021 -3.1451  0.5709  0.1099
 2778TIP3   OH229892   1.082   0.747   2.016  0.3084 -0.3929  0.1903
 2778TIP3    H129893   1.020   0.765   2.087 -1.8108 -1.5163 -1.2651
 2778TIP3    H229894   1.139   0.679   2.051  0.2671  0.1364  1.3269
 2779TIP3   OH229895   4.683   4.984   7.934  0.4131  0.2138  0.2562
 2779TIP3    H129896   4.664   5.069   7.974  0.6880  0.8395 -0.8662
 2779TIP3    H229897   4.599   4.953   7.902  0.7154  1.5874 -2.1031
 2780TIP3   OH229898   5.228   0.339   1.622  0.0812  0.4742 -0.0110
 2780TIP3    H129899   5.186   0.254   1.629  1.2425 -0.0374  1.0293
 2780TIP3    H229900   5.313   0.320   1.582 -0.3080  1.3850 -1.3438
 2781TIP3   OH229901   5.894   5.566   7.510  0.5684  0.1256 -0.2954
 2781TIP3    H129902   5.860   5.560   7.421 -1.6786 -0.8069  0.5410
 2781TIP3    H229903   5.940   5.484   7.524  3.2584  1.3355 -1.3879
 2782TIP3   OH229904   1.654   5.283   1.796 -0.2504  0.3843  0.0194
 2782TIP3    H129905   1.628   5.369   1.829  1.4021  0.4052  1.3793
 2782TIP3    H229906   1.600   5.221   1.845  2.0079  0.4248  2.8283
 2783TIP3   OH229907   4.779   3.034   0.774  0.0667 -0.0897  0.4754
 2783TIP3    H129908   4.822   3.109   0.733 -0.5769 -0.1649 -0.3864
 2783TIP3    H229909   4.798   3.042   0.867  0.9714  0.4979  0.2454
 2784TIP3   OH229910   0.761   6.289   1.005 -0.3121 -1.0669  0.4276
 2784TIP3    H129911   0.687   6.346   0.982  1.3089  0.8579 -0.3847
 2784TIP3    H229912   0.793   6.324   1.088 -0.5804 -2.1849  1.0157
 2785TIP3   OH229913   6.850   6.786   7.848  0.2283  0.4026  0.4874
 2785TIP3    H129914   6.780   6.828   7.797 -1.2372 -0.8368  1.4205
 2785TIP3    H229915   6.850   6.832   7.932 -0.2514 -0.3349  0.9017
 2786TIP3   OH229916   4.812   6.287   8.427 -0.4069 -0.1791  0.0323
 2786TIP3    H129917   4.866   6.215   8.395 -1.5893 -0.4404 -1.4697
 2786TIP3    H229918   4.728   6.275   8.384 -1.6245  0.3612  2.1061
 2787TIP3   OH229919   3.334   5.761   0.108 -0.0552  0.0153 -0.3448
 2787TIP3    H129920   3.396   5.690   0.128 -1.7333 -1.5796 -0.5560
 2787TIP3    H229921   3.364   5.835   0.161  1.1114 -1.1941  0.7522
 2788TIP3   OH229922   3.759   5.016   7.121 -0.2919  0.1474 -0.8124
 2788TIP3    H129923   3.722   5.105   7.117  1.2197  0.8122 -0.9039
 2788TIP3    H229924   3.701   4.969   7.180 -0.2674  1.6700  0.5199
 2789TIP3   OH229925   6.333   5.536   0.513 -0.0042 -0.8427  0.1207
 2789TIP3    H129926   6.275   5.472   0.471 -1.2220 -0.2606  0.8506
 2789TIP3    H229927   6.386   5.483   0.572  1.6397 -1.6519 -1.9566
 2790TIP3   OH229928   5.973   2.051   1.730 -0.0599 -0.1872 -0.6493
 2790TIP3    H129929   5.882   2.081   1.728  0.2623  0.9346  0.2840
 2790TIP3    H229930   5.978   1.985   1.661 -1.7160 -0.6869 -0.3259
 2791TIP3   OH229931   1.028   3.821   8.369 -0.1176 -0.0586  0.9513
 2791TIP3    H129932   0.943   3.781   8.357 -1.1708  2.2013  0.3499
 2791TIP3    H229933   1.017   3.881   8.443  1.3951 -0.8101  1.8501
 2792TIP3   OH229934   0.069   2.387   7.595  0.0529 -0.1670  0.6424
 2792TIP3    H129935   0.051   2.450   7.665  0.0372  0.2564  0.2640
 2792TIP3    H229936   0.030   2.426   7.517 -1.8028 -1.6202  0.7835
 2793TIP3   OH229937   1.007   2.674   0.202  0.1472  0.4240 -0.2407
 2793TIP3    H129938   0.974   2.613   0.135  0.4681  0.1380 -0.1427
 2793TIP3    H229939   1.039   2.749   0.152  0.0414  0.3733 -0.3856
 2794TIP3   OH229940   1.397   3.938   2.275  0.0253  0.3419  0.6037
 2794TIP3    H129941   1.376   3.993   2.200  0.6927  0.0829  0.2257
 2794TIP3    H229942   1.313   3.900   2.300 -0.2528  0.6627  0.1814
 2795TIP3   OH229943   1.795   5.466   0.938 -0.1633 -0.0787 -0.9328
 2795TIP3    H129944   1.763   5.502   0.855 -0.6927 -1.2062 -1.2392
 2795TIP3    H229945   1.841   5.385   0.914 -3.7261 -2.6677  0.0899
 2796TIP3   OH229946   2.216   6.496   1.014 -0.0521  0.0890 -0.1759
 2796TIP3    H129947   2.193   6.583   0.981  0.1815  1.2860  2.4842
 2796TIP3    H229948   2.132   6.450   1.021 -0.2559  0.3228 -1.0507
 2797TIP3   OH229949   5.134   2.030   0.793 -0.0423  0.0973 -0.0490
 2797TIP3    H129950   5.157   2.123   0.795 -2.0595  0.6441 -0.1437
 2797TIP3    H229951   5.120   2.011   0.700 -0.0495 -0.2065  0.0122
 2798TIP3   OH229952   2.006   0.997   7.248 -0.4442  0.1907 -0.1486
 2798TIP3    H129953   1.942   0.931   7.221  1.2173 -1.3086 -0.7004
 2798TIP3    H229954   2.072   0.996   7.178  0.9371  0.5540  1.0851
 2799TIP3   OH229955   4.176   2.704   7.439  0.6364 -0.1573 -0.2333
 2799TIP3    H129956   4.115   2.649   7.488 -1.4797  1.3574 -1.0221
 2799TIP3    H229957   4.241   2.642   7.404 -0.2572 -1.7989  0.8574
 2800TIP3   OH229958   3.776   5.420   1.709 -0.2049 -0.5301 -0.7414
 2800TIP3    H129959   3.689   5.410   1.670 -0.3128  0.1400 -0.6958
 2800TIP3    H229960   3.760   5.456   1.796  0.0592 -1.6264 -0.2244
 2801TIP3   OH229961   3.337   3.365   1.264  0.0081  0.1310  0.3059
 2801TIP3    H129962   3.350   3.271   1.264  0.8569  0.2382  0.5975
 2801TIP3    H229963   3.398   3.398   1.199 -1.4055  0.3560 -0.9616
 2802TIP3   OH229964   1.199   4.726   8.019 -0.1351 -0.0846 -0.1746
 2802TIP3    H129965   1.238   4.671   8.087 -2.0537 -1.3734 -0.0618
 2802TIP3    H229966   1.114   4.752   8.054 -0.0473  1.4724 -0.9990
 2803TIP3   OH229967   5.360   4.180   8.090  0.2004  0.7031  0.2753
 2803TIP3    H129968   5.404   4.261   8.115  1.3967  0.0039  0.4942
 2803TIP3    H229969   5.430   4.114   8.086 -0.7146 -0.2835 -0.0829
 2804TIP3   OH229970   3.548   1.095   8.281 -0.6447  0.2155 -0.5452
 2804TIP3    H129971   3.506   1.035   8.219 -1.4972  2.0856 -1.8682
 2804TIP3    H229972   3.499   1.083   8.363  0.0838 -1.8123 -0.3341
 2805TIP3   OH229973   4.032   2.549   1.589 -0.5759  0.3166  0.2462
 2805TIP3    H129974   4.060   2.614   1.525  0.5531 -1.0409 -0.6866
 2805TIP3    H229975   3.943   2.525   1.562 -0.7158  0.9034  0.1659
 2806TIP3   OH229976   5.017   4.213   0.694  0.0965 -0.4728 -0.3545
 2806TIP3    H129977   4.937   4.178   0.654 -1.2312  2.8058 -0.8763
 2806TIP3    H229978   5.053   4.273   0.629  1.8237 -0.2612  0.7197
 2807TIP3   OH229979   2.422   1.532   1.222 -0.0478  0.1985  0.3293
 2807TIP3    H129980   2.442   1.439   1.213  1.1999  0.5546 -1.0421
 2807TIP3    H229981   2.506   1.572   1.246 -0.5802  0.9657  0.9464
 2808TIP3   OH229982   1.880   0.087   0.194  0.6577 -0.2787  0.1991
 2808TIP3    H129983   1.896   0.181   0.187 -0.2967 -0.0173  1.2426
 2808TIP3    H229984   1.963   0.050   0.222  0.9463  0.3044  0.1164
 2809TIP3   OH229985   3.226   2.909   2.493  0.6799  0.2091 -0.1420
 2809TIP3    H129986   3.315   2.875   2.499  0.3713 -0.8592 -1.1273
 2809TIP3    H229987   3.229   2.971   2.419 -0.3071 -3.2830 -3.4308
 2810TIP3   OH229988   2.033   6.812   7.599  0.0449  0.1480 -0.1606
 2810TIP3    H129989   2.092   6.884   7.621  0.1110  0.0029  0.1505
 2810TIP3    H229990   1.966   6.814   7.667 -0.3382  0.3397 -0.5403
 2811TIP3   OH229991   3.789   3.796   7.037  0.3545 -0.0003 -0.2352
 2811TIP3    H129992   3.842   3.859   6.988 -1.2126 -0.3193 -2.5021
 2811TIP3    H229993   3.722   3.850   7.079 -0.6874 -0.0164 -1.7717
 2812TIP3   OH229994   2.888   6.716   8.419  0.6321 -0.1157 -0.3499
 2812TIP3    H129995   2.957   6.782   8.418  1.6777 -1.1733 -0.7413
 2812TIP3    H229996   2.861   6.711   8.511 -2.1731  3.4795 -0.7548
 2813TIP3   OH229997   1.108   3.050   7.065 -0.0487 -0.3958  0.0688
 2813TIP3    H129998   1.197   3.059   7.031 -0.2973 -0.1841 -0.5429
 2813TIP3    H229999   1.117   3.060   7.160  0.5175  0.1021 -0.0316
 2814TIP3   OH230000   6.531   5.288   0.383 -0.0600 -0.3895  0.4870
 2814TIP3    H130001   6.542   5.360   0.445  0.9708 -0.6900  0.6737
 2814TIP3    H230002   6.570   5.212   0.427  2.4520 -0.2200 -1.2353
 2815TIP3   OH230003   2.266   2.471   6.942  0.1004 -0.0843 -0.3622
 2815TIP3    H130004   2.325   2.496   7.013 -1.1598  2.9262 -0.2539
 2815TIP3    H230005   2.315   2.492   6.862 -0.2393  0.9725 -0.2968
 2816TIP3   OH230006   0.597   3.868   7.796  0.2471 -0.7204  0.0110
 2816TIP3    H130007   0.689   3.895   7.794  1.0062 -3.1480 -0.2674
 2816TIP3    H230008   0.583   3.822   7.714 -2.1006  1.9906 -1.3005
 2817TIP3   OH230009   1.584   4.626   1.430  0.1608 -0.1751 -0.0577
 2817TIP3    H130010   1.580   4.654   1.339  2.8075 -2.7463 -1.0893
 2817TIP3    H230011   1.507   4.570   1.441  0.9499 -1.5791 -1.4061
 2818TIP3   OH230012   1.422   5.632   7.363 -0.6497 -0.1414 -0.1984
 2818TIP3    H130013   1.384   5.688   7.296 -0.3115 -1.2291 -1.3208
 2818TIP3    H230014   1.492   5.584   7.318  0.6303  0.2258  1.2965
 2819TIP3   OH230015   5.226   5.680   0.476  1.2616 -0.5267 -0.4345
 2819TIP3    H130016   5.272   5.632   0.545 -0.0537 -0.3979  0.5659
 2819TIP3    H230017   5.189   5.611   0.420  1.2078 -0.6441 -0.2544
 2820TIP3   OH230018   1.172   5.383   0.363 -0.1307  0.2112 -0.2176
 2820TIP3    H130019   1.209   5.442   0.430  0.1787  1.7469 -1.6736
 2820TIP3    H230020   1.085   5.363   0.395  0.4149 -0.0200  1.2102
 2821TIP3   OH230021   6.686   6.821   2.476 -0.1718 -0.4933 -0.0896
 2821TIP3    H130022   6.632   6.796   2.401 -3.3026  3.8158  0.3348
 2821TIP3    H230023   6.766   6.856   2.437  0.5431 -2.8968 -0.9760
 2822TIP3   OH230024   2.480   3.428   1.012  0.3226  0.3793  0.1798
 2822TIP3    H130025   2.396   3.473   1.025  0.8665  1.2640  0.7018
 2822TIP3    H230026   2.464   3.370   0.937 -0.7160  0.6266  0.1902
 2823TIP3   OH230027   0.770   1.712   1.069 -0.1264  0.0793 -0.0617
 2823TIP3    H130028   0.723   1.628   1.065  0.8663 -0.5181  0.4813
 2823TIP3    H230029   0.740   1.752   1.151  0.7976 -0.6103  0.6291
 2824TIP3   OH230030   1.786   1.592   8.669 -0.1141 -0.4109  0.1362
 2824TIP3    H130031   1.804   1.638   8.752  0.8044 -0.8933  0.2175
 2824TIP3    H230032   1.739   1.513   8.696 -0.4982 -0.1946  0.1162
 2825TIP3   OH230033   1.135   1.158   0.740  0.0633  0.3761 -0.1725
 2825TIP3    H130034   1.222   1.184   0.770 -0.8799  1.1336  2.0869
 2825TIP3    H230035   1.151   1.085   0.680  2.2160  0.2351  0.4920
 2826TIP3   OH230036   2.158   2.798   7.741  0.1171  0.1093  0.0096
 2826TIP3    H130037   2.192   2.721   7.787  0.6840  0.1326 -0.3671
 2826TIP3    H230038   2.072   2.813   7.781  0.1760 -0.4709  0.3706
 2827TIP3   OH230039   4.509   1.116   1.486  0.0216  0.4031  0.6218
 2827TIP3    H130040   4.449   1.068   1.429  0.7407  0.3309 -0.1016
 2827TIP3    H230041   4.567   1.162   1.425  0.0009  1.3622  1.3051
 2828TIP3   OH230042   4.509   0.377   0.376 -0.1133  0.0211  0.3518
 2828TIP3    H130043   4.475   0.311   0.436 -0.1093 -1.1019 -0.8140
 2828TIP3    H230044   4.526   0.329   0.295  1.0385  1.2276 -0.1737
 2829TIP3   OH230045   0.815   1.402   0.176 -0.5899 -0.3968  0.0480
 2829TIP3    H130046   0.813   1.480   0.121  0.1400  1.2496  2.2698
 2829TIP3    H230047   0.726   1.395   0.211 -0.4546 -0.1405  0.4375
 2830TIP3   OH230048   5.879   0.662   6.708  0.4128 -0.0851 -0.3189
 2830TIP3    H130049   5.967   0.673   6.673  0.8353  1.6144  1.1206
 2830TIP3    H230050   5.853   0.750   6.736 -0.6231 -0.9998  1.8353
 2831TIP3   OH230051   4.760   4.494   7.688 -0.2559 -0.2443 -0.6493
 2831TIP3    H130052   4.813   4.415   7.697  1.3805  0.7324 -1.2491
 2831TIP3    H230053   4.815   4.555   7.638 -1.9665  0.8246 -1.3448
 2832TIP3   OH230054   4.180   3.367   7.894  0.1470  0.6217 -0.0898
 2832TIP3    H130055   4.140   3.378   7.807 -2.8620  0.2946  1.1422
 2832TIP3    H230056   4.169   3.452   7.936 -1.7805 -0.1766  1.1738
 2833TIP3   OH230057   5.600   4.173   0.829  0.0343 -0.4929 -0.2193
 2833TIP3    H130058   5.610   4.242   0.764 -1.0777  1.1225  1.2249
 2833TIP3    H230059   5.675   4.185   0.888  0.3482 -1.1366 -0.4788
 2834TIP3   OH230060   1.172   0.212   0.712  0.1447 -0.2122  0.6535
 2834TIP3    H130061   1.086   0.176   0.689 -0.2862  0.7967  0.6328
 2834TIP3    H230062   1.170   0.301   0.677  1.6250 -0.5369 -0.3232
 2835TIP3   OH230063   1.218   3.090   0.502 -0.3189 -0.3954 -0.0022
 2835TIP3    H130064   1.304   3.128   0.523 -0.3946 -0.4940  0.5041
 2835TIP3    H230065   1.205   3.109   0.409 -0.9542  2.0760  0.5166
 2836TIP3   OH230066   2.348   6.117   2.086  1.0141  0.2702 -0.3757
 2836TIP3    H130067   2.422   6.085   2.034 -0.1526 -0.9256 -1.3631
 2836TIP3    H230068   2.290   6.042   2.094  0.6617  0.7221  1.8242
 2837TIP3   OH230069   1.641   1.442   7.938 -0.2331  0.2922 -0.4316
 2837TIP3    H130070   1.706   1.372   7.929  0.0828  0.3569  1.0835
 2837TIP3    H230071   1.647   1.491   7.857  1.0731 -0.1661 -0.6293
 2838TIP3   OH230072   6.267   2.628   8.225 -0.0372 -0.5632  0.4032
 2838TIP3    H130073   6.281   2.552   8.169  0.9589 -0.3354  0.3362
 2838TIP3    H230074   6.178   2.657   8.203 -0.1864 -1.3187 -0.0308
 2839TIP3   OH230075   2.582   2.385   0.780 -0.3545 -0.6820  0.0088
 2839TIP3    H130076   2.488   2.371   0.789 -0.2900 -0.8489  0.4561
 2839TIP3    H230077   2.620   2.297   0.779 -0.2043 -0.6172 -0.2039
 2840TIP3   OH230078   1.906   3.390   6.756 -0.5143  0.2174  0.0957
 2840TIP3    H130079   1.852   3.376   6.834 -2.5532  0.6366 -1.1532
 2840TIP3    H230080   1.926   3.484   6.757  0.1839  0.0681  0.5419
 2841TIP3   OH230081   3.362   5.109   1.670  0.0063 -0.1511 -0.0610
 2841TIP3    H130082   3.304   5.049   1.716  0.9701 -1.4733 -0.5163
 2841TIP3    H230083   3.308   5.187   1.654 -1.6577 -1.3627 -0.5486
 2842TIP3   OH230084   6.790   0.105   1.187  0.5668  0.0001 -0.4345
 2842TIP3    H130085   6.870   0.124   1.138 -0.9813  1.0409 -2.7322
 2842TIP3    H230086   6.729   0.072   1.122 -1.9159  2.2946  0.5285
 2843TIP3   OH230087   4.100   2.258   6.644 -0.0214 -0.1706 -0.7736
 2843TIP3    H130088   4.173   2.298   6.599  1.2026 -0.9797  0.4106
 2843TIP3    H230089   4.096   2.302   6.729 -1.6648  0.6593 -1.2342
 2844TIP3   OH230090   6.424   6.827   2.149 -0.6040 -0.2150 -0.0338
 2844TIP3    H130091   6.351   6.874   2.190 -0.4818 -0.2043  0.1715
 2844TIP3    H230092   6.462   6.776   2.220 -1.7958 -1.9690 -0.5737
 2845TIP3   OH230093   0.488   0.456   0.409  0.5021 -0.2648 -0.7057
 2845TIP3    H130094   0.517   0.509   0.483  0.6835 -0.3975 -0.6802
 2845TIP3    H230095   0.561   0.458   0.347 -0.1876  0.9962 -1.5103
 2846TIP3   OH230096   6.763   6.371   8.588  0.7612  0.1312 -0.2375
 2846TIP3    H130097   6.688   6.416   8.550  0.8508  0.2644 -0.2560
 2846TIP3    H230098   6.759   6.391   8.681  1.7383  1.5628 -0.4597
 2847TIP3   OH230099   3.430   1.602   0.335 -0.5352 -0.2865 -0.5412
 2847TIP3    H130100   3.522   1.588   0.355 -0.5168 -1.1416 -1.1954
 2847TIP3    H230101   3.429   1.680   0.279 -0.4220  0.9850  1.1412
 2848TIP3   OH230102   0.930   0.191   0.966 -0.3015 -0.3072  0.0379
 2848TIP3    H130103   0.866   0.261   0.950  0.4671  0.4673  0.2993
 2848TIP3    H230104   0.879   0.123   1.012 -0.6847  0.8126  1.3637
 2849TIP3   OH230105   0.915   0.478   7.798  0.0453 -0.4242 -0.2783
 2849TIP3    H130106   0.931   0.384   7.800  1.6892 -0.1595  0.7734
 2849TIP3    H230107   0.956   0.511   7.878 -2.8822  0.8594  0.8272
 2850TIP3   OH230108   2.240   3.641   7.126  0.2186 -0.4623 -0.0981
 2850TIP3    H130109   2.301   3.688   7.184 -0.1538  0.0348 -0.1042
 2850TIP3    H230110   2.228   3.556   7.169  0.7277 -0.4742  0.0288
 2851TIP3   OH230111   0.270   2.583   6.724  0.6545  0.2166 -0.0527
 2851TIP3    H130112   0.187   2.543   6.700  0.8049 -0.5174  0.6151
 2851TIP3    H230113   0.312   2.604   6.641 -0.8010  1.9130 -0.4188
 2852TIP3   OH230114   6.775   1.614   2.658 -0.0114 -0.1433 -0.2162
 2852TIP3    H130115   6.818   1.531   2.677  0.1753 -0.0333 -0.1440
 2852TIP3    H230116   6.836   1.660   2.601  0.5347  0.5084  0.8430
 2853TIP3   OH230117   3.524   6.006   1.378  0.0440  0.1096  0.1641
 2853TIP3    H130118   3.478   6.089   1.365  0.1616 -0.0587 -1.5087
 2853TIP3    H230119   3.562   6.013   1.465  0.1813  1.8795 -0.0123
 2854TIP3   OH230120   3.999   0.653   1.553  0.0143  0.1083 -0.3312
 2854TIP3    H130121   3.941   0.725   1.578 -0.4741  0.1645 -1.5278
 2854TIP3    H230122   3.941   0.588   1.513  0.4031 -1.1033  0.9802
 2855TIP3   OH230123   6.274   3.783   8.651  0.2031 -0.4965 -0.0600
 2855TIP3    H130124   6.224   3.791   8.733 -1.1454 -2.3841 -0.6264
 2855TIP3    H230125   6.317   3.868   8.641  1.0426 -0.4734  2.9775
 2856TIP3   OH230126   3.983   4.512   8.479  0.4903 -0.2120  0.1359
 2856TIP3    H130127   4.069   4.551   8.495  1.2346 -2.1455  1.1890
 2856TIP3    H230128   3.953   4.554   8.398  1.8522  1.4160  0.4193
 2857TIP3   OH230129   6.808   4.186   7.484  0.4289 -0.4789  0.5202
 2857TIP3    H130130   6.716   4.206   7.501  0.9447  1.6593  1.0843
 2857TIP3    H230131   6.828   4.231   7.402  1.0828 -0.5217  0.6502
 2858TIP3   OH230132   4.293   3.160   8.517  0.1579  0.0914 -0.1166
 2858TIP3    H130133   4.306   3.219   8.591 -0.8787  0.9078 -0.5455
 2858TIP3    H230134   4.252   3.082   8.554  3.1708 -1.2209  0.7543
 2859TIP3   OH230135   4.357   4.225   0.246  0.0423  0.4019  0.0764
 2859TIP3    H130136   4.359   4.286   0.320 -3.0799  1.7744 -0.8172
 2859TIP3    H230137   4.265   4.213   0.227  0.6729 -2.0348 -1.9553
 2860TIP3   OH230138   1.866   5.592   1.851 -0.1908  0.2017 -0.2354
 2860TIP3    H130139   1.791   5.551   1.809 -0.3513  0.8496 -0.5931
 2860TIP3    H230140   1.840   5.602   1.943  0.5974 -2.2685  0.3331
 2861TIP3   OH230141   5.118   0.625   1.181 -0.6100 -0.1876 -0.5892
 2861TIP3    H130142   5.161   0.595   1.101  2.0437  1.7516 -0.0468
 2861TIP3    H230143   5.045   0.679   1.151  1.2035  1.7133 -1.8493
 2862TIP3   OH230144   5.829   0.048   8.102  0.0305 -0.6964 -0.5427
 2862TIP3    H130145   5.859   0.022   8.190 -0.0410 -1.7209 -0.8101
 2862TIP3    H230146   5.743   0.085   8.116  0.6447  0.5804  0.0109
 2863TIP3   OH230147   5.936   2.360   2.480  0.1276 -0.6216 -0.0324
 2863TIP3    H130148   5.853   2.392   2.445  0.2828 -0.8800 -0.6570
 2863TIP3    H230149   5.946   2.405   2.564  0.1580  0.6683 -0.6981
 2864TIP3   OH230150   3.844   2.040   7.955 -0.1487  0.5800 -0.6191
 2864TIP3    H130151   3.922   2.084   7.989  0.3684 -0.1872 -0.7846
 2864TIP3    H230152   3.868   1.947   7.955 -1.0491  0.3472 -0.7191
 2865TIP3   OH230153   2.863   4.538   2.593  0.1823 -0.4920 -0.4502
 2865TIP3    H130154   2.832   4.623   2.626  0.7880 -0.4514  0.0345
 2865TIP3    H230155   2.910   4.499   2.667  0.9520 -0.7103 -1.0373
 2866TIP3   OH230156   1.489   6.813   8.673  0.2237 -0.5922  0.3527
 2866TIP3    H130157   1.551   6.758   8.722  0.1372  0.2344  1.4271
 2866TIP3    H230158   1.496   6.899   8.715 -2.3656 -0.7062  1.1679
 2867TIP3   OH230159   6.220   2.548   8.690  0.3011  0.4237  0.1674
 2867TIP3    H130160   6.133   2.517   8.714  0.2371  0.0859 -0.4507
 2867TIP3    H230161   6.262   2.471   8.651  0.6526  0.7472 -0.1000
 2868TIP3   OH230162   2.688   0.279   2.560 -0.0636 -0.2527  0.0934
 2868TIP3    H130163   2.627   0.206   2.567  0.7326 -0.8856  0.5672
 2868TIP3    H230164   2.634   0.353   2.533 -1.0761 -0.7432  0.7221
 2869TIP3   OH230165   1.789   3.121   7.592  0.0189 -0.1774 -0.7770
 2869TIP3    H130166   1.739   3.165   7.523  0.1915 -0.8006 -1.3144
 2869TIP3    H230167   1.767   3.168   7.672 -1.0942 -0.1844 -1.0716
 2870TIP3   OH230168   0.331   2.446   1.841 -0.1398  0.4048  0.2023
 2870TIP3    H130169   0.244   2.429   1.806 -0.2684  1.6530 -0.1331
 2870TIP3    H230170   0.368   2.359   1.856 -1.7433 -0.1735  1.1664
 2871TIP3   OH230171   2.119   0.315   0.745  0.0240  0.2009  0.1286
 2871TIP3    H130172   2.171   0.250   0.699  0.3508  1.9411 -2.1460
 2871TIP3    H230173   2.183   0.376   0.783 -0.2494 -1.0353  2.8064
 2872TIP3   OH230174   4.358   2.428   6.583  0.3901  0.2750 -0.4858
 2872TIP3    H130175   4.454   2.435   6.584  0.2729  3.0190 -0.7181
 2872TIP3    H230176   4.328   2.512   6.548 -2.1174 -0.6314 -0.7193
 2873TIP3   OH230177   2.889   3.861   1.123  0.5156 -0.0983  0.2442
 2873TIP3    H130178   2.921   3.845   1.035 -0.7399  0.3886 -0.3180
 2873TIP3    H230179   2.953   3.922   1.161  0.4511  0.5934 -0.7338
 2874TIP3   OH230180   4.592   5.026   0.574  0.9936 -0.0693  0.2510
 2874TIP3    H130181   4.526   4.985   0.631  1.8341 -0.7202  0.7709
 2874TIP3    H230182   4.571   4.994   0.486  2.0774 -2.2882  0.7279
 2875TIP3   OH230183   1.918   6.227   1.177  0.0095  0.1455  0.6015
 2875TIP3    H130184   1.880   6.313   1.156 -1.7421 -0.5524  0.7212
 2875TIP3    H230185   1.970   6.242   1.256  0.5128  1.2663  0.0909
 2876TIP3   OH230186   2.657   5.122   6.801 -0.1356 -0.4021  0.3040
 2876TIP3    H130187   2.619   5.188   6.858 -0.4655  0.3960 -0.8048
 2876TIP3    H230188   2.751   5.127   6.818 -0.1737  0.2493  0.3649
 2877TIP3   OH230189   4.101   5.044   1.174  0.7861  0.3075  0.3291
 2877TIP3    H130190   4.093   5.021   1.266 -0.2715 -0.3011  0.1022
 2877TIP3    H230191   4.047   4.980   1.128  0.9525  0.8647 -0.6769
 2878TIP3   OH230192   3.822   5.987   7.896 -0.0682 -0.1587  0.6620
 2878TIP3    H130193   3.776   6.034   7.826 -0.7540 -0.7022  0.7344
 2878TIP3    H230194   3.776   6.012   7.976  0.0225 -0.3875  0.7851
 2879TIP3   OH230195   4.547   6.422   0.950  0.2830 -0.2958  0.0155
 2879TIP3    H130196   4.498   6.348   0.915 -1.2688  0.3526  0.7524
 2879TIP3    H230197   4.487   6.496   0.944  1.7237  0.8931 -0.5259
 2880TIP3   OH230198   1.561   2.800   8.021 -0.7314  0.2491 -0.6650
 2880TIP3    H130199   1.470   2.813   7.995 -0.8655 -0.1639 -0.4046
 2880TIP3    H230200   1.565   2.711   8.055 -0.8608  1.1292  1.9392
 2881TIP3   OH230201   3.561   4.584   7.464 -0.6193 -0.1574  0.7211
 2881TIP3    H130202   3.650   4.551   7.453 -0.3787  0.7525 -0.3592
 2881TIP3    H230203   3.546   4.583   7.558  1.3886  1.7513  1.1705
 2882TIP3   OH230204   2.112   5.559   1.751 -0.1498  0.0708  0.2526
 2882TIP3    H130205   2.098   5.529   1.662 -0.1779 -1.6634  0.8105
 2882TIP3    H230206   2.025   5.577   1.785 -0.0666  1.9294 -0.4333
 2883TIP3   OH230207   2.163   6.575   1.414  0.4107  0.0858  0.0177
 2883TIP3    H130208   2.198   6.659   1.382 -0.1990 -0.0537 -1.0595
 2883TIP3    H230209   2.068   6.581   1.398 -0.4830  1.1515  4.3973
 2884TIP3   OH230210   0.171   6.089   6.933  0.4154  0.2165  0.4373
 2884TIP3    H130211   0.160   6.094   7.028 -0.7361  1.7106  0.2653
 2884TIP3    H230212   0.265   6.079   6.920  0.8763  2.4174  1.6916
 2885TIP3   OH230213   4.684   0.868   0.444  0.2005 -0.1646  0.1660
 2885TIP3    H130214   4.658   0.818   0.521  1.4117  0.6006  1.1144
 2885TIP3    H230215   4.771   0.835   0.422 -0.5270 -1.1083 -1.5589
 2886TIP3   OH230216   2.059   6.837   0.373 -0.7027 -0.0567 -0.1867
 2886TIP3    H130217   2.125   6.802   0.313 -0.4481  2.3341 -1.3783
 2886TIP3    H230218   2.108   6.860   0.452 -0.7991 -1.7506  0.4319
 2887TIP3   OH230219   2.811   0.859   7.322 -0.1878  0.4728  0.0983
 2887TIP3    H130220   2.765   0.782   7.290  0.9435 -0.5317  0.8076
 2887TIP3    H230221   2.903   0.831   7.329  0.5775  2.3917 -1.2594
 2888TIP3   OH230222   5.816   0.976   1.120 -0.6370 -0.2930  0.3020
 2888TIP3    H130223   5.786   0.931   1.041 -0.9657 -0.9986  0.8222
 2888TIP3    H230224   5.896   1.022   1.092 -1.4247  0.4792 -0.7388
 2889TIP3   OH230225   3.428   3.655   1.460 -0.2088 -0.0806 -0.4027
 2889TIP3    H130226   3.488   3.581   1.448 -0.0259 -0.3047  1.6374
 2889TIP3    H230227   3.350   3.616   1.500 -0.1662  0.7830  0.5668
 2890TIP3   OH230228   2.209   3.583   0.642 -0.5900 -0.0511 -0.0988
 2890TIP3    H130229   2.223   3.670   0.604  1.5432  0.9457  2.6601
 2890TIP3    H230230   2.121   3.586   0.679 -0.3347  1.1402  0.4348
 2891TIP3   OH230231   5.956   6.378   7.876 -0.1224 -0.8033  0.4830
 2891TIP3    H130232   5.974   6.384   7.782  2.0171  0.9450  0.9123
 2891TIP3    H230233   5.948   6.469   7.904 -0.6285 -1.2986  2.0196
 2892TIP3   OH230234   1.590   4.030   7.516 -0.6003  0.4355  0.1214
 2892TIP3    H130235   1.607   4.079   7.597 -0.7804 -0.3982  0.6690
 2892TIP3    H230236   1.522   3.968   7.539 -0.0040 -0.4401 -0.4228
 2893TIP3   OH230237   0.281   4.168   0.710  0.5207  0.2598 -0.3956
 2893TIP3    H130238   0.250   4.078   0.706  0.6437  0.1448  0.8491
 2893TIP3    H230239   0.201   4.221   0.718  0.5372  0.0370  1.7538
 2894TIP3   OH230240   4.171   0.358   7.818 -0.2167  0.2719 -0.1250
 2894TIP3    H130241   4.147   0.266   7.807 -0.3998  0.2784  0.1887
 2894TIP3    H230242   4.152   0.376   7.910 -0.4303  0.6994 -0.2526
 2895TIP3   OH230243   2.021   2.537   1.845 -0.0926  0.5677  0.0619
 2895TIP3    H130244   1.972   2.585   1.779 -2.2254 -0.0594  1.0807
 2895TIP3    H230245   2.010   2.589   1.925  0.0250 -0.1174  0.5336
 2896TIP3   OH230246   2.043   3.426   8.258  0.6860  0.3944  0.5501
 2896TIP3    H130247   2.003   3.360   8.314  0.7104 -0.1214 -0.0284
 2896TIP3    H230248   2.021   3.398   8.169  1.1601  0.8657  0.2800
 2897TIP3   OH230249   3.941   1.401   0.916 -0.4863 -0.2797 -0.1662
 2897TIP3    H130250   3.991   1.328   0.955 -0.3392  0.3550  0.8885
 2897TIP3    H230251   3.998   1.477   0.926 -1.3551  0.3201  0.3846
 2898TIP3   OH230252   2.525   3.108   0.605  0.4752 -0.0973  0.3748
 2898TIP3    H130253   2.591   3.177   0.601 -0.2523  0.6044  0.3413
 2898TIP3    H230254   2.473   3.119   0.526  0.0130 -0.3365  0.6402
 2899TIP3   OH230255   6.335   5.399   1.905 -0.2091 -0.1768 -0.2328
 2899TIP3    H130256   6.377   5.313   1.901  1.4486  0.6405 -1.9188
 2899TIP3    H230257   6.245   5.383   1.879  0.1343 -1.3774 -0.7549
 2900TIP3   OH230258   1.539   2.291   7.215 -0.0848  0.1410 -0.0581
 2900TIP3    H130259   1.633   2.311   7.208  0.0910  0.0711  1.6574
 2900TIP3    H230260   1.498   2.375   7.235 -0.0047 -0.2219  1.8845
 2901TIP3   OH230261   3.119   6.007   1.286 -0.0200  0.0067  0.2486
 2901TIP3    H130262   3.071   6.076   1.331 -1.3526 -0.8539  0.1764
 2901TIP3    H230263   3.065   5.985   1.210  0.2174 -1.3183  0.4349
 2902TIP3   OH230264   6.177   4.541   1.476 -0.2395 -0.4071  0.1302
 2902TIP3    H130265   6.152   4.613   1.534 -0.6154  0.3832 -0.9953
 2902TIP3    H230266   6.218   4.477   1.535  1.7232  1.4605  0.9436
 2903TIP3   OH230267   6.065   6.590   1.561 -0.2418 -0.3672  0.2903
 2903TIP3    H130268   5.988   6.643   1.585  1.1691  1.7353  0.4071
 2903TIP3    H230269   6.059   6.581   1.466 -0.4102  0.1755  0.2437
 2904TIP3   OH230270   2.416   3.273   7.639  0.1538 -0.5257  0.0953
 2904TIP3    H130271   2.332   3.254   7.598  0.2719 -1.9035  0.4287
 2904TIP3    H230272   2.430   3.367   7.625  0.1173 -0.8639 -2.9285
 2905TIP3   OH230273   6.782   3.592   1.185 -0.7759  0.6443 -0.4641
 2905TIP3    H130274   6.688   3.578   1.178 -0.9559  1.4773  0.0697
 2905TIP3    H230275   6.804   3.564   1.274 -0.4964  0.3266 -0.6324
 2906TIP3   OH230276   3.575   0.651   8.298 -0.0996 -0.5144 -0.2574
 2906TIP3    H130277   3.562   0.558   8.316 -2.3876  0.2221  2.6473
 2906TIP3    H230278   3.487   0.686   8.284  0.1387  1.8047  2.7828
 2907TIP3   OH230279   0.179   2.665   0.259  0.3018  0.0718 -0.0456
 2907TIP3    H130280   0.214   2.585   0.219 -0.9375 -0.8194  0.5692
 2907TIP3    H230281   0.205   2.735   0.199 -0.2584 -1.0501 -1.6705
 2908TIP3   OH230282   1.753   2.256   7.570  0.0931 -0.0693  0.6477
 2908TIP3    H130283   1.784   2.330   7.623  1.4346 -1.0949  1.3556
 2908TIP3    H230284   1.824   2.238   7.509 -1.1129  0.5757 -1.0367
 2909TIP3   OH230285   1.343   1.728   7.958  0.5706 -0.5240  0.3137
 2909TIP3    H130286   1.373   1.691   8.041  0.8845 -0.5597  0.1863
 2909TIP3    H230287   1.255   1.761   7.977 -0.9708 -3.8876 -0.3035
 2910TIP3   OH230288   3.547   0.402   1.836  0.1926 -0.0434  0.3443
 2910TIP3    H130289   3.618   0.428   1.895  1.5045 -2.2498 -0.1567
 2910TIP3    H230290   3.589   0.345   1.772 -1.5965  0.5633 -1.4749
 2911TIP3   OH230291   3.206   1.846   2.439 -0.1073  0.4303 -0.0371
 2911TIP3    H130292   3.206   1.772   2.378 -0.3483 -1.1235  1.7154
 2911TIP3    H230293   3.116   1.878   2.439 -0.6333 -0.9162  0.9489
 2912TIP3   OH230294   1.134   2.562   7.471  0.3693  0.1887  0.2412
 2912TIP3    H130295   1.089   2.479   7.457  0.2137  0.1470  0.9517
 2912TIP3    H230296   1.135   2.604   7.385 -1.4718  0.4184  0.3014
 2913TIP3   OH230297   3.586   6.035   0.776  0.3295 -0.4841 -0.7368
 2913TIP3    H130298   3.526   5.991   0.715  0.2334 -0.8271 -0.4023
 2913TIP3    H230299   3.536   6.110   0.810  0.3399 -0.3641 -0.9883
 2914TIP3   OH230300   1.836   2.846   7.598 -0.7179  0.1026 -0.2016
 2914TIP3    H130301   1.897   2.863   7.671 -1.9613 -0.4958  1.0240
 2914TIP3    H230302   1.807   2.933   7.570  0.1249  0.3586 -0.3062
 2915TIP3   OH230303   6.719   6.568   7.378 -0.0805 -0.0065 -0.3040
 2915TIP3    H130304   6.689   6.538   7.292 -0.4675  1.5855 -0.7546
 2915TIP3    H230305   6.642   6.561   7.434 -0.2077  0.2598 -0.4429
 2916TIP3   OH230306   5.865   3.501   1.339  0.4262 -0.4554 -0.0021
 2916TIP3    H130307   5.832   3.435   1.278  0.2610 -1.5916  1.2887
 2916TIP3    H230308   5.881   3.578   1.284 -1.8997 -0.6914 -1.1130
 2917TIP3   OH230309   4.641   0.744   7.556  0.1242  0.0097 -0.2583
 2917TIP3    H130310   4.695   0.787   7.623 -0.7078 -0.1227  0.5201
 2917TIP3    H230311   4.643   0.804   7.482  0.2377  0.6577  0.2591
 2918TIP3   OH230312   0.022   4.873   8.487  0.2018 -0.0221 -0.2452
 2918TIP3    H130313   0.022   4.898   8.580  2.1834  0.6049 -0.3676
 2918TIP3    H230314  -0.065   4.835   8.473 -0.1449 -0.1788  1.8756
 2919TIP3   OH230315   4.899   2.501   7.675 -0.1748 -0.3690  0.2113
 2919TIP3    H130316   4.948   2.477   7.754 -0.2787 -0.8884  0.1241
 2919TIP3    H230317   4.841   2.426   7.660 -1.1153  0.3105  0.4027
 2920TIP3   OH230318   5.984   1.941   2.023 -0.0346  0.2969  0.9887
 2920TIP3    H130319   5.985   2.031   2.054 -0.8502  0.2322  1.2129
 2920TIP3    H230320   5.893   1.923   2.001  0.2427 -0.2311  0.2196
 2921TIP3   OH230321   1.226   4.635   0.400 -0.2526 -0.0620  0.1863
 2921TIP3    H130322   1.222   4.601   0.490 -0.9459  0.8477  0.5151
 2921TIP3    H230323   1.139   4.617   0.364  0.0266 -0.4352 -0.3215
 2922TIP3   OH230324   5.352   4.841   8.430  0.2150 -0.4026  0.0844
 2922TIP3    H130325   5.361   4.869   8.521  1.1195  1.8975 -0.6380
 2922TIP3    H230326   5.258   4.846   8.413  0.1795  0.5484  0.5065
 2923TIP3   OH230327   1.860   4.861   1.578  0.0130 -0.1893 -0.1201
 2923TIP3    H130328   1.929   4.907   1.530  0.6971 -0.5233  0.5281
 2923TIP3    H230329   1.890   4.861   1.669 -0.3244 -1.2755  0.0040
 2924TIP3   OH230330   3.401   4.633   1.729 -0.5223  0.0493 -0.3886
 2924TIP3    H130331   3.452   4.695   1.780  0.4289  0.8249 -2.1807
 2924TIP3    H230332   3.321   4.681   1.705 -1.4136 -0.6288  1.0804
 2925TIP3   OH230333   1.302   2.606   0.634 -0.5040 -0.2832 -0.0237
 2925TIP3    H130334   1.260   2.692   0.630  0.0648 -0.0488 -1.3581
 2925TIP3    H230335   1.385   2.622   0.679 -1.0686 -0.4345  1.0985
 2926TIP3   OH230336   4.227   3.360   2.472  0.2914  0.4328  0.1231
 2926TIP3    H130337   4.142   3.325   2.499  1.1852  0.0477  2.7301
 2926TIP3    H230338   4.270   3.385   2.554  1.9640  2.4096 -1.2413
 2927TIP3   OH230339   6.681   2.303   1.273 -0.5415 -0.5150 -0.1896
 2927TIP3    H130340   6.694   2.234   1.209  2.0511 -0.8927  0.6570
 2927TIP3    H230341   6.682   2.259   1.358  0.1504  0.4176  0.3112
 2928TIP3   OH230342   5.312   5.994   2.812  0.2607 -0.1711 -0.5480
 2928TIP3    H130343   5.405   5.988   2.792  0.4477 -0.7559  0.4313
 2928TIP3    H230344   5.304   6.070   2.870  0.0039  0.3331 -1.2211
 2929TIP3   OH230345   0.953   0.063   0.655 -0.1788  0.5830  0.3206
 2929TIP3    H130346   0.953   0.034   0.564  0.0831  0.0429  0.4876
 2929TIP3    H230347   0.861   0.082   0.674 -0.0547  2.1032 -0.4838
 2930TIP3   OH230348   5.639   1.898   0.664  0.0174 -0.4413 -0.4468
 2930TIP3    H130349   5.638   1.947   0.581 -1.8107  1.6434  0.7043
 2930TIP3    H230350   5.555   1.851   0.665  0.1418 -0.6595  0.1079
 2931TIP3   OH230351   4.964   0.886   1.159  0.5558 -0.3926  0.1517
 2931TIP3    H130352   5.005   0.911   1.076  0.8650 -0.2165  0.3541
 2931TIP3    H230353   5.025   0.917   1.226 -0.3727  0.7797  0.4998
 2932TIP3   OH230354   5.091   1.069   0.929 -0.2676  0.4363  0.0104
 2932TIP3    H130355   5.028   1.140   0.946 -0.7935 -0.5573  2.7153
 2932TIP3    H230356   5.059   1.028   0.849 -2.2116  0.9076  0.4869
 2933TIP3   OH230357   6.486   1.740   0.051 -0.4778 -0.0440  0.2799
 2933TIP3    H130358   6.561   1.689   0.083  0.1601 -0.0621 -1.1904
 2933TIP3    H230359   6.450   1.687  -0.020 -0.0768  1.3090 -0.9761
 2934TIP3   OH230360   4.808   6.377   1.623 -0.1580 -0.4504  0.2075
 2934TIP3    H130361   4.808   6.424   1.540 -1.7278  1.9126  1.4180
 2934TIP3    H230362   4.764   6.436   1.684  0.2487 -2.3997  2.5623
 2935TIP3   OH230363   6.418   4.634   0.681  0.9690 -0.0280  0.1071
 2935TIP3    H130364   6.376   4.569   0.623  0.6348  0.7494 -0.5374
 2935TIP3    H230365   6.422   4.590   0.766  1.1906 -1.0793 -0.4223
 2936TIP3   OH230366   0.469   5.732   8.436 -0.0638 -0.6583 -0.3279
 2936TIP3    H130367   0.498   5.811   8.390 -0.8135 -0.0806  0.1650
 2936TIP3    H230368   0.404   5.693   8.377 -1.5413  0.4579  0.5054
 2937TIP3   OH230369   3.990   3.194   1.312  0.5954 -0.2807  0.0842
 2937TIP3    H130370   3.898   3.180   1.334  0.2960  0.7473 -0.4500
 2937TIP3    H230371   3.987   3.234   1.225  1.5812 -0.7922 -0.1958
 2938TIP3   OH230372   5.267   5.455   8.578 -0.4445 -0.0179 -0.3188
 2938TIP3    H130373   5.345   5.497   8.543 -0.0888 -1.2064 -1.0185
 2938TIP3    H230374   5.266   5.368   8.538 -2.3230  0.0812 -0.6169
 2939TIP3   OH230375   1.650   0.870   1.698  0.5898 -0.1555  0.4851
 2939TIP3    H130376   1.682   0.784   1.728 -2.3054 -1.5892 -0.1973
 2939TIP3    H230377   1.598   0.902   1.771  0.9573  0.6503  0.3989
 2940TIP3   OH230378   5.518   5.019   0.798  0.0960  0.3594 -0.2425
 2940TIP3    H130379   5.517   5.081   0.872 -1.2972 -0.2600  0.2866
 2940TIP3    H230380   5.605   5.029   0.760  0.6605  1.0763  1.1638
 2941TIP3   OH230381   6.276   5.228   1.634 -0.3010  0.3569 -0.2416
 2941TIP3    H130382   6.318   5.161   1.581 -2.1591  1.3144 -3.1706
 2941TIP3    H230383   6.239   5.181   1.709  0.5029 -1.4352 -0.9343
 2942TIP3   OH230384   1.758   3.309   0.660 -0.0864  0.2383  0.2219
 2942TIP3    H130385   1.713   3.392   0.653 -1.4723 -0.5535 -0.7578
 2942TIP3    H230386   1.835   3.318   0.603 -1.5632  0.0577 -1.9394
 2943TIP3   OH230387   3.175   4.757   6.754 -0.1739  0.5548 -0.3899
 2943TIP3    H130388   3.264   4.793   6.752  0.5929 -1.2437 -0.4534
 2943TIP3    H230389   3.176   4.695   6.827 -1.3738  0.4751 -0.4173
 2944TIP3   OH230390   1.503   5.042   1.039  0.0640 -0.4156  0.3263
 2944TIP3    H130391   1.579   4.988   1.057 -0.4093 -0.4999  2.4223
 2944TIP3    H230392   1.449   5.035   1.119 -0.3326  2.5981  0.4603
 2945TIP3   OH230393   5.870   3.875   1.557  0.2539 -0.1153 -0.2982
 2945TIP3    H130394   5.872   3.855   1.650 -0.6548  0.1206 -0.2213
 2945TIP3    H230395   5.945   3.933   1.544  0.4811 -0.2788  0.2532
 2946TIP3   OH230396   3.821   2.198   0.052 -0.1553 -0.1893 -0.2232
 2946TIP3    H130397   3.909   2.161   0.042 -0.5135 -1.1574  0.1022
 2946TIP3    H230398   3.820   2.234   0.141  0.3919  1.1975 -0.7455
 2947TIP3   OH230399   4.631   3.234   1.141  0.4440 -0.0221  0.5742
 2947TIP3    H130400   4.566   3.165   1.157  1.7781 -1.2348  0.9425
 2947TIP3    H230401   4.652   3.268   1.228 -0.1301  0.8147  0.4020
 2948TIP3   OH230402   2.810   6.283   2.611  0.3211  0.1878 -0.0893
 2948TIP3    H130403   2.802   6.340   2.688  0.0503  1.3840 -0.9762
 2948TIP3    H230404   2.878   6.324   2.558  0.9744 -0.9972 -0.1977
 2949TIP3   OH230405   1.523   0.794   1.966 -0.1949  0.4516 -0.2877
 2949TIP3    H130406   1.478   0.876   1.984 -2.3855 -0.5614 -0.8884
 2949TIP3    H230407   1.509   0.741   2.044 -0.2524  0.0341 -0.5778
 2950TIP3   OH230408   5.641   0.337   0.255 -0.2726 -0.0540 -0.4633
 2950TIP3    H130409   5.574   0.359   0.320  1.4702 -0.3861  1.5572
 2950TIP3    H230410   5.592   0.326   0.173 -2.4704  1.1770  0.5888
 2951TIP3   OH230411   0.866   4.797   8.518  0.4885  0.0950  0.1780
 2951TIP3    H130412   0.934   4.863   8.530  2.0578 -1.4510  0.3511
 2951TIP3    H230413   0.900   4.741   8.448 -0.9232 -0.3617 -0.1685
 2952TIP3   OH230414   4.674   3.393   1.835  0.4050 -0.0898  0.2188
 2952TIP3    H130415   4.676   3.453   1.910  2.1114  0.7066 -0.4186
 2952TIP3    H230416   4.693   3.307   1.872  0.8078  0.2296  0.7669
 2953TIP3   OH230417   6.069   4.763   1.829  0.0131 -0.1765  0.1468
 2953TIP3    H130418   6.140   4.793   1.885  0.0938 -1.4134  0.7478
 2953TIP3    H230419   6.106   4.768   1.740  0.4566  0.2406  0.3451
 2954TIP3   OH230420   4.643   3.442   8.688 -0.5513  0.3459 -0.0278
 2954TIP3    H130421   4.677   3.419   8.601 -1.1846  2.5560 -0.9273
 2954TIP3    H230422   4.721   3.449   8.743 -0.0159  0.2561 -0.7556
 2955TIP3   OH230423   2.579   5.475   2.313 -0.2174 -0.3618 -0.2368
 2955TIP3    H130424   2.501   5.513   2.273 -0.1996  1.2828  1.1731
 2955TIP3    H230425   2.583   5.514   2.401  1.4075 -1.4895  0.2489
 2956TIP3   OH230426   4.330   2.734   0.710 -0.3581 -0.0236  0.2318
 2956TIP3    H130427   4.259   2.689   0.665  0.1185 -2.0163  1.3770
 2956TIP3    H230428   4.292   2.818   0.737 -1.9597 -0.6235 -0.0669
 2957TIP3   OH230429   1.240   1.160   2.768 -0.3388 -0.3543  0.4518
 2957TIP3    H130430   1.299   1.199   2.705 -1.2582 -1.1831 -0.9930
 2957TIP3    H230431   1.179   1.230   2.791  0.4466  0.1589  1.0210
 2958TIP3   OH230432   4.474   6.153   0.870  0.4076 -0.7348  0.6281
 2958TIP3    H130433   4.435   6.086   0.926 -0.2186 -1.4223 -0.5741
 2958TIP3    H230434   4.556   6.115   0.840 -0.1554 -1.1913 -0.4087
 2959TIP3   OH230435   2.549   1.859   0.703 -0.7679 -0.3077 -0.9159
 2959TIP3    H130436   2.629   1.842   0.652 -0.2131 -0.9469  0.1284
 2959TIP3    H230437   2.508   1.933   0.658  0.6012  0.2788 -1.2764
 2960TIP3   OH230438   5.592   5.601   7.510 -0.2885  0.4678  0.1688
 2960TIP3    H130439   5.547   5.629   7.430  0.8945  1.2524 -0.2639
 2960TIP3    H230440   5.625   5.514   7.490 -0.0539  0.6353 -0.1909
 2961TIP3   OH230441   4.540   2.335   6.903  0.7121 -0.1518 -0.3399
 2961TIP3    H130442   4.570   2.407   6.847  0.5624  0.3048  0.1497
 2961TIP3    H230443   4.489   2.279   6.845 -0.8844  1.2022 -0.3343
 2962TIP3   OH230444   0.161   1.386   1.729  0.4754  0.2457 -0.0400
 2962TIP3    H130445   0.180   1.471   1.768  1.1371 -0.0477  0.2959
 2962TIP3    H230446   0.204   1.389   1.643 -0.8051  0.8141 -0.6762
 2963TIP3   OH230447   0.263   0.371   6.618  0.3636 -0.6594  0.2224
 2963TIP3    H130448   0.235   0.439   6.557  0.1118  1.7223  2.7575
 2963TIP3    H230449   0.196   0.304   6.612 -1.4003  1.0161  0.1422
 2964TIP3   OH230450   0.420   1.107   7.689 -0.3798  0.1166 -0.0349
 2964TIP3    H130451   0.391   1.035   7.632  0.3862 -0.3544  0.1500
 2964TIP3    H230452   0.405   1.185   7.636  0.8584 -0.3518 -1.1491
 2965TIP3   OH230453   3.878   5.939   1.019 -0.4951  0.3201  0.2181
 2965TIP3    H130454   3.958   5.886   1.018 -2.1088 -2.3532 -1.3952
 2965TIP3    H230455   3.853   5.944   1.111  1.1071  0.5960  0.6664
 2966TIP3   OH230456   1.279   1.269   8.241  0.0601  1.1091 -0.2706
 2966TIP3    H130457   1.366   1.278   8.280  1.4665 -3.1228 -1.8872
 2966TIP3    H230458   1.292   1.291   8.149 -0.8239  1.2997 -0.3609
 2967TIP3   OH230459   1.637   3.620   1.153 -0.5981  0.4442  0.5157
 2967TIP3    H130460   1.562   3.679   1.145  0.2284  1.2469 -2.1601
 2967TIP3    H230461   1.710   3.670   1.118  0.5376 -1.4792  0.0441
 2968TIP3   OH230462   5.049   5.892   0.404  0.0002  0.0078  0.1415
 2968TIP3    H130463   5.138   5.926   0.408  0.5625 -1.4814  1.2473
 2968TIP3    H230464   5.058   5.799   0.427 -2.1384  0.4054  3.1465
 2969TIP3   OH230465   6.437   5.752   1.227  0.0835 -0.7063 -0.0223
 2969TIP3    H130466   6.403   5.691   1.293  1.3416 -3.8842 -2.0596
 2969TIP3    H230467   6.390   5.728   1.147  1.3411  0.3301 -1.1136
 2970TIP3   OH230468   0.078   1.153   8.620  0.0116  0.6310 -0.2072
 2970TIP3    H130469   0.088   1.245   8.594 -1.6350  0.2079 -2.6015
 2970TIP3    H230470   0.152   1.109   8.579 -0.1263  0.6427 -0.4717
 2971TIP3   OH230471   4.330   2.521   0.259 -0.1720 -0.4272 -0.0150
 2971TIP3    H130472   4.309   2.533   0.166 -1.1073  0.7732  0.3372
 2971TIP3    H230473   4.417   2.561   0.269 -0.3342 -0.0120 -0.2491
 2972TIP3   OH230474   6.245   0.878   8.265 -0.2935 -0.4853  0.0303
 2972TIP3    H130475   6.171   0.938   8.270 -0.0624 -0.2790  1.4664
 2972TIP3    H230476   6.319   0.933   8.240 -0.3429 -0.4236  0.0193
 2973TIP3   OH230477   4.395   2.542   7.314 -0.5421 -0.1086  0.0810
 2973TIP3    H130478   4.409   2.477   7.383 -1.1545 -0.4425 -0.0954
 2973TIP3    H230479   4.474   2.595   7.314 -0.0386 -0.8427  0.2490
 2974TIP3   OH230480   3.765   5.524   0.104 -0.0169 -0.1979 -0.6502
 2974TIP3    H130481   3.850   5.540   0.144  0.3852 -1.0396 -1.1375
 2974TIP3    H230482   3.784   5.508   0.011 -0.7489  0.0314 -0.8526
 2975TIP3   OH230483   3.515   6.026   7.744 -0.0387 -0.9236  0.0507
 2975TIP3    H130484   3.474   6.059   7.664  2.0520 -0.3397 -0.8387
 2975TIP3    H230485   3.442   5.990   7.795 -1.6671  0.2850 -1.3104
 2976TIP3   OH230486   5.390   6.781   8.653 -0.2243 -0.3529  0.1649
 2976TIP3    H130487   5.413   6.723   8.726 -0.2274 -0.1290  0.3436
 2976TIP3    H230488   5.473   6.803   8.612 -0.1935 -0.2300  0.2911
 2977TIP3   OH230489   1.835   1.275   6.593 -0.2185 -0.7487  0.2897
 2977TIP3    H130490   1.829   1.317   6.507  0.4873  0.1236  0.6513
 2977TIP3    H230491   1.814   1.346   6.654  1.7381 -0.6886  0.9585
 2978TIP3   OH230492   3.712   4.474   8.042  0.3333 -0.2333 -0.0567
 2978TIP3    H130493   3.622   4.456   8.070  0.8198 -0.7286  1.2520
 2978TIP3    H230494   3.764   4.407   8.085  1.2548 -0.4455 -1.4425
 2979TIP3   OH230495   5.707   2.995   6.684 -0.3382  0.0660 -0.1125
 2979TIP3    H130496   5.724   3.035   6.599  2.2853 -0.5285  0.0597
 2979TIP3    H230497   5.734   2.904   6.674  0.5124  0.1031  1.4796
 2980TIP3   OH230498   6.221   0.288   0.594  0.4858  0.2228  0.4322
 2980TIP3    H130499   6.169   0.324   0.665  0.7748  2.1267 -0.2767
 2980TIP3    H230500   6.182   0.323   0.514  1.0505 -0.7106 -0.2851
 2981TIP3   OH230501   1.741   1.660   1.683  0.1872  0.3024  0.1021
 2981TIP3    H130502   1.729   1.755   1.678  0.5138  0.3549  0.3118
 2981TIP3    H230503   1.833   1.649   1.706  0.3955 -0.0873 -0.8570
 2982TIP3   OH230504   4.102   4.646   0.468  0.0893 -0.0563  0.5184
 2982TIP3    H130505   4.152   4.710   0.417 -1.9814  2.2641  1.1763
 2982TIP3    H230506   4.012   4.655   0.436 -0.2647 -3.0339  0.3641
 2983TIP3   OH230507   5.483   2.190   7.023  0.0689 -0.7299  0.3096
 2983TIP3    H130508   5.395   2.208   6.991  0.1599 -1.5148 -0.4274
 2983TIP3    H230509   5.506   2.266   7.076 -1.9846 -1.5492  2.5360
 2984TIP3   OH230510   1.599   1.085   1.270 -0.2103 -0.0487 -0.9261
 2984TIP3    H130511   1.644   1.146   1.211  1.5916  1.0979  1.4327
 2984TIP3    H230512   1.668   1.024   1.298 -0.6804  0.1696  0.8330
 2985TIP3   OH230513   1.560   2.783   7.653  0.1752 -0.3637  0.2749
 2985TIP3    H130514   1.655   2.778   7.644  0.2326  1.9138 -1.0689
 2985TIP3    H230515   1.529   2.696   7.626  1.8663 -1.5259  1.7837
 2986TIP3   OH230516   5.894   3.849   0.575 -0.2478 -0.2840  0.0759
 2986TIP3    H130517   5.981   3.829   0.540 -0.3766  0.5572 -0.7577
 2986TIP3    H230518   5.909   3.866   0.668  0.8567  1.9619 -0.4410
 2987TIP3   OH230519   2.701   6.219   1.016 -0.4821 -0.1814 -0.9813
 2987TIP3    H130520   2.712   6.308   1.051 -0.5494 -1.0842  1.4997
 2987TIP3    H230521   2.765   6.214   0.945  0.5729  1.3818 -0.2208
 2988TIP3   OH230522   4.717   5.939   1.322  0.6125 -0.1288 -0.6494
 2988TIP3    H130523   4.775   6.012   1.345  0.0937  0.2001 -0.3504
 2988TIP3    H230524   4.632   5.964   1.360  0.4116 -0.8537 -0.6123
 2989TIP3   OH230525   1.813   3.912   1.583  0.2151 -0.4580  0.0036
 2989TIP3    H130526   1.790   3.937   1.494  2.2085  1.0278 -0.1574
 2989TIP3    H230527   1.772   3.978   1.638  2.7683  1.4610 -0.2057
 2990TIP3   OH230528   6.167   5.349   0.058 -0.3314 -0.4106 -0.2953
 2990TIP3    H130529   6.112   5.404   0.113  0.0594  0.2486 -0.5415
 2990TIP3    H230530   6.255   5.359   0.096 -0.5146 -2.1741  0.6571
 2991TIP3   OH230531   3.156   5.157   8.276  0.8279  0.1675  0.6443
 2991TIP3    H130532   3.149   5.111   8.193  2.5727  0.3003  0.3826
 2991TIP3    H230533   3.166   5.249   8.252  4.4583 -0.0487  0.7227
 2992TIP3   OH230534   3.879   3.101   2.525  0.5175  0.6131 -0.3721
 2992TIP3    H130535   3.807   3.056   2.481  1.0149  1.0576 -1.6889
 2992TIP3    H230536   3.845   3.189   2.543  0.4085  0.5169 -0.0958
 2993TIP3   OH230537   3.122   0.307   7.795  0.1397 -0.5270  0.4095
 2993TIP3    H130538   3.175   0.346   7.725  0.4572  0.9032  1.3905
 2993TIP3    H230539   3.072   0.238   7.752  2.1774 -1.3712 -0.7211
 2994TIP3   OH230540   1.352   2.020   1.373  0.8009  0.3924  0.8527
 2994TIP3    H130541   1.280   2.022   1.311 -0.2040 -0.0745  1.9619
 2994TIP3    H230542   1.390   1.933   1.364 -0.2525 -0.1902  1.8689
 2995TIP3   OH230543   5.713   5.063   8.210 -0.2953 -0.0491 -0.3838
 2995TIP3    H130544   5.636   5.013   8.182  0.0055 -0.2388 -0.9007
 2995TIP3    H230545   5.678   5.145   8.243 -0.8670 -0.8720  1.1828
 2996TIP3   OH230546   4.142   4.493   8.246  0.1983 -0.2012  0.4322
 2996TIP3    H130547   4.122   4.456   8.160  0.7860  0.2030  0.1054
 2996TIP3    H230548   4.208   4.434   8.283  0.0581 -0.2913  0.5366
 2997TIP3   OH230549   4.179   3.259   7.378  0.1569 -0.1491 -0.0206
 2997TIP3    H130550   4.200   3.330   7.318 -0.9795  0.7542  0.6034
 2997TIP3    H230551   4.203   3.180   7.331  0.0178  0.5711 -1.3537
 2998TIP3   OH230552   0.191   0.581   1.763 -0.5279  0.8218  0.4310
 2998TIP3    H130553   0.252   0.521   1.721 -0.2600 -0.4533  2.4871
 2998TIP3    H230554   0.194   0.660   1.709  1.2618  0.0069 -0.7694
 2999TIP3   OH230555   0.750   2.531   2.012  0.1197  0.2438  1.0251
 2999TIP3    H130556   0.839   2.519   1.978 -0.0671  2.4657 -0.4764
 2999TIP3    H230557   0.694   2.534   1.934 -1.0494  0.5052  1.8485
 3000TIP3   OH230558   0.135   4.565   2.622 -0.0725  0.7741 -0.0208
 3000TIP3    H130559   0.046   4.593   2.643 -1.1317 -1.5512 -1.0259
 3000TIP3    H230560   0.132   4.469   2.631  2.3507  0.6411 -0.0430
 3001TIP3   OH230561   2.120   3.538   6.886  0.0859 -0.1806  0.0869
 3001TIP3    H130562   2.153   3.555   6.974  1.2481  0.6111 -0.4673
 3001TIP3    H230563   2.151   3.450   6.865  0.7456  0.0471  0.0769
 3002TIP3   OH230564   6.063   5.447   0.882 -0.0661 -0.0532  0.2344
 3002TIP3    H130565   6.022   5.361   0.874  0.2175 -0.1237 -0.5883
 3002TIP3    H230566   6.030   5.482   0.964 -1.7914 -0.1148 -0.3799
 3003TIP3   OH230567   6.021   0.137   0.137  0.1522 -0.0682 -0.2958
 3003TIP3    H130568   5.995   0.057   0.182  1.2086  0.3809  1.2290
 3003TIP3    H230569   6.113   0.123   0.115  0.2155  0.5392 -0.4414
 3004TIP3   OH230570   0.343   2.811   2.230  0.2276  0.1666 -0.3491
 3004TIP3    H130571   0.274   2.863   2.271 -0.5661 -0.2957 -1.0794
 3004TIP3    H230572   0.300   2.731   2.202  1.1308 -0.2660 -0.5475
 3005TIP3   OH230573   2.364   3.374   1.659 -0.4319  0.2553  0.0498
 3005TIP3    H130574   2.451   3.410   1.638 -0.2512 -0.6661 -0.8887
 3005TIP3    H230575   2.312   3.390   1.580 -1.0757  0.6482  0.5436
 3006TIP3   OH230576   3.269   1.892   0.792  0.0027  0.0251 -0.6577
 3006TIP3    H130577   3.226   1.970   0.829  1.3233  1.2230 -1.5250
 3006TIP3    H230578   3.362   1.914   0.795  0.4434 -1.7685 -0.4338
 3007TIP3   OH230579   0.259   2.771   1.423  0.2170 -0.5173  0.3555
 3007TIP3    H130580   0.198   2.844   1.408  0.5036 -0.5024 -0.8496
 3007TIP3    H230581   0.345   2.813   1.432  0.1264 -0.5725  1.6215
 3008TIP3   OH230582   5.726   2.071   1.531  0.1123  0.2644  0.3262
 3008TIP3    H130583   5.641   2.104   1.559 -0.8220 -0.9294 -0.9708
 3008TIP3    H230584   5.786   2.143   1.546 -0.7710  0.5399  2.9438
 3009TIP3   OH230585   3.710   5.636   1.219 -0.4669 -0.0440 -0.3389
 3009TIP3    H130586   3.796   5.646   1.260 -0.9836 -0.1763  0.8103
 3009TIP3    H230587   3.650   5.620   1.292 -1.4782  0.0726 -1.1220
 3010TIP3   OH230588   0.399   2.900   6.055 -0.6815 -0.3424  0.0644
 3010TIP3    H130589   0.324   2.841   6.065 -1.0598  0.0825 -0.2314
 3010TIP3    H230590   0.444   2.867   5.977  0.5134 -1.7445  1.2846
 3011TIP3   OH230591   1.375   1.235   0.334  0.2911  0.0651  0.3467
 3011TIP3    H130592   1.432   1.161   0.315  0.9403  1.0755 -2.0928
 3011TIP3    H230593   1.315   1.239   0.259  0.2142  1.9247  0.4517
 3012TIP3   OH230594   6.375   6.283   8.175 -0.2039  0.7266 -0.0262
 3012TIP3    H130595   6.317   6.331   8.116 -1.1428  0.7178  0.8679
 3012TIP3    H230596   6.335   6.196   8.183 -0.0041  0.6817  0.5179
 3013TIP3   OH230597   1.798   6.035   2.376 -0.4504 -0.0902  0.0861
 3013TIP3    H130598   1.859   6.053   2.305  0.8631  2.4467  1.6859
 3013TIP3    H230599   1.720   6.002   2.333  1.0130 -0.6778 -2.3093
 3014TIP3   OH230600   6.768   2.972   1.842 -0.3197 -0.8006  0.6042
 3014TIP3    H130601   6.768   3.061   1.876 -0.0521  0.4292 -2.3725
 3014TIP3    H230602   6.679   2.959   1.810 -0.0595 -1.1989  0.0358
 3015TIP3   OH230603   0.872   0.676   0.500  0.1500  0.0611 -1.0579
 3015TIP3    H130604   0.790   0.691   0.546  1.2325  1.0366  0.6934
 3015TIP3    H230605   0.917   0.609   0.552  0.9533  0.4132 -1.2813
 3016TIP3   OH230606   3.221   6.819   0.600 -0.4671  0.3921 -0.2507
 3016TIP3    H130607   3.297   6.760   0.593 -0.4087  0.5417 -1.0317
 3016TIP3    H230608   3.253   6.904   0.571 -0.3952  0.9849  1.4548
 3017TIP3   OH230609   5.293   0.262   0.202  0.2198  0.4476  0.1974
 3017TIP3    H130610   5.304   0.354   0.227  0.0463  0.9490 -1.4024
 3017TIP3    H230611   5.236   0.225   0.269  0.5453  1.4327  1.0372
 3018TIP3   OH230612   3.314   4.845   8.065 -0.3954 -0.3389 -0.7957
 3018TIP3    H130613   3.365   4.923   8.047 -0.1855 -0.3467 -0.2452
 3018TIP3    H230614   3.223   4.874   8.058 -0.5225  1.0997  3.5411
 3019TIP3   OH230615   6.235   5.311   7.675 -0.0323 -0.2648  0.0952
 3019TIP3    H130616   6.321   5.350   7.660 -0.3173  0.3068 -0.0529
 3019TIP3    H230617   6.179   5.384   7.700  0.1456 -0.9842  2.9710
 3020TIP3   OH230618   6.247   3.430   6.813  0.2383 -0.7644 -0.1713
 3020TIP3    H130619   6.170   3.487   6.812  0.9361  0.1953 -0.6440
 3020TIP3    H230620   6.294   3.451   6.733  1.3715 -0.8065  0.4580
 3021TIP3   OH230621   2.143   2.225   0.587  0.0355  0.2908  0.0965
 3021TIP3    H130622   2.083   2.266   0.524  0.2162  0.5374  0.0832
 3021TIP3    H230623   2.085   2.185   0.652 -0.1604 -0.1230 -0.3196
 3022TIP3   OH230624   4.232   5.061   1.947 -0.5504 -0.1181 -0.5683
 3022TIP3    H130625   4.320   5.098   1.951 -0.6731  0.1023  0.2072
 3022TIP3    H230626   4.179   5.130   1.909 -0.3567 -0.3314 -1.2477
 3023TIP3   OH230627   1.861   0.365   8.693 -0.0623  0.1618 -0.1623
 3023TIP3    H130628   1.848   0.449   8.737  0.3987 -0.6332  1.5990
 3023TIP3    H230629   1.948   0.372   8.653  0.1683  0.3648  0.3686
 3024TIP3   OH230630   4.057   1.935   0.784 -0.4344  0.0836 -0.6244
 3024TIP3    H130631   4.105   1.983   0.716 -1.0373  0.5817 -0.7050
 3024TIP3    H230632   4.125   1.909   0.846 -0.0668  0.8980 -0.6682
 3025TIP3   OH230633   1.267   2.495   1.412  0.1474 -0.2963  0.3428
 3025TIP3    H130634   1.353   2.496   1.371  0.2860  0.7394  0.6398
 3025TIP3    H230635   1.211   2.448   1.350  0.5323  0.5672 -0.6760
 3026TIP3   OH230636   6.151   0.310   8.023 -0.2605 -0.1225  0.6043
 3026TIP3    H130637   6.168   0.281   7.933 -0.8023 -0.9817  0.7763
 3026TIP3    H230638   6.235   0.299   8.067 -0.6285 -2.2464  0.8735
 3027TIP3   OH230639   2.695   2.617   2.176 -0.1300 -0.8481 -0.0933
 3027TIP3    H130640   2.603   2.640   2.186  0.2848  0.4779  1.1356
 3027TIP3    H230641   2.739   2.666   2.246  1.5204 -1.3317 -0.7461
 3028TIP3   OH230642   2.381   2.977   7.784  0.1833 -0.9034 -0.0031
 3028TIP3    H130643   2.310   2.912   7.785  0.1286 -1.1544 -4.1737
 3028TIP3    H230644   2.429   2.960   7.703  1.4721  2.8945 -0.2678
 3029TIP3   OH230645   2.700   6.724   0.416  0.1991  0.5404 -0.2133
 3029TIP3    H130646   2.794   6.736   0.407  0.1510  1.6082  0.4952
 3029TIP3    H230647   2.689   6.687   0.504 -0.0459  0.4144 -0.2945
 3030TIP3   OH230648   4.850   0.082   7.782 -0.0768  0.2188  0.5816
 3030TIP3    H130649   4.925   0.115   7.733 -0.0467 -1.6191 -0.6959
 3030TIP3    H230650   4.776   0.095   7.723 -0.5975  0.8887  1.3493
 3031TIP3   OH230651   2.790   4.705   2.317 -0.5315 -0.4936 -0.2467
 3031TIP3    H130652   2.826   4.682   2.403 -0.6455  0.5009  0.0808
 3031TIP3    H230653   2.698   4.722   2.334 -0.6292 -0.6164 -0.6386
 3032TIP3   OH230654   1.621   2.994   7.846  0.4496 -0.1840  0.2494
 3032TIP3    H130655   1.606   2.953   7.931 -0.0717 -1.3357 -0.3599
 3032TIP3    H230656   1.580   2.933   7.784 -1.5309  1.8877 -0.6205
 3033TIP3   OH230657   6.643   2.891   7.080  0.1803 -0.0508 -0.2160
 3033TIP3    H130658   6.739   2.891   7.091  0.0365 -0.9911  1.3205
 3033TIP3    H230659   6.630   2.861   6.990  1.3403  1.9995 -1.1646
 3034TIP3   OH230660   0.693   6.259   1.381  0.0416  0.4571  0.0915
 3034TIP3    H130661   0.677   6.165   1.379  1.7580  0.1541 -1.0926
 3034TIP3    H230662   0.607   6.298   1.367 -0.6063 -0.9354  0.0614
 3035TIP3   OH230663   4.822   2.640   1.724 -0.1028  0.1971 -0.1754
 3035TIP3    H130664   4.789   2.557   1.690  1.0401  0.1421 -1.2530
 3035TIP3    H230665   4.838   2.624   1.817  0.7486 -1.0206 -0.5067
 3036TIP3   OH230666   0.313   0.320   2.380  0.3949  0.1848  0.3025
 3036TIP3    H130667   0.350   0.297   2.295  0.1398 -2.1006  0.7434
 3036TIP3    H230668   0.358   0.402   2.405  1.1603  0.3789 -1.5647
 3037TIP3   OH230669   3.537   6.192   0.193 -0.2255  0.0907  0.0353
 3037TIP3    H130670   3.626   6.222   0.214  0.3593 -2.0630  0.8788
 3037TIP3    H230671   3.548   6.137   0.115 -0.2494 -2.5903  1.7873
 3038TIP3   OH230672   3.565   3.454   7.956 -0.1452 -0.1805  0.0519
 3038TIP3    H130673   3.638   3.418   8.006  0.7696  0.9705 -0.4041
 3038TIP3    H230674   3.530   3.525   8.010  0.3421  0.5491 -0.5599
 3039TIP3   OH230675   3.937   0.393   0.233  0.1781  0.0067  0.5004
 3039TIP3    H130676   3.885   0.421   0.309 -0.7136  0.2561 -0.1831
 3039TIP3    H230677   3.913   0.301   0.220 -0.7443  0.3483 -0.3168
 3040TIP3   OH230678   3.872   1.458   8.011 -0.0200 -0.1544  0.3537
 3040TIP3    H130679   3.822   1.404   8.072 -1.7055 -0.1089 -0.9047
 3040TIP3    H230680   3.882   1.403   7.933 -0.6291  0.8571 -0.4632
 3041TIP3   OH230681   2.851   5.478   0.560  0.6577 -0.2262 -0.0341
 3041TIP3    H130682   2.794   5.428   0.501  2.6730  1.1584 -3.4426
 3041TIP3    H230683   2.930   5.424   0.567  0.5368 -0.2521  1.2814
 3042TIP3   OH230684   1.527   5.306   0.962  0.2734 -0.3018 -0.1260
 3042TIP3    H130685   1.531   5.210   0.960  2.6591 -0.2711 -3.1168
 3042TIP3    H230686   1.612   5.332   0.999 -0.4885  0.7056  0.9810
 3043TIP3   OH230687   3.902   5.112   0.896  0.2939 -0.4234  0.0693
 3043TIP3    H130688   3.886   5.047   0.963  0.3597 -0.1103  0.3916
 3043TIP3    H230689   3.997   5.118   0.889  0.2862 -1.0003 -0.5887
 3044TIP3   OH230690   1.164   1.324   7.815  0.9337 -0.3738  0.3426
 3044TIP3    H130691   1.237   1.312   7.875  0.4360  0.7212  1.2065
 3044TIP3    H230692   1.100   1.375   7.864  0.7275  1.0325 -1.2671
 3045TIP3   OH230693   0.117   6.424   2.183 -0.2791  0.0792 -0.3258
 3045TIP3    H130694   0.195   6.464   2.221 -0.7049 -0.9630  1.7500
 3045TIP3    H230695   0.052   6.426   2.253 -2.5828  1.9565 -2.3281
 3046TIP3   OH230696   3.342   4.330   8.437  1.1828  0.2982 -0.0460
 3046TIP3    H130697   3.344   4.256   8.497  0.4524  0.1468 -0.1964
 3046TIP3    H230698   3.383   4.401   8.485  1.5669 -0.1077  0.2325
 3047TIP3   OH230699   2.349   4.692   1.793 -0.2116 -0.0731  0.6778
 3047TIP3    H130700   2.436   4.678   1.831 -0.2569  1.5387  1.4172
 3047TIP3    H230701   2.309   4.759   1.847 -3.1589 -2.8122  2.2693
 3048TIP3   OH230702   3.825   0.723   1.982  0.2560 -1.0137 -0.1463
 3048TIP3    H130703   3.769   0.800   1.983 -1.0796 -1.7940 -3.2200
 3048TIP3    H230704   3.801   0.675   2.061  0.0462  0.9309  1.0469
 3049TIP3   OH230705   6.461   3.934   7.073 -0.5014 -0.4164 -0.1092
 3049TIP3    H130706   6.439   3.841   7.067  0.1141 -0.5989  0.4170
 3049TIP3    H230707   6.532   3.938   7.136  0.8722  0.1860 -1.6175
 3050TIP3   OH230708   5.895   1.395   1.959 -0.0044  0.6215 -0.3107
 3050TIP3    H130709   5.893   1.301   1.937 -0.7395  0.1313  1.6469
 3050TIP3    H230710   5.941   1.399   2.043 -2.4207  1.6176  1.0813
 3051TIP3   OH230711   5.170   5.011   2.571 -0.0454  0.8123 -0.3325
 3051TIP3    H130712   5.243   5.021   2.633 -0.7282  0.1685  0.6060
 3051TIP3    H230713   5.205   4.951   2.505 -0.6294 -2.0752  1.7562
 3052TIP3   OH230714   2.562   3.711   8.257  0.2777 -0.0146  0.4320
 3052TIP3    H130715   2.498   3.734   8.325 -0.4548  0.2629 -0.3397
 3052TIP3    H230716   2.594   3.796   8.225 -0.4791 -0.0937 -0.5867
 3053TIP3   OH230717   0.458   3.428   8.309 -0.8341 -0.2397  0.5954
 3053TIP3    H130718   0.391   3.487   8.273  0.4916 -0.3958 -2.4038
 3053TIP3    H230719   0.411   3.347   8.328 -1.9246  0.4354  0.8667
 3054TIP3   OH230720   1.820   4.189   8.443  0.5731  0.5032  0.7116
 3054TIP3    H130721   1.818   4.108   8.392 -2.3529  1.0354 -0.1883
 3054TIP3    H230722   1.833   4.257   8.378 -0.0168  0.9573  1.0601
 3055TIP3   OH230723   1.789   6.075   7.977 -0.5164 -0.1665  0.2826
 3055TIP3    H130724   1.764   5.983   7.968  0.7067 -0.4841 -0.0652
 3055TIP3    H230725   1.883   6.073   7.993 -0.4207  1.0391 -0.0077
 3056TIP3   OH230726   2.048   4.414   0.280  0.0606 -0.2716  0.0962
 3056TIP3    H130727   2.041   4.404   0.185 -0.0243 -1.7049  0.2361
 3056TIP3    H230728   1.977   4.359   0.315 -2.2182  2.9051  0.9276
 3057TIP3   OH230729   0.425   1.512   6.759 -0.1986 -0.4044  0.4352
 3057TIP3    H130730   0.459   1.592   6.718  1.3601 -0.5806  1.3212
 3057TIP3    H230731   0.343   1.494   6.712 -0.2909  1.3861 -0.1568
 3058TIP3   OH230732   4.247   6.091   7.594  0.6081  0.1388  0.0539
 3058TIP3    H130733   4.208   6.105   7.680  1.7694 -0.5431  0.7177
 3058TIP3    H230734   4.242   5.997   7.580 -2.6688  0.4617 -2.1994
 3059TIP3   OH230735   2.730   2.112   0.161 -0.2116  0.0934 -0.0916
 3059TIP3    H130736   2.785   2.089   0.086 -1.0568  0.2108 -0.7589
 3059TIP3    H230737   2.648   2.066   0.146  0.1167 -1.1021  1.5559
 3060TIP3   OH230738   5.663   6.338   1.142 -0.5681  0.5829  0.6227
 3060TIP3    H130739   5.721   6.377   1.208 -0.8379 -1.1075  1.9309
 3060TIP3    H230740   5.716   6.269   1.102 -0.6386  1.1459 -0.4679
 3061TIP3   OH230741   1.560   1.710   0.442  0.5711 -0.5198  0.0481
 3061TIP3    H130742   1.534   1.618   0.451  0.6440 -0.4675  0.9301
 3061TIP3    H230743   1.652   1.711   0.469  0.4064 -0.0989  0.5987
 3062TIP3   OH230744   6.779   2.803   8.182  0.2903  0.2382 -0.4585
 3062TIP3    H130745   6.725   2.836   8.254  0.8603  2.4551 -0.9627
 3062TIP3    H230746   6.809   2.882   8.138  0.7986 -1.0461 -2.5191
 3063TIP3   OH230747   0.092   1.472   0.087 -0.1280  0.5113  0.4854
 3063TIP3    H130748   0.171   1.483   0.139 -1.5566  2.4451  2.4142
 3063TIP3    H230749   0.123   1.438   0.003  2.3992 -1.6472  2.1189
 3064TIP3   OH230750   6.832   4.071   0.881 -0.2496  0.9914  0.0886
 3064TIP3    H130751   6.899   4.079   0.949  0.2170  2.3881 -0.4835
 3064TIP3    H230752   6.781   3.995   0.906  1.9533 -0.5541  0.1891
 3065TIP3   OH230753   6.207   0.663   0.910 -0.0588 -0.6155  0.0966
 3065TIP3    H130754   6.154   0.702   0.841  0.0850 -0.7909 -0.1142
 3065TIP3    H230755   6.144   0.615   0.965 -0.4474  1.0417  1.1734
 3066TIP3   OH230756   0.018   1.408   1.302  0.1759  0.1219  0.1862
 3066TIP3    H130757  -0.037   1.396   1.225  0.9255 -1.1267 -0.1854
 3066TIP3    H230758  -0.042   1.437   1.370 -0.8031 -0.4462 -0.4146
 3067TIP3   OH230759   0.402   5.371   7.068 -0.3156  0.4465  0.0321
 3067TIP3    H130760   0.461   5.447   7.073 -1.8088  1.6352  0.2327
 3067TIP3    H230761   0.421   5.332   6.983  0.2871  1.2291 -0.2095
 3068TIP3   OH230762   1.188   1.079   8.026 -0.0222  0.3343 -0.5929
 3068TIP3    H130763   1.213   1.126   8.105 -1.0075 -0.0731 -0.0249
 3068TIP3    H230764   1.271   1.042   7.993  0.3566  0.2904  0.3881
 3069TIP3   OH230765   1.087   2.828   0.425 -0.2925  0.0801  0.0904
 3069TIP3    H130766   1.043   2.911   0.443 -0.1797  0.7487 -2.2950
 3069TIP3    H230767   1.100   2.828   0.330  0.2839 -2.4019  0.0880
 3070TIP3   OH230768   6.222   3.502   1.286 -0.4529 -0.1847 -0.2314
 3070TIP3    H130769   6.237   3.560   1.361 -1.2159 -0.0586 -0.1697
 3070TIP3    H230770   6.274   3.541   1.215 -1.8356  1.2513 -0.5103
 3071TIP3   OH230771   4.260   5.010   2.725  0.1412 -0.3012 -0.3417
 3071TIP3    H130772   4.352   5.028   2.745  0.2677 -2.5095  1.5262
 3071TIP3    H230773   4.211   5.069   2.782  0.4785 -1.2128  0.9479
 3072TIP3   OH230774   3.387   1.036   7.836 -0.5273  0.6065  0.2558
 3072TIP3    H130775   3.348   1.070   7.756  0.6269  0.2474 -0.4977
 3072TIP3    H230776   3.336   0.957   7.856 -0.8887  0.7550 -0.0690
 3073TIP3   OH230777   5.815   1.471   1.381  0.0638 -0.1561 -0.2893
 3073TIP3    H130778   5.759   1.408   1.337 -0.7711 -0.0934  0.6393
 3073TIP3    H230779   5.802   1.553   1.333 -1.0523 -0.0184  0.2176
 3074TIP3   OH230780   1.393   2.993   2.113  0.5289  0.1296 -0.5072
 3074TIP3    H130781   1.419   3.052   2.184  0.1371  1.1117 -1.1584
 3074TIP3    H230782   1.357   3.051   2.046  2.9819 -0.5087 -2.5046
 3075TIP3   OH230783   5.529   4.690   0.587 -0.5860  0.0844  0.1581
 3075TIP3    H130784   5.598   4.635   0.549 -0.3765  1.0244 -0.8747
 3075TIP3    H230785   5.448   4.644   0.566 -0.2885 -1.0767  1.4608
 3076TIP3   OH230786   4.716   2.943   8.110  0.5387  0.1428  0.2419
 3076TIP3    H130787   4.694   2.996   8.033 -0.1998 -0.5867 -0.0725
 3076TIP3    H230788   4.701   2.853   8.081 -1.1473 -0.0855  1.6530
 3077TIP3   OH230789   4.264   3.110   7.872  0.1666  0.2663 -0.0772
 3077TIP3    H130790   4.271   3.129   7.778 -2.6168 -0.1078 -0.4592
 3077TIP3    H230791   4.248   3.195   7.912  1.3759  0.4289  0.0980
 3078TIP3   OH230792   1.259   4.459   8.188 -0.4244 -0.1420  0.1679
 3078TIP3    H130793   1.165   4.442   8.190 -0.9047  2.1266 -0.7146
 3078TIP3    H230794   1.287   4.428   8.102 -1.2141  2.7329 -1.2548
 3079TIP3   OH230795   4.721   6.388   1.332  0.1744 -0.1718 -0.1521
 3079TIP3    H130796   4.731   6.481   1.353 -0.5662 -0.4497  1.5343
 3079TIP3    H230797   4.784   6.373   1.262 -0.5599  1.8741 -1.3423
 3080TIP3   OH230798   0.415   5.486   7.395 -0.6072 -0.3367 -0.5120
 3080TIP3    H130799   0.362   5.538   7.455  1.5160  0.5444  0.6708
 3080TIP3    H230800   0.418   5.537   7.314  0.3954  0.8016  0.2163
 3081TIP3   OH230801   5.591   3.288   7.485 -0.3335  0.1060  0.0654
 3081TIP3    H130802   5.575   3.381   7.502 -1.5436  0.0994 -0.9148
 3081TIP3    H230803   5.675   3.270   7.529 -0.6346  1.3663  1.2388
 3082TIP3   OH230804   4.889   0.931   8.679 -0.4814 -0.0870  0.1280
 3082TIP3    H130805   4.886   1.025   8.661  0.1441 -0.1206 -0.1876
 3082TIP3    H230806   4.979   0.916   8.709 -0.1501 -0.8151 -1.1812
 3083TIP3   OH230807   3.128   5.874   2.261 -0.1592  0.1755 -0.3500
 3083TIP3    H130808   3.085   5.946   2.308 -0.0517  0.1681 -0.2396
 3083TIP3    H230809   3.221   5.888   2.276 -0.1680 -0.4147  0.3019
 3084TIP3   OH230810   1.905   5.501   7.137 -0.1944  0.1992 -0.2555
 3084TIP3    H130811   1.955   5.460   7.208  1.3626 -1.9837 -2.4252
 3084TIP3    H230812   1.956   5.578   7.113 -0.6080  0.8205  0.7894
 3085TIP3   OH230813   3.792   2.301   2.143 -0.1200 -0.0119  0.4449
 3085TIP3    H130814   3.879   2.339   2.134 -0.1277  0.0223  0.5134
 3085TIP3    H230815   3.763   2.284   2.053 -0.6107  1.2492  0.3495
 3086TIP3   OH230816   3.328   0.615   8.176 -0.3277  0.1112 -0.2048
 3086TIP3    H130817   3.288   0.602   8.089  1.3304 -1.2866 -0.8168
 3086TIP3    H230818   3.257   0.597   8.237 -0.8895 -1.5853 -1.2650
 3087TIP3   OH230819   3.489   4.259   7.633 -0.1910 -0.3411 -0.4199
 3087TIP3    H130820   3.525   4.291   7.717 -1.2602 -0.6722  0.1841
 3087TIP3    H230821   3.559   4.274   7.570  0.1760  1.1139  0.2875
 3088TIP3   OH230822   0.538   1.291   0.466 -0.1455  0.1759  0.2829
 3088TIP3    H130823   0.630   1.293   0.492 -0.3564  0.5859  1.0261
 3088TIP3    H230824   0.538   1.253   0.379  0.5619 -1.4796  0.9812
 3089TIP3   OH230825   0.589   5.523   0.337 -0.0256 -0.5105  0.6150
 3089TIP3    H130826   0.566   5.616   0.343 -0.0076 -0.2469 -2.0483
 3089TIP3    H230827   0.677   5.518   0.374  0.9638  1.0517 -1.3002
 3090TIP3   OH230828   1.726   0.619   7.792  0.5243  0.0486  0.4345
 3090TIP3    H130829   1.716   0.606   7.698  2.3892  0.3577  0.1543
 3090TIP3    H230830   1.708   0.534   7.831 -1.8003  0.2817 -0.0279
 3091TIP3   OH230831   4.302   5.411   1.625  0.0431  0.1085 -0.8622
 3091TIP3    H130832   4.230   5.454   1.671  0.8021 -0.0605  0.5298
 3091TIP3    H230833   4.378   5.424   1.681  0.8907 -0.5975 -1.8059
 3092TIP3   OH230834   3.447   5.312   1.140  0.5429 -0.2536  0.0865
 3092TIP3    H130835   3.507   5.352   1.077  2.4831 -0.6963  1.5421
 3092TIP3    H230836   3.420   5.385   1.196  1.1090 -0.3229  0.4617
 3093TIP3   OH230837   1.777   2.805   7.315 -0.5785  0.0605 -0.2686
 3093TIP3    H130838   1.777   2.887   7.265  0.1855 -0.3676 -1.0023
 3093TIP3    H230839   1.816   2.828   7.399  0.2263  0.3255 -0.7029
 3094TIP3   OH230840   2.863   4.425   6.817 -0.0488  0.5229  0.0118
 3094TIP3    H130841   2.935   4.365   6.838 -0.2210  0.2325 -0.2096
 3094TIP3    H230842   2.874   4.498   6.878 -0.3736 -0.1667  0.9365
 3095TIP3   OH230843   1.926   1.671   8.428 -0.0388  0.6075 -0.0230
 3095TIP3    H130844   1.898   1.625   8.507 -0.9221  0.8074 -0.2005
 3095TIP3    H230845   1.909   1.763   8.447 -1.0404  0.5898 -0.7276
 3096TIP3   OH230846   1.008   3.946   6.566 -0.3031 -0.1374 -0.1361
 3096TIP3    H130847   1.064   4.016   6.599 -0.8019 -1.3042  3.8085
 3096TIP3    H230848   1.059   3.866   6.581 -1.1592 -0.8921 -1.1130
 3097TIP3   OH230849   2.993   5.927   1.027 -0.1495 -0.7239  0.3419
 3097TIP3    H130850   2.919   5.899   1.081  0.5603  0.3164  1.9214
 3097TIP3    H230851   3.035   5.845   1.000 -0.2989 -1.2793  1.7237
 3098TIP3   OH230852   1.285   0.489   1.879  0.1410 -0.3034  0.2852
 3098TIP3    H130853   1.288   0.518   1.970  2.8710  1.4210 -0.2108
 3098TIP3    H230854   1.337   0.409   1.878 -0.0937 -0.4553  0.2879
 3099TIP3   OH230855   2.217   2.361   7.379  0.0579  0.1194  0.6281
 3099TIP3    H130856   2.212   2.271   7.349 -0.2395  0.9963 -2.2298
 3099TIP3    H230857   2.128   2.382   7.407 -0.1280 -0.1484  0.2420
 3100TIP3   OH230858   0.585   3.000   8.344 -0.0800 -0.4889 -0.3110
 3100TIP3    H130859   0.498   3.003   8.303 -0.0602  1.2714 -0.2815
 3100TIP3    H230860   0.568   3.014   8.437  0.3061  1.1977 -0.4642
 3101TIP3   OH230861   4.952   3.925   7.568  0.1041  0.1557 -0.3551
 3101TIP3    H130862   4.918   3.905   7.481 -0.9952  1.6344 -0.3061
 3101TIP3    H230863   4.969   4.020   7.566 -1.4418  0.5253  1.5097
 3102TIP3   OH230864   1.381   3.266   8.062  0.1986  0.3842  0.3898
 3102TIP3    H130865   1.331   3.343   8.087  0.1685  0.7357 -0.6775
 3102TIP3    H230866   1.469   3.298   8.045  0.3622  0.0611  0.6132
 3103TIP3   OH230867   6.362   5.129   8.054 -0.1840  0.0139 -0.8617
 3103TIP3    H130868   6.425   5.197   8.079 -0.9322  0.6891 -0.7621
 3103TIP3    H230869   6.377   5.115   7.961  1.9841 -1.8414 -0.3180
 3104TIP3   OH230870   0.981   5.727   1.762 -0.2056  0.3268 -0.1186
 3104TIP3    H130871   0.916   5.676   1.714  0.6248 -2.0522  1.0576
 3104TIP3    H230872   1.058   5.727   1.705 -0.5813  1.4292 -0.6582
 3105TIP3   OH230873   1.151   0.769   7.875 -0.1463  0.1647  0.3249
 3105TIP3    H130874   1.083   0.836   7.868  0.8915  1.2351  0.1552
 3105TIP3    H230875   1.159   0.751   7.968 -0.7268 -0.0360  0.3357
 3106TIP3   OH230876   3.534   3.460   1.746 -0.1637 -0.0540  0.3398
 3106TIP3    H130877   3.530   3.415   1.661 -0.2107 -0.7192  0.6911
 3106TIP3    H230878   3.490   3.401   1.807 -1.0837  0.9070  0.6287
 3107TIP3   OH230879   3.289   2.772   7.390  0.0488  0.3239 -0.5254
 3107TIP3    H130880   3.286   2.689   7.439  0.7541 -0.4220 -1.6972
 3107TIP3    H230881   3.198   2.802   7.388 -0.0397  0.2341  0.9753
 3108TIP3   OH230882   1.177   5.734   0.359  0.0408  0.1570 -0.0844
 3108TIP3    H130883   1.240   5.706   0.425  0.7765 -1.4953 -1.4147
 3108TIP3    H230884   1.193   5.828   0.349 -0.4005  0.5591  2.3411
 3109TIP3   OH230885   2.733   3.218   0.854  0.6294 -0.0809  0.6489
 3109TIP3    H130886   2.656   3.268   0.827  0.2227 -1.6096 -1.2941
 3109TIP3    H230887   2.698   3.144   0.904  0.7313 -1.0237 -0.6164
 3110TIP3   OH230888   6.814   0.546   1.900 -0.8497 -0.2179  0.1112
 3110TIP3    H130889   6.870   0.512   1.830 -1.3971 -1.5377  0.2890
 3110TIP3    H230890   6.867   0.613   1.943  0.7218 -1.6201  0.4520
 3111TIP3   OH230891   5.616   5.521   0.238  1.0971  0.1456  0.2497
 3111TIP3    H130892   5.682   5.452   0.234 -0.2310 -1.1127 -2.4132
 3111TIP3    H230893   5.533   5.476   0.222 -0.1971  1.9539  1.5006
 3112TIP3   OH230894   5.922   2.687   2.209  0.6594  0.1548 -0.2900
 3112TIP3    H130895   5.990   2.694   2.142 -0.0505  4.3067 -0.8030
 3112TIP3    H230896   5.840   2.686   2.160  0.1745 -1.2771  0.4647
 3113TIP3   OH230897   4.749   0.636   1.130  0.1778  0.0470  0.0537
 3113TIP3    H130898   4.724   0.606   1.043  1.7277 -0.8570 -0.1148
 3113TIP3    H230899   4.834   0.679   1.116  0.4168 -0.0731  1.1108
 3114TIP3   OH230900   4.156   5.526   8.131  0.0825 -0.4011 -0.3537
 3114TIP3    H130901   4.061   5.537   8.131  0.2073  0.8200 -0.6636
 3114TIP3    H230902   4.177   5.497   8.219 -0.3743  1.3902  0.3798
 3115TIP3   OH230903   0.300   1.369   0.240 -0.2768 -0.1095 -0.3106
 3115TIP3    H130904   0.317   1.278   0.218 -1.9165 -0.4625 -0.2289
 3115TIP3    H230905   0.239   1.366   0.313  1.8091  1.0766  1.6145
 3116TIP3   OH230906   3.600   5.941   0.447  0.0999 -0.0046 -0.4207
 3116TIP3    H130907   3.591   5.847   0.460 -1.1638  0.0926 -0.5270
 3116TIP3    H230908   3.651   5.949   0.366  0.6461 -0.5855 -0.1462
 3117TIP3   OH230909   6.702   3.865   1.006 -0.0586  0.1359 -0.3786
 3117TIP3    H130910   6.607   3.877   1.004 -0.3252 -1.5547  0.0541
 3117TIP3    H230911   6.720   3.835   1.096  1.1576  2.1375  0.1187
 3118TIP3   OH230912   1.787   0.111   2.482 -0.1375  0.1086 -0.2938
 3118TIP3    H130913   1.721   0.042   2.496 -2.9504  2.8549  1.5092
 3118TIP3    H230914   1.774   0.171   2.556  3.1115  1.8819 -0.9890
 3119TIP3   OH230915   2.148   6.259   6.968 -0.2960  0.4446  0.7661
 3119TIP3    H130916   2.231   6.239   7.011 -0.4960 -0.7412  0.6318
 3119TIP3    H230917   2.093   6.182   6.984 -0.1229 -0.4376 -2.2645
 3120TIP3   OH230918   6.570   3.463   7.127  0.0493  0.7063  0.0813
 3120TIP3    H130919   6.661   3.471   7.156  1.3364 -0.0250 -3.2774
 3120TIP3    H230920   6.563   3.525   7.054 -2.0370  0.3900 -0.0461
 3121TIP3   OH230921   3.239   3.518   8.179 -0.1102 -0.1196 -0.5390
 3121TIP3    H130922   3.262   3.432   8.143  1.8534  0.1964 -0.1665
 3121TIP3    H230923   3.275   3.580   8.116 -1.1558  0.4566 -0.5916
 3122TIP3   OH230924   2.994   6.310   8.463 -0.0280 -0.2101 -0.2006
 3122TIP3    H130925   3.010   6.227   8.508  2.8233  0.4917  0.2959
 3122TIP3    H230926   3.005   6.289   8.370  0.3626 -0.4572 -0.1018
 3123TIP3   OH230927   2.301   5.840   7.978  0.3388 -0.3004 -0.5530
 3123TIP3    H130928   2.383   5.887   7.968 -0.2003  0.7629 -0.0947
 3123TIP3    H230929   2.326   5.755   8.014  1.1348  0.4804  0.8178
 3124TIP3   OH230930   3.970   0.686   0.122 -0.1699  0.0231 -0.4275
 3124TIP3    H130931   3.987   0.603   0.078  0.3530  0.0175 -0.2233
 3124TIP3    H230932   4.030   0.748   0.081 -0.2529  0.2020 -0.2838
 3125TIP3   OH230933   0.429   3.233   1.042 -0.1151  0.1086  0.4314
 3125TIP3    H130934   0.512   3.197   1.008 -1.8758 -1.5142 -2.5908
 3125TIP3    H230935   0.405   3.301   0.979 -1.3747  0.1623  0.9372
 3126TIP3   OH230936   2.008   2.098   0.810 -0.1231 -0.6613  0.1986
 3126TIP3    H130937   1.940   2.034   0.789  0.5722 -2.5359  3.2000
 3126TIP3    H230938   1.980   2.137   0.893  0.9833  0.7727 -0.0600
 3127TIP3   OH230939   1.545   2.734   1.128 -0.1751 -0.2265 -0.0778
 3127TIP3    H130940   1.496   2.652   1.130  1.1519 -1.0551 -0.1934
 3127TIP3    H230941   1.624   2.715   1.178 -0.4436  1.4017  1.0289
 3128TIP3   OH230942   4.463   2.157   0.856 -0.1807 -0.1545 -0.0421
 3128TIP3    H130943   4.449   2.086   0.919  0.7378 -0.4647 -0.1843
 3128TIP3    H230944   4.413   2.231   0.893 -0.2665 -0.5539  0.6648
 3129TIP3   OH230945   0.260   3.129   0.354  0.8117  0.4096  0.3267
 3129TIP3    H130946   0.177   3.132   0.307  0.4804 -0.0256  0.8740
 3129TIP3    H230947   0.312   3.201   0.317 -0.1632  1.3047  0.6652
 3130TIP3   OH230948   3.877   1.556   0.262  0.4032  0.5091 -0.1994
 3130TIP3    H130949   3.890   1.564   0.168 -2.4150 -1.9263 -0.9556
 3130TIP3    H230950   3.801   1.612   0.280  0.5979  0.5416  0.5540
 3131TIP3   OH230951   5.700   1.589   8.548  0.1268 -0.3923 -0.4041
 3131TIP3    H130952   5.660   1.522   8.603  2.2340 -0.1688  1.5190
 3131TIP3    H230953   5.691   1.670   8.598  3.0460 -0.3684  0.2604
 3132TIP3   OH230954   3.293   3.948   2.126  0.1234  0.3884  0.0376
 3132TIP3    H130955   3.332   3.944   2.214  1.1393 -0.7594 -0.4279
 3132TIP3    H230956   3.245   3.866   2.118  1.8057 -0.5481 -1.2157
 3133TIP3   OH230957   1.333   2.273   1.629  0.0152 -0.0292  0.5538
 3133TIP3    H130958   1.350   2.191   1.674  0.3524  0.3436  1.1247
 3133TIP3    H230959   1.349   2.341   1.695  0.8926  0.5556 -0.2339
 3134TIP3   OH230960   4.598   0.112   0.722  0.3787 -0.0604 -0.3278
 3134TIP3    H130961   4.523   0.161   0.757  0.7043 -0.1456  0.5210
 3134TIP3    H230962   4.624   0.054   0.794  2.0755  0.8921 -0.1278
 3135TIP3   OH230963   4.148   5.629   0.455 -0.1885  0.2594 -0.0827
 3135TIP3    H130964   4.102   5.713   0.452 -0.6430  0.0051 -0.1993
 3135TIP3    H230965   4.168   5.616   0.547  0.6398  0.9036 -0.1537
 3136TIP3   OH230966   2.055   2.199   1.598 -0.1574  0.8437 -0.7942
 3136TIP3    H130967   1.967   2.164   1.581 -0.3407  1.1513 -0.4782
 3136TIP3    H230968   2.112   2.150   1.538 -0.4401  0.1329 -0.4961
 3137TIP3   OH230969   1.698   4.458   2.621  0.2177  0.0270  0.3044
 3137TIP3    H130970   1.640   4.535   2.614 -0.4797 -0.5076  0.0106
 3137TIP3    H230971   1.655   4.403   2.686  0.7403 -0.0947  0.5421
 3138TIP3   OH230972   2.062   3.601   1.484 -0.2812  0.6974  0.1664
 3138TIP3    H130973   2.092   3.691   1.495  0.0770  0.4661  1.2818
 3138TIP3    H230974   1.976   3.609   1.442  0.0499  1.5128 -0.3839
 3139TIP3   OH230975   0.799   4.233   1.968 -0.2322 -0.3327  0.4798
 3139TIP3    H130976   0.842   4.319   1.977  0.6352 -0.6525 -0.3852
 3139TIP3    H230977   0.779   4.207   2.058  2.8317 -0.8450  1.1491
 3140TIP3   OH230978   2.421   6.780   0.386  0.4137  0.0101 -0.5472
 3140TIP3    H130979   2.516   6.771   0.396  0.4336 -1.7114 -1.7853
 3140TIP3    H230980   2.409   6.864   0.343  1.2522  0.8790  0.8249
 3141TIP3   OH230981   5.888   5.107   1.957  0.5822  0.2303 -0.0967
 3141TIP3    H130982   5.804   5.148   1.976  2.0227  3.1809  0.3688
 3141TIP3    H230983   5.910   5.058   2.036 -1.2769 -1.8049 -0.7477
 3142TIP3   OH230984   4.524   4.576   0.911 -0.2696 -0.1260 -0.1429
 3142TIP3    H130985   4.543   4.623   0.829  0.5462 -0.9527 -0.4447
 3142TIP3    H230986   4.429   4.576   0.918 -0.3189  0.6673 -0.6631
 3143TIP3   OH230987   5.749   6.161   2.104 -0.4645 -0.0105 -0.4956
 3143TIP3    H130988   5.806   6.217   2.157 -0.5582 -1.1647  0.8876
 3143TIP3    H230989   5.801   6.142   2.026  0.6404 -0.1977  0.2650
 3144TIP3   OH230990   3.084   0.166   8.044  0.4146 -0.4266 -0.3797
 3144TIP3    H130991   3.040   0.188   7.961  1.4076 -1.0247 -1.0885
 3144TIP3    H230992   3.157   0.110   8.018  0.8919 -0.4211  0.8918
 3145TIP3   OH230993   1.139   5.847   0.991  0.1091 -0.5094  0.3981
 3145TIP3    H130994   1.197   5.775   0.965  1.1686 -0.2420  1.8590
 3145TIP3    H230995   1.181   5.925   0.956  0.4019 -0.3636  1.0510
 3146TIP3   OH230996   4.840   1.517   8.604  0.5823  0.3347 -0.2361
 3146TIP3    H130997   4.921   1.542   8.560  0.7634  1.1763  0.5393
 3146TIP3    H230998   4.789   1.471   8.537  1.7816 -0.3951 -0.6737
 3147TIP3   OH230999   5.567   0.690   8.346  0.2341 -0.2465  0.4390
 3147TIP3    H131000   5.616   0.637   8.283  0.9555 -0.5319  1.2108
 3147TIP3    H231001   5.630   0.708   8.416  0.3850  2.7220 -0.3629
 3148TIP3   OH231002   6.720   1.358   1.067 -0.1049  0.4658  0.5699
 3148TIP3    H131003   6.721   1.448   1.034  1.8692  0.4486  0.4664
 3148TIP3    H231004   6.671   1.309   1.002  0.4336  1.1429 -0.3669
 3149TIP3   OH231005   1.201   1.062   7.659 -0.2346  0.0118 -0.6934
 3149TIP3    H131006   1.267   0.997   7.686 -2.5471 -1.8294  0.8809
 3149TIP3    H231007   1.215   1.136   7.718  0.1622 -0.5466 -0.0645
 3150TIP3   OH231008   1.653   2.957   2.751 -0.3926  0.1373 -0.1550
 3150TIP3    H131009   1.741   2.952   2.788 -1.2136 -2.9906  1.7838
 3150TIP3    H231010   1.597   2.976   2.826 -1.5075  1.1642 -1.2025
 3151TIP3   OH231011   6.440   0.741   7.062  0.1338 -0.0808 -0.6504
 3151TIP3    H131012   6.512   0.774   7.116  1.8419 -0.3624 -2.6276
 3151TIP3    H231013   6.478   0.668   7.014 -1.3662  0.0250 -2.0710
 3152TIP3   OH231014   1.796   4.075   8.015  0.2103 -0.2437  0.5385
 3152TIP3    H131015   1.856   4.044   8.082  2.5648  1.0462 -0.8429
 3152TIP3    H231016   1.726   4.119   8.063  0.3508 -1.7089  2.1889
 3153TIP3   OH231017   5.443   0.920   0.697 -0.7894  0.2510 -0.9626
 3153TIP3    H131018   5.409   0.962   0.776 -0.7194  1.6585 -1.6518
 3153TIP3    H231019   5.376   0.857   0.672 -0.1161 -1.3748  1.0798
 3154TIP3   OH231020   6.375   4.164   8.206  0.3253 -0.3359  0.4352
 3154TIP3    H131021   6.406   4.110   8.278  0.9806 -0.7513 -0.1559
 3154TIP3    H231022   6.446   4.226   8.190  1.1059 -1.6190 -1.2564
 3155TIP3   OH231023   0.290   6.389   7.331 -0.0045  0.2118  0.0418
 3155TIP3    H131024   0.220   6.325   7.344 -0.6525  0.4948 -1.7352
 3155TIP3    H231025   0.272   6.427   7.245  0.3020  2.8778  1.0623
 3156TIP3   OH231026   5.318   2.260   1.434  0.3050 -0.0617  0.1331
 3156TIP3    H131027   5.350   2.170   1.445  0.3779  0.1588  1.8853
 3156TIP3    H231028   5.233   2.250   1.391  0.4863 -0.9440 -0.0415
 3157TIP3   OH231029   5.646   4.097   8.185  0.0211  0.0510 -0.3786
 3157TIP3    H131030   5.647   4.008   8.149 -1.4888 -0.1781  0.0789
 3157TIP3    H231031   5.689   4.090   8.270  1.0427  0.0349 -0.8752
 3158TIP3   OH231032   4.238   5.711   7.793 -0.2680 -0.2355  0.3485
 3158TIP3    H131033   4.200   5.717   7.705  0.2564  1.9958  0.2013
 3158TIP3    H231034   4.180   5.763   7.848  0.8963  0.7200  0.7160
 3159TIP3   OH231035   4.384   1.098   2.780 -0.0362  0.0004 -0.4769
 3159TIP3    H131036   4.404   1.121   2.871 -0.2146 -2.0186  0.1316
 3159TIP3    H231037   4.339   1.175   2.745  1.1407  1.3075  0.7363
 3160TIP3   OH231038   0.352   6.350   0.692 -0.2107 -0.6033  0.3078
 3160TIP3    H131039   0.375   6.389   0.608  1.7167 -0.3611  0.8973
 3160TIP3    H231040   0.311   6.266   0.669  1.3860 -1.1156 -0.8899
 3161TIP3   OH231041   2.746   0.013   6.646 -0.1857 -0.1034 -0.3369
 3161TIP3    H131042   2.812   0.017   6.576 -0.0253 -1.0268 -0.2454
 3161TIP3    H231043   2.663  -0.002   6.600  0.1601 -2.7086 -0.2683
 3162TIP3   OH231044   1.498   1.766   1.386  0.1413 -0.5456  0.5379
 3162TIP3    H131045   1.503   1.779   1.291  0.4112 -0.6845  0.5309
 3162TIP3    H231046   1.510   1.672   1.397 -2.4585 -0.9517  0.5363
 3163TIP3   OH231047   2.401   0.960   0.737  0.1604  0.1015  0.3569
 3163TIP3    H131048   2.322   0.908   0.752 -1.0510  2.0245  0.9941
 3163TIP3    H231049   2.401   1.025   0.807  0.8447  1.8225 -1.1687
 3164TIP3   OH231050   5.927   1.812   8.386 -0.2256 -0.4065  0.6480
 3164TIP3    H131051   5.959   1.895   8.423 -0.0535 -0.0853 -0.1910
 3164TIP3    H231052   5.838   1.832   8.357 -0.6073 -0.8436  1.4835
 3165TIP3   OH231053   3.950   0.589   0.516 -0.2342 -0.0710 -0.1425
 3165TIP3    H131054   3.932   0.541   0.597  0.7924 -1.0638 -0.4821
 3165TIP3    H231055   4.042   0.572   0.498 -0.0475  1.4144 -0.7054
 3166TIP3   OH231056   3.334   3.931   0.442  0.4190  0.3715 -0.2199
 3166TIP3    H131057   3.281   3.990   0.496 -1.3862  0.9136 -2.4602
 3166TIP3    H231058   3.355   3.982   0.364 -0.1518 -1.5063 -1.6820
 3167TIP3   OH231059   6.133   2.214   6.977  0.4221 -0.2368 -0.5223
 3167TIP3    H131060   6.146   2.130   6.935  1.1170  0.0882 -0.9621
 3167TIP3    H231061   6.140   2.196   7.071 -0.9748 -0.9341 -0.5226
 3168TIP3   OH231062   2.895   6.063   0.817 -0.8135  0.0350  0.3994
 3168TIP3    H131063   2.937   6.149   0.813 -1.1432  0.2282  0.9670
 3168TIP3    H231064   2.927   6.024   0.898  2.1425 -1.8911 -1.5102
 3169TIP3   OH231065   2.632   4.787   7.645 -0.1830  0.1620 -0.3877
 3169TIP3    H131066   2.587   4.729   7.584  0.9416  0.6372 -1.7296
 3169TIP3    H231067   2.724   4.762   7.640  0.0671  0.8432  0.4122
 3170TIP3   OH231068   5.441   6.446   1.307 -0.4007  0.4343 -0.1633
 3170TIP3    H131069   5.484   6.365   1.280 -3.6289 -1.0373 -1.4530
 3170TIP3    H231070   5.412   6.429   1.396 -1.3745 -0.0338 -0.5505
 3171TIP3   OH231071   6.833   3.353   8.272  0.1658  0.0858  0.0276
 3171TIP3    H131072   6.836   3.389   8.360  0.3951  1.3347 -0.4688
 3171TIP3    H231073   6.872   3.421   8.217  1.0034 -1.1048 -0.9044
 3172TIP3   OH231074   0.718   0.659   7.749  0.3445  0.4130 -0.1310
 3172TIP3    H131075   0.746   0.695   7.664  0.8159 -0.1598 -0.2254
 3172TIP3    H231076   0.790   0.601   7.775 -0.1024  0.0626  0.3403
 3173TIP3   OH231077   3.708   1.160   1.111  0.3595 -0.0321 -0.4722
 3173TIP3    H131078   3.719   1.245   1.069  0.6851 -0.1699 -0.6652
 3173TIP3    H231079   3.796   1.125   1.119  0.3555  0.1963  0.7693
 3174TIP3   OH231080   3.427   5.238   0.245 -0.2776 -0.3326 -0.0725
 3174TIP3    H131081   3.518   5.264   0.235 -0.8319  1.2262 -1.6626
 3174TIP3    H231082   3.405   5.196   0.161 -1.6482  1.5492 -0.7301
 3175TIP3   OH231083   6.791   2.222   7.252 -0.3023  0.6346  0.0149
 3175TIP3    H131084   6.886   2.224   7.261 -0.2896  1.7625 -0.1862
 3175TIP3    H231085   6.774   2.270   7.170 -0.9749 -0.6352 -0.6133
 3176TIP3   OH231086   6.343   6.512   0.613 -0.1430  0.3142 -0.2553
 3176TIP3    H131087   6.281   6.585   0.606  0.4401  1.1889  2.3406
 3176TIP3    H231088   6.429   6.552   0.601  0.0781 -0.5202 -1.7134
 3177TIP3   OH231089   5.813   3.780   2.272  0.3845 -0.1072 -0.5035
 3177TIP3    H131090   5.855   3.693   2.268  1.0009  0.0747  1.2236
 3177TIP3    H231091   5.733   3.765   2.322 -0.7816 -0.1044 -2.2829
 3178TIP3   OH231092   6.822   5.808   6.913 -0.6613 -0.2387  0.4300
 3178TIP3    H131093   6.899   5.801   6.969  0.8699  1.3315 -1.3155
 3178TIP3    H231094   6.801   5.901   6.913 -0.6092 -0.1863 -1.5123
 3179TIP3   OH231095   5.091   5.384   0.519  0.1723  0.3301  0.0663
 3179TIP3    H131096   5.185   5.367   0.526 -0.0878 -0.7763  1.3212
 3179TIP3    H231097   5.080   5.421   0.431  1.8210  0.8765  0.0605
 3180TIP3   OH231098   2.559   3.716   8.676  0.9840  0.5275 -0.3314
 3180TIP3    H131099   2.484   3.761   8.638  1.8096  2.6403  0.4104
 3180TIP3    H231100   2.544   3.623   8.657 -1.0795  1.0391 -1.4155
 3181TIP3   OH231101   3.087   5.621   6.836  0.7335  0.0603  0.1420
 3181TIP3    H131102   3.064   5.537   6.876  0.0669 -0.1269 -0.5961
 3181TIP3    H231103   3.044   5.619   6.750 -0.3364  1.6619  0.5883
 3182TIP3   OH231104   5.642   0.488   7.152  0.1151 -0.1676  0.0568
 3182TIP3    H131105   5.716   0.538   7.118  1.1630 -1.3251  0.5423
 3182TIP3    H231106   5.656   0.399   7.118 -0.5468 -0.6081  0.9057
 3183TIP3   OH231107   3.097   3.508   1.211 -0.2816 -0.1399  0.8511
 3183TIP3    H131108   3.045   3.454   1.151 -0.4702  1.6614 -0.7188
 3183TIP3    H231109   3.172   3.453   1.234 -0.4715 -1.1033 -0.6586
 3184TIP3   OH231110   5.145   5.139   2.102 -0.1422 -0.2038  0.1667
 3184TIP3    H131111   5.130   5.205   2.034 -1.9495  0.0717  0.7717
 3184TIP3    H231112   5.071   5.150   2.162  0.6752 -1.3648  1.4304
 3185TIP3   OH231113   5.785   4.494   7.819 -0.3715 -0.2906  0.1994
 3185TIP3    H131114   5.822   4.406   7.812 -0.4331 -0.2633 -0.5227
 3185TIP3    H231115   5.855   4.552   7.788 -0.3933 -0.0999  0.5059
 3186TIP3   OH231116   1.209   2.614   6.926  0.3056 -0.0443  0.0490
 3186TIP3    H131117   1.219   2.535   6.871  0.7458  0.3181 -0.4040
 3186TIP3    H231118   1.260   2.681   6.880  1.6412 -0.0206  1.4870
 3187TIP3   OH231119   5.951   6.631   8.230  0.6963  0.1136  0.6354
 3187TIP3    H131120   6.039   6.599   8.251 -0.4398 -1.3032  3.8277
 3187TIP3    H231121   5.936   6.702   8.292  0.4165  2.0822 -1.5427
 3188TIP3   OH231122   5.412   5.284   8.359 -0.1083 -0.3206 -0.2296
 3188TIP3    H131123   5.417   5.224   8.285 -1.0818  0.2361 -0.7624
 3188TIP3    H231124   5.499   5.278   8.400 -0.1205 -1.9533 -0.3556
 3189TIP3   OH231125   5.538   1.981   6.854 -0.3033 -0.0099  0.2122
 3189TIP3    H131126   5.627   1.982   6.887  0.1722 -0.0738 -1.0264
 3189TIP3    H231127   5.497   2.059   6.891  0.1853 -0.1024  0.9666
 3190TIP3   OH231128   5.876   3.554   7.691  0.5465 -0.6763  0.1442
 3190TIP3    H131129   5.951   3.494   7.690 -0.4523 -1.9790 -1.5451
 3190TIP3    H231130   5.799   3.498   7.699 -0.4395  0.3281 -1.5423
 3191TIP3   OH231131   4.400   5.866   7.575  0.1981 -0.5010  0.9173
 3191TIP3    H131132   4.491   5.848   7.551  0.9041  1.9773  1.5061
 3191TIP3    H231133   4.349   5.821   7.507  1.8346 -1.6676  0.3856
 3192TIP3   OH231134   3.530   3.656   8.199 -0.3126  0.2871  0.7085
 3192TIP3    H131135   3.549   3.607   8.279  0.8134  0.5122  0.5946
 3192TIP3    H231136   3.472   3.726   8.228  1.9941  1.8667  1.8725
 3193TIP3   OH231137   3.582   1.371   8.316 -0.5857  0.5777  0.1410
 3193TIP3    H131138   3.649   1.375   8.384  1.4114  2.3320 -1.7604
 3193TIP3    H231139   3.550   1.281   8.318  2.0553 -0.4248  0.9832
 3194TIP3   OH231140   4.148   2.891   0.433 -0.3065 -0.3627  0.3527
 3194TIP3    H131141   4.219   2.950   0.457 -0.8367  0.1068  0.7872
 3194TIP3    H231142   4.148   2.890   0.338 -0.0295  0.0223  0.3469
 3195TIP3   OH231143   5.917   2.892   7.457  0.2220  0.6640  0.1340
 3195TIP3    H131144   5.980   2.870   7.388  2.6790  0.0257  2.4428
 3195TIP3    H231145   5.835   2.905   7.410  1.9102  1.0468 -2.9981
 3196TIP3   OH231146   6.630   4.427   1.385  0.4536  0.0868  0.1005
 3196TIP3    H131147   6.572   4.502   1.376 -2.3631 -2.0662 -1.4538
 3196TIP3    H231148   6.621   4.399   1.476  0.3873  0.7622  0.3043
 3197TIP3   OH231149   2.943   4.726   1.519  0.4556 -0.3723 -0.0550
 3197TIP3    H131150   2.896   4.682   1.448 -0.3825 -1.4000  1.0865
 3197TIP3    H231151   2.953   4.659   1.586 -0.2830  0.9756  1.4877
 3198TIP3   OH231152   2.190   4.750   1.574  0.3494 -0.0308  0.5986
 3198TIP3    H131153   2.250   4.741   1.648  0.6200 -0.3092  0.3470
 3198TIP3    H231154   2.227   4.821   1.522  0.3974 -0.1271  0.5022
 3199TIP3   OH231155   3.357   5.599   6.744  0.5678  0.3542  0.1745
 3199TIP3    H131156   3.265   5.600   6.769  0.1806 -2.7970 -0.7134
 3199TIP3    H231157   3.397   5.534   6.803  2.0358  0.9968 -0.0650
 3200TIP3   OH231158   6.463   0.828   8.609  0.2408  0.4765  0.0076
 3200TIP3    H131159   6.383   0.816   8.558  0.3452  0.9398 -0.2770
 3200TIP3    H231160   6.534   0.810   8.546  0.3628 -0.6580  0.4475
 3201TIP3   OH231161   2.199   6.056   7.701 -0.6878 -0.0786  0.4456
 3201TIP3    H131162   2.237   5.995   7.638 -0.5183  1.5574 -1.1517
 3201TIP3    H231163   2.235   6.141   7.676 -2.2760  0.9427  1.4336
 3202TIP3   OH231164   6.387   6.341   1.719  0.0637  0.1456 -0.5038
 3202TIP3    H131165   6.325   6.311   1.786  1.0570 -0.5105  0.1566
 3202TIP3    H231166   6.473   6.313   1.752  0.5736 -0.2912 -2.1157
 3203TIP3   OH231167   2.152   5.126   1.662  0.6517 -0.3406  0.5271
 3203TIP3    H131168   2.164   5.160   1.750 -0.7689  1.5346  0.0636
 3203TIP3    H231169   2.057   5.117   1.652  0.6696  0.7803 -1.2116
 3204TIP3   OH231170   3.139   5.723   0.915 -0.1940 -0.1914 -0.0038
 3204TIP3    H131171   3.231   5.710   0.938  0.2188 -1.6485 -2.1834
 3204TIP3    H231172   3.138   5.732   0.820 -2.3639 -0.8538 -0.1145
 3205TIP3   OH231173   2.624   5.754   2.053  1.1145  0.3354  0.3334
 3205TIP3    H131174   2.572   5.699   2.112  2.3543  0.3040  1.4327
 3205TIP3    H231175   2.682   5.803   2.111  3.0991 -0.4382 -0.9041
 3206TIP3   OH231176   6.340   1.278   8.032 -0.1439  0.0739 -0.2117
 3206TIP3    H131177   6.341   1.368   7.998 -0.2487  0.4307  0.7053
 3206TIP3    H231178   6.323   1.224   7.955 -0.2131  0.8483 -0.7567
 3207TIP3   OH231179   0.505   1.041   0.950 -0.2084 -0.1472  0.7968
 3207TIP3    H131180   0.569   1.099   0.990  2.2932 -1.5300 -0.9139
 3207TIP3    H231181   0.515   1.057   0.856 -0.1970 -2.5285  0.3387
 3208TIP3   OH231182   1.828   6.482   1.119 -0.1150 -0.1929  0.4239
 3208TIP3    H131183   1.858   6.533   1.194  1.1776  0.2955 -0.4080
 3208TIP3    H231184   1.789   6.546   1.060  0.5291 -0.3178 -0.1395
 3209TIP3   OH231185   6.395   0.545   1.456 -0.0389  0.1574  0.7762
 3209TIP3    H131186   6.474   0.598   1.448 -0.3515  0.3639 -1.4120
 3209TIP3    H231187   6.322   0.606   1.442 -0.4554 -0.5174 -0.1650
 3210TIP3   OH231188   3.379   5.118   8.020 -0.2726 -0.4775 -0.5676
 3210TIP3    H131189   3.470   5.142   8.003 -0.4379  1.6403  1.0654
 3210TIP3    H231190   3.329   5.170   7.957 -0.3838 -2.1535 -1.9292
 3211TIP3   OH231191   2.416   3.506   2.004  0.3228 -0.5443  0.4357
 3211TIP3    H131192   2.431   3.587   2.053  2.4750 -0.8404  0.3709
 3211TIP3    H231193   2.327   3.480   2.027  0.4803  0.4987  2.4318
 3212TIP3   OH231194   6.291   0.479   8.603  0.1440  0.3322 -0.1488
 3212TIP3    H131195   6.365   0.506   8.658  0.0195  0.0800  0.1467
 3212TIP3    H231196   6.244   0.561   8.586  0.3901  0.4681 -0.1918
 3213TIP3   OH231197   3.837   6.059   0.638  0.1927 -0.0693 -0.2160
 3213TIP3    H131198   3.807   6.087   0.724 -0.8164 -1.2374 -0.1652
 3213TIP3    H231199   3.758   6.054   0.585  0.5181 -1.4268 -0.6069
 3214TIP3   OH231200   0.011   5.147   1.156 -0.2537  0.4464 -0.1190
 3214TIP3    H131201   0.006   5.135   1.061 -0.9440 -0.1090 -0.0256
 3214TIP3    H231202  -0.058   5.090   1.190 -0.9648  1.7045  0.6261
 3215TIP3   OH231203   4.774   2.882   7.579  0.2018  0.1506  0.2965
 3215TIP3    H131204   4.758   2.829   7.657  2.0266 -0.5230  0.2558
 3215TIP3    H231205   4.689   2.887   7.535  0.0218 -3.1458  0.0435
 3216TIP3   OH231206   1.483   5.677   2.166  0.1270  0.2668 -0.0545
 3216TIP3    H131207   1.411   5.731   2.200  0.6612  0.5753  0.6369
 3216TIP3    H231208   1.474   5.594   2.212 -0.7964 -0.3264 -1.2445
 3217TIP3   OH231209   0.100   3.036   2.738  0.5236  0.0840 -0.0253
 3217TIP3    H131210   0.013   3.003   2.761 -0.2856  0.9481 -1.6611
 3217TIP3    H231211   0.109   3.118   2.786 -0.6537  1.2613 -1.6739
 3218TIP3   OH231212   5.389   3.755   7.630 -0.4473  0.3617  0.9137
 3218TIP3    H131213   5.472   3.733   7.588 -0.6593 -1.1208  1.2082
 3218TIP3    H231214   5.322   3.728   7.567 -0.7219  0.6821  1.0661
 3219TIP3   OH231215   4.688   4.093   2.419  0.1469 -0.0548 -0.3808
 3219TIP3    H131216   4.750   4.116   2.488  0.2000 -0.3073 -0.3423
 3219TIP3    H231217   4.723   4.134   2.340  0.8887 -1.0079 -0.5545
 3220TIP3   OH231218   4.482   4.716   1.160 -0.4019  0.0848 -0.3487
 3220TIP3    H131219   4.506   4.665   1.083 -1.4914 -1.2242  0.1303
 3220TIP3    H231220   4.446   4.651   1.221 -0.5103  1.2381  0.8522
 3221TIP3   OH231221   1.250   2.104   7.002  0.0889  0.3624 -0.1734
 3221TIP3    H131222   1.184   2.145   7.059  0.5858  0.0145  0.6729
 3221TIP3    H231223   1.207   2.097   6.917 -1.5277 -1.2083  0.7077
 3222TIP3   OH231224   4.722   5.738   1.140  0.0910 -0.1866  0.1447
 3222TIP3    H131225   4.729   5.819   1.192 -0.1347 -0.2899  0.3359
 3222TIP3    H231226   4.648   5.692   1.178  0.2852 -0.5340  0.1035
 3223TIP3   OH231227   1.651   2.392   2.342  0.1741 -0.3119 -0.3877
 3223TIP3    H131228   1.645   2.402   2.437  0.6137 -0.5633 -0.3306
 3223TIP3    H231229   1.739   2.357   2.327 -0.1308 -0.9058 -0.8347
 3224TIP3   OH231230   0.250   2.266   7.810 -0.0301  0.5708  0.2365
 3224TIP3    H131231   0.170   2.299   7.851 -0.9441 -1.7253  0.4400
 3224TIP3    H231232   0.317   2.275   7.877 -0.4987  0.9519  0.6605
 3225TIP3   OH231233   6.314   2.616   0.298  0.2154  0.0088  0.1041
 3225TIP3    H131234   6.392   2.565   0.280 -0.6528 -0.5230 -2.6778
 3225TIP3    H231235   6.241   2.557   0.276 -0.8423  1.7678 -1.4540
 3226TIP3   OH231236   5.149   2.957   1.709 -0.1951  0.1189  0.0340
 3226TIP3    H131237   5.079   2.907   1.668  1.0018 -0.9410 -0.8060
 3226TIP3    H231238   5.151   3.040   1.662  1.6944 -1.3682 -2.8158
 3227TIP3   OH231239   1.637   5.256   1.366  0.0168  0.8298 -0.0072
 3227TIP3    H131240   1.630   5.204   1.446  0.7793 -0.3036 -0.6474
 3227TIP3    H231241   1.684   5.199   1.304  0.6793  2.1928 -0.8118
 3228TIP3   OH231242   0.623   4.081   1.216 -0.3534  0.4566 -0.3923
 3228TIP3    H131243   0.563   4.143   1.257  0.2924  0.3085  0.8097
 3228TIP3    H231244   0.710   4.112   1.241 -0.0314 -1.6066  1.2777
 3229TIP3   OH231245   0.963   6.196   7.824  0.5670 -0.1118  0.2681
 3229TIP3    H131246   0.960   6.244   7.907  0.1527 -1.4506  1.0578
 3229TIP3    H231247   1.057   6.187   7.806  0.6484  1.0964  0.0299
 3230TIP3   OH231248   1.564   3.954   1.316 -0.4171 -0.3429  0.1695
 3230TIP3    H131249   1.564   3.980   1.224 -2.7482 -1.6134 -0.2684
 3230TIP3    H231250   1.644   3.993   1.352  0.0757  0.9774 -2.1449
 3231TIP3   OH231251   3.361   1.601   1.438  0.0085 -0.6115  0.1381
 3231TIP3    H131252   3.322   1.546   1.370  1.3522 -0.7768 -0.5365
 3231TIP3    H231253   3.432   1.647   1.393  1.3198 -1.1879  1.5591
 3232TIP3   OH231254   3.119   1.927   7.413 -0.5147 -0.2625  0.4436
 3232TIP3    H131255   3.087   1.872   7.484 -1.1349  0.1848  0.5169
 3232TIP3    H231256   3.040   1.953   7.365 -0.2652  0.7786  0.5765
 3233TIP3   OH231257   5.970   2.414   0.019 -0.0279 -0.4859 -0.2639
 3233TIP3    H131258   6.003   2.326   0.041 -0.9077 -1.0899 -1.3093
 3233TIP3    H231259   5.879   2.414   0.048  0.0817  0.2484  0.1178
 3234TIP3   OH231260   4.535   5.470   1.016 -0.5446 -0.2321  0.5039
 3234TIP3    H131261   4.630   5.469   1.008 -0.6264 -1.8787 -0.8390
 3234TIP3    H231262   4.519   5.445   1.108  0.3188 -0.7889  0.5200
 3235TIP3   OH231263   4.508   6.057   7.777 -0.0667 -0.4264 -0.0457
 3235TIP3    H131264   4.449   6.017   7.714  0.1865  0.1029 -0.6359
 3235TIP3    H231265   4.584   6.083   7.725 -1.1614  2.9580 -0.1965
 3236TIP3   OH231266   1.613   5.519   7.195 -0.3741  0.1855  0.3329
 3236TIP3    H131267   1.702   5.494   7.173 -0.9238 -2.8214  1.1131
 3236TIP3    H231268   1.559   5.482   7.125 -1.0532  2.3942 -0.4019
 3237TIP3   OH231269   1.682   2.653   2.055  0.1598  0.0869 -0.1693
 3237TIP3    H131270   1.776   2.636   2.063  0.5180  0.4780 -2.7457
 3237TIP3    H231271   1.643   2.566   2.048  0.3832 -0.0516  0.2138
 3238TIP3   OH231272   0.388   1.770   7.787 -0.2431  0.3747 -0.5674
 3238TIP3    H131273   0.319   1.816   7.835 -0.8579 -1.4070  0.3475
 3238TIP3    H231274   0.462   1.831   7.788 -0.1181  0.3971  2.9187
 3239TIP3   OH231275   2.898   2.453   2.533 -0.1572 -0.5290 -0.5933
 3239TIP3    H131276   2.856   2.369   2.546 -1.5424 -0.2789 -2.8357
 3239TIP3    H231277   2.841   2.499   2.471  0.3248  2.2368  0.8375
 3240TIP3   OH231278   4.697   3.661   8.426 -0.0864 -0.2926  0.0701
 3240TIP3    H131279   4.663   3.750   8.434  0.9115  0.4335 -2.5594
 3240TIP3    H231280   4.790   3.669   8.446  0.4346 -0.2601 -2.0921
 3241TIP3   OH231281   6.349   5.504   7.908  0.3695 -0.1597 -0.1455
 3241TIP3    H131282   6.424   5.545   7.864 -1.2209  2.0267 -0.9786
 3241TIP3    H231283   6.383   5.479   7.994  1.4559  3.3133  0.6052
 3242TIP3   OH231284   0.623   2.614   7.100 -0.1789 -0.0468 -0.7381
 3242TIP3    H131285   0.710   2.655   7.100 -0.0764 -0.2469  0.0088
 3242TIP3    H231286   0.562   2.687   7.104  0.0191  0.0686  1.7324
 3243TIP3   OH231287   3.005   3.727   1.417  0.5343 -0.2311 -0.5145
 3243TIP3    H131288   2.992   3.667   1.344 -0.4576 -0.1375 -0.4315
 3243TIP3    H231289   3.000   3.814   1.378  0.8204 -0.1923 -0.4624
 3244TIP3   OH231290   1.614   4.681   8.178  0.1822  0.0599 -0.2343
 3244TIP3    H131291   1.555   4.640   8.115 -0.9499 -0.3494  1.0355
 3244TIP3    H231292   1.568   4.760   8.206 -1.0491 -1.4978  2.5963
 3245TIP3   OH231293   3.567   6.599   8.129  0.3960 -0.1854  0.5938
 3245TIP3    H131294   3.473   6.588   8.141  0.3225 -0.2643 -0.0156
 3245TIP3    H231295   3.580   6.594   8.035  0.8970  0.7834  0.5967
 3246TIP3   OH231296   3.642   0.189   1.303 -0.1407  0.5879 -0.0533
 3246TIP3    H131297   3.609   0.129   1.369  0.2808  0.9050  0.4456
 3246TIP3    H231298   3.622   0.146   1.220  0.5261 -0.4238  0.3003
 3247TIP3   OH231299   0.462   4.878   1.767 -0.8448 -0.0020  0.6086
 3247TIP3    H131300   0.464   4.794   1.813  0.8961 -0.5059 -0.2876
 3247TIP3    H231301   0.519   4.935   1.820  1.5399 -0.7143 -1.0076
 3248TIP3   OH231302   1.075   0.815   7.499 -0.5078 -0.0127 -0.1361
 3248TIP3    H131303   1.111   0.791   7.585 -0.7893  0.4208  0.1092
 3248TIP3    H231304   1.143   0.871   7.461  0.6041 -1.9267 -1.1330
 3249TIP3   OH231305   5.414   3.902   8.190 -0.0477  0.6558 -0.0237
 3249TIP3    H131306   5.392   3.841   8.261  1.4881 -0.2945 -0.3400
 3249TIP3    H231307   5.435   3.846   8.116  1.0827  1.5796 -0.4154
 3250TIP3   OH231308   6.062   5.272   1.246  0.4868 -0.4523  0.3079
 3250TIP3    H131309   6.121   5.199   1.265 -0.6295 -1.4562  0.0348
 3250TIP3    H231310   5.977   5.244   1.280 -0.1712  0.3071 -0.6502
 3251TIP3   OH231311   5.720   3.691   2.012  1.0399  0.0538 -0.1745
 3251TIP3    H131312   5.774   3.628   2.058 -0.7468 -0.7098  1.0044
 3251TIP3    H231313   5.700   3.758   2.078 -1.4866 -1.0110  0.2906
 3252TIP3   OH231314   4.869   1.085   2.081  0.3419  0.0294  0.1179
 3252TIP3    H131315   4.853   1.157   2.141 -1.1340 -0.2773  0.1383
 3252TIP3    H231316   4.832   1.008   2.125  1.5326 -0.6867 -0.0748
 3253TIP3   OH231317   5.055   5.586   8.693  0.6541 -0.1662  0.2252
 3253TIP3    H131318   5.012   5.626   8.617 -1.0540 -0.1243  1.1573
 3253TIP3    H231319   5.130   5.539   8.656  0.5191  0.7719 -1.3366
 3254TIP3   OH231320   6.520   1.285   7.793 -0.6695  0.4934  0.6573
 3254TIP3    H131321   6.585   1.296   7.863  1.3499  2.7818 -1.3948
 3254TIP3    H231322   6.522   1.191   7.774  0.7995  0.2489  1.7771
 3255TIP3   OH231323   0.303   1.094   0.099  0.0847 -0.4530  0.4268
 3255TIP3    H131324   0.224   1.065   0.145  0.4433 -2.8606 -0.3186
 3255TIP3    H231325   0.291   1.062   0.009  1.6948 -0.4239  0.1812
 3256TIP3   OH231326   5.892   0.299   7.435  0.3109  0.2740 -0.6531
 3256TIP3    H131327   5.961   0.341   7.486  0.7127 -0.0032 -0.9573
 3256TIP3    H231328   5.925   0.210   7.419 -0.1273  0.1308 -0.7774
 3257TIP3   OH231329   3.600   1.891   7.658 -0.3841  0.6014  0.3366
 3257TIP3    H131330   3.645   1.823   7.709  0.4597  0.4354 -0.5977
 3257TIP3    H231331   3.578   1.848   7.575 -1.1600  1.0540  0.3072
 3258TIP3   OH231332   6.174   0.798   7.624 -1.1161 -0.0394 -0.3921
 3258TIP3    H131333   6.233   0.724   7.636 -1.3283 -0.1445  0.0464
 3258TIP3    H231334   6.216   0.852   7.557 -1.1032 -0.7001 -0.9190
 3259TIP3   OH231335   5.646   1.626   7.264  0.0989  0.2131 -0.3624
 3259TIP3    H131336   5.740   1.639   7.275 -0.0593  1.4964 -0.3857
 3259TIP3    H231337   5.624   1.677   7.186 -1.0812  2.3376  1.2468
 3260TIP3   OH231338   4.321   0.723   2.170  0.5560 -0.3748 -0.1305
 3260TIP3    H131339   4.408   0.690   2.194 -0.6943 -2.6480  1.6465
 3260TIP3    H231340   4.260   0.656   2.201 -1.7493 -0.1599 -3.5946
 3261TIP3   OH231341   3.870   1.005   1.467  0.1558  0.4275  0.7106
 3261TIP3    H131342   3.829   0.933   1.420  0.8251 -0.0156  0.7896
 3261TIP3    H231343   3.964   0.989   1.459  0.3448  1.6651  0.1488
 3262TIP3   OH231344   2.566   6.060   7.499 -1.1738  0.3203 -0.0273
 3262TIP3    H131345   2.590   6.135   7.445 -2.8504 -1.5403 -3.7761
 3262TIP3    H231346   2.649   6.016   7.517 -0.4866  1.3669 -0.5244
 3263TIP3   OH231347   0.834   5.935   1.849 -0.0557  0.1993  0.3574
 3263TIP3    H131348   0.918   5.894   1.829  0.1175  0.2256  0.9978
 3263TIP3    H231349   0.824   5.923   1.943 -1.6534 -1.4517  0.0121
 3264TIP3   OH231350   3.303   2.088   8.158 -0.2850 -0.1880 -0.1918
 3264TIP3    H131351   3.275   2.091   8.249  0.4977  0.3736  0.0505
 3264TIP3    H231352   3.375   2.025   8.157  0.9889  1.1880 -0.0057
 3265TIP3   OH231353   4.068   5.162   0.552  0.8012  0.4981  0.4112
 3265TIP3    H131354   4.079   5.067   0.555  1.9802  0.6418  1.3559
 3265TIP3    H231355   4.148   5.197   0.591 -0.1209  1.8447  1.1986
 3266TIP3   OH231356   0.699   3.048   7.712 -0.4581  0.6181  0.0925
 3266TIP3    H131357   0.763   3.056   7.783 -0.4773  1.1125  0.0574
 3266TIP3    H231358   0.716   3.123   7.656 -1.5403  1.1452  0.4575
 3267TIP3   OH231359   6.408   5.922   1.784  0.2571  0.4011 -0.5016
 3267TIP3    H131360   6.407   5.827   1.791 -1.1654  0.4885  1.1145
 3267TIP3    H231361   6.488   5.949   1.830  1.0570  0.0053 -1.5923
 3268TIP3   OH231362   1.542   0.709   6.622 -0.1647  0.4900 -0.0363
 3268TIP3    H131363   1.480   0.764   6.573  0.1774  0.9963  0.0899
 3268TIP3    H231364   1.486   0.652   6.675 -0.5473  2.1583  1.4290
 3269TIP3   OH231365   0.044   1.403   7.805 -0.0178  0.1155  0.3019
 3269TIP3    H131366   0.132   1.425   7.835  0.9317 -2.0709 -0.6065
 3269TIP3    H231367   0.016   1.478   7.753  1.9852  0.2603 -0.6768
 3270TIP3   OH231368   0.252   0.478   7.076  0.4278  0.0742  0.3797
 3270TIP3    H131369   0.178   0.419   7.089  0.6533  0.0485  1.5953
 3270TIP3    H231370   0.328   0.420   7.070  0.5037  0.1750  0.3584
 3271TIP3   OH231371   6.530   5.354   8.097 -0.5437 -0.1840 -0.0685
 3271TIP3    H131372   6.600   5.419   8.096 -1.4484  0.8191 -0.1091
 3271TIP3    H231373   6.496   5.356   8.186  0.0849 -1.3646  0.2208
 3272TIP3   OH231374   5.684   6.008   7.458  0.2195  0.2220 -0.0608
 3272TIP3    H131375   5.647   5.980   7.375 -2.4854  0.3385  1.0273
 3272TIP3    H231376   5.643   5.952   7.524  0.1693  1.9284  1.4498
 3273TIP3   OH231377   6.739   1.035   7.506 -0.5852 -0.0936 -0.7121
 3273TIP3    H131378   6.811   1.098   7.494  0.5347 -0.9929  0.9845
 3273TIP3    H231379   6.775   0.951   7.478 -1.3283 -0.3827 -0.8282
 3274TIP3   OH231380   3.074   0.054   8.424 -0.0516 -0.3887  0.2406
 3274TIP3    H131381   3.142   0.055   8.358 -2.2411 -0.4339 -2.1869
 3274TIP3    H231382   3.066   0.145   8.452 -1.8787  0.5432 -2.8117
 3275TIP3   OH231383   3.869   2.981   0.161 -0.2575  0.0752 -0.6419
 3275TIP3    H131384   3.811   2.979   0.237 -0.3829 -0.8453 -0.7442
 3275TIP3    H231385   3.811   2.962   0.087  0.2514 -1.4141 -0.6820
 3276TIP3   OH231386   6.097   0.804   6.968  0.6508 -0.4536 -0.2452
 3276TIP3    H131387   6.048   0.887   6.966  0.4931 -0.5402  0.1235
 3276TIP3    H231388   6.170   0.819   6.908  1.0104  0.1975  0.3449
 3277TIP3   OH231389   6.252   3.596   0.815 -0.3512 -0.3797  0.0028
 3277TIP3    H131390   6.230   3.683   0.845  0.5080  0.0559 -0.5778
 3277TIP3    H231391   6.342   3.604   0.783  0.7510 -2.0617  2.3662
 3278TIP3   OH231392   4.886   2.471   0.336 -0.0698 -0.2844  0.0889
 3278TIP3    H131393   4.841   2.555   0.350 -1.3891 -0.7433 -1.1124
 3278TIP3    H231394   4.882   2.427   0.421 -0.6438  0.2938  0.3690
 3279TIP3   OH231395   5.358   4.047   7.246 -0.0538  0.9874  0.2476
 3279TIP3    H131396   5.315   3.966   7.218  0.0916  0.3565  1.7376
 3279TIP3    H231397   5.375   4.094   7.165 -0.8402 -0.1236 -0.5987
 3280TIP3   OH231398   3.314   6.016   8.628  0.0870  0.4522 -0.1752
 3280TIP3    H131399   3.246   6.082   8.645 -0.3213 -0.1000  0.3665
 3280TIP3    H231400   3.274   5.933   8.653  1.2408  0.2011  0.9382
 3281TIP3   OH231401   2.914   2.967   0.655 -0.1174 -0.2363 -0.1831
 3281TIP3    H131402   2.970   3.037   0.686 -0.2382 -0.4118  0.4486
 3281TIP3    H231403   2.848   2.956   0.724  0.2125 -1.3199 -0.0074
 3282TIP3   OH231404   4.267   3.159   1.884  0.0932 -0.5093 -0.4022
 3282TIP3    H131405   4.203   3.138   1.816  0.8583 -1.1892 -0.9236
 3282TIP3    H231406   4.344   3.190   1.837 -0.0593  0.9492  0.2498
 3283TIP3   OH231407   4.312   3.465   6.774 -0.1429 -0.2455  0.3229
 3283TIP3    H131408   4.244   3.528   6.795 -1.2187 -0.3307 -2.5003
 3283TIP3    H231409   4.270   3.402   6.717  2.4892  0.3644 -2.5775
 3284TIP3   OH231410   2.130   2.100   2.588 -0.3311 -0.4500  0.4053
 3284TIP3    H131411   2.104   2.192   2.577 -0.7488 -0.5531  0.5462
 3284TIP3    H231412   2.050   2.050   2.576  0.3795 -1.0457 -2.7404
 3285TIP3   OH231413   4.886   2.401   1.959  0.2430  0.4340  0.3491
 3285TIP3    H131414   4.860   2.352   2.037 -0.0910  0.0271 -0.0089
 3285TIP3    H231415   4.857   2.490   1.977  1.4919  0.6764  1.3057
 3286TIP3   OH231416   3.099   4.125   1.852 -0.6817 -0.2247  0.0325
 3286TIP3    H131417   3.096   4.128   1.948 -1.9595 -1.0032  0.0266
 3286TIP3    H231418   3.019   4.170   1.824 -1.0376 -1.2665 -0.6474
 3287TIP3   OH231419   2.490   2.326   7.041 -0.0738  0.3904 -0.4656
 3287TIP3    H131420   2.545   2.248   7.042 -1.0862 -0.3512 -0.9449
 3287TIP3    H231421   2.503   2.364   6.954 -1.3451 -0.5635 -1.1023
 3288TIP3   OH231422   2.859   1.741   0.067  1.1344  0.1426  0.3130
 3288TIP3    H131423   2.928   1.807   0.080 -0.0939  1.9714 -1.7605
 3288TIP3    H231424   2.861   1.723  -0.027  0.3622 -1.6225  0.6046
 3289TIP3   OH231425   4.526   3.475   1.565 -0.1263  0.3915 -0.3786
 3289TIP3    H131426   4.575   3.493   1.645 -1.6493 -0.0372  0.6953
 3289TIP3    H231427   4.494   3.560   1.537 -0.5509  0.4049  0.1283
 3290TIP3   OH231428   6.417   1.490   1.332  0.3287  0.4865  0.4231
 3290TIP3    H131429   6.331   1.530   1.343  0.3307  0.8800 -0.8558
 3290TIP3    H231430   6.471   1.528   1.401 -0.3041  0.8539  0.7188
 3291TIP3   OH231431   2.062   0.994   8.418 -0.0487  0.6069 -0.2591
 3291TIP3    H131432   2.118   1.020   8.345 -0.9830  0.8904 -0.8908
 3291TIP3    H231433   1.984   0.957   8.377 -0.7790  1.1693  0.5867
 3292TIP3   OH231434   3.639   4.907   7.593  0.0396 -0.2247 -0.1438
 3292TIP3    H131435   3.558   4.949   7.619  0.7980  1.2691 -0.0840
 3292TIP3    H231436   3.647   4.926   7.500  2.1502  3.0346  0.5468
 3293TIP3   OH231437   3.677   6.169   8.083 -0.1271 -0.2361  0.5870
 3293TIP3    H131438   3.706   6.170   8.174 -0.2969 -0.0940  0.6398
 3293TIP3    H231439   3.720   6.244   8.042  0.1875 -0.4739  0.4743
 3294TIP3   OH231440   6.214   1.638   8.556  0.3191 -0.2376 -0.1275
 3294TIP3    H131441   6.178   1.668   8.639  0.7246  0.3140 -0.1465
 3294TIP3    H231442   6.214   1.715   8.500 -0.1106 -0.6460 -0.7013
 3295TIP3   OH231443   0.634   2.404   7.692  0.3241  0.0045 -0.7764
 3295TIP3    H131444   0.605   2.463   7.761  1.3510 -0.1901 -0.1562
 3295TIP3    H231445   0.714   2.443   7.659  0.1077 -0.1672 -1.5214
 3296TIP3   OH231446   6.233   4.478   1.182  0.0941  0.0817  0.2569
 3296TIP3    H131447   6.297   4.412   1.208 -0.3186 -0.5664 -0.3274
 3296TIP3    H231448   6.194   4.508   1.264 -1.0028 -1.7271  0.4426
 3297TIP3   OH231449   1.711   2.894   8.223 -0.7495  0.0480  0.1900
 3297TIP3    H131450   1.757   2.823   8.268 -0.5489  0.9418  1.4412
 3297TIP3    H231451   1.650   2.849   8.164 -0.5177 -1.1641  0.8361
 3298TIP3   OH231452   2.241   3.419   8.651  0.1995 -0.3233 -0.2405
 3298TIP3    H131453   2.228   3.348   8.588  0.2210  0.4387 -1.1041
 3298TIP3    H231454   2.217   3.498   8.605 -0.4317  0.1884  0.9282
 3299TIP3   OH231455   6.367   4.463   7.967 -0.1031  0.0165 -0.1979
 3299TIP3    H131456   6.397   4.491   8.054  0.0983  0.7022 -0.4777
 3299TIP3    H231457   6.276   4.492   7.963  0.7067  2.7973 -1.3291
 3300TIP3   OH231458   4.662   5.513   2.047 -0.2321  0.4902  0.0341
 3300TIP3    H131459   4.582   5.559   2.069  0.7302  0.7962  3.4103
 3300TIP3    H231460   4.686   5.466   2.127  2.3796 -0.4569 -1.1871
 3301TIP3   OH231461   4.151   3.870   0.147 -0.4038 -0.5541 -0.0604
 3301TIP3    H131462   4.146   3.786   0.102 -0.7142 -0.9065  0.6309
 3301TIP3    H231463   4.174   3.849   0.237  0.7907  0.1895 -0.1725
 3302TIP3   OH231464   0.219   6.169   1.827 -0.5386 -0.3202 -0.3039
 3302TIP3    H131465   0.154   6.234   1.855 -0.8189 -1.2846  1.4175
 3302TIP3    H231466   0.167   6.094   1.797 -0.3039 -1.4611  1.9463
 3303TIP3   OH231467   0.697   3.324   0.400 -0.1558 -0.4505  0.3344
 3303TIP3    H131468   0.720   3.299   0.489 -2.8034  0.4635  1.3810
 3303TIP3    H231469   0.768   3.381   0.372  1.5155 -2.0094  1.2057
 3304TIP3   OH231470   6.565   3.835   1.290 -0.2238  0.6104 -0.3330
 3304TIP3    H131471   6.560   3.759   1.348  2.4318  0.5068 -0.1051
 3304TIP3    H231472   6.604   3.903   1.344  2.1295  0.5827 -1.8259
 3305TIP3   OH231473   0.698   2.673   1.544 -0.2024  0.6141 -0.2140
 3305TIP3    H131474   0.755   2.637   1.476 -2.2024 -1.8480 -0.7441
 3305TIP3    H231475   0.645   2.598   1.574  0.0088  1.7360  3.5354
 3306TIP3   OH231476   2.769   2.138   1.544  1.0737 -0.3208 -0.4475
 3306TIP3    H131477   2.735   2.171   1.627  2.2018 -0.7540  0.2089
 3306TIP3    H231478   2.841   2.197   1.523  0.9978 -0.4086 -0.9638
 3307TIP3   OH231479   1.155   4.472   7.745 -0.7168 -0.2927 -0.1611
 3307TIP3    H131480   1.071   4.490   7.703 -0.4185  0.4313 -0.4726
 3307TIP3    H231481   1.179   4.384   7.715 -1.2909 -0.4466 -0.1828
 3308TIP3   OH231482   2.562   5.588   8.408  0.2950 -0.2490  0.3403
 3308TIP3    H131483   2.500   5.660   8.418  0.5694 -0.1605  1.4942
 3308TIP3    H231484   2.616   5.592   8.486  1.7565 -0.3467 -0.6332
 3309TIP3   OH231485   6.004   3.604   7.037  0.0346 -0.0137  0.1895
 3309TIP3    H131486   6.035   3.625   6.949  0.4227 -0.6588  0.1622
 3309TIP3    H231487   6.069   3.542   7.071 -2.5574 -3.7777 -0.9730
 3310TIP3   OH231488   4.871   6.055   8.328 -0.0270  0.5018 -0.1600
 3310TIP3    H131489   4.938   6.004   8.374  2.5566  2.8627 -1.0047
 3310TIP3    H231490   4.876   6.025   8.237 -0.4223  0.4141 -0.1543
 3311TIP3   OH231491   5.597   6.202   1.430  0.8485  0.4079  0.1644
 3311TIP3    H131492   5.542   6.171   1.358  0.9028 -0.4444  0.4801
 3311TIP3    H231493   5.673   6.241   1.387  2.0844 -2.2704 -0.2861
 3312TIP3   OH231494   4.841   1.012   1.565  0.1294  0.4646 -0.1490
 3312TIP3    H131495   4.779   1.017   1.638  0.2288 -0.6845  0.0344
 3312TIP3    H231496   4.794   0.963   1.498  0.5679  0.2356 -0.2937
 3313TIP3   OH231497   0.027   2.414   6.756  0.6658 -0.4646  0.3682
 3313TIP3    H131498   0.015   2.506   6.781  1.9016  0.0910 -0.8701
 3313TIP3    H231499  -0.006   2.410   6.666  0.6853 -1.2145  0.3943
 3314TIP3   OH231500   0.279   4.483   6.608  0.0577 -0.1862 -0.2392
 3314TIP3    H131501   0.373   4.479   6.593 -0.0243  0.3880 -0.9706
 3314TIP3    H231502   0.240   4.481   6.521 -0.5809  0.2030  0.0261
 3315TIP3   OH231503   5.712   0.817   0.650 -0.4304  0.9393 -0.3514
 3315TIP3    H131504   5.704   0.722   0.640  0.2583  0.6344  1.5028
 3315TIP3    H231505   5.624   0.846   0.675 -0.2105  0.4498  1.1014
 3316TIP3   OH231506   1.110   0.035   7.053  0.3380 -0.0634 -0.3462
 3316TIP3    H131507   1.097  -0.047   7.006 -0.0929 -0.8183  1.0177
 3316TIP3    H231508   1.174   0.013   7.121 -0.6567  0.3854  0.7847
 3317TIP3   OH231509   5.168   3.349   2.104  0.1834  0.2913  0.1534
 3317TIP3    H131510   5.218   3.268   2.115  0.8712  0.6252 -0.4084
 3317TIP3    H231511   5.092   3.338   2.161 -0.5267 -1.3932 -1.0020
 3318TIP3   OH231512   4.400   4.991   7.843 -0.1263  0.4603 -0.0823
 3318TIP3    H131513   4.400   5.066   7.783  0.0010 -0.0326 -0.7062
 3318TIP3    H231514   4.402   4.915   7.786  0.5717 -0.0119  0.5527
 3319TIP3   OH231515   5.024   6.555   8.140 -0.4978  0.3663  0.4324
 3319TIP3    H131516   4.983   6.516   8.063 -1.6802 -0.3123  1.3626
 3319TIP3    H231517   5.047   6.480   8.195  1.9188  0.7324  0.0216
 3320TIP3   OH231518   0.203   5.687   8.079 -0.1659  0.2574  0.3250
 3320TIP3    H131519   0.165   5.769   8.047 -0.5505  0.0852  0.3207
 3320TIP3    H231520   0.290   5.684   8.041  0.0522  0.9195  0.7658
 3321TIP3   OH231521   0.206   3.176   7.219  0.2039  0.4669  0.0101
 3321TIP3    H131522   0.146   3.241   7.255 -0.6472 -0.8538  1.0699
 3321TIP3    H231523   0.177   3.093   7.257 -0.2046 -0.9310 -3.0312
 3322TIP3   OH231524   3.321   5.429   0.457  0.0525 -0.5217  0.6943
 3322TIP3    H131525   3.378   5.377   0.400  0.1789 -0.7254  1.0032
 3322TIP3    H231526   3.268   5.480   0.397 -1.8099 -2.7992  0.2583
 3323TIP3   OH231527   6.172   0.389   0.305 -0.1578  0.5605  0.1265
 3323TIP3    H131528   6.211   0.338   0.234  0.1222 -0.8007  1.2184
 3323TIP3    H231529   6.079   0.393   0.283 -0.0965  0.0521 -0.2624
 3324TIP3   OH231530   4.062   4.930   7.184 -0.1558  0.5496 -0.0887
 3324TIP3    H131531   4.097   5.010   7.225 -1.5306  0.6153  1.0381
 3324TIP3    H231532   3.968   4.946   7.177 -0.4763 -1.0013  0.2494
 3325TIP3   OH231533   3.876   1.933   1.516  0.2028 -0.7913 -0.6849
 3325TIP3    H131534   3.960   1.961   1.553 -0.8594 -0.9407  2.0786
 3325TIP3    H231535   3.866   1.986   1.437  1.7738  1.0894  0.2806
 3326TIP3   OH231536   0.298   3.646   7.353 -0.9034  0.1667  0.0302
 3326TIP3    H131537   0.228   3.673   7.294  0.7195  1.7687 -1.2764
 3326TIP3    H231538   0.354   3.723   7.360  2.1525 -1.8013 -1.0964
 3327TIP3   OH231539   5.267   3.256   7.689 -0.0037 -0.9310  0.2110
 3327TIP3    H131540   5.312   3.253   7.604 -0.5115 -0.7893 -0.0676
 3327TIP3    H231541   5.253   3.350   7.705  2.2733 -0.7628  1.6365
 3328TIP3   OH231542   1.352   1.655   8.266 -0.0486 -0.0681  0.3785
 3328TIP3    H131543   1.399   1.604   8.331 -0.8572 -0.2736  0.8229
 3328TIP3    H231544   1.360   1.746   8.295 -0.0168 -0.1129  0.5089
 3329TIP3   OH231545   1.983   5.204   2.448 -0.1431  0.0377  0.7579
 3329TIP3    H131546   2.062   5.152   2.432 -0.0700  0.5252 -0.5610
 3329TIP3    H231547   1.952   5.174   2.534  0.6628 -1.1816  0.6493
 3330TIP3   OH231548   6.592   5.988   7.433 -0.5997 -0.6662  0.3120
 3330TIP3    H131549   6.607   6.082   7.422 -0.6182 -0.6612  0.3291
 3330TIP3    H231550   6.534   5.964   7.361  1.1929 -1.1023 -1.0565
 3331TIP3   OH231551   4.372   3.483   7.689  0.0996 -0.0405 -0.2579
 3331TIP3    H131552   4.382   3.536   7.768  0.5911 -0.9576  0.3095
 3331TIP3    H231553   4.440   3.416   7.696 -0.6563 -0.8991 -0.8209
 3332TIP3   OH231554   0.072   5.172   7.922 -0.2094 -0.7214  0.3465
 3332TIP3    H131555   0.105   5.113   7.855 -0.8222  1.7204 -2.3031
 3332TIP3    H231556   0.150   5.199   7.971  0.4047 -1.7180 -0.0458
 3333TIP3   OH231557   6.605   0.714   1.401 -0.0492  0.7415 -0.4062
 3333TIP3    H131558   6.694   0.739   1.378  0.1922  0.4495  0.2127
 3333TIP3    H231559   6.555   0.796   1.395  0.2931  0.9389 -0.5618
 3334TIP3   OH231560   0.106   1.522   0.855  0.2984 -0.1751  0.3258
 3334TIP3    H131561   0.054   1.444   0.836  1.3459 -0.6242 -0.8256
 3334TIP3    H231562   0.151   1.501   0.937  1.2876 -1.1822 -0.4529
 3335TIP3   OH231563   3.020   3.148   1.783  0.5024  0.3520 -0.0806
 3335TIP3    H131564   3.049   3.111   1.866  0.3669 -0.6888 -0.4841
 3335TIP3    H231565   2.959   3.083   1.748  1.5915  0.1385 -1.6287
 3336TIP3   OH231566   1.718   3.325   1.728 -0.3158 -0.5799 -0.4745
 3336TIP3    H131567   1.752   3.301   1.814 -0.7900  0.5492  0.0455
 3336TIP3    H231568   1.628   3.292   1.728 -0.7271  0.4977 -0.0397
 3337TIP3   OH231569   6.284   3.172   0.689 -0.0541 -0.0594 -0.0687
 3337TIP3    H131570   6.305   3.088   0.649  1.8677  0.0260  0.6620
 3337TIP3    H231571   6.221   3.150   0.758 -0.7568 -0.6658 -0.8852
 3338TIP3   OH231572   3.489   1.737   7.462 -0.6890  0.1034  0.0513
 3338TIP3    H131573   3.531   1.657   7.429  0.2323  0.5547  0.1012
 3338TIP3    H231574   3.401   1.708   7.488 -0.2163 -0.9971  0.5118
 3339TIP3   OH231575   1.118   1.632   2.555 -0.1235  0.1482 -0.6875
 3339TIP3    H131576   1.176   1.588   2.618 -1.1353  0.8147  0.7768
 3339TIP3    H231577   1.043   1.659   2.608 -0.9142  0.9341 -2.1687
 3340TIP3   OH231578   0.487   0.325   7.959  0.3009  0.1687 -0.4501
 3340TIP3    H131579   0.569   0.349   7.917  1.1454  0.6697  1.3870
 3340TIP3    H231580   0.432   0.403   7.952  0.4345  0.2464 -0.6316
 3341TIP3   OH231581   4.276   1.703   7.914  0.0509 -0.0641  0.1193
 3341TIP3    H131582   4.372   1.709   7.921  0.0066  0.9503  0.0113
 3341TIP3    H231583   4.255   1.743   7.830 -0.5516  0.8035  0.6639
 3342TIP3   OH231584   1.748   3.755   1.799  0.2505 -0.0691  0.0449
 3342TIP3    H131585   1.806   3.701   1.853 -0.5534  0.8272  1.9103
 3342TIP3    H231586   1.807   3.811   1.749  1.0455 -1.5501 -0.7705
 3343TIP3   OH231587   2.160   4.111   7.310 -0.0696 -0.0400 -0.4323
 3343TIP3    H131588   2.157   4.048   7.237 -0.3640  2.0053 -2.3070
 3343TIP3    H231589   2.251   4.138   7.315 -0.2430  0.6290 -0.7954
 3344TIP3   OH231590   1.805   5.365   8.338  0.0135  0.3005 -0.0333
 3344TIP3    H131591   1.774   5.285   8.380  0.5666 -0.2727 -0.6860
 3344TIP3    H231592   1.726   5.419   8.328 -0.4654 -0.3930 -0.0759
 3345TIP3   OH231593   4.267   4.477   0.115 -0.2394 -0.0998  0.6477
 3345TIP3    H131594   4.205   4.413   0.149 -0.4046  0.1393  0.8000
 3345TIP3    H231595   4.309   4.434   0.041 -0.1287 -0.4993  0.9378
 3346TIP3   OH231596   0.134   3.569   0.190 -0.1012 -0.0921 -0.6110
 3346TIP3    H131597   0.085   3.651   0.180 -0.1277 -0.2448 -2.0299
 3346TIP3    H231598   0.226   3.595   0.193 -0.2008  0.1413  1.3163
 3347TIP3   OH231599   4.766   3.739   1.352  0.3863  0.1144  0.0153
 3347TIP3    H131600   4.750   3.736   1.257  1.3977 -2.6591 -0.1363
 3347TIP3    H231601   4.681   3.721   1.391  0.3504 -0.7484 -0.4388
 3348TIP3   OH231602   0.127   1.623   8.412 -0.2668 -0.5102  0.5220
 3348TIP3    H131603   0.204   1.659   8.456 -0.8668  0.4655  0.8244
 3348TIP3    H231604   0.061   1.692   8.421 -0.9913 -1.0895 -0.2426
 3349TIP3   OH231605   1.698   3.126   6.785  0.3622  0.5644  0.0923
 3349TIP3    H131606   1.703   3.211   6.829 -1.6141  0.1436  1.2447
 3349TIP3    H231607   1.608   3.097   6.799 -0.1589 -0.0542 -3.4775
 3350TIP3   OH231608   0.502   6.364   6.984  0.0387 -0.1997  0.5281
 3350TIP3    H131609   0.516   6.270   6.979 -0.7809 -0.2760 -0.6024
 3350TIP3    H231610   0.412   6.374   7.017 -0.2177  0.1664 -0.2586
 3351TIP3   OH231611   4.059   0.300   8.653  0.1918  0.6013  0.6042
 3351TIP3    H131612   3.982   0.282   8.599 -0.0462  0.1801  1.0739
 3351TIP3    H231613   4.023   0.337   8.734  0.4743  0.3206  0.8611
 3352TIP3   OH231614   4.393   3.290   1.374 -0.3444  0.2568  0.0967
 3352TIP3    H131615   4.389   3.340   1.293 -1.1412  2.7387  1.5462
 3352TIP3    H231616   4.450   3.342   1.431  1.1114 -2.0025  0.7905
 3353TIP3   OH231617   6.846   6.553   2.489  0.1505  0.3395 -0.0180
 3353TIP3    H131618   6.822   6.543   2.397  0.5143 -1.7480  0.0567
 3353TIP3    H231619   6.811   6.638   2.514 -0.3917  0.7359 -1.9426
 3354TIP3   OH231620   0.340   4.315   7.914 -0.2661  0.1880 -0.3773
 3354TIP3    H131621   0.319   4.256   7.986 -0.6035 -0.0360 -0.6577
 3354TIP3    H231622   0.261   4.367   7.901 -1.7514 -2.4859 -3.2128
 3355TIP3   OH231623   2.887   0.211   1.893 -0.0423  0.0028  0.0108
 3355TIP3    H131624   2.799   0.197   1.858  0.0625 -0.8358  0.0431
 3355TIP3    H231625   2.883   0.295   1.937 -0.3886  0.7346 -1.3642
 3356TIP3   OH231626   4.856   6.565   0.760  0.0132  1.4271 -0.0109
 3356TIP3    H131627   4.860   6.520   0.675  0.4196 -0.2726  0.8539
 3356TIP3    H231628   4.767   6.600   0.765 -1.0194 -1.0271  0.0713
 3357TIP3   OH231629   5.150   2.479   1.530 -0.5524 -1.0286  0.5560
 3357TIP3    H131630   5.232   2.523   1.507 -0.9228 -1.2984 -1.5045
 3357TIP3    H231631   5.177   2.402   1.581  0.4499 -0.9225  0.2040
 3358TIP3   OH231632   6.356   4.042   7.879  0.0724 -0.1058  0.0864
 3358TIP3    H131633   6.388   4.130   7.895  2.8290 -1.0830  0.5463
 3358TIP3    H231634   6.352   4.002   7.965 -1.0017 -0.5085 -0.1323
 3359TIP3   OH231635   2.236   4.785   7.552 -0.6007  0.0725  0.0679
 3359TIP3    H131636   2.282   4.838   7.617 -2.2227  0.4826  0.9368
 3359TIP3    H231637   2.286   4.797   7.472  1.8411 -0.9832  1.3417
 3360TIP3   OH231638   1.375   4.088   0.988 -0.1647  0.1262 -0.4907
 3360TIP3    H131639   1.386   4.169   0.938  1.4780 -0.6048 -1.3589
 3360TIP3    H231640   1.416   4.106   1.073 -0.7493  0.5232 -0.2769
 3361TIP3   OH231641   6.652   5.121   0.553  0.0535  0.0234  0.3587
 3361TIP3    H131642   6.746   5.138   0.560  0.5326 -0.9130 -2.5279
 3361TIP3    H231643   6.642   5.031   0.584  0.5101 -0.6339 -1.3123
 3362TIP3   OH231644   1.771   6.808   7.820  0.3455 -0.3904 -0.0691
 3362TIP3    H131645   1.789   6.827   7.912 -0.8898  1.3459 -0.1374
 3362TIP3    H231646   1.744   6.716   7.819  0.3452 -0.4197  1.3082
 3363TIP3   OH231647   6.412   6.051   1.198 -0.5897  0.2741  0.3569
 3363TIP3    H131648   6.474   6.106   1.246  0.5996 -2.4102  2.1072
 3363TIP3    H231649   6.419   5.965   1.239 -4.4044 -0.5663 -0.3793
 3364TIP3   OH231650   1.223   2.398   6.742  0.7608 -0.2178  0.2138
 3364TIP3    H131651   1.148   2.440   6.700 -0.1231  0.8481  2.6868
 3364TIP3    H231652   1.206   2.304   6.733  0.4607 -0.0515 -1.4125
 3365TIP3   OH231653   5.389   6.278   0.642 -0.0856  0.2383  0.0964
 3365TIP3    H131654   5.472   6.231   0.642  0.4030  0.6944 -4.1986
 3365TIP3    H231655   5.413   6.370   0.657  0.1073  0.2679 -0.3819
 3366TIP3   OH231656   5.845   5.679   1.007 -0.2885 -0.9995 -0.0255
 3366TIP3    H131657   5.888   5.619   1.068  0.4197 -0.6876 -0.2144
 3366TIP3    H231658   5.916   5.732   0.970 -0.9100  0.0075  0.1917
 3367TIP3   OH231659   2.743   4.067   2.216 -0.4743 -0.0859 -0.2717
 3367TIP3    H131660   2.712   4.082   2.127 -0.8102 -0.9399 -0.3094
 3367TIP3    H231661   2.800   4.142   2.234 -0.9999  0.4897 -0.9208
 3368TIP3   OH231662   5.528   4.004   0.015  0.1152  0.1262  0.4604
 3368TIP3    H131663   5.614   3.994  -0.024 -0.5723  1.4508 -1.5322
 3368TIP3    H231664   5.477   3.929  -0.018  0.8449 -1.6307  2.9651
 3369TIP3   OH231665   3.916   6.064   2.241 -0.1764 -0.0649 -0.1243
 3369TIP3    H131666   3.863   6.088   2.317 -1.6879 -0.8911 -0.8439
 3369TIP3    H231667   3.955   5.980   2.264  0.9322  0.5907  0.4446
 3370TIP3   OH231668   3.796   2.907   8.606 -0.1917  0.6159  0.3242
 3370TIP3    H131669   3.796   2.958   8.524 -2.0499 -0.9168 -0.7096
 3370TIP3    H231670   3.866   2.843   8.594  1.3076  2.0279  1.1039
 3371TIP3   OH231671   3.192   0.359   8.264 -0.0943  0.7388  0.3040
 3371TIP3    H131672   3.167   0.447   8.292  0.9073  0.8183  1.0534
 3371TIP3    H231673   3.110   0.312   8.252 -0.6328  1.7802 -0.1017
 3372TIP3   OH231674   0.906   5.692   0.374  0.0420  0.5242 -0.3874
 3372TIP3    H131675   0.881   5.785   0.378  1.6409  0.9379  1.2907
 3372TIP3    H231676   1.000   5.694   0.354  0.4245 -0.6504  1.1234
 3373TIP3   OH231677   2.870   1.066   0.413  0.2764 -0.6779 -0.2498
 3373TIP3    H131678   2.829   1.150   0.432  2.2074  0.0907  0.8092
 3373TIP3    H231679   2.817   1.029   0.342 -2.5970 -0.1248  1.4745
 3374TIP3   OH231680   0.556   1.379   6.932  0.4051 -0.4411  0.1700
 3374TIP3    H131681   0.512   1.295   6.916  0.5942 -0.6323  0.6289
 3374TIP3    H231682   0.517   1.439   6.869  0.3884 -0.9173 -0.2813
 3375TIP3   OH231683   0.735   4.751   7.512 -0.1576  0.1087  0.6748
 3375TIP3    H131684   0.793   4.702   7.571 -0.0812 -1.6526 -0.7564
 3375TIP3    H231685   0.740   4.841   7.543  2.4404 -0.1723  1.3468
 3376TIP3   OH231686   5.820   2.930   1.708 -0.9393  0.5212  0.0839
 3376TIP3    H131687   5.740   2.981   1.699 -1.2558 -0.0962 -0.8550
 3376TIP3    H231688   5.887   2.994   1.732 -1.2627  1.4484 -1.3482
 3377TIP3   OH231689   0.414   5.254   8.490  0.3277 -0.3238  0.3654
 3377TIP3    H131690   0.482   5.213   8.544  0.1396 -1.0704  0.0538
 3377TIP3    H231691   0.370   5.180   8.447 -2.1762 -0.0622  2.2490
 3378TIP3   OH231692   0.292   4.574   0.391 -0.8968 -0.0632  0.0811
 3378TIP3    H131693   0.324   4.661   0.414 -0.1036 -0.4684  0.5544
 3378TIP3    H231694   0.220   4.558   0.451 -0.9520  0.2109  0.0879
 3379TIP3   OH231695   4.630   1.802   1.088  0.7335  0.0259  0.3253
 3379TIP3    H131696   4.599   1.863   1.155  0.1549 -1.4598  1.4589
 3379TIP3    H231697   4.721   1.785   1.112  1.4798  1.7491 -1.0301
 3380TIP3   OH231698   6.245   3.892   1.797  0.5216 -0.5874  0.6418
 3380TIP3    H131699   6.244   3.952   1.872 -0.0782 -0.9538  0.9352
 3380TIP3    H231700   6.198   3.815   1.828 -2.0318  0.2313 -0.9179
 3381TIP3   OH231701   5.919   1.617   7.269  0.1975 -0.0377  0.4826
 3381TIP3    H131702   5.959   1.632   7.184 -1.7759  0.0483 -0.5010
 3381TIP3    H231703   5.976   1.553   7.312  0.5418 -1.1268 -1.4672
 3382TIP3   OH231704   3.305   0.160   1.105  0.1438 -0.2459  0.3694
 3382TIP3    H131705   3.391   0.143   1.145 -0.5429  0.1174  2.0498
 3382TIP3    H231706   3.298   0.255   1.102 -0.7453 -0.2649  1.4686
 3383TIP3   OH231707   1.650   5.177   6.857  0.1067 -0.0986  0.0567
 3383TIP3    H131708   1.717   5.244   6.869 -0.6196  0.9472 -1.4435
 3383TIP3    H231709   1.671   5.136   6.773  0.1311 -1.2860  0.6203
 3384TIP3   OH231710   5.109   6.114   1.949  0.0070 -0.1380  0.2932
 3384TIP3    H131711   5.042   6.049   1.972  1.2948 -1.7360 -0.2368
 3384TIP3    H231712   5.160   6.072   1.880  0.2547  1.9101 -0.8463
 3385TIP3   OH231713   4.260   3.679   1.530 -0.8333 -0.0645 -0.4060
 3385TIP3    H131714   4.225   3.662   1.442 -3.2387 -2.0287  0.8145
 3385TIP3    H231715   4.183   3.688   1.585  0.5899 -1.8096  2.0186
 3386TIP3   OH231716   6.565   4.515   8.668 -0.5463  0.3019 -0.0787
 3386TIP3    H131717   6.516   4.563   8.601 -0.6129  1.6127  0.8806
 3386TIP3    H231718   6.566   4.424   8.636 -1.1958  0.7613 -1.4849
 3387TIP3   OH231719   0.109   2.271   1.641  0.2828 -0.3666 -0.0879
 3387TIP3    H131720   0.072   2.268   1.730  2.5854  0.5098  0.9656
 3387TIP3    H231721   0.127   2.364   1.626  0.8064 -0.6233 -1.0909
 3388TIP3   OH231722   2.392   4.306   1.209  0.0046  0.1845  0.2817
 3388TIP3    H131723   2.459   4.325   1.144 -0.4169  0.0624 -0.1887
 3388TIP3    H231724   2.360   4.219   1.187 -0.7202  0.4798  0.1495
 3389TIP3   OH231725   4.245   5.414   7.403  0.1791 -0.3027  0.1202
 3389TIP3    H131726   4.302   5.414   7.480  1.4868 -2.5861 -0.7678
 3389TIP3    H231727   4.302   5.443   7.331 -0.0067 -1.6507 -0.6017
 3390TIP3   OH231728   0.674   4.382   8.262  0.3053  0.1215  0.2194
 3390TIP3    H131729   0.619   4.448   8.220 -2.3901 -1.6197  0.7782
 3390TIP3    H231730   0.672   4.405   8.355 -0.0106 -0.2922  0.3180
 3391TIP3   OH231731   2.468   2.744   0.386  0.3355 -0.7226  0.1138
 3391TIP3    H131732   2.491   2.652   0.393 -0.0264 -0.8930 -0.8168
 3391TIP3    H231733   2.551   2.790   0.390  0.9870 -1.3320 -3.3337
 3392TIP3   OH231734   2.972   0.234   0.816 -0.2004 -0.2326  0.1157
 3392TIP3    H131735   3.005   0.319   0.845 -1.6052  0.5094 -0.3909
 3392TIP3    H231736   3.014   0.219   0.732 -1.3842  0.8944 -0.7145
 3393TIP3   OH231737   4.018   5.549   0.207  0.7009 -0.7639 -0.5537
 3393TIP3    H131738   4.067   5.558   0.288  0.5531 -1.3552 -0.3941
 3393TIP3    H231739   4.081   5.511   0.145  0.7969 -0.3671 -0.7030
 3394TIP3   OH231740   0.790   4.284   7.403  0.3878  0.0108  0.1144
 3394TIP3    H131741   0.750   4.235   7.475  0.0421  0.6864  0.3953
 3394TIP3    H231742   0.725   4.351   7.382  0.1426 -0.6597 -1.3602
 3395TIP3   OH231743   4.976   2.807   1.276  0.1430  0.2439 -0.1484
 3395TIP3    H131744   4.949   2.829   1.365  2.5799 -1.6274  1.1960
 3395TIP3    H231745   4.967   2.712   1.271 -1.7091  0.4551 -2.6242
 3396TIP3   OH231746   5.395   5.840   2.387 -0.4130 -0.0991 -0.1989
 3396TIP3    H131747   5.432   5.753   2.371 -0.3726 -0.3697  1.2509
 3396TIP3    H231748   5.368   5.870   2.301 -2.3589 -2.4220 -0.4900
 3397TIP3   OH231749   3.266   6.194   2.193 -0.2648 -0.4510 -0.2104
 3397TIP3    H131750   3.225   6.263   2.245 -0.5802 -0.8018  0.0129
 3397TIP3    H231751   3.201   6.174   2.125 -0.3732 -0.8581  0.0119
 3398TIP3   OH231752   5.819   3.629   2.883  0.1406 -0.1451 -0.0372
 3398TIP3    H131753   5.769   3.566   2.831  0.2833  0.9070 -1.5269
 3398TIP3    H231754   5.887   3.577   2.925  0.8255 -0.9035 -1.9514
 3399TIP3   OH231755   5.617   0.541   0.700  0.2641 -0.1823  0.4587
 3399TIP3    H131756   5.672   0.469   0.731  1.7543  0.0067 -1.5382
 3399TIP3    H231757   5.536   0.499   0.672  0.5398 -0.8851  0.7064
 3400TIP3   OH231758   0.567   5.382   0.605  0.1830  0.4550 -0.4166
 3400TIP3    H131759   0.535   5.450   0.663 -2.0096  0.1116 -1.1321
 3400TIP3    H231760   0.631   5.426   0.549 -0.0804  1.5500  0.1252
 3401TIP3   OH231761   0.572   1.979   0.417 -0.1083 -0.1765  0.1502
 3401TIP3    H131762   0.605   1.974   0.327  0.2299 -0.3831  0.2843
 3401TIP3    H231763   0.603   2.063   0.449  3.2836 -1.7418  1.4220
 3402TIP3   OH231764   0.793   1.831   7.797  0.0709  0.0393  0.0344
 3402TIP3    H131765   0.733   1.794   7.861 -2.6433  0.5799 -2.0075
 3402TIP3    H231766   0.798   1.766   7.728 -0.5065  1.1835 -1.1347
 3403TIP3   OH231767   1.929   1.055   1.125 -0.0187  0.1694 -0.0725
 3403TIP3    H131768   1.902   1.113   1.054  1.5602  0.7873 -0.2104
 3403TIP3    H231769   2.004   1.100   1.165  0.9214 -1.5303  0.1559
 3404TIP3   OH231770   2.452   4.955   6.875 -0.7991  0.1322 -0.1493
 3404TIP3    H131771   2.528   5.002   6.841  0.3503 -0.6959  1.1798
 3404TIP3    H231772   2.438   4.884   6.812 -0.5751  0.3877 -0.4897
 3405TIP3   OH231773   3.228   1.973   7.773 -0.5945 -0.0159 -0.1887
 3405TIP3    H131774   3.290   1.900   7.772 -2.5600 -1.7926 -1.8346
 3405TIP3    H231775   3.273   2.044   7.729  0.5862 -0.9619 -0.5646
 3406TIP3   OH231776   5.994   6.325   7.586  0.1576  0.3610  0.8093
 3406TIP3    H131777   5.906   6.296   7.560  0.4020  1.0763 -0.9418
 3406TIP3    H231778   6.049   6.304   7.511  1.4107  0.3574  1.7024
 3407TIP3   OH231779   1.839   6.228   7.177 -0.1097  0.2007  0.6813
 3407TIP3    H131780   1.874   6.174   7.106 -1.2057  0.7132 -0.2817
 3407TIP3    H231781   1.815   6.310   7.135  1.1009  1.2984  2.0350
 3408TIP3   OH231782   5.544   6.525   0.626 -0.3364 -0.6823  0.4224
 3408TIP3    H131783   5.479   6.577   0.672  0.7352 -0.4424  1.7372
 3408TIP3    H231784   5.618   6.519   0.686  1.4274  0.1825 -1.5189
 3409TIP3   OH231785   3.987   6.216   0.441 -0.0130  0.8406 -0.4695
 3409TIP3    H131786   3.947   6.136   0.476 -1.0766  1.3051 -0.5813
 3409TIP3    H231787   4.081   6.204   0.456 -0.3495  0.7118  1.9013
 3410TIP3   OH231788   1.400   0.974   8.387  0.4329 -0.2811  0.2994
 3410TIP3    H131789   1.443   1.023   8.456  0.9012  0.1991 -0.3246
 3410TIP3    H231790   1.308   1.002   8.391  0.5955  0.2687  0.2764
 3411TIP3   OH231791   0.468   2.948   7.653  0.1250 -0.0723  0.4860
 3411TIP3    H131792   0.486   2.888   7.580 -0.0130 -0.5431  0.8351
 3411TIP3    H231793   0.550   2.997   7.664  0.7232 -1.1826  1.1138
 3412TIP3   OH231794   4.512   5.030   8.300 -0.4234  0.0440 -0.2891
 3412TIP3    H131795   4.554   5.070   8.377 -1.7744  0.4445  0.2761
 3412TIP3    H231796   4.431   5.080   8.288 -1.9202 -2.1318  0.1027
 3413TIP3   OH231797   0.878   6.651   1.406  0.2466  0.3342 -0.5222
 3413TIP3    H131798   0.892   6.598   1.484 -2.6303 -0.8771 -0.6992
 3413TIP3    H231799   0.834   6.730   1.438  0.7453  0.6963 -0.7204
 3414TIP3   OH231800   3.494   5.606   0.939  0.6416 -0.2011  0.5414
 3414TIP3    H131801   3.566   5.546   0.920  0.8330 -0.1108  0.9894
 3414TIP3    H231802   3.535   5.681   0.981  0.2823 -0.1612  0.8269
 3415TIP3   OH231803   0.353   1.632   6.155  0.5838  0.5698 -0.0565
 3415TIP3    H131804   0.268   1.652   6.195  1.7461  2.5376  1.6640
 3415TIP3    H231805   0.363   1.538   6.166 -1.1829  0.3793  0.1272
 3416TIP3   OH231806   3.452   3.723   0.287  0.2778 -0.0282  0.6884
 3416TIP3    H131807   3.402   3.793   0.329  0.8046  1.4092 -0.9238
 3416TIP3    H231808   3.398   3.645   0.296 -0.9292  0.8672  1.4469
 3417TIP3   OH231809   0.106   5.881   1.782 -0.3343 -0.0941  0.5860
 3417TIP3    H131810   0.096   5.889   1.687 -0.5201  1.9810  0.7362
 3417TIP3    H231811   0.181   5.822   1.793  0.3570  0.4577 -0.8815
 3418TIP3   OH231812   5.495   4.487   0.850  0.8949  0.2791  0.3223
 3418TIP3    H131813   5.431   4.416   0.849  1.2356 -0.2479  3.6592
 3418TIP3    H231814   5.577   4.445   0.825  0.6380  0.0675 -0.1773
 3419TIP3   OH231815   4.295   4.010   0.732  0.6122 -0.0795 -0.7212
 3419TIP3    H131816   4.279   4.089   0.681  1.0953 -0.3881 -1.3716
 3419TIP3    H231817   4.234   4.016   0.805  0.7917  0.9926 -0.6388
 3420TIP3   OH231818   3.695   1.692   8.410  0.4340  0.4979 -0.3580
 3420TIP3    H131819   3.775   1.672   8.363  0.8993 -0.1510  0.6854
 3420TIP3    H231820   3.683   1.620   8.471  0.0652  1.4961  0.8049
 3421TIP3   OH231821   1.396   1.879   8.408  0.1458  0.3422 -0.4351
 3421TIP3    H131822   1.309   1.918   8.395  0.2365  0.2694 -1.3405
 3421TIP3    H231823   1.428   1.918   8.489 -0.1422  1.4699 -0.8466
 3422TIP3   OH231824   3.876   1.499   7.021  0.2597 -0.4348 -0.0487
 3422TIP3    H131825   3.899   1.507   6.928  1.8286  0.1041  0.3646
 3422TIP3    H231826   3.796   1.446   7.021  0.9205 -1.5201 -1.6349
 3423TIP3   OH231827   5.078   5.646   0.907 -0.1037 -0.2326  0.1748
 3423TIP3    H131828   5.152   5.694   0.944 -0.8024  0.4266  0.7522
 3423TIP3    H231829   5.067   5.682   0.820  0.1468 -0.2146  0.1503
 3424TIP3   OH231830   1.909   3.341   2.128  0.7668 -0.1814 -0.1171
 3424TIP3    H131831   1.928   3.265   2.073 -0.7447 -0.5011 -0.2457
 3424TIP3    H231832   1.828   3.377   2.091  0.8346  0.8130  0.6613
 3425TIP3   OH231833   5.450   5.134   7.189 -0.2936  0.2194 -0.0236
 3425TIP3    H131834   5.497   5.214   7.211 -0.6198 -0.3047  2.9912
 3425TIP3    H231835   5.518   5.071   7.165  0.2823  0.4447  0.9749
 3426TIP3   OH231836   0.092   6.613   0.761  0.2143  0.2803  0.6627
 3426TIP3    H131837   0.048   6.680   0.813  1.1960  1.5045 -0.0356
 3426TIP3    H231838   0.092   6.648   0.672 -0.7140 -1.4034 -0.0430
 3427TIP3   OH231839   2.198   6.614   1.727 -0.1125 -0.4957  0.1683
 3427TIP3    H131840   2.114   6.642   1.765  0.5900  2.6594 -0.3369
 3427TIP3    H231841   2.173   6.556   1.655 -1.8066 -0.5129  0.7160
 3428TIP3   OH231842   2.889   0.652   0.367  0.5652  0.0639  0.1858
 3428TIP3    H131843   2.931   0.578   0.412  2.2394  2.4486  2.9415
 3428TIP3    H231844   2.863   0.711   0.438  0.5143  2.7359 -1.9059
 3429TIP3   OH231845   1.298   0.381   1.380  0.2762  0.5052  0.2012
 3429TIP3    H131846   1.335   0.317   1.440  1.6380  0.2293 -0.9036
 3429TIP3    H231847   1.318   0.466   1.420 -1.0197  0.2983  1.3671
 3430TIP3   OH231848   6.085   4.227   6.973 -0.1009 -0.5060  0.4942
 3430TIP3    H131849   6.169   4.195   7.007  0.8863 -0.6969 -1.9549
 3430TIP3    H231850   6.045   4.150   6.932 -2.8387 -1.1318  3.8335
 3431TIP3   OH231851   3.378   2.704   1.686  0.8579 -0.6694  0.8983
 3431TIP3    H131852   3.330   2.631   1.648  2.5930 -0.8667 -1.1521
 3431TIP3    H231853   3.382   2.769   1.616  0.0192  1.1209  2.4201
 3432TIP3   OH231854   4.943   1.752   1.033  0.0441 -0.0843  0.2072
 3432TIP3    H131855   4.873   1.715   0.980  0.4306 -1.0561  0.3649
 3432TIP3    H231856   4.984   1.677   1.076 -0.9123  0.7658  2.7366
 3433TIP3   OH231857   0.538   2.207   1.856 -0.0089  0.1453  0.4398
 3433TIP3    H131858   0.552   2.217   1.950 -1.0060  1.8771  0.4408
 3433TIP3    H231859   0.472   2.138   1.849 -1.6939  1.6148  1.1763
 3434TIP3   OH231860   1.052   0.808   6.828 -0.2975 -0.4087  0.7980
 3434TIP3    H131861   1.016   0.809   6.917 -0.9221 -0.3761  0.5477
 3434TIP3    H231862   1.041   0.897   6.796  1.8930  0.1561  1.4484
 3435TIP3   OH231863   3.756   0.211   1.760  0.0425 -0.1941  0.9388
 3435TIP3    H131864   3.816   0.266   1.810 -2.0017  0.3064  3.0216
 3435TIP3    H231865   3.796   0.204   1.674  1.7264  2.3098  1.4088
 3436TIP3   OH231866   1.352   0.870   0.885 -0.4064  0.0241 -0.0642
 3436TIP3    H131867   1.331   0.777   0.888  1.2841 -0.3709  0.2627
 3436TIP3    H231868   1.305   0.907   0.960  0.2804 -0.8903  0.8622
 3437TIP3   OH231869   4.623   5.943   8.401  0.0920  0.5935  0.5332
 3437TIP3    H131870   4.567   5.985   8.465 -0.2764  1.4628 -0.3387
 3437TIP3    H231871   4.692   6.006   8.383 -0.1582  0.6229 -0.3822
 3438TIP3   OH231872   5.619   1.393   7.742  0.3285 -0.5574  0.1661
 3438TIP3    H131873   5.604   1.300   7.722  1.3299 -0.5100 -0.9406
 3438TIP3    H231874   5.544   1.438   7.704  0.7716 -0.7600 -1.0086
 3439TIP3   OH231875   0.054   1.853   0.647  0.0192  0.6630  0.0411
 3439TIP3    H131876  -0.039   1.872   0.636  0.3526  1.7751 -1.2468
 3439TIP3    H231877   0.081   1.816   0.562  1.2611  2.7688 -0.5503
 3440TIP3   OH231878   5.039   6.336   1.261 -0.0528 -0.2127 -0.0045
 3440TIP3    H131879   5.105   6.277   1.223 -0.2638 -1.1841  1.0712
 3440TIP3    H231880   5.047   6.417   1.211  2.2638 -0.1480  0.3560
 3441TIP3   OH231881   2.826   6.563   0.696 -0.3245  0.0339 -0.3641
 3441TIP3    H131882   2.893   6.625   0.667  0.3868 -0.6234 -0.1430
 3441TIP3    H231883   2.869   6.478   0.696 -1.3039 -0.4767 -0.6941
 3442TIP3   OH231884   5.026   0.560   7.565  0.0973  0.2644 -0.3924
 3442TIP3    H131885   5.018   0.643   7.612  0.8339 -0.0473  0.3237
 3442TIP3    H231886   4.967   0.568   7.490  1.3465  2.0537 -1.2388
 3443TIP3   OH231887   0.925   0.421   6.744  0.1003 -0.3494  1.1536
 3443TIP3    H131888   0.852   0.370   6.707 -0.6166  1.9893 -0.9636
 3443TIP3    H231889   0.913   0.414   6.839 -0.5380 -3.1791  0.9600
 3444TIP3   OH231890   0.458   4.863   1.291  0.5140 -0.0854 -0.4170
 3444TIP3    H131891   0.420   4.882   1.377  0.9964 -1.2067  0.0643
 3444TIP3    H231892   0.383   4.853   1.233  0.2012  1.8759 -0.4164
 3445TIP3   OH231893   5.429   3.675   0.027  0.3837  0.4552 -0.0044
 3445TIP3    H131894   5.469   3.592   0.053  2.2594  2.0611  2.7534
 3445TIP3    H231895   5.468   3.694  -0.059  1.5490 -0.5270  0.2739
 3446TIP3   OH231896   3.627   3.464   1.431  0.2010 -0.2294  0.2627
 3446TIP3    H131897   3.642   3.412   1.352  1.1517 -3.1369  2.1949
 3446TIP3    H231898   3.714   3.498   1.454  0.7398 -2.4662  1.9225
 3447TIP3   OH231899   4.482   1.552   0.319  0.6818 -0.1162 -0.3255
 3447TIP3    H131900   4.474   1.611   0.244  0.7114  0.0649 -0.1889
 3447TIP3    H231901   4.424   1.479   0.299 -3.5478  2.2984  1.7607
 3448TIP3   OH231902   6.523   6.746   0.554  0.4885  0.1867 -0.1286
 3448TIP3    H131903   6.491   6.788   0.474  2.1103  1.1643 -0.3006
 3448TIP3    H231904   6.476   6.790   0.625 -0.6810 -0.4265 -0.4960
 3449TIP3   OH231905   4.150   6.566   7.775 -0.1428 -0.1130  0.0823
 3449TIP3    H131906   4.108   6.596   7.856 -1.6323 -0.5087 -0.4983
 3449TIP3    H231907   4.096   6.492   7.747  1.0957 -0.7680 -0.6125
 3450TIP3   OH231908   5.312   0.996   6.928 -0.5985 -0.6119  0.4563
 3450TIP3    H131909   5.406   1.013   6.939 -1.1654  3.5645  0.5254
 3450TIP3    H231910   5.290   0.936   7.000  2.0478 -2.3351 -0.0153
 3451TIP3   OH231911   2.525   0.014   1.151  0.5543 -0.2676  0.3106
 3451TIP3    H131912   2.483  -0.002   1.067  0.9374 -0.7686  0.2125
 3451TIP3    H231913   2.619   0.010   1.133  0.6413 -0.1475  0.7171
 3452TIP3   OH231914   1.134   3.329   0.052 -0.0393  0.3290  0.2275
 3452TIP3    H131915   1.081   3.373  -0.015 -0.3233 -0.4089 -0.0461
 3452TIP3    H231916   1.216   3.378   0.054 -1.5390  3.0261  2.3336
 3453TIP3   OH231917   0.117   2.611   8.269 -0.3909 -0.1102  0.2450
 3453TIP3    H131918   0.061   2.688   8.262  0.8204  0.8550  0.8845
 3453TIP3    H231919   0.082   2.563   8.345 -0.6765  0.1874  0.3032
 3454TIP3   OH231920   2.921   3.833   1.671  0.2137  0.6435 -0.4090
 3454TIP3    H131921   2.931   3.756   1.726  0.7220  0.1248 -1.2031
 3454TIP3    H231922   2.932   3.800   1.582 -0.5523  1.4676 -0.8230
 3455TIP3   OH231923   0.336   0.874   8.295  0.3259  0.0721  0.3879
 3455TIP3    H131924   0.344   0.890   8.201 -2.0654  0.7981  0.2586
 3455TIP3    H231925   0.394   0.799   8.311  2.6578  1.4217 -1.1761
 3456TIP3   OH231926   6.786   1.520   7.097  0.4058 -0.4272  0.4288
 3456TIP3    H131927   6.745   1.606   7.083 -1.5677 -0.7320  3.5039
 3456TIP3    H231928   6.824   1.526   7.185  0.1089 -2.7331  0.7681
 3457TIP3   OH231929   5.119   2.337   2.110 -0.3219  0.2359  0.3407
 3457TIP3    H131930   5.152   2.360   2.197 -0.5925 -1.9273  1.0699
 3457TIP3    H231931   5.040   2.286   2.127 -0.7870  0.3974 -1.2114
 3458TIP3   OH231932   6.011   3.377   0.242  0.1009 -0.2213 -0.6994
 3458TIP3    H131933   6.014   3.422   0.158  2.2549  2.4860  0.6456
 3458TIP3    H231934   5.957   3.433   0.298 -0.2852 -1.3154  0.0704
 3459TIP3   OH231935   6.701   6.377   2.299  0.4729 -0.7641 -0.1612
 3459TIP3    H131936   6.623   6.426   2.273  0.5382  0.0290  1.1075
 3459TIP3    H231937   6.679   6.340   2.384  1.4018 -0.7533  0.0841
 3460TIP3   OH231938   6.260   6.702   8.186 -0.1513  0.1718 -0.4376
 3460TIP3    H131939   6.339   6.755   8.200 -0.6774  0.9108 -0.2104
 3460TIP3    H231940   6.206   6.755   8.127  0.5630 -1.4029 -2.6536
 3461TIP3   OH231941   2.802   4.373   2.371 -0.3074  0.1557 -0.1922
 3461TIP3    H131942   2.791   4.281   2.394  0.5047 -0.5376 -2.3309
 3461TIP3    H231943   2.837   4.414   2.450  0.4067 -1.6147  0.4591
 3462TIP3   OH231944   5.568   3.123   8.603  0.0760 -0.5429  0.0823
 3462TIP3    H131945   5.644   3.069   8.621  1.2606  0.9292 -0.2663
 3462TIP3    H231946   5.520   3.125   8.685  1.4850  0.1030  0.9244
 3463TIP3   OH231947   6.306   1.939   1.515 -0.0301  0.9453  0.3183
 3463TIP3    H131948   6.255   1.981   1.446  0.5389  0.4589 -0.4197
 3463TIP3    H231949   6.287   1.990   1.594 -3.0530 -0.2241  0.5083
 3464TIP3   OH231950   4.639   0.207   8.176  0.0297  0.1688  0.3719
 3464TIP3    H131951   4.672   0.134   8.228 -1.3543 -0.8272 -0.1022
 3464TIP3    H231952   4.560   0.235   8.221 -1.0278 -0.5106 -0.9666
 3465TIP3   OH231953   6.415   3.663   1.697 -0.7677  0.5873 -0.2264
 3465TIP3    H131954   6.489   3.723   1.682 -0.9770  0.8346 -0.2720
 3465TIP3    H231955   6.345   3.719   1.729 -1.3404  0.5545 -1.3736
 3466TIP3   OH231956   6.225   1.010   0.491  0.1289 -0.1212 -0.0284
 3466TIP3    H131957   6.214   0.921   0.524  3.3683 -1.3121 -1.6388
 3466TIP3    H231958   6.206   1.003   0.397  0.6608  0.7979 -0.2142
 3467TIP3   OH231959   5.124   3.481   0.034  0.7693  0.5909  0.0148
 3467TIP3    H131960   5.180   3.550   0.069  3.8604 -0.9404 -1.4294
 3467TIP3    H231961   5.178   3.402   0.041 -0.8675 -0.8630 -2.3544
 3468TIP3   OH231962   2.855   5.578   0.820  0.0454  0.2709 -0.2662
 3468TIP3    H131963   2.855   5.541   0.732  1.1571 -0.9072  0.1808
 3468TIP3    H231964   2.897   5.510   0.874 -1.9938  0.2741  1.4628
 3469TIP3   OH231965   1.202   0.319   7.007  0.2109 -0.3454  0.4442
 3469TIP3    H131966   1.182   0.227   6.987  2.0787 -0.9994  1.3628
 3469TIP3    H231967   1.282   0.338   6.958 -0.7199  1.1535 -0.5660
 3470TIP3   OH231968   5.562   4.410   2.857  0.0876 -0.5019 -0.0253
 3470TIP3    H131969   5.540   4.487   2.909  0.6774  0.2343 -0.8365
 3470TIP3    H231970   5.497   4.344   2.883  0.7315 -0.3780  2.0723
 3471TIP3   OH231971   1.144   3.277   7.665 -0.3046  0.2173 -0.0836
 3471TIP3    H131972   1.108   3.295   7.752 -0.1754 -1.8202  0.4404
 3471TIP3    H231973   1.171   3.185   7.669 -0.9064 -0.1230 -2.4934
 3472TIP3   OH231974   3.571   4.005   7.697  0.6292  0.1196  0.3635
 3472TIP3    H131975   3.623   4.036   7.771 -0.3570 -0.6096  1.3915
 3472TIP3    H231976   3.535   4.085   7.658 -0.0601  0.4408  1.6093
 3473TIP3   OH231977   3.553   2.126   1.055  0.4659 -0.0943 -0.5778
 3473TIP3    H131978   3.458   2.129   1.042  0.4219  0.0060 -0.2361
 3473TIP3    H231979   3.585   2.209   1.021  0.2515  0.5558  0.7275
 3474TIP3   OH231980   0.746   5.148   0.949 -0.1545  0.8141  0.1341
 3474TIP3    H131981   0.706   5.097   1.020 -0.0948  1.0161  0.3134
 3474TIP3    H231982   0.681   5.216   0.930 -0.2653  0.6281 -0.1530
 3475TIP3   OH231983   0.486   6.740   8.236 -0.1981 -0.2214  0.0657
 3475TIP3    H131984   0.419   6.718   8.300  0.0841 -0.9125  0.1351
 3475TIP3    H231985   0.438   6.779   8.163 -0.4970  0.8268  0.7958
 3476TIP3   OH231986   2.448   4.004   8.312 -0.5598 -0.2429 -0.3289
 3476TIP3    H131987   2.436   4.039   8.223 -3.3324 -0.5926 -0.1982
 3476TIP3    H231988   2.543   4.002   8.325 -0.1266  1.7647 -2.4900
 3477TIP3   OH231989   6.356   2.469   7.782 -0.2577 -0.4734  0.5525
 3477TIP3    H131990   6.417   2.418   7.728  2.8813 -0.9898  4.1649
 3477TIP3    H231991   6.396   2.556   7.788 -1.6563  0.2054  0.4049
 3478TIP3   OH231992   0.672   1.982   0.112  0.2286 -0.2516 -0.6871
 3478TIP3    H131993   0.598   2.041   0.096 -0.2105 -0.8128 -0.7628
 3478TIP3    H231994   0.750   2.034   0.090 -0.0720  0.6953  0.4118
 3479TIP3   OH231995   2.998   0.534   1.133 -0.5736  0.1400  0.2945
 3479TIP3    H131996   3.047   0.492   1.062  1.1833  1.4800  0.6393
 3479TIP3    H231997   2.981   0.623   1.101 -2.2141 -0.0869  0.4713
 3480TIP3   OH231998   3.841   0.216   8.482  0.2925 -0.1168 -0.1444
 3480TIP3    H131999   3.766   0.275   8.483 -0.4821 -0.9362 -3.0030
 3480TIP3    H232000   3.803   0.129   8.491  0.8952 -0.5214 -1.3881
 3481TIP3   OH232001   2.126   6.506   2.345 -0.8944 -0.3620  0.4688
 3481TIP3    H132002   2.163   6.592   2.324 -2.1186  0.6799  2.2628
 3481TIP3    H232003   2.041   6.505   2.302 -0.9652 -0.5884  0.6125
 3482TIP3   OH232004   5.196   5.820   0.079  0.3453 -0.2022 -0.6223
 3482TIP3    H132005   5.270   5.778   0.122  0.5907  0.7316 -0.1144
 3482TIP3    H232006   5.142   5.747   0.049  1.0027 -0.8858 -0.1864
 3483TIP3   OH232007   3.256   0.801   1.695  0.5541 -0.2692 -0.2237
 3483TIP3    H132008   3.316   0.855   1.746 -0.2897 -0.0290  0.5516
 3483TIP3    H232009   3.306   0.722   1.673  1.8695  0.8852 -1.5457
 3484TIP3   OH232010   6.026   1.669   7.862 -0.2072  0.1587  0.6966
 3484TIP3    H132011   6.008   1.693   7.953  3.4189 -1.1608  1.9470
 3484TIP3    H232012   6.095   1.730   7.835  0.3869 -0.9245 -0.3232
 3485TIP3   OH232013   2.411   2.707   2.149 -0.1963 -0.1893 -0.3290
 3485TIP3    H132014   2.395   2.767   2.076 -0.1554  0.7053  0.3726
 3485TIP3    H232015   2.346   2.732   2.214 -0.2391 -0.9849 -0.0644
 3486TIP3   OH232016   5.565   3.457   0.079  0.0006  0.0314 -0.7564
 3486TIP3    H132017   5.646   3.507   0.091 -0.2731  0.4874 -0.7599
 3486TIP3    H232018   5.592   3.366   0.081  0.3675  0.1482  0.3168
 3487TIP3   OH232019   0.905   1.671   8.053  0.0989 -0.1518 -0.0416
 3487TIP3    H132020   0.983   1.646   8.101  0.4684  0.4803 -0.3010
 3487TIP3    H232021   0.845   1.598   8.065 -0.4567  0.6627  2.7284
 3488TIP3   OH232022   4.748   5.601   0.637  0.2991 -0.1238 -1.4452
 3488TIP3    H132023   4.663   5.558   0.630  0.3060 -0.0706 -1.8457
 3488TIP3    H232024   4.782   5.573   0.723 -1.2621  1.9351 -0.0650
 3489TIP3   OH232025   6.382   2.904   8.103 -0.5211  0.3430 -0.8699
 3489TIP3    H132026   6.376   2.810   8.115 -0.2007  0.5232  1.0377
 3489TIP3    H232027   6.329   2.941   8.174 -0.3253  1.5894 -1.3430
 3490TIP3   OH232028   1.658   6.305   6.442 -0.2518 -0.2848 -0.0361
 3490TIP3    H132029   1.635   6.242   6.510  0.3081  0.1609  0.5874
 3490TIP3    H232030   1.579   6.357   6.430 -0.0651  0.2927  1.0315
 3491TIP3   OH232031   4.842   0.529   2.075  0.2347 -0.1273  0.5079
 3491TIP3    H132032   4.823   0.462   2.140  0.1187 -0.6928 -0.0993
 3491TIP3    H232033   4.935   0.517   2.054  1.1975  2.1192  2.8858
 3492TIP3   OH232034   0.616   1.770   8.052  0.6447  0.1356 -0.7743
 3492TIP3    H132035   0.552   1.838   8.032  1.2128  0.4306 -1.6364
 3492TIP3    H232036   0.687   1.817   8.096  0.7576 -0.0053 -0.8070
 3493TIP3   OH232037   0.879   0.633   8.496 -0.3007 -0.0916  0.1681
 3493TIP3    H132038   0.938   0.708   8.484 -0.1220 -0.3149 -0.3847
 3493TIP3    H232039   0.842   0.618   8.409 -0.6811 -0.3634  0.3748
 3494TIP3   OH232040   1.135   3.478   8.192 -0.3132 -0.7684 -0.2153
 3494TIP3    H132041   1.103   3.554   8.240  0.1552 -0.5466 -0.2505
 3494TIP3    H232042   1.221   3.459   8.231  0.9289  0.5391 -2.1425
 3495TIP3   OH232043   1.957   1.945   8.450  0.0220 -0.4444  0.0627
 3495TIP3    H132044   1.905   2.026   8.450  3.1739  1.7802  0.7041
 3495TIP3    H232045   1.980   1.932   8.358  0.3582  0.0349  0.0717
 3496TIP3   OH232046   2.050   4.528   1.123  0.6390 -0.0401 -0.3287
 3496TIP3    H132047   1.989   4.601   1.119 -0.6939 -1.1225 -0.4285
 3496TIP3    H232048   2.086   4.521   1.035  0.6878  0.4176 -0.3468
 3497TIP3   OH232049   1.958   6.321   1.926  0.0007  0.5717  0.2262
 3497TIP3    H132050   1.886   6.375   1.896  0.3994  1.1100  0.2290
 3497TIP3    H232051   1.990   6.365   2.005 -0.9920 -0.7781  1.4479
 3498TIP3   OH232052   5.402   4.117   1.437  0.1098 -0.6903 -0.2325
 3498TIP3    H132053   5.482   4.169   1.433 -0.3386 -0.0399 -0.8121
 3498TIP3    H232054   5.412   4.052   1.367 -0.8646  0.8567 -1.8884
 3499TIP3   OH232055   6.717   2.238   7.922  0.0615 -0.0676  0.0541
 3499TIP3    H132056   6.656   2.251   7.995  1.3579 -0.6824  1.2874
 3499TIP3    H232057   6.800   2.275   7.953  0.3367  0.8627 -1.6347
 3500TIP3   OH232058   3.091   1.712   7.185  0.5540  0.1897  0.5172
 3500TIP3    H132059   3.021   1.707   7.120  0.5582 -2.4612  0.6238
 3500TIP3    H232060   3.067   1.787   7.240 -1.4904  0.1615 -0.2535
 3501TIP3   OH232061   6.387   2.373   6.914  0.2445  0.3268  0.2174
 3501TIP3    H132062   6.422   2.355   7.002 -1.1042  0.0964  0.7286
 3501TIP3    H232063   6.314   2.313   6.905  0.9507 -0.3291 -1.4740
 3502TIP3   OH232064   2.468   2.294   1.100 -0.9595  0.2044  0.5587
 3502TIP3    H132065   2.496   2.252   1.181  2.4154  1.0922 -0.0069
 3502TIP3    H232066   2.480   2.228   1.033  1.7826  1.0729  0.0630
 3503TIP3   OH232067   2.249   1.048   0.128  0.2851 -0.5167  0.2458
 3503TIP3    H132068   2.198   1.095   0.063 -0.2572  0.9815  1.6943
 3503TIP3    H232069   2.338   1.081   0.118 -0.1395  1.1150  1.4339
 3504TIP3   OH232070   6.585   1.830   0.316 -0.6137 -0.6323 -0.0832
 3504TIP3    H132071   6.533   1.802   0.241 -1.3719 -1.2542  0.6558
 3504TIP3    H232072   6.571   1.925   0.321 -0.8255 -0.6382 -0.5215
 3505TIP3   OH232073   5.093   0.856   2.019  0.2085  0.7465  0.2563
 3505TIP3    H132074   5.004   0.875   2.048 -0.0031  0.8790 -0.4677
 3505TIP3    H232075   5.087   0.853   1.923  0.1333 -3.2073  0.2038
 3506TIP3   OH232076   3.653   0.634   2.914 -0.1169 -0.0924  0.3150
 3506TIP3    H132077   3.582   0.664   2.970 -0.1092  1.4279 -0.4534
 3506TIP3    H232078   3.702   0.713   2.893  1.2078 -0.9719 -0.0034
 3507TIP3   OH232079   6.613   6.029   8.617 -0.6204 -0.2520 -0.1797
 3507TIP3    H132080   6.699   5.996   8.592 -0.7552 -0.0711 -0.9061
 3507TIP3    H232081   6.577   6.066   8.537 -1.8874 -1.3989 -0.1782
 3508TIP3   OH232082   6.672   6.173   0.345  0.3210  0.0516  0.2205
 3508TIP3    H132083   6.721   6.124   0.411 -0.2880  1.2461  1.5977
 3508TIP3    H232084   6.689   6.265   0.365 -0.3805  0.4537 -0.9122
 3509TIP3   OH232085   0.455   5.469   2.087 -0.4722 -0.6101  0.5057
 3509TIP3    H132086   0.536   5.519   2.087 -1.6508  1.4101 -0.5584
 3509TIP3    H232087   0.421   5.478   2.176 -0.3158 -0.1541  0.5182
 3510TIP3   OH232088   0.739   4.770   1.961  0.4045 -0.4627 -0.2893
 3510TIP3    H132089   0.822   4.774   2.010 -0.3419 -1.7241  1.1850
 3510TIP3    H232090   0.688   4.843   1.995  0.9991  0.5046 -1.4232
 3511TIP3   OH232091   3.829   5.960   1.311  0.1957 -0.5266 -0.1691
 3511TIP3    H132092   3.759   5.942   1.373 -0.9137 -1.9203 -1.7410
 3511TIP3    H232093   3.895   5.894   1.329  1.5580  1.2464  1.8190
 3512TIP3   OH232094   4.745   0.424   1.641  0.2540 -0.3175  0.5575
 3512TIP3    H132095   4.730   0.359   1.572  1.8634  0.2416 -0.3678
 3512TIP3    H232096   4.765   0.505   1.593 -1.3268  0.7980  1.6794
 3513TIP3   OH232097   2.560   5.770   8.650 -0.2337  0.6166  0.7086
 3513TIP3    H132098   2.484   5.783   8.592  1.8531  2.4647 -1.8913
 3513TIP3    H232099   2.616   5.846   8.632  2.3740 -0.8004  2.2938
 3514TIP3   OH232100   4.709   3.237   7.121  0.1937 -0.0399 -0.1178
 3514TIP3    H132101   4.626   3.284   7.120  0.2995  0.1456 -0.2318
 3514TIP3    H232102   4.686   3.148   7.148  0.2332  0.5431  2.0517
 3515TIP3   OH232103   3.177   1.631   0.477 -0.3069  0.6179  0.4040
 3515TIP3    H132104   3.178   1.537   0.463  2.1351  0.4267  1.2200
 3515TIP3    H232105   3.269   1.657   0.468 -0.7152  2.6849  1.5251
 3516TIP3   OH232106   6.282   0.784   1.880 -0.5209  0.1894  0.0750
 3516TIP3    H132107   6.224   0.758   1.808 -0.4022 -0.8979  0.3602
 3516TIP3    H232108   6.303   0.703   1.925 -0.0473  0.7745  0.9425
 3517TIP3   OH232109   3.406   3.220   0.923  0.1437 -0.1356 -0.6563
 3517TIP3    H132110   3.347   3.295   0.928 -0.9010 -0.9756  0.2593
 3517TIP3    H232111   3.452   3.220   1.007  1.5186  0.5301 -1.3726
 3518TIP3   OH232112   5.174   5.872   7.331 -0.0820 -0.0352  0.2149
 3518TIP3    H132113   5.093   5.857   7.282 -0.4178 -2.8342  1.4173
 3518TIP3    H232114   5.244   5.861   7.267 -0.5812 -1.4088 -0.1284
 3519TIP3   OH232115   2.399   6.275   7.130  0.4834 -0.4895 -0.1002
 3519TIP3    H132116   2.441   6.216   7.068  2.5581 -0.1260  0.8989
 3519TIP3    H232117   2.454   6.273   7.208  0.1327  2.0442  0.3134
 3520TIP3   OH232118   3.989   4.940   7.795  0.2278  0.0936  0.3501
 3520TIP3    H132119   3.930   4.916   7.866  0.8184  0.7812  1.0969
 3520TIP3    H232120   4.064   4.882   7.805  1.3678  1.6957  1.7674
 3521TIP3   OH232121   5.833   5.809   0.713 -0.1975 -0.1289  0.3035
 3521TIP3    H132122   5.771   5.840   0.648 -2.1365 -1.2994  1.5002
 3521TIP3    H232123   5.897   5.880   0.721 -1.2103  1.0067 -1.1529
 3522TIP3   OH232124   4.619   1.814   1.518  0.1806  0.6205 -0.5294
 3522TIP3    H132125   4.623   1.815   1.614  0.6723 -0.3122 -0.5247
 3522TIP3    H232126   4.554   1.746   1.498  0.2004  0.6968 -0.8575
 3523TIP3   OH232127   1.403   6.688   6.335  0.3833  0.0695  0.5015
 3523TIP3    H132128   1.368   6.738   6.408 -1.9763 -0.7582  0.0009
 3523TIP3    H232129   1.490   6.660   6.365  0.6149  2.0501  1.8610
 3524TIP3   OH232130   0.501   6.125   7.691  0.5450  0.6007 -0.0054
 3524TIP3    H132131   0.529   6.139   7.601  1.5578  0.5359  0.2935
 3524TIP3    H232132   0.440   6.051   7.686  3.7882 -2.3225 -0.1469
 3525TIP3   OH232133   1.691   5.917   7.617 -0.1500  0.4622  0.2355
 3525TIP3    H132134   1.715   5.982   7.551  0.5183 -1.1854 -1.2079
 3525TIP3    H232135   1.772   5.898   7.664 -0.1482  0.0354  0.0645
 3526TIP3   OH232136   1.566   1.419   0.418  0.4480 -0.9898 -0.4509
 3526TIP3    H132137   1.493   1.400   0.358  0.5853 -0.4544 -0.7960
 3526TIP3    H232138   1.597   1.333   0.445  0.7396 -1.2620 -1.5934
 3527TIP3   OH232139   6.139   3.006   1.097  0.1891 -0.5204  0.8059
 3527TIP3    H132140   6.178   2.961   1.022  2.3193  1.7050  0.4244
 3527TIP3    H232141   6.211   3.017   1.159 -0.0448  2.5107  0.7178
 3528TIP3   OH232142   1.074   1.874   8.101 -0.2259  0.2263 -0.2841
 3528TIP3    H132143   0.997   1.820   8.086 -0.1742  0.6273 -2.1686
 3528TIP3    H232144   1.075   1.937   8.029  1.4104  0.7561  0.1434
 3529TIP3   OH232145   3.294   5.906   7.921 -0.2339  0.1922 -0.0370
 3529TIP3    H132146   3.213   5.880   7.965  1.3166 -0.1509  2.9000
 3529TIP3    H232147   3.363   5.887   7.985  2.1214  1.1121 -2.1249
 3530TIP3   OH232148   3.046   2.687   8.117  0.2121 -0.5069  0.2131
 3530TIP3    H132149   3.073   2.772   8.151  3.1913 -1.6157  0.8556
 3530TIP3    H232150   2.973   2.661   8.174 -0.3492  1.2844  0.3851
 3531TIP3   OH232151   3.507   0.926   1.277 -0.7683 -0.0802 -0.5868
 3531TIP3    H132152   3.477   0.998   1.221  0.6022  1.4777  0.6038
 3531TIP3    H232153   3.450   0.931   1.354 -0.8490 -0.4550 -0.6227
 3532TIP3   OH232154   2.161   4.006   8.316  0.0319 -0.8861  0.0455
 3532TIP3    H132155   2.247   4.008   8.273 -1.0606 -1.3020 -2.2942
 3532TIP3    H232156   2.178   4.038   8.404  2.3702  0.2972 -0.7494
 3533TIP3   OH232157   1.027   1.817   1.019  0.0420 -0.3583  0.0414
 3533TIP3    H132158   0.943   1.773   1.033 -1.1054  1.1888 -1.5552
 3533TIP3    H232159   1.012   1.872   0.942  2.2946  0.5650  0.2100
 3534TIP3   OH232160   0.344   3.055   1.281 -0.3303  0.0688  0.1667
 3534TIP3    H132161   0.388   3.110   1.217  1.3225 -1.6829 -0.3027
 3534TIP3    H232162   0.358   3.100   1.365 -0.4369  1.1636 -0.3880
 3535TIP3   OH232163   5.884   5.536   0.688  0.0754  0.0274  0.2315
 3535TIP3    H132164   5.878   5.631   0.699  0.5219  0.2919 -1.4928
 3535TIP3    H232165   5.957   5.510   0.744 -0.8044  0.4922  1.6586
 3536TIP3   OH232166   2.441   5.259   8.558 -0.1628  0.2369  0.8618
 3536TIP3    H132167   2.428   5.343   8.602 -0.4862  1.4959 -1.4841
 3536TIP3    H232168   2.456   5.196   8.629 -1.9561  1.8791  2.8007
 3537TIP3   OH232169   2.187   2.570   0.569 -0.2227  0.0982  0.5169
 3537TIP3    H132170   2.205   2.615   0.487 -0.3921 -0.1991  0.3144
 3537TIP3    H232171   2.268   2.577   0.619  0.9613 -2.3452 -0.8965
 3538TIP3   OH232172   1.190   3.122   0.240  0.0449  0.4972 -0.6381
 3538TIP3    H132173   1.183   3.203   0.189  2.4452  0.5352 -0.9965
 3538TIP3    H232174   1.205   3.053   0.174  0.2654  0.1047 -0.1817
 3539TIP3   OH232175   4.551   2.133   8.525  0.2793 -0.1850  0.0318
 3539TIP3    H132176   4.482   2.094   8.472 -0.6554  2.5953 -0.9774
 3539TIP3    H232177   4.505   2.195   8.582  1.4737 -1.6745  2.8413
 3540TIP3   OH232178   4.339   0.067   1.385 -0.2138 -0.5961  0.0552
 3540TIP3    H132179   4.250   0.043   1.409 -0.2296  0.2116  0.8514
 3540TIP3    H232180   4.337   0.163   1.380  0.7455 -0.5322  0.6664
 3541TIP3   OH232181   6.804   2.353   0.889  0.0059  0.2003 -0.1724
 3541TIP3    H132182   6.806   2.388   0.800  0.9308 -2.7051 -1.4094
 3541TIP3    H232183   6.882   2.389   0.931  0.6600  0.0559 -1.2223
 3542TIP3   OH232184   0.081   4.069   7.025 -0.5405  0.4426  0.0480
 3542TIP3    H132185   0.028   4.122   6.966 -0.4995  0.5190  0.0785
 3542TIP3    H232186   0.166   4.061   6.981 -0.2177  1.2499  0.4907
 3543TIP3   OH232187   3.592   6.368   0.484  0.5599  0.2614 -0.0731
 3543TIP3    H132188   3.621   6.450   0.524  1.4175  0.1600 -0.4846
 3543TIP3    H232189   3.668   6.335   0.437  0.4259 -1.0931  0.6036
 3544TIP3   OH232190   5.253   6.291   7.681 -0.4299  0.3909 -0.4434
 3544TIP3    H132191   5.336   6.257   7.649 -1.5363 -2.7503 -0.3769
 3544TIP3    H232192   5.264   6.297   7.776 -0.2661  0.0241 -0.4382
 3545TIP3   OH232193   3.930   0.015   1.172  0.1753  0.1140 -0.4212
 3545TIP3    H132194   3.884  -0.065   1.197 -0.4311  0.9267  1.1725
 3545TIP3    H232195   4.010   0.015   1.224  0.2389  0.4808 -0.5134
 3546TIP3   OH232196   6.126   3.383   1.076  0.3267 -0.2362  0.2889
 3546TIP3    H132197   6.150   3.422   1.160 -0.1695  0.5905  0.0524
 3546TIP3    H232198   6.154   3.446   1.010 -2.5124  0.8622 -0.0089
 3547TIP3   OH232199   2.896   3.984   1.982 -0.1823  0.4317  0.1876
 3547TIP3    H132200   2.976   3.949   1.944 -0.4160 -2.0745  1.7976
 3547TIP3    H232201   2.918   4.007   2.072 -0.7948  1.7751  0.0342
 3548TIP3   OH232202   4.674   5.931   2.096 -0.5273  0.2356 -0.1484
 3548TIP3    H132203   4.637   5.992   2.032 -0.6896 -0.4693 -0.7479
 3548TIP3    H232204   4.598   5.891   2.138 -0.4964  2.6404  2.4956
 3549TIP3   OH232205   2.081   6.521   6.535  0.0056  0.2166 -0.0214
 3549TIP3    H132206   2.121   6.448   6.583  1.3083  0.3097 -0.9135
 3549TIP3    H232207   2.020   6.479   6.475 -0.4740 -0.0027  0.5992
 3550TIP3   OH232208   6.548   0.669   7.390 -0.2046  0.0759  0.3396
 3550TIP3    H132209   6.627   0.721   7.401 -0.0578 -0.1362  0.2932
 3550TIP3    H232210   6.554   0.635   7.301 -0.6476  0.5567  0.1223
 3551TIP3   OH232211   5.687   6.489   8.506  0.0466  0.0239  0.2327
 3551TIP3    H132212   5.776   6.507   8.477 -0.4763  1.3676 -0.6607
 3551TIP3    H232213   5.685   6.518   8.597  0.8314 -1.1720  0.6555
 3552TIP3   OH232214   1.317   0.442   0.290 -0.1477  0.4614  0.1333
 3552TIP3    H132215   1.268   0.360   0.284  0.4117 -0.1148  2.4704
 3552TIP3    H232216   1.377   0.439   0.215 -1.2144 -0.4816 -0.7270
 3553TIP3   OH232217   0.529   2.148   7.098  0.6578  0.1777  0.2727
 3553TIP3    H132218   0.495   2.163   7.010 -0.8804  2.2708  1.1365
 3553TIP3    H232219   0.593   2.077   7.088 -0.1565 -0.2740 -2.3376
 3554TIP3   OH232220   2.207   5.432   1.113 -0.7416  0.0204 -0.0449
 3554TIP3    H132221   2.186   5.354   1.061 -1.7085  0.1736  0.0951
 3554TIP3    H232222   2.285   5.469   1.072 -1.5102  0.1649 -1.4082
 3555TIP3   OH232223   4.764   0.293   1.393  0.3829  0.4458  0.5441
 3555TIP3    H132224   4.718   0.225   1.442  0.9007  1.3336  2.3670
 3555TIP3    H232225   4.697   0.360   1.377  0.1821  0.0961 -0.0971
 3556TIP3   OH232226   6.575   2.338   8.413  0.1781  0.4439  0.0281
 3556TIP3    H132227   6.548   2.264   8.359 -2.9131  1.7249 -0.3739
 3556TIP3    H232228   6.612   2.298   8.492  0.7299 -1.4597 -1.1300
 3557TIP3   OH232229   0.016   0.343   8.360 -0.0429 -0.0561 -0.3685
 3557TIP3    H132230  -0.036   0.368   8.436  2.4489  0.7782  1.1980
 3557TIP3    H232231   0.102   0.323   8.396  1.2653  0.4678 -2.9706
 3558TIP3   OH232232   5.076   1.271   8.167  0.2063 -0.7666  0.4042
 3558TIP3    H132233   5.134   1.346   8.179  1.5964 -1.7225 -0.0348
 3558TIP3    H232234   5.045   1.250   8.255 -0.2203  0.3064  0.5291
 3559TIP3   OH232235   3.851   6.679   7.505 -0.1807 -0.3203  0.7143
 3559TIP3    H132236   3.906   6.733   7.448 -2.6746  1.7619  0.0757
 3559TIP3    H232237   3.771   6.665   7.454  0.1470 -4.3849  1.0567
 3560TIP3   OH232238   6.537   1.988   8.126 -0.0844 -0.0681 -0.1802
 3560TIP3    H132239   6.528   1.968   8.219 -1.1838  0.9954 -0.0182
 3560TIP3    H232240   6.550   1.904   8.083  0.4028 -0.5673  0.9325
 3561TIP3   OH232241   5.821   0.691   1.246  0.3682  0.2629 -0.3700
 3561TIP3    H132242   5.815   0.774   1.199  3.1287  0.8581  0.1445
 3561TIP3    H232243   5.830   0.716   1.338  0.2372 -0.6581 -0.0950
 3562TIP3   OH232244   1.740   0.434   0.845 -0.1803 -0.4775 -0.0592
 3562TIP3    H132245   1.772   0.510   0.796  1.2457 -1.4074 -0.6459
 3562TIP3    H232246   1.717   0.370   0.778  1.8895 -1.8035  0.3873
 3563TIP3   OH232247   3.446   0.724   0.639  0.2129 -0.3678 -0.9299
 3563TIP3    H132248   3.523   0.771   0.608  0.4372 -0.1197 -0.0468
 3563TIP3    H232249   3.453   0.728   0.735 -0.0196 -1.7965 -0.8337
 3564TIP3   OH232250   5.324   2.615   1.145  0.3704  0.3092  0.0125
 3564TIP3    H132251   5.279   2.699   1.138  0.3967  0.3505  0.3175
 3564TIP3    H232252   5.279   2.558   1.082  0.0897  0.4349  0.0962
 3565TIP3   OH232253   5.181   3.131   7.403  0.1045 -0.0026  0.1187
 3565TIP3    H132254   5.176   3.225   7.386  1.1466 -0.1181 -0.8788
 3565TIP3    H232255   5.096   3.110   7.442 -0.1198  1.3584  0.4179
 3566TIP3   OH232256   0.865   0.027   8.232  0.7168  0.0969  0.0887
 3566TIP3    H132257   0.874   0.088   8.304  3.4130  1.2004 -1.0344
 3566TIP3    H232258   0.844   0.081   8.156  0.8014 -0.6500 -0.4876
 3567TIP3   OH232259   3.054   0.077   1.027 -0.1258  0.3094  0.0505
 3567TIP3    H132260   3.032   0.122   0.946  1.6490 -0.6141 -1.0048
 3567TIP3    H232261   3.144   0.104   1.046 -0.0544 -0.5266  0.9949
 3568TIP3   OH232262   3.035   0.457   1.418 -0.0847 -0.1636  0.6527
 3568TIP3    H132263   3.126   0.455   1.390  0.1263 -0.1298  1.3215
 3568TIP3    H232264   2.995   0.525   1.364  0.5403  0.5893  1.1220
 3569TIP3   OH232265   0.303   2.580   7.453  0.3398  0.1765  0.2083
 3569TIP3    H132266   0.216   2.597   7.489  0.3267 -1.1457  0.8629
 3569TIP3    H232267   0.303   2.486   7.434  0.2476  0.7476 -3.5532
 3570TIP3   OH232268   1.324   1.585   0.739  0.0767  0.2905  0.2355
 3570TIP3    H132269   1.326   1.567   0.645  2.9346  0.1370  0.2508
 3570TIP3    H232270   1.307   1.500   0.779  1.1203 -0.1013 -0.1065
 3571TIP3   OH232271   1.263   5.632   2.437  0.3307 -0.3562  0.1770
 3571TIP3    H132272   1.274   5.724   2.414 -0.4326 -0.7531 -1.9398
 3571TIP3    H232273   1.208   5.634   2.515 -0.4735  0.9673 -0.3844
 3572TIP3   OH232274   5.320   6.091   1.683 -0.4380 -0.1915  0.1181
 3572TIP3    H132275   5.270   6.134   1.614  0.5946 -1.6450 -1.6122
 3572TIP3    H232276   5.412   6.100   1.656 -0.0323 -1.0693  1.1168
 3573TIP3   OH232277   6.618   3.186   7.619  0.2819  0.2145  0.0593
 3573TIP3    H132278   6.602   3.256   7.682  1.0937  1.1831 -0.7820
 3573TIP3    H232279   6.533   3.172   7.576  0.3203  1.3091 -0.3865
 3574TIP3   OH232280   6.726   3.466   0.820  0.4626 -0.6752 -0.5770
 3574TIP3    H132281   6.652   3.432   0.870 -0.0144  1.3315  0.1745
 3574TIP3    H232282   6.803   3.427   0.861  0.0690  0.6862  1.6126
 3575TIP3   OH232283   4.417   1.161   0.572 -0.0155  0.0690 -0.0074
 3575TIP3    H132284   4.391   1.111   0.496 -2.5025  2.3789 -0.8163
 3575TIP3    H232285   4.336   1.179   0.619  0.9962  1.6731  1.2566
 3576TIP3   OH232286   6.588   6.742   1.897  0.4521  0.1591  0.7136
 3576TIP3    H132287   6.543   6.795   1.962 -0.8114 -0.2538  0.2072
 3576TIP3    H232288   6.553   6.772   1.813 -1.0316 -2.0470  0.4432
 3577TIP3   OH232289   2.880   4.711   8.325 -0.3612 -0.2194 -0.1504
 3577TIP3    H132290   2.939   4.689   8.254 -1.0998 -0.4987 -0.6893
 3577TIP3    H232291   2.936   4.714   8.403  0.4010 -0.1955 -0.6908
 3578TIP3   OH232292   1.307   1.849   0.163 -0.2433 -0.2609  0.6190
 3578TIP3    H132293   1.245   1.866   0.092 -3.0986 -2.6727  2.3085
 3578TIP3    H232294   1.254   1.855   0.242  1.7658 -2.1552  2.2230
 3579TIP3   OH232295   4.928   3.209   8.605  0.5293 -0.3195  0.3616
 3579TIP3    H132296   4.885   3.240   8.526  0.8801 -2.0136 -0.5397
 3579TIP3    H232297   4.954   3.289   8.651 -0.5202  0.6987 -0.7540
 3580TIP3   OH232298   4.757   0.816   8.098 -0.3563  0.4511  0.2083
 3580TIP3    H132299   4.671   0.856   8.086 -0.3156 -0.1826 -3.1805
 3580TIP3    H232300   4.820   0.886   8.081 -0.2311  0.3251  0.1448
 3581TIP3   OH232301   5.686   3.029   7.325  0.4536  0.4533  0.2666
 3581TIP3    H132302   5.766   3.054   7.279 -0.3875  2.1288 -0.3506
 3581TIP3    H232303   5.672   3.100   7.388 -0.3956  0.0310  0.5636
 3582TIP3   OH232304   2.028   5.519   0.666  0.3492  0.0315  0.0325
 3582TIP3    H132305   2.004   5.593   0.611 -0.1172  0.1666  0.4107
 3582TIP3    H232306   2.046   5.558   0.751 -0.1497 -0.3101  0.3010
 3583TIP3   OH232307   3.430   0.572   1.635  0.1505  0.0908  0.1630
 3583TIP3    H132308   3.433   0.538   1.725  0.3095  2.5393  1.1568
 3583TIP3    H232309   3.520   0.597   1.616  0.0242  0.0708 -0.4914
 3584TIP3   OH232310   0.659   2.412   1.724  0.0296 -0.4300  0.2694
 3584TIP3    H132311   0.596   2.346   1.750 -3.1709  0.8403 -3.3311
 3584TIP3    H232312   0.697   2.379   1.643 -0.7039  1.5049 -0.9294
 3585TIP3   OH232313   4.564   1.752   7.896  0.0562  0.7753  0.0463
 3585TIP3    H132314   4.620   1.806   7.839  1.7304 -0.2299  0.6544
 3585TIP3    H232315   4.626   1.696   7.944 -1.3175  1.1616  2.4287
 3586TIP3   OH232316   6.131   5.745   7.554  0.2552  0.2596 -0.4074
 3586TIP3    H132317   6.186   5.687   7.500  0.9656 -1.0379  1.5832
 3586TIP3    H232318   6.045   5.703   7.554  1.0836 -1.7066  2.1014
 3587TIP3   OH232319   2.780   3.583   8.569 -0.2342  0.3413 -0.6690
 3587TIP3    H132320   2.718   3.528   8.522  0.9033 -1.8248  0.2103
 3587TIP3    H232321   2.727   3.631   8.631 -1.3428  0.7099 -1.8707
 3588TIP3   OH232322   2.934   6.865   0.539 -0.4694  0.1509 -0.0288
 3588TIP3    H132323   3.016   6.836   0.580  0.2278  1.6969 -0.2603
 3588TIP3    H232324   2.880   6.895   0.612  0.1621  1.4353 -0.0566
 3589TIP3   OH232325   4.584   1.778   7.510  0.8922 -0.1639 -0.5022
 3589TIP3    H132326   4.639   1.819   7.577  0.7614 -0.2628 -0.3343
 3589TIP3    H232327   4.572   1.846   7.444 -0.2810  0.4537  0.3111
 3590TIP3   OH232328   3.050   1.033   7.734  0.1414  0.1600 -0.2331
 3590TIP3    H132329   3.074   0.966   7.798  0.2505 -0.6631 -1.1096
 3590TIP3    H232330   2.954   1.034   7.736  0.0740 -1.0768 -1.2300
 3591TIP3   OH232331   5.997   2.754   8.611 -0.5338  0.1892  0.5115
 3591TIP3    H132332   6.056   2.827   8.628 -0.2203 -0.1878  1.1218
 3591TIP3    H232333   6.055   2.682   8.584 -0.8066  0.0846  0.1972
 3592TIP3   OH232334   1.786   5.506   1.354  0.8344  0.1032  0.1960
 3592TIP3    H132335   1.758   5.557   1.278 -0.1100  0.5481  0.8210
 3592TIP3    H232336   1.727   5.431   1.356  1.0581 -0.0695  0.3043
 3593TIP3   OH232337   4.733   6.841   0.110  0.1700  0.1978  0.1975
 3593TIP3    H132338   4.801   6.823   0.044 -0.0110 -0.1329  0.1010
 3593TIP3    H232339   4.655   6.799   0.076 -0.3807  1.5219 -0.2457
 3594TIP3   OH232340   3.065   2.399   1.207 -0.4959  0.0440 -1.0456
 3594TIP3    H132341   2.978   2.380   1.172 -0.3282  0.3751 -1.6538
 3594TIP3    H232342   3.103   2.314   1.226 -2.1737 -0.1394  2.3524
 3595TIP3   OH232343   5.532   3.000   1.115 -0.5981 -0.1214 -0.3823
 3595TIP3    H132344   5.474   3.020   1.042 -1.5098 -2.0882 -0.2532
 3595TIP3    H232345   5.537   2.905   1.117  2.5721 -0.0849 -0.3170
 3596TIP3   OH232346   4.699   0.461   0.922  0.3336  0.1654  0.5576
 3596TIP3    H132347   4.638   0.436   0.991  0.7098  1.7066  1.4862
 3596TIP3    H232348   4.757   0.385   0.913 -2.1166 -1.7084 -0.9468
 3597TIP3   OH232349   1.969   3.489   7.801  1.1282  0.2244 -0.1133
 3597TIP3    H132350   1.976   3.500   7.707 -0.7224 -0.4095 -0.3673
 3597TIP3    H232351   1.885   3.530   7.824 -0.1147 -2.5248  0.6943
 3598TIP3   OH232352   2.583   5.962   0.398  0.1302  0.5509  0.0663
 3598TIP3    H132353   2.568   5.926   0.485  1.8280 -0.0269  0.1646
 3598TIP3    H232354   2.673   5.996   0.401  0.3780  0.1481 -1.5589
 3599TIP3   OH232355   0.289   2.438   0.189 -0.3732  0.1158 -0.0881
 3599TIP3    H132356   0.230   2.394   0.250 -2.2181  0.3293 -1.6324
 3599TIP3    H232357   0.341   2.367   0.151 -0.8065 -0.2944  0.0750
 3600TIP3   OH232358   4.988   1.087   7.361  0.2659 -0.4216 -0.0127
 3600TIP3    H132359   5.023   1.169   7.327 -0.1721 -0.7764 -1.4038
 3600TIP3    H232360   4.928   1.112   7.431  0.9177  0.3627  0.2819
 3601TIP3   OH232361   2.406   5.550   1.923 -0.5532  0.0415  0.1474
 3601TIP3    H132362   2.415   5.605   1.845 -0.8816  0.1179  0.1596
 3601TIP3    H232363   2.370   5.609   1.989  0.4615  0.1741  0.5924
 3602TIP3   OH232364   3.880   0.405   7.308  0.1848 -0.2436 -0.2077
 3602TIP3    H132365   3.949   0.378   7.247  0.4257  1.1045 -0.5520
 3602TIP3    H232366   3.812   0.443   7.252 -0.7631 -1.3519  0.1502
 3603TIP3   OH232367   5.238   4.090   2.173  0.3597 -0.1101  0.3304
 3603TIP3    H132368   5.247   4.118   2.264 -0.3051  0.2705  0.2846
 3603TIP3    H232369   5.150   4.116   2.148  0.7193  0.2916 -0.5976
 3604TIP3   OH232370   3.864   1.841   7.356 -0.4318  0.9025 -0.4926
 3604TIP3    H132371   3.792   1.870   7.300  0.0172  0.4204 -1.3377
 3604TIP3    H232372   3.861   1.745   7.351  0.2339  0.8791 -0.4919
 3605TIP3   OH232373   5.029   5.101   1.065 -0.1337  0.0490  0.3522
 3605TIP3    H132374   5.065   5.182   1.101 -1.9419  0.7767  0.6091
 3605TIP3    H232375   5.081   5.085   0.986  0.9603  0.8503  0.8748
 3606TIP3   OH232376   5.120   6.598   0.852  0.1871  0.7435  0.2052
 3606TIP3    H132377   5.026   6.609   0.842 -0.3481 -2.4687  0.4824
 3606TIP3    H232378   5.131   6.505   0.872  3.4970  0.8201 -0.6349
 3607TIP3   OH232379   3.401   1.875   0.252  0.1724  0.4996 -0.0815
 3607TIP3    H132380   3.439   1.948   0.301  2.6521  1.1781 -2.7041
 3607TIP3    H232381   3.412   1.900   0.160 -1.0770 -2.1678 -1.0637
 3608TIP3   OH232382   0.004   1.155   6.502  0.1499  0.2178  0.3370
 3608TIP3    H132383  -0.009   1.068   6.463 -1.4568  0.5689  0.0278
 3608TIP3    H232384   0.009   1.138   6.596 -1.4497 -0.1060  0.3857
 3609TIP3   OH232385   0.078   0.618   0.702 -0.0228  0.2798  0.6132
 3609TIP3    H132386   0.012   0.684   0.681 -0.3157 -0.0982  0.3218
 3609TIP3    H232387   0.111   0.643   0.789 -0.7116  0.3437  0.8602
 3610TIP3   OH232388   0.683   3.632   0.306  0.2608 -0.1435  0.0888
 3610TIP3    H132389   0.745   3.664   0.241 -0.4147  2.6104  0.6932
 3610TIP3    H232390   0.733   3.628   0.388  0.5264 -1.4052 -0.1213
 3611TIP3   OH232391   1.393   6.230   8.338 -0.1408  0.0506  0.0393
 3611TIP3    H132392   1.364   6.262   8.252 -0.1966 -0.8330 -0.2774
 3611TIP3    H232393   1.318   6.244   8.395  0.3745  2.0090  0.3222
 3612TIP3   OH232394   0.016   3.000   0.541  0.5674  0.1550  0.3976
 3612TIP3    H132395  -0.067   2.953   0.526  0.1688  1.0980 -0.5225
 3612TIP3    H232396   0.015   3.070   0.476  1.8592  0.5048  0.7300
 3613TIP3   OH232397   5.433   6.498   1.931 -0.5675  0.2147  0.0366
 3613TIP3    H132398   5.363   6.437   1.909 -0.5565 -0.4363  1.7098
 3613TIP3    H232399   5.476   6.459   2.007  1.3257  0.8367 -0.6626
 3614TIP3   OH232400   3.716   4.275   7.834  0.3457  0.1487  0.0565
 3614TIP3    H132401   3.780   4.346   7.840 -0.6061  0.9783  0.9772
 3614TIP3    H232402   3.763   4.197   7.860  0.8415  0.8398  1.2912
 3615TIP3   OH232403   2.617   6.119   2.510  0.4210 -0.5642 -0.1208
 3615TIP3    H132404   2.678   6.174   2.559 -0.5712  0.4158  0.0287
 3615TIP3    H232405   2.532   6.135   2.549  0.1434 -2.5429  0.2105
 3616TIP3   OH232406   6.120   1.966   8.195  0.3567 -0.1632  0.0802
 3616TIP3    H132407   6.144   1.886   8.241  1.6735 -0.6058 -1.2930
 3616TIP3    H232408   6.053   2.006   8.250  1.1404 -1.1588  1.8532
 3617TIP3   OH232409   1.837   6.479   8.667  1.0361  0.6362 -0.2854
 3617TIP3    H132410   1.879   6.414   8.610 -0.4971 -0.4271 -0.2589
 3617TIP3    H232411   1.846   6.443   8.755  0.7943  0.8109 -0.1883
 3618TIP3   OH232412   4.401   1.335   8.115 -0.2393 -0.4796 -0.1755
 3618TIP3    H132413   4.315   1.375   8.122 -0.2420 -0.4802 -0.2098
 3618TIP3    H232414   4.390   1.247   8.151  0.0724 -0.0122  1.1291
 3619TIP3   OH232415   6.055   2.712   1.776  0.1863  0.5038 -0.0619
 3619TIP3    H132416   5.969   2.753   1.770  0.6284  1.2732 -2.0013
 3619TIP3    H232417   6.062   2.659   1.697  1.0211 -0.5290  0.6891
 3620TIP3   OH232418   4.687   6.830   0.926  0.4981  0.0118  0.3938
 3620TIP3    H132419   4.748   6.762   0.956  1.9068  0.7726 -0.6107
 3620TIP3    H232420   4.699   6.902   0.987  1.0403  0.3687 -0.1185
 3621TIP3   OH232421   6.367   5.544   7.026  0.4739  0.0395  0.1826
 3621TIP3    H132422   6.277   5.521   7.005  0.6129 -0.5726  0.2166
 3621TIP3    H232423   6.361   5.617   7.087  0.0363  0.9439 -0.9263
 3622TIP3   OH232424   4.451   3.640   7.975  0.0035 -0.2636  0.2387
 3622TIP3    H132425   4.464   3.612   8.066 -0.1255  0.4051  0.4687
 3622TIP3    H232426   4.539   3.657   7.943 -0.0647  1.6337  0.9430
 3623TIP3   OH232427   0.149   5.452   7.163  0.1846  0.2697  0.2527
 3623TIP3    H132428   0.239   5.436   7.134 -0.1144  0.6462 -0.9297
 3623TIP3    H232429   0.107   5.366   7.160  0.4278  0.1382  0.5580
 3624TIP3   OH232430   4.046   3.653   2.485  0.3756 -0.0427 -0.2004
 3624TIP3    H132431   4.041   3.624   2.576 -0.8844  0.6057 -0.0434
 3624TIP3    H232432   3.958   3.642   2.451  0.0400  2.6436 -0.3985
 3625TIP3   OH232433   6.066   5.032   7.560 -0.7988  0.9249 -0.3523
 3625TIP3    H132434   6.108   4.953   7.595  0.1714  1.8798  0.7170
 3625TIP3    H232435   6.128   5.064   7.495 -1.2597  0.7315 -0.8873
 3626TIP3   OH232436   0.844   5.936   7.284 -0.1644  0.3100 -0.2463
 3626TIP3    H132437   0.783   5.900   7.220 -0.7055  0.9275 -0.0851
 3626TIP3    H232438   0.871   6.020   7.247 -0.1130  0.4523  0.1140
 3627TIP3   OH232439   1.348   3.448   7.575 -0.6125  0.0486  0.1605
 3627TIP3    H132440   1.334   3.541   7.594 -2.9887 -0.0520 -0.7655
 3627TIP3    H232441   1.277   3.404   7.620 -0.2762 -1.2012 -0.4988
 3628TIP3   OH232442   5.319   5.953   7.555 -0.1003  0.3597 -0.1862
 3628TIP3    H132443   5.402   5.907   7.544  1.0242  2.6653 -1.9609
 3628TIP3    H232444   5.269   5.930   7.477 -0.1657  0.9067 -0.3047
 3629TIP3   OH232445   3.074   2.748   0.610 -0.5451 -0.1052  0.1956
 3629TIP3    H132446   3.155   2.790   0.580  0.1035  0.3815  2.4262
 3629TIP3    H232447   3.018   2.822   0.636  0.4242 -0.4291  3.7155
 3630TIP3   OH232448   5.882   2.345   8.087 -0.3665  0.0061 -0.0884
 3630TIP3    H132449   5.826   2.322   8.012 -0.0222 -1.7128  0.1442
 3630TIP3    H232450   5.969   2.316   8.061 -0.3656 -1.2285  1.2353
 3631TIP3   OH232451   2.047   5.433   7.562  0.0786 -0.2489 -0.2879
 3631TIP3    H132452   2.137   5.450   7.587  0.1637 -1.9554  0.7244
 3631TIP3    H232453   2.005   5.519   7.561  1.7046  0.5700 -0.8161
 3632TIP3   OH232454   2.332   5.201   1.424 -0.0907 -0.2731  0.0027
 3632TIP3    H132455   2.351   5.121   1.376  0.1160  0.0966 -0.5405
 3632TIP3    H232456   2.249   5.183   1.468 -0.8915 -0.2114 -1.4355
 3633TIP3   OH232457   1.949   1.657   1.273 -0.1403 -0.0886  0.7143
 3633TIP3    H132458   2.038   1.675   1.304  0.8484 -0.3083 -1.7538
 3633TIP3    H232459   1.895   1.724   1.315  1.0986 -0.1834  2.5636
 3634TIP3   OH232460   5.045   5.820   1.521  0.1346  0.3878 -0.0769
 3634TIP3    H132461   5.067   5.853   1.434 -0.7751 -0.9510 -0.8447
 3634TIP3    H232462   4.973   5.759   1.507  1.7209 -1.9549  1.2612
 3635TIP3   OH232463   2.747   4.755   6.944 -0.2732 -0.0581 -0.4694
 3635TIP3    H132464   2.817   4.691   6.950 -0.9140 -0.7718 -0.3932
 3635TIP3    H232465   2.750   4.785   6.853 -0.9499 -1.3677 -0.9576
 3636TIP3   OH232466   3.587   0.090   7.335 -0.2940 -0.0443  0.4014
 3636TIP3    H132467   3.611  -0.002   7.343 -0.3186  0.0005  1.0806
 3636TIP3    H232468   3.648   0.136   7.394 -2.2802  0.0167  2.5847
 3637TIP3   OH232469   2.897   4.171   0.906  0.1333 -0.1131 -1.0437
 3637TIP3    H132470   2.880   4.256   0.948  1.4013  0.1259 -0.9953
 3637TIP3    H232471   2.989   4.174   0.881  0.1424 -1.4013 -1.2283
 3638TIP3   OH232472   5.467   3.186   7.898  0.4461  0.1400 -0.0937
 3638TIP3    H132473   5.484   3.099   7.861  1.9851  0.6032 -0.5210
 3638TIP3    H232474   5.426   3.235   7.827 -0.3849 -0.2014  0.1347
 3639TIP3   OH232475   2.015   6.633   8.363  0.2724 -0.2557 -0.4443
 3639TIP3    H132476   2.069   6.580   8.305 -1.3928 -1.2891 -1.1278
 3639TIP3    H232477   1.973   6.570   8.422  1.4936  0.7137  1.5847
 3640TIP3   OH232478   5.575   0.411   8.497  0.3964  0.1184 -0.3235
 3640TIP3    H132479   5.589   0.492   8.547 -0.5168 -0.0112  0.1497
 3640TIP3    H232480   5.553   0.345   8.562  0.9005 -0.4717 -0.7310
 3641TIP3   OH232481   0.568   1.153   0.191 -0.0399 -0.8840  0.1753
 3641TIP3    H132482   0.625   1.085   0.154  2.3051  1.7142 -1.3564
 3641TIP3    H232483   0.481   1.131   0.158  0.7587 -2.7164 -0.9116
 3642TIP3   OH232484   1.471   4.661   2.103 -0.0468  0.0160 -0.0956
 3642TIP3    H132485   1.530   4.721   2.149  0.3499 -0.1295 -0.4114
 3642TIP3    H232486   1.468   4.583   2.158  0.6849 -0.2860 -0.4712
 3643TIP3   OH232487   4.677   0.465   7.985 -0.0573  0.4309  0.4794
 3643TIP3    H132488   4.624   0.429   7.914 -1.3722  1.3449  0.9417
 3643TIP3    H232489   4.670   0.401   8.056  1.5598 -0.6629 -0.2920
 3644TIP3   OH232490   2.365   4.971   8.222 -0.0083 -0.1877 -0.0440
 3644TIP3    H132491   2.439   5.028   8.202 -0.3331  0.0501 -0.5771
 3644TIP3    H232492   2.397   4.882   8.207 -0.1960 -0.0254 -1.4715
 3645TIP3   OH232493   3.776   3.029   1.091 -0.1082 -0.0240 -0.1207
 3645TIP3    H132494   3.716   3.097   1.058  0.0114 -0.1868 -0.6945
 3645TIP3    H232495   3.794   2.975   1.014  2.1874  1.0399 -0.4036
 3646TIP3   OH232496   1.755   4.935   0.664 -0.3529  0.0319  0.6574
 3646TIP3    H132497   1.706   4.966   0.588 -0.3843 -2.4697 -0.4488
 3646TIP3    H232498   1.847   4.935   0.635  0.5016  4.2540  2.5622
 3647TIP3   OH232499   3.141   0.650   7.677  0.6585  0.1946 -0.4573
 3647TIP3    H132500   3.062   0.641   7.624  0.8673  1.0982 -0.9251
 3647TIP3    H232501   3.109   0.662   7.767  0.2627  0.9288 -0.6991
 3648TIP3   OH232502   2.080   1.545   0.288  0.3548  0.5536  0.5614
 3648TIP3    H132503   2.005   1.489   0.268  0.4891  0.9190 -1.0760
 3648TIP3    H232504   2.043   1.634   0.292  0.4415  0.5645  1.4044
 3649TIP3   OH232505   4.554   3.126   0.063 -0.4617 -0.8686 -0.0943
 3649TIP3    H132506   4.497   3.053   0.087 -0.5762  0.0072  2.7251
 3649TIP3    H232507   4.494   3.194   0.033 -0.5677 -1.1083 -0.4370
 3650TIP3   OH232508   0.264   0.901   7.239  0.6795 -0.0323  0.5384
 3650TIP3    H132509   0.312   0.831   7.284  1.1157  0.0281  0.1813
 3650TIP3    H232510   0.332   0.949   7.191  0.0679 -1.1076 -1.5695
 3651TIP3   OH232511   5.336   2.104   1.151  0.2814  0.0039 -0.2934
 3651TIP3    H132512   5.413   2.058   1.117 -0.3651  0.1438 -2.0789
 3651TIP3    H232513   5.371   2.183   1.192  1.0192  0.9966 -2.6817
 3652TIP3   OH232514   1.328   0.534   7.435 -0.3677  0.2463 -0.0417
 3652TIP3    H132515   1.244   0.554   7.394  0.4025  1.4073 -1.1506
 3652TIP3    H232516   1.314   0.549   7.529 -1.5747 -0.3159 -0.1126
 3653TIP3   OH232517   5.537   6.050   1.969 -0.4674  0.6074  0.1928
 3653TIP3    H132518   5.563   6.056   1.877  0.6369 -1.4061  0.3182
 3653TIP3    H232519   5.588   6.118   2.013  1.2689 -0.3434 -0.2686
 3654TIP3   OH232520   1.503   4.497   0.337  0.3867 -0.1745  0.4916
 3654TIP3    H132521   1.425   4.544   0.368 -0.0135 -0.8388  0.4953
 3654TIP3    H232522   1.574   4.562   0.344 -0.3750  0.8389 -0.6890
 3655TIP3   OH232523   1.304   6.533   7.502 -0.0056 -0.4777  0.3304
 3655TIP3    H132524   1.328   6.467   7.568  0.1523 -1.3627 -0.5850
 3655TIP3    H232525   1.211   6.547   7.514 -0.0719 -0.9912  0.4366
 3656TIP3   OH232526   1.118   0.027   8.026 -0.0267  0.1808 -0.6258
 3656TIP3    H132527   1.090  -0.010   7.942 -1.4649  1.1533 -0.5975
 3656TIP3    H232528   1.106  -0.044   8.089  0.1216 -0.2431 -1.0701
 3657TIP3   OH232529   3.587   1.281   7.626 -0.1647  0.2591 -0.5896
 3657TIP3    H132530   3.568   1.365   7.668 -0.0797  0.3859 -0.8079
 3657TIP3    H232531   3.523   1.274   7.556 -0.7744 -0.2787 -0.0015
 3658TIP3   OH232532   4.691   4.283   8.602 -0.0188 -0.2453 -0.8234
 3658TIP3    H132533   4.686   4.306   8.510  0.5484 -1.8917 -1.2961
 3658TIP3    H232534   4.650   4.197   8.608  1.0936 -0.7291  0.2330
 3659TIP3   OH232535   5.590   6.162   1.696  0.8390 -0.6998  0.0086
 3659TIP3    H132536   5.605   6.171   1.602  3.5666  1.6554  0.5123
 3659TIP3    H232537   5.667   6.114   1.728  1.3956  0.9437  1.3001
 3660TIP3   OH232538   3.110   3.898   8.246  0.4324 -0.2283 -0.4071
 3660TIP3    H132539   3.088   3.963   8.313 -0.2813  1.1370 -1.9144
 3660TIP3    H232540   3.034   3.841   8.243  0.1732  0.1220 -0.5346
 3661TIP3   OH232541   2.636   4.716   1.584 -0.5131 -0.0129  0.7870
 3661TIP3    H132542   2.608   4.791   1.635 -0.2511  0.3495  0.4012
 3661TIP3    H232543   2.617   4.739   1.494 -2.1728 -1.1696  0.7877
 3662TIP3   OH232544   1.913   3.067   1.021  0.4002 -0.1690 -0.4499
 3662TIP3    H132545   1.821   3.055   1.047  0.7107  1.6974  1.8386
 3662TIP3    H232546   1.959   2.992   1.060  0.1504  0.0666  0.3168
 3663TIP3   OH232547   5.432   0.882   2.274 -0.3012  0.1015  0.2466
 3663TIP3    H132548   5.525   0.902   2.275 -0.1436  0.7952 -4.5467
 3663TIP3    H232549   5.425   0.803   2.219 -2.4923 -0.7283  1.5847
 3664TIP3   OH232550   0.726   0.634   1.458 -0.3618 -0.0892  0.2390
 3664TIP3    H132551   0.633   0.656   1.447 -0.2193  0.1821 -0.4919
 3664TIP3    H232552   0.772   0.702   1.411  0.3309  0.9781  2.3421
 3665TIP3   OH232553   4.871   5.250   8.153 -0.1850  0.2884  0.1218
 3665TIP3    H132554   4.935   5.313   8.186  1.2005 -1.4642  0.9396
 3665TIP3    H232555   4.884   5.250   8.058 -0.1885  1.1680  0.1070
 3666TIP3   OH232556   5.903   1.983   7.978  0.5502  0.3603  0.3232
 3666TIP3    H132557   5.893   1.894   8.010 -2.0820  0.4257 -0.1544
 3666TIP3    H232558   5.946   1.974   7.893 -0.1872 -0.4967  0.0372
 3667TIP3   OH232559   2.496   3.908   1.199 -0.3585 -0.2650  0.7102
 3667TIP3    H132560   2.579   3.952   1.220  0.3580 -1.5730  0.7400
 3667TIP3    H232561   2.438   3.978   1.170  0.9072  0.6248  0.2479
 3668TIP3   OH232562   0.845   5.730   7.623  0.2290 -0.3951  0.0373
 3668TIP3    H132563   0.833   5.700   7.532 -1.0890  1.6344 -0.5180
 3668TIP3    H232564   0.849   5.825   7.617  0.0529 -0.2081  2.1301
 3669TIP3   OH232565   5.679   0.209   7.832 -0.0257 -0.8074 -1.0503
 3669TIP3    H132566   5.728   0.266   7.891  0.4245 -2.1594 -0.0555
 3669TIP3    H232567   5.588   0.217   7.860  0.1702 -1.3487 -0.2209
 3670TIP3   OH232568   2.350   0.793   8.031  0.0753  0.2682 -0.7502
 3670TIP3    H132569   2.364   0.717   7.975  1.0289 -1.0439  1.1434
 3670TIP3    H232570   2.430   0.844   8.023 -0.9896  1.7532 -2.8742
 3671TIP3   OH232571   2.580   6.482   0.653  0.1474 -0.4183 -0.1297
 3671TIP3    H132572   2.670   6.495   0.683  0.2029  1.0947 -0.8349
 3671TIP3    H232573   2.531   6.456   0.731  0.7380  1.1150  0.7833
 3672TIP3   OH232574   2.686   0.176   7.332  0.1695  0.0118 -0.0413
 3672TIP3    H132575   2.650   0.246   7.277 -1.4967  0.0572  1.0370
 3672TIP3    H232576   2.737   0.123   7.271  0.4316  1.4349 -1.1412
 3673TIP3   OH232577   2.196   3.705   0.093 -0.1815 -0.6905  0.1623
 3673TIP3    H132578   2.266   3.689   0.156  1.9190  0.9625 -1.5495
 3673TIP3    H232579   2.240   3.750   0.020 -3.0510  0.4521 -1.0210
 3674TIP3   OH232580   2.964   3.053   0.005 -0.4321  0.3095 -0.7031
 3674TIP3    H132581   2.898   2.983   0.008 -0.7563  0.6607  0.5250
 3674TIP3    H232582   3.048   3.007   0.012 -0.5944 -0.0392 -1.0097
 3675TIP3   OH232583   5.759   0.870   0.079  0.0824 -0.1285  0.3286
 3675TIP3    H132584   5.759   0.895   0.172  2.1466 -0.2465  0.4074
 3675TIP3    H232585   5.689   0.923   0.041 -1.6466 -0.9587  2.1300
 3676TIP3   OH232586   3.119   0.846   7.933 -0.3408 -0.2263  0.0497
 3676TIP3    H132587   3.034   0.802   7.922 -0.3697 -0.6303  1.5916
 3676TIP3    H232588   3.182   0.775   7.939 -0.1741 -0.0112  0.9631
 3677TIP3   OH232589   6.236   3.084   7.846 -0.6733 -0.2356 -0.1772
 3677TIP3    H132590   6.316   3.032   7.834  0.4605  1.8218 -2.3274
 3677TIP3    H232591   6.267   3.174   7.856 -2.6317  0.3048  2.1454
 3678TIP3   OH232592   5.409   3.520   8.460  0.3322 -0.1371 -0.0260
 3678TIP3    H132593   5.359   3.447   8.498  0.4804  0.2959  1.0332
 3678TIP3    H232594   5.345   3.566   8.405  0.3141 -1.2183 -0.9397
 3679TIP3   OH232595   2.012   0.122   0.952 -0.1252 -0.0597 -0.3633
 3679TIP3    H132596   2.054   0.197   0.910  1.6346 -0.6780  0.1901
 3679TIP3    H232597   1.977   0.158   1.034 -1.2709  0.5944 -1.1121
 3680TIP3   OH232598   0.167   1.736   7.343 -0.2245  0.0479  0.1712
 3680TIP3    H132599   0.096   1.673   7.326  0.8445 -0.9187 -0.8778
 3680TIP3    H232600   0.124   1.809   7.387 -1.8409 -0.6031 -0.2531
 3681TIP3   OH232601   6.102   4.270   8.133  0.5751 -0.1308 -0.1756
 3681TIP3    H132602   6.194   4.245   8.144  0.1293 -1.9760 -0.4234
 3681TIP3    H232603   6.076   4.233   8.049 -0.4771  0.1328  0.0202
 3682TIP3   OH232604   4.450   3.614   7.362  0.3765 -0.0219 -0.2163
 3682TIP3    H132605   4.408   3.648   7.441  2.5268  1.7270  0.2894
 3682TIP3    H232606   4.392   3.642   7.290 -1.8517 -2.0351  0.6474
 3683TIP3   OH232607   1.274   6.334   8.623  0.2148  0.0063  0.8481
 3683TIP3    H132608   1.236   6.422   8.628  0.2823  0.4755 -3.5744
 3683TIP3    H232609   1.364   6.345   8.651 -0.0340  1.1105  1.2792
 3684TIP3   OH232610   2.365   4.606   8.265  0.0681  0.2021  0.3527
 3684TIP3    H132611   2.296   4.613   8.331  0.5479 -1.3008  1.0481
 3684TIP3    H232612   2.445   4.594   8.316  1.0004  2.5029 -0.4081
 3685TIP3   OH232613   1.982   1.294   8.492 -0.0637 -0.3234  0.5475
 3685TIP3    H132614   1.996   1.200   8.484  0.1140 -0.1721 -1.6336
 3685TIP3    H232615   2.068   1.333   8.478 -0.5329  0.2012 -1.2138
 3686TIP3   OH232616   1.543   6.667   7.441  0.5395  0.0287 -0.0652
 3686TIP3    H132617   1.454   6.632   7.435  0.0487  1.3654 -0.8853
 3686TIP3    H232618   1.591   6.619   7.374 -0.1992  1.0719 -1.3855
 3687TIP3   OH232619   1.703   1.928   1.781  0.2286  0.9283  0.2790
 3687TIP3    H132620   1.718   1.980   1.701  2.3762  0.4798  0.3137
 3687TIP3    H232621   1.776   1.952   1.838 -0.5727  0.2793  1.6164
 3688TIP3   OH232622   4.941   0.801   0.383  0.6326 -0.0447 -0.5329
 3688TIP3    H132623   5.003   0.836   0.319  1.1778  0.2839  0.1589
 3688TIP3    H232624   4.938   0.707   0.364  0.2790  0.1423 -1.4567
 3689TIP3   OH232625   2.626   5.312   6.997  0.1050 -0.0421 -0.3080
 3689TIP3    H132626   2.696   5.377   6.989  0.8822 -0.7871  0.2167
 3689TIP3    H232627   2.545   5.364   6.997  0.5008  0.7120 -2.8510
 3690TIP3   OH232628   2.290   3.789   7.517 -0.9137  0.1311  0.4078
 3690TIP3    H132629   2.202   3.815   7.542 -1.6585 -1.6524 -0.1928
 3690TIP3    H232630   2.347   3.833   7.581 -2.2274  1.2142  0.8773
 3691TIP3   OH232631   0.720   1.231   7.105  0.1566  0.0836 -0.4115
 3691TIP3    H132632   0.660   1.290   7.060 -1.0023 -0.8318 -0.1018
 3691TIP3    H232633   0.746   1.278   7.184 -0.6622  0.2319 -0.2262
 3692TIP3   OH232634   2.478   3.722   2.515  0.5012 -0.1958 -0.2641
 3692TIP3    H132635   2.537   3.653   2.486  1.0951 -1.1076  2.7032
 3692TIP3    H232636   2.535   3.798   2.529  0.1288  0.4175 -1.8642
 3693TIP3   OH232637   1.233   3.912   7.098  0.2421  0.1272  0.7757
 3693TIP3    H132638   1.243   4.005   7.118 -1.6666  0.2456  1.3800
 3693TIP3    H232639   1.323   3.877   7.100  0.9508  1.8593  0.9085
 3694TIP3   OH232640   1.828   3.807   1.068  0.1601  0.7638 -0.1660
 3694TIP3    H132641   1.773   3.885   1.079  0.1745  0.8249 -0.5346
 3694TIP3    H232642   1.918   3.842   1.072  0.2510  0.4517  2.2949
 3695TIP3   OH232643   3.994   5.198   7.688  0.1350 -0.2878 -0.4081
 3695TIP3    H132644   4.086   5.224   7.683  0.3104 -0.8382 -0.1864
 3695TIP3    H232645   3.997   5.107   7.719 -0.5490  0.2547  1.3539
 3696TIP3   OH232646   6.432   5.375   0.138  0.0089  1.0929  0.1399
 3696TIP3    H132647   6.478   5.446   0.095  2.1600 -0.9825 -1.2551
 3696TIP3    H232648   6.475   5.367   0.223 -0.1096  1.3563  0.2237
 3697TIP3   OH232649   4.934   6.019   7.960  0.0389  0.0527 -0.1488
 3697TIP3    H132650   4.965   5.975   7.881 -0.0696  0.4647 -0.4258
 3697TIP3    H232651   4.840   6.003   7.962  0.0228  0.1424 -0.1691
 3698TIP3   OH232652   2.326   2.505   1.928 -0.6127  0.1188  0.4622
 3698TIP3    H132653   2.302   2.419   1.963 -0.1153 -0.2534 -0.0743
 3698TIP3    H232654   2.362   2.553   2.003  1.1939 -0.9529  0.3563
 3699TIP3   OH232655   2.152   5.986   1.170  0.1226 -0.0405 -0.0449
 3699TIP3    H132656   2.081   6.021   1.224  0.7083 -0.5264  1.0734
 3699TIP3    H232657   2.148   5.892   1.183  1.6640 -0.0034  0.9503
 3700TIP3   OH232658   6.078   2.870   0.686 -0.2111  0.6022  0.2265
 3700TIP3    H132659   6.026   2.793   0.707 -1.0603  1.4724  1.4284
 3700TIP3    H232660   6.057   2.890   0.595 -1.2774  0.3926  0.4208
 3701TIP3   OH232661   3.186   6.468   0.514  0.1680 -0.0163 -0.1965
 3701TIP3    H132662   3.240   6.419   0.451 -0.2250 -0.3353 -0.2929
 3701TIP3    H232663   3.241   6.541   0.542  0.5055 -0.1207 -0.5842
 3702TIP3   OH232664   4.876   1.343   1.539 -0.3194 -0.2968  0.3980
 3702TIP3    H132665   4.871   1.253   1.506 -0.0279  0.2789 -1.3497
 3702TIP3    H232666   4.968   1.354   1.564  0.9011  0.8272 -3.7508
 3703TIP3   OH232667   0.364   0.292   1.387  0.4802  0.3130 -0.0773
 3703TIP3    H132668   0.438   0.238   1.415  2.5539  1.2624 -3.1819
 3703TIP3    H232669   0.307   0.232   1.339 -0.3869 -0.2293  1.5477
 3704TIP3   OH232670   4.284   6.058   2.289  1.1495  0.3442  0.4630
 3704TIP3    H132671   4.224   5.993   2.252  0.7147  0.0013  1.7094
 3704TIP3    H232672   4.293   6.125   2.222 -1.4617  0.9435  0.6373
 3705TIP3   OH232673   0.952   2.206   8.687 -0.0398 -0.4096  0.5551
 3705TIP3    H132674   0.909   2.157   8.757 -0.3215 -1.4058 -0.2793
 3705TIP3    H232675   1.035   2.160   8.673  1.3027  1.4138  2.0629
 3706TIP3   OH232676   4.468   5.130   7.237 -0.2092  0.4703  0.1994
 3706TIP3    H132677   4.380   5.163   7.254 -0.3404 -0.5951  1.7239
 3706TIP3    H232678   4.458   5.035   7.232  1.2427 -0.0041  3.5181
 3707TIP3   OH232679   4.105   1.176   7.612 -0.0057  0.4457 -0.0069
 3707TIP3    H132680   4.139   1.207   7.696  2.5021  1.1321 -1.2152
 3707TIP3    H232681   4.020   1.220   7.604 -0.2876  0.4197  2.0979
 3708TIP3   OH232682   6.042   6.458   0.716 -0.2537 -0.1034  0.0101
 3708TIP3    H132683   6.076   6.525   0.657  0.6087  0.0915  0.7030
 3708TIP3    H232684   6.110   6.448   0.783 -0.9436 -0.7442  0.6386
 3709TIP3   OH232685   6.212   3.752   8.381 -1.1274  0.1808  0.0613
 3709TIP3    H132686   6.229   3.788   8.469 -2.0218  0.0371  0.3014
 3709TIP3    H232687   6.117   3.761   8.370 -1.1728 -0.8438 -0.4326
 3710TIP3   OH232688   1.079   5.999   1.231  0.3249  0.0821 -0.0207
 3710TIP3    H132689   1.018   5.976   1.301 -0.8378 -0.9344 -1.3001
 3710TIP3    H232690   1.047   5.950   1.155  0.8719  2.0204 -1.5646
 3711TIP3   OH232691   2.603   0.746   1.424  0.3175  0.2886  0.0783
 3711TIP3    H132692   2.557   0.667   1.452 -0.5210  1.2409  1.5292
 3711TIP3    H232693   2.626   0.729   1.333 -0.2883 -1.4064  0.1943
 3712TIP3   OH232694   3.036   0.013   1.508  0.0220 -0.3059  0.3623
 3712TIP3    H132695   3.072  -0.036   1.582  1.0624  0.5044  0.4197
 3712TIP3    H232696   3.075   0.100   1.516 -1.9263  0.6128  0.3720
 3713TIP3   OH232697   1.747   1.552   1.977 -0.5006  0.2782 -0.2172
 3713TIP3    H132698   1.814   1.562   1.910 -0.3114  0.5045  0.0000
 3713TIP3    H232699   1.775   1.475   2.027 -0.9325 -0.2101 -0.7276
 3714TIP3   OH232700   1.971   0.968   2.183  0.0277 -0.1728 -0.2787
 3714TIP3    H132701   1.998   1.039   2.242  0.9263  0.3733 -1.3083
 3714TIP3    H232702   1.957   0.893   2.241  1.7736  0.0973  0.5537
 3715TIP3   OH232703   0.548   0.682   8.323 -0.1355  0.2765 -0.5466
 3715TIP3    H132704   0.573   0.607   8.270 -0.2989 -1.2916  1.4569
 3715TIP3    H232705   0.613   0.749   8.302  1.1029 -1.0457 -1.1115
 3716TIP3   OH232706   1.283   6.301   7.365  0.4026  0.1453 -0.1694
 3716TIP3    H132707   1.189   6.307   7.347  0.6216 -1.2977 -2.2275
 3716TIP3    H232708   1.306   6.387   7.400 -1.7935  0.2825  1.1499
 3717TIP3   OH232709   0.283   5.177   1.406  0.0920  0.0197  0.3557
 3717TIP3    H132710   0.317   5.102   1.357 -0.0493 -0.3861  0.8756
 3717TIP3    H232711   0.321   5.168   1.493  0.5068  0.8489  0.2743
 3718TIP3   OH232712   4.140   2.298   1.197  0.5197 -0.3618  0.0270
 3718TIP3    H132713   4.176   2.385   1.179 -0.7807  0.2233  0.1643
 3718TIP3    H232714   4.058   2.295   1.148  0.6390 -1.5966 -0.1360
 3719TIP3   OH232715   1.005   1.997   7.839  0.5598  0.4659 -0.4200
 3719TIP3    H132716   0.954   2.064   7.793 -0.5717  1.0172  1.5562
 3719TIP3    H232717   0.945   1.923   7.849  0.5947  0.5662  0.6394
 3720TIP3   OH232718   4.411   0.795   7.337 -0.5208  0.0281 -0.0099
 3720TIP3    H132719   4.492   0.846   7.336  0.9343 -2.0528  1.6001
 3720TIP3    H232720   4.429   0.721   7.279 -1.0263 -0.7557  0.7975
 3721TIP3   OH232721   1.838   2.668   8.301 -0.1513 -0.3910  0.5418
 3721TIP3    H132722   1.909   2.657   8.238 -0.1400  1.2682  0.2118
 3721TIP3    H232723   1.849   2.596   8.363  0.0680 -1.8245 -1.1094
 3722TIP3   OH232724   3.636   4.710   0.109 -0.2363 -0.1502 -0.4572
 3722TIP3    H132725   3.711   4.738   0.057 -0.1914  1.7005  0.5239
 3722TIP3    H232726   3.568   4.774   0.089 -0.5955 -0.0969  0.8480
 3723TIP3   OH232727   5.654   1.821   8.670  0.2777  0.1721 -0.0080
 3723TIP3    H132728   5.584   1.804   8.733 -1.7550  1.6043 -1.7497
 3723TIP3    H232729   5.686   1.909   8.691 -1.5524  1.3675 -1.8520
 3724TIP3   OH232730   4.007   2.534   0.272 -0.0089  0.3493  0.5141
 3724TIP3    H132731   4.094   2.539   0.233 -0.3300 -1.6087 -0.5624
 3724TIP3    H232732   3.966   2.618   0.251  1.2824  0.9342  0.2607
 3725TIP3   OH232733   4.723   5.907   0.820  0.5091 -0.2198 -0.5125
 3725TIP3    H132734   4.656   5.839   0.810 -0.7184  0.7134  0.8529
 3725TIP3    H232735   4.701   5.972   0.753 -0.6113  0.5585  0.5704
 3726TIP3   OH232736   5.457   3.954   1.234 -0.1912  0.0714  0.1219
 3726TIP3    H132737   5.505   3.872   1.241 -1.1657 -0.5449 -0.2768
 3726TIP3    H232738   5.465   3.980   1.142 -1.7046 -0.7390 -0.2771
 3727TIP3   OH232739   1.975   0.500   1.169  0.6289 -0.0617 -0.0491
 3727TIP3    H132740   1.972   0.587   1.129  1.8051  0.1077  0.2048
 3727TIP3    H232741   1.894   0.458   1.140 -0.9952  1.8150  1.4530
 3728TIP3   OH232742   0.916   2.026   1.664  0.1311  0.2654  0.3478
 3728TIP3    H132743   1.003   1.993   1.688  0.0784 -1.0260 -1.0682
 3728TIP3    H232744   0.856   1.981   1.723  0.2957 -0.1907  0.1739
 3729TIP3   OH232745   5.683   2.370   7.446 -0.1358 -0.0007  0.1397
 3729TIP3    H132746   5.680   2.332   7.534  0.3580 -2.3392 -0.7838
 3729TIP3    H232747   5.646   2.302   7.390  0.1249  1.2047 -1.5569
 3730TIP3   OH232748   3.134   3.552   8.460 -0.2855  0.3714  0.0469
 3730TIP3    H132749   3.180   3.559   8.376 -1.7954  0.3461 -0.8208
 3730TIP3    H232750   3.155   3.633   8.506  1.4803 -0.1034  0.1688
 3731TIP3   OH232751   4.917   4.310   1.053 -0.0334  0.7052 -0.4502
 3731TIP3    H132752   4.971   4.231   1.040 -0.3482  0.2606  0.8291
 3731TIP3    H232753   4.855   4.308   0.980  0.1348 -0.0917 -0.5876
 3732TIP3   OH232754   2.566   0.373   0.263  0.6395  0.1154 -0.5938
 3732TIP3    H132755   2.627   0.378   0.336  0.3242 -1.1097 -0.2260
 3732TIP3    H232756   2.612   0.321   0.197  0.4223  0.1450 -0.7718
 3733TIP3   OH232757   3.966   6.131   0.060  0.1361  0.4085 -0.7893
 3733TIP3    H132758   3.971   6.036   0.051 -0.4773 -0.0212  2.1530
 3733TIP3    H232759   4.052   6.157   0.093 -1.0071  0.0635  2.9406
 3734TIP3   OH232760   3.862   0.408   6.995 -0.4976  0.3923 -0.4421
 3734TIP3    H132761   3.864   0.342   6.925 -1.0467 -0.6922  0.5384
 3734TIP3    H232762   3.770   0.411   7.022  0.0408 -0.7314  1.6402
 3735TIP3   OH232763   6.613   3.197   8.112  0.2434  0.3095 -0.1561
 3735TIP3    H132764   6.678   3.242   8.166  0.5458 -0.4235  0.1129
 3735TIP3    H232765   6.661   3.125   8.071 -0.7138 -1.3750  1.4549
 3736TIP3   OH232766   0.099   3.672   7.023 -0.8113 -0.4013  0.0957
 3736TIP3    H132767   0.116   3.701   6.934 -1.8139 -0.4176 -0.1138
 3736TIP3    H232768   0.045   3.741   7.061 -0.9456 -0.7104  0.4711
 3737TIP3   OH232769   6.002   2.825   7.711  0.5162  0.5686 -0.1135
 3737TIP3    H132770   5.992   2.901   7.768 -0.6295  1.1618 -1.0678
 3737TIP3    H232771   5.978   2.856   7.624  0.2287 -0.8278 -0.5655
 3738TIP3   OH232772   6.584   1.852   6.394 -0.7943  0.3608 -0.3954
 3738TIP3    H132773   6.652   1.803   6.440 -0.7501 -0.6310 -1.4722
 3738TIP3    H232774   6.602   1.944   6.414  1.4659  0.1958 -1.4628
 3739TIP3   OH232775   2.238   0.624   1.176 -0.7361  0.9264 -0.1391
 3739TIP3    H132776   2.161   0.566   1.177  0.5192 -0.9105 -2.0038
 3739TIP3    H232777   2.235   0.669   1.260 -2.6351 -0.7261  0.7645
 3740TIP3   OH232778   2.567   0.694   1.781  0.1957  0.1378 -0.3096
 3740TIP3    H132779   2.554   0.628   1.850  0.2153  0.5997  0.1389
 3740TIP3    H232780   2.600   0.644   1.707  0.5905 -0.3077  0.1590
 3741TIP3   OH232781   1.922   4.649   0.044  0.4964 -0.2137  0.3846
 3741TIP3    H132782   1.852   4.713   0.038  2.0391  1.5296  0.0294
 3741TIP3    H232783   1.904   4.587  -0.027  1.0247  2.0403 -1.8601
 3742TIP3   OH232784   1.050   3.747   0.799  0.1266 -0.4643  0.2039
 3742TIP3    H132785   0.961   3.712   0.797  0.4806 -1.5833  1.8072
 3742TIP3    H232786   1.042   3.831   0.843 -0.1689 -0.4079  0.0445
 3743TIP3   OH232787   4.123   4.247   2.544  0.0826 -0.0390  0.3062
 3743TIP3    H132788   4.029   4.230   2.557 -0.0746  0.4881 -0.0933
 3743TIP3    H232789   4.130   4.342   2.544  0.7189 -0.0763  0.9787
 3744TIP3   OH232790   5.680   4.672   8.068  0.4660  0.1926  0.1601
 3744TIP3    H132791   5.649   4.582   8.054  0.8161  0.0033  0.6063
 3744TIP3    H232792   5.720   4.671   8.155  0.3676  0.8114  0.2163
 3745TIP3   OH232793   3.206   5.734   7.587  0.1025  0.0836 -0.5178
 3745TIP3    H132794   3.126   5.690   7.560 -0.1485 -0.0521  0.4183
 3745TIP3    H232795   3.178   5.823   7.610  0.1138 -0.1326  0.3598
 3746TIP3   OH232796   3.274   3.039   8.506 -0.0308  0.2210 -0.0615
 3746TIP3    H132797   3.249   3.131   8.501 -2.0684 -0.3588 -2.7863
 3746TIP3    H232798   3.267   3.017   8.599 -0.5175  2.5277  0.5036
 3747TIP3   OH232799   5.232   2.640   7.491 -0.7284 -0.3432  0.5105
 3747TIP3    H132800   5.296   2.690   7.543 -1.1275 -1.0729  1.7530
 3747TIP3    H232801   5.148   2.682   7.509 -0.6467  0.4779 -0.9487
 3748TIP3   OH232802   4.992   6.813   1.934  0.9474  0.2398 -0.1930
 3748TIP3    H132803   5.052   6.887   1.927 -0.3413  1.2545 -0.8321
 3748TIP3    H232804   4.963   6.814   2.025 -0.1890  1.4616 -0.5390
 3749TIP3   OH232805   0.032   0.608   0.297  0.4220  0.3456 -0.0671
 3749TIP3    H132806   0.118   0.592   0.257  0.2743  0.3364 -0.3845
 3749TIP3    H232807  -0.011   0.522   0.296  0.0196  0.5430 -0.8418
 3750TIP3   OH232808   3.396   3.164   8.232  0.3946 -0.1784 -0.3673
 3750TIP3    H132809   3.349   3.143   8.313  2.0763 -0.6358  0.5384
 3750TIP3    H232810   3.479   3.202   8.261  1.3113 -0.9402 -1.8534
 3751TIP3   OH232811   0.415   6.414   1.996 -0.5697 -0.1399 -0.2517
 3751TIP3    H132812   0.407   6.396   2.089  1.6131 -0.9796 -0.1559
 3751TIP3    H232813   0.400   6.329   1.954  1.4795 -0.5112 -0.3814
 3752TIP3   OH232814   2.216   3.233   8.469 -0.1290 -0.3682 -0.6631
 3752TIP3    H132815   2.242   3.145   8.496 -0.9014 -1.4238 -3.0407
 3752TIP3    H232816   2.279   3.257   8.401  0.3889  1.1812  0.3115
 3753TIP3   OH232817   3.610   2.757   6.984  0.1649 -0.2517  0.2532
 3753TIP3    H132818   3.704   2.741   6.985  0.1530 -0.5016  2.5020
 3753TIP3    H232819   3.601   2.850   7.005 -0.1019  0.3168 -2.0153
 3754TIP3   OH232820   5.531   3.929   0.944 -0.3838  0.0154 -0.0434
 3754TIP3    H132821   5.496   3.875   0.873 -0.2969  1.2150 -1.0329
 3754TIP3    H232822   5.579   3.999   0.899 -1.6622  1.7212  1.1046
 3755TIP3   OH232823   6.209   2.174   0.651  0.0960  0.2378 -0.0941
 3755TIP3    H132824   6.115   2.176   0.669 -0.0338 -0.2829 -0.6842
 3755TIP3    H232825   6.244   2.112   0.716 -0.0573 -0.0079 -0.2430
 3756TIP3   OH232826   0.834   2.168   7.727 -0.2552 -0.4843 -0.4877
 3756TIP3    H132827   0.801   2.198   7.812  2.6470 -1.1150  0.9792
 3756TIP3    H232828   0.764   2.190   7.665 -2.4968 -0.0260  2.0340
 3757TIP3   OH232829   6.767   1.852   2.240  0.0623  0.0540 -0.0802
 3757TIP3    H132830   6.689   1.835   2.293 -0.5221 -0.6098 -1.1169
 3757TIP3    H232831   6.837   1.806   2.285 -0.5621 -1.1060 -0.2657
 3758TIP3   OH232832   1.197   1.100   1.654  0.2959 -0.0931 -0.3435
 3758TIP3    H132833   1.286   1.096   1.620 -0.2650 -0.9791 -1.8189
 3758TIP3    H232834   1.206   1.131   1.744  1.9484  1.4085 -0.9794
 3759TIP3   OH232835   2.369   1.662   0.518 -0.5716 -0.5359 -0.1066
 3759TIP3    H132836   2.350   1.663   0.424 -1.4118 -2.6586 -0.0257
 3759TIP3    H232837   2.455   1.620   0.524 -0.5815 -0.5276  0.0805
 3760TIP3   OH232838   4.668   3.999   1.611 -0.8514  0.3885 -0.5353
 3760TIP3    H132839   4.643   4.022   1.700 -0.8924 -1.2094 -0.0989
 3760TIP3    H232840   4.606   4.047   1.555  0.0410  2.4953  0.1911
 3761TIP3   OH232841   5.041   1.999   0.540  0.1816  0.1311 -0.0367
 3761TIP3    H132842   4.983   1.937   0.496  0.8213  0.5129 -1.5102
 3761TIP3    H232843   4.998   2.084   0.530  1.8725  0.7922 -3.0975
 3762TIP3   OH232844   3.245   1.701   8.097  0.4637 -0.2053  0.2864
 3762TIP3    H132845   3.250   1.659   8.011 -0.5502 -1.4508  0.8084
 3762TIP3    H232846   3.186   1.775   8.083 -0.2903 -0.8380  0.0686
 3763TIP3   OH232847   3.684   2.438   8.577 -0.4910 -0.5226  0.2944
 3763TIP3    H132848   3.602   2.395   8.604 -1.3124  1.8082  1.8158
 3763TIP3    H232849   3.668   2.464   8.486 -0.9308 -1.1690  0.1749
 3764TIP3   OH232850   6.809   3.001   8.549  0.8012 -0.5984 -0.5698
 3764TIP3    H132851   6.840   3.053   8.475 -0.5462 -1.0136 -1.4617
 3764TIP3    H232852   6.760   2.930   8.510  1.3047 -1.6877  0.6979
 3765TIP3   OH232853   0.403   2.745   6.904  0.3592  0.1658  0.2363
 3765TIP3    H132854   0.336   2.690   6.862 -2.0508  1.6494  1.9138
 3765TIP3    H232855   0.353   2.811   6.952  3.0842  1.5264  1.3841
 3766TIP3   OH232856   5.924   0.619   0.274  0.6390  0.4085 -0.2404
 3766TIP3    H132857   5.923   0.538   0.325  0.9955  0.9884  0.7052
 3766TIP3    H232858   5.847   0.668   0.305  1.1773  1.0129  0.1573
 3767TIP3   OH232859   2.777   0.709   2.027  0.0993  0.2885  0.7064
 3767TIP3    H132860   2.864   0.732   1.993 -0.3559  2.1486  0.7301
 3767TIP3    H232861   2.733   0.793   2.041 -1.3881 -0.5915  1.5653
 3768TIP3   OH232862   4.496   4.539   7.574 -0.4288  0.0484  0.4183
 3768TIP3    H132863   4.498   4.457   7.525  0.4297 -0.0454  0.5943
 3768TIP3    H232864   4.574   4.537   7.629  1.1349  2.1475 -1.5160
 3769TIP3   OH232865   0.971   1.701   2.302  0.2647 -0.5516  0.0901
 3769TIP3    H132866   1.052   1.650   2.293  1.0547  0.5371  0.8765
 3769TIP3    H232867   0.994   1.774   2.358 -0.8955  0.6030 -0.8652
 3770TIP3   OH232868   6.099   2.912   2.193 -0.2899  0.7537  0.5506
 3770TIP3    H132869   6.105   2.833   2.140 -1.8855  0.7436  0.3281
 3770TIP3    H232870   6.179   2.961   2.173  0.4206 -0.5021  0.2299
 3771TIP3   OH232871   6.430   3.997   7.591 -0.0268  0.6101  0.0758
 3771TIP3    H132872   6.471   4.084   7.590  1.8055 -0.2075  0.7411
 3771TIP3    H232873   6.422   3.975   7.684 -3.1184  1.1852  0.0573
 3772TIP3   OH232874   4.239   6.285   7.915 -0.0221 -0.2647  0.4448
 3772TIP3    H132875   4.167   6.271   7.853 -0.8394 -1.0659  1.5221
 3772TIP3    H232876   4.306   6.332   7.865 -1.1540  0.1992 -0.6832
 3773TIP3   OH232877   5.468   3.467   1.861  0.4446  0.2420 -0.2203
 3773TIP3    H132878   5.532   3.457   1.790 -1.5226 -2.0715 -1.8504
 3773TIP3    H232879   5.385   3.483   1.816 -0.8039 -0.8245  1.5712
 3774TIP3   OH232880   3.329   5.016   8.431 -0.1199  0.1092  0.4212
 3774TIP3    H132881   3.284   5.019   8.516 -0.8959  1.5699 -0.0266
 3774TIP3    H232882   3.273   5.065   8.371 -0.0668 -1.6856 -1.1982
 3775TIP3   OH232883   2.144   0.998   1.731 -0.2774  0.0288 -0.2398
 3775TIP3    H132884   2.121   1.039   1.815  1.4795 -1.0295  0.8217
 3775TIP3    H232885   2.217   1.051   1.698 -0.0575 -0.3838 -0.4127
 3776TIP3   OH232886   5.191   6.095   8.063 -0.0599  0.5396 -0.7646
 3776TIP3    H132887   5.123   6.033   8.037  0.7716 -1.3945  1.3060
 3776TIP3    H232888   5.235   6.118   7.982  0.3409 -2.5560 -1.5424
 3777TIP3   OH232889   5.102   4.456   8.120  0.2398  0.4707  0.3086
 3777TIP3    H132890   5.103   4.373   8.169  0.8178  0.6018  0.5300
 3777TIP3    H232891   5.173   4.447   8.057 -0.8525  0.0852 -0.9141
 3778TIP3   OH232892   5.328   1.391   0.225  0.4088  0.0282 -0.9916
 3778TIP3    H132893   5.406   1.375   0.278 -1.0683  0.3740  1.4145
 3778TIP3    H232894   5.358   1.450   0.156  2.0615  1.0596  0.5211
 3779TIP3   OH232895   2.383   3.301   0.767 -0.1709  0.9555 -0.1292
 3779TIP3    H132896   2.369   3.355   0.689 -0.2768  0.2190 -0.6379
 3779TIP3    H232897   2.384   3.211   0.734 -1.6901  0.5182  0.9018
 3780TIP3   OH232898   5.031   6.392   7.544 -0.8596  0.3773 -0.2486
 3780TIP3    H132899   5.104   6.379   7.605 -1.3961 -1.9213 -0.0139
 3780TIP3    H232900   4.959   6.424   7.599 -0.4489  1.3427 -0.2518
 3781TIP3   OH232901   0.014   6.089   7.609 -0.1887 -0.1753  0.6984
 3781TIP3    H132902   0.105   6.071   7.630 -0.4131 -0.8376  1.1423
 3781TIP3    H232903  -0.009   6.166   7.661  0.0735 -0.0899  0.6872
 3782TIP3   OH232904   6.312   0.993   7.472  0.3611 -0.0710  0.9183
 3782TIP3    H132905   6.280   1.079   7.497  1.1691  0.7332 -0.6478
 3782TIP3    H232906   6.271   0.976   7.388  0.4001 -1.1177  1.1026
 3783TIP3   OH232907   5.741   3.879   2.995  0.2975  0.5893 -0.6543
 3783TIP3    H132908   5.653   3.882   2.957  0.4337 -1.8552 -1.3929
 3783TIP3    H232909   5.771   3.790   2.976  3.1795  1.5235 -0.9558
 3784TIP3   OH232910   5.106   1.412   1.656 -0.4655 -0.3015 -0.2587
 3784TIP3    H132911   5.062   1.464   1.724  1.2339  0.2827  0.4303
 3784TIP3    H232912   5.184   1.377   1.699 -0.3085 -1.4307 -1.4134
 3785TIP3   OH232913   2.342   4.898   8.516 -0.3461 -0.0061 -0.6095
 3785TIP3    H132914   2.423   4.915   8.562 -2.3195  0.7842  2.9180
 3785TIP3    H232915   2.344   4.957   8.441  1.3945  1.5880  0.6109
 3786TIP3   OH232916   6.068   5.228   0.344 -0.3428 -0.2976 -0.0107
 3786TIP3    H132917   6.136   5.232   0.412 -0.0390  0.9943 -0.3783
 3786TIP3    H232918   6.087   5.147   0.297  1.0892  0.1540 -0.2544
 3787TIP3   OH232919   4.076   5.531   1.078  0.3525 -0.0806  0.4740
 3787TIP3    H132920   4.020   5.455   1.095 -1.1722  0.8582 -0.1377
 3787TIP3    H232921   4.161   5.494   1.055 -0.3502 -1.6081  0.2333
 3788TIP3   OH232922   6.131   4.562   8.217 -0.4796  0.0983  0.6514
 3788TIP3    H132923   6.215   4.569   8.173  0.0247 -0.2489  1.5313
 3788TIP3    H232924   6.093   4.481   8.182  0.1023 -0.3986  1.1468
 3789TIP3   OH232925   1.902   2.726   0.019  0.0796  0.3882 -0.6195
 3789TIP3    H132926   1.905   2.761   0.108  0.0255 -0.2597 -0.3618
 3789TIP3    H232927   1.809   2.707   0.004 -0.2633  2.4903 -1.6081
 3790TIP3   OH232928   4.700   4.589   8.298  0.1764  0.2606 -0.3108
 3790TIP3    H132929   4.627   4.639   8.260 -0.0194 -0.7348 -1.3243
 3790TIP3    H232930   4.779   4.633   8.267  0.0444  1.7273  1.3145
 3791TIP3   OH232931   2.401   1.876   1.489 -0.2790 -0.3195  0.2418
 3791TIP3    H132932   2.447   1.873   1.405 -0.2379 -2.1578  0.2817
 3791TIP3    H232933   2.470   1.862   1.554 -0.6346 -1.5690  0.3888
 3792TIP3   OH232934   2.868   4.273   7.279 -0.7285 -0.0835  0.2773
 3792TIP3    H132935   2.847   4.303   7.368 -1.2587 -0.2741  0.2182
 3792TIP3    H232936   2.834   4.341   7.222 -0.0261  0.2349  0.2357
 3793TIP3   OH232937   0.399   2.618   1.640  0.1923 -0.1936 -0.1111
 3793TIP3    H132938   0.388   2.556   1.712  1.5529 -0.0767  0.2249
 3793TIP3    H232939   0.320   2.671   1.641 -1.2421 -2.2205 -0.7148
 3794TIP3   OH232940   4.897   2.379   8.577  0.0143  0.2253 -0.3555
 3794TIP3    H132941   4.906   2.384   8.482 -0.1396 -2.0847 -0.5503
 3794TIP3    H232942   4.951   2.450   8.610  1.0938  0.2984 -2.1400
 3795TIP3   OH232943   0.792   1.924   8.202 -0.0461  0.4292 -0.1813
 3795TIP3    H132944   0.777   1.907   8.295 -1.3520  0.8243 -0.3119
 3795TIP3    H232945   0.886   1.945   8.197  0.5886 -1.8170  0.6942
 3796TIP3   OH232946   4.389   6.599   8.540  0.6184 -0.2914  0.0196
 3796TIP3    H132947   4.371   6.692   8.524  0.9871 -0.4785 -1.6328
 3796TIP3    H232948   4.444   6.572   8.466 -1.2449 -2.3518 -0.7183
 3797TIP3   OH232949   4.731   3.463   0.535  0.2827 -0.0968 -0.3650
 3797TIP3    H132950   4.653   3.453   0.480  0.6989  1.1586 -1.2116
 3797TIP3    H232951   4.706   3.530   0.599 -0.0936 -1.3321  0.8395
 3798TIP3   OH232952   5.825   6.745   1.251  0.1208  0.4410  0.0509
 3798TIP3    H132953   5.858   6.787   1.330  0.2449  0.7475 -0.1622
 3798TIP3    H232954   5.734   6.775   1.244  0.2586  0.8124 -0.1911
 3799TIP3   OH232955   0.671   4.662   0.314 -0.1472 -0.0512  0.3542
 3799TIP3    H132956   0.596   4.607   0.335  0.4007 -1.4154 -1.0481
 3799TIP3    H232957   0.638   4.724   0.248 -0.5125  0.6760  1.2009
 3800TIP3   OH232958   2.278   0.136   0.638 -0.2002  0.7675 -0.2726
 3800TIP3    H132959   2.295   0.042   0.642 -3.1800  0.1631  0.2626
 3800TIP3    H232960   2.360   0.174   0.607  2.8218 -1.4115  4.0444
 3801TIP3   OH232961   4.824   4.385   2.226 -0.1634 -0.6656 -0.3836
 3801TIP3    H132962   4.792   4.441   2.297  0.7765  0.8188 -1.0676
 3801TIP3    H232963   4.762   4.400   2.155 -0.6963 -1.5968 -0.1269
 3802TIP3   OH232964   3.566   2.764   8.268 -0.1732 -0.2316 -0.3166
 3802TIP3    H132965   3.493   2.769   8.329 -0.3402  2.2118 -0.6284
 3802TIP3    H232966   3.626   2.701   8.308 -2.0413 -1.6944  0.3258
 3803TIP3   OH232967   6.645   5.358   7.707  0.3136  0.8826  0.3923
 3803TIP3    H132968   6.629   5.264   7.701  0.1262  0.8325  1.4539
 3803TIP3    H232969   6.570   5.398   7.665 -0.0738  0.5716  0.7844
 3804TIP3   OH232970   2.577   0.302   1.211 -0.1166 -0.3307  0.3274
 3804TIP3    H132971   2.671   0.300   1.195  0.0833 -2.3614  1.4379
 3804TIP3    H232972   2.557   0.216   1.247 -1.9912  0.8818  2.4528
 3805TIP3   OH232973   0.979   1.367   1.284 -0.2894  0.2603 -0.1781
 3805TIP3    H132974   1.070   1.383   1.260 -0.3787 -0.1982 -0.8415
 3805TIP3    H232975   0.964   1.423   1.360  0.6592  0.0516  0.1725
 3806TIP3   OH232976   6.059   2.459   1.233 -0.1199  0.0776  0.2518
 3806TIP3    H132977   6.111   2.427   1.159 -1.1067  0.0015 -0.4391
 3806TIP3    H232978   6.075   2.554   1.234  0.4927 -0.0245  0.4259
 3807TIP3   OH232979   4.635   6.735   1.323  0.1616 -0.1604  0.0771
 3807TIP3    H132980   4.647   6.813   1.378  0.5288 -0.5415  0.5568
 3807TIP3    H232981   4.689   6.752   1.246  1.7974 -0.7169  1.0237
 3808TIP3   OH232982   1.303   3.349   6.498 -0.2582 -0.2988 -0.2006
 3808TIP3    H132983   1.377   3.406   6.516 -1.5611  2.0524 -1.8179
 3808TIP3    H232984   1.318   3.317   6.409 -0.8810 -0.2624 -0.3270
 3809TIP3   OH232985   5.305   2.828   7.704  0.3091  0.4773 -0.1670
 3809TIP3    H132986   5.304   2.854   7.796 -1.0248  0.5757 -0.1809
 3809TIP3    H232987   5.366   2.889   7.662  1.5447 -0.0858  0.7679
 3810TIP3   OH232988   2.387   0.290   8.168 -0.2819  0.0830  0.1550
 3810TIP3    H132989   2.372   0.228   8.239 -0.1566 -1.5029 -1.1591
 3810TIP3    H232990   2.348   0.372   8.199 -0.2200 -0.5550  2.0362
 3811TIP3   OH232991   3.595   6.340   8.544 -0.2604 -0.3533  0.0504
 3811TIP3    H132992   3.623   6.378   8.628 -1.9534  2.6865 -0.5881
 3811TIP3    H232993   3.568   6.251   8.565 -0.3729  0.2290  2.6993
 3812TIP3   OH232994   0.190   6.625   0.342 -0.3158  0.1461 -0.3973
 3812TIP3    H132995   0.192   6.705   0.394 -1.1585 -0.2385  0.2440
 3812TIP3    H232996   0.157   6.653   0.257  2.3567  1.0321 -1.2606
 3813TIP3   OH232997   0.023   0.199   1.806  0.5225  0.3181 -0.1921
 3813TIP3    H132998   0.093   0.250   1.847  1.1305 -0.7273  0.1042
 3813TIP3    H232999  -0.023   0.159   1.880 -1.5714  2.3787 -0.2250
 3814TIP3   OH233000   1.750   0.618   6.980  0.2042  0.3747 -0.3064
 3814TIP3    H133001   1.687   0.599   6.909  1.5757 -0.2796 -1.3955
 3814TIP3    H233002   1.802   0.538   6.988  1.7863  1.3579 -0.3816
 3815TIP3   OH233003   1.951   5.901   7.704  0.3746 -0.3616  0.2333
 3815TIP3    H133004   2.020   5.966   7.689  0.1199 -0.1183  0.1066
 3815TIP3    H233005   1.964   5.874   7.794  0.6043 -0.2787  0.2281
 3816TIP3   OH233006   5.530   4.055   1.699 -0.4888 -0.8868  0.3987
 3816TIP3    H133007   5.521   3.976   1.753 -2.1513 -1.4450 -0.6223
 3816TIP3    H233008   5.505   4.026   1.611 -0.6695  0.6788 -0.0843
 3817TIP3   OH233009   6.807   5.439   1.787 -0.4713  0.0524 -0.7736
 3817TIP3    H133010   6.900   5.442   1.763 -0.5239 -1.2340 -1.2139
 3817TIP3    H233011   6.798   5.506   1.854  1.1676 -0.9124  0.5163
 3818TIP3   OH233012   4.455   5.830   1.961  0.1640  0.1634 -0.3737
 3818TIP3    H133013   4.399   5.759   1.993  1.2921 -0.5526  0.0538
 3818TIP3    H233014   4.394   5.891   1.920 -0.9239 -0.6407 -0.0089
 3819TIP3   OH233015   0.362   2.583   6.471  0.7014  0.0211 -0.1433
 3819TIP3    H133016   0.433   2.523   6.493 -0.4946 -1.5463 -0.4570
 3819TIP3    H233017   0.385   2.617   6.385  1.3103 -0.0864 -0.0260
 3820TIP3   OH233018   4.455   5.491   7.207  0.4454 -0.6660  0.5053
 3820TIP3    H133019   4.421   5.451   7.127  0.2695  1.2999 -0.4494
 3820TIP3    H233020   4.518   5.556   7.177  0.2527  0.2256  1.9487
 3821TIP3   OH233021   1.620   2.561   8.136  0.8276  0.1557  0.3595
 3821TIP3    H133022   1.692   2.604   8.182  2.1025 -2.2495  0.7599
 3821TIP3    H233023   1.657   2.539   8.050  0.3467 -0.5227  0.3286
 3822TIP3   OH233024   6.781   5.341   2.253 -0.1578 -0.1580  0.2705
 3822TIP3    H133025   6.802   5.274   2.318  2.2183 -0.1639 -0.4428
 3822TIP3    H233026   6.708   5.390   2.293 -0.7103 -1.9707  1.6117
 3823TIP3   OH233027   4.921   4.877   1.753 -0.0875 -0.6722  0.1091
 3823TIP3    H133028   4.913   4.932   1.675 -1.4017  0.2612  0.8616
 3823TIP3    H233029   4.960   4.796   1.721  3.8763  1.3404 -0.7350
 3824TIP3   OH233030   5.030   4.437   0.052 -0.2662 -0.4847 -0.4182
 3824TIP3    H133031   5.007   4.440  -0.041 -2.1367  1.1001  0.0447
 3824TIP3    H233032   5.067   4.524   0.070 -2.4317  0.2263  0.8765
 3825TIP3   OH233033   2.752   2.868   8.649 -0.1001  0.1393  0.3888
 3825TIP3    H133034   2.695   2.795   8.675  0.3326 -0.2144  0.3747
 3825TIP3    H233035   2.714   2.900   8.567  0.3897 -0.8750 -0.2674
 3826TIP3   OH233036   4.470   0.097   0.481  0.0421  0.0088 -0.5341
 3826TIP3    H133037   4.500   0.090   0.572 -1.3069  0.6352 -0.0132
 3826TIP3    H233038   4.502   0.017   0.440 -0.7273 -1.1050  0.9236
 3827TIP3   OH233039   2.205   0.935   7.634 -0.2185 -0.4365  0.4777
 3827TIP3    H133040   2.200   0.866   7.568 -0.9358  1.2795 -1.3477
 3827TIP3    H233041   2.170   0.894   7.714  1.0516 -2.6805 -0.0208
 3828TIP3   OH233042   2.219   1.932   0.874 -0.1228  0.3375  0.4043
 3828TIP3    H133043   2.136   1.979   0.876 -0.7695 -0.7685  1.3698
 3828TIP3    H233044   2.249   1.938   0.783 -0.9734  1.2286  0.1729
 3829TIP3   OH233045   6.084   2.902   0.411  0.0986  0.3604 -0.1198
 3829TIP3    H133046   6.039   2.982   0.385 -0.8786 -0.1263  0.0433
 3829TIP3    H233047   6.052   2.835   0.350  0.0460 -0.1463  0.4495
 3830TIP3   OH233048   4.008   4.429   0.714  0.6355 -0.0233  0.0266
 3830TIP3    H133049   3.997   4.479   0.633  2.3783  0.6231  0.1370
 3830TIP3    H233050   3.931   4.450   0.766 -0.2241  0.0191 -1.2071
 3831TIP3   OH233051   3.589   4.399   1.298  0.2133 -0.0257 -0.2027
 3831TIP3    H133052   3.516   4.403   1.237  0.3295  1.7045 -0.2733
 3831TIP3    H233053   3.565   4.458   1.369  0.2902 -1.6483  1.2219
 3832TIP3   OH233054   4.329   0.558   7.713  0.4841  0.1690  0.1743
 3832TIP3    H133055   4.301   0.481   7.762 -0.2868 -0.5950 -1.4092
 3832TIP3    H233056   4.395   0.526   7.652  1.4216  1.1063  0.6484
 3833TIP3   OH233057   6.677   4.857   7.259 -0.2357  0.2943 -0.7208
 3833TIP3    H133058   6.764   4.894   7.244  0.0247  0.2115  0.4853
 3833TIP3    H233059   6.617   4.923   7.225  0.2816  0.7880 -0.6907
 3834TIP3   OH233060   3.821   4.433   0.920  0.5500  0.1390 -0.8727
 3834TIP3    H133061   3.769   4.357   0.891  0.7040 -0.2859 -0.0722
 3834TIP3    H233062   3.756   4.503   0.930  0.1737 -0.2833 -0.2549
 3835TIP3   OH233063   3.656   2.052   6.997 -0.4452  0.4591 -0.4269
 3835TIP3    H133064   3.745   2.016   7.007 -0.4424  0.5845  0.0200
 3835TIP3    H233065   3.670   2.144   6.978 -0.4637  0.3194 -1.1367
 3836TIP3   OH233066   4.981   6.111   1.656 -0.0675 -0.6459 -0.1803
 3836TIP3    H133067   5.018   6.024   1.671  0.0276 -0.9335 -1.8608
 3836TIP3    H233068   4.915   6.098   1.588  0.8522  0.7586 -1.4123
 3837TIP3   OH233069   1.784   1.946   0.788  0.0665 -0.1206  0.4260
 3837TIP3    H133070   1.699   1.926   0.750 -0.4558  0.4642  1.2570
 3837TIP3    H233071   1.799   1.875   0.851 -0.0905  0.0880  0.7049
 3838TIP3   OH233072   2.111   2.435   7.774 -0.0019 -0.1680  0.3730
 3838TIP3    H133073   2.113   2.339   7.776  0.5329 -0.1550  1.3633
 3838TIP3    H233074   2.019   2.457   7.758 -0.1251 -0.8395  0.1114
 3839TIP3   OH233075   3.062   1.747   2.666 -0.3741  0.0928 -0.5946
 3839TIP3    H133076   3.032   1.838   2.679 -0.4291  0.0337 -0.2918
 3839TIP3    H233077   3.099   1.746   2.578  0.0817  0.5318 -0.4090
 3840TIP3   OH233078   6.074   2.205   7.963 -0.5329 -0.4754  0.5144
 3840TIP3    H133079   6.029   2.125   7.991 -2.1626  0.3907  0.5133
 3840TIP3    H233080   6.112   2.183   7.878 -1.6329 -1.0324  0.1551
 3841TIP3   OH233081   6.364   0.986   0.190 -0.4203 -0.0613  0.2652
 3841TIP3    H133082   6.378   0.906   0.140  1.6533  0.6592 -0.3859
 3841TIP3    H233083   6.269   0.990   0.201 -0.6634 -2.0594 -0.5619
 3842TIP3   OH233084   2.111   3.711   0.955  0.6449 -0.0991 -0.8178
 3842TIP3    H133085   2.206   3.718   0.964  0.3351  2.5910  1.4370
 3842TIP3    H233086   2.086   3.789   0.906 -0.6724  1.3376  1.9638
 3843TIP3   OH233087   4.555   4.000   0.486 -0.5494 -0.0817 -0.4516
 3843TIP3    H133088   4.533   3.920   0.439  0.0534 -0.8602  0.5587
 3843TIP3    H233089   4.551   4.068   0.419 -0.1902 -1.0814 -1.5305
 3844TIP3   OH233090   0.473   4.658   7.617  0.6718 -0.4298  0.6064
 3844TIP3    H133091   0.549   4.711   7.641  0.2383 -0.4620  2.1604
 3844TIP3    H233092   0.427   4.709   7.550  1.4299  0.1214  0.4952
 3845TIP3   OH233093   4.729   3.340   8.441 -0.3162 -0.3365  0.1267
 3845TIP3    H133094   4.661   3.278   8.411  0.0104 -1.2364  1.1762
 3845TIP3    H233095   4.748   3.393   8.364 -2.0558 -0.2108 -0.2561
 3846TIP3   OH233096   4.869   4.645   0.976  0.3368  0.4293 -0.1775
 3846TIP3    H133097   4.881   4.641   1.071 -0.4559  1.5332 -0.0157
 3846TIP3    H233098   4.957   4.649   0.941  0.6772 -0.9923  0.4470
 3847TIP3   OH233099   1.500   1.945   7.874 -0.2404 -0.2699  0.4982
 3847TIP3    H133100   1.452   1.862   7.872  0.7281 -0.8558 -2.0148
 3847TIP3    H233101   1.434   2.012   7.857 -0.4530 -0.9454 -1.5987
 3848TIP3   OH233102   0.537   3.497   0.676  0.1474 -0.2808 -0.4989
 3848TIP3    H133103   0.509   3.578   0.719  1.9722  0.2121 -0.1648
 3848TIP3    H233104   0.459   3.441   0.678 -0.4782  0.5809  1.4091
 3849TIP3   OH233105   1.282   4.319   0.005 -0.2044  0.4493 -0.6449
 3849TIP3    H133106   1.236   4.335  -0.078 -1.5382 -1.6110 -0.3700
 3849TIP3    H233107   1.372   4.298  -0.022 -0.6008 -0.1306 -1.5826
 3850TIP3   OH233108   3.773   2.827   0.507  0.0155 -0.4952  0.0226
 3850TIP3    H133109   3.797   2.739   0.478 -0.3732 -1.1159  1.4872
 3850TIP3    H233110   3.685   2.840   0.472  0.2908 -0.4545 -0.6682
 3851TIP3   OH233111   2.419   4.942   1.588 -0.3860  0.1470  0.1269
 3851TIP3    H133112   2.481   4.940   1.515 -0.7839 -0.1731 -0.2073
 3851TIP3    H233113   2.443   5.021   1.637 -0.6357  0.8282 -0.8117
 3852TIP3   OH233114   5.304   4.042   8.411  0.3050  0.2364  0.1745
 3852TIP3    H133115   5.239   3.973   8.424 -0.2675  0.7665  0.2040
 3852TIP3    H233116   5.349   4.018   8.330 -1.9851  1.4043 -1.5556
 3853TIP3   OH233117   2.355   4.037   1.662 -0.2370  0.1870 -0.3226
 3853TIP3    H133118   2.339   3.953   1.705  0.2409 -1.8158 -3.7476
 3853TIP3    H233119   2.385   4.094   1.733 -0.6231 -2.4739  2.1731
 3854TIP3   OH233120   6.746   1.950   1.287  0.2871  0.1029 -0.8107
 3854TIP3    H133121   6.746   2.010   1.212 -3.0538  0.9652 -0.2939
 3854TIP3    H233122   6.691   1.877   1.258 -3.2413  1.6209  1.4549
 3855TIP3   OH233123   6.750   3.194   7.344  0.5751 -0.3722  0.0721
 3855TIP3    H133124   6.749   3.289   7.338  0.6370 -0.4364 -1.8982
 3855TIP3    H233125   6.761   3.175   7.437 -1.1877  1.5183  0.7414
 3856TIP3   OH233126   4.038   1.994   8.199 -0.7119 -0.2140  0.2841
 3856TIP3    H133127   4.089   1.914   8.208 -0.9496 -0.5977 -1.3746
 3856TIP3    H233128   3.972   1.988   8.269 -0.3292 -1.1437  0.5835
 3857TIP3   OH233129   0.901   2.350   2.476  0.2978 -0.2183 -0.0619
 3857TIP3    H133130   0.819   2.399   2.475 -0.0591 -0.7668 -2.3711
 3857TIP3    H233131   0.965   2.411   2.437  0.9391  0.0583  1.3504
 3858TIP3   OH233132   0.308   5.007   0.209  0.1303 -0.1911 -0.1242
 3858TIP3    H133133   0.232   5.051   0.247  0.1839  0.8482 -1.1630
 3858TIP3    H233134   0.275   4.965   0.130  0.2226 -1.5002  0.5062
 3859TIP3   OH233135   6.610   2.526   1.713 -0.6148  0.1197  0.1962
 3859TIP3    H133136   6.617   2.571   1.797 -3.5985  1.7063 -0.3036
 3859TIP3    H233137   6.570   2.590   1.654 -1.3699 -1.9155 -1.6302
 3860TIP3   OH233138   3.863   1.321   7.549 -0.0050  0.2542  0.1496
 3860TIP3    H133139   3.844   1.301   7.458  0.1683  0.5336  0.0507
 3860TIP3    H233140   3.782   1.299   7.595  0.3151 -1.0474  0.1167
 3861TIP3   OH233141   3.132   3.075   1.016 -0.0743 -0.2528 -0.6115
 3861TIP3    H133142   3.078   3.138   0.968 -0.7031  0.3540  0.8057
 3861TIP3    H233143   3.082   3.059   1.097  1.1374 -0.8743  0.0400
 3862TIP3   OH233144   3.414   4.964   0.399  0.4802  0.9792  0.5270
 3862TIP3    H133145   3.500   4.935   0.430  0.9333  1.9935  0.2645
 3862TIP3    H233146   3.413   5.059   0.417 -0.6928  0.9363  0.7780
 3863TIP3   OH233147   6.234   5.993   2.529  0.7720 -0.3259  0.3197
 3863TIP3    H133148   6.172   5.933   2.569  0.6176 -0.0921  0.4321
 3863TIP3    H233149   6.181   6.045   2.468  0.6562  0.5858  1.1744
 3864TIP3   OH233150   2.935   5.351   7.386  0.0705  0.1980 -0.2278
 3864TIP3    H133151   2.927   5.440   7.419 -0.8706  0.8166 -1.9740
 3864TIP3    H233152   2.863   5.342   7.322  0.2483 -1.7458 -0.2282
 3865TIP3   OH233153   2.351   3.621   1.320 -0.4283 -0.5721 -0.6057
 3865TIP3    H133154   2.444   3.601   1.327 -0.4797 -0.9082 -0.8403
 3865TIP3    H233155   2.308   3.557   1.376 -0.4254  0.5429  0.7271
 3866TIP3   OH233156   3.057   5.886   7.394 -0.0561 -0.6549 -0.0351
 3866TIP3    H133157   3.016   5.807   7.429 -1.5253  0.3694  0.6133
 3866TIP3    H233158   3.011   5.902   7.312  0.2206 -0.4437 -0.1491
 3867TIP3   OH233159   2.523   1.107   8.524 -0.2909  0.4244 -0.2042
 3867TIP3    H133160   2.477   1.190   8.518  1.0200  1.0909 -2.0548
 3867TIP3    H233161   2.545   1.085   8.433  0.1884 -1.5037  0.3188
 3868TIP3   OH233162   3.734   1.686   1.707  0.0979  0.1008 -0.6755
 3868TIP3    H133163   3.648   1.655   1.679  0.1010  0.3719 -0.9967
 3868TIP3    H233164   3.760   1.626   1.777 -1.0073  0.9272  0.4672
 3869TIP3   OH233165   1.915   2.161   8.202 -0.0262 -0.5059 -0.3443
 3869TIP3    H133166   1.875   2.200   8.124  0.0069 -0.1407 -0.1774
 3869TIP3    H233167   1.862   2.191   8.275  1.8977  1.9823  0.1762
 3870TIP3   OH233168   2.546   4.472   2.045 -0.3867 -0.4566 -0.1143
 3870TIP3    H133169   2.585   4.393   2.008 -1.6853 -0.7463 -0.9089
 3870TIP3    H233170   2.567   4.541   1.982  2.0412  0.2366  1.2801
 3871TIP3   OH233171   2.796   4.835   0.057  0.1247  0.1470 -0.0345
 3871TIP3    H133172   2.780   4.741   0.065  1.0509  0.0224  0.5085
 3871TIP3    H233173   2.891   4.844   0.066 -0.1885  1.4576  3.5385
 3872TIP3   OH233174   2.346   5.384   7.575 -0.3356  0.2279 -0.2239
 3872TIP3    H133175   2.382   5.296   7.567 -2.6126 -0.6865 -1.4598
 3872TIP3    H233176   2.390   5.421   7.652 -0.8090 -2.7777  1.6657
 3873TIP3   OH233177   4.874   0.569   6.974 -0.2107  0.2075  0.6377
 3873TIP3    H133178   4.842   0.585   6.886  0.9343 -0.6320  0.0397
 3873TIP3    H233179   4.810   0.612   7.031 -0.6930  1.2038 -0.6057
 3874TIP3   OH233180   4.524   1.824   0.497  0.0349  0.4583 -0.1425
 3874TIP3    H133181   4.451   1.866   0.451 -1.1983  0.0178  1.3148
 3874TIP3    H233182   4.528   1.870   0.581 -1.1234 -1.9956  1.3726
 3875TIP3   OH233183   1.036   2.398   8.269 -0.5488 -0.4364  0.0534
 3875TIP3    H133184   1.062   2.458   8.199  0.5337 -0.7757  0.1517
 3875TIP3    H233185   1.029   2.453   8.347  2.5255 -0.6932  0.6321
 3876TIP3   OH233186   0.014   1.208   7.163  0.0411 -0.1762 -0.5532
 3876TIP3    H133187  -0.033   1.166   7.091  1.1545 -2.1976 -0.1547
 3876TIP3    H233188  -0.056   1.238   7.222 -0.8143 -1.8438 -0.6616
 3877TIP3   OH233189   0.779   6.166   8.558 -0.7771 -0.1188  0.0576
 3877TIP3    H133190   0.759   6.245   8.607 -3.1782 -0.2362 -0.5824
 3877TIP3    H233191   0.860   6.186   8.511 -1.9632  2.4849 -1.0839
 3878TIP3   OH233192   2.735   5.403   8.311  0.0058 -0.2582  0.6779
 3878TIP3    H133193   2.690   5.487   8.319  0.4244 -0.1340  1.7804
 3878TIP3    H233194   2.727   5.363   8.398  1.1870 -0.6602  0.6101
 3879TIP3   OH233195   6.744   6.781   0.817 -0.0633 -0.0327  0.1188
 3879TIP3    H133196   6.725   6.824   0.733  2.0346 -2.1177 -1.5646
 3879TIP3    H233197   6.659   6.770   0.858 -1.3012  0.1427 -2.2297
 3880TIP3   OH233198   1.411   2.487   1.149  0.4302  0.0521 -0.8746
 3880TIP3    H133199   1.418   2.406   1.201  0.4821 -0.4220 -1.6128
 3880TIP3    H233200   1.319   2.491   1.124  0.2318  0.7087 -0.0812
 3881TIP3   OH233201   6.193   5.878   0.013 -0.2101  0.2870  0.5063
 3881TIP3    H133202   6.122   5.934  -0.016 -2.2823 -0.9691  2.7745
 3881TIP3    H233203   6.190   5.803  -0.046  2.0412  1.9864 -2.0101
 3882TIP3   OH233204   4.456   2.791   8.515 -0.4104  0.0163  0.1023
 3882TIP3    H133205   4.442   2.813   8.423 -0.6388 -0.8188 -0.0780
 3882TIP3    H233206   4.376   2.821   8.559 -0.6532 -0.3010 -0.1124
 3883TIP3   OH233207   0.786   2.246   0.245 -0.1694 -0.3781 -0.0377
 3883TIP3    H133208   0.717   2.294   0.197  1.2285  1.7394 -0.0785
 3883TIP3    H233209   0.805   2.301   0.321  0.8606 -1.3836  0.4623
 3884TIP3   OH233210   6.620   5.723   7.145 -0.2665 -0.0923 -0.6417
 3884TIP3    H133211   6.610   5.707   7.051 -0.9429 -2.4260 -0.2250
 3884TIP3    H233212   6.579   5.809   7.158  1.1049  0.9585 -2.6450
 3885TIP3   OH233213   4.573   3.213   0.721 -0.1023  0.0189  0.1959
 3885TIP3    H133214   4.622   3.170   0.791 -0.3127  0.4931  0.6379
 3885TIP3    H233215   4.591   3.160   0.643 -1.2208 -1.5291  0.9329
 3886TIP3   OH233216   5.229   4.645   1.915  0.0803 -0.4406  0.3003
 3886TIP3    H133217   5.299   4.677   1.859  0.6818 -1.1708  0.6176
 3886TIP3    H233218   5.173   4.721   1.930  2.4428  1.0143  2.5511
 3887TIP3   OH233219   2.516   2.004   7.839 -0.6434 -0.3133 -0.3395
 3887TIP3    H133220   2.492   1.946   7.911 -1.1971  0.7864  0.3822
 3887TIP3    H233221   2.439   2.005   7.783 -0.1943 -1.2106 -1.0139
 3888TIP3   OH233222   4.550   2.756   1.722 -1.1533 -0.3232  0.4460
 3888TIP3    H133223   4.573   2.829   1.664 -0.0456 -1.9867 -1.3623
 3888TIP3    H233224   4.632   2.734   1.766 -1.4340 -0.5838  0.8441
 3889TIP3   OH233225   0.084   3.334   1.641  0.1005 -0.3430 -0.2875
 3889TIP3    H133226   0.076   3.401   1.573 -1.7537  0.2447  0.4349
 3889TIP3    H233227   0.034   3.259   1.607  1.8483 -1.2618 -0.9278
 3890TIP3   OH233228   4.735   3.166   2.042  0.5904 -0.1047 -0.1988
 3890TIP3    H133229   4.815   3.199   2.002  1.4611 -1.0148  0.7384
 3890TIP3    H233230   4.745   3.071   2.041  0.2154 -0.1738  1.3203
 3891TIP3   OH233231   0.046   0.370   2.412 -0.7737 -0.7166 -0.0632
 3891TIP3    H133232  -0.008   0.293   2.397  0.4639 -1.4679 -0.8947
 3891TIP3    H233233   0.123   0.356   2.356 -0.4987  1.0983 -0.1841
 3892TIP3   OH233234   1.438   5.518   1.660  0.1979  0.4466 -0.3139
 3892TIP3    H133235   1.491   5.522   1.581  1.8351  0.8036  0.7592
 3892TIP3    H233236   1.380   5.595   1.654  0.4444  0.5819 -1.0562
 3893TIP3   OH233237   4.980   4.618   1.644 -0.1865  0.3122 -0.0081
 3893TIP3    H133238   4.961   4.535   1.688 -0.5337  0.3094 -0.1555
 3893TIP3    H233239   5.028   4.592   1.565  0.9601  0.3639  0.6638
 3894TIP3   OH233240   3.025   0.624   8.581 -0.1128  0.0867 -0.4571
 3894TIP3    H133241   2.976   0.649   8.659  0.1749 -0.6807 -0.0103
 3894TIP3    H233242   3.111   0.598   8.615 -0.2222 -0.9400 -0.9322
 3895TIP3   OH233243   1.375   3.646   2.501 -0.3156  0.4496 -0.8576
 3895TIP3    H133244   1.410   3.563   2.471 -0.3285  1.4808 -4.1720
 3895TIP3    H233245   1.447   3.687   2.548  0.7338 -0.1732 -1.8834
 3896TIP3   OH233246   6.167   0.216   7.761 -0.1551 -1.1239  0.4911
 3896TIP3    H133247   6.098   0.151   7.753 -0.7245 -0.6796  1.6177
 3896TIP3    H233248   6.242   0.177   7.715 -1.1058 -1.6490 -0.6699
 3897TIP3   OH233249   3.868   6.573   8.223 -0.1987  0.0160 -0.7941
 3897TIP3    H133250   3.787   6.522   8.221  1.3185 -2.5651 -3.4880
 3897TIP3    H233251   3.905   6.555   8.310 -2.7294  1.8733  0.8142
 3898TIP3   OH233252   2.247   3.572   8.079 -0.3174  0.9676 -0.0288
 3898TIP3    H133253   2.224   3.575   7.987 -2.5880 -1.6645  0.3242
 3898TIP3    H233254   2.168   3.601   8.125 -0.0179  0.0574  1.1225
 3899TIP3   OH233255   1.811   1.064   1.609  0.6150  0.2209  0.2790
 3899TIP3    H133256   1.878   1.037   1.672  0.5541 -0.1131  0.2023
 3899TIP3    H233257   1.747   0.993   1.611  1.5028 -0.6677 -1.5031
 3900TIP3   OH233258   2.108   5.667   7.059 -0.3128  0.3229  0.6095
 3900TIP3    H133259   2.135   5.759   7.055 -2.4423  0.9452 -1.1208
 3900TIP3    H233260   2.127   5.632   6.972  0.7094 -0.9945  1.3238
 3901TIP3   OH233261   2.339   2.471   1.336 -0.3182 -0.3806 -0.0563
 3901TIP3    H133262   2.428   2.435   1.335  0.2940  1.0000  1.2062
 3901TIP3    H233263   2.344   2.547   1.279 -0.6984 -0.2846  0.0414
 3902TIP3   OH233264   0.823   2.656   7.953  0.0016 -0.4073  0.1058
 3902TIP3    H133265   0.730   2.634   7.947  0.2854 -1.2531 -2.3230
 3902TIP3    H233266   0.838   2.671   8.046 -2.3270 -1.3122  0.6998
 3903TIP3   OH233267   4.044   4.261   8.091  0.1550  0.3258  0.2578
 3903TIP3    H133268   4.025   4.249   8.184  0.1335  2.0686  0.5216
 3903TIP3    H233269   4.140   4.259   8.086  0.2009 -3.3215 -0.2937
 3904TIP3   OH233270   0.981   3.980   1.174  0.7347 -0.1825  0.5355
 3904TIP3    H133271   0.969   4.059   1.228  0.2427  1.0554 -1.2989
 3904TIP3    H233272   0.917   3.918   1.208  1.3550  0.0446  2.2350
 3905TIP3   OH233273   1.958   0.743   1.071 -0.1973  0.0892  0.2145
 3905TIP3    H133274   2.034   0.772   1.022 -0.5350  1.2119  0.3360
 3905TIP3    H233275   1.921   0.823   1.109 -0.7242 -0.5859  1.1777
 3906TIP3   OH233276   3.278   6.616   7.569  0.0488  0.5240 -0.3617
 3906TIP3    H133277   3.337   6.585   7.501 -0.6970 -0.4994 -0.5722
 3906TIP3    H233278   3.218   6.676   7.523  0.1389  0.5736 -0.4137
 3907TIP3   OH233279   1.204   6.503   7.109 -0.0209  0.3370 -0.4226
 3907TIP3    H133280   1.144   6.560   7.062 -0.3841  0.3812  0.0898
 3907TIP3    H233281   1.149   6.458   7.173  0.7543  1.5439  1.1355
 3908TIP3   OH233282   5.792   0.971   2.548 -0.0609  0.2275  0.5077
 3908TIP3    H133283   5.874   0.941   2.508 -0.1878  0.0588  0.3730
 3908TIP3    H233284   5.815   0.987   2.640  0.5992  2.0509  0.0664
 3909TIP3   OH233285   2.825   2.321   1.125  0.2456 -0.2127 -0.2165
 3909TIP3    H133286   2.865   2.275   1.051  1.0825 -0.2299  0.2376
 3909TIP3    H233287   2.747   2.270   1.146 -0.4945  0.2750 -1.6381
 3910TIP3   OH233288   3.319   1.347   1.895  0.5492 -0.5426  0.6636
 3910TIP3    H133289   3.301   1.325   1.986  2.2510  0.4980  1.2877
 3910TIP3    H233290   3.236   1.332   1.850 -0.6619  0.0677  2.5849
 3911TIP3   OH233291   2.967   6.175   1.427  0.4013  0.2936 -0.1923
 3911TIP3    H133292   2.897   6.169   1.492 -0.6606  0.5321 -1.2952
 3911TIP3    H233293   2.955   6.260   1.386  0.2905 -0.3568 -1.5565
 3912TIP3   OH233294   1.711   6.332   8.003 -0.5560  0.1590 -0.3352
 3912TIP3    H133295   1.728   6.391   7.929 -1.6396  0.8700 -0.0364
 3912TIP3    H233296   1.737   6.246   7.971 -0.3517  0.5684 -1.3049
 3913TIP3   OH233297   4.436   3.975   2.644  0.2266  0.0502  0.1840
 3913TIP3    H133298   4.403   3.890   2.671  0.7005  0.1659  1.1781
 3913TIP3    H233299   4.518   3.986   2.692  0.0495  1.1702  0.2598
 3914TIP3   OH233300   0.508   4.078   8.413  0.5944  0.5043 -0.0647
 3914TIP3    H133301   0.441   4.038   8.357  1.7305 -0.6769 -0.6440
 3914TIP3    H233302   0.512   4.169   8.384 -0.6428  0.5685 -0.1076
 3915TIP3   OH233303   5.718   1.486   0.535 -0.0832  0.5193 -0.4249
 3915TIP3    H133304   5.703   1.578   0.516  0.2327  1.0747  1.7946
 3915TIP3    H233305   5.715   1.480   0.630 -1.0982 -1.9387 -0.5360
 3916TIP3   OH233306   6.686   5.857   1.851 -0.2901 -0.7133  0.1792
 3916TIP3    H133307   6.781   5.849   1.838 -0.3091  0.7008 -1.2301
 3916TIP3    H233308   6.676   5.879   1.943  0.8025 -0.4504  0.2467
 3917TIP3   OH233309   4.711   3.876   8.076  0.3962 -0.5660 -0.5616
 3917TIP3    H133310   4.753   3.790   8.065  0.2013 -0.6543 -0.6140
 3917TIP3    H233311   4.702   3.886   8.171  1.1717 -0.2389 -0.5131
 3918TIP3   OH233312   3.567   3.562   8.451  0.2696  0.2250 -0.1692
 3918TIP3    H133313   3.621   3.636   8.480  0.9360 -0.9343  1.7760
 3918TIP3    H233314   3.524   3.532   8.531  0.7989 -2.0810 -0.6891
 3919TIP3   OH233315   5.704   5.888   1.173 -0.5710  0.2493  0.4025
 3919TIP3    H133316   5.710   5.825   1.102  1.9523 -0.2117  0.9082
 3919TIP3    H233317   5.755   5.848   1.244 -1.2620  1.6172  1.7115
 3920TIP3   OH233318   3.778   2.680   1.882 -0.6685  0.2321  0.0746
 3920TIP3    H133319   3.725   2.749   1.922  0.8704  1.4595  0.1169
 3920TIP3    H233320   3.798   2.713   1.794 -2.0346 -1.3601 -0.8807
 3921TIP3   OH233321   5.963   1.135   0.508  0.2817 -0.3052 -0.1522
 3921TIP3    H133322   6.057   1.152   0.512  0.2497 -0.3457  1.4461
 3921TIP3    H233323   5.946   1.078   0.583 -1.3342  1.4034  0.8658
 3922TIP3   OH233324   2.102   1.419   2.416 -0.2915 -0.4989  0.1024
 3922TIP3    H133325   2.071   1.507   2.441 -1.0535 -0.0294 -2.2601
 3922TIP3    H233326   2.195   1.420   2.437 -0.7219  0.0508  2.1893
 3923TIP3   OH233327   2.355   3.144   1.869 -0.0714  0.1075  0.3002
 3923TIP3    H133328   2.395   3.079   1.811  0.8518 -0.0375  1.0833
 3923TIP3    H233329   2.327   3.214   1.811 -3.9034 -2.2135 -1.0554
 3924TIP3   OH233330   3.519   1.501   7.803  0.2107  0.2294 -0.2703
 3924TIP3    H133331   3.612   1.525   7.808  0.4987 -0.7004 -0.9252
 3924TIP3    H233332   3.507   1.436   7.872 -0.2756  1.2921  0.6753
 3925TIP3   OH233333   2.400   5.934   0.809 -0.3160  0.3914 -0.0559
 3925TIP3    H133334   2.361   6.020   0.829  0.5375  0.9005 -0.5630
 3925TIP3    H233335   2.372   5.879   0.882 -1.4666  0.9022 -0.0755
 3926TIP3   OH233336   6.246   3.217   1.798  0.3979  0.1083 -0.6014
 3926TIP3    H133337   6.323   3.271   1.781  1.1181 -0.7625 -0.2149
 3926TIP3    H233338   6.177   3.279   1.818  1.8954  0.9061  2.7369
 3927TIP3   OH233339   0.018   5.150   1.575 -0.2213  0.0387  0.7038
 3927TIP3    H133340  -0.067   5.113   1.601  0.1839 -0.7082  1.0106
 3927TIP3    H233341   0.076   5.130   1.649  0.6073 -0.8928 -0.1655
 3928TIP3   OH233342   3.711   6.708   0.835 -0.1009 -0.2988  0.1308
 3928TIP3    H133343   3.751   6.633   0.880  0.2858 -0.4556 -0.4649
 3928TIP3    H233344   3.618   6.702   0.857  0.2291  0.2438  1.7837
 3929TIP3   OH233345   4.815   3.817   7.309  0.3630  0.1375  0.1037
 3929TIP3    H133346   4.831   3.901   7.265 -0.2013 -0.2920 -0.9602
 3929TIP3    H233347   4.837   3.751   7.244  1.2497 -0.5697  1.0911
 3930TIP3   OH233348   1.972   0.817   1.542  0.6384 -0.3205  0.2466
 3930TIP3    H133349   2.051   0.820   1.488 -0.3852  2.2310 -1.2506
 3930TIP3    H233350   1.985   0.885   1.608  0.7120 -1.5936  1.6005
 3931TIP3   OH233351   6.784   6.842   7.509 -0.0478 -0.2383 -0.0079
 3931TIP3    H133352   6.813   6.889   7.430 -1.1598  1.5602  0.6220
 3931TIP3    H233353   6.779   6.751   7.481 -0.9869  0.4261 -2.2150
 3932TIP3   OH233354   5.643   3.681   1.509 -0.0415  0.4352 -0.3706
 3932TIP3    H133355   5.692   3.714   1.434 -1.3323  2.6005 -0.3676
 3932TIP3    H233356   5.638   3.756   1.569 -1.4850 -0.3530  0.5629
 3933TIP3   OH233357   1.337   5.603   7.790 -0.0458  0.5297 -0.1774
 3933TIP3    H133358   1.354   5.510   7.774  1.6207  0.3639  2.1599
 3933TIP3    H233359   1.378   5.648   7.716 -2.7743 -0.5503 -2.5865
 3934TIP3   OH233360   6.426   1.725   1.777  0.7731  0.0178 -0.0757
 3934TIP3    H133361   6.342   1.766   1.793 -0.1435 -0.9886 -1.8821
 3934TIP3    H233362   6.413   1.633   1.800  0.4866 -0.7068 -2.7213
 3935TIP3   OH233363   3.850   2.046   1.246 -0.4207 -0.7027  0.1610
 3935TIP3    H133364   3.868   2.107   1.174  0.8436  0.1142  1.1280
 3935TIP3    H233365   3.907   1.971   1.230 -0.3734 -0.6634  0.1482
 3936TIP3   OH233366   6.542   1.646   2.767 -0.0300 -0.7388 -0.3852
 3936TIP3    H133367   6.581   1.718   2.816  0.2650 -0.1147 -1.4824
 3936TIP3    H233368   6.611   1.621   2.704 -0.1390 -1.9626 -0.0387
 3937TIP3   OH233369   5.363   5.239   1.029 -0.6982 -0.2436  0.7709
 3937TIP3    H133370   5.314   5.314   0.995 -0.5792  0.5865  2.3430
 3937TIP3    H233371   5.330   5.227   1.118  0.6377 -0.8499  1.2063
 3938TIP3   OH233372   6.090   0.577   7.809  0.2536 -0.2592  0.3451
 3938TIP3    H133373   6.080   0.514   7.880  0.7634  0.8609  1.4408
 3938TIP3    H233374   6.152   0.642   7.843 -0.3482  0.8950 -0.7020
 3939TIP3   OH233375   1.535   1.960   0.614 -0.1587  0.1277 -0.0062
 3939TIP3    H133376   1.515   1.894   0.680  0.9248 -0.1516  0.0502
 3939TIP3    H233377   1.531   1.913   0.531 -0.0935  0.1501 -0.0223
 3940TIP3   OH233378   1.996   5.664   1.438  0.0769 -0.1744  0.6158
 3940TIP3    H133379   1.911   5.623   1.425 -0.5515  1.2320 -0.0157
 3940TIP3    H233380   2.033   5.671   1.350  0.8578 -0.7679  0.8860
 3941TIP3   OH233381   4.193   1.758   8.203 -0.6880 -0.1292  0.1493
 3941TIP3    H133382   4.257   1.731   8.269 -1.3001 -1.4445  0.2271
 3941TIP3    H233383   4.246   1.774   8.124 -0.2791 -1.5815  0.1017
 3942TIP3   OH233384   0.613   5.907   1.126 -0.0581 -0.3910  0.0762
 3942TIP3    H133385   0.657   5.946   1.050  0.1176 -0.7313 -0.0003
 3942TIP3    H233386   0.685   5.871   1.179 -0.1819 -0.1806  0.3874
 3943TIP3   OH233387   4.385   1.619   1.708 -0.1396 -0.5364  0.2339
 3943TIP3    H133388   4.400   1.608   1.614 -1.0201  0.8080 -0.0917
 3943TIP3    H233389   4.399   1.532   1.744  1.8655 -0.7473 -0.8848
 3944TIP3   OH233390   3.354   6.640   7.835 -0.1000 -0.4926  0.1456
 3944TIP3    H133391   3.338   6.636   7.740  0.1924 -0.3491  0.0888
 3944TIP3    H233392   3.441   6.680   7.843 -0.8889  1.2367  0.5384
 3945TIP3   OH233393   1.552   1.272   8.256  0.0897 -0.3043  0.1324
 3945TIP3    H133394   1.592   1.197   8.212  0.2109 -0.1359 -0.0434
 3945TIP3    H233395   1.618   1.341   8.251 -1.2003  0.8885 -2.5918
 3946TIP3   OH233396   4.960   0.978   0.710 -0.2743  0.5546  0.3143
 3946TIP3    H133397   4.896   1.035   0.668 -1.0104 -0.7573 -0.4178
 3946TIP3    H233398   4.911   0.901   0.736  0.6499  0.3399  1.5060
 3947TIP3   OH233399   0.974   4.458   1.792  0.1299  0.2624  0.3832
 3947TIP3    H133400   0.970   4.428   1.882  1.2894  0.8560  0.6576
 3947TIP3    H233401   1.003   4.549   1.799  1.0126  0.0765 -0.6111
 3948TIP3   OH233402   3.511   4.696   2.319 -0.5001 -0.0115  0.0947
 3948TIP3    H133403   3.486   4.678   2.410 -0.5466  2.8487  0.7199
 3948TIP3    H233404   3.582   4.635   2.301  0.2263  0.0829  2.4119
 3949TIP3   OH233405   0.031   1.862   0.021  0.2113  0.5333 -0.4390
 3949TIP3    H133406  -0.009   1.791   0.071 -0.5374  0.0254 -1.6959
 3949TIP3    H233407   0.006   1.942   0.067  1.2162  0.0157  1.1022
 3950TIP3   OH233408   1.573   0.765   1.250 -0.2417 -0.7967 -0.5140
 3950TIP3    H133409   1.584   0.754   1.156 -1.5462  2.5791 -1.2056
 3950TIP3    H233410   1.654   0.806   1.280  0.1987 -1.9210 -0.0837
 3951TIP3   OH233411   5.741   1.996   8.289  0.2214  0.0588  0.1985
 3951TIP3    H133412   5.647   1.979   8.294 -0.0686  1.5214  0.2088
 3951TIP3    H233413   5.759   2.053   8.364  1.3843 -1.2154  0.9494
 3952TIP3   OH233414   4.765   0.020   8.362 -0.3197 -0.1285  0.2816
 3952TIP3    H133415   4.848   0.058   8.392 -0.4900 -1.6286  2.9629
 3952TIP3    H233416   4.705   0.035   8.434 -1.7164 -1.2451 -0.6019
 3953TIP3   OH233417   1.819   3.056   7.245  0.3073 -1.0221 -0.6977
 3953TIP3    H133418   1.823   3.149   7.222  0.7068 -0.1160  2.5023
 3953TIP3    H233419   1.909   3.034   7.272 -0.2064 -1.7099  0.5596
 3954TIP3   OH233420   5.467   1.241   8.009  0.0479 -0.0237  0.2476
 3954TIP3    H133421   5.470   1.147   7.992  0.9337  0.1919 -0.9319
 3954TIP3    H233422   5.414   1.277   7.938  0.1991  0.4335  0.3592
 3955TIP3   OH233423   2.800   4.613   0.861  0.2037 -0.0663  0.5134
 3955TIP3    H133424   2.745   4.598   0.784  0.5018 -1.4774  0.5352
 3955TIP3    H233425   2.753   4.679   0.912 -0.2316  0.5365 -0.6436
 3956TIP3   OH233426   4.933   4.339   6.886 -0.0069 -0.3623  0.3609
 3956TIP3    H133427   4.887   4.364   6.965 -1.9355  2.8220 -1.5475
 3956TIP3    H233428   5.013   4.391   6.886 -0.6082  0.5937 -0.3020
 3957TIP3   OH233429   4.546   1.967   1.283 -0.4106  0.3476 -0.0812
 3957TIP3    H133430   4.549   1.903   1.354  0.5155 -0.4425 -0.8055
 3957TIP3    H233431   4.602   2.039   1.313  1.1928 -0.6290 -0.5727
 3958TIP3   OH233432   1.317   5.306   1.785 -0.4526 -0.0339  0.3011
 3958TIP3    H133433   1.396   5.282   1.832  0.8110  0.6389 -1.4062
 3958TIP3    H233434   1.335   5.393   1.750 -2.7197  1.0173  1.5080
 3959TIP3   OH233435   4.653   0.556   1.371  0.1851  0.0290  0.4007
 3959TIP3    H133436   4.663   0.573   1.278 -4.7282  1.3150 -0.1652
 3959TIP3    H233437   4.715   0.616   1.413  3.0056 -1.0513 -1.8600
 3960TIP3   OH233438   6.533   3.591   1.413 -0.0236 -0.6638  0.1835
 3960TIP3    H133439   6.617   3.562   1.449 -0.5924 -2.3496  0.2624
 3960TIP3    H233440   6.476   3.599   1.489  0.1726  0.9741  0.1861
 3961TIP3   OH233441   3.671   3.494   0.880 -0.5049 -0.5804 -0.9679
 3961TIP3    H133442   3.646   3.421   0.823  0.1328 -2.1698  0.6759
 3961TIP3    H233443   3.635   3.471   0.965  1.6088 -0.1287  0.1275
 3962TIP3   OH233444   0.021   3.456   0.516  0.0829  0.1366  0.3214
 3962TIP3    H133445  -0.026   3.429   0.595  0.5534  0.7266  0.8190
 3962TIP3    H233446  -0.047   3.486   0.456 -0.1503  2.4955  1.6200
 3963TIP3   OH233447   2.634   3.293   1.483  0.1694  0.0662 -0.8085
 3963TIP3    H133448   2.664   3.291   1.392 -0.3387 -0.4883 -0.9737
 3963TIP3    H233449   2.606   3.384   1.497  2.8882  0.9082 -0.2940
 3964TIP3   OH233450   6.482   5.241   2.436 -0.4112 -0.4082  0.4667
 3964TIP3    H133451   6.550   5.177   2.456 -0.7467 -0.9975 -0.2565
 3964TIP3    H233452   6.528   5.325   2.435  0.2415 -0.7612  0.3530
 3965TIP3   OH233453   2.585   6.581   0.209 -0.0069  0.3704 -0.0892
 3965TIP3    H133454   2.632   6.609   0.288 -0.5204 -0.3272  0.4893
 3965TIP3    H233455   2.514   6.525   0.243 -0.9610  1.0139 -0.9655
 3966TIP3   OH233456   1.633   1.942   8.313 -0.3895 -0.0038  0.3174
 3966TIP3    H133457   1.679   1.890   8.379  0.0189 -1.5067 -1.0741
 3966TIP3    H233458   1.540   1.926   8.330 -0.3338  0.7966  1.4170
 3967TIP3   OH233459   1.318   4.681   7.714 -0.0152  0.1930  0.0157
 3967TIP3    H133460   1.266   4.601   7.715  1.1551 -0.6311 -1.1549
 3967TIP3    H233461   1.254   4.751   7.724 -0.9927 -0.8941  1.8213
 3968TIP3   OH233462   4.404   5.667   0.384 -0.2898 -0.3109  0.2665
 3968TIP3    H133463   4.420   5.693   0.293 -0.0637 -1.1576  0.0551
 3968TIP3    H233464   4.340   5.731   0.416 -1.4677 -0.8437 -0.9268
 3969TIP3   OH233465   1.550   3.053   7.225  0.1111  0.2373 -0.0151
 3969TIP3    H133466   1.645   3.055   7.241  0.4246 -2.1758 -1.1626
 3969TIP3    H233467   1.513   3.033   7.311  0.7221  0.1161  0.2305
 3970TIP3   OH233468   3.169   5.736   0.625 -0.4734  0.2346  0.1450
 3970TIP3    H133469   3.164   5.681   0.547  0.5418  1.1235 -0.5663
 3970TIP3    H233470   3.260   5.762   0.631 -1.0817  2.6799 -0.1554
 3971TIP3   OH233471   0.254   4.392   6.329 -0.3022 -0.0302 -0.2474
 3971TIP3    H133472   0.344   4.393   6.295 -0.8814  0.0653 -1.8771
 3971TIP3    H233473   0.209   4.459   6.277 -1.0991  0.5861  1.2001
 3972TIP3   OH233474   5.252   0.594   0.940 -0.5541  0.1483 -0.4668
 3972TIP3    H133475   5.328   0.645   0.967 -1.0196  0.4280  0.3501
 3972TIP3    H233476   5.288   0.516   0.898  0.3075 -1.5623  3.1504
 3973TIP3   OH233477   3.091   0.604   8.321  0.5460  0.6776 -0.0169
 3973TIP3    H133478   3.021   0.645   8.270  0.4342 -0.4085 -0.7687
 3973TIP3    H233479   3.065   0.616   8.412 -0.3775  0.7112 -0.2788
 3974TIP3   OH233480   0.388   6.478   0.117  0.3849  0.1737 -0.6147
 3974TIP3    H133481   0.403   6.491   0.023 -0.4649 -0.5753 -0.8589
 3974TIP3    H233482   0.397   6.566   0.154  1.4768  0.3603 -1.2818
 3975TIP3   OH233483   0.540   3.685   1.614  0.0479  0.0301 -0.5370
 3975TIP3    H133484   0.614   3.658   1.669  0.2213 -1.0858 -1.2769
 3975TIP3    H233485   0.476   3.615   1.626 -0.1380  0.0674 -1.3183
 3976TIP3   OH233486   3.923   4.064   2.364 -0.1839  0.3745 -0.1128
 3976TIP3    H133487   3.858   4.134   2.375 -2.1543 -1.3222 -0.2968
 3976TIP3    H233488   3.899   4.021   2.282  0.7054 -0.8008  0.2123
 3977TIP3   OH233489   4.401   4.528   1.329 -0.1710  0.5977 -0.0938
 3977TIP3    H133490   4.386   4.511   1.422 -0.1317  0.4631 -0.1111
 3977TIP3    H233491   4.402   4.441   1.289 -2.2114  0.7150 -0.5366
 3978TIP3   OH233492   1.861   5.776   8.607  0.0327  0.1679 -0.1140
 3978TIP3    H133493   1.822   5.778   8.520 -1.1489  0.9708  0.4073
 3978TIP3    H233494   1.880   5.683   8.623  1.4406  0.1510 -1.7118
 3979TIP3   OH233495   2.899   1.380   0.273  0.8735 -0.1398 -0.1631
 3979TIP3    H133496   2.993   1.393   0.261  1.2719 -0.0455  2.5872
 3979TIP3    H233497   2.864   1.469   0.283  1.2775 -0.2567  3.3919
 3980TIP3   OH233498   0.062   3.370   1.017  0.1979  0.2481  0.2029
 3980TIP3    H133499   0.065   3.373   1.113 -1.1876  0.8994  0.2547
 3980TIP3    H233500   0.018   3.288   0.997  2.4149 -0.9651  0.0196
 3981TIP3   OH233501   4.715   1.138   6.870  0.3721 -0.1900  0.1321
 3981TIP3    H133502   4.653   1.092   6.813  1.1761 -2.0509  0.6666
 3981TIP3    H233503   4.754   1.068   6.923  1.7698  1.1286  0.9030
 3982TIP3   OH233504   4.479   3.395   2.239  0.5376  0.6470  0.2042
 3982TIP3    H133505   4.397   3.362   2.203  0.6777 -0.1481  0.6001
 3982TIP3    H233506   4.529   3.425   2.163  0.3049  0.1703 -0.1361
 3983TIP3   OH233507   3.791   2.400   1.871 -0.1258 -0.1000  0.3627
 3983TIP3    H133508   3.886   2.407   1.869 -0.0445 -1.0803  0.0729
 3983TIP3    H233509   3.760   2.489   1.857  0.7534 -0.0915 -2.0413
 3984TIP3   OH233510   4.451   1.684   2.382 -0.1957 -0.1606 -0.3310
 3984TIP3    H133511   4.368   1.722   2.355 -0.5031 -1.3918 -1.1983
 3984TIP3    H233512   4.477   1.734   2.460 -1.6506  0.3519 -0.1571
 3985TIP3   OH233513   5.426   3.593   2.093  0.2193 -0.1805 -0.1976
 3985TIP3    H133514   5.507   3.586   2.143 -0.0443 -0.0035  0.2644
 3985TIP3    H233515   5.445   3.552   2.009  0.1154 -2.1559  0.6999
 3986TIP3   OH233516   5.720   2.679   1.546  0.2727 -0.1170 -0.0176
 3986TIP3    H133517   5.813   2.661   1.562  0.1274  1.2934  3.0462
 3986TIP3    H233518   5.719   2.764   1.501  0.4987  0.3205  0.7734
 3987TIP3   OH233519   4.120   4.009   8.398  0.7413  0.3743  0.8708
 3987TIP3    H133520   4.072   4.090   8.414 -1.0022 -0.2066 -0.9137
 3987TIP3    H233521   4.144   4.014   8.305  2.7382 -0.1309  1.3095
 3988TIP3   OH233522   3.031   1.791   7.657 -0.0191 -0.1221 -0.0576
 3988TIP3    H133523   2.948   1.815   7.697  0.2182  1.2802 -0.3668
 3988TIP3    H233524   3.098   1.830   7.713  0.3887 -0.2078 -0.4736
 3989TIP3   OH233525   5.514   2.232   0.174  0.3336 -0.3016  0.4094
 3989TIP3    H133526   5.481   2.229   0.264  1.9794  0.4837  1.0688
 3989TIP3    H233527   5.479   2.152   0.134 -1.6216  0.0608  1.2902
 3990TIP3   OH233528   4.921   1.087   7.684  0.5740 -0.2472 -0.4624
 3990TIP3    H133529   4.962   1.000   7.676  3.6401  0.8070  1.7332
 3990TIP3    H233530   4.938   1.113   7.774 -2.0955  1.8504 -0.4588
 3991TIP3   OH233531   6.528   4.855   2.322  0.0220 -0.3057 -0.5310
 3991TIP3    H133532   6.487   4.776   2.356 -0.8135  0.1106 -0.5328
 3991TIP3    H233533   6.608   4.866   2.373 -0.2986 -0.6757  0.0575
 3992TIP3   OH233534   5.906   6.301   0.131  0.4841 -0.2906  0.2641
 3992TIP3    H133535   5.872   6.345   0.209  0.1822  1.3049 -0.7285
 3992TIP3    H233536   6.000   6.293   0.146  0.7684  1.9470 -0.0741
 3993TIP3   OH233537   6.213   4.590   2.195 -0.1678 -0.7942 -0.1409
 3993TIP3    H133538   6.301   4.552   2.203 -0.1963 -1.0396 -0.9379
 3993TIP3    H233539   6.179   4.589   2.284  0.1901 -1.7817 -0.0034
 3994TIP3   OH233540   5.372   6.350   0.367  0.4402 -0.8742  0.0849
 3994TIP3    H133541   5.341   6.293   0.437  1.4772 -2.0972 -0.4079
 3994TIP3    H233542   5.440   6.299   0.323 -0.7968 -0.5358 -2.3892
 3995TIP3   OH233543   5.669   5.354   8.133  0.0576 -0.3197 -0.2226
 3995TIP3    H133544   5.593   5.318   8.088 -1.3400  1.3764  0.6525
 3995TIP3    H233545   5.733   5.369   8.063 -0.8015 -0.8111 -1.1433
 3996TIP3   OH233546   5.022   6.828   7.468 -0.7172  0.3380 -0.3808
 3996TIP3    H133547   4.948   6.828   7.408 -1.3389 -2.4475  0.2380
 3996TIP3    H233548   5.095   6.796   7.415 -0.5071  0.8635 -0.4116
 3997TIP3   OH233549   6.279   3.352   0.301  0.5036 -0.0345 -0.3121
 3997TIP3    H133550   6.184   3.354   0.295  0.4320 -0.4300  0.5962
 3997TIP3    H233551   6.302   3.259   0.301  0.7380 -0.0116  1.4142
 3998TIP3   OH233552   0.832   1.756   6.593 -0.1978 -0.5496  0.0717
 3998TIP3    H133553   0.873   1.812   6.658 -2.0484 -0.0604  0.8747
 3998TIP3    H233554   0.741   1.746   6.623  0.0873 -4.2485  0.1670
 3999TIP3   OH233555   5.206   3.234   8.205 -0.3223  0.3938 -0.0178
 3999TIP3    H133556   5.298   3.247   8.182 -0.0747  0.1891  0.8297
 3999TIP3    H233557   5.165   3.204   8.124  0.0061  2.0739 -0.8447
 4000TIP3   OH233558   1.292   4.986   2.347 -0.0075 -0.0136 -0.1012
 4000TIP3    H133559   1.335   5.062   2.308 -3.3780  2.0680 -0.1407
 4000TIP3    H233560   1.255   4.939   2.272  0.4109 -0.6037  0.0608
 4001TIP3   OH233561   4.288   3.096   7.589  0.0483 -0.5358  0.3581
 4001TIP3    H133562   4.266   3.168   7.530 -1.5131  0.6326  2.2328
 4001TIP3    H233563   4.213   3.037   7.582  0.0872 -0.6364  0.7853
 4002TIP3   OH233564   6.654   0.778   7.822  0.1355 -0.0193  0.0148
 4002TIP3    H133565   6.607   0.698   7.797 -0.5503  0.5326 -0.4931
 4002TIP3    H233566   6.601   0.849   7.786  1.0820  0.6421 -0.1018
 4003TIP3   OH233567   1.047   5.232   1.728  0.3999 -0.1583  0.9326
 4003TIP3    H133568   1.013   5.277   1.805 -0.7373  0.8065 -0.0976
 4003TIP3    H233569   1.141   5.248   1.730  0.2540  0.6781  1.6060
 4004TIP3   OH233570   6.415   6.206   0.958  0.3013  0.1907  0.3726
 4004TIP3    H133571   6.474   6.143   0.916  1.0480  0.1399  1.4553
 4004TIP3    H233572   6.392   6.165   1.042 -2.4009 -0.4165 -0.5685
 4005TIP3   OH233573   5.155   0.959   0.033 -0.0661  0.7961  0.4442
 4005TIP3    H133574   5.212   0.952   0.109  0.1106  0.5596  0.2925
 4005TIP3    H233575   5.212   0.988  -0.038 -0.6328  3.0972  0.8639
 4006TIP3   OH233576   0.175   1.376   8.533 -0.0660 -0.2712  0.1215
 4006TIP3    H133577   0.141   1.447   8.479  0.3992  0.7987  1.2046
 4006TIP3    H233578   0.265   1.364   8.503  0.7712  1.5089  1.7686
 4007TIP3   OH233579   3.862   3.364   7.756  0.4714  0.3934  0.0925
 4007TIP3    H133580   3.926   3.431   7.734  1.4287 -0.3038  0.6533
 4007TIP3    H233581   3.907   3.281   7.738 -0.1446 -0.1169  0.8003
 4008TIP3   OH233582   2.928   4.470   8.128  0.1439 -0.6477 -0.4392
 4008TIP3    H133583   2.995   4.489   8.195 -0.0546  1.8900 -0.8441
 4008TIP3    H233584   2.846   4.469   8.177 -0.0134  1.3100 -0.5589
 4009TIP3   OH233585   5.860   1.759   1.197 -0.4108 -0.2208 -0.5482
 4009TIP3    H133586   5.894   1.766   1.108 -2.3597  2.0328 -1.2229
 4009TIP3    H233587   5.901   1.832   1.244 -2.5011  1.2200 -0.8153
 4010TIP3   OH233588   6.606   2.489   7.524  0.2569 -0.4899 -0.0075
 4010TIP3    H133589   6.650   2.485   7.608 -0.6550  0.9738  0.5875
 4010TIP3    H233590   6.610   2.582   7.500 -1.6334 -0.4740 -0.3794
 4011TIP3   OH233591   6.238   6.674   1.082 -0.3028  0.2932 -0.2120
 4011TIP3    H133592   6.263   6.624   1.159  0.2114  0.0008 -0.5663
 4011TIP3    H233593   6.161   6.627   1.047 -1.0229  0.8747  0.5566
 4012TIP3   OH233594   5.436   5.740   0.184  0.0316 -0.3271  0.2128
 4012TIP3    H133595   5.499   5.676   0.219  0.4575  0.4326  0.8636
 4012TIP3    H233596   5.487   5.792   0.122 -0.4823 -1.0342 -0.8304
 4013TIP3   OH233597   6.380   4.418   7.172  0.2388 -0.1750  0.4928
 4013TIP3    H133598   6.305   4.417   7.231 -1.1658 -0.7580 -1.2175
 4013TIP3    H233599   6.380   4.331   7.131  2.1132 -0.3373  0.7293
 4014TIP3   OH233600   1.955   4.257   2.116  0.4371 -0.0686 -0.0377
 4014TIP3    H133601   1.866   4.268   2.149 -0.7001 -0.4055 -2.7148
 4014TIP3    H233602   1.995   4.343   2.124  0.4288 -0.2220  2.4684
 4015TIP3   OH233603   5.602   5.308   0.895 -0.1219 -0.2251  0.1095
 4015TIP3    H133604   5.616   5.393   0.853 -1.4560 -0.0638 -0.0484
 4015TIP3    H233605   5.514   5.314   0.931  1.1984 -0.0326  3.7416
 4016TIP3   OH233606   2.252   6.141   0.936  0.0262 -0.4027 -0.1685
 4016TIP3    H133607   2.167   6.162   0.898 -0.8768 -1.0207  1.3871
 4016TIP3    H233608   2.230   6.098   1.019  1.8620 -0.9383  0.0707
 4017TIP3   OH233609   1.941   2.058   2.235  0.3588  0.4988 -0.0827
 4017TIP3    H133610   1.847   2.066   2.252  0.3885 -1.3469  1.2627
 4017TIP3    H233611   1.977   2.022   2.316  2.2247  1.0773 -0.6123
 4018TIP3   OH233612   5.688   2.553   2.579  0.2913 -0.4993 -0.3625
 4018TIP3    H133613   5.749   2.627   2.583  0.5798 -0.7234 -0.5656
 4018TIP3    H233614   5.603   2.593   2.558  0.5977 -0.2964 -1.2517
 4019TIP3   OH233615   3.347   5.776   1.260  0.0557 -0.4839  0.5303
 4019TIP3    H133616   3.284   5.849   1.263 -0.0331 -0.5108 -0.3846
 4019TIP3    H233617   3.432   5.817   1.276 -0.1287 -0.3718  1.2754
 4020TIP3   OH233618   2.274   5.618   7.813  0.2389 -0.0194  0.4362
 4020TIP3    H133619   2.329   5.636   7.737  0.4188  2.1773  1.0258
 4020TIP3    H233620   2.250   5.704   7.847 -0.0867 -0.9279  2.7043
 4021TIP3   OH233621   2.324   4.384   7.738  0.3685  0.6841 -0.1609
 4021TIP3    H133622   2.290   4.435   7.665 -0.0085  1.0176  0.2422
 4021TIP3    H233623   2.274   4.302   7.735 -0.9585  1.4210  0.8112
 4022TIP3   OH233624   1.802   0.605   1.530 -0.7197 -0.3538  0.3260
 4022TIP3    H133625   1.771   0.584   1.619  1.4446 -1.5031  0.8790
 4022TIP3    H233626   1.863   0.677   1.543  1.9177 -2.4267  0.3007
 4023TIP3   OH233627   6.813   3.095   2.512  0.0277  0.3187  0.1582
 4023TIP3    H133628   6.847   3.166   2.458  2.0933  0.3418  1.3961
 4023TIP3    H233629   6.882   3.078   2.576 -0.9507 -1.9386  0.7099
 4024TIP3   OH233630   4.827   3.611   8.095 -0.1438  0.2575  0.1338
 4024TIP3    H133631   4.790   3.554   8.162  0.3661 -0.4466 -0.1697
 4024TIP3    H233632   4.860   3.551   8.028 -1.7277  0.9494 -1.3564
 4025TIP3   OH233633   6.374   5.164   1.184 -0.1921 -0.3403  0.1575
 4025TIP3    H133634   6.302   5.216   1.219 -0.6726 -0.2574 -0.9244
 4025TIP3    H233635   6.336   5.079   1.164  0.1149 -0.4421 -0.0088
 4026TIP3   OH233636   4.588   4.202   0.781 -0.3346  0.0606 -0.0590
 4026TIP3    H133637   4.518   4.205   0.846 -0.7744 -0.5056 -0.4931
 4026TIP3    H233638   4.552   4.249   0.706  0.3818  1.1991  0.2886
 4027TIP3   OH233639   3.360   2.877   1.128 -0.3579  0.7652  0.1569
 4027TIP3    H133640   3.303   2.930   1.072 -0.9237  0.1531  0.1344
 4027TIP3    H233641   3.336   2.901   1.217 -0.6711  0.5043  0.1476
 4028TIP3   OH233642   5.410   6.164   8.657  0.1690 -0.3232  0.1704
 4028TIP3    H133643   5.386   6.256   8.671 -0.0133 -0.5921  1.9912
 4028TIP3    H233644   5.345   6.115   8.708  0.8849 -1.4033  0.0798
 4029TIP3   OH233645   4.362   5.897   0.999  0.0070 -0.3729  0.1717
 4029TIP3    H133646   4.400   5.881   1.086 -1.0828 -0.9812  0.5507
 4029TIP3    H233647   4.386   5.820   0.948 -0.1943 -0.4776  0.2333
 4030TIP3   OH233648   1.749   4.734   0.835  0.7258  0.4526  0.3864
 4030TIP3    H133649   1.745   4.800   0.766 -1.9332 -0.4892 -0.4852
 4030TIP3    H233650   1.834   4.690   0.821  1.3496  1.9228 -0.6550
 4031TIP3   OH233651   4.930   3.944   1.747 -0.7140  0.1368  0.3018
 4031TIP3    H133652   4.890   4.027   1.773  0.2879  0.5618  0.5394
 4031TIP3    H233653   4.911   3.884   1.820 -2.9486 -0.3840 -0.6391
 4032TIP3   OH233654   2.158   2.684   0.304  0.8531 -0.5280  0.0584
 4032TIP3    H133655   2.149   2.601   0.257  2.5295 -0.6577 -0.0966
 4032TIP3    H233656   2.086   2.737   0.272 -0.6282 -2.1064  0.5992
 4033TIP3   OH233657   0.526   0.066   1.504  0.4032  0.2035  0.2791
 4033TIP3    H133658   0.457   0.000   1.494 -0.6350  1.2734  0.2351
 4033TIP3    H233659   0.590   0.043   1.437  0.0350 -0.7149  0.2180
 4034TIP3   OH233660   3.696   5.860   1.586 -0.0067  0.1427 -0.2214
 4034TIP3    H133661   3.731   5.820   1.666 -0.6728 -0.3071 -0.1447
 4034TIP3    H233662   3.667   5.786   1.533  0.1666  0.4553 -0.7527
 4035TIP3   OH233663   1.005   4.811   8.166 -0.3233 -0.1016 -0.1004
 4035TIP3    H133664   0.915   4.780   8.172 -0.5658  0.7296  0.8551
 4035TIP3    H233665   1.006   4.891   8.218  1.1713 -0.5456  0.5961
 4036TIP3   OH233666   5.972   1.942   1.424  0.1985 -0.0903  0.5916
 4036TIP3    H133667   5.888   1.987   1.409 -1.0025 -2.4112 -0.0946
 4036TIP3    H233668   6.036   1.996   1.378 -1.6918 -0.8941 -3.3947
 4037TIP3   OH233669   4.257   0.335   0.735  0.0212  0.0979  0.5638
 4037TIP3    H133670   4.167   0.338   0.769 -1.5832  0.6009 -3.1789
 4037TIP3    H233671   4.254   0.269   0.666  2.2484  0.8358 -0.3223
 4038TIP3   OH233672   5.071   3.513   0.628  0.0236  0.2029  0.4161
 4038TIP3    H133673   5.165   3.520   0.607 -0.2087 -0.3899 -0.8858
 4038TIP3    H233674   5.057   3.579   0.696  0.9933  1.6704 -0.7504
 4039TIP3   OH233675   3.470   3.611   1.138  0.0484 -0.0769  0.3608
 4039TIP3    H133676   3.550   3.559   1.152 -0.9177 -1.4826  0.8551
 4039TIP3    H233677   3.422   3.605   1.221 -0.5818  0.7471  0.0694
 4040TIP3   OH233678   4.897   5.025   8.299 -0.4895 -0.6132 -0.2387
 4040TIP3    H133679   4.833   5.060   8.360 -1.0890  0.5476 -1.4829
 4040TIP3    H233680   4.907   5.094   8.233  1.4009 -1.1158 -0.5383
 4041TIP3   OH233681   2.153   1.327   7.629 -0.3704  0.3639  0.0928
 4041TIP3    H133682   2.111   1.361   7.709 -0.3541 -2.0935  1.2444
 4041TIP3    H233683   2.122   1.385   7.559  0.3309  3.1885  1.9367
 4042TIP3   OH233684   2.203   1.570   8.175  0.0988  0.0658 -0.3908
 4042TIP3    H133685   2.111   1.593   8.165  0.3125  1.0091 -0.2418
 4042TIP3    H233686   2.248   1.619   8.107  0.7173  1.1123  0.7282
 4043TIP3   OH233687   2.983   6.307   1.720  0.1294  0.0561 -0.0108
 4043TIP3    H133688   3.023   6.225   1.748 -1.3452 -1.0090 -0.8380
 4043TIP3    H233689   2.890   6.296   1.741 -0.3921  0.7306 -1.7852
 4044TIP3   OH233690   2.110   2.941   1.323 -0.1346  0.1511 -0.4628
 4044TIP3    H133691   2.166   2.989   1.383 -1.4939 -0.0849  1.0747
 4044TIP3    H233692   2.159   2.938   1.241  1.3379  1.3830  0.3256
 4045TIP3   OH233693   3.416   4.520   0.926  0.4891  0.2147 -0.7298
 4045TIP3    H133694   3.380   4.548   1.010  1.1041 -0.2004 -0.3198
 4045TIP3    H233695   3.390   4.429   0.917  1.5306 -0.1328 -0.3608
 4046TIP3   OH233696   2.753   2.851   0.859 -0.3335  0.2193  0.0784
 4046TIP3    H133697   2.825   2.826   0.917 -1.9428  1.1394  2.6265
 4046TIP3    H233698   2.735   2.771   0.809  1.3478 -0.5105  0.5468
 4047TIP3   OH233699   6.775   3.572   7.567 -0.3259 -0.1307  0.0937
 4047TIP3    H133700   6.739   3.651   7.609 -0.8834  1.2725 -2.7302
 4047TIP3    H233701   6.698   3.523   7.539  0.0022 -0.2285 -0.6465
 4048TIP3   OH233702   0.478   1.651   7.104  0.6976  0.1947  0.2508
 4048TIP3    H133703   0.501   1.705   7.029  0.7554 -0.1503  0.0196
 4048TIP3    H233704   0.438   1.573   7.066 -0.3483  0.5367  0.6223
 4049TIP3   OH233705   4.942   4.659   8.185 -0.4357  0.2350 -0.0169
 4049TIP3    H133706   5.003   4.589   8.164 -0.2390  0.1688  0.7373
 4049TIP3    H233707   4.885   4.666   8.108 -2.0454 -2.4359  0.8073
 4050TIP3   OH233708   2.906   4.845   7.685  0.3817 -0.4027 -0.5839
 4050TIP3    H133709   2.996   4.877   7.679  0.5271 -0.8958 -1.1717
 4050TIP3    H233710   2.865   4.900   7.751  1.4560 -0.9595  0.5901
 4051TIP3   OH233711   2.340   5.046   0.765 -0.0148  0.4034 -0.9779
 4051TIP3    H133712   2.379   5.103   0.698 -2.2823  0.5906 -2.2425
 4051TIP3    H233713   2.287   4.984   0.715 -0.4329 -0.5392  0.5931
 4052TIP3   OH233714   5.261   4.862   0.573  0.2937 -0.3129  0.3448
 4052TIP3    H133715   5.321   4.912   0.518 -0.7161 -1.1484 -1.5749
 4052TIP3    H233716   5.296   4.874   0.662  1.6244  1.5476 -0.3552
 4053TIP3   OH233717   5.321   0.832   7.135 -0.1084 -0.5715 -0.1658
 4053TIP3    H133718   5.228   0.843   7.154  0.0902  0.5906  0.2293
 4053TIP3    H233719   5.365   0.889   7.198  0.8714 -1.1386 -0.3230
 4054TIP3   OH233720   5.632   2.593   7.932  0.1219  0.1518  0.6220
 4054TIP3    H133721   5.699   2.646   7.975  1.3770 -0.4156 -0.5643
 4054TIP3    H233722   5.641   2.613   7.839 -0.0077 -1.4159  0.2393
 4055TIP3   OH233723   5.621   6.547   1.591 -0.1466  0.1422  0.2385
 4055TIP3    H133724   5.569   6.468   1.577  1.0168 -0.3180 -1.8043
 4055TIP3    H233725   5.567   6.601   1.648 -1.9852 -1.1298 -0.2109
 4056TIP3   OH233726   6.477   4.805   2.708  0.1834 -0.5961 -0.1414
 4056TIP3    H133727   6.521   4.749   2.644 -0.0850  0.7791 -1.5918
 4056TIP3    H233728   6.547   4.860   2.743 -0.1653  1.0776 -1.9032
 4057TIP3   OH233729   6.360   1.467   7.083  0.4041 -0.0951  0.3821
 4057TIP3    H133730   6.378   1.541   7.025  0.3422 -1.4106 -1.4376
 4057TIP3    H233731   6.266   1.452   7.073  0.5293 -0.7973  0.2191
 4058TIP3   OH233732   5.115   0.240   0.446 -0.1147  0.1796  0.2996
 4058TIP3    H133733   5.127   0.327   0.483  1.4008  0.7547 -1.3801
 4058TIP3    H233734   5.021   0.232   0.432 -0.2034  1.8463 -0.1779
 4059TIP3   OH233735   5.260   6.404   2.331  0.3783  0.0855 -0.3225
 4059TIP3    H133736   5.207   6.388   2.253  1.8658 -4.6493 -0.6788
 4059TIP3    H233737   5.342   6.440   2.298  0.4778 -0.5715 -0.8101
 4060TIP3   OH233738   5.129   6.582   7.777  0.1200 -0.1126  0.3142
 4060TIP3    H133739   5.164   6.597   7.689  0.1189  3.7457  0.7828
 4060TIP3    H233740   5.035   6.599   7.769  0.5048  3.4098  1.4179
 4061TIP3   OH233741   4.746   4.106   1.904  0.5368  0.0756  0.3026
 4061TIP3    H133742   4.748   4.201   1.916 -2.3437  0.2525 -0.0573
 4061TIP3    H233743   4.713   4.072   1.987 -1.2153 -0.3307 -0.5318
 4062TIP3   OH233744   4.249   2.139   1.418 -0.0644 -0.5996  0.4039
 4062TIP3    H133745   4.190   2.198   1.372 -0.4127 -1.0597  0.2575
 4062TIP3    H233746   4.334   2.183   1.413 -0.8961  1.5848  3.2985
 4063TIP3   OH233747   5.262   4.443   2.136 -0.3082  0.0983 -0.8087
 4063TIP3    H133748   5.212   4.477   2.061  1.0112 -0.3271 -1.9178
 4063TIP3    H233749   5.295   4.521   2.180 -2.4571  0.4190  0.3449
 4064TIP3   OH233750   3.971   5.841   0.015  0.0429  0.4030 -0.3467
 4064TIP3    H133751   3.999   5.753   0.041 -0.9760 -0.3429 -1.5709
 4064TIP3    H233752   4.042   5.874  -0.039  0.1382  0.0387 -0.4487
 4065TIP3   OH233753   6.368   0.569   7.566  0.3732  0.0897 -0.0903
 4065TIP3    H133754   6.389   0.479   7.591  1.9730  1.0569  2.4830
 4065TIP3    H233755   6.446   0.599   7.519  0.5832  0.6615  0.6211
 4066TIP3   OH233756   4.897   0.353   2.275  0.2336 -0.4008  0.6672
 4066TIP3    H133757   4.936   0.272   2.307 -1.0653 -1.1473  0.4185
 4066TIP3    H233758   4.802   0.339   2.282 -0.0181  0.9988  0.3876
 4067TIP3   OH233759   5.289   2.964   7.971 -0.5429 -0.4872  0.0292
 4067TIP3    H133760   5.329   3.051   7.972 -1.7616  0.0875  1.3402
 4067TIP3    H233761   5.246   2.956   8.056  2.0589 -3.6042  1.2523
 4068TIP3   OH233762   5.285   1.582   7.989 -0.1398 -0.3426 -0.4300
 4068TIP3    H133763   5.378   1.600   8.002 -0.3785  0.3203  0.4935
 4068TIP3    H233764   5.281   1.535   7.906  1.3544 -3.2270  0.9703
 4069TIP3   OH233765   5.120   2.340   8.267 -0.0781  0.2323  0.1929
 4069TIP3    H133766   5.199   2.393   8.276 -0.9633  1.6410  0.0252
 4069TIP3    H233767   5.149   2.250   8.284  1.1280  0.9557  2.3027
 4070TIP3   OH233768   1.501   6.504   7.064 -0.4629 -0.3772 -0.0208
 4070TIP3    H133769   1.535   6.486   7.151 -0.0398  3.6069  0.8197
 4070TIP3    H233770   1.410   6.474   7.067 -1.4413  2.3092  2.9933
 4071TIP3   OH233771   3.286   0.910   0.478 -0.1084  0.2317  0.3889
 4071TIP3    H133772   3.373   0.949   0.475 -0.0803  0.4124  2.3628
 4071TIP3    H233773   3.301   0.816   0.465  0.3665  0.2877  0.5100
 4072TIP3   OH233774   1.023   4.994   1.504  0.9322 -0.2110 -0.1076
 4072TIP3    H133775   1.044   5.075   1.551 -1.8321  0.4989  0.0825
 4072TIP3    H233776   0.950   5.018   1.448  1.1489 -2.2100 -1.3176
 4073TIP3   OH233777   6.341   1.529   7.928  0.3107 -0.0248 -0.2015
 4073TIP3    H133778   6.296   1.553   8.009  2.5482 -0.2297  1.1841
 4073TIP3    H233779   6.431   1.510   7.955  1.0589 -0.4172 -2.7039
 4074TIP3   OH233780   2.214   2.133   8.276  0.2306 -0.3243 -0.2985
 4074TIP3    H133781   2.241   2.049   8.240 -1.1826 -0.7739 -0.3564
 4074TIP3    H233782   2.120   2.138   8.260 -0.2806 -0.0452  2.2864
 4075TIP3   OH233783   3.638   0.103   2.292  0.1379 -0.1352  0.3679
 4075TIP3    H133784   3.615   0.107   2.199 -1.7341 -1.2503  0.7350
 4075TIP3    H233785   3.729   0.074   2.293 -0.2964 -1.6702 -1.1205
 4076TIP3   OH233786   0.379   2.670   8.391  0.6129 -0.0019  0.4719
 4076TIP3    H133787   0.355   2.728   8.464 -0.7449 -0.1268  0.1372
 4076TIP3    H233788   0.296   2.646   8.351  1.2572 -1.1013 -0.2377
 4077TIP3   OH233789   1.666   0.609   1.782 -0.5351  0.0784  0.3007
 4077TIP3    H133790   1.677   0.521   1.818  0.8843  0.9635  2.2654
 4077TIP3    H233791   1.612   0.654   1.847  0.8563  1.3326  0.6404
 4078TIP3   OH233792   5.135   1.814   8.007 -0.6291  0.1873  0.3356
 4078TIP3    H133793   5.167   1.850   7.924  0.5537  1.1568  1.1857
 4078TIP3    H233794   5.160   1.722   8.003  0.9000  0.5794  0.2927
 4079TIP3   OH233795   0.637   2.468   6.542  0.7086  0.0035 -0.0294
 4079TIP3    H133796   0.621   2.374   6.530  1.0070  0.0017 -0.4494
 4079TIP3    H233797   0.711   2.487   6.484  1.0258  0.3824  0.4861
 4080TIP3   OH233798   1.746   5.104   1.170 -0.1024 -0.5850  0.0359
 4080TIP3    H133799   1.733   5.010   1.184 -0.2140 -0.5332  0.2713
 4080TIP3    H233800   1.756   5.112   1.075 -0.2105 -0.8201  0.0032
 4081TIP3   OH233801   5.221   1.775   0.216 -0.1681 -0.2744  0.0355
 4081TIP3    H133802   5.182   1.752   0.131  0.6059 -1.8802  0.0897
 4081TIP3    H233803   5.315   1.761   0.204 -0.1927 -2.1413  1.6190
 4082TIP3   OH233804   5.920   0.441   8.693  0.7478  0.0100  0.2150
 4082TIP3    H133805   5.989   0.455   8.628  0.4605 -2.3449 -0.6800
 4082TIP3    H233806   5.960   0.465   8.776  1.6900  1.4322 -0.6016
 4083TIP3   OH233807   3.919   3.455   8.572 -0.6499 -0.1847 -0.0285
 4083TIP3    H133808   3.981   3.423   8.507  1.9277  1.0714  1.6299
 4083TIP3    H233809   3.928   3.395   8.646  0.4794  1.3703  1.1649
 4084TIP3   OH233810   6.653   5.832   1.443 -0.8184 -0.4544 -0.0227
 4084TIP3    H133811   6.688   5.754   1.399 -1.9827 -0.2429 -1.3829
 4084TIP3    H233812   6.646   5.806   1.535  0.0299 -1.5102 -0.2339
 4085TIP3   OH233813   4.416   6.436   0.097 -0.4498 -0.4132  0.4790
 4085TIP3    H133814   4.494   6.474   0.057  0.1437 -1.4545  0.6185
 4085TIP3    H233815   4.379   6.381   0.029 -1.2228  0.2682  0.3288
 4086TIP3   OH233816   0.620   4.175   7.602  0.0001  0.1979 -0.2404
 4086TIP3    H133817   0.624   4.182   7.697  0.3594 -0.0756 -0.2310
 4086TIP3    H233818   0.529   4.155   7.583  0.1013 -0.6296  0.1109
 4087TIP3   OH233819   1.266   1.549   1.292 -0.2087  0.3315 -0.1598
 4087TIP3    H133820   1.251   1.509   1.378  1.5877 -0.7244 -0.2883
 4087TIP3    H233821   1.270   1.643   1.309 -2.1059  0.3407  0.5256
 4088TIP3   OH233822   4.253   1.354   2.703  0.7259 -0.2075 -0.1920
 4088TIP3    H133823   4.257   1.394   2.616 -0.6383 -0.7791 -0.5417
 4088TIP3    H233824   4.291   1.420   2.762  0.0588  0.9143 -0.9813
 4089TIP3   OH233825   5.416   6.715   2.223 -0.5199 -0.5634 -0.4902
 4089TIP3    H133826   5.501   6.759   2.233 -0.6588 -0.1655 -1.0146
 4089TIP3    H233827   5.353   6.777   2.260 -0.6661 -0.5187 -0.8142
 4090TIP3   OH233828   2.056   6.593   8.018 -0.1561  0.2313  0.6110
 4090TIP3    H133829   2.146   6.617   8.039 -0.1409 -0.0767  0.8985
 4090TIP3    H233830   2.043   6.508   8.060 -0.3529 -0.0570 -0.0308
 4091TIP3   OH233831   0.772   1.109   1.026 -0.4260 -0.9288  0.9551
 4091TIP3    H133832   0.850   1.067   1.063 -0.5283 -1.0816  0.9981
 4091TIP3    H233833   0.807   1.177   0.968 -0.2639 -0.7720  1.2314
 4092TIP3   OH233834   0.495   1.014   7.080  0.1276  0.0238  0.1819
 4092TIP3    H133835   0.549   1.093   7.085  1.6156 -0.6352 -3.0090
 4092TIP3    H233836   0.429   1.034   7.014  0.1105 -1.1564 -0.1809
 4093TIP3   OH233837   5.728   1.777   1.604  0.2121  0.3277  0.4100
 4093TIP3    H133838   5.727   1.864   1.564  0.1116 -0.0191 -0.3564
 4093TIP3    H233839   5.637   1.760   1.627  0.2992  0.6074  0.9646
 4094TIP3   OH233840   3.726   2.577   0.393 -0.1379  0.2047 -0.0951
 4094TIP3    H133841   3.637   2.547   0.415 -0.0652  0.7388  0.9580
 4094TIP3    H233842   3.728   2.577   0.297  0.1866 -4.2085 -0.3075
 4095TIP3   OH233843   5.335   5.064   1.594  0.0709  0.1792  0.3654
 4095TIP3    H133844   5.281   5.104   1.661  0.4710  1.5679 -0.1150
 4095TIP3    H233845   5.280   5.062   1.516  0.4725  1.0037  0.0476
 4096TIP3   OH233846   1.375   6.269   2.560  0.3795  0.3229  0.2056
 4096TIP3    H133847   1.346   6.214   2.487  0.9749  2.1164 -1.4656
 4096TIP3    H233848   1.303   6.265   2.623 -0.6135 -0.4609 -0.9245
 4097TIP3   OH233849   0.112   3.541   8.144 -0.4939 -0.3991  0.4199
 4097TIP3    H133850   0.180   3.494   8.095 -0.4218  0.1494 -0.0138
 4097TIP3    H233851   0.105   3.626   8.100 -1.2935 -0.3610  0.6076
 4098TIP3   OH233852   3.223   3.738   1.101  0.8093 -0.7451 -0.3001
 4098TIP3    H133853   3.317   3.724   1.085  0.7775 -0.5917 -0.6176
 4098TIP3    H233854   3.186   3.650   1.105  0.9840 -0.8104 -0.0612
 4099TIP3   OH233855   1.182   2.119   6.349  0.8759  0.2586  0.1824
 4099TIP3    H133856   1.113   2.155   6.405  0.8460  0.4891 -0.0005
 4099TIP3    H233857   1.138   2.100   6.266  0.6237 -1.2956  0.6335
 4100TIP3   OH233858   1.156   5.650   1.249  0.3300  0.7271 -0.4791
 4100TIP3    H133859   1.144   5.630   1.342  2.2410  1.9574  0.0804
 4100TIP3    H233860   1.141   5.567   1.205 -0.3925  0.0574  0.9396
 4101TIP3   OH233861   0.624   2.310   0.813 -0.0728  0.2743  0.1305
 4101TIP3    H133862   0.572   2.238   0.850  1.2205 -1.5976 -1.4826
 4101TIP3    H233863   0.653   2.360   0.889 -2.4726  0.1873  1.2024
 4102TIP3   OH233864   0.944   0.887   0.278  0.6353 -0.1403 -0.7618
 4102TIP3    H133865   0.923   0.971   0.318  1.1188 -0.8859  1.2108
 4102TIP3    H233866   0.998   0.908   0.202  0.9155  1.3313 -0.1807
 4103TIP3   OH233867   4.649   6.512   8.680 -0.0219  0.1736  0.2997
 4103TIP3    H133868   4.639   6.484   8.589 -0.5143 -0.2726  0.4845
 4103TIP3    H233869   4.740   6.539   8.687 -0.3759  1.7646 -0.7482
 4104TIP3   OH233870   5.997   5.101   7.848  0.3069  0.4531 -0.4755
 4104TIP3    H133871   6.016   5.092   7.755  1.2280 -2.5719 -0.1069
 4104TIP3    H233872   6.046   5.030   7.890  0.7288  2.3055  2.4618
 4105TIP3   OH233873   1.361   3.485   8.689  0.2248  0.3668  0.2591
 4105TIP3    H133874   1.396   3.529   8.767  2.0533 -0.2626 -0.1551
 4105TIP3    H233875   1.392   3.395   8.698 -0.0102  0.1626 -0.9231
 4106TIP3   OH233876   1.637   4.132   2.112 -0.1565  0.9389 -0.3619
 4106TIP3    H133877   1.687   4.050   2.108  0.4415  1.2134  1.1287
 4106TIP3    H233878   1.546   4.104   2.112 -0.0260  0.3885 -2.1269
 4107TIP3   OH233879   2.989   4.719   1.063 -0.0327 -0.1959 -0.0604
 4107TIP3    H133880   3.081   4.695   1.060  0.1872  0.4076  1.3967
 4107TIP3    H233881   2.986   4.808   1.030  0.3315  0.8211  2.4284
 4108TIP3   OH233882   4.039   6.614   1.847  0.3636  0.0283  0.2089
 4108TIP3    H133883   3.986   6.536   1.833  1.8748 -1.5502  2.4997
 4108TIP3    H233884   3.993   6.662   1.916 -1.2760  2.0068 -2.0914
 4109TIP3   OH233885   5.452   6.689   1.147 -0.3726 -0.1962 -0.1327
 4109TIP3    H133886   5.479   6.619   1.207 -0.8948  0.2313  0.6153
 4109TIP3    H233887   5.487   6.662   1.062  0.3762 -0.8204  0.3564
 4110TIP3   OH233888   3.577   4.302   0.404 -0.0090 -0.0938 -0.4290
 4110TIP3    H133889   3.629   4.372   0.364 -0.3152  1.5300  1.8504
 4110TIP3    H233890   3.629   4.223   0.388  0.8304  0.7512 -2.2393
 4111TIP3   OH233891   5.187   2.843   1.071  0.0004  0.2724 -0.5380
 4111TIP3    H133892   5.169   2.927   1.028  0.4252  1.2314  1.0929
 4111TIP3    H233893   5.119   2.835   1.137  0.6888 -0.0699  0.1428
 4112TIP3   OH233894   0.777   6.402   7.995  0.0334 -0.6788 -0.2682
 4112TIP3    H133895   0.708   6.336   7.985 -0.8226 -0.1710  1.7602
 4112TIP3    H233896   0.735   6.473   8.045  0.8339  1.5882 -2.6337
 4113TIP3   OH233897   2.419   2.832   8.269  0.2720 -0.0123  0.1568
 4113TIP3    H133898   2.511   2.843   8.293  0.4158 -2.5060  1.1380
 4113TIP3    H233899   2.418   2.835   8.174  1.4905 -0.4633  0.1076
 4114TIP3   OH233900   6.011   3.472   8.676 -0.4330  0.5632  0.4507
 4114TIP3    H133901   6.090   3.496   8.627 -1.3845  1.4094 -0.7009
 4114TIP3    H233902   5.960   3.553   8.682 -1.4916 -0.0988  0.6729
 4115TIP3   OH233903   5.891   5.590   1.577 -0.3137 -0.0672  0.2736
 4115TIP3    H133904   5.947   5.512   1.576  0.0382  0.1890 -1.0789
 4115TIP3    H233905   5.929   5.645   1.646 -0.2334 -0.8420  0.8636
 4116TIP3   OH233906   2.523   5.578   8.118 -0.0383  0.1102  0.3168
 4116TIP3    H133907   2.526   5.563   8.213  1.9953 -1.1548  0.1159
 4116TIP3    H233908   2.579   5.654   8.104  2.5070 -1.7225 -0.1120
 4117TIP3   OH233909   2.030   5.957   1.430 -0.2673 -0.5846 -0.6877
 4117TIP3    H133910   2.055   5.869   1.400 -1.6599 -1.3130  0.1907
 4117TIP3    H233911   2.002   5.945   1.520  2.1007  1.2675  0.4133
 4118TIP3   OH233912   1.884   2.273   7.245  0.2514  0.1775  0.8542
 4118TIP3    H133913   1.870   2.188   7.204  3.1519 -1.2883  2.5920
 4118TIP3    H233914   1.914   2.329   7.174 -0.7590 -0.4923 -0.1361
 4119TIP3   OH233915   1.332   5.270   8.271 -0.3230 -0.1918  1.3077
 4119TIP3    H133916   1.322   5.303   8.360  0.1948  2.1590  0.5838
 4119TIP3    H233917   1.266   5.318   8.220  0.6189 -0.0966  0.1317
 4120TIP3   OH233918   4.445   2.486   8.442  0.2349 -0.2971 -0.3617
 4120TIP3    H133919   4.419   2.401   8.405  0.9080 -0.7910  0.2694
 4120TIP3    H233920   4.461   2.541   8.365  4.0376 -2.0088 -1.0752
 4121TIP3   OH233921   4.014   1.728   0.453  0.0849 -0.1187 -0.2315
 4121TIP3    H133922   3.979   1.697   0.537 -0.3776  0.7032 -0.1106
 4121TIP3    H233923   4.012   1.651   0.397  1.4247 -0.9483  0.8184
 4122TIP3   OH233924   3.483   5.099   7.703 -0.0339  0.2784 -0.2723
 4122TIP3    H133925   3.522   5.114   7.790  0.1223  2.2203 -0.6355
 4122TIP3    H233926   3.458   5.186   7.673 -2.2097 -0.6191 -1.2239
 4123TIP3   OH233927   1.779   2.088   7.839  0.1673 -0.4236 -0.1535
 4123TIP3    H133928   1.753   2.174   7.874  2.2515  0.5683 -0.8716
 4123TIP3    H233929   1.698   2.053   7.801 -0.6174  1.5082 -0.3909
 4124TIP3   OH233930   0.678   4.595   7.910 -0.4735 -0.0149 -0.3294
 4124TIP3    H133931   0.590   4.606   7.875 -0.3698 -0.1040 -0.6159
 4124TIP3    H233932   0.686   4.501   7.927 -0.7763  0.1125  0.6013
 4125TIP3   OH233933   4.697   0.162   1.166 -0.2053  0.5642 -0.4833
 4125TIP3    H133934   4.664   0.239   1.119 -1.0994  1.1629  1.0661
 4125TIP3    H233935   4.742   0.199   1.242  1.5895 -0.3692 -1.0311
 4126TIP3   OH233936   3.171   4.319   0.954  0.6787 -0.2794 -0.1307
 4126TIP3    H133937   3.158   4.238   1.003 -0.6786 -1.2790 -2.0267
 4126TIP3    H233938   3.150   4.388   1.017 -0.5034 -1.4830  0.8608
 4127TIP3   OH233939   5.691   4.144   2.196 -0.2316  0.3726 -0.1899
 4127TIP3    H133940   5.632   4.071   2.214 -0.3073  0.6962  0.9629
 4127TIP3    H233941   5.633   4.219   2.185 -0.0392  1.3746  4.1785
 4128TIP3   OH233942   0.915   5.284   8.524 -1.0033  0.2193 -0.3940
 4128TIP3    H133943   0.904   5.313   8.434 -2.2267  0.9562 -0.0385
 4128TIP3    H233944   0.948   5.361   8.571  0.7524 -0.4836 -0.4052
 4129TIP3   OH233945   2.228   4.065   8.616 -0.3800  0.6566  0.3682
 4129TIP3    H133946   2.275   4.116   8.681  0.1363  0.2729  0.3022
 4129TIP3    H233947   2.138   4.063   8.647 -0.6387  2.4903 -0.1756
 4130TIP3   OH233948   1.180   4.217   2.642  0.0616  0.1215 -0.3284
 4130TIP3    H133949   1.196   4.124   2.627 -0.9919  0.0155 -0.9083
 4130TIP3    H233950   1.156   4.252   2.556 -0.8133  0.6540  0.1147
 4131TIP3   OH233951   1.061   0.471   8.281  0.0278 -0.7343 -0.0730
 4131TIP3    H133952   1.153   0.447   8.266 -0.4215 -1.0155 -2.8640
 4131TIP3    H233953   1.031   0.409   8.347  1.9654 -0.1892  1.4566
 4132TIP3   OH233954   0.570   1.985   7.800 -0.0032 -0.0077 -0.0856
 4132TIP3    H133955   0.593   2.070   7.838 -0.3915  0.4209 -0.7939
 4132TIP3    H233956   0.654   1.943   7.784  0.1782 -0.0613  0.9352
 4133TIP3   OH233957   3.797   5.762   1.828  0.0886  0.1559 -0.4584
 4133TIP3    H133958   3.807   5.836   1.888  0.7162  0.6129 -1.1255
 4133TIP3    H233959   3.765   5.691   1.884  1.6927  0.2618  0.6625
 4134TIP3   OH233960   0.913   5.286   0.430  0.1489 -0.2281  0.6406
 4134TIP3    H133961   0.862   5.352   0.478 -0.6873 -1.8498  2.0951
 4134TIP3    H233962   0.896   5.204   0.476  1.7905 -1.3529 -0.6217
 4135TIP3   OH233963   1.827   3.666   6.738 -0.5542  0.2602 -0.3145
 4135TIP3    H133964   1.842   3.752   6.777 -1.1844 -0.1015  0.7605
 4135TIP3    H233965   1.735   3.646   6.757 -0.2899 -0.8672 -0.1179
 4136TIP3   OH233966   5.764   4.439   2.701 -0.0575  0.8914 -0.7301
 4136TIP3    H133967   5.736   4.513   2.647 -2.0784  0.3256 -0.5450
 4136TIP3    H233968   5.685   4.415   2.751  1.0227 -0.3076  0.4651
 4137TIP3   OH233969   2.931   6.428   0.406 -0.4186  0.0935 -0.3483
 4137TIP3    H133970   2.895   6.364   0.468 -1.9590  1.0210 -0.2260
 4137TIP3    H233971   3.008   6.463   0.450 -0.4290 -0.6035  0.2424
 4138TIP3   OH233972   3.370   3.173   7.734 -0.2004  0.2826 -0.0386
 4138TIP3    H133973   3.306   3.112   7.699  1.1771  0.2795 -2.7687
 4138TIP3    H233974   3.455   3.140   7.704  0.9179  1.5717  1.4783
 4139TIP3   OH233975   0.939   2.036   7.250  0.1762  0.0037  0.4928
 4139TIP3    H133976   0.851   2.042   7.211  0.1028  0.6831  0.7533
 4139TIP3    H233977   0.942   1.947   7.287 -0.2208 -0.1969  0.0680
 4140TIP3   OH233978   4.888   5.694   2.058 -0.0971 -0.3499 -0.4704
 4140TIP3    H133979   4.820   5.632   2.031 -0.9179  0.8033 -1.1640
 4140TIP3    H233980   4.842   5.757   2.114  0.6135 -0.0860 -0.1756
 4141TIP3   OH233981   2.780   1.613   1.974 -0.7393  0.2503  0.0254
 4141TIP3    H133982   2.825   1.683   2.020 -0.2476  1.3306 -1.9731
 4141TIP3    H233983   2.711   1.657   1.924 -1.0572 -0.8028 -0.5026
 4142TIP3   OH233984   1.068   6.346   0.833 -0.1088 -0.4217  0.1423
 4142TIP3    H133985   1.012   6.421   0.813  0.8117 -0.2907 -2.3419
 4142TIP3    H233986   1.120   6.333   0.753  0.9355 -2.6810  1.0981
 4143TIP3   OH233987   1.689   3.344   1.125 -1.1496 -0.1518  0.2685
 4143TIP3    H133988   1.671   3.303   1.210  2.9734  1.8459  2.3919
 4143TIP3    H233989   1.662   3.435   1.137 -1.1483  0.0043 -0.8517
 4144TIP3   OH233990   5.577   3.710   2.394  0.6111 -0.0866  0.7777
 4144TIP3    H133991   5.572   3.633   2.337 -2.1440 -0.0172  0.7639
 4144TIP3    H233992   5.575   3.674   2.483 -2.1597 -0.1117  0.7907
 4145TIP3   OH233993   4.166   2.095   0.587 -0.2218 -0.8760  0.3870
 4145TIP3    H133994   4.072   2.096   0.573 -0.5915 -3.5071  1.9276
 4145TIP3    H233995   4.199   2.170   0.539 -2.9120 -0.8144 -1.5525
 4146TIP3   OH233996   6.006   4.542   0.376  0.3003  0.3219  0.1970
 4146TIP3    H133997   6.069   4.602   0.335  1.1209  0.5484  1.7108
 4146TIP3    H233998   5.984   4.584   0.459 -2.2697  0.4906 -0.4729
 4147TIP3   OH233999   1.416   4.737   1.233 -0.0680 -0.0946  0.3507
 4147TIP3    H134000   1.402   4.831   1.247  0.8881 -0.0777  1.3767
 4147TIP3    H234001   1.342   4.695   1.277  0.1908  0.1496  1.0383
 4148TIP3   OH234002   2.297   1.146   6.873 -0.5245  0.0969  0.2662
 4148TIP3    H134003   2.353   1.221   6.854 -0.1468 -0.5572 -1.3590
 4148TIP3    H234004   2.224   1.155   6.812 -1.4889  0.1751  1.3982
 4149TIP3   OH234005   6.453   3.600   8.367  0.5592 -0.2734  0.0591
 4149TIP3    H134006   6.361   3.623   8.384  0.4343 -1.4259  1.1436
 4149TIP3    H234007   6.461   3.510   8.398  1.9207 -0.3917 -0.5692
 4150TIP3   OH234008   4.201   0.231   0.483  0.3133  0.7692 -0.6014
 4150TIP3    H134009   4.258   0.154   0.490  0.1345  0.7632  1.7921
 4150TIP3    H234010   4.215   0.264   0.395  1.4597 -1.1927 -1.2065
 4151TIP3   OH234011   5.918   6.737   0.981  0.3668 -0.5657  0.1244
 4151TIP3    H134012   5.877   6.744   1.068  0.4359 -1.8080  0.2755
 4151TIP3    H234013   5.898   6.820   0.939 -1.5555 -0.7640  0.5282
 4152TIP3   OH234014   1.750   3.645   7.775 -0.1211 -0.4693  0.2186
 4152TIP3    H134015   1.744   3.692   7.692 -0.6694 -0.5636  0.1992
 4152TIP3    H234016   1.691   3.693   7.834  1.9724  1.0005  1.2589
 4153TIP3   OH234017   5.052   5.436   8.184 -0.1237 -0.2354 -0.0754
 4153TIP3    H134018   5.040   5.520   8.140  0.9520  0.1167  0.2730
 4153TIP3    H234019   5.131   5.447   8.237 -0.5232 -1.1435  0.7598
 4154TIP3   OH234020   0.242   3.693   0.486  0.5013  0.2952 -0.0848
 4154TIP3    H134021   0.308   3.679   0.418 -1.6016  0.6373 -2.3525
 4154TIP3    H234022   0.196   3.610   0.493 -0.9112  0.9474 -1.0071
 4155TIP3   OH234023   2.920   4.464   2.110 -0.0627 -0.4751  0.1279
 4155TIP3    H134024   2.965   4.547   2.122 -1.6492  0.9014 -2.4127
 4155TIP3    H234025   2.850   4.465   2.176 -0.4155  0.5295 -0.2325
 4156TIP3   OH234026   2.700   0.380   6.709 -0.3040  0.3120 -0.1361
 4156TIP3    H134027   2.751   0.352   6.633 -1.6569 -0.2038 -0.8932
 4156TIP3    H234028   2.758   0.367   6.784  1.0514  0.8074 -1.0711
 4157TIP3   OH234029   3.661   1.195   1.416  0.0574  0.7779  0.3413
 4157TIP3    H134030   3.643   1.189   1.322 -1.1819  1.5574  0.5006
 4157TIP3    H234031   3.744   1.149   1.427 -0.1154  0.0594 -1.0279
 4158TIP3   OH234032   1.835   5.803   7.291 -0.3081 -0.0905 -0.4371
 4158TIP3    H134033   1.930   5.795   7.281 -0.0512  1.0576  0.8820
 4158TIP3    H234034   1.823   5.877   7.350 -2.0617  0.2407 -1.1428
 4159TIP3   OH234035   1.126   4.508   0.946 -0.2304  0.0494 -0.1187
 4159TIP3    H134036   1.189   4.579   0.963 -0.7217  0.1880  1.2860
 4159TIP3    H234037   1.117   4.464   1.030 -0.1193 -1.5646 -0.9145
 4160TIP3   OH234038   1.334   0.300   7.800  0.6058  0.2404 -0.6778
 4160TIP3    H134039   1.377   0.385   7.796  1.7564 -0.3609 -1.5651
 4160TIP3    H234040   1.279   0.298   7.721  2.5704 -0.8280 -2.1071
 4161TIP3   OH234041   1.323   4.663   0.111 -0.4141  0.5748  0.5566
 4161TIP3    H134042   1.304   4.664   0.205 -0.3746 -0.2115  0.5787
 4161TIP3    H234043   1.238   4.665   0.069 -0.4479  0.3183  0.6141
 4162TIP3   OH234044   6.596   6.404   1.108  0.1792 -0.1837  0.1457
 4162TIP3    H134045   6.608   6.417   1.014  0.9279 -2.1813 -0.0972
 4162TIP3    H234046   6.625   6.486   1.148  0.9590  0.2848 -1.3101
 4163TIP3   OH234047   5.900   3.285   7.490  0.0479  0.2900 -0.1114
 4163TIP3    H134048   5.961   3.234   7.542 -1.1131  0.7257  1.7796
 4163TIP3    H234049   5.947   3.304   7.409  1.6767 -1.0018  0.4821
 4164TIP3   OH234050   2.031   5.274   0.008  0.4028  0.0586 -0.3605
 4164TIP3    H134051   2.102   5.212   0.023  0.5418  0.4128  0.5057
 4164TIP3    H234052   1.952   5.221   0.008  0.3279  0.0738  2.2772
 4165TIP3   OH234053   5.903   1.948   0.738  0.1242  0.2506  0.1820
 4165TIP3    H134054   5.809   1.931   0.740 -0.6461  2.7623 -3.5054
 4165TIP3    H234055   5.912   2.036   0.773  0.9291  0.3768 -0.3128
 4166TIP3   OH234056   2.739   0.972   1.994 -0.9918  0.2476  0.1567
 4166TIP3    H134057   2.680   1.014   1.932 -2.1474  0.2301  1.2089
 4166TIP3    H234058   2.815   1.031   1.999 -0.6508  0.0163 -1.5837
 4167TIP3   OH234059   1.452   0.965   7.694  0.5057 -0.0970  0.5177
 4167TIP3    H134060   1.493   1.047   7.664  1.3357 -0.6288  0.1727
 4167TIP3    H234061   1.514   0.897   7.669 -0.0657 -0.8152  1.0296
 4168TIP3   OH234062   2.351   4.152   3.029 -0.1084 -0.0747  0.1011
 4168TIP3    H134063   2.364   4.077   2.971 -0.2213  0.3407 -0.4692
 4168TIP3    H234064   2.292   4.210   2.981 -0.0559  0.3606  0.5529
 4169TIP3   OH234065   0.964   1.155   0.243  0.2307 -0.6621 -0.3541
 4169TIP3    H134066   1.025   1.155   0.169 -1.0068 -1.4266 -1.4100
 4169TIP3    H234067   0.891   1.208   0.213 -0.7644 -1.8642 -0.1169
 4170TIP3   OH234068   0.593   5.023   0.486 -0.4591 -0.3101 -0.0416
 4170TIP3    H134069   0.679   5.052   0.518  0.5578 -2.3848 -0.7600
 4170TIP3    H234070   0.565   5.094   0.427  0.4988  0.6255  0.5822
 4171TIP3   OH234071   6.453   0.977   1.934 -0.2392  0.6485 -0.0568
 4171TIP3    H134072   6.421   0.969   2.024  1.1419 -1.6696  0.3190
 4171TIP3    H234073   6.403   0.912   1.884 -0.0201  0.9191 -0.6385
 4172TIP3   OH234074   0.480   5.174   2.566 -0.0021 -0.5480 -0.1754
 4172TIP3    H134075   0.520   5.104   2.618 -0.5822 -0.6571  0.1303
 4172TIP3    H234076   0.539   5.248   2.576  0.7286 -1.0578 -0.6716
 4173TIP3   OH234077   3.071   3.639   0.723  0.0732  0.0850  0.2808
 4173TIP3    H134078   3.159   3.601   0.726  0.9327  2.0106  1.6987
 4173TIP3    H234079   3.075   3.703   0.652 -0.7555 -1.0023 -0.7862
 4174TIP3   OH234080   6.702   0.703   8.452  0.6102 -0.0920  1.2995
 4174TIP3    H134081   6.754   0.634   8.493  3.3624  0.6125 -0.7404
 4174TIP3    H234082   6.767   0.761   8.412 -1.7242  0.5608 -1.9390
 4175TIP3   OH234083   0.900   4.644   1.541 -0.0902  0.0863 -0.2141
 4175TIP3    H134084   0.880   4.556   1.574 -2.0978 -0.4289 -2.5091
 4175TIP3    H234085   0.856   4.703   1.602  0.7366 -0.4812  0.9843
 4176TIP3   OH234086   4.946   3.846   1.010  0.4008 -0.2891  0.0086
 4176TIP3    H134087   4.949   3.933   0.970  2.3465 -0.7074 -0.8353
 4176TIP3    H234088   4.998   3.855   1.090 -0.7983 -0.2803  0.8116
 4177TIP3   OH234089   2.428   0.692   0.960 -0.1736 -0.1098 -0.6524
 4177TIP3    H134090   2.433   0.786   0.978 -1.9780  0.1611 -1.3115
 4177TIP3    H234091   2.376   0.656   1.032  0.7009 -0.6717 -0.2774
 4178TIP3   OH234092   3.394   6.266   8.299 -0.5083 -0.3698 -0.1367
 4178TIP3    H134093   3.408   6.328   8.371 -1.5800  0.5815 -0.7016
 4178TIP3    H234094   3.382   6.322   8.222 -0.0793 -1.3412 -0.9275
 4179TIP3   OH234095   5.458   3.312   8.143 -0.3624 -0.0541  0.2381
 4179TIP3    H134096   5.424   3.401   8.144  0.5745  0.3115  1.8013
 4179TIP3    H234097   5.496   3.302   8.056 -0.9208  0.8839 -0.1293
 4180TIP3   OH234098   3.709   4.507   0.280  0.8520 -0.7232  0.3053
 4180TIP3    H134099   3.691   4.595   0.247  0.5557 -1.2244 -0.9288
 4180TIP3    H234100   3.735   4.457   0.202  0.6504 -1.8230  0.9226
 4181TIP3   OH234101   4.485   2.119   7.514 -0.1840  0.1706 -0.1033
 4181TIP3    H134102   4.527   2.055   7.456  1.0440  0.6432  0.2260
 4181TIP3    H234103   4.450   2.066   7.586 -1.0797 -0.3408 -0.8775
 4182TIP3   OH234104   0.692   5.247   7.852 -0.3507 -0.0005  0.5848
 4182TIP3    H134105   0.648   5.204   7.925  0.5629 -0.4873  0.8628
 4182TIP3    H234106   0.784   5.225   7.863 -0.2441 -0.4136 -0.9399
 4183TIP3   OH234107   4.484   3.980   0.161  0.4615 -0.3761 -0.6519
 4183TIP3    H134108   4.410   4.038   0.176 -0.4323 -1.3677 -1.0844
 4183TIP3    H234109   4.473   3.909   0.225  2.0119  0.3396  0.4514
 4184TIP3   OH234110   3.601   1.849   1.065  0.6059  0.1097 -0.0319
 4184TIP3    H134111   3.524   1.819   1.016  1.1266 -1.6704  0.1552
 4184TIP3    H234112   3.590   1.944   1.071 -1.3161 -0.0344 -0.4374
 4185TIP3   OH234113   1.333   2.757   2.860  0.1206 -0.1971 -0.1116
 4185TIP3    H134114   1.289   2.820   2.917  0.9390 -0.7589  1.1894
 4185TIP3    H234115   1.411   2.731   2.909 -0.4529 -2.6058 -0.3452
 4186TIP3   OH234116   6.724   3.091   1.539  0.8219 -0.8424 -0.3366
 4186TIP3    H134117   6.676   3.169   1.566  1.8586 -0.1528 -0.4403
 4186TIP3    H234118   6.697   3.024   1.602 -0.1952 -0.4596 -0.3418
 4187TIP3   OH234119   5.700   4.910   7.260 -0.5427 -0.2072 -0.2743
 4187TIP3    H134120   5.655   4.881   7.340  1.0793 -2.9350 -0.2246
 4187TIP3    H234121   5.649   4.872   7.189  0.8443 -2.2903 -0.2559
 4188TIP3   OH234122   1.364   4.387   1.868 -0.3525 -0.2153  0.3064
 4188TIP3    H134123   1.313   4.329   1.925  0.3175 -0.4359  0.7044
 4188TIP3    H234124   1.441   4.335   1.845 -0.1097  0.2546  0.0530
 4189TIP3   OH234125   4.846   5.509   1.317 -0.3869 -0.6042  0.1335
 4189TIP3    H134126   4.804   5.574   1.373  0.2522 -0.5170  0.5334
 4189TIP3    H234127   4.847   5.549   1.230 -0.6747 -0.3981  0.2247
 4190TIP3   OH234128   2.334   3.277   2.846 -0.2243 -0.4278  0.1428
 4190TIP3    H134129   2.424   3.249   2.826  0.1448 -0.0294  1.1843
 4190TIP3    H234130   2.345   3.354   2.902 -1.2221 -0.0330 -0.1925
 4191TIP3   OH234131   2.091   4.708   6.903 -0.0501  0.4768  0.1320
 4191TIP3    H134132   2.139   4.786   6.874  0.3037  0.2858  0.2137
 4191TIP3    H234133   2.143   4.671   6.974 -0.6211  0.6066  0.6308
 4192TIP3   OH234134   4.180   5.509   0.781  0.5712 -0.4902 -0.0273
 4192TIP3    H134135   4.212   5.591   0.818  1.5024 -1.1791  0.7473
 4192TIP3    H234136   4.086   5.510   0.798  0.9438 -0.7606  2.4282
 4193TIP3   OH234137   5.505   5.606   2.289 -0.1679  0.3361 -0.0349
 4193TIP3    H134138   5.543   5.518   2.276  0.4299  0.5340  0.3128
 4193TIP3    H234139   5.579   5.665   2.277  0.4658  0.5890  3.7644
 4194TIP3   OH234140   0.188   2.278   1.206  0.4655 -0.5853  0.6447
 4194TIP3    H134141   0.191   2.206   1.143 -1.0439  0.1445 -0.3134
 4194TIP3    H234142   0.223   2.240   1.287 -0.7215 -2.5572  0.2978
 4195TIP3   OH234143   1.906   2.193   1.061  0.0727 -0.5426 -0.6287
 4195TIP3    H134144   1.975   2.190   1.128 -0.5286 -2.2192 -0.0065
 4195TIP3    H234145   1.888   2.286   1.049  1.1303 -0.1451  0.5796
 4196TIP3   OH234146   6.827   6.649   1.592 -0.0404  0.4781 -0.0202
 4196TIP3    H134147   6.754   6.674   1.535  1.2830 -0.6443 -2.3379
 4196TIP3    H234148   6.885   6.725   1.590 -0.0431  0.4790 -0.0961
 4197TIP3   OH234149   2.992   0.635   1.689  0.2264 -0.2952  0.2265
 4197TIP3    H134150   2.995   0.648   1.595 -0.6478 -2.6299 -0.2121
 4197TIP3    H234151   2.917   0.687   1.718 -0.5329 -0.8710 -0.6556
 4198TIP3   OH234152   4.637   3.919   8.342 -0.6660 -0.0273 -0.6006
 4198TIP3    H134153   4.555   3.871   8.328 -1.1475  0.9819 -1.4121
 4198TIP3    H234154   4.609   4.004   8.375  0.0282  0.3974 -1.0778
 4199TIP3   OH234155   2.900   0.845   0.578  0.0299 -0.7663  0.1487
 4199TIP3    H134156   2.880   0.919   0.520 -0.0042  1.1387  2.4447
 4199TIP3    H234157   2.818   0.828   0.624  0.5659 -0.9030  1.0720
 4200TIP3   OH234158   0.287   1.376   7.956 -0.1153  0.4852 -0.2638
 4200TIP3    H134159   0.243   1.424   8.026  0.6264  0.4214  0.2656
 4200TIP3    H234160   0.244   1.291   7.954 -0.7371  0.8050 -0.4949
 4201TIP3   OH234161   1.562   6.181   0.439  0.4376  0.4769 -0.0552
 4201TIP3    H134162   1.620   6.122   0.391  0.2504 -0.2309  0.5544
 4201TIP3    H234163   1.475   6.164   0.401  0.4280  0.5684 -0.0734
 4202TIP3   OH234164   4.382   3.332   8.196 -0.2337  0.0669  0.1012
 4202TIP3    H134165   4.429   3.411   8.170  1.2356 -0.7021  0.3108
 4202TIP3    H234166   4.417   3.309   8.282 -0.1386 -1.1686 -0.2408
 4203TIP3   OH234167   5.910   0.359   0.262  0.3329 -0.4633 -0.6862
 4203TIP3    H134168   5.925   0.272   0.224  2.1892 -0.8290  0.7525
 4203TIP3    H234169   5.815   0.373   0.252 -1.0684 -4.7206  2.9705
 4204TIP3   OH234170   2.051   0.385   0.392  0.3328 -0.4144 -0.2240
 4204TIP3    H134171   2.125   0.401   0.450  0.2792  2.1851 -0.7622
 4204TIP3    H234172   2.087   0.391   0.304 -0.2642 -0.5072 -0.4790
 4205TIP3   OH234173   0.340   3.332   7.532  0.2406 -0.4822 -0.2126
 4205TIP3    H134174   0.409   3.363   7.472 -0.5699  0.9807 -0.4335
 4205TIP3    H234175   0.384   3.323   7.616  0.6563  0.7094 -0.2850
 4206TIP3   OH234176   5.275   3.534   7.787 -0.2630 -0.0632 -0.0479
 4206TIP3    H134177   5.180   3.547   7.782  0.0049  1.7909 -1.5245
 4206TIP3    H234178   5.311   3.596   7.724  2.0761  0.9238  2.0667
 4207TIP3   OH234179   5.682   2.398   0.044 -0.2696 -0.1564 -0.2244
 4207TIP3    H134180   5.633   2.333   0.094  2.2608 -1.6423  0.5385
 4207TIP3    H234181   5.693   2.358  -0.042  1.0656 -0.6778  0.1643
 4208TIP3   OH234182   6.251   1.753   1.111  0.4348 -0.2522  0.2191
 4208TIP3    H134183   6.198   1.832   1.117  2.2602  0.9160  3.3338
 4208TIP3    H234184   6.211   1.693   1.175  1.7982  0.0466  1.4094
 4209TIP3   OH234185   5.929   6.632   7.955  0.4055  0.3260 -0.2391
 4209TIP3    H134186   5.837   6.648   7.932  0.5678 -0.2915 -1.4167
 4209TIP3    H234187   5.937   6.664   8.044 -0.4048  2.4426 -0.8632
 4210TIP3   OH234188   3.035   5.832   8.700 -0.4277 -1.0015  0.4192
 4210TIP3    H134189   3.079   5.749   8.718 -0.5748 -1.4774 -1.2582
 4210TIP3    H234190   2.971   5.841   8.771  0.8282 -1.3994  1.6350
 4211TIP3   OH234191   4.821   1.298   7.483 -0.7713  0.2218  0.3382
 4211TIP3    H134192   4.857   1.387   7.485 -0.7374  0.2311 -0.3960
 4211TIP3    H234193   4.824   1.269   7.574 -0.1345  0.7153  0.4830
 4212TIP3   OH234194   2.352   1.126   1.620  0.5772  0.6145 -0.4826
 4212TIP3    H134195   2.404   1.056   1.582  0.0606  0.2620 -0.5542
 4212TIP3    H234196   2.393   1.206   1.589  2.1159  0.3907  0.8473
 4213TIP3   OH234197   6.074   1.238   1.603 -0.1296  0.2156 -0.1572
 4213TIP3    H134198   6.137   1.232   1.532  1.0776  0.3162  0.8767
 4213TIP3    H234199   6.126   1.257   1.680 -1.5287  1.4174  0.5567
 4214TIP3   OH234200   3.990   6.738   0.775 -0.5013 -0.8552  0.3565
 4214TIP3    H134201   3.923   6.739   0.844 -1.1417  1.5428 -0.2060
 4214TIP3    H234202   4.027   6.649   0.779 -0.1902 -0.7345  4.0626
 4215TIP3   OH234203   3.609   5.203   0.571  0.0095  0.3512 -0.1704
 4215TIP3    H134204   3.648   5.221   0.485 -0.2131 -0.4000 -0.4371
 4215TIP3    H234205   3.684   5.197   0.630  0.2385 -0.1227 -0.5019
 4216TIP3   OH234206   6.283   4.256   1.562 -0.0181 -0.2750 -0.0935
 4216TIP3    H134207   6.318   4.169   1.578 -0.1320 -0.3534 -0.2723
 4216TIP3    H234208   6.188   4.245   1.565 -0.0340 -0.2137 -0.4294
 4217TIP3   OH234209   3.224   5.562   7.839 -0.2301 -0.6649  0.3246
 4217TIP3    H134210   3.187   5.614   7.910  1.4766  1.0675  0.0271
 4217TIP3    H234211   3.231   5.622   7.766  1.0017 -1.5299 -0.3144
 4218TIP3   OH234212   2.312   5.948   6.934  0.5735  0.8034 -0.0485
 4218TIP3    H134213   2.363   5.867   6.935 -0.4793  0.0958 -1.1936
 4218TIP3    H234214   2.377   6.018   6.945  1.7194 -0.0949 -0.9225
 4219TIP3   OH234215   5.717   4.135   1.911  0.2714 -0.0497 -0.0575
 4219TIP3    H134216   5.628   4.134   1.875  0.2815  1.1152 -0.1516
 4219TIP3    H234217   5.705   4.117   2.005 -0.1877  1.1633  0.1358
 4220TIP3   OH234218   3.599   2.593   7.199 -0.1658 -0.4632  0.0028
 4220TIP3    H134219   3.632   2.683   7.196  0.7294 -0.7977 -0.5271
 4220TIP3    H234220   3.526   2.592   7.137 -1.1513  0.2548  1.0942
 4221TIP3   OH234221   4.243   6.618   0.559  0.2370  0.0940 -0.1978
 4221TIP3    H134222   4.179   6.569   0.611  0.3854  1.2541  1.1348
 4221TIP3    H234223   4.199   6.701   0.538  1.2527  0.8976  0.7062
 4222TIP3   OH234224   5.860   6.253   0.628 -0.2379  0.1791 -0.2471
 4222TIP3    H134225   5.911   6.173   0.612 -1.4435 -0.5413 -0.6277
 4222TIP3    H234226   5.923   6.314   0.667  0.4826 -1.2988  1.0276
 4223TIP3   OH234227   0.841   2.662   7.550 -0.5151  0.3305 -0.1986
 4223TIP3    H134228   0.925   2.634   7.585 -2.1961 -1.8489  2.4884
 4223TIP3    H234229   0.823   2.600   7.479 -0.3815  0.0926 -0.0228
 4224TIP3   OH234230   1.555   6.642   0.320  0.1148  0.6201 -0.3008
 4224TIP3    H134231   1.619   6.642   0.250  0.7083 -0.1227  0.2277
 4224TIP3    H234232   1.482   6.589   0.286  0.0028  1.0220 -0.6961
 4225TIP3   OH234233   4.557   6.621   0.701 -0.2581  0.5560  0.4418
 4225TIP3    H134234   4.483   6.641   0.643 -0.5105  2.1054  1.2572
 4225TIP3    H234235   4.524   6.636   0.789  0.4410 -0.7642  0.9633
 4226TIP3   OH234236   4.235   5.766   2.818 -0.0342  0.2697  0.1532
 4226TIP3    H134237   4.205   5.676   2.807  2.4719 -0.4375 -1.6907
 4226TIP3    H234238   4.195   5.814   2.745  1.1583 -0.1100 -0.7826
 4227TIP3   OH234239   1.960   2.610   2.127  0.0366 -0.0371  0.6229
 4227TIP3    H134240   1.953   2.639   2.218  0.5870 -0.2146  0.7320
 4227TIP3    H234241   1.957   2.514   2.132 -0.3297 -0.0360  0.4150
 4228TIP3   OH234242   5.086   2.751   0.168 -0.0984 -0.1438 -0.4882
 4228TIP3    H134243   5.092   2.732   0.262 -1.4040  0.1477 -0.3250
 4228TIP3    H234244   5.176   2.770   0.142  0.4853 -1.4776  0.4243
 4229TIP3   OH234245   5.954   3.173   2.272  0.0625 -0.6786  0.8823
 4229TIP3    H134246   6.025   3.197   2.332  0.5876 -0.0867  0.0545
 4229TIP3    H234247   5.981   3.088   2.236  1.3248  0.3762 -0.8194
 4230TIP3   OH234248   4.100   1.218   1.081 -0.1431  0.6770  0.5608
 4230TIP3    H134249   4.026   1.163   1.108 -0.7888  0.9863 -0.4960
 4230TIP3    H234250   4.174   1.158   1.077 -0.6695  0.0288  0.1809
 4231TIP3   OH234251   3.589   1.588   1.949 -0.0218  0.3860  0.7351
 4231TIP3    H134252   3.623   1.612   2.035 -2.8310 -0.9054  2.3156
 4231TIP3    H234253   3.510   1.641   1.939 -0.7850 -0.8930 -0.1684
 4232TIP3   OH234254   2.748   3.598   8.037 -0.0698  0.1929 -0.1346
 4232TIP3    H134255   2.665   3.644   8.025  1.3048  2.7563 -0.7661
 4232TIP3    H234256   2.779   3.628   8.122  0.8356  0.4426 -0.5367
 4233TIP3   OH234257   1.813   0.900   8.387  0.3812 -0.0220  0.1064
 4233TIP3    H134258   1.762   0.838   8.334  0.4230  0.3532 -0.3813
 4233TIP3    H234259   1.748   0.957   8.427  0.3546 -0.2454  0.3799
 4234TIP3   OH234260   4.697   3.830   2.268 -0.0872 -0.0515 -0.1585
 4234TIP3    H134261   4.776   3.828   2.215  0.3956 -1.4597  0.5626
 4234TIP3    H234262   4.710   3.903   2.328 -0.2279  0.9630 -1.3251
 4235TIP3   OH234263   0.380   4.392   7.019 -0.7883  0.3082 -0.1456
 4235TIP3    H134264   0.401   4.466   6.962  1.5627 -1.7646 -2.1935
 4235TIP3    H234265   0.346   4.325   6.960  2.0361 -2.0480  0.6623
 4236TIP3   OH234266   4.831   3.145   1.562 -0.4111 -0.7415 -0.0449
 4236TIP3    H134267   4.901   3.170   1.622 -1.5229  0.4179  0.8318
 4236TIP3    H234268   4.875   3.125   1.479  0.9254  0.1500  0.4299
 4237TIP3   OH234269   5.956   0.806   2.396 -0.2321  0.0082  0.0314
 4237TIP3    H134270   5.897   0.731   2.405  0.6156 -0.6150  0.5324
 4237TIP3    H234271   6.021   0.778   2.332  0.2533  0.2066  0.4322
 4238TIP3   OH234272   0.438   1.678   1.629 -0.5794 -1.4470 -0.2513
 4238TIP3    H134273   0.516   1.667   1.574 -1.4747 -2.0961 -1.4204
 4238TIP3    H234274   0.473   1.678   1.718  1.0393  0.7498 -0.7883
 4239TIP3   OH234275   3.326   2.212   0.782 -0.9050  0.3389  0.3648
 4239TIP3    H134276   3.368   2.298   0.790 -2.9755  1.3576  1.1228
 4239TIP3    H234277   3.264   2.222   0.710 -1.5338 -0.3449  0.7930
 4240TIP3   OH234278   4.855   2.664   8.124 -0.0649  0.5922  0.0658
 4240TIP3    H134279   4.947   2.673   8.100  0.2478 -1.2045  0.4769
 4240TIP3    H234280   4.841   2.732   8.190  1.2987  0.1273  0.8635
 4241TIP3   OH234281   3.111   3.056   2.714 -0.4572 -0.4971  0.1981
 4241TIP3    H134282   3.122   2.990   2.646 -0.9563 -0.6307  0.2457
 4241TIP3    H234283   3.156   3.134   2.680 -3.1171  0.3802 -1.5966
 4242TIP3   OH234284   5.671   1.605   8.254  0.5901 -0.1137 -0.5950
 4242TIP3    H134285   5.695   1.610   8.346  0.6344  1.3009 -0.6745
 4242TIP3    H234286   5.688   1.513   8.230 -1.9636 -1.2798  1.4775
 4243TIP3   OH234287   1.444   2.052   8.608  0.6805  0.8310 -0.4019
 4243TIP3    H134288   1.489   2.133   8.582  2.2255 -0.4635 -2.0674
 4243TIP3    H234289   1.491   2.023   8.686  0.9570  0.8836 -0.5466
 4244TIP3   OH234290   4.954   3.359   7.133 -0.2246  0.2403  0.4737
 4244TIP3    H134291   5.006   3.314   7.067 -0.4763  0.8908 -0.1817
 4244TIP3    H234292   4.872   3.311   7.136  0.1702 -0.4118  1.0631
 4245TIP3   OH234293   5.583   2.669   1.168  0.0722  0.0300 -0.1014
 4245TIP3    H134294   5.612   2.578   1.169 -1.3973 -0.5179 -1.9844
 4245TIP3    H234295   5.490   2.665   1.146  0.1854  2.0045 -1.2001
 4246TIP3   OH234296   3.593   5.389   2.728  0.6957 -0.0278  0.2277
 4246TIP3    H134297   3.637   5.443   2.794 -0.8670 -0.7919  1.9803
 4246TIP3    H234298   3.500   5.400   2.746  0.3000 -2.5292  0.0113
 4247TIP3   OH234299   1.388   6.849   7.801 -0.1931  0.1518  0.6096
 4247TIP3    H134300   1.293   6.847   7.795 -0.2072 -2.5437  0.3847
 4247TIP3    H234301   1.411   6.772   7.852  1.8650  1.2286  1.4430
 4248TIP3   OH234302   3.812   6.265   0.223  0.1111  0.1237 -1.0617
 4248TIP3    H134303   3.858   6.259   0.307  0.0609 -1.5203 -1.1131
 4248TIP3    H234304   3.859   6.205   0.166 -0.2467  0.7499 -2.0282
 4249TIP3   OH234305   3.791   3.942   1.683 -0.0479  0.0258 -0.2375
 4249TIP3    H134306   3.730   4.016   1.689  0.3562  0.3170  0.3815
 4249TIP3    H234307   3.735   3.865   1.681 -0.4347  0.2170  1.5195
 4250TIP3   OH234308   3.271   0.166   2.485  0.1778  0.1105  0.3188
 4250TIP3    H134309   3.361   0.186   2.511  0.2003  0.1747  0.1944
 4250TIP3    H234310   3.260   0.073   2.502  0.4040  0.0125 -0.0679
 4251TIP3   OH234311   5.081   5.523   0.278 -0.1272 -0.0171  0.2175
 4251TIP3    H134312   5.075   5.565   0.192  2.4024  0.2080  0.0604
 4251TIP3    H234313   4.992   5.493   0.297 -0.6103 -0.8630 -2.8662
 4252TIP3   OH234314   5.694   5.255   1.151  0.2582 -0.8117 -0.0884
 4252TIP3    H134315   5.696   5.345   1.184  3.5835 -0.6496 -0.3436
 4252TIP3    H234316   5.665   5.264   1.060  1.4732  0.1799 -0.4054
 4253TIP3   OH234317   6.229   1.226   7.612 -0.4112  0.0575  0.0879
 4253TIP3    H134318   6.295   1.295   7.624  0.1513 -0.5154  0.3377
 4253TIP3    H234319   6.170   1.237   7.686  0.1675 -0.2534  0.6137
 4254TIP3   OH234320   1.038   3.458   1.096  0.2130  0.1321 -1.0659
 4254TIP3    H134321   0.956   3.506   1.092 -1.0308 -1.8619 -0.7658
 4254TIP3    H234322   1.087   3.499   1.167 -1.2634  0.2696 -0.0919
 4255TIP3   OH234323   1.398   2.615   0.138 -0.2939 -0.4118 -0.3642
 4255TIP3    H134324   1.318   2.567   0.158 -0.2249 -0.4045 -0.0715
 4255TIP3    H234325   1.369   2.690   0.085 -0.3005 -1.2551 -1.5972
 4256TIP3   OH234326   4.699   4.227   8.106 -0.3264 -0.3779 -0.1108
 4256TIP3    H134327   4.670   4.300   8.052  0.2438  0.0733  0.1884
 4256TIP3    H234328   4.779   4.195   8.064 -0.3951 -0.6273 -0.0596
 4257TIP3   OH234329   5.532   6.852   8.043  0.1138  0.4755 -0.2968
 4257TIP3    H134330   5.450   6.803   8.045  1.2578 -1.4852  1.3308
 4257TIP3    H234331   5.512   6.934   8.087 -1.5426  1.0868 -2.0562
 4258TIP3   OH234332   4.956   4.813   2.750 -0.0576 -0.3005 -0.1509
 4258TIP3    H134333   4.912   4.740   2.706 -1.0282  0.1930 -0.0297
 4258TIP3    H234334   4.940   4.889   2.693 -1.4155  0.3667  1.0628
 4259TIP3   OH234335   6.647   2.127   1.488 -0.0859 -0.1135 -0.4465
 4259TIP3    H134336   6.606   2.067   1.426 -0.9193  1.2245 -1.2300
 4259TIP3    H234337   6.625   2.091   1.574  0.5865 -1.6631 -0.8704
 4260TIP3   OH234338   3.844   1.077   1.729  0.2759  0.2861  0.4231
 4260TIP3    H134339   3.831   1.048   1.638 -1.4706  0.3176  0.6360
 4260TIP3    H234340   3.886   1.002   1.771 -1.5510 -0.8888  0.2616
 4261TIP3   OH234341   0.306   3.438   1.212  0.0616 -0.0227 -0.6714
 4261TIP3    H134342   0.383   3.398   1.173 -0.0925  0.4273 -1.4669
 4261TIP3    H234343   0.280   3.506   1.149 -0.0454  0.9025  0.3440
 4262TIP3   OH234344   2.839   0.823   2.802 -0.0068  0.0046  0.2677
 4262TIP3    H134345   2.923   0.841   2.759 -0.1855 -0.9296 -0.5076
 4262TIP3    H234346   2.775   0.873   2.752 -0.0792 -0.2946  0.0571
 4263TIP3   OH234347   3.813   4.628   0.593  0.0984 -0.9069  0.3939
 4263TIP3    H134348   3.737   4.619   0.650  1.0203 -1.1761  1.6298
 4263TIP3    H234349   3.787   4.587   0.511 -1.4705  0.0151  0.3974
 4264TIP3   OH234350   1.939   1.607   8.145  0.1415  0.1543 -0.0649
 4264TIP3    H134351   1.942   1.597   8.050 -0.1112  0.0907 -0.0689
 4264TIP3    H234352   1.852   1.644   8.162 -0.2160 -0.7723  0.2221
 4265TIP3   OH234353   0.054   3.747   1.532  0.1461  0.0220 -0.3783
 4265TIP3    H134354   0.083   3.675   1.475 -0.5439  0.7240 -1.6510
 4265TIP3    H234355   0.135   3.778   1.573  1.1110  1.1158 -2.8896
 4266TIP3   OH234356   1.512   0.289   1.641 -0.4406 -0.9160 -0.0298
 4266TIP3    H134357   1.482   0.379   1.631 -0.9271 -1.1382 -0.6505
 4266TIP3    H234358   1.581   0.294   1.706  0.4568  0.1019 -1.0204
 4267TIP3   OH234359   4.019   3.718   7.520 -0.4983  0.3528 -0.0549
 4267TIP3    H134360   3.955   3.689   7.455 -0.8324 -0.8988  0.7916
 4267TIP3    H234361   4.100   3.731   7.471 -1.1799  1.1408 -0.9995
 4268TIP3   OH234362   0.215   2.799   8.066 -0.1422 -0.0097 -0.6561
 4268TIP3    H134363   0.185   2.717   8.107  0.0951 -0.5528 -1.5375
 4268TIP3    H234364   0.256   2.771   7.984  0.1982  0.9769 -0.8337
 4269TIP3   OH234365   1.664   2.408   0.557 -0.0074  0.0685  0.1320
 4269TIP3    H134366   1.694   2.344   0.621 -2.1358  0.3971  1.5482
 4269TIP3    H234367   1.569   2.395   0.553  0.0145  0.1248 -2.9304
 4270TIP3   OH234368   1.704   1.201   1.895 -0.5371  0.3100 -0.4026
 4270TIP3    H134369   1.755   1.121   1.906 -0.3001  0.5909  0.5620
 4270TIP3    H234370   1.614   1.175   1.918 -0.7882 -0.0873 -1.7319
 4271TIP3   OH234371   0.281   0.551   0.240 -0.1999 -0.1832  0.3832
 4271TIP3    H134372   0.334   0.526   0.316  0.9452 -0.3424 -0.4423
 4271TIP3    H234373   0.334   0.616   0.194  0.3459 -1.9251 -1.6586
 4272TIP3   OH234374   4.216   4.754   7.341  0.2323  0.0953 -0.1588
 4272TIP3    H134375   4.215   4.664   7.373  0.1188  0.4891  0.9727
 4272TIP3    H234376   4.141   4.759   7.282  1.0064 -0.9005 -1.2731
 4273TIP3   OH234377   0.464   5.114   0.729 -0.3258  0.2987  0.1906
 4273TIP3    H134378   0.517   5.073   0.661 -2.0768  1.4839 -2.0023
 4273TIP3    H234379   0.514   5.191   0.755  0.8925 -0.7655  1.1652
 4274TIP3   OH234380   5.399   1.470   7.650 -0.3983 -0.3034 -0.2163
 4274TIP3    H134381   5.382   1.545   7.593  0.1448 -0.6149 -0.8108
 4274TIP3    H234382   5.314   1.447   7.687 -0.4678  0.9861  0.4604
 4275TIP3   OH234383   4.178   4.585   1.792 -0.2729  0.3897  0.4507
 4275TIP3    H134384   4.260   4.633   1.805  0.7273 -0.6866 -1.3984
 4275TIP3    H234385   4.141   4.577   1.880  0.9631  2.0006  1.1632
 4276TIP3   OH234386   2.119   3.287   0.878 -0.2339  0.3147 -0.4722
 4276TIP3    H134387   2.187   3.347   0.848 -0.5897 -0.0909 -2.1754
 4276TIP3    H234388   2.136   3.206   0.830 -2.9088  0.7180 -2.2643
 4277TIP3   OH234389   5.174   2.184   8.518 -0.1356 -0.3482  0.4026
 4277TIP3    H134390   5.104   2.206   8.579 -2.2238 -0.1749 -1.9046
 4277TIP3    H234391   5.148   2.100   8.481  0.9052 -0.2954 -0.4881
 4278TIP3   OH234392   1.785   6.062   7.412 -0.0535  0.1017 -0.2198
 4278TIP3    H134393   1.699   6.101   7.399  0.1324  0.6714  0.2447
 4278TIP3    H234394   1.834   6.084   7.333 -0.9257 -1.9084 -1.4177
 4279TIP3   OH234395   3.994   4.093   7.576  0.2904 -0.4190  0.2812
 4279TIP3    H134396   3.991   4.062   7.666  1.4483  1.5465  1.0600
 4279TIP3    H234397   3.992   4.188   7.583  1.2835 -0.1943 -1.7198
 4280TIP3   OH234398   5.758   4.215   1.041  0.6666 -0.4795  0.3910
 4280TIP3    H134399   5.778   4.308   1.053 -0.4037 -0.1822  0.0572
 4280TIP3    H234400   5.784   4.174   1.123 -1.1077  0.5303  1.5249
 4281TIP3   OH234401   5.282   4.781   6.928  0.7245  0.0107 -0.2803
 4281TIP3    H134402   5.302   4.741   6.844  0.1294 -0.3334 -0.2632
 4281TIP3    H234403   5.285   4.875   6.912  0.9509 -0.0544 -0.6051
 4282TIP3   OH234404   1.015   3.780   1.912 -0.0284  0.4845 -0.0444
 4282TIP3    H134405   1.056   3.704   1.870 -1.9037  0.9116 -2.9310
 4282TIP3    H234406   1.074   3.802   1.984  2.0037 -2.0270 -0.7757
 4283TIP3   OH234407   6.212   0.744   1.379  0.3777  0.0752  0.0758
 4283TIP3    H134408   6.143   0.799   1.415  0.3339 -0.6734  1.1699
 4283TIP3    H234409   6.215   0.769   1.286 -1.7837 -0.2951 -0.1625
 4284TIP3   OH234410   4.135   1.580   0.926  0.0095 -0.5466 -0.4768
 4284TIP3    H134411   4.146   1.674   0.941 -0.1135 -0.8028  1.4917
 4284TIP3    H234412   4.223   1.543   0.938 -0.1294 -0.7965 -0.2147
 4285TIP3   OH234413   6.758   5.625   8.343  0.5356 -0.9322 -0.2252
 4285TIP3    H134414   6.840   5.587   8.311  0.1385 -2.4087  0.3913
 4285TIP3    H234415   6.724   5.559   8.404  0.5675  1.1104  2.1772
 4286TIP3   OH234416   0.359   6.728   7.023  0.8500 -0.1196  0.7383
 4286TIP3    H134417   0.291   6.726   6.955  1.0939 -0.5171  0.5021
 4286TIP3    H234418   0.419   6.796   6.994  2.1416 -1.7577 -0.6253
 4287TIP3   OH234419   1.147   1.110   6.950  0.0162  0.4388 -0.2578
 4287TIP3    H134420   1.235   1.074   6.945 -0.8039 -1.6854 -0.3265
 4287TIP3    H234421   1.108   1.093   6.864 -0.7641  0.4795  0.0734
 4288TIP3   OH234422   6.669   1.280   7.333 -0.2935  0.0481  0.3047
 4288TIP3    H134423   6.581   1.244   7.320 -0.8823  1.6703 -0.5058
 4288TIP3    H234424   6.662   1.330   7.414 -0.0888  0.1179  0.2781
 4289TIP3   OH234425   2.806   4.616   6.636 -0.1407 -0.0475  0.0475
 4289TIP3    H134426   2.857   4.558   6.692  0.8886 -0.7014 -1.5031
 4289TIP3    H234427   2.825   4.704   6.669  2.1896 -0.2586 -0.5881
 4290TIP3   OH234428   6.712   2.747   1.478  0.3801  0.2624 -0.6806
 4290TIP3    H134429   6.802   2.767   1.505  0.0664  1.5024 -0.4776
 4290TIP3    H234430   6.721   2.673   1.418  1.5023  0.1558 -0.4084
 4291TIP3   OH234431   2.946   4.950   2.620  0.1955  0.4469  0.0847
 4291TIP3    H134432   2.951   5.045   2.621  1.1899  0.4087  1.1265
 4291TIP3    H234433   3.031   4.921   2.585  0.7809 -0.0494  1.7834
 4292TIP3   OH234434   0.411   0.678   1.554 -0.3846 -0.4408 -0.1669
 4292TIP3    H134435   0.417   0.593   1.509 -1.8372 -0.3843 -0.5045
 4292TIP3    H234436   0.344   0.725   1.506  1.1094  1.3310 -0.6379
 4293TIP3   OH234437   3.142   0.394   7.263 -0.1903  0.7343  0.6431
 4293TIP3    H134438   3.076   0.381   7.331 -0.8865  2.6225  0.3874
 4293TIP3    H234439   3.114   0.472   7.217  2.2184  1.5981  0.4920
 4294TIP3   OH234440   2.510   2.800   8.025 -0.0506 -0.0984  0.3689
 4294TIP3    H134441   2.445   2.788   7.955 -0.1989 -0.5916  0.5889
 4294TIP3    H234442   2.574   2.730   8.011  0.5720  0.5319  0.0099
 4295TIP3   OH234443   4.247   0.232   8.316  0.4403  0.3376 -0.0862
 4295TIP3    H134444   4.235   0.137   8.313  0.2993  0.2841  1.3917
 4295TIP3    H234445   4.181   0.263   8.378  0.5533  1.3959 -0.4656
 4296TIP3   OH234446   2.967   1.645   0.924  0.2190 -0.3737 -0.5925
 4296TIP3    H134447   2.878   1.612   0.915  0.9675 -2.5104 -0.6983
 4296TIP3    H234448   2.985   1.688   0.840 -0.1966 -1.2429 -1.1349
 4297TIP3   OH234449   5.618   5.575   0.874 -0.0775 -0.1527 -0.0902
 4297TIP3    H134450   5.700   5.616   0.903  0.1497 -0.4001 -0.3774
 4297TIP3    H234451   5.582   5.636   0.811 -1.1119  0.9109  1.4486
 4298TIP3   OH234452   2.492   6.386   0.395 -0.4553  0.1886  0.2515
 4298TIP3    H134453   2.510   6.429   0.479 -0.3991  0.6489  0.0053
 4298TIP3    H234454   2.567   6.328   0.381 -0.4652  0.1098  0.5162
 4299TIP3   OH234455   5.976   2.095   8.468  0.1637  0.7865 -0.1890
 4299TIP3    H134456   5.988   2.142   8.550  0.0172  1.9531 -0.8054
 4299TIP3    H234457   5.980   2.163   8.401  2.3233 -0.3597 -1.3340
 4300TIP3   OH234458   1.804   2.056   7.102 -0.2336 -0.0384  0.3385
 4300TIP3    H134459   1.844   1.981   7.057 -0.2680  0.9447 -1.3979
 4300TIP3    H234460   1.734   2.084   7.044 -1.6660  0.0317  2.0062
 4301TIP3   OH234461   1.470   6.604   7.975  0.8918 -0.1167 -0.1109
 4301TIP3    H134462   1.487   6.674   8.038  1.8150  1.4156 -1.9761
 4301TIP3    H234463   1.540   6.611   7.910  0.1506 -1.8188 -1.1763
 4302TIP3   OH234464   1.578   4.183   7.765 -0.5691 -0.1433 -0.5478
 4302TIP3    H134465   1.654   4.179   7.823 -0.8077 -2.7639 -0.2972
 4302TIP3    H234466   1.584   4.269   7.724  2.6641 -0.3292 -0.7237
 4303TIP3   OH234467   5.438   5.141   8.131 -0.2542 -0.1226 -0.4871
 4303TIP3    H134468   5.454   5.061   8.081  0.2833 -1.6351  1.9486
 4303TIP3    H234469   5.343   5.154   8.126 -0.5183 -1.6759  0.1422
 4304TIP3   OH234470   5.836   6.138   1.159 -0.7873 -0.1892  0.1670
 4304TIP3    H134471   5.893   6.135   1.235 -0.4008 -1.7116 -0.1332
 4304TIP3    H234472   5.774   6.066   1.173 -0.8538 -0.3408 -0.8315
 4305TIP3   OH234473   3.357   2.559   8.567 -0.0450 -0.3136  0.7009
 4305TIP3    H134474   3.401   2.475   8.582  0.7657 -0.1466 -0.5324
 4305TIP3    H234475   3.274   2.536   8.526  1.0724 -0.5139 -1.6495
 4306TIP3   OH234476   3.588   3.947   7.216  0.2974  0.3886  0.6488
 4306TIP3    H134477   3.511   3.996   7.246 -0.0143 -0.9787  2.2557
 4306TIP3    H234478   3.662   4.006   7.232 -0.2764  1.2161  0.3171
 4307TIP3   OH234479   3.395   5.406   7.348 -0.3668 -0.1156 -0.3088
 4307TIP3    H134480   3.340   5.479   7.375 -2.1773 -2.2094  2.0554
 4307TIP3    H234481   3.469   5.408   7.409 -0.5016 -0.3314 -0.1364
 4308TIP3   OH234482   3.767   1.331   1.796 -0.1238 -0.0272 -0.5522
 4308TIP3    H134483   3.852   1.371   1.815 -0.1378 -0.7359  1.1595
 4308TIP3    H234484   3.786   1.238   1.785 -0.7593 -0.3356  0.7206
 4309TIP3   OH234485   2.148   4.362   1.318 -0.0606 -0.3501  0.5822
 4309TIP3    H134486   2.240   4.365   1.293  0.5029 -2.3991  2.1809
 4309TIP3    H234487   2.107   4.431   1.265  2.0487 -0.5118 -1.4200
 4310TIP3   OH234488   3.782   1.308   2.203 -0.0413 -0.2251 -0.5187
 4310TIP3    H134489   3.785   1.227   2.254  0.2590 -0.2737 -0.6091
 4310TIP3    H234490   3.857   1.301   2.144 -0.8411 -0.5264 -1.5152
 4311TIP3   OH234491   3.182   1.232   8.455  0.4946  0.8565  0.0994
 4311TIP3    H134492   3.159   1.225   8.547 -1.8060  1.1957 -0.3985
 4311TIP3    H234493   3.131   1.307   8.423  0.1805 -0.0926 -1.7469
 4312TIP3   OH234494   6.383   0.507   8.200 -0.2093 -0.1766  0.4298
 4312TIP3    H134495   6.467   0.553   8.202 -0.0027 -0.5000 -0.5987
 4312TIP3    H234496   6.357   0.502   8.292 -1.0413  3.4065  0.5223
 4313TIP3   OH234497   3.979   3.352   8.098  0.1291  0.8477  0.3764
 4313TIP3    H134498   3.922   3.276   8.084  0.4312  0.5880  0.5564
 4313TIP3    H234499   4.049   3.342   8.033 -1.1827  2.3177 -1.3508
 4314TIP3   OH234500   1.864   0.311   7.710  0.4251 -0.4954  0.2606
 4314TIP3    H134501   1.794   0.334   7.649  0.2249 -0.2168  0.5924
 4314TIP3    H234502   1.821   0.255   7.776  0.6300 -0.7591  0.1700
 4315TIP3   OH234503   4.833   6.654   1.076 -0.9801 -0.2417 -0.2772
 4315TIP3    H134504   4.925   6.628   1.087 -0.4176  2.0826  1.3193
 4315TIP3    H234505   4.783   6.574   1.091  0.7448 -1.3676 -0.2616
 4316TIP3   OH234506   0.384   3.537   8.693  0.3089 -0.4235  0.1005
 4316TIP3    H134507   0.443   3.490   8.752  2.2117  1.0131 -0.5607
 4316TIP3    H234508   0.406   3.629   8.704 -0.2626 -0.0047 -1.7881
 4317TIP3   OH234509   4.751   0.546   2.423 -0.5012  0.1719 -0.2032
 4317TIP3    H134510   4.822   0.590   2.470 -1.2769  1.5250 -0.2521
 4317TIP3    H234511   4.706   0.494   2.489 -0.1180  0.1428  0.0381
 4318TIP3   OH234512   6.011   1.366   1.220 -0.0028 -0.1041  1.0211
 4318TIP3    H134513   5.964   1.393   1.142  0.9768  0.5763  0.6579
 4318TIP3    H234514   5.946   1.373   1.290 -0.1545  1.9760  0.7329
 4319TIP3   OH234515   0.177   3.116   7.561  0.3178 -0.7488 -0.0314
 4319TIP3    H134516   0.185   3.045   7.498 -0.2635  0.2012 -1.2041
 4319TIP3    H234517   0.228   3.187   7.524 -2.2729  0.7883 -0.9229
 4320TIP3   OH234518   1.358   4.093   0.157 -0.0135  0.6993  0.6364
 4320TIP3    H134519   1.322   4.075   0.244 -0.3710  2.1424  0.8121
 4320TIP3    H234520   1.291   4.144   0.113  1.7224  3.5156  0.9949
 4321TIP3   OH234521   0.759   3.840   1.258 -0.0760 -0.1868  0.6993
 4321TIP3    H134522   0.772   3.845   1.353  2.4075  1.8621  0.3667
 4321TIP3    H234523   0.710   3.919   1.236 -0.3501 -0.4869  0.2169
 4322TIP3   OH234524   3.232   1.550   7.859  0.3623  0.2206 -0.1099
 4322TIP3    H134525   3.277   1.607   7.797 -0.1845  0.0531 -0.6732
 4322TIP3    H234526   3.209   1.473   7.808  0.1320 -0.0283  0.3666
 4323TIP3   OH234527   6.466   0.616   0.099  0.7267 -0.0871  0.3397
 4323TIP3    H134528   6.557   0.644   0.108  0.7581 -0.5986  1.9093
 4323TIP3    H234529   6.418   0.696   0.075  1.5412  0.2203 -0.3148
 4324TIP3   OH234530   2.186   0.130   6.671  0.5252  0.0020 -0.4379
 4324TIP3    H134531   2.204   0.201   6.732 -0.0813 -1.4686  1.5642
 4324TIP3    H234532   2.257   0.134   6.607  0.5186  2.3452 -0.3870
 4325TIP3   OH234533   1.925   2.353   2.255 -0.6389 -0.1688 -0.8159
 4325TIP3    H134534   1.946   2.283   2.193  0.7816  0.1223 -0.7013
 4325TIP3    H234535   1.991   2.343   2.325 -0.2823  1.4018 -0.9020
 4326TIP3   OH234536   0.757   0.881   8.330 -0.1412  0.5392 -0.1711
 4326TIP3    H134537   0.819   0.877   8.257  0.5459  0.2118  0.4256
 4326TIP3    H234538   0.767   0.969   8.366 -0.6700  0.7920 -0.6271
 4327TIP3   OH234539   1.219   1.286   0.122 -0.0850 -0.1971 -0.1799
 4327TIP3    H134540   1.221   1.251   0.033 -4.1408  0.1840 -0.6267
 4327TIP3    H234541   1.233   1.380   0.111 -0.3253 -0.1879 -0.4357
 4328TIP3   OH234542   1.863   2.196   8.482 -0.2947 -0.5808 -0.3525
 4328TIP3    H134543   1.769   2.213   8.491 -0.2947  0.0902 -1.3616
 4328TIP3    H234544   1.896   2.194   8.571 -1.1537 -0.1061 -0.0114
 4329TIP3   OH234545   5.655   2.685   0.391  0.2330  0.0557  0.4124
 4329TIP3    H134546   5.739   2.653   0.424  1.3092  1.8523 -0.4015
 4329TIP3    H234547   5.678   2.764   0.342 -1.9623  0.6417  0.2443
 4330TIP3   OH234548   6.819   3.200   2.026  0.0625 -0.6046 -0.0054
 4330TIP3    H134549   6.877   3.260   1.978 -0.8907  0.6128  0.3104
 4330TIP3    H234550   6.870   3.173   2.102  0.4657 -0.0888 -0.0893
 4331TIP3   OH234551   3.803   3.695   8.397  0.5763 -0.0411 -0.1513
 4331TIP3    H134552   3.859   3.756   8.445  1.5520 -1.4917  0.6287
 4331TIP3    H234553   3.816   3.611   8.441 -1.6979 -0.5877 -0.3963
 4332TIP3   OH234554   3.741   1.193   7.331  0.4758 -0.0871  0.0657
 4332TIP3    H134555   3.679   1.130   7.366  0.1113  0.8753  1.2200
 4332TIP3    H234556   3.687   1.261   7.291  0.8613 -0.4940 -1.1904
 4333TIP3   OH234557   4.501   6.619   7.605  0.0351  0.5429  0.7218
 4333TIP3    H134558   4.442   6.544   7.604  0.5083  0.1390  1.8113
 4333TIP3    H234559   4.508   6.646   7.513 -1.6260  0.4461  0.5536
 4334TIP3   OH234560   6.415   5.360   8.349 -0.4288  0.1619 -0.6642
 4334TIP3    H134561   6.325   5.331   8.364  0.3357 -1.3351  1.5346
 4334TIP3    H234562   6.468   5.298   8.399  1.6565  2.6198  0.3540
 4335TIP3   OH234563   0.096   0.011   1.604 -0.1892 -0.0404 -0.2758
 4335TIP3    H134564   0.041   0.088   1.620  0.6880  0.4861  0.3286
 4335TIP3    H234565   0.176   0.028   1.654 -0.0017 -1.3863 -0.0791
 4336TIP3   OH234566   5.613   5.000   6.450 -0.2429  0.5620 -0.6098
 4336TIP3    H134567   5.661   4.964   6.524  0.2513  0.3746 -1.0124
 4336TIP3    H234568   5.566   4.925   6.413  0.1732  0.4756 -0.9811
 4337TIP3   OH234569   4.665   0.119   7.561  0.1240  0.0319  0.0402
 4337TIP3    H134570   4.691   0.155   7.477 -0.5697 -0.1247 -0.2510
 4337TIP3    H234571   4.574   0.092   7.549  0.3202 -0.9119  0.5439
 4338TIP3   OH234572   2.306   4.674   1.316 -0.2571  0.2729  0.1292
 4338TIP3    H134573   2.232   4.628   1.276  0.7009 -3.7472  2.3845
 4338TIP3    H234574   2.286   4.676   1.410  0.9177  2.4247  0.4042
 4339TIP3   OH234575   2.970   4.253   7.815  0.5568 -0.1452  0.1598
 4339TIP3    H134576   2.956   4.305   7.895 -1.4290  0.1066 -0.2798
 4339TIP3    H234577   2.882   4.246   7.777  0.9701 -2.7271 -0.4886
 4340TIP3   OH234578   6.777   5.544   6.903  0.0848 -0.0159  0.6659
 4340TIP3    H134579   6.799   5.636   6.914 -0.4454 -0.1149  3.2995
 4340TIP3    H234580   6.826   5.516   6.826  0.2190  2.4579 -0.2145
 4341TIP3   OH234581   0.006   5.266   0.062  0.4558 -0.4458  0.2727
 4341TIP3    H134582   0.049   5.258   0.147  0.0818 -2.0090  0.3437
 4341TIP3    H234583  -0.072   5.210   0.068 -0.4917  0.7111 -0.5500
 4342TIP3   OH234584   0.158   2.926   6.893 -0.0058 -0.0916 -0.6348
 4342TIP3    H134585   0.210   2.978   6.832 -0.4257  1.8121  0.5367
 4342TIP3    H234586   0.072   2.918   6.852 -0.8895  2.7983  0.3713
 4343TIP3   OH234587   2.164   2.384   1.111 -0.3865 -0.2415 -0.3051
 4343TIP3    H134588   2.242   2.370   1.164  0.6520 -0.5492 -1.8264
 4343TIP3    H234589   2.198   2.412   1.026 -1.8500 -1.5870 -1.4021
 4344TIP3   OH234590   0.259   4.621   6.847  0.5312 -0.4628 -0.7169
 4344TIP3    H134591   0.225   4.568   6.775  0.7723  1.8245 -2.6469
 4344TIP3    H234592   0.353   4.608   6.844  0.8486  1.7333 -2.7355
 4345TIP3   OH234593   3.124   0.862   0.756 -0.2572  0.0775  0.2293
 4345TIP3    H134594   3.031   0.873   0.735 -0.7907 -1.4914  1.5104
 4345TIP3    H234595   3.167   0.852   0.671 -1.8399 -2.8059 -0.3750
 4346TIP3   OH234596   2.718   3.172   7.827 -0.2146 -0.2002  0.1892
 4346TIP3    H134597   2.753   3.191   7.914  1.3473 -2.8241  0.2301
 4346TIP3    H234598   2.778   3.218   7.768  0.7762 -1.1409  0.4254
 4347TIP3   OH234599   5.889   0.999   0.752 -0.2356  0.3636 -0.4189
 4347TIP3    H134600   5.839   1.079   0.766  0.3675  1.2263 -2.8168
 4347TIP3    H234601   5.825   0.935   0.721 -0.4162  0.4327 -0.1909
 4348TIP3   OH234602   0.488   5.136   7.195 -0.2560  0.7706 -0.4893
 4348TIP3    H134603   0.419   5.071   7.182  0.0246  0.4557 -0.4328
 4348TIP3    H234604   0.450   5.218   7.163 -0.3975  0.4590 -1.1495
 4349TIP3   OH234605   6.613   3.679   6.943 -0.2606 -0.7588 -0.1416
 4349TIP3    H134606   6.555   3.647   6.874 -1.5486  0.9038  0.0991
 4349TIP3    H234607   6.647   3.761   6.909  1.0821 -1.1566  0.2056
 4350TIP3   OH234608   0.672   4.861   1.035 -0.2591  0.5508  0.2552
 4350TIP3    H134609   0.752   4.826   0.995  0.9595 -0.3069  3.1401
 4350TIP3    H234610   0.601   4.811   0.994  1.0047 -1.2933  0.1898
 4351TIP3   OH234611   4.197   2.901   8.539  0.1619 -0.3849 -0.7620
 4351TIP3    H134612   4.205   2.916   8.445 -3.6652  1.4239 -0.9657
 4351TIP3    H234613   4.118   2.849   8.549 -1.4013  2.1395  1.5248
 4352TIP3   OH234614   0.673   0.295   7.747 -0.2730 -0.4536 -0.2795
 4352TIP3    H134615   0.706   0.356   7.682  0.3021 -0.7911 -0.3083
 4352TIP3    H234616   0.699   0.209   7.715  0.6738 -0.5785  0.7716
 4353TIP3   OH234617   3.950   5.163   8.092  0.5955 -0.1665 -0.0749
 4353TIP3    H134618   3.921   5.124   8.175  0.8937 -0.1679  0.0305
 4353TIP3    H234619   3.886   5.232   8.075 -0.3377 -1.1389 -0.6126
 4354TIP3   OH234620   5.500   3.624   6.296 -0.3056  0.1805  0.3997
 4354TIP3    H134621   5.551   3.654   6.371  0.1798  0.2704  0.0380
 4354TIP3    H234622   5.416   3.668   6.305 -1.2456 -1.7608  2.3264
 4355TIP3   OH234623   3.115   3.296   2.080 -0.0637  0.1925 -0.8393
 4355TIP3    H134624   3.086   3.212   2.045  0.0446 -0.2787  0.1731
 4355TIP3    H234625   3.043   3.356   2.061 -1.2641 -0.6988  0.6122
 4356TIP3   OH234626   0.452   2.566   1.376 -0.4632  0.0988 -0.3182
 4356TIP3    H134627   0.445   2.560   1.472 -0.1648  0.0537 -0.2966
 4356TIP3    H234628   0.427   2.656   1.356  3.5186  1.5479  0.2380
 4357TIP3   OH234629   1.777   6.377   6.972  0.2600 -0.2252 -0.0065
 4357TIP3    H134630   1.684   6.357   6.961  0.0181  1.0055 -0.3715
 4357TIP3    H234631   1.821   6.328   6.902 -0.0242 -1.3588  0.5953
 4358TIP3   OH234632   3.402   3.516   8.693  0.5651  0.1584  0.4079
 4358TIP3    H134633   3.367   3.582   8.753  1.6647  0.2126  1.0194
 4358TIP3    H234634   3.385   3.432   8.737 -2.7139 -0.2168 -1.3069
 4359TIP3   OH234635   0.764   2.915   7.435 -0.0520  0.5812 -0.1031
 4359TIP3    H134636   0.797   2.845   7.492  2.8057  1.8423  0.0056
 4359TIP3    H234637   0.691   2.876   7.388 -0.1040 -1.6909  1.6869
 4360TIP3   OH234638   3.301   6.639   8.232 -0.9598  0.2905  0.0183
 4360TIP3    H134639   3.255   6.556   8.222  0.6417 -0.4135 -2.7587
 4360TIP3    H234640   3.369   6.621   8.297 -2.4995  0.4151  1.7419
 4361TIP3   OH234641   2.925   6.691   8.078 -0.0324  0.4867 -0.0528
 4361TIP3    H134642   2.905   6.705   7.985  1.3338 -0.0201 -0.4473
 4361TIP3    H234643   3.013   6.654   8.078 -0.4756 -0.6621  1.3920
 4362TIP3   OH234644   3.792   1.461   1.217 -0.9911  0.4015 -0.6280
 4362TIP3    H134645   3.835   1.506   1.144 -0.0751 -0.3349 -0.5499
 4362TIP3    H234646   3.804   1.518   1.292 -1.2328  0.7756 -0.8685
 4363TIP3   OH234647   1.854   5.157   1.698  0.1798  0.0718 -0.3117
 4363TIP3    H134648   1.816   5.091   1.641 -0.6056 -1.5688  1.9461
 4363TIP3    H234649   1.780   5.209   1.728  0.4852  0.5004 -0.2885
 4364TIP3   OH234650   5.708   1.356   8.166  0.3618 -0.3404  0.5347
 4364TIP3    H134651   5.746   1.356   8.078  0.9406  1.4073  0.7448
 4364TIP3    H234652   5.708   1.264   8.192  2.8653 -0.6126 -0.1787
 4365TIP3   OH234653   2.558   4.273   0.658 -0.0196  0.1429  0.4274
 4365TIP3    H134654   2.620   4.343   0.681 -0.5840  2.1444 -3.3357
 4365TIP3    H234655   2.587   4.244   0.572 -3.2683 -0.0109 -0.7397
 4366TIP3   OH234656   5.289   3.319   0.914  0.6575 -0.1297 -0.1398
 4366TIP3    H134657   5.384   3.318   0.903  0.6518 -1.6191 -0.2699
 4366TIP3    H234658   5.265   3.411   0.910  2.2282  0.3716  1.1062
 4367TIP3   OH234659   2.313   0.000   8.653  0.6809  0.3249 -0.7074
 4367TIP3    H134660   2.246  -0.064   8.676  1.3949  0.1333  1.0385
 4367TIP3    H234661   2.396  -0.044   8.672  1.2695  0.9669 -1.6881
 4368TIP3   OH234662   1.388   2.848   0.939 -0.2831  0.3755  0.3560
 4368TIP3    H134663   1.298   2.854   0.971 -1.0924 -3.5324 -0.6441
 4368TIP3    H234664   1.441   2.835   1.018 -0.8235  1.0103  0.8315
 4369TIP3   OH234665   0.761   0.157   8.006  0.2421 -0.0140  0.4070
 4369TIP3    H134666   0.726   0.173   7.918 -0.2741 -0.3127  0.5557
 4369TIP3    H234667   0.830   0.223   8.017  0.7699 -0.3906 -0.4828
 4370TIP3   OH234668   1.481   4.391   6.625  0.5763 -0.1246 -0.2265
 4370TIP3    H134669   1.389   4.418   6.617  0.4766  0.2172  1.5336
 4370TIP3    H234670   1.487   4.310   6.574 -1.0969 -0.9475  0.7690
 4371TIP3   OH234671   0.693   0.663   2.007  0.5762 -0.0758 -0.4263
 4371TIP3    H134672   0.641   0.640   2.084 -2.2188  0.0047 -2.1582
 4371TIP3    H234673   0.756   0.727   2.040  0.5445 -1.1936  2.0688
 4372TIP3   OH234674   4.453   5.188   1.563 -0.2053  0.1961 -0.5822
 4372TIP3    H134675   4.425   5.262   1.616  0.5783  0.6476 -0.7834
 4372TIP3    H234676   4.380   5.172   1.504 -1.2341 -0.5233  0.8157
 4373TIP3   OH234677   0.099   6.680   8.206  0.4747 -0.5449  0.3233
 4373TIP3    H134678   0.013   6.641   8.217  0.6951 -0.9547  0.6259
 4373TIP3    H234679   0.128   6.653   8.120  0.0283  0.1407 -0.0540
 4374TIP3   OH234680   1.038   3.275   6.447 -0.2622  0.6802  0.2249
 4374TIP3    H134681   1.129   3.297   6.465  0.3498  0.2591 -2.0330
 4374TIP3    H234682   1.025   3.190   6.488  0.6690  0.2969 -0.2634
 4375TIP3   OH234683   1.619   0.380   7.898  0.3497 -0.2038 -0.7219
 4375TIP3    H134684   1.588   0.298   7.859 -2.0656  0.3842 -0.1634
 4375TIP3    H234685   1.655   0.353   7.983 -2.1465 -0.5364  0.3009
 4376TIP3   OH234686   1.411   1.467   1.753 -0.2542  0.5285 -0.2303
 4376TIP3    H134687   1.473   1.538   1.769  2.1504 -1.0393 -1.9301
 4376TIP3    H234688   1.426   1.443   1.661  0.3747 -3.3002  0.7143
 4377TIP3   OH234689   5.299   5.936   0.425  0.6111  0.6567  0.6544
 4377TIP3    H134690   5.368   5.941   0.358  0.8243  1.2424  0.9150
 4377TIP3    H234691   5.298   5.843   0.450 -0.3920  0.1557 -1.0931
 4378TIP3   OH234692   0.211   0.556   8.222  0.0542  0.6967  0.1011
 4378TIP3    H134693   0.273   0.506   8.275  0.6496  1.0670 -0.2281
 4378TIP3    H234694   0.261   0.578   8.143 -1.3330 -1.3749 -1.4521
 4379TIP3   OH234695   6.336   5.081   7.767  0.8450 -0.0756 -0.4758
 4379TIP3    H134696   6.282   5.141   7.715  0.1270 -0.2217  0.0742
 4379TIP3    H234697   6.423   5.088   7.729  1.0123  2.0478  0.1851
 4380TIP3   OH234698   6.037   5.697   1.774 -0.2637 -0.5125 -0.3040
 4380TIP3    H134699   6.042   5.757   1.847 -1.5535 -0.2704 -0.3906
 4380TIP3    H234700   6.114   5.716   1.721 -0.2301  0.4851  0.0978
 4381TIP3   OH234701   6.528   2.287   8.118 -0.2624 -0.0079 -0.2692
 4381TIP3    H134702   6.440   2.325   8.110 -1.0306 -1.8336 -1.2276
 4381TIP3    H234703   6.512   2.194   8.130  1.5516 -0.1981  1.0575
 4382TIP3   OH234704   1.647   5.983   1.114  0.4113  0.3955 -0.0641
 4382TIP3    H134705   1.680   6.068   1.143  0.8665 -0.1703  1.1509
 4382TIP3    H234706   1.564   6.002   1.071 -0.4671  1.2677  1.9111
 4383TIP3   OH234707   0.444   1.411   6.280 -0.0135  0.7556  0.1500
 4383TIP3    H134708   0.414   1.322   6.259  0.1807  0.5469  0.7204
 4383TIP3    H234709   0.510   1.398   6.348  0.1282  1.3316  0.1286
 4384TIP3   OH234710   3.122   5.461   1.101  0.3042  0.1471  0.1201
 4384TIP3    H134711   3.164   5.474   1.016 -0.3936 -0.1443 -0.2745
 4384TIP3    H234712   3.060   5.390   1.087 -0.6146  0.8308  0.5880
 4385TIP3   OH234713   0.969   4.088   0.116  1.0139  0.0844 -0.5069
 4385TIP3    H134714   0.914   4.156   0.077  0.3297 -0.9829 -1.4426
 4385TIP3    H234715   0.952   4.096   0.210 -0.3529  0.1150 -0.7329
 4386TIP3   OH234716   1.636   2.572   0.312  0.3689  0.4191 -0.3210
 4386TIP3    H134717   1.648   2.523   0.393 -0.4304 -0.7346 -0.8557
 4386TIP3    H234718   1.552   2.541   0.278 -0.8461  3.1262 -0.0703
 4387TIP3   OH234719   4.143   5.919   0.360  0.2277  0.0518  0.3992
 4387TIP3    H134720   4.165   6.004   0.397  1.3457 -0.6058  1.3150
 4387TIP3    H234721   4.194   5.913   0.279 -0.5169  0.5831 -0.1252
 4388TIP3   OH234722   0.445   5.930   8.211 -0.6102  0.0946  0.1245
 4388TIP3    H134723   0.512   5.881   8.164 -1.0370  1.2036 -1.7366
 4388TIP3    H234724   0.394   5.974   8.142 -1.2982  1.7835  1.6189
 4389TIP3   OH234725   6.235   3.777   1.142  0.3384 -0.7296  0.2504
 4389TIP3    H134726   6.295   3.803   1.072 -1.3046  0.9408 -0.6088
 4389TIP3    H234727   6.162   3.735   1.097 -0.5319 -0.0272  0.9765
 4390TIP3   OH234728   4.391   3.877   7.811 -0.5615  0.4410  0.2882
 4390TIP3    H134729   4.350   3.839   7.732  1.0358 -0.7789  0.0081
 4390TIP3    H234730   4.411   3.802   7.866  0.2014  1.1184  0.9502
 4391TIP3   OH234731   6.332   2.950   1.272 -0.0577  0.0859 -0.0056
 4391TIP3    H134732   6.294   2.927   1.357 -3.4155  2.2914 -0.6614
 4391TIP3    H234733   6.403   3.011   1.293 -1.6888  1.6530  1.2993
 4392TIP3   OH234734   6.650   3.545   0.364  0.3405  0.7419 -0.0252
 4392TIP3    H134735   6.556   3.552   0.350  0.4203  0.0678 -1.0363
 4392TIP3    H234736   6.688   3.610   0.304  0.6167 -1.0701 -1.9596
 4393TIP3   OH234737   3.549   2.256   1.844 -0.2542 -0.8805 -0.7530
 4393TIP3    H134738   3.577   2.328   1.788  0.5511 -2.5211 -2.5874
 4393TIP3    H234739   3.565   2.178   1.791  2.3957 -2.7422  2.4329
 4394TIP3   OH234740   5.606   5.306   7.413  0.1009 -0.1817 -0.1231
 4394TIP3    H134741   5.619   5.213   7.432 -3.8257 -1.3128 -1.7829
 4394TIP3    H234742   5.526   5.328   7.462 -0.5502  1.5123 -1.8712
 4395TIP3   OH234743   3.369   2.528   7.513 -0.0904  0.2471 -0.4424
 4395TIP3    H134744   3.459   2.514   7.485  0.8433  2.5431  1.1374
 4395TIP3    H234745   3.365   2.488   7.600 -1.1637 -1.4066 -1.2075
 4396TIP3   OH234746   0.731   1.476   7.995  0.4146 -0.0833 -0.7308
 4396TIP3    H134747   0.762   1.388   7.970  1.0579  0.4561 -1.8962
 4396TIP3    H234748   0.651   1.488   7.944  0.6643  0.2495 -1.0450
 4397TIP3   OH234749   4.793   6.825   7.282 -0.0853  0.4261 -0.1811
 4397TIP3    H134750   4.706   6.861   7.265 -0.0871  0.5578  0.1025
 4397TIP3    H234751   4.783   6.730   7.268 -0.4785  0.3338  0.6401
 4398TIP3   OH234752   5.583   0.066   1.203 -0.5208 -0.1349 -0.1030
 4398TIP3    H134753   5.508   0.016   1.170 -0.1573  0.1791 -1.4606
 4398TIP3    H234754   5.622   0.105   1.125  0.5231  0.4538  0.6895
 4399TIP3   OH234755   3.952   2.974   1.961  0.1136 -0.3362 -0.4867
 4399TIP3    H134756   3.892   2.941   1.894  0.3457  0.5135 -1.1353
 4399TIP3    H234757   4.016   3.025   1.912 -0.1271  0.9108  0.4394
 4400TIP3   OH234758   1.129   4.228   1.249 -0.6608 -0.2497  0.8528
 4400TIP3    H134759   1.218   4.203   1.273 -0.5269 -0.4142  0.2011
 4400TIP3    H234760   1.136   4.320   1.222 -0.9996  0.2612  2.4254
 4401TIP3   OH234761   0.014   2.250   1.899 -0.5479  0.7721  0.1599
 4401TIP3    H134762   0.002   2.297   1.981 -1.2317 -0.4620  0.7838
 4401TIP3    H234763  -0.032   2.167   1.911 -0.3436  0.4068 -1.3324
 4402TIP3   OH234764   5.636   3.030   2.323  0.3781 -0.1767 -0.1670
 4402TIP3    H134765   5.545   3.007   2.346  0.7190  0.0584  1.5108
 4402TIP3    H234766   5.687   3.008   2.401  1.7260  0.0491 -0.9552
 4403TIP3   OH234767   3.205   6.712   8.590  0.4207  0.5900 -0.3116
 4403TIP3    H134768   3.196   6.620   8.615  1.7746  0.7798  1.0124
 4403TIP3    H234769   3.235   6.710   8.499 -2.2355 -0.1817 -1.2474
 4404TIP3   OH234770   3.584   1.270   2.022 -0.4227 -0.1461 -0.3590
 4404TIP3    H134771   3.507   1.275   2.079 -0.7383  1.6292 -0.8593
 4404TIP3    H234772   3.657   1.297   2.078 -0.4863  0.1190 -0.4045
 4405TIP3   OH234773   5.840   5.353   7.883 -0.9468  0.3706 -0.4454
 4405TIP3    H134774   5.801   5.403   7.811 -2.2117 -1.7503 -1.3456
 4405TIP3    H234775   5.910   5.303   7.842 -0.2346  0.7701  0.2613
 4406TIP3   OH234776   2.768   1.362   2.104  0.2253 -0.0480  0.1322
 4406TIP3    H134777   2.785   1.450   2.070  0.6873  0.4565  1.5735
 4406TIP3    H234778   2.847   1.312   2.082  0.5486  0.2930  0.4942
 4407TIP3   OH234779   3.042   1.567   2.313 -0.7657  0.1963 -0.0427
 4407TIP3    H134780   3.121   1.514   2.308 -0.4340  0.5213  1.2590
 4407TIP3    H234781   3.044   1.623   2.235 -0.6505 -1.0344 -0.9445
 4408TIP3   OH234782   3.202   3.543   0.195 -0.4433 -0.3805 -0.3720
 4408TIP3    H134783   3.109   3.522   0.196 -0.1049 -2.0425  1.3600
 4408TIP3    H234784   3.245   3.464   0.227  1.4330  0.9360  0.5401
 4409TIP3   OH234785   0.929   1.289   1.813 -0.1878 -0.1489 -0.3545
 4409TIP3    H134786   0.995   1.358   1.811  2.5791 -2.6179 -0.7231
 4409TIP3    H234787   0.881   1.304   1.895  1.4783  1.1810  0.4235
 4410TIP3   OH234788   0.870   1.509   8.614 -0.1167  0.2380 -0.3379
 4410TIP3    H134789   0.958   1.521   8.578  0.3937  1.6484  1.2763
 4410TIP3    H234790   0.816   1.491   8.537  1.0227  2.5093 -1.7966
 4411TIP3   OH234791   1.948   2.389   0.468  0.2698 -0.4083  0.1048
 4411TIP3    H134792   1.856   2.364   0.463  0.4693 -1.4472  0.9990
 4411TIP3    H234793   1.949   2.466   0.525 -0.1860  0.5904 -1.2021
 4412TIP3   OH234794   5.761   4.560   0.221  0.2034 -0.3271 -0.4387
 4412TIP3    H134795   5.778   4.649   0.189 -2.0961  0.0026 -0.9158
 4412TIP3    H234796   5.839   4.538   0.272  0.1735  2.6651  1.1798
 4413TIP3   OH234797   2.565   4.080   7.471 -0.2968 -0.6868 -0.0717
 4413TIP3    H134798   2.511   4.126   7.535  2.2529  3.2549 -0.3618
 4413TIP3    H234799   2.531   4.110   7.386  2.1205  2.0064 -0.2589
 4414TIP3   OH234800   6.235   6.580   7.672 -0.0546  0.4026  0.8653
 4414TIP3    H134801   6.159   6.580   7.615 -0.9140  0.2930  1.9765
 4414TIP3    H234802   6.218   6.510   7.735  1.7965 -0.8408  0.0954
 4415TIP3   OH234803   3.674   2.439   6.890 -0.5467 -0.0028 -0.1380
 4415TIP3    H134804   3.721   2.501   6.833 -1.1604  0.1086 -0.5251
 4415TIP3    H234805   3.699   2.465   6.979  1.0261 -0.6491 -0.3503
 4416TIP3   OH234806   4.591   6.157   1.927  0.2529  0.0671  0.0083
 4416TIP3    H134807   4.658   6.224   1.940 -1.2225  1.3221  1.7509
 4416TIP3    H234808   4.601   6.129   1.836  2.0844  1.3377 -0.2280
 4417TIP3   OH234809   0.101   4.516   8.384  0.1500 -0.6859 -0.1845
 4417TIP3    H134810   0.146   4.567   8.318 -0.8116  0.7436  0.2229
 4417TIP3    H234811   0.094   4.574   8.460 -1.3579 -1.2377  0.1450
 4418TIP3   OH234812   3.026   0.657   2.465 -0.5651  0.5044  0.0119
 4418TIP3    H134813   2.932   0.652   2.478 -0.2653  0.2039  2.8635
 4418TIP3    H234814   3.046   0.750   2.466 -0.7919  0.5582 -0.3087
 4419TIP3   OH234815   5.973   2.361   8.369 -0.3343  0.4819  0.1120
 4419TIP3    H134816   5.921   2.438   8.392 -2.7444 -1.0444  0.0736
 4419TIP3    H234817   5.950   2.344   8.277 -0.9668 -1.0914  0.5345
 4420TIP3   OH234818   6.347   4.573   8.498 -0.4212 -1.3581  0.1715
 4420TIP3    H134819   6.251   4.576   8.497 -0.4289  1.1962  0.7436
 4420TIP3    H234820   6.372   4.564   8.406 -1.2586  0.5509 -0.2949
 4421TIP3   OH234821   0.156   5.524   0.742 -0.2574 -0.0234  0.4254
 4421TIP3    H134822   0.129   5.453   0.801 -0.3219 -0.9570 -0.6866
 4421TIP3    H234823   0.110   5.601   0.775 -1.0464 -0.7271  1.0171
 4422TIP3   OH234824   3.349   3.912   1.411  0.4175  0.1426 -0.3746
 4422TIP3    H134825   3.317   3.933   1.499  1.6652 -1.6955  0.5887
 4422TIP3    H234826   3.379   3.821   1.417  1.1840  0.1859 -2.5254
 4423TIP3   OH234827   3.938   3.114   7.340  0.0563  0.3878  0.2518
 4423TIP3    H134828   3.868   3.154   7.393 -0.2292 -1.9312  1.8039
 4423TIP3    H234829   4.004   3.182   7.333 -0.6262  1.3584  2.2700
 4424TIP3   OH234830   1.213   5.288   8.526  0.0395  0.5895  0.6583
 4424TIP3    H134831   1.152   5.298   8.599  0.6781  0.1020  1.2723
 4424TIP3    H234832   1.297   5.266   8.567  0.5544  0.9181 -0.1879
 4425TIP3   OH234833   2.632   2.045   2.212  0.3391 -0.4514  0.6129
 4425TIP3    H134834   2.580   2.001   2.279  1.3259 -2.3258  0.2093
 4425TIP3    H234835   2.632   2.137   2.239 -2.4919 -0.4941  1.0231
 4426TIP3   OH234836   2.987   0.751   0.120 -0.5289 -0.2571  0.2198
 4426TIP3    H134837   2.974   0.689   0.191  1.6280 -1.2464 -0.1520
 4426TIP3    H234838   2.992   0.837   0.163 -0.5642 -0.6917  1.1030
 4427TIP3   OH234839   1.659   4.729   2.322 -0.1545  0.2293 -0.7317
 4427TIP3    H134840   1.689   4.775   2.401  0.6548 -2.1738  0.4632
 4427TIP3    H234841   1.739   4.703   2.277 -0.3304 -2.9971  0.5377
 4428TIP3   OH234842   3.101   6.752   7.424  0.3778  0.7362 -0.0661
 4428TIP3    H134843   3.112   6.804   7.343  3.4394  1.2891  0.5716
 4428TIP3    H234844   3.010   6.765   7.448 -0.0882  2.2955 -2.2992
 4429TIP3   OH234845   6.298   1.686   2.691  0.5295  0.6560  0.1556
 4429TIP3    H134846   6.267   1.595   2.698  1.4209  0.2559 -0.7414
 4429TIP3    H234847   6.390   1.681   2.717  0.5489  1.3414  0.2301
 4430TIP3   OH234848   2.154   6.495   8.577  0.1815 -0.1556 -0.7800
 4430TIP3    H134849   2.102   6.417   8.597  1.1137 -1.0540 -1.7219
 4430TIP3    H234850   2.241   6.476   8.612  0.9098 -0.3308 -2.5742
 4431TIP3   OH234851   4.556   6.121   2.801 -0.2686 -0.4153 -0.2635
 4431TIP3    H134852   4.565   6.027   2.817  0.0458 -0.6156 -1.5149
 4431TIP3    H234853   4.603   6.163   2.873  0.3044 -1.2415 -0.1493
 4432TIP3   OH234854   4.091   0.654   7.415  0.5076 -0.0773  0.4769
 4432TIP3    H134855   4.023   0.617   7.360  0.3848  1.1676 -0.2601
 4432TIP3    H234856   4.128   0.580   7.463 -1.8579 -0.6920  1.4792
 4433TIP3   OH234857   0.330   0.317   1.713 -0.1050  0.0868 -0.0830
 4433TIP3    H134858   0.408   0.361   1.744 -1.4710  1.6482  1.3626
 4433TIP3    H234859   0.339   0.227   1.744  0.9163  0.3711  0.4750
 4434TIP3   OH234860   1.114   0.618   7.064  0.1272  0.0881  0.0166
 4434TIP3    H134861   1.034   0.571   7.040  0.7005 -1.1451  0.4516
 4434TIP3    H234862   1.184   0.570   7.021  0.8114 -0.0343  1.2106
 4435TIP3   OH234863   0.392   5.323   1.118  0.2127  0.1949  0.3040
 4435TIP3    H134864   0.331   5.349   1.049 -2.1318  0.3278  2.2937
 4435TIP3    H234865   0.400   5.400   1.174  0.3037 -0.5885  1.3999
 4436TIP3   OH234866   1.148   1.953   1.784  0.6417 -0.5062 -0.2824
 4436TIP3    H134867   1.162   1.954   1.878 -1.3784 -0.1521  0.0651
 4436TIP3    H234868   1.231   1.924   1.747  1.2547 -1.3252  1.6397
 4437TIP3   OH234869   2.667   2.067   1.273 -0.1651  0.1036 -0.3001
 4437TIP3    H134870   2.611   1.990   1.261  0.4305 -0.2419 -0.9460
 4437TIP3    H234871   2.727   2.043   1.343 -1.1840  0.6967  0.8103
 4438TIP3   OH234872   6.480   6.593   8.424 -0.0297  0.4863  0.5997
 4438TIP3    H134873   6.404   6.540   8.447 -0.0404  0.6652  0.9829
 4438TIP3    H234874   6.482   6.663   8.489 -0.3895  1.3352 -0.2762
 4439TIP3   OH234875   0.825   3.603   8.320 -0.8341  0.7924  0.3957
 4439TIP3    H134876   0.793   3.579   8.407  0.2607 -0.1338  0.5636
 4439TIP3    H234877   0.769   3.554   8.259 -2.1146  2.0456  0.5189
 4440TIP3   OH234878   5.895   6.042   0.429 -0.4098  0.0402 -0.4647
 4440TIP3    H134879   5.985   6.060   0.402 -0.5063 -0.4117 -1.0993
 4440TIP3    H234880   5.852   6.009   0.350 -0.3157 -2.7821  0.5484
 4441TIP3   OH234881   6.276   0.775   0.629 -0.1714  0.2245 -0.0095
 4441TIP3    H134882   6.319   0.733   0.704  1.2351 -0.0494 -0.9436
 4441TIP3    H234883   6.313   0.732   0.552 -1.6839  0.4258 -0.8821
 4442TIP3   OH234884   3.064   2.180   0.945 -0.2091  0.0972 -0.3012
 4442TIP3    H134885   3.033   2.206   0.859 -0.5959 -0.7240 -0.4193
 4442TIP3    H234886   3.159   2.174   0.936 -0.2693 -0.2178 -0.7396
 4443TIP3   OH234887   3.412   1.132   8.541 -0.4519  0.2077  0.0918
 4443TIP3    H134888   3.329   1.149   8.496 -0.3690  0.8377  0.1619
 4443TIP3    H234889   3.415   1.197   8.611  1.0265  1.5792 -1.1539
 4444TIP3   OH234890   4.768   4.779   6.658  0.0547  0.3288 -0.0112
 4444TIP3    H134891   4.747   4.699   6.706  2.8018 -0.6465 -0.3047
 4444TIP3    H234892   4.793   4.842   6.725 -2.1259  1.0337  0.2215
 4445TIP3   OH234893   4.961   5.843   1.816 -0.1997  0.3876 -0.3249
 4445TIP3    H134894   4.978   5.780   1.746 -1.6960 -0.1157 -0.2675
 4445TIP3    H234895   4.946   5.789   1.894 -0.6602  0.8378 -0.0950
 4446TIP3   OH234896   0.893   6.853   1.750  0.1733  0.8083 -0.2738
 4446TIP3    H134897   0.849   6.875   1.832 -0.3101  1.2117 -0.6270
 4446TIP3    H234898   0.870   6.762   1.733  0.2920  0.7201  0.0527
 4447TIP3   OH234899   6.343   6.770   6.973  0.0397  0.7044  0.0972
 4447TIP3    H134900   6.347   6.798   6.882  2.3510 -1.6086 -0.6421
 4447TIP3    H234901   6.359   6.849   7.023 -0.2400  1.8489 -1.5509
 4448TIP3   OH234902   6.671   2.849   0.479 -0.3077 -0.0978 -0.0615
 4448TIP3    H134903   6.587   2.880   0.513 -1.2430 -0.8234 -1.5942
 4448TIP3    H234904   6.655   2.757   0.455  1.0407 -0.3675 -0.0057
 4449TIP3   OH234905   0.137   6.175   7.367 -0.5007  0.2237  0.1272
 4449TIP3    H134906   0.101   6.125   7.295  1.2425  1.2264 -1.5305
 4449TIP3    H234907   0.094   6.140   7.445 -1.4592 -1.8011 -1.2409
 4450TIP3   OH234908   1.731   0.684   0.315  0.7434 -0.1345  0.0383
 4450TIP3    H134909   1.726   0.739   0.237  0.9284 -1.6037 -1.0632
 4450TIP3    H234910   1.784   0.734   0.377 -0.7722  1.7916 -0.1227
 4451TIP3   OH234911   0.624   6.004   1.531  0.3108  0.1877  0.1689
 4451TIP3    H134912   0.569   5.992   1.454  0.1858 -0.3139  0.3317
 4451TIP3    H234913   0.562   6.026   1.601  0.4552  0.9626  0.0599
 4452TIP3   OH234914   0.201   0.253   8.534  0.0961 -0.4308 -0.0979
 4452TIP3    H134915   0.240   0.255   8.621  0.6456  2.3699 -0.3324
 4452TIP3    H234916   0.131   0.188   8.541  0.3767 -0.5663  2.3105
 4453TIP3   OH234917   1.018   5.605   8.226  0.3093 -0.1325 -0.6865
 4453TIP3    H134918   0.996   5.692   8.259 -1.2382 -1.1904  1.3046
 4453TIP3    H234919   1.107   5.589   8.256  0.0688  0.1965  0.2141
 4454TIP3   OH234920   6.202   1.942   8.498 -0.4063  0.2912 -0.2736
 4454TIP3    H134921   6.144   2.014   8.474  0.5840  1.2232  0.0081
 4454TIP3    H234922   6.232   1.964   8.586  0.2780 -0.2273 -0.3666
 4455TIP3   OH234923   5.003   6.074   0.647  0.2125 -0.1997 -0.7109
 4455TIP3    H134924   4.998   6.161   0.685  1.3246 -0.1003 -0.7686
 4455TIP3    H234925   5.001   6.088   0.553 -1.9379 -0.4093 -0.7547
 4456TIP3   OH234926   2.269   6.757   6.804 -0.0560 -0.7022 -0.1458
 4456TIP3    H134927   2.226   6.829   6.758 -1.2022 -1.2031  0.0867
 4456TIP3    H234928   2.196   6.703   6.836  0.7255 -0.7931  1.5745
 4457TIP3   OH234929   1.764   4.682   6.777  0.0692 -0.3704  0.0515
 4457TIP3    H134930   1.681   4.654   6.739 -0.0314  0.5023 -0.4161
 4457TIP3    H234931   1.739   4.727   6.858 -0.3602  3.2000 -1.8382
 4458TIP3   OH234932   4.466   5.220   0.901 -0.1715 -0.1614 -0.7568
 4458TIP3    H134933   4.542   5.166   0.920  0.7830  1.2754 -0.2670
 4458TIP3    H234934   4.484   5.304   0.944 -1.9361  0.3038 -0.8102
 4459TIP3   OH234935   2.617   0.652   6.350  0.2202  0.0583 -0.5718
 4459TIP3    H134936   2.565   0.732   6.350 -0.3164 -0.2683 -1.6437
 4459TIP3    H234937   2.557   0.585   6.382  0.3917 -0.0774 -0.5327
 4460TIP3   OH234938   0.575   5.659   7.707  0.1441 -0.1672  0.1836
 4460TIP3    H134939   0.557   5.569   7.678  0.6693 -0.1117 -0.3266
 4460TIP3    H234940   0.669   5.669   7.699  0.1568  0.2498  0.7937
 4461TIP3   OH234941   0.329   5.496   2.328 -0.1183 -0.6669 -0.4800
 4461TIP3    H134942   0.364   5.537   2.407 -0.3341  2.2335 -1.7705
 4461TIP3    H234943   0.237   5.523   2.326 -0.1663 -0.8752 -1.6073
 4462TIP3   OH234944   0.211   4.420   0.956  0.0252 -0.4110 -0.2477
 4462TIP3    H134945   0.186   4.388   1.043 -0.1599 -0.8093 -0.4481
 4462TIP3    H234946   0.160   4.367   0.895  1.0749 -0.9759 -0.6498
 4463TIP3   OH234947   4.815   1.749   1.338 -0.2403  0.0158  0.3143
 4463TIP3    H134948   4.775   1.781   1.419  0.5084  0.0664  0.6793
 4463TIP3    H234949   4.803   1.654   1.340 -2.6663  0.2108 -0.8751
 4464TIP3   OH234950   4.459   3.501   0.435 -0.3740  0.0498  0.1559
 4464TIP3    H134951   4.422   3.488   0.523 -1.8858  2.2863 -0.0760
 4464TIP3    H234952   4.389   3.475   0.375  0.4193 -0.8370 -0.4281
 4465TIP3   OH234953   5.498   5.236   7.828  0.1618 -0.3128  0.4279
 4465TIP3    H134954   5.535   5.318   7.795 -1.9389  0.7859  0.6149
 4465TIP3    H234955   5.455   5.197   7.752 -0.7936 -0.0584  0.8204
 4466TIP3   OH234956   6.747   4.305   7.188  0.3612  0.1068 -0.1785
 4466TIP3    H134957   6.707   4.367   7.250 -0.7519 -1.8993  1.1999
 4466TIP3    H234958   6.835   4.339   7.175  0.2678  1.2282  1.6637
 4467TIP3   OH234959   4.478   4.560   2.252  0.2258 -0.3949 -0.6280
 4467TIP3    H134960   4.545   4.575   2.319  0.2544  0.0179 -0.7425
 4467TIP3    H234961   4.396   4.586   2.294 -0.0338 -1.9951 -0.0962
 4468TIP3   OH234962   2.250   5.886   8.669 -0.5040 -0.1520 -0.2256
 4468TIP3    H134963   2.255   5.792   8.655  2.2424 -0.0721 -0.3618
 4468TIP3    H234964   2.165   5.900   8.709 -0.2194 -2.9244  1.5972
 4469TIP3   OH234965   3.711   0.765   8.513  0.7974  0.1523  0.0637
 4469TIP3    H134966   3.682   0.707   8.443  0.4481  1.4409 -0.8876
 4469TIP3    H234967   3.720   0.707   8.589 -1.3837 -0.8208 -0.3479
 4470TIP3   OH234968   1.095   5.778   2.191  0.1136 -0.0016  0.7394
 4470TIP3    H134969   1.098   5.682   2.189  0.0279 -0.0252  1.4563
 4470TIP3    H234970   1.161   5.803   2.256 -0.0359  0.4143  0.7364
 4471TIP3   OH234971   5.005   0.550   0.849 -0.1596 -0.6095 -0.6718
 4471TIP3    H134972   4.982   0.458   0.863 -3.9528  0.4837  1.6046
 4471TIP3    H234973   5.090   0.560   0.892  1.1507 -3.2660 -2.3619
 4472TIP3   OH234974   0.379   4.619   0.137  0.2020  0.1893 -0.2794
 4472TIP3    H134975   0.436   4.688   0.170  0.9426 -0.6436  0.2228
 4472TIP3    H234976   0.326   4.593   0.213 -0.5382  0.6561 -0.6320
 4473TIP3   OH234977   0.052   4.365   1.166 -0.0309 -0.4890  0.1038
 4473TIP3    H134978   0.019   4.416   1.240  1.0649 -1.0344  1.0017
 4473TIP3    H234979   0.081   4.282   1.205  1.5237 -0.3910 -0.7637
 4474TIP3   OH234980   2.549   1.143   0.475  0.0156  0.3115 -0.8336
 4474TIP3    H134981   2.489   1.097   0.533 -1.8199  1.2695 -1.8781
 4474TIP3    H234982   2.493   1.177   0.405  1.5455  2.4370 -1.1237
 4475TIP3   OH234983   6.831   5.883   8.476 -0.2269  0.4600 -0.2916
 4475TIP3    H134984   6.802   5.806   8.427  0.3775  0.7179 -1.0765
 4475TIP3    H234985   6.871   5.846   8.555 -0.5756  0.0018 -0.3254
 4476TIP3   OH234986   3.256   1.660   0.049  0.6105 -0.3555  0.1563
 4476TIP3    H134987   3.255   1.629  -0.041 -0.0646  1.0235 -0.3503
 4476TIP3    H234988   3.345   1.693   0.063  0.1614  1.3790 -0.7615
 4477TIP3   OH234989   4.635   4.648   7.242 -0.2065  0.4755 -0.7810
 4477TIP3    H134990   4.639   4.597   7.161 -1.5705 -0.8694 -0.0493
 4477TIP3    H234991   4.617   4.583   7.310 -0.3399  1.7465  0.4328
 4478TIP3   OH234992   5.336   1.521   8.653 -0.2724  0.4360 -0.2334
 4478TIP3    H134993   5.420   1.484   8.626 -0.1370  0.1368  0.5745
 4478TIP3    H234994   5.344   1.614   8.633  1.2313  0.9105  2.0477
 4479TIP3   OH234995   0.529   3.949   0.991  0.1796  0.1506  0.1040
 4479TIP3    H134996   0.570   3.987   1.069 -0.4194  2.4357 -0.5917
 4479TIP3    H234997   0.461   4.013   0.967 -1.1299 -1.5750 -1.0225
 4480TIP3   OH234998   1.784   5.198   0.121  0.4274  0.4685  0.5363
 4480TIP3    H134999   1.714   5.262   0.110  0.9084  0.8049 -0.7399
 4480TIP3    H235000   1.790   5.185   0.216  0.1735  2.1319  0.8017
 4481TIP3   OH235001   4.052   2.132   0.258  0.1534  0.0182  0.3391
 4481TIP3    H135002   4.122   2.178   0.304  0.5567  0.0524 -0.2970
 4481TIP3    H235003   3.972   2.163   0.299  0.5076 -0.0665  1.1197
 4482TIP3   OH235004   2.995   3.851   0.879  0.3631 -0.4765  0.3059
 4482TIP3    H135005   2.933   3.887   0.815 -0.0172 -1.0068  0.3717
 4482TIP3    H235006   3.025   3.769   0.840  1.9492  0.3277 -0.2877
 4483TIP3   OH235007   5.522   1.015   0.954 -0.0407  0.3512 -0.0547
 4483TIP3    H135008   5.472   1.093   0.980  0.2639  0.6370 -0.3170
 4483TIP3    H235009   5.611   1.048   0.939  0.4643 -0.3050  1.3033
 4484TIP3   OH235010   5.749   0.189   1.383 -0.0936 -0.0982  0.2840
 4484TIP3    H135011   5.838   0.156   1.379  0.3465  0.7645  2.1363
 4484TIP3    H235012   5.705   0.147   1.309  1.9372 -0.1886 -0.9566
 4485TIP3   OH235013   3.232   6.232   7.404 -0.7706 -0.0475  0.7793
 4485TIP3    H135014   3.243   6.283   7.485 -0.1788  0.0346  0.6493
 4485TIP3    H235015   3.285   6.153   7.418 -1.7307 -0.6715  1.0057
 4486TIP3   OH235016   5.373   1.538   6.932  0.7351 -0.3719  0.2153
 4486TIP3    H135017   5.309   1.468   6.925 -0.1002  0.5128 -2.1427
 4486TIP3    H235018   5.456   1.497   6.906  0.3310 -0.6049 -0.7521
 4487TIP3   OH235019   5.842   4.278   7.203  0.1256  0.0550  0.2019
 4487TIP3    H135020   5.790   4.197   7.203 -0.1660  0.2321 -0.3129
 4487TIP3    H235021   5.874   4.285   7.113 -0.0489  0.6378  0.1832
 4488TIP3   OH235022   4.454   6.733   0.079 -0.0138  0.2992 -0.4126
 4488TIP3    H135023   4.439   6.659   0.021 -1.5087 -0.4560  0.8644
 4488TIP3    H235024   4.417   6.808   0.032 -1.4001 -0.3381 -0.3896
 4489TIP3   OH235025   5.819   0.102   0.869 -0.6680 -0.4234 -0.7243
 4489TIP3    H135026   5.752   0.050   0.823  0.5234 -1.3992 -1.4380
 4489TIP3    H235027   5.780   0.189   0.878 -0.9415 -0.0983 -3.7924
 4490TIP3   OH235028   0.130   2.538   0.983  0.0727  0.1552 -0.9871
 4490TIP3    H135029   0.081   2.619   0.973  0.6194  0.6060 -0.0739
 4490TIP3    H235030   0.140   2.526   1.077 -0.4673 -1.2633 -1.0784
 4491TIP3   OH235031   1.564   4.583   6.443 -0.2261 -0.4315 -0.4881
 4491TIP3    H135032   1.552   4.518   6.512  0.3417  1.1276  1.1564
 4491TIP3    H235033   1.538   4.666   6.483  0.4361  0.5732 -2.0514
 4492TIP3   OH235034   3.552   5.906   8.067  0.4122 -0.7015  0.1218
 4492TIP3    H135035   3.615   5.872   8.130  0.5244 -1.8435 -0.5828
 4492TIP3    H235036   3.567   6.001   8.068  2.0721 -0.9300  0.0525
 4493TIP3   OH235037   5.302   4.456   7.910  0.2694  0.0633  0.2981
 4493TIP3    H135038   5.381   4.458   7.963  0.0066 -0.8209  0.7505
 4493TIP3    H235039   5.317   4.521   7.841  0.2747  1.8818  1.9334
 4494TIP3   OH235040   3.045   3.494   7.460 -0.2993  0.2703  0.0689
 4494TIP3    H135041   3.084   3.513   7.375  0.9638 -0.2542  0.5148
 4494TIP3    H235042   2.966   3.444   7.439 -0.3957  0.7650 -0.8128
 4495TIP3   OH235043   1.989   0.103   1.330  0.1545 -0.1895 -0.0593
 4495TIP3    H135044   1.901   0.136   1.349  0.3373  0.1421  0.2175
 4495TIP3    H235045   2.017   0.061   1.411  0.4909  0.2469  0.0562
 4496TIP3   OH235046   3.494   5.165   7.278 -0.5261  0.2403  0.1943
 4496TIP3    H135047   3.582   5.168   7.316 -0.1854 -1.4574 -0.3988
 4496TIP3    H235048   3.458   5.252   7.295  1.9264  1.6310 -1.1716
 4497TIP3   OH235049   1.192   6.328   2.253 -0.3616 -0.2563  0.3155
 4497TIP3    H135050   1.211   6.339   2.160 -2.8469 -3.3247 -0.7227
 4497TIP3    H235051   1.260   6.269   2.285  0.4673  0.7635  0.4859
 4498TIP3   OH235052   1.211   2.168   0.286 -0.0463  0.0226 -0.6715
 4498TIP3    H135053   1.207   2.248   0.233 -0.4120  0.4826  0.0395
 4498TIP3    H235054   1.127   2.126   0.271 -1.2516  1.4552  1.5121
 4499TIP3   OH235055   3.974   6.248   8.527 -0.7808 -0.3309  0.0766
 4499TIP3    H135056   3.935   6.205   8.603 -3.0114 -0.6611 -1.1930
 4499TIP3    H235057   3.923   6.328   8.515 -0.8786 -0.5814 -1.4148
 4500TIP3   OH235058   1.363   5.844   1.232 -0.0939 -0.6348 -0.2153
 4500TIP3    H135059   1.368   5.926   1.281  0.4690  0.1282 -1.5083
 4500TIP3    H235060   1.273   5.813   1.247 -0.9924  1.2789 -1.3314
 4501TIP3   OH235061   0.934   1.102   1.400  0.4325 -0.1248  0.4878
 4501TIP3    H135062   0.996   1.131   1.467  0.3066  1.8814 -0.1705
 4501TIP3    H235063   0.918   1.181   1.348 -0.3387 -1.3476 -1.2094
 4502TIP3   OH235064   6.336   1.178   8.286  0.4807 -0.0120  0.0430
 4502TIP3    H135065   6.344   1.212   8.197  1.7211  1.6360  0.7245
 4502TIP3    H235066   6.296   1.250   8.335 -0.3256 -0.9553  0.8038
 4503TIP3   OH235067   2.886   0.135   2.435 -0.2661 -0.2576 -0.4078
 4503TIP3    H135068   2.814   0.117   2.375  0.1389  0.5944 -1.1756
 4503TIP3    H235069   2.849   0.195   2.500  0.0143  1.0738 -1.4376
 4504TIP3   OH235070   2.178   5.099   7.382 -0.2986  0.2933 -0.8431
 4504TIP3    H135071   2.176   5.189   7.349  1.4622  0.6457 -0.0833
 4504TIP3    H235072   2.246   5.098   7.448  0.5175 -1.8629 -1.6005
 4505TIP3   OH235073   5.354   6.432   1.570  0.5788 -0.8514  0.8235
 4505TIP3    H135074   5.265   6.398   1.560  0.1223  0.5108 -0.0081
 4505TIP3    H235075   5.376   6.414   1.661 -2.0099  2.1001  2.1944
 4506TIP3   OH235076   6.359   6.594   1.596 -0.1207  0.2691 -0.6127
 4506TIP3    H135077   6.268   6.572   1.574 -0.7040  1.2026  0.7121
 4506TIP3    H235078   6.386   6.526   1.658 -0.0133  0.1831 -0.7511
 4507TIP3   OH235079   6.719   4.583   8.260 -0.6479 -0.0373 -0.1515
 4507TIP3    H135080   6.694   4.662   8.309  0.0238  1.4850 -2.1323
 4507TIP3    H235081   6.809   4.566   8.287 -0.9795 -0.5017  0.7052
 4508TIP3   OH235082   6.126   2.640   7.860 -0.6700 -0.1113 -0.1251
 4508TIP3    H135083   6.182   2.605   7.791  0.7346  0.4624  0.6736
 4508TIP3    H235084   6.075   2.709   7.817 -1.3922 -1.1781 -1.0477
 4509TIP3   OH235085   6.547   1.967   1.681 -0.3976 -0.0608 -0.0159
 4509TIP3    H135086   6.461   1.994   1.714 -0.3334 -0.2583  0.3118
 4509TIP3    H235087   6.551   1.873   1.697  0.3664  0.1490  1.0818
 4510TIP3   OH235088   6.141   2.569   7.011  0.3070  0.1289 -0.1134
 4510TIP3    H135089   6.159   2.524   6.929 -0.7235  0.8534 -0.7613
 4510TIP3    H235090   6.201   2.644   7.011 -0.8284  1.0794 -1.0344
 4511TIP3   OH235091   2.177   0.570   6.641 -0.2617 -0.0352  0.0619
 4511TIP3    H135092   2.107   0.540   6.583  0.0667  0.5152 -0.6356
 4511TIP3    H235093   2.254   0.578   6.584 -0.2187  1.6199  0.3034
 4512TIP3   OH235094   5.465   1.290   0.764 -0.2161  0.0062  0.3559
 4512TIP3    H135095   5.375   1.258   0.778 -0.9902  1.9467  0.1353
 4512TIP3    H235096   5.455   1.385   0.755  1.8909  0.2663  0.4010
 4513TIP3   OH235097   2.613   6.331   8.128  0.5717  0.4172 -0.0754
 4513TIP3    H135098   2.554   6.313   8.054  0.1249  0.3188  0.3022
 4513TIP3    H235099   2.666   6.252   8.136  0.6056  0.4186 -0.2787
 4514TIP3   OH235100   6.051   1.949   7.767  0.4578  0.1368 -0.3665
 4514TIP3    H135101   5.983   1.946   7.701  0.7333  0.2240 -0.6540
 4514TIP3    H235102   6.120   2.002   7.729  1.9509 -2.2887 -1.3027
 4515TIP3   OH235103   6.175   0.727   2.267  0.5190 -0.5147  0.0946
 4515TIP3    H135104   6.225   0.678   2.201  0.5750  0.2378 -0.4274
 4515TIP3    H235105   6.242   0.760   2.328  0.8346  1.4509 -1.2242
 4516TIP3   OH235106   2.587   0.388   7.150  0.1670  0.7154  0.5162
 4516TIP3    H135107   2.652   0.364   7.084  1.6315  1.5130  1.6179
 4516TIP3    H235108   2.509   0.409   7.099  0.4632 -1.0841 -0.7939
 4517TIP3   OH235109   0.253   1.411   1.465 -0.0699 -0.2415 -0.3378
 4517TIP3    H135110   0.185   1.427   1.400 -0.9013  0.9499  0.7756
 4517TIP3    H235111   0.333   1.442   1.423 -0.4015 -0.4994 -1.1910
 4518TIP3   OH235112   0.436   2.288   7.564 -0.8416 -0.0218  0.4115
 4518TIP3    H135113   0.474   2.247   7.487 -1.8527  0.0562 -0.1463
 4518TIP3    H235114   0.511   2.313   7.618 -0.1459 -0.5437 -0.3046
 4519TIP3   OH235115   5.384   5.033   7.642 -0.7282  0.3873 -0.0520
 4519TIP3    H135116   5.315   5.063   7.582 -2.2379  0.4302  1.6374
 4519TIP3    H235117   5.337   4.999   7.718  1.1108 -0.6982  0.6615
 4520TIP3   OH235118   4.381   4.283   0.981 -0.0332  0.2506 -0.5235
 4520TIP3    H135119   4.293   4.263   1.013 -0.0235 -0.3077 -0.8291
 4520TIP3    H235120   4.438   4.263   1.055 -0.0274 -0.8786 -0.8058
 4521TIP3   OH235121   2.713   2.908   0.425 -0.4078 -0.0061  0.4675
 4521TIP3    H135122   2.795   2.858   0.432 -0.9819 -1.0683 -0.2160
 4521TIP3    H235123   2.704   2.951   0.510  1.0601  0.4523  0.4177
 4522TIP3   OH235124   0.334   1.997   0.264 -0.1073 -0.3862 -0.2817
 4522TIP3    H135125   0.402   1.985   0.331  0.7839  1.9922 -0.6773
 4522TIP3    H235126   0.363   2.073   0.214 -3.0381  0.6804 -0.5172
 4523TIP3   OH235127   4.310   5.778   7.328  0.0409  0.0096 -0.2120
 4523TIP3    H135128   4.231   5.813   7.287 -0.4115  0.3287  0.8985
 4523TIP3    H235129   4.364   5.748   7.255 -0.0448  1.9764 -1.1379
 4524TIP3   OH235130   5.507   6.067   7.929  0.4741  0.3330 -0.2887
 4524TIP3    H135131   5.431   6.014   7.906 -0.0954  1.3064 -0.7293
 4524TIP3    H235132   5.497   6.147   7.877  1.5435  0.6855  0.0198
 4525TIP3   OH235133   5.411   4.395   6.971 -0.4092  0.2836 -0.3096
 4525TIP3    H135134   5.473   4.430   6.907  1.5114  0.3911  1.5453
 4525TIP3    H235135   5.428   4.301   6.972  0.8427  0.4940  1.2890
 4526TIP3   OH235136   3.054   3.259   0.498 -0.1905  0.5105  0.0423
 4526TIP3    H135137   2.986   3.243   0.433  0.4632  0.0655 -0.5527
 4526TIP3    H235138   3.085   3.347   0.478  0.3980  0.1614 -0.6310
 4527TIP3   OH235139   5.742   1.623   0.156 -0.0041  0.1384 -0.0818
 4527TIP3    H135140   5.775   1.677   0.228  0.7463 -1.0882  0.5185
 4527TIP3    H235141   5.806   1.636   0.086 -0.1079  0.4207 -0.1280
 4528TIP3   OH235142   3.926   3.780   7.769 -0.6129 -0.3841  0.4721
 4528TIP3    H135143   3.936   3.755   7.678 -0.7469 -2.0423  0.8920
 4528TIP3    H235144   3.999   3.737   7.814 -1.1119 -0.3884  1.2911
 4529TIP3   OH235145   6.675   5.120   7.993  0.0627  0.3125 -0.1464
 4529TIP3    H135146   6.631   5.172   8.059  2.3399  1.2242  0.7714
 4529TIP3    H235147   6.754   5.170   7.971 -0.5543  0.0244 -3.5604
 4530TIP3   OH235148   1.984   6.335   8.131  0.3487  0.4674 -0.0902
 4530TIP3    H135149   1.987   6.252   8.178  1.1839  1.0593  0.9506
 4530TIP3    H235150   1.891   6.354   8.120 -0.0171  1.4003  3.3868
 4531TIP3   OH235151   1.316   1.706   2.062  0.0544 -0.1023 -0.2120
 4531TIP3    H135152   1.380   1.758   2.015  0.2057 -0.2745 -0.1979
 4531TIP3    H235153   1.288   1.761   2.135  0.4381 -0.1630 -0.0203
 4532TIP3   OH235154   1.949   3.560   0.739  0.3067 -0.2882  0.1325
 4532TIP3    H135155   1.888   3.634   0.746  2.3123  1.7271 -1.8223
 4532TIP3    H235156   1.933   3.508   0.817  0.0753  3.2930  2.7205
 4533TIP3   OH235157   0.792   0.073   1.358 -0.4609  0.2634  0.0215
 4533TIP3    H135158   0.848   0.108   1.428  0.1955  0.4229 -0.5649
 4533TIP3    H235159   0.741   0.148   1.329  1.8182  1.1487 -2.0706
 4534TIP3   OH235160   5.251   1.305   7.811 -0.1552  0.6304 -0.0624
 4534TIP3    H135161   5.166   1.292   7.853 -0.8565  2.0996 -0.9687
 4534TIP3    H235162   5.276   1.217   7.782 -1.4116  0.1839  0.1345
 4535TIP3   OH235163   1.309   5.400   1.117  0.2735  0.0691  0.6178
 4535TIP3    H135164   1.309   5.355   1.201 -2.2002 -1.8678 -0.3061
 4535TIP3    H235165   1.385   5.365   1.071  1.3589  0.7789  1.7850
 4536TIP3   OH235166   5.286   0.266   1.313  0.8840 -0.0765  0.1312
 4536TIP3    H135167   5.314   0.212   1.240 -0.1016 -2.0618  1.1543
 4536TIP3    H235168   5.203   0.304   1.285  0.9024 -0.1946 -0.0824
 4537TIP3   OH235169   4.608   2.459   0.605 -0.4863 -0.1580  0.3314
 4537TIP3    H135170   4.667   2.524   0.566  1.9041 -1.9928  0.6274
 4537TIP3    H235171   4.602   2.485   0.697  0.9025 -0.6313  0.5714
 4538TIP3   OH235172   2.034   6.502   2.094  0.2713 -0.6330  0.7438
 4538TIP3    H135173   2.035   6.597   2.103  1.1883 -0.5120 -0.3273
 4538TIP3    H235174   2.127   6.478   2.089  0.0461 -1.2451 -1.8881
 4539TIP3   OH235175   4.741   4.498   0.783 -0.3937 -0.0547 -0.4173
 4539TIP3    H135176   4.766   4.540   0.865  0.1602  0.8022 -1.0081
 4539TIP3    H235177   4.651   4.468   0.798 -0.7774  1.2447  0.0820
 4540TIP3   OH235178   2.110   6.535   6.954 -0.1962 -0.1792 -0.0661
 4540TIP3    H135179   2.057   6.552   6.875 -0.3906  0.1720  0.1380
 4540TIP3    H235180   2.082   6.447   6.982 -2.5580  0.9462  1.4763
 4541TIP3   OH235181   4.610   0.105   1.540  0.1648  0.4112 -0.4706
 4541TIP3    H135182   4.515   0.120   1.542  0.4332  2.5679 -1.6044
 4541TIP3    H235183   4.634   0.089   1.631 -1.3019 -0.5143 -0.2051
 4542TIP3   OH235184   5.727   6.554   2.644 -0.2360 -0.6337  0.2003
 4542TIP3    H135185   5.642   6.581   2.608 -1.1313 -1.7967  1.3293
 4542TIP3    H235186   5.783   6.631   2.635 -1.5552  0.3152 -0.1537
 4543TIP3   OH235187   1.347   1.568   7.290  0.0180  0.5414 -0.6101
 4543TIP3    H135188   1.391   1.626   7.229  1.4687  0.5103  0.3484
 4543TIP3    H235189   1.314   1.626   7.359  0.5472  0.3347 -0.1821
 4544TIP3   OH235190   1.621   5.896   8.655 -1.1963 -0.6346 -0.4615
 4544TIP3    H135191   1.690   5.832   8.636 -3.6198 -3.8241  0.6294
 4544TIP3    H235192   1.576   5.908   8.572 -0.1143  0.6440 -0.9217
 4545TIP3   OH235193   6.127   0.226   8.336 -0.7189 -0.0412 -0.1158
 4545TIP3    H135194   6.135   0.256   8.426 -1.6674 -2.8376  1.0273
 4545TIP3    H235195   6.211   0.185   8.316 -0.9876 -0.6872  0.0471
 4546TIP3   OH235196   1.634   3.379   8.172  0.3384 -0.1858  0.5037
 4546TIP3    H135197   1.686   3.302   8.196  1.8698  0.3563 -0.9244
 4546TIP3    H235198   1.673   3.451   8.220  0.4022  0.0955  0.0355
 4547TIP3   OH235199   6.020   6.857   7.711 -0.0856  0.2031  0.2148
 4547TIP3    H135200   6.074   6.859   7.631 -0.5008  1.4220 -0.0601
 4547TIP3    H235201   5.938   6.816   7.683 -0.8119  1.9580 -0.4169
 4548TIP3   OH235202   3.183   5.139   0.825  0.2191  0.6737  0.5119
 4548TIP3    H135203   3.210   5.230   0.839 -0.6793  0.9661  0.4614
 4548TIP3    H235204   3.157   5.136   0.732 -4.3418  1.7250  1.4710
 4549TIP3   OH235205   4.154   1.973   8.589 -0.5838 -0.0596 -0.3193
 4549TIP3    H135206   4.114   1.967   8.676  0.3536  0.4603  0.1513
 4549TIP3    H235207   4.093   1.926   8.532 -0.5747 -1.5281  0.8268
 4550TIP3   OH235208   0.240   4.991   8.368  0.3712 -0.2602 -0.5372
 4550TIP3    H135209   0.152   4.953   8.370 -0.6135  1.9049 -0.4762
 4550TIP3    H235210   0.245   5.035   8.283 -0.3950  3.4682  1.1564
 4551TIP3   OH235211   5.857   6.752   2.511 -0.0304  0.5400 -0.3870
 4551TIP3    H135212   5.934   6.809   2.518 -2.1374  3.5898 -0.1487
 4551TIP3    H235213   5.883   6.685   2.448  3.2722  0.5456  0.7618
 4552TIP3   OH235214   2.740   6.433   7.861 -0.1239 -0.3170 -0.2376
 4552TIP3    H135215   2.706   6.349   7.828  0.0801 -0.8164  0.7947
 4552TIP3    H235216   2.669   6.494   7.847 -0.4848 -0.7839 -0.4922
 4553TIP3   OH235217   2.165   0.808   0.263 -0.3075  0.1345 -0.3711
 4553TIP3    H135218   2.246   0.757   0.268 -0.4105 -0.3367 -2.3919
 4553TIP3    H235219   2.189   0.887   0.214  0.0255  2.5482  3.3516
 4554TIP3   OH235220   0.215   3.750   7.653 -0.4326  0.0017  0.5114
 4554TIP3    H135221   0.249   3.680   7.597 -1.4886  0.2352 -0.4610
 4554TIP3    H235222   0.169   3.809   7.593  1.3839  2.1835  1.1311
 4555TIP3   OH235223   0.359   3.685   7.872  0.0756 -0.0650 -0.2212
 4555TIP3    H135224   0.294   3.689   7.803 -1.2265  0.4066  0.9853
 4555TIP3    H235225   0.434   3.734   7.838 -0.7257  0.5721 -1.0861
 4556TIP3   OH235226   1.740   6.848   7.484 -0.3625  0.3985  0.4057
 4556TIP3    H135227   1.707   6.935   7.464 -1.3587 -0.0136  0.2183
 4556TIP3    H235228   1.662   6.794   7.497  0.1483 -1.0376 -1.9051
 4557TIP3   OH235229   4.310   1.096   8.206  0.1597  0.6654  0.4141
 4557TIP3    H135230   4.224   1.063   8.179  0.2597  0.7079  0.0344
 4557TIP3    H235231   4.314   1.078   8.300  1.2282 -2.7969 -0.1305
 4558TIP3   OH235232   3.020   2.957   8.258  0.1078 -0.1397 -0.0622
 4558TIP3    H135233   3.031   3.030   8.319  0.6316 -0.6957  0.5174
 4558TIP3    H235234   2.978   2.996   8.181 -0.9632  0.4875  0.8151
 4559TIP3   OH235235   0.305   1.738   1.001 -0.1703 -0.9368  0.0598
 4559TIP3    H135236   0.369   1.746   1.072 -0.7993 -0.2375  0.5600
 4559TIP3    H235237   0.221   1.726   1.045 -1.0491  2.5107 -0.3906
 4560TIP3   OH235238   5.431   0.265   7.988 -0.0743 -0.0554  0.4117
 4560TIP3    H135239   5.416   0.347   8.036  0.2541 -1.0333  2.2876
 4560TIP3    H235240   5.350   0.215   8.001  0.3483 -0.6735  0.6821
 4561TIP3   OH235241   6.201   2.712   6.613 -0.2889 -0.3595 -0.3098
 4561TIP3    H135242   6.173   2.710   6.521  1.3839 -1.5762 -0.8408
 4561TIP3    H235243   6.293   2.736   6.609 -0.1921 -0.4585  1.0599
 4562TIP3   OH235244   6.286   5.627   8.267  0.1506 -0.2597 -0.6297
 4562TIP3    H135245   6.331   5.543   8.273  1.3207  0.4416  1.4518
 4562TIP3    H235246   6.346   5.684   8.219 -0.3704 -0.4056 -1.4844
 4563TIP3   OH235247   3.305   4.939   0.665 -0.4472 -0.3769  0.0473
 4563TIP3    H135248   3.266   4.983   0.741 -1.2911 -1.2664  0.1576
 4563TIP3    H235249   3.247   4.961   0.592 -1.6099 -2.2393  0.3386
 4564TIP3   OH235250   2.837   0.412   7.711  0.1412 -0.2114  0.7006
 4564TIP3    H135251   2.758   0.440   7.758 -0.0225 -0.0925  0.3645
 4564TIP3    H235252   2.859   0.327   7.748  0.1966  0.0217  1.2044
 4565TIP3   OH235253   3.984   1.515   1.811 -0.5292  1.0152  0.2937
 4565TIP3    H135254   4.044   1.564   1.754  0.4050  0.4395  0.7415
 4565TIP3    H235255   3.983   1.565   1.893 -0.2739  0.7769  0.4462
 4566TIP3   OH235256   1.484   1.821   1.135 -0.2553 -0.2476 -0.1406
 4566TIP3    H135257   1.485   1.757   1.064 -1.9853 -0.0518 -0.3912
 4566TIP3    H235258   1.534   1.895   1.102 -0.8783 -0.2420 -1.1015
 4567TIP3   OH235259   1.450   3.924   8.101 -0.2736  0.0810 -0.1010
 4567TIP3    H135260   1.368   3.895   8.142  0.1611 -1.5433 -0.3330
 4567TIP3    H235261   1.506   3.948   8.175 -0.8055  0.8241  0.0725
 4568TIP3   OH235262   2.673   5.269   0.758 -0.1104 -0.2582 -0.3480
 4568TIP3    H135263   2.711   5.281   0.671  0.7734 -0.0136  0.0646
 4568TIP3    H235264   2.587   5.312   0.753 -0.5543 -1.2085 -1.4257
 4569TIP3   OH235265   3.493   2.680   1.247  0.3433  0.0478  0.3904
 4569TIP3    H135266   3.492   2.754   1.186  1.0422  0.9286  1.3965
 4569TIP3    H235267   3.536   2.609   1.199  2.0266  1.1029  0.2548
 4570TIP3   OH235268   1.091   3.669   2.598 -0.4655  0.1133  0.6691
 4570TIP3    H135269   1.137   3.721   2.532  0.0994 -1.9072 -0.6203
 4570TIP3    H235270   1.161   3.631   2.652 -0.8188  0.1394  1.1465
 4571TIP3   OH235271   2.659   6.540   1.446 -0.8171  0.3017 -0.2844
 4571TIP3    H135272   2.569   6.515   1.428 -0.7113 -1.6215  1.5867
 4571TIP3    H235273   2.653   6.631   1.475 -2.1131  0.2552 -0.3516
 4572TIP3   OH235274   1.928   4.098   8.688  1.0005 -0.2946 -0.0093
 4572TIP3    H135275   1.968   4.179   8.720 -0.0103  0.2559 -0.1141
 4572TIP3    H235276   1.890   4.122   8.603 -0.2386 -0.5917  0.4422
 4573TIP3   OH235277   6.837   3.151   0.879  0.2814 -0.4834 -0.5583
 4573TIP3    H135278   6.865   3.095   0.806 -0.6304 -1.6507 -0.0473
 4573TIP3    H235279   6.745   3.128   0.892  0.2627  0.1866  0.5369
 4574TIP3   OH235280   4.651   5.023   0.970  0.2269  0.6743  0.4255
 4574TIP3    H135281   4.700   4.995   0.893 -1.0507 -1.1031  0.2005
 4574TIP3    H235282   4.692   4.977   1.043 -0.4658 -0.0598  0.3661
 4575TIP3   OH235283   1.060   2.359   1.291  0.4692 -0.4531 -0.2649
 4575TIP3    H135284   1.086   2.321   1.375  1.9449 -0.0015 -0.4830
 4575TIP3    H235285   0.996   2.298   1.256 -1.0773 -0.0600  1.7031
 4576TIP3   OH235286   1.301   1.851   6.899 -0.5604  0.3308  0.1250
 4576TIP3    H135287   1.224   1.814   6.941 -0.6676  1.1768  0.6867
 4576TIP3    H235288   1.295   1.945   6.915  0.2807  0.4729 -0.3305
 4577TIP3   OH235289   3.657   0.984   1.992 -0.1489 -0.7188  0.0652
 4577TIP3    H135290   3.590   0.964   1.927  0.1444  0.5287 -0.6471
 4577TIP3    H235291   3.673   1.077   1.982  0.2704 -0.6061  1.5968
 4578TIP3   OH235292   2.170   4.049   0.592 -0.3842 -0.2316 -0.2450
 4578TIP3    H135293   2.153   4.143   0.581 -0.4766 -0.0453  1.2692
 4578TIP3    H235294   2.253   4.045   0.639 -0.3283 -0.9159 -0.3966
 4579TIP3   OH235295   2.996   0.965   2.608  0.0816 -0.0941 -0.1517
 4579TIP3    H135296   3.087   0.939   2.624  0.1947  0.2194 -0.2877
 4579TIP3    H235297   2.985   1.045   2.659  0.0391  0.1586 -0.5598
 4580TIP3   OH235298   1.540   6.407   8.620 -0.4478  0.6183  0.6842
 4580TIP3    H135299   1.536   6.452   8.536 -2.6483  0.2980  0.5659
 4580TIP3    H235300   1.621   6.439   8.661  0.2925  1.2981 -1.2361
 4581TIP3   OH235301   6.029   5.099   8.373 -0.4565 -0.8314 -0.1415
 4581TIP3    H135302   6.000   5.111   8.282 -1.2811 -0.5099  0.1522
 4581TIP3    H235303   6.047   5.188   8.403  0.7683 -1.0135 -0.2784
 4582TIP3   OH235304   6.855   3.158   0.259  0.4211  0.6995  0.0343
 4582TIP3    H135305   6.808   3.076   0.242  0.9110  0.3071  0.5446
 4582TIP3    H235306   6.805   3.200   0.329  0.3342  0.7022 -0.0289
 4583TIP3   OH235307   3.956   4.925   0.158 -0.6454  0.2740  0.0372
 4583TIP3    H135308   4.041   4.889   0.182 -0.3207  0.1689 -1.1658
 4583TIP3    H235309   3.946   5.002   0.213  0.7620  0.9443 -0.5965
 4584TIP3   OH235310   0.483   0.333   2.117 -0.2917  0.2444 -0.1883
 4584TIP3    H135311   0.537   0.258   2.141  0.6587  0.5554 -1.2691
 4584TIP3    H235312   0.523   0.407   2.162  0.0603  0.4361 -0.8021
 4585TIP3   OH235313   1.674   2.218   6.894 -0.0466  0.1000  0.5979
 4585TIP3    H135314   1.595   2.272   6.893  0.0708  0.2615  0.0089
 4585TIP3    H235315   1.744   2.277   6.867 -0.1581 -0.7197 -1.6267
 4586TIP3   OH235316   6.610   6.005   8.226  0.2207  0.2659 -0.1197
 4586TIP3    H135317   6.653   6.044   8.303 -0.1393  0.2450  0.0972
 4586TIP3    H235318   6.628   6.066   8.155  1.4100 -0.2142 -0.2512
 4587TIP3   OH235319   1.097   1.938   1.268 -0.3541  0.8619 -0.0522
 4587TIP3    H135320   1.071   1.870   1.205 -0.5570  0.7289  0.1720
 4587TIP3    H235321   1.034   2.009   1.254 -0.0634  1.0553 -0.3743
 4588TIP3   OH235322   2.511   1.345   7.636  0.1471 -0.6137 -0.2332
 4588TIP3    H135323   2.433   1.399   7.621  0.3789 -0.2337 -0.0828
 4588TIP3    H235324   2.498   1.269   7.581  0.0856 -0.1296 -0.8987
 4589TIP3   OH235325   6.780   2.324   6.976  0.1568 -0.1096 -0.4756
 4589TIP3    H135326   6.702   2.285   6.938  0.2383  0.3309 -1.1122
 4589TIP3    H235327   6.827   2.362   6.901  0.1921  1.0042  0.0819
 4590TIP3   OH235328   2.123   4.739   7.803 -0.3702  0.4690 -0.2027
 4590TIP3    H135329   2.135   4.827   7.839 -1.2779  0.2705  0.6345
 4590TIP3    H235330   2.173   4.739   7.722  0.0070  1.6150  0.0134
 4591TIP3   OH235331   2.946   1.467   1.344 -0.5393  0.3800  0.5664
 4591TIP3    H135332   2.894   1.429   1.273  1.7548 -0.3708 -0.7881
 4591TIP3    H235333   2.981   1.548   1.309  0.9315 -0.1875  0.6805
 4592TIP3   OH235334   3.162   5.057   1.268  0.2469  0.2260  0.1623
 4592TIP3    H135335   3.222   4.997   1.313  1.1711 -0.5571 -2.0165
 4592TIP3    H235336   3.182   5.046   1.175 -2.1643  1.1879 -0.5288
 4593TIP3   OH235337   2.532   1.477   6.677 -0.4468  0.3418 -0.0781
 4593TIP3    H135338   2.468   1.446   6.740  0.6607 -0.7141  0.5801
 4593TIP3    H235339   2.606   1.507   6.730  0.6030 -0.7811 -0.8288
 4594TIP3   OH235340   2.263   1.908   7.726 -0.7754 -0.3590  0.6221
 4594TIP3    H135341   2.198   1.919   7.795 -0.9359  0.7045  0.3165
 4594TIP3    H235342   2.225   1.842   7.667 -0.4418 -1.5975  1.7455
 4595TIP3   OH235343   6.543   0.520   1.823 -0.3950 -0.0414  0.2324
 4595TIP3    H135344   6.632   0.537   1.854 -0.3261 -0.5323  0.3109
 4595TIP3    H235345   6.520   0.599   1.775  0.4831 -0.3256 -0.6974
 4596TIP3   OH235346   0.820   0.731   7.487 -0.0410  0.5554  0.4604
 4596TIP3    H135347   0.910   0.762   7.471 -0.9018  2.2878 -1.5027
 4596TIP3    H235348   0.764   0.801   7.454 -2.1573 -1.9752 -1.8617
 4597TIP3   OH235349   6.121   5.330   8.491 -0.8503 -0.4628  0.3945
 4597TIP3    H135350   6.076   5.415   8.487 -2.6753 -1.3994  0.2392
 4597TIP3    H235351   6.148   5.322   8.582  2.1111  1.5948 -0.1509
 4598TIP3   OH235352   4.511   2.093   7.879 -0.7600  0.0298  0.5122
 4598TIP3    H135353   4.447   2.154   7.841 -0.5042 -0.3685 -0.6089
 4598TIP3    H235354   4.499   2.012   7.829  0.3123 -0.1808  0.5760
 4599TIP3   OH235355   4.255   1.900   0.433 -0.1491  0.4513  0.2985
 4599TIP3    H135356   4.235   1.964   0.501 -0.9891  1.5884 -0.9699
 4599TIP3    H235357   4.186   1.834   0.440  0.0730  0.2730  0.8698
 4600TIP3   OH235358   1.731   6.649   0.931  0.5947 -0.5765 -0.0410
 4600TIP3    H135359   1.705   6.741   0.924  1.3670 -0.4291 -1.2337
 4600TIP3    H235360   1.719   6.614   0.842 -2.4345 -2.4124  0.9341
 4601TIP3   OH235361   0.926   2.384   6.206 -0.5763 -0.1161 -0.5980
 4601TIP3    H135362   0.913   2.462   6.260 -1.6109  0.1581 -1.2087
 4601TIP3    H235363   0.879   2.315   6.253  3.1475 -1.3221  1.7925
 4602TIP3   OH235364   5.280   4.590   6.705  0.1824 -0.2624 -0.2393
 4602TIP3    H135365   5.248   4.500   6.710 -0.3769 -0.1080 -0.9883
 4602TIP3    H235366   5.214   4.637   6.655  0.4911  0.5613  0.1092
 4603TIP3   OH235367   1.999   4.023   1.154 -0.0269 -0.0540  0.2097
 4603TIP3    H135368   2.057   3.965   1.205 -0.4246 -0.7554 -0.1220
 4603TIP3    H235369   2.057   4.092   1.122  0.3320  0.1072  1.1681
 4604TIP3   OH235370   3.787   4.704   7.688  0.3694  0.2699 -0.0650
 4604TIP3    H135371   3.709   4.650   7.701  1.0463 -0.4246  1.2450
 4604TIP3    H235372   3.753   4.789   7.659 -0.9113  0.1300  0.9486
 4605TIP3   OH235373   4.258   1.402   1.232  0.1440  0.0678 -0.9201
 4605TIP3    H135374   4.293   1.489   1.211 -1.4508  0.9308 -0.1909
 4605TIP3    H235375   4.197   1.382   1.162 -0.5662  0.1992 -0.3546
 4606TIP3   OH235376   0.852   6.420   7.658  0.1717  0.4898  0.5762
 4606TIP3    H135377   0.820   6.499   7.702  1.8866  0.2093  2.4791
 4606TIP3    H235378   0.863   6.356   7.729  2.0042 -0.3660 -0.4281
 4607TIP3   OH235379   5.560   4.402   7.683 -0.2672  0.4648 -0.6487
 4607TIP3    H135380   5.485   4.456   7.709 -0.3696 -0.5692  1.3918
 4607TIP3    H235381   5.632   4.433   7.737 -0.3993 -1.5618  0.7924
 4608TIP3   OH235382   4.281   3.117   0.531 -0.4352  0.6351 -0.1284
 4608TIP3    H135383   4.357   3.126   0.473  0.2091 -0.9801  0.4217
 4608TIP3    H235384   4.276   3.201   0.575 -0.8426  1.8768 -2.3628
 4609TIP3   OH235385   5.734   0.896   7.154 -0.1603  0.4253  0.3908
 4609TIP3    H135386   5.815   0.947   7.147 -1.2562  2.2817  0.5046
 4609TIP3    H235387   5.755   0.811   7.116  1.2024  1.6175 -1.7119
 4610TIP3   OH235388   1.078   4.085   2.170 -0.0122 -0.0977  0.3033
 4610TIP3    H135389   0.986   4.083   2.195  0.2152 -0.0893  1.1697
 4610TIP3    H235390   1.111   3.998   2.195  0.2092 -0.1025 -0.0053
 4611TIP3   OH235391   4.098   2.257   8.414 -0.2278 -0.4989  0.3331
 4611TIP3    H135392   4.130   2.223   8.497 -0.7753 -0.0512  0.7289
 4611TIP3    H235393   4.015   2.212   8.400 -0.1128 -0.6114 -0.0000
 4612TIP3   OH235394   0.672   4.517   8.511  0.6051  0.1878 -0.3376
 4612TIP3    H135395   0.751   4.543   8.559  0.3936  0.8445 -0.3375
 4612TIP3    H235396   0.612   4.486   8.579 -0.2436  2.4600  0.0638
 4613TIP3   OH235397   1.988   4.016   6.733  0.0095  0.3007 -0.0699
 4613TIP3    H135398   1.992   3.924   6.760 -1.4892 -0.2545 -1.5983
 4613TIP3    H235399   2.075   4.034   6.697  0.5855 -0.2511  0.9997
 4614TIP3   OH235400   5.716   1.823   7.822  0.0199  0.1319 -0.1737
 4614TIP3    H135401   5.801   1.797   7.788  0.2804  0.6612  0.0632
 4614TIP3    H235402   5.682   1.885   7.758  0.4942  1.0983  0.4859
 4615TIP3   OH235403   6.820   5.544   7.857  0.2871  0.0492 -0.1863
 4615TIP3    H135404   6.760   5.572   7.927  0.6571  0.9814 -0.2204
 4615TIP3    H235405   6.790   5.456   7.834  0.7561 -0.6977  1.8132
 4616TIP3   OH235406   3.296   4.676   8.502 -0.1141  0.2504  0.2514
 4616TIP3    H135407   3.201   4.681   8.513 -0.1711 -1.5771  0.9860
 4616TIP3    H235408   3.332   4.693   8.589  0.2486  0.9554 -0.0264
 4617TIP3   OH235409   4.196   1.783   2.354 -0.1626  0.1285 -0.2541
 4617TIP3    H135410   4.168   1.700   2.392 -1.3239  0.4829 -0.2931
 4617TIP3    H235411   4.115   1.830   2.337  0.4474  0.9830 -0.8992
 4618TIP3   OH235412   3.233   0.660   7.316 -0.1255 -0.0999  0.7824
 4618TIP3    H135413   3.222   0.589   7.379  0.0095  0.2710  1.2284
 4618TIP3    H235414   3.147   0.669   7.276 -0.2077 -0.3522  0.8993
 4619TIP3   OH235415   3.402   6.239   0.853  0.3943  0.4602 -0.7360
 4619TIP3    H135416   3.391   6.231   0.948 -1.6267  1.2913 -0.8594
 4619TIP3    H235417   3.320   6.206   0.816 -0.0453  2.7898 -2.0535
 4620TIP3   OH235418   4.729   2.196   0.805  0.1504  0.6394  0.2287
 4620TIP3    H135419   4.633   2.191   0.809  0.0411 -0.8791 -1.9353
 4620TIP3    H235420   4.757   2.104   0.807  1.7181  1.0941  2.2825
 4621TIP3   OH235421   5.876   0.174   1.680  0.0792 -0.4589  0.1380
 4621TIP3    H135422   5.810   0.240   1.657  1.2598  2.2047  3.5061
 4621TIP3    H235423   5.958   0.207   1.643  0.0783 -2.4903 -1.9238
 4622TIP3   OH235424   0.274   1.954   2.535  0.8680 -0.3468  0.5470
 4622TIP3    H135425   0.342   1.889   2.517  0.7107 -0.8628  1.7157
 4622TIP3    H235426   0.302   2.032   2.487  1.8450 -0.8194  0.3284
 4623TIP3   OH235427   1.178   4.378   0.251  0.5402  0.0756  0.0369
 4623TIP3    H135428   1.212   4.362   0.163 -0.2942  1.1453 -0.5105
 4623TIP3    H235429   1.256   4.379   0.307  1.4080  1.8780 -1.0890
 4624TIP3   OH235430   5.290   3.793   2.162  0.1856 -0.3584  0.4272
 4624TIP3    H135431   5.352   3.721   2.164  0.8373  0.1985  0.6956
 4624TIP3    H235432   5.264   3.800   2.070  1.9362  0.5707 -0.0380
 4625TIP3   OH235433   2.230   3.403   0.232 -0.3343 -0.0043 -0.2245
 4625TIP3    H135434   2.283   3.475   0.267  0.7227 -1.0039  0.2940
 4625TIP3    H235435   2.254   3.399   0.139  2.2265 -1.8086  0.4102
 4626TIP3   OH235436   2.075   1.809   1.657 -0.1697 -0.4069  0.6244
 4626TIP3    H135437   2.050   1.737   1.598 -0.3753 -1.5770  2.0826
 4626TIP3    H235438   2.108   1.877   1.599 -1.7292 -0.9266 -0.9642
 4627TIP3   OH235439   4.031   0.925   7.523  0.0930  0.2212 -0.2937
 4627TIP3    H135440   4.051   0.879   7.605 -1.8421 -1.4534 -0.6908
 4627TIP3    H235441   4.042   1.018   7.545 -0.4124 -0.1836  1.8986
 4628TIP3   OH235442   3.117   0.927   8.527  0.0386  0.0115 -0.1154
 4628TIP3    H135443   3.093   0.834   8.530 -0.3759  0.1124 -0.2212
 4628TIP3    H235444   3.212   0.927   8.540 -0.0299 -0.3872  0.4480
 4629TIP3   OH235445   2.746   6.245   0.478  0.0254 -0.4052  0.0401
 4629TIP3    H135446   2.694   6.221   0.554 -0.3185 -0.3823 -0.1836
 4629TIP3    H235447   2.810   6.175   0.469  0.2467 -0.2623  0.5176
 4630TIP3   OH235448   4.604   3.966   8.626 -0.5863  0.1849 -0.2946
 4630TIP3    H135449   4.560   3.997   8.706  1.2022 -2.5158  1.9315
 4630TIP3    H235450   4.594   3.871   8.629  1.4415 -0.1513 -2.1200
 4631TIP3   OH235451   0.104   1.409   6.909 -0.1383  0.0773  0.3219
 4631TIP3    H135452   0.041   1.341   6.885 -0.0147  0.1544 -0.2513
 4631TIP3    H235453   0.062   1.457   6.980 -0.4857 -0.2212  0.3206
 4632TIP3   OH235454   3.137   5.602   1.616  0.1035 -0.0896 -0.2862
 4632TIP3    H135455   3.113   5.626   1.527 -1.7707 -0.6645  0.0204
 4632TIP3    H235456   3.151   5.686   1.660  1.9850  0.1858 -1.3177
 4633TIP3   OH235457   5.528   4.803   1.370 -0.1291  0.2930  0.1862
 4633TIP3    H135458   5.471   4.802   1.447  0.9844 -0.0504  1.0425
 4633TIP3    H235459   5.479   4.852   1.304 -2.1230 -1.4344  0.2997
 4634TIP3   OH235460   3.303   3.298   8.446 -0.6192  0.9679 -0.0554
 4634TIP3    H135461   3.233   3.361   8.463 -0.6649  1.5783 -2.1968
 4634TIP3    H235462   3.375   3.351   8.411  0.1734  0.0952  0.2138
 4635TIP3   OH235463   0.676   5.807   8.092 -0.4859  0.0245 -0.4707
 4635TIP3    H135464   0.684   5.711   8.088  0.2567 -0.1712  2.6827
 4635TIP3    H235465   0.751   5.840   8.043 -0.2209 -1.0505 -0.8182
 4636TIP3   OH235466   4.419   5.641   0.121 -0.3927  0.0992 -0.2072
 4636TIP3    H135467   4.416   5.710   0.055 -0.0229 -1.6602 -2.1969
 4636TIP3    H235468   4.346   5.584   0.098 -0.1387 -0.6596  0.8094
 4637TIP3   OH235469   4.339   5.874   3.072 -0.1751  0.0061  0.4121
 4637TIP3    H135470   4.252   5.905   3.096 -0.7752 -2.3802  1.6756
 4637TIP3    H235471   4.332   5.851   2.980  0.3309  3.4142 -0.6256
 4638TIP3   OH235472   5.813   4.340   8.700  0.6182 -0.6518 -0.2174
 4638TIP3    H135473   5.809   4.255   8.744  0.2990 -0.8366 -0.6022
 4638TIP3    H235474   5.737   4.388   8.733  1.8822  0.2473  1.5404
 4639TIP3   OH235475   2.161   0.392   0.144  0.0138  0.5822  0.2996
 4639TIP3    H135476   2.217   0.469   0.135  0.9603 -0.1808 -0.6533
 4639TIP3    H235477   2.138   0.368   0.054  0.2372 -0.5829  0.5265
 4640TIP3   OH235478   5.337   4.164   0.172  0.1025  0.3791 -0.2598
 4640TIP3    H135479   5.368   4.149   0.082  0.2947 -0.1253 -0.1161
 4640TIP3    H235480   5.356   4.081   0.217  0.4621  0.7996  0.3697
 4641TIP3   OH235481   0.307   5.165   0.506  0.3595  0.5074 -0.5173
 4641TIP3    H135482   0.374   5.158   0.439  3.2304 -0.6494  2.2468
 4641TIP3    H235483   0.354   5.157   0.589 -3.0249  1.2261  1.6912
 4642TIP3   OH235484   2.602   4.173   1.009 -0.0973 -0.0637  0.2594
 4642TIP3    H135485   2.695   4.155   0.996  0.0361  0.7088  0.1201
 4642TIP3    H235486   2.591   4.265   0.987 -0.3343  0.7284  3.2989
 4643TIP3   OH235487   0.337   4.972   7.539 -0.2987 -0.5833  0.4225
 4643TIP3    H135488   0.416   5.022   7.561  0.0177 -0.2089 -1.3466
 4643TIP3    H235489   0.365   4.912   7.470 -1.2911 -1.3338  0.6509
 4644TIP3   OH235490   5.723   6.589   1.980 -0.0289 -0.0229  0.3855
 4644TIP3    H135491   5.758   6.585   2.069 -1.4787 -0.6070  0.9452
 4644TIP3    H235492   5.637   6.630   1.989 -1.3445 -2.4164 -0.3417
 4645TIP3   OH235493   4.378   2.472   0.978 -0.2311 -0.1972  0.1327
 4645TIP3    H135494   4.377   2.536   1.049 -0.0867 -1.3076  1.1706
 4645TIP3    H235495   4.452   2.498   0.923  0.6403 -0.2135  1.2625
 4646TIP3   OH235496   2.641   3.463   8.314  0.8552  0.0707  0.6153
 4646TIP3    H135497   2.615   3.552   8.291 -0.1965 -0.6096 -1.0034
 4646TIP3    H235498   2.569   3.408   8.282  2.7619 -1.6083 -1.0720
 4647TIP3   OH235499   3.433   1.064   1.060 -0.1365 -0.1344  0.3591
 4647TIP3    H135500   3.522   1.099   1.069 -0.0006 -0.0890 -0.9375
 4647TIP3    H235501   3.387   1.127   1.004 -1.1498  0.1072  1.4343
 4648TIP3   OH235502   4.514   1.967   8.200  0.5462  0.0793  0.3181
 4648TIP3    H135503   4.465   2.012   8.268  0.8967 -1.5679  1.7254
 4648TIP3    H235504   4.483   2.006   8.118 -1.2775  0.7974  1.3022
 4649TIP3   OH235505   4.232   4.319   2.932  0.4365 -0.6198  0.2075
 4649TIP3    H135506   4.218   4.397   2.878 -2.8282  1.3933  3.5266
 4649TIP3    H235507   4.172   4.254   2.895 -0.5174  0.1545  0.3651
 4650TIP3   OH235508   2.354   1.704   6.769 -0.1687 -0.1387 -0.1802
 4650TIP3    H135509   2.425   1.739   6.822 -0.3511 -1.7124  1.1823
 4650TIP3    H235510   2.390   1.698   6.681 -0.3768  4.1043 -0.7747
 4651TIP3   OH235511   0.048   6.230   7.878 -0.2034  0.3879 -0.3221
 4651TIP3    H135512   0.117   6.244   7.813 -0.7123  0.6151 -0.8211
 4651TIP3    H235513  -0.004   6.310   7.875 -0.1661  0.4504  0.4565
 4652TIP3   OH235514   4.696   2.301   0.152  0.4805 -0.1488  0.7006
 4652TIP3    H135515   4.775   2.290   0.099 -0.5429  2.1405 -1.5218
 4652TIP3    H235516   4.728   2.337   0.235  1.8109  0.8059 -0.1737
 4653TIP3   OH235517   6.775   3.883   6.846 -0.0635 -0.6786 -0.4035
 4653TIP3    H135518   6.787   3.978   6.848  0.6618 -0.7581 -0.7999
 4653TIP3    H235519   6.863   3.847   6.832 -0.6018 -1.3024 -2.7565
 4654TIP3   OH235520   1.980   4.405   2.663 -0.5547  0.4975 -0.2235
 4654TIP3    H135521   1.994   4.337   2.597 -0.0356 -0.4518  0.8292
 4654TIP3    H235522   1.888   4.429   2.654 -0.6891 -0.1900 -0.7559
 4655TIP3   OH235523   4.895   3.462   2.253 -0.1821 -0.6255 -0.2596
 4655TIP3    H135524   4.946   3.542   2.246  1.4421 -1.7188 -1.5087
 4655TIP3    H235525   4.951   3.401   2.301 -0.5119 -1.6880 -1.1887
 4656TIP3   OH235526   4.131   4.499   7.008 -0.6853  0.1532 -0.1889
 4656TIP3    H135527   4.043   4.460   7.004 -0.9582  0.7661 -0.3017
 4656TIP3    H235528   4.119   4.588   6.976 -0.4870  1.0435  2.0285
 4657TIP3   OH235529   1.676   6.410   1.443 -0.4573 -0.1999  0.1874
 4657TIP3    H135530   1.671   6.322   1.481 -0.9609 -0.0064  0.5791
 4657TIP3    H235531   1.587   6.446   1.454 -1.3123 -0.9415 -3.1324
 4658TIP3   OH235532   1.546   4.258   0.760 -0.3133 -0.3712  0.2862
 4658TIP3    H135533   1.566   4.333   0.816 -0.4985  0.1704 -0.3630
 4658TIP3    H235534   1.563   4.290   0.671  0.7442 -1.4523  0.0690
 4659TIP3   OH235535   0.181   4.299   0.241 -0.6008 -0.4570  0.0621
 4659TIP3    H135536   0.100   4.321   0.287  0.0487 -0.4817  1.2680
 4659TIP3    H235537   0.241   4.271   0.311  0.5708 -0.0554 -0.7485
 4660TIP3   OH235538   0.592   3.977   0.516 -0.4914  0.0405  0.0977
 4660TIP3    H135539   0.677   3.955   0.478 -0.0605 -1.7672  1.9223
 4660TIP3    H235540   0.560   3.894   0.552 -1.5993  1.2857  2.1372
 4661TIP3   OH235541   2.160   1.449   6.707 -0.8184  0.6469 -0.0721
 4661TIP3    H135542   2.231   1.511   6.724  0.2088 -0.8657  1.5034
 4661TIP3    H235543   2.115   1.440   6.790  0.0864 -1.8816  0.2389
 4662TIP3   OH235544   0.144   0.767   8.643  0.1796 -0.2401 -0.0067
 4662TIP3    H135545   0.117   0.782   8.552 -0.5535 -0.5019  0.1640
 4662TIP3    H235546   0.234   0.734   8.635  1.8113  3.7197 -0.4277
 4663TIP3   OH235547   2.981   2.495   0.629  0.1927  0.0080  0.7501
 4663TIP3    H135548   3.058   2.440   0.610  0.9461  2.0840 -3.4664
 4663TIP3    H235549   3.018   2.582   0.645 -1.1758  0.1603  3.7810
 4664TIP3   OH235550   1.344   0.994   1.272  0.2776  0.1667  0.4618
 4664TIP3    H135551   1.426   1.034   1.242  0.7925 -1.5573 -0.5688
 4664TIP3    H235552   1.280   1.016   1.203 -0.4781  2.4040  1.7635
 4665TIP3   OH235553   0.913   5.048   7.841 -0.1627 -0.3552  0.0950
 4665TIP3    H135554   0.822   5.018   7.844  0.2108 -1.5396  0.1813
 4665TIP3    H235555   0.933   5.054   7.747 -0.4051  0.1607  0.0744
 4666TIP3   OH235556   2.323   1.708   1.824 -0.8063  0.7426  0.1414
 4666TIP3    H135557   2.292   1.618   1.836 -1.8415  1.0344 -0.3107
 4666TIP3    H235558   2.284   1.736   1.742  1.8597  0.6044 -1.3144
 4667TIP3   OH235559   2.483   3.964   0.396 -0.0973 -0.2065 -0.2946
 4667TIP3    H135560   2.527   4.041   0.430  0.6707 -1.1267  0.8539
 4667TIP3    H235561   2.534   3.890   0.428 -2.4843 -1.3369  1.1810
 4668TIP3   OH235562   2.227   1.669   1.353 -0.2223 -0.0015  0.4526
 4668TIP3    H135563   2.267   1.612   1.286 -0.3698 -0.5746  0.8430
 4668TIP3    H235564   2.292   1.737   1.369  0.2396 -0.4451  0.4724
 4669TIP3   OH235565   2.010   2.184   7.708 -0.4564  0.6352 -0.0652
 4669TIP3    H135566   1.942   2.123   7.735 -0.4204  0.2785 -0.7635
 4669TIP3    H235567   2.038   2.153   7.622 -0.1201  1.3683 -0.2323
 4670TIP3   OH235568   0.261   1.558   7.575 -0.6417  0.1500  0.1761
 4670TIP3    H135569   0.211   1.603   7.507  0.7343  1.1728 -0.1970
 4670TIP3    H235570   0.293   1.628   7.631  0.9735 -0.4057 -0.0179
 4671TIP3   OH235571   1.119   4.754   2.255  0.2725  0.4262  0.1737
 4671TIP3    H135572   1.171   4.696   2.199 -1.2056  0.6414 -1.5032
 4671TIP3    H235573   1.142   4.727   2.344  2.0283 -0.5407 -0.5171
 4672TIP3   OH235574   3.341   0.805   2.192  0.6909  0.3854  0.0815
 4672TIP3    H135575   3.374   0.739   2.254 -1.4930 -1.0779 -0.1764
 4672TIP3    H235576   3.324   0.755   2.112 -0.7175  1.3059 -0.2278
 4673TIP3   OH235577   4.048   2.139   7.709 -0.0519  0.6171  0.1339
 4673TIP3    H135578   3.961   2.179   7.699 -0.2033  0.3483  0.3437
 4673TIP3    H235579   4.031   2.045   7.702  0.2951  0.5851 -0.3222
 4674TIP3   OH235580   5.096   0.528   1.953  0.1547 -0.0219 -0.2681
 4674TIP3    H135581   5.159   0.598   1.972  0.5462 -0.8189  1.6216
 4674TIP3    H235582   5.085   0.531   1.858  1.0643  1.8168 -0.3730
 4675TIP3   OH235583   1.939   5.334   8.041  0.0071  0.5520 -0.4593
 4675TIP3    H135584   2.002   5.403   8.021 -0.1644  0.6653 -0.6055
 4675TIP3    H235585   1.966   5.301   8.127 -0.4448  1.4026  0.0195
 4676TIP3   OH235586   4.413   4.913   0.762  0.0503  0.7853  0.3790
 4676TIP3    H135587   4.419   4.915   0.857 -2.8549 -0.5723  0.6940
 4676TIP3    H235588   4.356   4.987   0.740 -0.4638  0.2445 -0.1510
 4677TIP3   OH235589   5.980   3.857   7.202  0.0500 -0.0230 -0.7094
 4677TIP3    H135590   5.991   3.801   7.279  1.8924  3.5747  2.0274
 4677TIP3    H235591   5.893   3.897   7.214  0.0485  0.0191 -0.8649
 4678TIP3   OH235592   3.658   4.198   8.251  0.3670  0.3664  0.5767
 4678TIP3    H135593   3.612   4.119   8.281 -0.4127  1.0396  1.2139
 4678TIP3    H235594   3.618   4.218   8.166  2.4573 -1.4437 -0.9210
 4679TIP3   OH235595   2.092   3.051   8.039  0.4019 -0.1177 -0.2810
 4679TIP3    H135596   2.034   3.122   8.012 -0.0259 -0.3530  0.0123
 4679TIP3    H235597   2.101   3.062   8.134 -0.2251 -0.8586 -0.1258
 4680TIP3   OH235598   2.948   4.383   1.862  0.1708 -0.2366  0.3794
 4680TIP3    H135599   2.863   4.355   1.828  0.9384 -0.1742 -1.6918
 4680TIP3    H235600   2.932   4.400   1.955 -1.5493 -2.4077  0.5614
 4681TIP3   OH235601   4.142   3.709   8.225  0.0254 -0.4312  0.2963
 4681TIP3    H135602   4.193   3.695   8.305  1.7662 -0.1623 -0.7166
 4681TIP3    H235603   4.166   3.798   8.197 -0.1773 -0.7034 -0.7788
 4682TIP3   OH235604   1.651   0.658   1.013 -0.0102 -0.5021  0.4707
 4682TIP3    H135605   1.745   0.641   1.020 -0.3754 -2.5752  1.0614
 4682TIP3    H235606   1.616   0.583   0.965 -1.3018  0.5857 -0.3863
 4683TIP3   OH235607   2.213   1.290   8.254  0.0146  0.3950  0.3283
 4683TIP3    H135608   2.304   1.284   8.225  0.1184 -1.1880  0.8987
 4683TIP3    H235609   2.182   1.372   8.217  0.5636 -0.7591 -3.1041
 4684TIP3   OH235610   3.827   4.691   8.260  0.6525 -0.3544  0.0117
 4684TIP3    H135611   3.756   4.714   8.200 -0.1364  0.2277  1.1291
 4684TIP3    H235612   3.883   4.769   8.262  0.4647 -0.2244  0.3165
 4685TIP3   OH235613   4.167   1.100   1.907 -0.6376 -0.4513 -0.3478
 4685TIP3    H135614   4.260   1.094   1.886 -0.7170 -1.5952 -0.4557
 4685TIP3    H235615   4.137   1.009   1.911 -1.4209 -0.1753  1.1763
 4686TIP3   OH235616   2.691   3.556   0.361 -0.3344 -0.6406 -0.2434
 4686TIP3    H135617   2.628   3.485   0.351 -1.4752  0.1492  0.9935
 4686TIP3    H235618   2.675   3.591   0.448  1.5786 -0.1395 -0.0404
 4687TIP3   OH235619   2.331   0.741   1.644 -0.5716  0.0698  0.1642
 4687TIP3    H135620   2.406   0.780   1.690  0.2245 -2.0779  0.8366
 4687TIP3    H235621   2.265   0.730   1.713 -0.2482 -1.0022  0.3325
 4688TIP3   OH235622   6.423   0.068   1.341  0.2208 -0.2998  0.4542
 4688TIP3    H135623   6.454   0.136   1.281 -0.2137 -0.6624 -0.1879
 4688TIP3    H235624   6.359   0.113   1.397  0.0197 -0.1492  0.1058
 4689TIP3   OH235625   5.122   6.180   0.370  0.2438 -0.1451  0.5742
 4689TIP3    H135626   5.204   6.148   0.408  0.5500  0.2815  0.2824
 4689TIP3    H235627   5.129   6.160   0.277  0.0259 -0.0880  0.5444
 4690TIP3   OH235628   2.737   0.581   2.855  0.4834  0.3315  0.3849
 4690TIP3    H135629   2.669   0.593   2.789 -0.2982  0.9281  1.2714
 4690TIP3    H235630   2.785   0.664   2.855 -0.4218  0.8832  1.5366
 4691TIP3   OH235631   0.948   1.362   8.270  0.1256  0.2839  0.3661
 4691TIP3    H135632   0.990   1.447   8.257 -0.7648  1.0687  2.2156
 4691TIP3    H235633   0.938   1.327   8.182  0.6222  2.0601 -0.4515
 4692TIP3   OH235634   5.439   4.455   1.826  0.1522  0.2235  0.4161
 4692TIP3    H135635   5.397   4.384   1.777  0.2324  1.1688 -1.0915
 4692TIP3    H235636   5.372   4.485   1.887 -0.1346 -0.6323  0.5397
 4693TIP3   OH235637   1.385   1.705   6.691 -0.0835  0.3031  0.2472
 4693TIP3    H135638   1.368   1.746   6.776  1.1724  0.2125  0.5562
 4693TIP3    H235639   1.422   1.774   6.637 -0.9687  0.3869 -0.2824
 4694TIP3   OH235640   0.902   0.195   1.574  0.0610  0.6741  0.1426
 4694TIP3    H135641   0.891   0.134   1.646  0.5728  2.3174  1.6758
 4694TIP3    H235642   0.985   0.240   1.592 -0.1556  1.6356 -1.0633
 4695TIP3   OH235643   1.383   2.380   7.926  0.1829  0.5055  0.6443
 4695TIP3    H135644   1.378   2.407   8.018 -0.9852 -0.3242  0.8464
 4695TIP3    H235645   1.349   2.290   7.925 -0.1270  0.6138 -0.6444
 4696TIP3   OH235646   2.468   5.166   0.569  0.4577  0.0224 -0.1815
 4696TIP3    H135647   2.516   5.102   0.517 -1.2651 -1.6249  0.1437
 4696TIP3    H235648   2.466   5.245   0.515  1.8498 -0.4532 -0.9809
 4697TIP3   OH235649   3.283   4.512   0.327 -0.0992 -0.6285 -0.9304
 4697TIP3    H135650   3.255   4.457   0.400  1.7618 -1.9467 -1.1311
 4697TIP3    H235651   3.347   4.572   0.365  1.9065 -2.2109 -1.6218
 4698TIP3   OH235652   2.593   1.136   2.653  0.0105 -0.3213  0.2200
 4698TIP3    H135653   2.610   1.091   2.736  0.8546 -1.8207 -0.7224
 4698TIP3    H235654   2.498   1.144   2.649 -0.0176  0.1594  1.5179
 4699TIP3   OH235655   0.695   4.370   1.744  0.1159 -0.0921  0.0247
 4699TIP3    H135656   0.627   4.312   1.780 -0.0258  0.1063  0.0818
 4699TIP3    H235657   0.768   4.361   1.805  0.4909 -1.0168 -0.5463
 4700TIP3   OH235658   1.033   5.843   8.555  0.3669 -0.2919  0.3007
 4700TIP3    H135659   0.952   5.793   8.541  0.1696  0.1184 -0.0302
 4700TIP3    H235660   1.028   5.871   8.646 -0.9320  1.6011 -0.3027
 4701TIP3   OH235661   4.902   3.875   6.695  0.4001  0.3590 -0.2401
 4701TIP3    H135662   4.855   3.794   6.678  0.7876  0.0295  0.2437
 4701TIP3    H235663   4.935   3.902   6.610  1.5738 -0.8006 -0.1759
 4702TIP3   OH235664   1.459   6.572   8.422 -0.2750  0.2478 -0.1431
 4702TIP3    H135665   1.460   6.654   8.472  0.4822 -0.0123  0.2860
 4702TIP3    H235666   1.413   6.594   8.341  0.3155  1.2143 -0.2270
 4703TIP3   OH235667   2.660   1.393   1.313 -0.8273 -1.2463  0.0326
 4703TIP3    H135668   2.734   1.414   1.369 -0.8490 -0.0720 -0.3543
 4703TIP3    H235669   2.695   1.334   1.247 -0.6297 -2.0296  0.8190
 4704TIP3   OH235670   5.957   3.758   8.247 -0.0615  0.0365  0.4519
 4704TIP3    H135671   5.869   3.720   8.247 -0.0805  0.0806  0.8848
 4704TIP3    H235672   6.011   3.692   8.203 -0.1198 -0.4385  1.0773
 4705TIP3   OH235673   1.812   3.092   0.424 -0.4879  0.2625  0.3820
 4705TIP3    H135674   1.903   3.116   0.442  0.3660 -1.2948 -1.4121
 4705TIP3    H235675   1.782   3.157   0.360 -0.4104  0.3669  0.4510
 4706TIP3   OH235676   5.552   6.003   8.206 -0.8466  0.4627 -0.2696
 4706TIP3    H135677   5.518   5.915   8.219 -0.6426  0.2190 -1.3699
 4706TIP3    H235678   5.522   6.029   8.119  0.2248  0.9567 -0.5052
 4707TIP3   OH235679   3.443   0.830   8.594  0.0676  0.2223 -0.1002
 4707TIP3    H135680   3.452   0.925   8.590  1.1133  0.1953  0.9704
 4707TIP3    H235681   3.533   0.798   8.605 -0.4665 -0.7016  2.1796
 4708TIP3   OH235682   0.153   2.244   0.006  0.1729 -0.1333 -0.2270
 4708TIP3    H135683   0.111   2.175  -0.046 -0.2775 -1.9673  2.4038
 4708TIP3    H235684   0.246   2.233  -0.011  0.0260 -0.5865 -0.7764
 4709TIP3   OH235685   2.412   2.500   7.234 -0.3932 -0.0688 -0.0445
 4709TIP3    H135686   2.353   2.464   7.301  0.6867  0.3713  1.1965
 4709TIP3    H235687   2.438   2.425   7.182 -1.7590 -0.3237 -0.4052
 4710TIP3   OH235688   2.875   3.712   0.170  0.0780 -0.0492  0.5077
 4710TIP3    H135689   2.894   3.621   0.147 -0.3029  0.2819 -1.2574
 4710TIP3    H235690   2.807   3.706   0.237  0.0992 -1.0681  0.4559
 4711TIP3   OH235691   6.086   1.234   2.612 -0.6125 -0.6954 -0.4626
 4711TIP3    H135692   6.170   1.265   2.647 -1.6272 -0.5857  2.1262
 4711TIP3    H235693   6.105   1.146   2.580  0.4781 -0.7086  0.1469
 4712TIP3   OH235694   2.834   1.161   1.498  0.7179 -0.1766 -0.1468
 4712TIP3    H135695   2.916   1.120   1.527  0.0317 -1.3955  0.1277
 4712TIP3    H235696   2.810   1.112   1.419  0.7050  0.7704 -0.7432
 4713TIP3   OH235697   5.184   3.855   7.176 -0.3314  0.2225  0.6550
 4713TIP3    H135698   5.207   3.787   7.113 -1.9987  0.6797 -0.4791
 4713TIP3    H235699   5.111   3.819   7.225 -0.1184  0.5354  1.2179
 4714TIP3   OH235700   5.029   1.465   1.911  0.6975 -0.5623 -0.4057
 4714TIP3    H135701   5.014   1.486   2.003  0.4767 -2.0074 -0.0936
 4714TIP3    H235702   4.949   1.423   1.882  0.6362  0.1759 -1.3756
 4715TIP3   OH235703   3.768   0.696   0.329  0.0724 -0.1265  0.9162
 4715TIP3    H135704   3.822   0.655   0.396  1.3689 -0.3516 -0.2135
 4715TIP3    H235705   3.819   0.686   0.248 -1.2051  0.5788 -0.0106
 4716TIP3   OH235706   6.490   2.249   7.178 -0.1941 -0.3063  0.3109
 4716TIP3    H135707   6.573   2.235   7.223  0.9392  1.5127 -1.1046
 4716TIP3    H235708   6.499   2.202   7.095 -1.0636 -1.0525  0.6176
 4717TIP3   OH235709   3.676   5.888   8.323  0.1366  0.7808 -0.4139
 4717TIP3    H135710   3.713   5.873   8.410 -1.4258  0.8599  0.2969
 4717TIP3    H235711   3.659   5.982   8.319 -2.8508  0.3906  0.5546
 4718TIP3   OH235712   2.958   6.207   0.222 -0.0356  0.0288  0.1570
 4718TIP3    H135713   2.982   6.135   0.281  1.3341 -0.4337 -0.8924
 4718TIP3    H235714   2.947   6.283   0.280  1.2997 -0.3977  1.0386
 4719TIP3   OH235715   2.067   1.537   6.252 -0.3933 -0.1274 -0.4751
 4719TIP3    H135716   2.085   1.483   6.328 -1.0520  0.8764  0.4283
 4719TIP3    H235717   2.032   1.619   6.288  0.9764  1.0944 -1.7511
 4720TIP3   OH235718   0.421   4.772   7.335 -0.6361 -0.2654  0.6693
 4720TIP3    H135719   0.513   4.783   7.310 -0.6756  0.2100  0.7242
 4720TIP3    H235720   0.382   4.722   7.264 -0.4542 -0.0221  0.3987
 4721TIP3   OH235721   5.085   1.302   2.246  0.2069 -0.1688 -0.6649
 4721TIP3    H135722   5.106   1.210   2.259 -1.0078 -0.1389  2.5298
 4721TIP3    H235723   4.989   1.305   2.242  0.2612  0.8617 -2.1312
 4722TIP3   OH235724   0.759   5.659   7.377  0.2537  0.2269  0.2479
 4722TIP3    H135725   0.811   5.723   7.329 -0.4943 -0.3655 -1.4534
 4722TIP3    H235726   0.669   5.689   7.366  0.0971  0.4567  1.9398
 4723TIP3   OH235727   3.100   5.184   0.287  0.4300  0.2060  0.8553
 4723TIP3    H135728   3.187   5.221   0.299  0.4258  0.6955 -0.4002
 4723TIP3    H235729   3.048   5.257   0.253 -0.0586 -0.4769  0.1003
 4724TIP3   OH235730   5.816   3.276   2.478  0.6490 -0.8292  0.6268
 4724TIP3    H135731   5.782   3.218   2.546 -0.1495  0.1432  1.0780
 4724TIP3    H235732   5.855   3.217   2.414 -0.6035 -1.9083  0.8089
 4725TIP3   OH235733   0.413   6.653   0.653  0.3739 -0.5346 -0.6204
 4725TIP3    H135734   0.375   6.735   0.621  0.0094 -0.1598  0.7460
 4725TIP3    H235735   0.340   6.605   0.693  0.7255 -1.2132 -0.7643
 4726TIP3   OH235736   4.780   2.655   0.523 -0.0801  0.0657 -0.0539
 4726TIP3    H135737   4.810   2.671   0.613  2.1057 -1.0059 -0.5245
 4726TIP3    H235738   4.797   2.738   0.478 -0.4281  0.3483  0.3279
 4727TIP3   OH235739   1.564   2.683   2.975 -0.1877 -0.3356  0.4426
 4727TIP3    H135740   1.641   2.740   2.972  0.2494 -0.9622 -0.5935
 4727TIP3    H235741   1.596   2.597   2.949 -1.3679 -0.4587 -0.7102
 4728TIP3   OH235742   2.908   5.652   1.141  0.4733 -0.1131  0.0883
 4728TIP3    H135743   2.841   5.584   1.146 -0.5269  0.8195 -0.2543
 4728TIP3    H235744   2.978   5.613   1.088  0.1731 -1.0698  0.3813
 4729TIP3   OH235745   1.676   2.568   7.261  0.3673 -0.0781 -0.2148
 4729TIP3    H135746   1.702   2.660   7.264 -1.3885  0.5821 -2.2839
 4729TIP3    H235747   1.584   2.569   7.288  0.3660 -1.2475 -0.1638
 4730TIP3   OH235748   5.611   2.613   8.586  0.3121  0.3135 -0.2088
 4730TIP3    H135749   5.633   2.541   8.645 -1.1977  1.1416  1.4788
 4730TIP3    H235750   5.531   2.584   8.542  0.2488  0.5419 -0.2460
 4731TIP3   OH235751   3.632   2.942   8.067  0.0303  0.0536 -0.4135
 4731TIP3    H135752   3.645   2.858   8.111  1.0174  0.1949 -0.4110
 4731TIP3    H235753   3.548   2.974   8.101 -0.5140 -1.0653 -0.6587
 4732TIP3   OH235754   5.597   2.134   7.249 -0.7565  0.2498  0.4324
 4732TIP3    H135755   5.572   2.115   7.159  0.9684 -1.0903  0.1881
 4732TIP3    H235756   5.579   2.053   7.297  1.4012 -0.1969  0.5734
 4733TIP3   OH235757   2.895   0.705   1.399  0.4624  0.3678  0.0624
 4733TIP3    H135758   2.864   0.696   1.309 -1.3637 -1.8907  0.8375
 4733TIP3    H235759   2.816   0.712   1.452  1.4170 -0.3086  1.6769
 4734TIP3   OH235760   5.939   3.057   7.147 -0.3321  0.1289  0.5216
 4734TIP3    H135761   5.935   3.106   7.065 -2.3884 -1.0157 -0.1206
 4734TIP3    H235762   5.910   2.969   7.125 -0.2866 -0.4012  2.3613
 4735TIP3   OH235763   6.351   3.041   6.589  0.1376  0.4252 -0.7035
 4735TIP3    H135764   6.326   3.053   6.498  0.3091 -0.3829 -0.8667
 4735TIP3    H235765   6.442   3.071   6.594 -0.4279  2.1529 -0.3943
 4736TIP3   OH235766   1.124   0.586   6.689  0.1916  0.4847 -0.1920
 4736TIP3    H135767   1.056   0.522   6.711  0.4998 -0.1856 -1.1562
 4736TIP3    H235768   1.098   0.665   6.737 -1.5604  0.4108 -0.9311
 4737TIP3   OH235769   1.329   5.177   7.701  0.4249 -0.0603 -0.4892
 4737TIP3    H135770   1.351   5.235   7.774  3.3776 -0.9812 -0.5086
 4737TIP3    H235771   1.343   5.230   7.622  1.6419 -0.3411 -0.4712
 4738TIP3   OH235772   2.560   0.503   0.022  0.1650 -0.0422 -0.4613
 4738TIP3    H135773   2.558   0.474   0.114 -0.8594  0.2100 -0.3928
 4738TIP3    H235774   2.470   0.494  -0.007  0.6037 -0.7381 -1.6560
 4739TIP3   OH235775   5.422   3.056   7.548 -0.0128 -0.9408 -0.4313
 4739TIP3    H135776   5.487   3.124   7.529 -0.2218 -0.6117  0.0104
 4739TIP3    H235777   5.352   3.071   7.484 -0.3359 -0.3564  0.0514
 4740TIP3   OH235778   3.805   4.404   0.046  0.1913  0.1726 -0.0376
 4740TIP3    H135779   3.846   4.490   0.030 -1.7167  1.1290 -0.0838
 4740TIP3    H235780   3.826   4.353  -0.033 -2.0915  2.0318 -1.9989
 4741TIP3   OH235781   4.848   4.635   2.118 -0.0122  0.2616 -0.7931
 4741TIP3    H135782   4.880   4.551   2.151 -1.6341 -0.1136 -0.0428
 4741TIP3    H235783   4.902   4.700   2.162  0.2774 -0.3559 -0.2113
 4742TIP3   OH235784   2.282   6.381   2.078  0.2871 -0.4034  0.2776
 4742TIP3    H135785   2.312   6.406   1.990  0.5717 -1.2812  0.1171
 4742TIP3    H235786   2.306   6.289   2.086 -2.7123 -1.3302 -0.0094
 4743TIP3   OH235787   3.551   1.687   0.063 -0.1240  0.2983  0.2758
 4743TIP3    H135788   3.604   1.761   0.035  0.4534  0.6489  2.1313
 4743TIP3    H235789   3.591   1.611   0.020  0.3756  0.8473 -0.2436
 4744TIP3   OH235790   1.497   6.204   6.957  0.4401 -0.0703 -0.2640
 4744TIP3    H135791   1.448   6.150   7.019  0.3731 -2.8254 -2.5333
 4744TIP3    H235792   1.430   6.243   6.901  0.6105  0.0706 -0.3707
 4745TIP3   OH235793   6.590   5.087   7.699  0.1969  0.2369  0.0335
 4745TIP3    H135794   6.631   5.016   7.650 -2.7695 -1.0104 -0.8773
 4745TIP3    H235795   6.613   5.069   7.790  1.1278 -0.7398 -0.3655
 4746TIP3   OH235796   3.331   2.473   7.785  0.5155  0.0444 -0.8290
 4746TIP3    H135797   3.396   2.506   7.847 -0.2691 -1.9966  1.2319
 4746TIP3    H235798   3.276   2.414   7.837 -0.8035 -1.0474 -3.2830
 4747TIP3   OH235799   3.667   3.271   8.438  0.4112 -0.3956  0.2539
 4747TIP3    H135800   3.616   3.249   8.516  0.3014 -1.7443 -0.1829
 4747TIP3    H235801   3.686   3.365   8.448 -3.0746  0.4888 -0.0697
 4748TIP3   OH235802   5.510   2.972   0.153 -0.0377 -0.0522  0.9411
 4748TIP3    H135803   5.441   3.010   0.208  0.4072  1.0162  0.7843
 4748TIP3    H235804   5.479   2.883   0.133 -0.9045  0.0745  1.6735
 4749TIP3   OH235805   3.504   0.753   0.344  0.1595  0.0131 -0.7811
 4749TIP3    H135806   3.596   0.729   0.347 -0.0197 -0.7884 -1.2752
 4749TIP3    H235807   3.503   0.848   0.334  0.9252  0.0324 -0.6731
 4750TIP3   OH235808   3.088   3.012   2.011  0.6315 -0.0924 -0.4639
 4750TIP3    H135809   3.042   2.933   2.039 -1.2070  0.8650 -0.6534
 4750TIP3    H235810   3.161   3.020   2.073 -0.9982 -0.2244  1.5543
 4751TIP3   OH235811   2.930   1.155   2.030  0.0432  0.2802  0.2265
 4751TIP3    H135812   3.007   1.118   2.073  1.5638  2.4395 -0.4195
 4751TIP3    H235813   2.961   1.179   1.942 -1.3804  1.1130 -0.0810
 4752TIP3   OH235814   3.963   5.481   1.513  0.3266 -0.2782 -0.1182
 4752TIP3    H135815   3.911   5.443   1.584  0.5748 -1.1438 -0.3856
 4752TIP3    H235816   3.948   5.423   1.438 -1.0235  1.3630 -1.2103
 4753TIP3   OH235817   4.642   4.960   2.404 -0.2141 -0.0878  0.2593
 4753TIP3    H135818   4.732   4.981   2.428 -0.7915  0.6998  1.8817
 4753TIP3    H235819   4.637   4.865   2.407  0.5614 -0.1385  0.1351
 4754TIP3   OH235820   6.006   0.870   8.662 -0.1152 -0.6682 -0.0700
 4754TIP3    H135821   5.915   0.864   8.693  0.3519  0.6477  1.7257
 4754TIP3    H235822   6.032   0.960   8.681  1.6446 -1.0755 -0.3638
 4755TIP3   OH235823   6.420   6.629   7.893  0.3495  0.0282  0.2857
 4755TIP3    H135824   6.417   6.725   7.895  1.1807  0.0713 -0.2169
 4755TIP3    H235825   6.359   6.606   7.822  1.9854  0.3232 -1.3057
 4756TIP3   OH235826   2.336   0.815   7.202 -0.4124 -0.0258 -0.0572
 4756TIP3    H135827   2.274   0.873   7.159 -2.8714 -1.6167  1.1158
 4756TIP3    H235828   2.316   0.728   7.168 -1.0853 -1.0452  2.6548
 4757TIP3   OH235829   3.559   1.914   8.465 -0.8440  0.0641  0.1388
 4757TIP3    H135830   3.484   1.915   8.405 -1.1282 -0.0402  0.4893
 4757TIP3    H235831   3.612   1.839   8.436 -0.8426  0.1748 -0.1477
 4758TIP3   OH235832   6.864   2.567   0.666  0.4550  0.0941 -0.2880
 4758TIP3    H135833   6.826   2.541   0.582 -1.4643  1.8609 -0.0259
 4758TIP3    H235834   6.933   2.629   0.642  0.8923 -0.5016 -0.6045
 4759TIP3   OH235835   1.590   0.591   2.581 -0.2126  0.4381  0.1354
 4759TIP3    H135836   1.644   0.581   2.502 -0.1270  1.0595  0.1136
 4759TIP3    H235837   1.653   0.596   2.653 -0.2733 -3.8131  0.7723
 4760TIP3   OH235838   1.034   3.170   1.158  0.1964  0.0991  0.1679
 4760TIP3    H135839   1.000   3.259   1.149 -2.8539 -0.9298  0.2463
 4760TIP3    H235840   1.024   3.150   1.252  3.0891  0.3740  0.6391
 4761TIP3   OH235841   6.253   4.457   1.736 -0.3623 -0.5162 -0.0166
 4761TIP3    H135842   6.203   4.451   1.818  0.6114 -0.2781  0.6040
 4761TIP3    H235843   6.267   4.366   1.711  1.6250 -0.6946  1.5242
 4762TIP3   OH235844   5.398   4.315   0.403 -0.0788 -0.4304  0.4380
 4762TIP3    H135845   5.374   4.311   0.311  0.3957  0.0837  0.2876
 4762TIP3    H235846   5.435   4.229   0.423  1.0383 -0.1150 -0.2009
 4763TIP3   OH235847   2.245   4.395   8.466 -0.0078  0.1393 -0.3092
 4763TIP3    H135848   2.236   4.488   8.483  1.1954  0.7758 -2.7028
 4763TIP3    H235849   2.199   4.381   8.383  0.6053 -1.2134 -0.4455
 4764TIP3   OH235850   2.312   6.196   1.257  0.3217 -0.1299  0.2670
 4764TIP3    H135851   2.249   6.261   1.289 -1.6592 -1.3255 -0.9569
 4764TIP3    H235852   2.262   6.114   1.256  2.1513 -1.2907 -0.0915
 4765TIP3   OH235853   6.760   0.864   1.238 -0.4557 -0.0983 -0.0672
 4765TIP3    H135854   6.745   0.800   1.168 -0.7629  0.3808 -0.4532
 4765TIP3    H235855   6.686   0.925   1.230  1.2414  1.8963 -1.5197
 4766TIP3   OH235856   5.015   0.287   1.272  0.5656  0.1640  0.4197
 4766TIP3    H135857   4.946   0.312   1.333  1.2831  0.0066  1.3119
 4766TIP3    H235858   4.972   0.226   1.212 -0.7086  1.9844 -0.6072
 4767TIP3   OH235859   5.802   4.044   0.414  1.3245 -0.5105 -0.3066
 4767TIP3    H135860   5.824   3.962   0.458  0.1142 -0.3714  0.5875
 4767TIP3    H235861   5.819   4.112   0.480  1.8801 -0.0664 -0.8905
 4768TIP3   OH235862   4.305   4.271   7.307  0.1783 -0.1590 -0.4444
 4768TIP3    H135863   4.297   4.350   7.360  0.3629  0.2441 -1.0061
 4768TIP3    H235864   4.219   4.231   7.310  0.7926 -1.5036  2.2138
 4769TIP3   OH235865   2.218   2.675   8.638 -0.0853 -0.0533  0.0052
 4769TIP3    H135866   2.178   2.645   8.556 -1.8581 -0.1160  0.8559
 4769TIP3    H235867   2.227   2.595   8.690 -1.8642  0.3587  1.0395
 4770TIP3   OH235868   3.852   3.621   8.096 -0.3620  0.2884 -0.4494
 4770TIP3    H135869   3.938   3.615   8.136 -0.2250  3.0394 -0.1426
 4770TIP3    H235870   3.844   3.542   8.044  2.1096 -0.2965 -0.0564
 4771TIP3   OH235871   0.589   6.001   8.523  0.2798  0.4535  0.4839
 4771TIP3    H135872   0.659   6.067   8.514 -0.2969  1.3587  2.1997
 4771TIP3    H235873   0.614   5.949   8.599  0.8356 -1.5324 -0.9770
 4772TIP3   OH235874   4.488   2.965   1.359  0.1195  0.2027 -0.4332
 4772TIP3    H135875   4.555   2.918   1.310  1.1852  0.3200  0.8571
 4772TIP3    H235876   4.447   3.023   1.295 -0.3894 -1.5411 -1.7850
 4773TIP3   OH235877   1.791   0.933   1.981 -0.6899 -0.0403  0.1539
 4773TIP3    H135878   1.708   0.905   2.019 -0.5448  0.1041  0.5769
 4773TIP3    H235879   1.847   0.952   2.056 -0.5952  0.8180 -0.1197
 4774TIP3   OH235880   5.509   3.674   1.273  0.4486  0.7195  0.0283
 4774TIP3    H135881   5.503   3.656   1.367  1.0250  0.5719  0.0393
 4774TIP3    H235882   5.555   3.598   1.237  0.9777  1.1591 -0.2441
 4775TIP3   OH235883   1.548   4.142   1.677  0.3893 -0.2465 -0.5570
 4775TIP3    H135884   1.537   4.048   1.690 -1.3897 -0.0591 -0.4747
 4775TIP3    H235885   1.601   4.171   1.751  0.8336 -1.1626 -0.5108
 4776TIP3   OH235886   5.557   1.782   7.506 -0.4129 -0.0489 -0.5985
 4776TIP3    H135887   5.624   1.714   7.505 -1.3938 -1.0856  0.6910
 4776TIP3    H235888   5.500   1.759   7.579 -1.2234  1.7445 -0.5968
 4777TIP3   OH235889   4.311   6.513   7.149 -0.0716 -0.2783 -0.3184
 4777TIP3    H135890   4.261   6.466   7.216 -0.9020  0.0747 -0.6815
 4777TIP3    H235891   4.364   6.576   7.199 -1.4218  0.6765 -0.0317
 4778TIP3   OH235892   3.080   5.078   0.541  0.2493 -0.0432 -0.4756
 4778TIP3    H135893   3.063   4.984   0.541  2.9736 -0.6313 -1.8918
 4778TIP3    H235894   3.075   5.103   0.449  0.7894  0.9330 -0.2525
 4779TIP3   OH235895   2.531   3.066   8.039  0.1605 -0.1909 -0.1074
 4779TIP3    H135896   2.545   2.972   8.049 -0.4912 -0.2322  0.4931
 4779TIP3    H235897   2.562   3.104   8.121 -1.8201 -0.1475  0.6639
 4780TIP3   OH235898   2.707   4.372   1.363  0.4273  0.2561 -0.5683
 4780TIP3    H135899   2.752   4.456   1.367  0.2606  0.3039  1.9929
 4780TIP3    H235900   2.627   4.390   1.314 -0.5328  2.1191  1.5166
 4781TIP3   OH235901   0.140   3.402   6.689  0.2248 -0.0516 -0.0575
 4781TIP3    H135902   0.126   3.488   6.651 -0.2212 -0.4417 -0.7930
 4781TIP3    H235903   0.154   3.344   6.614  0.8595 -0.5599  0.4452
 4782TIP3   OH235904   6.568   5.982   0.836  0.1228  0.0501 -0.5332
 4782TIP3    H135905   6.661   6.001   0.849 -0.0040 -0.9067  2.4117
 4782TIP3    H235906   6.565   5.890   0.811 -0.0623 -0.2966  0.7036
 4783TIP3   OH235907   2.547   6.671   2.594  0.1552  0.4160  0.6640
 4783TIP3    H135908   2.488   6.600   2.570  1.2693 -0.2638 -0.0979
 4783TIP3    H235909   2.503   6.750   2.560 -0.4549 -0.0397  0.3691
 4784TIP3   OH235910   1.132   1.050   7.311 -0.3947 -0.0656  0.1100
 4784TIP3    H135911   1.169   0.996   7.241 -0.2760  1.5963 -1.1981
 4784TIP3    H235912   1.037   1.046   7.297 -0.3324  1.3590 -1.1182
 4785TIP3   OH235913   3.222   4.058   0.646  0.2390 -0.2667  0.0929
 4785TIP3    H135914   3.189   4.146   0.627  2.7247  0.9476  0.9250
 4785TIP3    H235915   3.221   4.053   0.742  1.1658 -0.7108  0.0831
 4786TIP3   OH235916   2.202   3.928   2.142 -0.3880 -0.4000 -0.5471
 4786TIP3    H135917   2.134   3.965   2.086 -0.1542  0.7488 -0.1241
 4786TIP3    H235918   2.176   3.954   2.231 -0.4328 -1.6588 -0.1794
 4787TIP3   OH235919   2.766   0.155   7.801  0.2216 -0.0702  0.4927
 4787TIP3    H135920   2.733   0.199   7.880  0.8497  1.2673  0.0290
 4787TIP3    H235921   2.693   0.158   7.739  0.1575  0.0388  0.5730
 4788TIP3   OH235922   1.395   1.303   7.967  0.4677  0.0274 -0.2100
 4788TIP3    H135923   1.432   1.390   7.983 -0.1981  0.5230 -1.2458
 4788TIP3    H235924   1.470   1.244   7.971  0.7064  0.3911  2.1811
 4789TIP3   OH235925   5.765   2.666   7.682 -0.2316  0.3451 -0.2102
 4789TIP3    H135926   5.780   2.602   7.612  0.2259  0.5725 -0.3239
 4789TIP3    H235927   5.851   2.706   7.697 -0.3200  0.2964  0.4864
 4790TIP3   OH235928   3.593   3.046   0.324 -0.1028 -0.4552 -0.3181
 4790TIP3    H135929   3.523   3.105   0.297  0.1562 -0.4398 -0.9723
 4790TIP3    H235930   3.612   2.994   0.246  2.0231  0.9430 -0.8137
 4791TIP3   OH235931   4.667   5.805   1.752 -0.1689  0.1133 -0.7827
 4791TIP3    H135932   4.724   5.877   1.776  1.0056 -0.9068 -0.3863
 4791TIP3    H235933   4.616   5.786   1.831  0.7038 -0.5472 -0.3712
 4792TIP3   OH235934   6.528   4.681   1.444  0.6000  0.2838  0.0420
 4792TIP3    H135935   6.596   4.685   1.512  0.8547 -1.8783 -0.0360
 4792TIP3    H235936   6.448   4.707   1.490  1.0515  0.4558  0.7495
 4793TIP3   OH235937   5.374   3.277   1.637  0.1736 -0.0072 -0.4705
 4793TIP3    H135938   5.361   3.262   1.730  1.5885  1.0091 -0.0772
 4793TIP3    H235939   5.289   3.307   1.605  0.0054  0.9370  0.7843
 4794TIP3   OH235940   6.348   4.914   8.489 -0.2580 -0.1621 -0.1961
 4794TIP3    H135941   6.267   4.864   8.495 -0.8965  0.4572 -2.4834
 4794TIP3    H235942   6.332   4.991   8.544 -1.3307  0.0691 -0.8009
 4795TIP3   OH235943   4.206   0.094   8.026  0.2241  0.3864 -0.0066
 4795TIP3    H135944   4.130   0.099   8.085  0.3735 -0.7531  0.3109
 4795TIP3    H235945   4.169   0.101   7.938 -0.0835  1.3560  0.1968
 4796TIP3   OH235946   3.598   0.469   1.328 -0.0420  0.0318  1.0026
 4796TIP3    H135947   3.596   0.373   1.322 -3.4343 -0.0474  1.6996
 4796TIP3    H235948   3.655   0.496   1.256 -0.2440 -2.4464 -0.2076
 4797TIP3   OH235949   1.354   0.007   1.245  0.4756 -0.2506 -0.1600
 4797TIP3    H135950   1.260  -0.010   1.256  0.7747 -1.3466  1.0696
 4797TIP3    H235951   1.362   0.044   1.158 -1.1629  0.3494 -0.0881
 4798TIP3   OH235952   4.984   3.608   0.873 -0.0009  0.6886 -0.1846
 4798TIP3    H135953   4.920   3.537   0.874  0.2422  0.4226 -1.5102
 4798TIP3    H235954   4.941   3.679   0.920 -0.6050 -0.0292  0.3855
 4799TIP3   OH235955   4.432   2.902   0.129 -0.2267  0.0179  0.3371
 4799TIP3    H135956   4.338   2.903   0.147  0.0062 -0.3392  1.6895
 4799TIP3    H235957   4.465   2.826   0.176  0.9273  0.8465  0.9369
 4800TIP3   OH235958   3.717   0.324   0.430 -0.6748 -0.0787 -0.4185
 4800TIP3    H135959   3.797   0.279   0.459 -0.6396 -0.1096 -0.5653
 4800TIP3    H235960   3.680   0.266   0.364 -0.7168  0.0303 -0.4896
 4801TIP3   OH235961   4.903   5.157   0.294  0.2468 -0.3539 -0.2831
 4801TIP3    H135962   4.920   5.093   0.363  2.4064 -0.3679 -0.7707
 4801TIP3    H235963   4.915   5.242   0.337  1.0041 -0.3516 -0.4962
 4802TIP3   OH235964   4.538   5.367   1.274  0.3663  0.2297 -0.1496
 4802TIP3    H135965   4.466   5.307   1.293 -1.2529  1.8866 -0.6994
 4802TIP3    H235966   4.613   5.331   1.322 -0.1413 -2.8976 -1.5017
 4803TIP3   OH235967   2.395   2.456   8.068 -0.8539  0.4223  0.0940
 4803TIP3    H135968   2.476   2.506   8.072 -0.4662 -0.0579 -1.1903
 4803TIP3    H235969   2.371   2.441   8.159  1.8867 -1.6094  0.6078
 4804TIP3   OH235970   3.984   2.717   8.551 -0.4435  0.1030  1.0172
 4804TIP3    H135971   3.944   2.696   8.467  2.7003 -1.1907 -0.3052
 4804TIP3    H235972   4.004   2.632   8.590  0.9778  0.6537  1.5678
 4805TIP3   OH235973   3.854   4.272   2.627 -0.9276 -0.4604  0.0423
 4805TIP3    H135974   3.802   4.270   2.547 -1.8373  0.8070  0.5664
 4805TIP3    H235975   3.802   4.325   2.688  0.2052 -0.5673  1.1426
 4806TIP3   OH235976   6.214   5.569   7.378  0.6618  0.0828 -0.5685
 4806TIP3    H135977   6.145   5.513   7.342 -0.2016  0.4639  0.4396
 4806TIP3    H235978   6.251   5.615   7.302  0.0400 -0.3789 -1.1568
 4807TIP3   OH235979   5.648   1.143   0.226 -0.1195 -0.0596 -0.1434
 4807TIP3    H135980   5.641   1.230   0.266 -1.9286 -0.0427 -0.4246
 4807TIP3    H235981   5.630   1.082   0.298 -0.2698 -0.1440 -0.2528
 4808TIP3   OH235982   1.853   1.346   7.599 -0.2835 -0.1455  0.0148
 4808TIP3    H135983   1.837   1.405   7.526 -0.3248 -1.5009 -1.1163
 4808TIP3    H235984   1.898   1.271   7.560  1.3843 -0.0958  1.7002
 4809TIP3   OH235985   3.345   0.416   1.086 -0.1292  0.1959 -0.0279
 4809TIP3    H135986   3.424   0.391   1.039 -1.2263 -1.6931 -1.0425
 4809TIP3    H235987   3.368   0.495   1.135  2.4407 -0.5003 -0.0137
 4810TIP3   OH235988   4.385   3.344   8.699 -0.3121 -0.0800 -0.4600
 4810TIP3    H135989   4.473   3.379   8.712 -0.8440  0.3711  2.8379
 4810TIP3    H235990   4.327   3.420   8.706 -1.0373 -0.5182 -1.5203
 4811TIP3   OH235991   1.670   5.545   6.710 -0.7660  0.3179  0.0784
 4811TIP3    H135992   1.738   5.600   6.671 -1.2973  1.8541  1.2356
 4811TIP3    H235993   1.718   5.482   6.763 -0.1834  0.1502 -0.6203
 4812TIP3   OH235994   3.495   5.822   1.826  0.2498 -0.3278  0.0737
 4812TIP3    H135995   3.481   5.727   1.828 -0.2186 -0.3317 -1.5435
 4812TIP3    H235996   3.580   5.833   1.784  0.7637 -0.0389  1.1567
 4813TIP3   OH235997   6.379   3.250   7.493  0.5639 -0.2281  0.2454
 4813TIP3    H135998   6.334   3.332   7.475  2.7602  1.0702  0.3018
 4813TIP3    H235999   6.315   3.182   7.472 -1.4633  1.4740  0.5979
 4814TIP3   OH236000   2.924   5.709   8.411 -0.1130 -0.0325  0.3099
 4814TIP3    H136001   2.970   5.756   8.480 -0.8288  0.3255  0.5556
 4814TIP3    H236002   2.860   5.771   8.378 -0.8998 -0.7447  0.4574
 4815TIP3   OH236003   0.161   4.675   0.993  0.1961 -0.7873 -0.0127
 4815TIP3    H136004   0.157   4.718   0.908  0.8391 -0.6343  0.0250
 4815TIP3    H236005   0.185   4.584   0.974  1.4463 -0.4917  0.0582
 4816TIP3   OH236006   5.557   3.383   0.531 -0.1474  0.1136  0.1974
 4816TIP3    H136007   5.647   3.355   0.512 -0.6174 -1.5457  0.2244
 4816TIP3    H236008   5.507   3.301   0.532 -1.7508  1.0495 -0.2883
 4817TIP3   OH236009   1.511   4.461   7.692 -0.0926  0.2987 -0.2431
 4817TIP3    H136010   1.580   4.487   7.754 -0.8046 -1.2478  1.2664
 4817TIP3    H236011   1.446   4.531   7.699  0.3059  0.6608 -0.0400
 4818TIP3   OH236012   5.990   4.430   2.439  0.7412 -0.2444  0.8296
 4818TIP3    H136013   6.059   4.380   2.483  1.9701  0.1724 -0.5804
 4818TIP3    H236014   6.018   4.521   2.444  1.2139 -0.2328 -1.2842
 4819TIP3   OH236015   1.842   4.699   7.802 -0.3515 -0.2343  0.0476
 4819TIP3    H136016   1.928   4.728   7.832 -0.2433  0.0523 -0.5431
 4819TIP3    H236017   1.825   4.750   7.723 -1.0959 -0.2348  0.2011
 4820TIP3   OH236018   2.472   2.873   1.569  0.1212  0.2537  0.7084
 4820TIP3    H136019   2.434   2.817   1.636  1.2783  1.1346  2.1711
 4820TIP3    H236020   2.401   2.889   1.507 -0.7098 -1.3520  1.2060
 4821TIP3   OH236021   5.934   0.400   8.358  0.0410 -0.2169 -0.0991
 4821TIP3    H136022   5.849   0.356   8.352 -0.4789  0.1870  2.6010
 4821TIP3    H236023   5.998   0.333   8.334 -0.9474 -1.1981 -0.0897
 4822TIP3   OH236024   0.703   1.924   7.144 -0.2440 -0.4679  0.5139
 4822TIP3    H136025   0.723   1.865   7.071  1.0446  0.7111 -0.1078
 4822TIP3    H236026   0.705   1.867   7.221  0.0041 -1.4187 -0.1743
 4823TIP3   OH236027   2.635   2.255   7.893 -0.0808  0.3634 -0.2773
 4823TIP3    H136028   2.584   2.179   7.867  0.5278  0.1923 -1.0156
 4823TIP3    H236029   2.619   2.265   7.987 -1.0537  0.0117 -0.3994
 4824TIP3   OH236030   4.487   3.969   1.829 -0.0901  0.4747 -0.0132
 4824TIP3    H136031   4.536   4.045   1.861  0.3201  0.0117  0.4592
 4824TIP3    H236032   4.531   3.893   1.867  0.2374 -0.0823 -1.4626
 4825TIP3   OH236033   6.044   4.914   0.931 -0.4981 -0.6756  0.1746
 4825TIP3    H136034   6.049   4.856   0.855  1.4300 -1.9211  1.2067
 4825TIP3    H236035   5.950   4.925   0.946 -0.9025 -2.2942 -0.9626
 4826TIP3   OH236036   2.576   6.146   0.681  0.2080 -0.0827  0.4147
 4826TIP3    H136037   2.512   6.214   0.702  0.2048  0.9671 -2.6206
 4826TIP3    H236038   2.588   6.099   0.764 -2.5514  1.2644  1.7177
 4827TIP3   OH236039   1.024   4.093   8.336 -0.7775 -0.2455  0.2976
 4827TIP3    H136040   1.021   4.010   8.288 -1.7652 -0.2961  0.4305
 4827TIP3    H236041   1.113   4.125   8.322 -1.3907  0.4750 -2.8669
 4828TIP3   OH236042   1.346   4.319   7.975 -0.3763 -0.3839 -0.0228
 4828TIP3    H136043   1.386   4.301   7.890  0.2993  0.3788  0.1260
 4828TIP3    H236044   1.266   4.266   7.975 -0.3455 -0.4552 -1.0944
 4829TIP3   OH236045   0.104   6.226   8.474 -0.0057  0.3773 -0.1427
 4829TIP3    H136046   0.068   6.226   8.385  0.3259 -0.5887 -0.2947
 4829TIP3    H236047   0.044   6.279   8.525 -0.8273  0.0064 -0.7068
 4830TIP3   OH236048   6.669   3.795   7.388 -0.5633  0.4459 -0.3994
 4830TIP3    H136049   6.675   3.875   7.335 -1.1298  0.3011 -0.6929
 4830TIP3    H236050   6.696   3.725   7.329  0.8099  0.5029  0.1178
 4831TIP3   OH236051   3.684   2.738   1.565  0.1182  0.1676  0.7728
 4831TIP3    H136052   3.612   2.799   1.555 -1.0488 -0.7060  2.9839
 4831TIP3    H236053   3.676   2.678   1.491  1.9729  3.1554 -2.1038
 4832TIP3   OH236054   1.934   3.504   1.045 -0.5859 -0.3719 -0.4980
 4832TIP3    H136055   1.974   3.582   1.007  1.4218  0.1366  2.3336
 4832TIP3    H236056   1.852   3.536   1.083  0.2545  0.4281  0.7050
 4833TIP3   OH236057   6.780   6.283   8.205 -0.2463 -0.3408  0.4193
 4833TIP3    H136058   6.718   6.332   8.151  0.6023  0.2862 -0.0035
 4833TIP3    H236059   6.860   6.277   8.151  0.7587  0.6515  1.7490
 4834TIP3   OH236060   0.727   1.706   1.625 -0.9534  0.3772 -0.1871
 4834TIP3    H136061   0.721   1.642   1.696  3.2168  0.6441  0.6373
 4834TIP3    H236062   0.685   1.785   1.661  0.5584  0.3437  1.8414
 4835TIP3   OH236063   2.223   6.827   1.295  0.0983  0.3377 -0.1568
 4835TIP3    H136064   2.141   6.875   1.283 -0.2513 -0.2081  0.0231
 4835TIP3    H236065   2.283   6.866   1.232 -0.3613  0.5971 -0.4387
 4836TIP3   OH236066   4.128   5.994   2.644  0.1296  0.0901  0.4828
 4836TIP3    H136067   4.036   6.017   2.654 -0.5062 -1.7326 -0.7234
 4836TIP3    H236068   4.175   6.072   2.673 -1.7387  0.6225  2.2995
 4837TIP3   OH236069   0.798   1.119   8.431  0.0945 -0.0327  0.3053
 4837TIP3    H136070   0.811   1.207   8.396  0.4971  0.0560  0.6786
 4837TIP3    H236071   0.819   1.126   8.524  1.7266 -0.8709  0.0336
 4838TIP3   OH236072   4.188   4.945   7.516 -0.1995 -1.1024  0.5398
 4838TIP3    H136073   4.273   4.959   7.558 -0.4243  0.2143  0.5955
 4838TIP3    H236074   4.204   4.875   7.453  1.3621  0.2520 -0.6447
 4839TIP3   OH236075   4.930   1.255   6.949 -0.4876 -0.3389 -0.4337
 4839TIP3    H136076   4.926   1.162   6.971 -0.2623 -0.6252 -1.5145
 4839TIP3    H236077   4.849   1.272   6.901 -0.9739  0.2642  0.5580
 4840TIP3   OH236078   3.636   4.130   2.034 -0.6072  0.1130 -0.7616
 4840TIP3    H136079   3.676   4.044   2.046 -0.6735  0.2922  1.0428
 4840TIP3    H236080   3.654   4.177   2.115 -3.0531  0.7756 -0.5104
 4841TIP3   OH236081   4.781   4.973   7.653 -0.0640  0.0857  0.0158
 4841TIP3    H136082   4.776   4.975   7.748 -0.3412  1.6921  0.0082
 4841TIP3    H236083   4.871   4.950   7.633 -0.4685 -2.2243  0.6131
 4842TIP3   OH236084   1.611   5.720   8.421  0.4942 -0.3121  0.1132
 4842TIP3    H136085   1.591   5.636   8.379 -1.7679 -0.9508  2.2329
 4842TIP3    H236086   1.539   5.777   8.395  2.3143  1.2943 -1.8049
 4843TIP3   OH236087   2.832   4.832   1.890  0.1589  0.2530  0.0503
 4843TIP3    H136088   2.918   4.851   1.929 -0.7728  0.9754  1.8679
 4843TIP3    H236089   2.801   4.917   1.858  1.6779 -0.5687 -4.1871
 4844TIP3   OH236090   3.536   4.039   0.656  0.1427  0.4178  0.6099
 4844TIP3    H136091   3.597   4.045   0.583  1.1808  2.3254  1.5472
 4844TIP3    H236092   3.450   4.055   0.617  0.7130  1.6918 -0.1833
 4845TIP3   OH236093   5.622   5.353   2.294  0.1413 -0.3341  0.6359
 4845TIP3    H136094   5.575   5.270   2.301 -0.6289  0.1728  1.9419
 4845TIP3    H236095   5.706   5.337   2.339  0.6815 -0.8424 -0.5090
 4846TIP3   OH236096   4.359   2.134   1.711  0.1512  0.4105 -0.9198
 4846TIP3    H136097   4.365   2.228   1.729 -3.3023  0.8913 -1.6216
 4846TIP3    H236098   4.366   2.128   1.616  2.3261 -0.3388 -0.7617
 4847TIP3   OH236099   1.724   6.766   1.396  0.2709 -0.1810 -0.4343
 4847TIP3    H136100   1.673   6.826   1.451 -2.3797 -1.4349 -1.3224
 4847TIP3    H236101   1.729   6.810   1.311  1.0853  0.1122 -0.2457
 4848TIP3   OH236102   1.510   5.793   0.837 -0.1899 -0.1831  0.6724
 4848TIP3    H136103   1.473   5.734   0.904  0.7697 -1.1489  0.3726
 4848TIP3    H236104   1.595   5.755   0.816 -0.8579 -0.4863 -1.8303
 4849TIP3   OH236105   6.051   6.127   2.341  0.0206 -0.1831  0.0809
 4849TIP3    H136106   5.992   6.201   2.329  0.6260  0.0838 -1.5378
 4849TIP3    H236107   5.994   6.051   2.345 -0.4807 -0.1738 -3.5095
 4850TIP3   OH236108   6.052   1.710   0.070  0.3203  0.0045  0.2382
 4850TIP3    H136109   6.001   1.785   0.041  1.7653  0.0924 -2.3456
 4850TIP3    H236110   6.099   1.741   0.147 -1.0929  0.8780  0.7789
 4851TIP3   OH236111   2.277   4.083   1.395 -0.1682  0.0325  0.3744
 4851TIP3    H136112   2.303   4.055   1.483  0.2168  1.3333  0.6924
 4851TIP3    H236113   2.254   4.175   1.404 -1.2952 -0.1068 -0.6640
 4852TIP3   OH236114   6.607   0.491   7.187 -0.6692  0.5289  0.1943
 4852TIP3    H136115   6.634   0.399   7.182 -0.6951  0.4844  0.7823
 4852TIP3    H236116   6.589   0.516   7.097 -1.9856 -0.4415  0.1659
 4853TIP3   OH236117   2.342   2.851   1.864  0.0833  0.1424 -0.4896
 4853TIP3    H136118   2.288   2.782   1.826 -1.0968  0.0352  1.2307
 4853TIP3    H236119   2.279   2.915   1.896  0.7948 -0.5093  2.5954
 4854TIP3   OH236120   1.954   3.589   8.592  0.0482  0.2703  1.0218
 4854TIP3    H136121   2.002   3.592   8.675  0.9459 -0.7674  0.5647
 4854TIP3    H236122   1.909   3.505   8.594  0.1722  0.1868  0.4031
 4855TIP3   OH236123   3.383   1.470   6.553 -0.1308 -0.1065 -0.4918
 4855TIP3    H136124   3.310   1.503   6.502 -0.3901  1.0032  0.5512
 4855TIP3    H236125   3.342   1.428   6.629  0.3038  1.0481  0.4047
 4856TIP3   OH236126   5.321   5.959   0.753  0.1273 -0.0616 -0.0739
 4856TIP3    H136127   5.242   5.954   0.700 -0.0583  0.4632  0.1445
 4856TIP3    H236128   5.328   6.052   0.776  1.3526  0.0871 -0.9257
 4857TIP3   OH236129   6.225   1.855   7.478  0.0415  0.4362  0.4070
 4857TIP3    H136130   6.251   1.795   7.548 -1.4207  1.0408  1.5240
 4857TIP3    H236131   6.304   1.864   7.424  0.0527 -3.2795 -0.4827
 4858TIP3   OH236132   2.873   5.628   6.641 -0.1465  0.3481  0.3116
 4858TIP3    H136133   2.880   5.571   6.565  0.1352  0.5635  0.1732
 4858TIP3    H236134   2.784   5.662   6.638 -0.6122 -0.7758  0.8942
 4859TIP3   OH236135   5.614   2.896   0.663 -0.0337  0.1052 -0.0221
 4859TIP3    H136136   5.689   2.838   0.668  0.2153  0.5080  1.3014
 4859TIP3    H236137   5.543   2.841   0.631  0.5729 -0.5390 -0.2768
 4860TIP3   OH236138   4.985   6.342   2.424  0.0570  0.2125  0.3082
 4860TIP3    H136139   5.057   6.324   2.364 -1.3825 -1.0821 -1.1212
 4860TIP3    H236140   5.002   6.285   2.499 -0.5228 -1.7064 -0.9452
 4861TIP3   OH236141   5.163   5.179   8.382  0.2786  0.0692 -0.2459
 4861TIP3    H136142   5.157   5.161   8.289 -0.8836  1.5093 -0.4693
 4861TIP3    H236143   5.252   5.211   8.395  1.3013 -2.4517 -0.3829
 4862TIP3   OH236144   6.050   0.429   1.808 -0.3555  0.1306 -0.0089
 4862TIP3    H136145   6.088   0.348   1.774  1.3568 -0.2145  2.4762
 4862TIP3    H236146   6.040   0.484   1.731  2.8588 -0.7378 -1.2340
 4863TIP3   OH236147   0.244   4.057   1.407 -0.8820  0.2216 -0.7670
 4863TIP3    H136148   0.322   4.034   1.458 -1.9322 -2.0053 -0.0220
 4863TIP3    H236149   0.226   3.979   1.356 -1.7874  1.2453 -2.0651
 4864TIP3   OH236150   0.554   3.080   7.018  0.1699 -0.0199  0.0650
 4864TIP3    H136151   0.643   3.046   7.024  0.2592  0.2593  0.3112
 4864TIP3    H236152   0.543   3.104   6.926  1.1213  2.0475  0.4414
 4865TIP3   OH236153   0.028   2.537   1.661 -0.7755  0.4660 -0.1188
 4865TIP3    H136154  -0.065   2.522   1.677 -0.7225  1.2617  1.0609
 4865TIP3    H236155   0.038   2.632   1.667  0.1396  0.3735 -0.1098
 4866TIP3   OH236156   0.289   0.282   0.458  0.5127  0.2607 -0.0545
 4866TIP3    H136157   0.204   0.320   0.483 -0.5611 -1.1797 -1.3310
 4866TIP3    H236158   0.340   0.357   0.428 -1.3156  0.8723 -1.9054
 4867TIP3   OH236159   6.225   5.916   1.570  0.4816 -0.9072  0.6038
 4867TIP3    H136160   6.214   5.822   1.555  2.4155 -1.0382 -0.2081
 4867TIP3    H236161   6.300   5.923   1.628 -0.0487  0.1430  1.1991
 4868TIP3   OH236162   3.103   5.929   8.214  0.4021 -0.2339 -0.1824
 4868TIP3    H136163   3.051   6.010   8.207 -1.9313 -1.6493 -0.2903
 4868TIP3    H236164   3.165   5.948   8.285 -0.3782  1.5044  0.1087
 4869TIP3   OH236165   2.943   0.422   0.500 -0.1725  0.3998 -0.6371
 4869TIP3    H136166   3.035   0.405   0.522 -0.2718 -1.0628 -1.2289
 4869TIP3    H236167   2.918   0.348   0.445 -1.8818  0.4859 -0.0191
 4870TIP3   OH236168   1.051   3.390   7.948  0.0779  0.4066 -0.4307
 4870TIP3    H136169   1.085   3.397   8.037  0.8024  1.0065 -0.7485
 4870TIP3    H236170   0.998   3.469   7.936 -1.4128 -0.4793  0.0312
 4871TIP3   OH236171   5.147   4.737   6.519 -0.3343  0.2614  0.9669
 4871TIP3    H136172   5.166   4.721   6.426  0.8751 -0.4933  1.3101
 4871TIP3    H236173   5.056   4.766   6.521  0.0284  1.7022 -0.5991
 4872TIP3   OH236174   3.399   6.593   2.219  0.1966 -0.3716  0.0062
 4872TIP3    H136175   3.378   6.686   2.213 -0.4419 -0.4355  1.0900
 4872TIP3    H236176   3.315   6.550   2.236  0.3173 -1.2705 -1.4989
 4873TIP3   OH236177   6.121   0.656   1.658 -0.1263 -0.3612  0.2614
 4873TIP3    H136178   6.119   0.606   1.576  0.0423 -1.2867  0.8174
 4873TIP3    H236179   6.040   0.707   1.656 -1.4559 -2.3712  0.7331
 4874TIP3   OH236180   6.392   1.478   1.870  0.4187  0.1216  0.4818
 4874TIP3    H136181   6.400   1.407   1.933 -0.4204 -0.1929  0.2569
 4874TIP3    H236182   6.303   1.468   1.834 -0.4126  2.3453  1.7323
 4875TIP3   OH236183   6.671   5.710   1.086  0.0221 -0.2894 -0.1455
 4875TIP3    H136184   6.611   5.759   1.142 -0.8361 -2.9816  1.5085
 4875TIP3    H236185   6.616   5.646   1.041  1.2051 -0.5361 -1.2995
 4876TIP3   OH236186   4.685   5.606   8.655 -0.1852 -0.1026  0.3151
 4876TIP3    H136187   4.702   5.512   8.668 -0.2005 -0.1731 -0.1636
 4876TIP3    H236188   4.592   5.617   8.672  0.2439  0.2630  2.8289
 4877TIP3   OH236189   2.359   6.258   1.726  0.1259 -0.3410  0.3024
 4877TIP3    H136190   2.420   6.251   1.653  0.4285 -1.9089  0.6698
 4877TIP3    H236191   2.290   6.194   1.706 -0.5425  0.2347  0.7008
 4878TIP3   OH236192   5.344   6.719   8.379  0.5369  0.3727  0.5348
 4878TIP3    H136193   5.378   6.768   8.454  3.5213 -2.1883  1.0628
 4878TIP3    H236194   5.421   6.701   8.325 -0.7161 -1.9540 -0.6340
 4879TIP3   OH236195   5.023   6.125   7.690  0.2642  0.3122  0.1193
 4879TIP3    H136196   5.118   6.130   7.701  0.3306  0.0936 -0.3435
 4879TIP3    H236197   5.000   6.204   7.642 -0.1972  1.9474  2.8663
 4880TIP3   OH236198   3.311   3.481   0.955 -0.1917 -1.2552 -0.2143
 4880TIP3    H136199   3.320   3.506   0.863 -1.6442 -0.7333 -0.2330
 4880TIP3    H236200   3.378   3.531   1.000 -0.6074 -0.1776 -0.7682
 4881TIP3   OH236201   1.662   1.758   7.438  0.1194  0.8873 -0.2290
 4881TIP3    H136202   1.601   1.826   7.466 -2.1877 -0.8722 -0.6629
 4881TIP3    H236203   1.683   1.778   7.347 -0.1386  1.2831 -0.1985
 4882TIP3   OH236204   1.866   1.731   6.630  0.2648  0.0568 -0.2742
 4882TIP3    H136205   1.823   1.696   6.553  0.0559 -1.6200  0.5563
 4882TIP3    H236206   1.796   1.774   6.679  0.3355  0.8279 -0.8293
 4883TIP3   OH236207   1.640   6.726   6.496 -0.1771  0.1921  0.3874
 4883TIP3    H136208   1.724   6.722   6.450  0.4313 -1.1045  1.5539
 4883TIP3    H236209   1.621   6.820   6.503  1.0531  0.4931 -0.0905
 4884TIP3   OH236210   5.019   4.226   2.128  0.1559  0.1461 -0.5112
 4884TIP3    H136211   5.066   4.293   2.078 -0.2352  0.0729 -0.9872
 4884TIP3    H236212   4.940   4.271   2.159  0.4075  0.1965  0.0630
 4885TIP3   OH236213   1.869   6.835   7.138 -0.2739  0.7313 -0.3795
 4885TIP3    H136214   1.952   6.851   7.092  0.1592  1.1422  0.5037
 4885TIP3    H236215   1.829   6.762   7.091  0.4276  0.7485 -1.0310
 4886TIP3   OH236216   5.912   5.162   1.686 -0.2090 -0.3455  0.3011
 4886TIP3    H136217   5.818   5.166   1.664 -1.4607 -3.2515  4.1666
 4886TIP3    H236218   5.914   5.132   1.777  4.5528 -1.5900  0.0126
 4887TIP3   OH236219   0.818   3.591   0.782 -0.1281 -0.0331 -0.0899
 4887TIP3    H136220   0.825   3.600   0.877  1.6404  1.5055 -0.3021
 4887TIP3    H236221   0.755   3.658   0.756  1.0036  1.0492 -0.1571
 4888TIP3   OH236222   3.858   5.696   8.173  0.1525  0.1364  0.1040
 4888TIP3    H136223   3.903   5.729   8.251 -1.1786  1.6394  0.2921
 4888TIP3    H236224   3.776   5.660   8.205 -0.4374  0.8205 -0.5966
 4889TIP3   OH236225   0.491   2.682   2.610  0.1619 -0.2795 -0.6695
 4889TIP3    H136226   0.407   2.670   2.655  0.3190  0.0577 -0.2718
 4889TIP3    H236227   0.485   2.771   2.574  1.3937  0.8867  1.7199
 4890TIP3   OH236228   0.391   3.931   0.224 -0.4427  0.1321 -0.2943
 4890TIP3    H136229   0.377   4.007   0.168  0.5714  0.2689 -0.3810
 4890TIP3    H236230   0.472   3.950   0.271 -0.7787 -0.3924  0.5363
 4891TIP3   OH236231   2.612   1.516   0.488 -0.1126  0.2570 -0.7513
 4891TIP3    H136232   2.577   1.435   0.450 -0.2842  0.3172 -0.7222
 4891TIP3    H236233   2.701   1.493   0.515 -1.1427 -0.8456  2.1369
 4892TIP3   OH236234   3.120   1.802   0.243 -0.3187  0.9690  0.3359
 4892TIP3    H136235   3.158   1.766   0.163 -0.5284  1.6284 -0.0670
 4892TIP3    H236236   3.181   1.776   0.312 -0.8287 -0.7762  0.1838
 4893TIP3   OH236237   5.252   2.484   7.287  0.0679 -0.2885  0.3000
 4893TIP3    H136238   5.203   2.408   7.317 -1.9567  0.5510 -0.6853
 4893TIP3    H236239   5.255   2.542   7.363  0.8116 -0.9186  0.7753
 4894TIP3   OH236240   3.417   5.069   0.017  0.2550 -0.2126  0.0443
 4894TIP3    H136241   3.455   5.033  -0.063  0.0129 -0.0180 -0.1654
 4894TIP3    H236242   3.417   4.997   0.079 -0.0354 -0.5168 -0.3033
 4895TIP3   OH236243   0.166   3.948   8.041  0.4665  0.0080 -0.0597
 4895TIP3    H136244   0.118   3.891   7.980  2.1381 -2.3969  0.7339
 4895TIP3    H236245   0.251   3.961   7.999 -0.3412  3.3775 -0.9622
 4896TIP3   OH236246   2.260   4.671   2.650  0.2229 -0.7033  0.8377
 4896TIP3    H136247   2.315   4.595   2.668  1.5241  0.0884  0.3469
 4896TIP3    H236248   2.311   4.746   2.680 -0.4768  0.0831  0.1282
 4897TIP3   OH236249   6.165   6.318   8.622 -0.5221  0.3927  0.2377
 4897TIP3    H136250   6.188   6.398   8.669  0.1058 -0.8453  2.1625
 4897TIP3    H236251   6.247   6.268   8.617 -0.2336  0.9623 -3.3883
 4898TIP3   OH236252   1.378   3.445   8.301  0.5288 -0.4563  0.2240
 4898TIP3    H136253   1.460   3.415   8.261 -0.2776 -0.6547 -1.3588
 4898TIP3    H236254   1.392   3.538   8.318  0.3742  0.0579 -2.0803
 4899TIP3   OH236255   1.884   3.310   7.147  0.1839 -0.0142 -0.3049
 4899TIP3    H136256   1.873   3.400   7.179  1.3672 -0.3790  1.2963
 4899TIP3    H236257   1.975   3.307   7.116  0.0817 -0.6014 -0.5489
 4900TIP3   OH236258   1.160   0.434   0.955 -0.2642 -0.1443 -0.3646
 4900TIP3    H136259   1.236   0.478   0.993 -0.6563 -0.5161  0.8946
 4900TIP3    H236260   1.130   0.492   0.886 -0.6038  1.4673  1.0740
 4901TIP3   OH236261   6.025   0.666   1.965  0.1794 -0.3962 -0.1694
 4901TIP3    H136262   6.008   0.614   1.886  1.1171 -0.4875 -0.3220
 4901TIP3    H236263   6.113   0.641   1.992  0.8845  1.4906 -0.5427
 4902TIP3   OH236264   5.245   5.629   1.769  0.1337 -0.0445 -0.8416
 4902TIP3    H136265   5.155   5.620   1.738  0.5557 -1.9293 -1.6157
 4902TIP3    H236266   5.299   5.602   1.695  1.3265  0.4654 -0.1830
 4903TIP3   OH236267   1.473   0.040   8.375 -0.2261  0.5191  0.7841
 4903TIP3    H136268   1.385   0.055   8.411  0.3221  1.0166  1.9484
 4903TIP3    H236269   1.532   0.052   8.449  0.8872  0.7608 -0.1140
 4904TIP3   OH236270   2.609   4.941   1.404 -0.2763 -0.1657 -0.1261
 4904TIP3    H136271   2.619   5.035   1.417  0.2830 -0.4922  2.3162
 4904TIP3    H236272   2.695   4.911   1.375 -0.3972  0.0427 -0.7057
 4905TIP3   OH236273   6.627   6.503   0.830  0.2443  0.0378 -0.0642
 4905TIP3    H136274   6.627   6.585   0.781 -1.2596 -0.9778 -1.8855
 4905TIP3    H236275   6.696   6.451   0.789 -2.0300 -1.4033 -2.3022
 4906TIP3   OH236276   3.025   1.726   1.226 -0.7223  0.2302  0.4987
 4906TIP3    H136277   3.016   1.697   1.135  0.7668  1.4495 -0.0847
 4906TIP3    H236278   3.119   1.740   1.237 -0.9688  0.8644  1.9822
 4907TIP3   OH236279   3.536   1.618   8.164  0.3886  0.1381 -0.2516
 4907TIP3    H136280   3.556   1.540   8.216 -1.1999 -1.7316 -2.2258
 4907TIP3    H236281   3.441   1.614   8.151  0.5051  1.4649 -1.8102
 4908TIP3   OH236282   0.745   6.830   1.060  1.0334  0.8878 -0.6946
 4908TIP3    H136283   0.765   6.820   1.153  3.1731  0.4134 -1.1548
 4908TIP3    H236284   0.650   6.836   1.056  0.7311 -1.2809  1.3180
 4909TIP3   OH236285   2.767   1.303   1.710  0.1306  0.8005  0.2621
 4909TIP3    H136286   2.792   1.262   1.627  1.6745 -1.9917  1.9343
 4909TIP3    H236287   2.843   1.353   1.737 -0.0241  0.9449  0.4373
 4910TIP3   OH236288   5.136   3.701   1.512 -0.2561 -0.8171 -0.0890
 4910TIP3    H136289   5.051   3.715   1.553 -1.0085  0.4657 -1.9681
 4910TIP3    H236290   5.118   3.645   1.436  0.4113  0.1332 -0.9719
 4911TIP3   OH236291   2.475   2.904   6.791  0.1434 -0.2558 -0.0929
 4911TIP3    H136292   2.385   2.915   6.824 -0.0818  1.2508 -1.1135
 4911TIP3    H236293   2.529   2.904   6.870 -0.5518  1.4356  0.4250
 4912TIP3   OH236294   6.075   5.741   2.606  0.5223 -1.1676  0.4898
 4912TIP3    H136295   5.990   5.767   2.571  1.1058 -0.2408 -0.3005
 4912TIP3    H236296   6.056   5.667   2.664 -1.1264  0.5506  2.2678
 4913TIP3   OH236297   0.047   2.833   7.152 -0.5898  0.4146 -0.4873
 4913TIP3    H136298   0.040   2.741   7.127  2.0777 -0.1049  0.3470
 4913TIP3    H236299   0.124   2.865   7.105 -1.2945  2.1420 -0.5172
 4914TIP3   OH236300   0.890   2.387   6.861  0.4218 -0.3290 -0.5664
 4914TIP3    H136301   0.938   2.425   6.787  0.2191 -1.1337 -1.1245
 4914TIP3    H236302   0.856   2.303   6.828  2.3061 -1.8638  1.1194
 4915TIP3   OH236303   6.665   3.792   1.581  0.1983 -0.5716 -0.3972
 4915TIP3    H136304   6.634   3.875   1.545 -0.1924 -1.0482 -1.2050
 4915TIP3    H236305   6.753   3.781   1.543  0.0019 -0.8150 -0.7930
 4916TIP3   OH236306   1.517   5.157   8.080  0.3746  0.7814  0.0374
 4916TIP3    H136307   1.455   5.086   8.060  0.6254  0.6501 -0.2823
 4916TIP3    H236308   1.479   5.201   8.155  0.8102 -0.4404  1.0169
 4917TIP3   OH236309   0.749   0.337   1.407  0.0867 -0.3074  0.0538
 4917TIP3    H136310   0.782   0.427   1.403  2.3495 -1.0517 -3.8841
 4917TIP3    H236311   0.787   0.301   1.487  1.8143  1.3772  0.0646
 4918TIP3   OH236312   2.160   3.027   0.727 -0.1941  0.2358  0.1870
 4918TIP3    H136313   2.216   3.017   0.650  0.8994  0.4580  0.9418
 4918TIP3    H236314   2.145   2.938   0.758 -1.3166  0.0744 -0.7293
 4919TIP3   OH236315   3.540   2.716   7.741  0.5031 -0.0500  0.2503
 4919TIP3    H136316   3.447   2.734   7.757  0.0442 -0.7356 -1.4057
 4919TIP3    H236317   3.562   2.647   7.803  0.5149  1.5248  2.1011
 4920TIP3   OH236318   6.303   5.081   0.007 -0.6915 -0.6592  0.0737
 4920TIP3    H136319   6.303   5.060   0.101  1.9153  1.2321  0.5819
 4920TIP3    H236320   6.246   5.157  -0.000 -0.9472 -0.8463  0.0882
 4921TIP3   OH236321   5.875   6.684   7.130 -0.2152 -0.1491 -0.2260
 4921TIP3    H136322   5.824   6.726   7.200  0.1156  0.4138 -0.3092
 4921TIP3    H236323   5.916   6.608   7.171  2.0059  1.5410  0.9142
 4922TIP3   OH236324   1.764   3.871   0.101  0.2921 -0.4068 -0.6388
 4922TIP3    H136325   1.790   3.960   0.076  0.4905 -0.5076 -0.7905
 4922TIP3    H236326   1.782   3.867   0.195 -0.7626  0.0788 -0.3942
 4923TIP3   OH236327   6.493   0.977   1.358  0.1115 -0.5667 -0.1371
 4923TIP3    H136328   6.434   0.992   1.432 -0.3265 -0.3538 -0.5235
 4923TIP3    H236329   6.476   1.051   1.299  0.2465 -0.8895 -0.5831
 4924TIP3   OH236330   3.080   4.028   8.489 -0.0809 -0.0206  0.0625
 4924TIP3    H136331   3.138   4.031   8.565 -1.6616  1.3541  1.2800
 4924TIP3    H236332   3.010   3.968   8.514 -0.1252 -0.3102 -0.7047
 4925TIP3   OH236333   4.667   6.553   7.299 -0.6532 -0.2673  1.0007
 4925TIP3    H136334   4.706   6.540   7.385 -2.2378  0.3930  1.8703
 4925TIP3    H236335   4.591   6.610   7.315 -1.4911 -0.8200 -0.6944
 4926TIP3   OH236336   4.989   2.518   1.233  0.1519  0.3094 -0.2231
 4926TIP3    H136337   5.069   2.467   1.250 -0.9276 -1.6019 -0.6421
 4926TIP3    H236338   4.937   2.507   1.312 -0.9429 -0.9736 -1.0730
 4927TIP3   OH236339   5.292   5.791   0.971  0.5222 -0.6186 -0.1388
 4927TIP3    H136340   5.298   5.846   0.893  0.8183  0.6397  0.7421
 4927TIP3    H236341   5.242   5.843   1.034  0.2261 -1.6415  0.4977
 4928TIP3   OH236342   5.910   4.427   1.676 -0.1128 -0.4207  0.0471
 4928TIP3    H136343   5.848   4.417   1.748  0.3244  0.5661  0.5703
 4928TIP3    H236344   5.994   4.401   1.712  0.1104  0.0969 -0.0825
 4929TIP3   OH236345   1.363   1.211   0.843 -0.1810  0.7378 -0.6830
 4929TIP3    H136346   1.417   1.255   0.909 -2.1096  0.0558  1.4915
 4929TIP3    H236347   1.412   1.132   0.820  0.1936  0.5979  0.5337
 4930TIP3   OH236348   0.192   4.971   7.761  0.1136  0.3641  0.5044
 4930TIP3    H136349   0.177   4.884   7.798 -1.1074  0.4728  0.3284
 4930TIP3    H236350   0.248   4.956   7.685  0.6756 -0.1475  1.0089
 4931TIP3   OH236351   1.505   2.404   0.901 -0.1808  0.5014  0.1040
 4931TIP3    H136352   1.531   2.476   0.843 -0.0772  0.8536  0.5750
 4931TIP3    H236353   1.488   2.447   0.985 -0.2583 -0.0100  0.3520
 4932TIP3   OH236354   2.566   6.754   7.241  0.0613  0.0506  0.4067
 4932TIP3    H136355   2.483   6.783   7.202  0.3106 -1.2557 -1.2186
 4932TIP3    H236356   2.611   6.708   7.170  1.6878 -0.2688  1.5809
 4933TIP3   OH236357   4.620   1.420   7.048  0.2087  0.3902 -0.0939
 4933TIP3    H136358   4.675   1.488   7.010  1.3617 -0.6244 -0.2765
 4933TIP3    H236359   4.532   1.438   7.013  0.4573  1.8533 -0.0187
 4934TIP3   OH236360   3.944   4.372   7.636 -0.3493  0.4584 -0.4222
 4934TIP3    H136361   3.985   4.421   7.708  2.4040  0.3093 -1.7612
 4934TIP3    H236362   3.897   4.439   7.587  0.5779  1.2009 -0.3503
 4935TIP3   OH236363   5.273   4.789   8.071  0.1716 -0.9052  0.4482
 4935TIP3    H136364   5.350   4.807   8.017 -0.1137  1.0956  0.6264
 4935TIP3    H236365   5.309   4.770   8.158  0.5247 -1.9054  0.0999
 4936TIP3   OH236366   3.242   2.905   1.406  0.1617 -0.3101  0.0796
 4936TIP3    H136367   3.149   2.887   1.392 -0.3828  2.3438 -0.2541
 4936TIP3    H236368   3.244   2.959   1.485  1.2290  0.7798 -0.6557
 4937TIP3   OH236369   2.768   5.172   7.175  0.1885 -0.4365  0.5357
 4937TIP3    H136370   2.825   5.123   7.116 -0.9187 -0.4902 -0.5216
 4937TIP3    H236371   2.704   5.214   7.118 -0.7950 -0.3225  1.6751
 4938TIP3   OH236372   5.270   3.473   7.479 -0.9229  0.4767 -0.3648
 4938TIP3    H136373   5.330   3.491   7.406  0.1386 -0.1706  0.3175
 4938TIP3    H236374   5.197   3.533   7.465  0.1507  1.7258 -0.8966
 4939TIP3   OH236375   2.708   6.365   6.347  0.4354 -0.6669  0.1014
 4939TIP3    H136376   2.619   6.331   6.341 -0.0578  0.5857  0.0274
 4939TIP3    H236377   2.749   6.342   6.264 -0.4522  0.4250 -0.6698
 4940TIP3   OH236378   1.809   0.826   7.163 -0.4662  0.1203  0.0733
 4940TIP3    H136379   1.795   0.774   7.242 -0.5155  0.7974  0.5216
 4940TIP3    H236380   1.793   0.766   7.090  0.6846 -0.8168  0.5691
 4941TIP3   OH236381   1.759   1.739   0.198 -0.2455 -0.6346  0.2416
 4941TIP3    H136382   1.747   1.654   0.242 -1.5686 -0.2618  0.6556
 4941TIP3    H236383   1.831   1.780   0.244  1.3281 -2.0577 -0.8182
 4942TIP3   OH236384   0.156   4.669   8.606 -0.5132 -0.1049 -0.0772
 4942TIP3    H136385   0.229   4.718   8.644  0.2647  0.9410 -2.6950
 4942TIP3    H236386   0.097   4.735   8.571 -2.3612 -0.9649  1.2681
 4943TIP3   OH236387   3.662   0.921   0.837 -0.4254 -0.2778  0.4713
 4943TIP3    H136388   3.609   0.858   0.886 -0.3501 -0.8980 -0.2331
 4943TIP3    H236389   3.740   0.873   0.811 -1.3205 -0.5848 -1.9223
 4944TIP3   OH236390   3.145   1.441   0.191 -0.4033  0.0234  0.8077
 4944TIP3    H136391   3.107   1.415   0.108  3.0808 -1.8148 -0.4224
 4944TIP3    H236392   3.207   1.511   0.169  1.5537 -1.3838  1.5049
 4945TIP3   OH236393   2.873   0.736   7.864 -0.6882  0.2784  0.0578
 4945TIP3    H136394   2.857   0.758   7.772 -0.0501 -0.9653 -0.3674
 4945TIP3    H236395   2.787   0.713   7.899 -0.8916  0.5119 -0.2863
 4946TIP3   OH236396   4.820   2.047   0.299 -0.5269 -0.7704  0.0390
 4946TIP3    H136397   4.795   2.101   0.374  1.8964 -2.2861  2.0885
 4946TIP3    H236398   4.757   1.974   0.300 -2.3843  0.6986 -1.3649
 4947TIP3   OH236399   4.737   1.884   7.700 -0.7540 -0.0429  0.0684
 4947TIP3    H136400   4.810   1.919   7.649  0.2994  0.4524  1.8148
 4947TIP3    H236401   4.766   1.892   7.791 -2.3920 -1.2347  0.7402
 4948TIP3   OH236402   0.261   3.342   8.022  0.4979 -0.6437  0.2433
 4948TIP3    H136403   0.343   3.370   7.983  0.2644  0.7796  0.7305
 4948TIP3    H236404   0.219   3.289   7.954  0.8511  0.4003 -0.8196
 4949TIP3   OH236405   5.474   2.472   7.115 -0.3555 -0.3717  0.4695
 4949TIP3    H136406   5.395   2.455   7.166 -0.3788  1.2570  1.0381
 4949TIP3    H236407   5.460   2.559   7.077 -0.2760 -1.4430 -2.2393
 4950TIP3   OH236408   1.967   1.129   7.499 -0.1986  0.2037 -0.0480
 4950TIP3    H136409   2.054   1.164   7.519 -0.0137  0.6634 -1.5090
 4950TIP3    H236410   1.981   1.078   7.419 -1.0094 -0.9455  0.5108
 4951TIP3   OH236411   2.598   4.630   8.049 -0.2810 -0.0033  0.3200
 4951TIP3    H136412   2.594   4.646   8.144 -0.6404  0.0744  0.2936
 4951TIP3    H236413   2.518   4.581   8.030 -0.9738  1.2927 -0.1934
 4952TIP3   OH236414   2.792   2.323   8.427 -0.1408  0.2260  0.2477
 4952TIP3    H136415   2.741   2.347   8.349  0.1763  0.7047  0.1852
 4952TIP3    H236416   2.734   2.265   8.476  0.0982 -1.0404 -0.9279
 4953TIP3   OH236417   3.838   4.863   7.997 -0.5557 -0.2834  1.3093
 4953TIP3    H136418   3.885   4.907   8.068  0.0255 -0.2839  0.9325
 4953TIP3    H236419   3.751   4.846   8.033 -0.4872  0.3269  1.7871
 4954TIP3   OH236420   4.397   2.437   1.765  0.2100 -0.0310 -0.1013
 4954TIP3    H136421   4.423   2.485   1.687 -2.5069  0.6102 -0.7113
 4954TIP3    H236422   4.453   2.472   1.835 -1.0646  3.4994 -0.6665
 4955TIP3   OH236423   3.406   0.464   0.521 -0.1708 -0.1338  0.0083
 4955TIP3    H136424   3.497   0.441   0.504 -0.1383 -1.2788  1.5326
 4955TIP3    H236425   3.410   0.550   0.563  0.2841 -0.5506  0.8387
 4956TIP3   OH236426   0.498   0.050   8.468  0.2483  0.2600  0.0871
 4956TIP3    H136427   0.534   0.049   8.380  2.2283 -0.6933  0.8481
 4956TIP3    H236428   0.405   0.030   8.456  0.3501  0.7314 -1.8041
 4957TIP3   OH236429   3.556   2.816   7.409  0.9702 -0.1147 -0.3511
 4957TIP3    H136430   3.473   2.779   7.382  1.6880 -1.5469 -0.6706
 4957TIP3    H236431   3.607   2.741   7.440  1.6760  0.9088  1.0798
 4958TIP3   OH236432   5.109   3.154   0.766  0.3984  0.4772 -0.2688
 4958TIP3    H136433   5.039   3.196   0.716 -0.4475 -0.3512  0.1852
 4958TIP3    H236434   5.135   3.220   0.832 -0.2068  0.6596 -0.2080
 4959TIP3   OH236435   5.524   4.893   0.413  0.1792  0.0344  0.4168
 4959TIP3    H136436   5.547   4.819   0.468  2.2339 -0.5987 -1.1549
 4959TIP3    H236437   5.477   4.854   0.339 -0.4087  0.5625  0.5016
 4960TIP3   OH236438   6.120   1.915   7.165  0.0457 -0.3933 -0.3513
 4960TIP3    H136439   6.071   1.859   7.105  0.4663  0.5374 -1.6061
 4960TIP3    H236440   6.184   1.959   7.109 -0.8027  1.9690  0.4292
 4961TIP3   OH236441   6.085   3.062   1.653 -1.0587 -0.1666  0.2899
 4961TIP3    H136442   6.138   3.086   1.729 -2.2503  0.5669  0.9233
 4961TIP3    H236443   6.075   3.143   1.604  2.0617 -1.1352 -2.2798
 4962TIP3   OH236444   3.033   6.753   0.785  0.1916 -0.0566 -0.1101
 4962TIP3    H136445   3.113   6.773   0.737 -0.2944 -0.4048 -1.0953
 4962TIP3    H236446   3.058   6.686   0.848  0.1919 -2.0796 -2.1210
 4963TIP3   OH236447   3.894   1.940   8.452 -0.3826  0.4156  0.4471
 4963TIP3    H136448   3.876   1.847   8.438  0.2405  0.1279  1.4940
 4963TIP3    H236449   3.813   1.975   8.489 -0.9650  0.5242 -0.8613
 4964TIP3   OH236450   1.458   1.600   8.532 -0.1381  0.2734 -0.1811
 4964TIP3    H136451   1.536   1.656   8.537  0.3941 -0.4746  0.0425
 4964TIP3    H236452   1.419   1.605   8.619  0.1315 -0.0219 -0.0446
 4965TIP3   OH236453   3.224   1.341   0.436 -0.3135  0.0814 -0.2128
 4965TIP3    H136454   3.184   1.266   0.481 -0.5449  0.4312  0.1642
 4965TIP3    H236455   3.219   1.318   0.343  1.4408 -1.2964 -0.0200
 4966TIP3   OH236456   4.369   0.351   1.632 -0.0180  0.5469  0.2233
 4966TIP3    H136457   4.444   0.405   1.655  1.2015 -0.7279 -0.6247
 4966TIP3    H236458   4.380   0.271   1.684 -1.5371  0.8771  1.1073
 4967TIP3   OH236459   6.041   1.191   7.859 -0.4714  0.1025  0.5127
 4967TIP3    H136460   5.947   1.178   7.848 -0.2161 -0.8886 -0.7059
 4967TIP3    H236461   6.077   1.104   7.873  0.3976  0.3152 -0.2410
 4968TIP3   OH236462   4.992   4.643   6.751 -0.4828 -0.2400 -0.2494
 4968TIP3    H136463   4.975   4.737   6.753 -0.1425 -0.1884  0.0924
 4968TIP3    H236464   4.906   4.603   6.767 -0.2831  0.0291  1.7751
 4969TIP3   OH236465   4.613   5.202   8.086  0.1320  0.5396 -0.8533
 4969TIP3    H136466   4.684   5.222   8.146  0.6980  1.0136 -1.6537
 4969TIP3    H236467   4.554   5.146   8.136 -0.0879  1.9786  0.5593
 4970TIP3   OH236468   2.861   0.109   6.864  0.2172 -0.2578 -0.2838
 4970TIP3    H136469   2.820   0.083   6.782 -0.0589 -0.8197  0.0267
 4970TIP3    H236470   2.894   0.027   6.901  0.4770  0.0127  0.0886
 4971TIP3   OH236471   1.770   3.751   0.786 -0.2172 -0.1205 -0.1976
 4971TIP3    H136472   1.718   3.828   0.761  0.3917  0.0747 -0.8834
 4971TIP3    H236473   1.807   3.774   0.871  0.9527  0.8559 -0.9461
 4972TIP3   OH236474   3.210   0.142   0.271  1.0122 -0.2671 -0.7990
 4972TIP3    H136475   3.116   0.157   0.272  1.1943  0.9822 -0.6504
 4972TIP3    H236476   3.248   0.229   0.265  2.1557 -0.8106 -1.9995
 4973TIP3   OH236477   2.839   0.099   8.186 -0.2676 -0.2180  0.1714
 4973TIP3    H136478   2.884   0.150   8.254  0.1227 -1.8172  1.1725
 4973TIP3    H236479   2.904   0.086   8.117 -0.2033  0.1782  0.1585
 4974TIP3   OH236480   6.278   1.336   0.632 -0.1992  0.1790 -0.2752
 4974TIP3    H136481   6.303   1.259   0.581  0.7050 -0.0040  0.4015
 4974TIP3    H236482   6.250   1.400   0.567 -1.7346 -0.9671 -0.8011
 4975TIP3   OH236483   1.993   2.764   1.582  0.0586  0.1748 -0.3925
 4975TIP3    H136484   2.017   2.846   1.538 -0.0214  0.7372  0.5698
 4975TIP3    H236485   1.898   2.769   1.590 -0.1049 -0.7014 -1.6246
 4976TIP3   OH236486   2.346   0.226   7.631 -0.0359  0.0513 -0.2545
 4976TIP3    H136487   2.324   0.290   7.563  0.8043  0.2665 -0.3390
 4976TIP3    H236488   2.262   0.205   7.672 -0.1518  2.6355  1.0335
 4977TIP3   OH236489   3.166   5.631   0.335  0.5668  0.2085  0.0679
 4977TIP3    H136490   3.202   5.684   0.264  1.9218  1.3250  1.5043
 4977TIP3    H236491   3.077   5.664   0.347  1.1623  1.7693  0.4936
 4978TIP3   OH236492   5.843   4.067   7.626  0.1728 -0.1270  0.3045
 4978TIP3    H136493   5.880   3.999   7.682  0.8035  0.9310  1.2336
 4978TIP3    H236494   5.915   4.090   7.566 -0.2490 -0.7162 -0.4438
 4979TIP3   OH236495   4.794   2.118   8.442  0.4414 -0.1627  0.1347
 4979TIP3    H136496   4.843   2.164   8.510 -0.5984  1.1135  0.0473
 4979TIP3    H236497   4.703   2.118   8.473 -0.0897  0.6487 -1.3378
 4980TIP3   OH236498   0.129   6.574   7.464  0.3478  0.2196  0.3739
 4980TIP3    H136499   0.043   6.553   7.426 -0.4858  2.5128  0.8185
 4980TIP3    H236500   0.186   6.504   7.433 -1.3263 -0.5315 -1.2580
 4981TIP3   OH236501   1.265   5.128   7.130 -0.1391  0.5264  0.1073
 4981TIP3    H136502   1.206   5.164   7.196 -0.8238 -0.3495 -0.0080
 4981TIP3    H236503   1.253   5.033   7.136  0.6143  0.3754 -0.5208
 4982TIP3   OH236504   1.014   6.586   6.901  0.1838 -0.0061  0.0171
 4982TIP3    H136505   0.969   6.607   6.819 -1.9133 -2.2965  0.4843
 4982TIP3    H236506   1.024   6.491   6.899  1.5861  0.0599  1.7110
 4983TIP3   OH236507   5.168   1.294   2.733 -0.7123 -0.7833 -0.2330
 4983TIP3    H136508   5.222   1.369   2.710 -0.0457 -1.1777  0.0335
 4983TIP3    H236509   5.080   1.331   2.747 -0.7956 -0.3116 -1.8326
 4984TIP3   OH236510   0.192   4.714   7.881 -0.4628 -0.2866  0.0958
 4984TIP3    H136511   0.150   4.667   7.809 -1.0801 -0.1883  0.3899
 4984TIP3    H236512   0.259   4.653   7.914 -0.9007 -0.7497  0.1338
 4985TIP3   OH236513   5.963   2.360   7.675 -0.0783 -0.4742  0.1054
 4985TIP3    H136514   5.917   2.392   7.753 -1.6743 -0.1096 -0.9274
 4985TIP3    H236515   5.956   2.432   7.612 -0.7820 -1.5776 -1.1311
 4986TIP3   OH236516   2.867   1.406   0.607  0.1333  0.1043  0.1880
 4986TIP3    H136517   2.895   1.428   0.519  0.6028  1.2065  0.6034
 4986TIP3    H236518   2.947   1.406   0.659 -0.0255 -1.2813  0.4933
 4987TIP3   OH236519   0.662   6.112   8.227  0.2005  0.1511 -0.1731
 4987TIP3    H136520   0.640   6.022   8.201  2.0381 -0.4974  0.3539
 4987TIP3    H236521   0.757   6.115   8.223  0.1940  1.9782  0.2177
 4988TIP3   OH236522   5.456   4.242   2.079 -0.2879  0.0877 -0.1220
 4988TIP3    H136523   5.388   4.177   2.090  1.2856 -1.3933  1.4998
 4988TIP3    H236524   5.411   4.326   2.088 -2.5107 -0.6147 -3.0971
 4989TIP3   OH236525   1.352   2.426   0.388  0.0996  0.4582 -0.3101
 4989TIP3    H136526   1.346   2.496   0.454  1.5943  0.7587 -0.4495
 4989TIP3    H236527   1.297   2.356   0.422 -0.6731  1.3479  0.3093
 4990TIP3   OH236528   5.257   6.593   7.556 -1.0367  0.1927  0.2592
 4990TIP3    H136529   5.236   6.623   7.467 -0.1645 -0.1341 -0.0632
 4990TIP3    H236530   5.337   6.543   7.546 -0.5942  0.6686  1.3356
 4991TIP3   OH236531   6.829   2.760   1.092 -0.8064 -0.4005 -0.3859
 4991TIP3    H136532   6.871   2.714   1.164 -0.5155 -0.8367 -0.8203
 4991TIP3    H236533   6.786   2.835   1.132  1.1104  0.5665 -0.0294
 4992TIP3   OH236534   0.157   1.545   8.161  0.3802 -0.2262  0.5208
 4992TIP3    H136535   0.165   1.576   8.251 -1.7507 -1.5748  1.2587
 4992TIP3    H236536   0.098   1.469   8.167  0.2217 -0.3901 -1.9980
 4993TIP3   OH236537   3.846   4.423   7.048  0.1275  0.4420  0.2038
 4993TIP3    H136538   3.823   4.511   7.078 -1.6205 -0.4065  1.6230
 4993TIP3    H236539   3.773   4.397   6.992 -0.2328 -0.6712  1.1307
 4994TIP3   OH236540   3.278   0.652   0.215 -0.2087  0.0568 -0.1859
 4994TIP3    H136541   3.350   0.667   0.277 -0.9193 -0.8746  0.9118
 4994TIP3    H236542   3.264   0.737   0.174  0.7298  0.5421  0.4574
 4995TIP3   OH236543   4.909   4.874   0.054  0.5939 -0.5630  0.0779
 4995TIP3    H136544   4.939   4.953   0.009  0.2983  0.0510  0.9309
 4995TIP3    H236545   4.816   4.868   0.033  0.4462 -0.2543  0.6110
 4996TIP3   OH236546   0.672   5.549   8.029 -0.0234 -0.0016 -0.0427
 4996TIP3    H136547   0.603   5.554   7.962  0.7699 -0.7247 -0.9368
 4996TIP3    H236548   0.754   5.549   7.979  0.6711  1.3616  1.0168
 4997TIP3   OH236549   3.846   1.192   0.236  0.3942  0.6146  0.5221
 4997TIP3    H136550   3.859   1.101   0.264  0.9933  0.8128  0.9178
 4997TIP3    H236551   3.827   1.239   0.317 -1.3071  0.6229  0.1562
 4998TIP3   OH236552   2.443   4.492   2.787 -0.5574  0.4593  0.0081
 4998TIP3    H136553   2.382   4.495   2.861  0.1200  0.7913  0.5733
 4998TIP3    H236554   2.530   4.490   2.829 -0.1911 -0.5184 -0.7654
 4999TIP3   OH236555   4.551   5.403   1.814  0.0862  0.5697  0.8814
 4999TIP3    H136556   4.525   5.328   1.868  0.1299 -1.1851 -1.3636
 4999TIP3    H236557   4.614   5.451   1.868 -1.6598  0.3413  3.2839
 5000TIP3   OH236558   2.022   5.661   0.906  0.5044  0.4310 -0.0684
 5000TIP3    H136559   1.949   5.607   0.936  0.0829  0.3555 -1.1944
 5000TIP3    H236560   2.014   5.742   0.957  0.0287  0.1675  0.2882
 5001TIP3   OH236561   2.662   0.720   0.209  0.4467 -0.4043 -0.1640
 5001TIP3    H136562   2.742   0.680   0.246 -0.8010 -2.1272  0.8605
 5001TIP3    H236563   2.671   0.813   0.229  1.9361 -0.6371  0.4458
 5002TIP3   OH236564   0.673   2.482   2.533  0.4243 -0.2272  0.4699
 5002TIP3    H136565   0.641   2.568   2.558 -2.7255 -1.3163  0.7250
 5002TIP3    H236566   0.634   2.423   2.598  1.5049 -1.9729 -0.3869
 5003TIP3   OH236567   0.679   0.013   0.796  0.8596 -0.9180 -0.1261
 5003TIP3    H136568   0.723  -0.002   0.879  1.6499 -1.4920 -0.6337
 5003TIP3    H236569   0.611   0.078   0.816 -0.3691 -2.5551  1.4045
 5004TIP3   OH236570   2.067   4.128   7.935 -0.4198  0.0280  0.1422
 5004TIP3    H136571   2.001   4.194   7.917  2.0341  2.1733 -1.7873
 5004TIP3    H236572   2.097   4.148   8.024 -0.2341  1.0842 -0.1401
 5005TIP3   OH236573   1.823   6.631   2.550 -0.0281  0.0854  0.2596
 5005TIP3    H136574   1.739   6.678   2.553  0.0481  0.2157  0.3111
 5005TIP3    H236575   1.885   6.689   2.594 -0.1264 -0.4564  1.1466
 5006TIP3   OH236576   6.634   4.780   8.442  0.9271 -0.1106  0.0392
 5006TIP3    H136577   6.549   4.791   8.398  1.0274  0.1292 -0.0936
 5006TIP3    H236578   6.621   4.820   8.528  1.4270  1.4992 -0.5988
 5007TIP3   OH236579   3.812   6.610   1.561  0.3432 -0.0431  0.1188
 5007TIP3    H136580   3.842   6.698   1.585 -1.2054  0.6346 -0.3057
 5007TIP3    H236581   3.802   6.565   1.645  1.1840  0.1744  0.3369
 5008TIP3   OH236582   6.000   3.543   1.581  0.1776  0.3881 -0.8270
 5008TIP3    H136583   5.938   3.574   1.647  0.0259  1.6937 -1.5386
 5008TIP3    H236584   5.945   3.511   1.509  0.1128  4.0176 -2.6426
 5009TIP3   OH236585   3.603   3.822   1.978  0.0973  0.1912  0.2335
 5009TIP3    H136586   3.574   3.827   1.887  0.4713  0.8794  0.1478
 5009TIP3    H236587   3.679   3.765   1.976  0.5462  0.7814 -0.0085
 5010TIP3   OH236588   0.417   1.608   0.428 -0.0987  0.0970 -0.3037
 5010TIP3    H136589   0.435   1.654   0.509 -0.2732 -0.3528 -0.0087
 5010TIP3    H236590   0.325   1.583   0.433 -0.7273  1.9528 -1.5874
 5011TIP3   OH236591   3.180   4.761   2.465  0.5000  0.3654 -0.6294
 5011TIP3    H136592   3.207   4.847   2.496  1.7557 -0.1877 -0.1048
 5011TIP3    H236593   3.257   4.706   2.477 -0.2909 -0.8499 -0.9071
 5012TIP3   OH236594   6.050   6.018   0.686 -0.9626 -0.8440 -0.1166
 5012TIP3    H136595   6.039   5.987   0.596 -0.7024  1.1228 -0.8833
 5012TIP3    H236596   6.145   6.018   0.699 -1.0234 -1.6451  0.3713
 5013TIP3   OH236597   2.125   5.028   7.863  0.4683 -0.1734  0.7283
 5013TIP3    H136598   2.202   5.083   7.877 -0.4940  1.2217  0.7520
 5013TIP3    H236599   2.072   5.077   7.800 -0.5973 -0.9021  1.0340
 5014TIP3   OH236600   5.059   2.427   0.118  0.2318 -0.1786 -0.3933
 5014TIP3    H136601   5.025   2.340   0.094  1.1121 -0.5065 -0.4794
 5014TIP3    H236602   5.003   2.455   0.190  0.5797 -1.2728  0.3230
 5015TIP3   OH236603   0.158   4.613   2.345 -0.3801  0.2046 -0.0704
 5015TIP3    H136604   0.243   4.637   2.382 -0.5290  1.1164 -0.3037
 5015TIP3    H236605   0.109   4.577   2.419  0.9858 -2.6013 -0.3701
 5016TIP3   OH236606   5.196   1.011   7.548 -0.2791 -0.0351  0.5316
 5016TIP3    H136607   5.115   1.019   7.498  0.0470  0.6585  0.1076
 5016TIP3    H236608   5.262   0.984   7.484 -0.3957 -1.8043  1.0871
 5017TIP3   OH236609   4.380   2.305   8.153 -0.6253 -0.3745  0.5879
 5017TIP3    H136610   4.405   2.354   8.075 -2.0471  0.2923  0.5315
 5017TIP3    H236611   4.461   2.297   8.203  0.0467  0.2463 -0.3646
 5018TIP3   OH236612   6.271   1.980   0.855  0.3693 -0.4524  0.0430
 5018TIP3    H136613   6.363   1.983   0.880  0.1468 -2.1396  1.2668
 5018TIP3    H236614   6.253   1.887   0.841 -1.3791 -0.2675  0.8280
 5019TIP3   OH236615   4.595   4.387   7.344 -0.5426 -0.2783  0.2661
 5019TIP3    H136616   4.563   4.303   7.310 -1.3226  0.1235 -0.0082
 5019TIP3    H236617   4.673   4.364   7.395  0.1952 -0.9960 -1.1247
 5020TIP3   OH236618   0.433   6.422   7.577 -0.2261 -0.1681  0.2665
 5020TIP3    H136619   0.384   6.410   7.496 -1.0571  0.8111  0.6047
 5020TIP3    H236620   0.524   6.413   7.551 -0.5375 -1.2828 -0.5123
 5021TIP3   OH236621   6.307   4.050   2.030 -0.4661  0.2788 -0.3764
 5021TIP3    H136622   6.229   4.099   2.056  0.3601  1.0944  0.6433
 5021TIP3    H236623   6.375   4.079   2.091  0.7256 -0.1675 -1.4621
 5022TIP3   OH236624   6.722   4.027   7.193  0.4032 -0.0122  0.0916
 5022TIP3    H136625   6.787   4.028   7.122  0.8209 -0.8418  0.4407
 5022TIP3    H236626   6.698   4.119   7.205  1.5455  0.3276 -0.0276
 5023TIP3   OH236627   0.797   3.337   7.649 -0.5459  0.5710 -0.0541
 5023TIP3    H136628   0.786   3.432   7.639  1.1258  0.9980  1.6336
 5023TIP3    H236629   0.849   3.311   7.572 -0.0052  1.2445  0.0739
 5024TIP3   OH236630   3.224   1.092   8.211 -0.3536 -0.0947 -0.3041
 5024TIP3    H136631   3.249   1.163   8.151  1.5684 -0.3752  0.1008
 5024TIP3    H236632   3.201   1.136   8.293  1.3627  0.0849  0.1200
 5025TIP3   OH236633   0.882   3.521   0.123 -0.3391  0.1683  0.5186
 5025TIP3    H136634   0.837   3.603   0.105 -2.6567 -1.0904  0.2078
 5025TIP3    H236635   0.877   3.472   0.041  0.7422 -0.4312  0.7904
 5026TIP3   OH236636   3.450   0.015   1.799  0.5556  0.3492 -0.0862
 5026TIP3    H136637   3.387   0.072   1.844 -0.1600  0.1430 -0.8173
 5026TIP3    H236638   3.400  -0.063   1.775  1.0432  0.2640 -0.8545
 5027TIP3   OH236639   5.976   2.779   0.180  0.3563 -0.5403  0.6950
 5027TIP3    H136640   6.013   2.784   0.092  1.3502 -0.2567  1.1122
 5027TIP3    H236641   5.883   2.797   0.169  0.1617 -2.1274 -0.5017
 5028TIP3   OH236642   0.766   0.647   0.054  0.5642  0.4429  0.2569
 5028TIP3    H136643   0.824   0.585   0.010  0.7518  0.4718  0.4599
 5028TIP3    H236644   0.719   0.690  -0.017  0.4546  0.0880  0.1136
 5029TIP3   OH236645   5.113   4.313   7.444 -0.0520 -0.5457  0.1449
 5029TIP3    H136646   5.104   4.323   7.349 -3.0335 -0.1488  0.3709
 5029TIP3    H236647   5.164   4.232   7.455  2.8233  0.8670 -1.7089
 5030TIP3   OH236648   6.513   3.366   0.966  0.2176 -0.2063  0.1833
 5030TIP3    H136649   6.538   3.289   1.017  0.4283 -0.8765 -0.9138
 5030TIP3    H236650   6.478   3.427   1.031 -0.2596 -1.3510  1.0260
 5031TIP3   OH236651   1.003   5.510   2.307 -0.0169 -0.2477  0.0150
 5031TIP3    H136652   0.945   5.493   2.232 -0.2054  1.4747 -0.2815
 5031TIP3    H236653   0.964   5.586   2.349  1.2762  0.0914  0.6339
 5032TIP3   OH236654   4.976   5.249   7.246 -0.2114  0.3321 -0.1639
 5032TIP3    H136655   5.056   5.199   7.262  0.5412  1.3081 -0.7449
 5032TIP3    H236656   4.914   5.218   7.313  0.2868 -1.2011 -0.3879
 5033TIP3   OH236657   2.887   3.551   1.729 -0.1618  0.0688  0.1070
 5033TIP3    H136658   2.792   3.557   1.727 -0.4530 -2.7618  0.2861
 5033TIP3    H236659   2.908   3.487   1.661  1.6499  0.7420 -0.0305
 5034TIP3   OH236660   6.094   4.969   1.556  0.3914  0.0890  0.0550
 5034TIP3    H136661   6.057   5.057   1.560  1.7145  0.6821 -0.1354
 5034TIP3    H236662   6.028   4.913   1.597 -1.2424  0.8775 -1.3582
 5035TIP3   OH236663   6.537   3.163   6.193 -0.5366  0.1480  0.6375
 5035TIP3    H136664   6.476   3.123   6.255 -1.4413 -0.3597 -0.5340
 5035TIP3    H236665   6.558   3.248   6.232 -1.2712 -0.0574  1.5138
 5036TIP3   OH236666   3.906   3.525   1.466  0.2499 -0.4478  0.1169
 5036TIP3    H136667   3.917   3.575   1.385  1.1615  0.3981  0.7453
 5036TIP3    H236668   3.979   3.464   1.467  0.5682 -0.0617  0.5815
 5037TIP3   OH236669   1.969   4.924   8.044  0.0567  0.0286 -0.0413
 5037TIP3    H136670   1.889   4.965   8.013  0.1353 -0.0366 -0.3307
 5037TIP3    H236671   2.033   4.939   7.975  0.8018  1.6146  0.9564
 5038TIP3   OH236672   5.323   4.485   0.165 -0.3331 -0.0007 -0.5840
 5038TIP3    H136673   5.250   4.423   0.156  0.3635 -0.6686 -1.9074
 5038TIP3    H236674   5.340   4.513   0.076  0.4536  0.8388 -0.1720
 5039TIP3   OH236675   0.230   5.625   7.559 -0.8507 -0.5310  0.1152
 5039TIP3    H136676   0.234   5.674   7.476 -0.7943 -0.9197 -0.1158
 5039TIP3    H236677   0.151   5.657   7.602 -1.5003 -1.1430 -0.6090
 5040TIP3   OH236678   4.998   1.229   7.896 -0.4363 -0.4040 -0.8949
 5040TIP3    H136679   4.947   1.308   7.875  0.4893  0.3533 -0.3792
 5040TIP3    H236680   5.013   1.235   7.990 -0.3611 -1.2153 -0.8481
 5041TIP3   OH236681   3.269   4.907   7.671  0.0983 -0.5802  0.3766
 5041TIP3    H136682   3.277   4.991   7.717 -0.4331 -0.2862 -0.0553
 5041TIP3    H236683   3.284   4.929   7.579  0.1529 -0.9961  0.2862
 5042TIP3   OH236684   1.573   4.314   2.812 -0.2442 -0.3907 -0.1855
 5042TIP3    H136685   1.556   4.389   2.870  0.1378  0.9043 -1.6651
 5042TIP3    H236686   1.503   4.252   2.832 -0.1647  0.0312  1.5973
 5043TIP3   OH236687   2.889   3.156   8.068  0.5708  0.0553 -0.1014
 5043TIP3    H136688   2.946   3.232   8.083  1.6706 -0.5835 -0.8747
 5043TIP3    H236689   2.821   3.164   8.135  2.2206  0.2402  1.6651
 5044TIP3   OH236690   4.690   6.092   1.648  0.1381 -0.1493 -0.2917
 5044TIP3    H136691   4.729   6.111   1.562  0.3561 -0.7690 -0.3297
 5044TIP3    H236692   4.645   6.009   1.635  0.0650 -0.1783  0.1672
 5045TIP3   OH236693   2.976   3.662   2.152  0.0445  0.3937 -0.0187
 5045TIP3    H136694   2.908   3.722   2.183 -0.1963 -0.3682  0.9586
 5045TIP3    H236695   3.054   3.685   2.203  0.4509  1.0442 -0.9043
 5046TIP3   OH236696   3.156   2.247   0.549 -0.3002 -0.4923 -0.2441
 5046TIP3    H136697   3.065   2.226   0.528 -0.7230 -0.0468  1.0748
 5046TIP3    H236698   3.204   2.222   0.470 -1.4909 -1.1959 -0.7871
 5047TIP3   OH236699   1.596   0.418   7.584  0.3354 -0.2959  0.1798
 5047TIP3    H136700   1.533   0.483   7.551  2.1752  2.5214  1.7534
 5047TIP3    H236701   1.542   0.348   7.620 -1.7585 -0.1611 -2.4257
 5048TIP3   OH236702   6.122   0.282   1.579 -0.6562  0.2386 -0.0474
 5048TIP3    H136703   6.117   0.220   1.505  1.4697 -0.6398  0.4637
 5048TIP3    H236704   6.212   0.313   1.577 -0.9264  1.1759  1.4298
 5049TIP3   OH236705   4.009   0.414   2.588  0.6392  0.3759  0.2271
 5049TIP3    H136706   3.928   0.419   2.638 -0.7617  0.8032 -1.9636
 5049TIP3    H236707   4.003   0.486   2.526  3.1448  0.9705  0.5686
 5050TIP3   OH236708   6.181   5.010   1.273 -0.3040 -0.3179 -0.0099
 5050TIP3    H136709   6.161   4.922   1.241  0.4625 -0.6561  0.4130
 5050TIP3    H236710   6.172   5.004   1.368  0.1336 -0.0418  0.0537
 5051TIP3   OH236711   3.164   2.935   7.694  0.0945 -0.1130  0.0015
 5051TIP3    H136712   3.156   2.853   7.647 -1.4198  0.1030 -0.1640
 5051TIP3    H236713   3.074   2.960   7.714  0.5187  1.5197  0.0071
 5052TIP3   OH236714   3.370   5.032   1.053  0.2373 -0.4160  0.4190
 5052TIP3    H136715   3.324   5.032   0.969 -0.1540 -3.3363  0.5195
 5052TIP3    H236716   3.374   5.124   1.079  0.1960  0.5436 -2.6687
 5053TIP3   OH236717   5.585   2.398   0.888 -0.3058 -0.5208 -0.1773
 5053TIP3    H136718   5.553   2.363   0.971 -1.6969  1.5840  0.2384
 5053TIP3    H236719   5.653   2.460   0.913 -0.0320 -0.6031 -0.6914
 5054TIP3   OH236720   0.243   5.998   8.510 -0.3691 -0.1957  0.6694
 5054TIP3    H136721   0.165   6.053   8.520 -0.3452 -0.1162  0.4169
 5054TIP3    H236722   0.240   5.939   8.585 -0.5025  0.0173  0.8319
 5055TIP3   OH236723   0.088   0.772   8.375 -0.4813 -0.0807 -0.2017
 5055TIP3    H136724   0.122   0.694   8.331  0.5058 -0.5149  1.2515
 5055TIP3    H236725   0.134   0.845   8.331 -0.4840 -0.3971 -0.7437
 5056TIP3   OH236726   2.199   3.213   1.146  0.0253  0.9908  0.5479
 5056TIP3    H136727   2.249   3.293   1.126 -0.4355  1.4889  1.3729
 5056TIP3    H236728   2.264   3.143   1.138  0.9059  1.6383  1.6958
 5057TIP3   OH236729   1.031   3.211   1.992 -1.0191  0.3763 -0.1646
 5057TIP3    H136730   0.996   3.300   1.998 -0.8576  0.4038  0.4567
 5057TIP3    H236731   1.037   3.181   2.083  0.2749  0.2591 -0.2721
 5058TIP3   OH236732   2.950   2.734   1.113  0.0731  0.1559  0.3101
 5058TIP3    H136733   2.959   2.693   1.199  0.6932 -0.0611  0.1469
 5058TIP3    H236734   3.040   2.751   1.086 -0.1299  0.3723 -0.2259
 5059TIP3   OH236735   4.170   5.714   8.548 -0.1306 -0.0549  0.6668
 5059TIP3    H136736   4.243   5.774   8.562 -0.0796 -0.2623  1.3163
 5059TIP3    H236737   4.201   5.630   8.584 -0.5516 -0.2363  0.6126
 5060TIP3   OH236738   2.590   3.099   1.685  0.2832 -0.6962  0.0344
 5060TIP3    H136739   2.544   3.024   1.648 -0.7773  0.2609 -0.6547
 5060TIP3    H236740   2.622   3.148   1.609  2.8196 -1.4983  0.4818
 5061TIP3   OH236741   5.331   6.092   6.789 -0.1170  0.3046  0.5374
 5061TIP3    H136742   5.282   6.014   6.763  0.3269  0.3756 -0.5857
 5061TIP3    H236743   5.281   6.128   6.862 -0.3685 -0.9843  1.0305
 5062TIP3   OH236744   4.806   1.442   8.330  0.1369 -0.2484 -0.0977
 5062TIP3    H136745   4.733   1.495   8.297 -0.6404  1.1031  3.3277
 5062TIP3    H236746   4.884   1.493   8.309 -0.2966  0.4700 -0.0033
 5063TIP3   OH236747   5.932   1.476   8.499  0.9952 -0.2109  0.1550
 5063TIP3    H136748   5.978   1.559   8.486  0.5614  0.3250  1.7578
 5063TIP3    H236749   5.842   1.501   8.518  0.6552 -1.1044 -0.2475
 5064TIP3   OH236750   4.824   5.078   7.394 -0.0163 -0.3920 -0.3147
 5064TIP3    H136751   4.798   5.055   7.484 -1.1916 -1.0954 -0.8079
 5064TIP3    H236752   4.815   4.996   7.345 -1.2455  0.3834 -1.4613
 5065TIP3   OH236753   0.787   4.609   0.037 -0.0813 -0.5336  0.0795
 5065TIP3    H136754   0.795   4.704   0.041 -1.8740 -0.3453 -0.2953
 5065TIP3    H236755   0.724   4.587   0.106 -0.2508 -1.3685 -0.3244
 5066TIP3   OH236756   5.602   2.650   7.440  0.1618  0.4299 -0.1103
 5066TIP3    H136757   5.632   2.562   7.464 -0.2824  0.3568  0.1771
 5066TIP3    H236758   5.609   2.701   7.520 -3.6162 -0.4088  0.9626
 5067TIP3   OH236759   6.258   3.431   7.083  0.1605 -0.0166 -0.2183
 5067TIP3    H136760   6.349   3.429   7.113 -0.1212  0.7645  0.7321
 5067TIP3    H236761   6.264   3.421   6.988  1.2268 -0.0947 -0.1547
 5068TIP3   OH236762   0.825   3.627   1.057 -0.3269  0.3438 -0.5261
 5068TIP3    H136763   0.790   3.712   1.085 -1.2614 -0.0498 -0.4474
 5068TIP3    H236764   0.771   3.563   1.104  0.7600 -0.2969 -0.1252
 5069TIP3   OH236765   2.195   4.546   7.443 -0.3069  0.1352 -0.1145
 5069TIP3    H136766   2.107   4.543   7.479  0.1556  1.5750  1.2525
 5069TIP3    H236767   2.218   4.639   7.443  0.4041  0.0194 -2.5460
 5070TIP3   OH236768   2.650   3.429   1.227 -0.6029 -0.0728 -0.3598
 5070TIP3    H136769   2.736   3.468   1.212 -0.4339 -0.7097 -1.1164
 5070TIP3    H236770   2.603   3.441   1.145 -1.0634 -0.1946 -0.1222
 5071TIP3   OH236771   1.262   0.588   0.021 -0.1671 -0.6839 -0.0091
 5071TIP3    H136772   1.311   0.656   0.068  0.8013 -1.3745  0.0088
 5071TIP3    H236773   1.286   0.600  -0.071 -2.1640  0.7516 -0.4012
 5072TIP3   OH236774   5.792   6.697   0.537  0.2471  0.3256  0.3945
 5072TIP3    H136775   5.705   6.716   0.502  1.1118  3.1492 -0.4853
 5072TIP3    H236776   5.779   6.690   0.631 -0.9153  0.9124  0.2967
 5073TIP3   OH236777   5.048   4.919   7.660 -0.1787  0.1564 -1.0226
 5073TIP3    H136778   5.052   4.950   7.750 -2.4889 -1.9052 -0.0966
 5073TIP3    H236779   5.070   4.826   7.665 -2.2613 -0.4752 -2.2203
 5074TIP3   OH236780   2.537   5.304   8.018 -0.1853  0.0497  0.0546
 5074TIP3    H136781   2.521   5.382   8.072 -0.6067 -1.1063  1.6689
 5074TIP3    H236782   2.609   5.259   8.061 -0.3931 -0.8080 -0.4599
 5075TIP3   OH236783   0.773   1.494   0.686  0.0689 -0.3479 -0.1505
 5075TIP3    H136784   0.693   1.465   0.730 -1.2007  2.4652 -0.3472
 5075TIP3    H236785   0.747   1.506   0.595  0.9390 -0.0972 -0.3775
 5076TIP3   OH236786   5.810   5.435   8.617 -0.1601  1.1613  0.7095
 5076TIP3    H136787   5.849   5.501   8.560 -0.0820 -0.3231 -1.0387
 5076TIP3    H236788   5.865   5.435   8.695  2.1629  0.5415 -0.8392
 5077TIP3   OH236789   5.750   4.005   7.233 -0.4513 -0.4240 -0.0574
 5077TIP3    H136790   5.708   3.966   7.157  0.2543  1.9554 -1.8096
 5077TIP3    H236791   5.717   3.955   7.307 -1.9303 -2.2402 -1.8212
 5078TIP3   OH236792   2.139   0.286   1.217  0.0338  0.2970 -0.6402
 5078TIP3    H136793   2.059   0.238   1.236 -0.7499  1.2205 -1.5031
 5078TIP3    H236794   2.109   0.371   1.184  1.3731  1.1325  0.1992
 5079TIP3   OH236795   1.673   6.528   7.790 -0.0425  0.8898  0.2235
 5079TIP3    H136796   1.598   6.477   7.759  0.7416 -0.3216  0.2441
 5079TIP3    H236797   1.740   6.515   7.722  1.0423 -0.2542  1.4516
 5080TIP3   OH236798   4.954   4.586   7.517 -0.0522 -0.5283 -0.3662
 5080TIP3    H136799   5.013   4.536   7.461  0.2394 -0.2963 -0.2665
 5080TIP3    H236800   4.964   4.676   7.488 -1.4658 -0.6450 -1.3643
 5081TIP3   OH236801   1.932   1.473   0.930  0.6397  0.2422  0.1593
 5081TIP3    H136802   1.928   1.461   1.025  0.4486  0.9240  0.2418
 5081TIP3    H236803   1.950   1.386   0.896  2.3920  0.2571  0.9325
 5082TIP3   OH236804   4.637   5.153   0.222  0.1388 -0.0711  0.2509
 5082TIP3    H136805   4.606   5.240   0.247 -1.5190 -0.9169  1.3588
 5082TIP3    H236806   4.731   5.154   0.239  0.5097  2.0746 -1.5531
 5083TIP3   OH236807   3.926   6.149   1.628 -0.7752 -0.7013  0.0809
 5083TIP3    H136808   3.874   6.202   1.688  1.7474  0.1565  1.6186
 5083TIP3    H236809   3.897   6.177   1.541 -3.1017 -0.5691  0.8097
 5084TIP3   OH236810   3.645   1.204   0.810 -0.1029  0.4367 -0.2616
 5084TIP3    H136811   3.723   1.239   0.767 -0.2687 -1.1797 -2.0002
 5084TIP3    H236812   3.673   1.120   0.847 -1.3230 -0.9582 -2.3251
 5085TIP3   OH236813   5.619   5.387   0.591 -0.1760 -0.0772 -0.1139
 5085TIP3    H136814   5.706   5.424   0.586 -0.2504  0.7952  2.9212
 5085TIP3    H236815   5.619   5.316   0.526  2.5756  0.2247 -0.5571
 5086TIP3   OH236816   5.136   2.574   0.659 -0.3258  0.3096  0.1972
 5086TIP3    H136817   5.066   2.527   0.704 -0.3990  0.6426  0.4337
 5086TIP3    H236818   5.142   2.658   0.705  1.3465 -0.3354  1.2579
 5087TIP3   OH236819   0.931   4.701   6.887 -0.3331  0.2202 -0.1806
 5087TIP3    H136820   0.916   4.789   6.922  3.9242  1.3048 -0.5527
 5087TIP3    H236821   0.912   4.709   6.794 -0.8750  0.4614 -0.0542
 5088TIP3   OH236822   0.718   3.373   8.203 -0.4227  0.1295 -0.6977
 5088TIP3    H136823   0.723   3.355   8.109 -1.6629  1.8384 -1.1579
 5088TIP3    H236824   0.625   3.361   8.224 -0.6069  1.9585 -0.2548
 5089TIP3   OH236825   2.413   0.517   6.470  0.0099 -0.5084 -0.4241
 5089TIP3    H136826   2.335   0.524   6.415 -0.1497 -0.1532 -0.1564
 5089TIP3    H236827   2.413   0.425   6.499 -1.9781  0.1248  1.9630
 5090TIP3   OH236828   5.230   6.644   1.392 -0.2355 -0.2034  0.0011
 5090TIP3    H136829   5.307   6.698   1.412 -0.8973 -0.5182  4.2562
 5090TIP3    H236830   5.254   6.557   1.423 -0.7309 -1.5202 -2.9670
 5091TIP3   OH236831   2.888   3.822   7.870 -0.2091 -0.2784  0.0832
 5091TIP3    H136832   2.896   3.726   7.876 -0.6965 -0.5497 -2.5477
 5091TIP3    H236833   2.977   3.854   7.887 -0.3746 -0.9899  2.8252
 5092TIP3   OH236834   2.527   4.830   7.889 -0.1221  0.0606 -0.2823
 5092TIP3    H136835   2.542   4.752   7.942 -3.6753 -1.1734 -0.8265
 5092TIP3    H236836   2.578   4.816   7.809  1.5911 -0.2478  0.8237
 5093TIP3   OH236837   0.385   4.226   1.043  0.5908  0.3570 -0.4864
 5093TIP3    H136838   0.353   4.307   1.004 -1.2688 -0.4068 -0.6649
 5093TIP3    H236839   0.407   4.248   1.133 -1.6866  0.7171  0.0394
 5094TIP3   OH236840   3.955   5.209   0.163 -0.2571  0.3063  0.1865
 5094TIP3    H136841   3.982   5.297   0.186 -2.9947  0.9915  1.0939
 5094TIP3    H236842   3.873   5.220   0.115 -0.9273 -1.7465  0.7396
 5095TIP3   OH236843   6.608   6.110   7.974 -0.0335  0.1268 -0.2212
 5095TIP3    H136844   6.625   6.145   7.887 -0.6564  3.5041  0.8733
 5095TIP3    H236845   6.512   6.105   7.979 -0.0106  0.2106  0.3645
 5096TIP3   OH236846   0.456   3.689   0.909 -0.0135  0.1046  0.0034
 5096TIP3    H136847   0.474   3.745   0.985  2.5138 -1.3999  0.6219
 5096TIP3    H236848   0.383   3.634   0.937  0.3913  0.0834  1.0483
 5097TIP3   OH236849   0.843   0.820   2.160  0.3534  0.2057 -0.1924
 5097TIP3    H136850   0.844   0.810   2.255  0.5090  0.7253 -0.1329
 5097TIP3    H236851   0.822   0.913   2.146  1.5647  0.4279 -0.6329
 5098TIP3   OH236852   1.601   4.624   0.035  1.0867 -0.5640  0.3818
 5098TIP3    H136853   1.635   4.658   0.118  1.6648 -0.5852  0.1589
 5098TIP3    H236854   1.506   4.621   0.047  1.2188 -1.3003  1.3125
 5099TIP3   OH236855   6.784   2.391   2.380 -0.4971  0.0246 -0.4240
 5099TIP3    H136856   6.869   2.412   2.341 -0.2016 -0.6566 -0.1591
 5099TIP3    H236857   6.729   2.366   2.306 -1.1296  2.4874 -0.8702
 5100TIP3   OH236858   0.512   1.164   6.550 -0.0732 -0.1763 -0.0109
 5100TIP3    H136859   0.573   1.132   6.617 -0.4522 -1.3342 -0.1956
 5100TIP3    H236860   0.540   1.254   6.533  0.1619  0.0715  1.5486
 5101TIP3   OH236861   6.820   2.497   8.446  0.2580 -0.1002  0.6795
 5101TIP3    H136862   6.834   2.517   8.539  0.1540 -2.3965  1.2476
 5101TIP3    H236863   6.727   2.475   8.440  0.5369 -1.2346  0.3198
 5102TIP3   OH236864   6.105   3.406   7.722  0.1425  0.1002  0.6566
 5102TIP3    H136865   6.176   3.431   7.781 -0.0835  0.3241  0.8362
 5102TIP3    H236866   6.082   3.317   7.749  1.7304 -0.7802 -0.7499
 5103TIP3   OH236867   2.773   4.003   0.721  0.7776  0.7850 -0.2912
 5103TIP3    H136868   2.780   4.057   0.642  0.2054 -0.7023 -1.4002
 5103TIP3    H236869   2.822   4.052   0.788  0.7886  2.3547 -1.4023
 5104TIP3   OH236870   5.434   2.709   6.514 -0.5080  0.5969 -0.2230
 5104TIP3    H136871   5.431   2.656   6.434  1.1541  0.3207 -0.1355
 5104TIP3    H236872   5.527   2.722   6.531 -0.7984  0.4645  1.7815
 5105TIP3   OH236873   3.585   4.859   7.268  0.3709 -0.1145 -0.4996
 5105TIP3    H136874   3.518   4.869   7.336  1.0785  0.6918  0.0966
 5105TIP3    H236875   3.539   4.816   7.196 -0.1189 -2.1837  0.9349
 5106TIP3   OH236876   3.990   2.467   8.647  0.2216  0.1717 -0.2449
 5106TIP3    H136877   3.904   2.424   8.652  0.2617 -0.4071 -2.8448
 5106TIP3    H236878   4.053   2.396   8.657  0.3353  0.1788 -0.8490
 5107TIP3   OH236879   2.515   3.464   8.624  0.0370 -0.0060  0.6452
 5107TIP3    H136880   2.449   3.421   8.679  0.1048  0.5999  1.2154
 5107TIP3    H236881   2.556   3.393   8.575  0.1840 -0.6031  1.6058
 5108TIP3   OH236882   2.419   6.476   1.324 -0.9791  0.0996  0.2702
 5108TIP3    H136883   2.366   6.446   1.250 -0.4801 -0.5968  0.1841
 5108TIP3    H236884   2.357   6.522   1.380 -2.3482 -2.9574  1.4899
 5109TIP3   OH236885   1.875   0.462   8.239  0.3965 -0.1173 -0.4437
 5109TIP3    H136886   1.793   0.502   8.210 -0.0195 -0.2881  0.4641
 5109TIP3    H236887   1.902   0.515   8.314 -0.0591 -1.3971  0.6621
 5110TIP3   OH236888   2.562   4.674   0.377 -0.9762 -0.3235 -0.0321
 5110TIP3    H136889   2.588   4.624   0.300  0.1931 -2.4969  1.6638
 5110TIP3    H236890   2.472   4.648   0.394 -0.7380 -1.0136  0.1957
 5111TIP3   OH236891   1.859   5.799   7.942  0.2228 -0.0573  0.1157
 5111TIP3    H136892   1.934   5.758   7.985  1.4355  0.3851 -1.4970
 5111TIP3    H236893   1.790   5.732   7.947  0.3932 -0.1408  2.3897
 5112TIP3   OH236894   6.715   4.030   8.660 -0.4609  0.1745 -0.0162
 5112TIP3    H136895   6.715   3.954   8.602 -1.2099  0.0179  0.1752
 5112TIP3    H236896   6.786   4.085   8.627  0.9554 -1.1861  0.6411
 5113TIP3   OH236897   5.653   6.765   7.823  0.1710  0.1246 -0.3740
 5113TIP3    H136898   5.618   6.797   7.906  1.4662  0.9125 -0.1039
 5113TIP3    H236899   5.670   6.845   7.772 -0.9593 -0.3581 -1.5663
 5114TIP3   OH236900   1.744   4.948   7.270  0.1020  0.2178  0.2038
 5114TIP3    H136901   1.732   4.999   7.350  0.4528 -0.4259  0.6741
 5114TIP3    H236902   1.835   4.919   7.273 -0.4118 -1.5024  0.6056
 5115TIP3   OH236903   6.454   4.347   6.611 -0.0907 -0.0339  0.4736
 5115TIP3    H136904   6.508   4.294   6.671  0.8677 -0.4671 -0.7268
 5115TIP3    H236905   6.518   4.399   6.562 -0.8743  0.4823 -0.0200
 5116TIP3   OH236906   4.197   0.722   1.914 -0.1256 -0.1751  0.7585
 5116TIP3    H136907   4.264   0.667   1.872  0.5451  0.1597  1.3812
 5116TIP3    H236908   4.228   0.733   2.004 -2.3140 -2.1633  1.8619
 5117TIP3   OH236909   3.350   3.079   2.127 -0.1193  0.2493  0.4431
 5117TIP3    H136910   3.295   3.090   2.204 -1.0635  0.3285 -0.2230
 5117TIP3    H236911   3.424   3.027   2.157 -1.7936 -2.0741  0.8277
 5118TIP3   OH236912   2.135   4.817   0.813 -0.0047 -0.1930  0.0915
 5118TIP3    H136913   2.090   4.867   0.746 -1.0547  1.2064  1.7570
 5118TIP3    H236914   2.078   4.822   0.889  0.2356 -3.2542  0.6234
 5119TIP3   OH236915   1.672   6.154   8.490  0.0787  0.2829 -0.4367
 5119TIP3    H136916   1.671   6.156   8.585 -1.2251 -2.7525 -0.3015
 5119TIP3    H236917   1.614   6.225   8.464 -1.7399 -0.5564  1.1408
 5120TIP3   OH236918   3.655   1.255   0.021  0.1275 -0.0857 -0.2204
 5120TIP3    H136919   3.699   1.185  -0.027  2.0180  0.6245  0.3993
 5120TIP3    H236920   3.701   1.259   0.105 -1.0276  0.8245  0.4022
 5121TIP3   OH236921   6.370   2.198   1.171  0.0414 -0.3467  0.3890
 5121TIP3    H136922   6.412   2.140   1.107  0.9731 -0.4047  1.0214
 5121TIP3    H236923   6.409   2.284   1.154 -0.4360 -0.1617  0.2372
 5122TIP3   OH236924   5.818   2.413   0.627 -0.4347  0.6226  0.0208
 5122TIP3    H136925   5.860   2.350   0.569 -0.8441  0.8443 -0.5259
 5122TIP3    H236926   5.770   2.360   0.690  0.7322  0.3625  0.7203
 5123TIP3   OH236927   5.319   4.879   1.188 -0.2660 -0.1285 -0.0334
 5123TIP3    H136928   5.400   4.929   1.174  0.1368 -0.1858  1.7448
 5123TIP3    H236929   5.337   4.793   1.150  0.8080 -0.3622  0.9158
 5124TIP3   OH236930   4.004   0.625   7.052 -0.3736 -0.1274  0.4016
 5124TIP3    H136931   4.051   0.560   7.104 -1.1100 -0.8008  0.2629
 5124TIP3    H236932   3.945   0.572   6.997  0.0268  0.5907 -0.7389
 5125TIP3   OH236933   5.931   6.173   6.876 -0.2808  0.3785  0.3691
 5125TIP3    H136934   5.853   6.229   6.882  0.2907  1.0683  2.7183
 5125TIP3    H236935   6.004   6.232   6.896  0.8484 -0.3340 -1.4014
 5126TIP3   OH236936   0.433   3.362   0.352  0.2613  0.1964  0.0448
 5126TIP3    H136937   0.521   3.330   0.372  0.3342  0.5048  0.2394
 5126TIP3    H236938   0.447   3.451   0.320 -0.1095  1.1186  2.2162
 5127TIP3   OH236939   3.977   6.346   6.809 -0.0018  0.0796  0.1648
 5127TIP3    H136940   4.038   6.416   6.787 -0.4741  0.1484 -0.9930
 5127TIP3    H236941   3.952   6.308   6.725 -1.0074 -0.4013  0.6559
 5128TIP3   OH236942   5.566   3.626   2.673 -0.4395 -0.2826 -0.2665
 5128TIP3    H136943   5.515   3.547   2.656  0.4042 -1.0329  0.5794
 5128TIP3    H236944   5.656   3.601   2.654 -0.1499  0.4477  0.0927
 5129TIP3   OH236945   3.919   1.566   7.301  0.3618 -0.2733 -0.2171
 5129TIP3    H136946   3.898   1.527   7.216  0.6578 -1.4564  0.2221
 5129TIP3    H236947   4.005   1.529   7.323 -0.9450 -2.3532  1.8911
 5130TIP3   OH236948   0.277   4.526   2.081 -0.4183  0.1989  0.1191
 5130TIP3    H136949   0.291   4.520   2.176 -0.7982  0.6413  0.2076
 5130TIP3    H236950   0.267   4.620   2.065 -2.7005 -0.0316 -0.0118
 5131TIP3   OH236951   2.890   1.561   2.534 -0.3736 -0.1221  0.2943
 5131TIP3    H136952   2.930   1.550   2.448  1.2726 -1.6949  1.1953
 5131TIP3    H236953   2.955   1.608   2.585 -1.1685  0.4397  0.8187
 5132TIP3   OH236954   6.387   3.976   1.561 -0.4083 -0.8587 -0.3295
 5132TIP3    H136955   6.323   3.937   1.619 -1.2624  0.0642 -0.6157
 5132TIP3    H236956   6.344   3.977   1.475 -0.5748  0.9825 -0.2659
 5133TIP3   OH236957   4.388   6.748   8.072  0.1019 -0.1202 -0.1137
 5133TIP3    H136958   4.318   6.814   8.073  0.3874  0.1883 -0.2155
 5133TIP3    H236959   4.362   6.685   8.140  0.1132  0.4075  0.3920
 5134TIP3   OH236960   5.385   0.666   6.914  1.0852  0.2323 -0.0711
 5134TIP3    H136961   5.292   0.681   6.931  0.6980 -1.5350 -0.4285
 5134TIP3    H236962   5.429   0.705   6.989 -0.1250 -1.1115  1.4124
 5135TIP3   OH236963   5.867   5.047   8.681  0.1492 -1.0089  0.0382
 5135TIP3    H136964   5.772   5.040   8.672 -0.1439 -0.1079  1.9634
 5135TIP3    H236965   5.882   5.139   8.702  1.2955 -1.4159  1.0999
 5136TIP3   OH236966   2.900   1.649   0.393 -0.3052  0.4196  0.4621
 5136TIP3    H136967   2.995   1.655   0.400 -0.1082 -1.4692  0.0639
 5136TIP3    H236968   2.878   1.698   0.314  0.4854 -0.0620 -0.0745
 5137TIP3   OH236969   2.106   3.217   2.472  0.0966 -0.3853  0.2551
 5137TIP3    H136970   2.020   3.245   2.503 -0.7453 -0.0849 -2.1681
 5137TIP3    H236971   2.163   3.292   2.489 -0.7894  0.5348 -0.6778
 5138TIP3   OH236972   1.206   1.335   8.527 -0.1407  0.0943  0.4374
 5138TIP3    H136973   1.228   1.309   8.438  0.7806 -0.0811  0.7090
 5138TIP3    H236974   1.164   1.420   8.518  1.5843  0.9363 -0.0249
 5139TIP3   OH236975   3.905   1.630   8.246 -0.0236  0.0221 -0.0178
 5139TIP3    H136976   3.869   1.567   8.183 -1.3821  0.8163 -0.0904
 5139TIP3    H236977   3.996   1.640   8.222 -0.2608 -0.5030 -1.1804
 5140TIP3   OH236978   2.297   0.149   2.860 -0.3242 -0.0184 -0.7204
 5140TIP3    H136979   2.311   0.229   2.911 -0.4821 -0.5753  0.2105
 5140TIP3    H236980   2.384   0.123   2.831 -0.0250 -0.5964  0.6493
 5141TIP3   OH236981   6.510   5.240   7.323 -0.0470 -0.3273  0.1480
 5141TIP3    H136982   6.552   5.325   7.324  2.0072 -1.2938  0.2746
 5141TIP3    H236983   6.498   5.219   7.230 -0.2447 -0.0647  0.1135
 5142TIP3   OH236984   0.064   5.717   7.174 -0.1970  0.2970  0.2611
 5142TIP3    H136985   0.085   5.625   7.159  0.4678  0.6348 -1.0061
 5142TIP3    H236986  -0.032   5.719   7.182 -0.2298 -0.4704  0.1014
 5143TIP3   OH236987   0.605   6.094   0.843 -0.4081 -0.4941  0.3167
 5143TIP3    H136988   0.596   6.187   0.866  0.0649  0.2461 -2.2646
 5143TIP3    H236989   0.692   6.070   0.876 -0.2703  0.1602  0.4545
 5144TIP3   OH236990   4.352   3.075   2.462 -0.0242  0.4175 -0.0054
 5144TIP3    H136991   4.424   3.078   2.526 -2.3532  1.6341  2.7621
 5144TIP3    H236992   4.354   3.160   2.420  0.8195  0.0286 -0.7840
 5145TIP3   OH236993   5.677   0.636   0.418 -0.3478  0.4122 -0.0540
 5145TIP3    H136994   5.612   0.593   0.362  1.5275  0.5545 -2.4949
 5145TIP3    H236995   5.687   0.577   0.492  0.0590 -2.0415 -1.9031
 5146TIP3   OH236996   3.648   0.098   8.141  0.4454  0.0554  0.0572
 5146TIP3    H136997   3.609   0.063   8.060 -0.5280 -0.9326  0.9274
 5146TIP3    H236998   3.574   0.109   8.200  1.3673 -1.0956  1.4862
 5147TIP3   OH236999   2.869   5.283   1.035  0.0836 -0.0939  0.5125
 5147TIP3    H137000   2.813   5.353   1.069 -0.4764  0.3204 -1.1528
 5147TIP3    H237001   2.825   5.202   1.060 -1.8995  0.2200 -1.6153
 5148TIP3   OH237002   1.842   1.631   7.588  0.4426 -0.1265 -0.4501
 5148TIP3    H137003   1.787   1.696   7.544  2.9315  2.0901 -0.5846
 5148TIP3    H237004   1.835   1.652   7.681 -0.7678 -1.4207 -0.2264
 5149TIP3   OH237005   4.113   1.780   7.693 -0.4091 -0.2750 -0.0979
 5149TIP3    H137006   4.025   1.746   7.710 -0.8322  1.1807  0.7913
 5149TIP3    H237007   4.117   1.788   7.597 -1.6127  0.5416 -0.0992
 5150TIP3   OH237008   1.323   6.334   7.693  0.1304  0.2459  0.6989
 5150TIP3    H137009   1.299   6.314   7.784 -0.2651  0.8230  0.7240
 5150TIP3    H237010   1.408   6.292   7.681 -0.0023 -0.1830  1.2109
 5151TIP3   OH237011   5.445   6.219   2.899 -0.1705 -0.0155  0.1017
 5151TIP3    H137012   5.523   6.274   2.902 -0.6446  0.6772 -0.0360
 5151TIP3    H237013   5.372   6.280   2.903 -0.7293 -0.5270 -1.5818
 5152TIP3   OH237014   3.775   0.968   7.722  0.0647  0.6482  0.6167
 5152TIP3    H137015   3.766   0.961   7.627  1.8635  0.6414  0.4213
 5152TIP3    H237016   3.813   0.885   7.749  0.3340  0.9671  1.2312
 5153TIP3   OH237017   2.250   6.633   0.246  0.0528  0.0044  0.3389
 5153TIP3    H137018   2.272   6.543   0.221 -0.2221 -0.1090  0.4956
 5153TIP3    H237019   2.327   6.664   0.293  1.0123  0.5897 -1.5341
 5154TIP3   OH237020   2.730   6.125   0.101  0.2778 -0.2845 -0.1200
 5154TIP3    H137021   2.785   6.131   0.180 -1.4107 -1.9426  1.2910
 5154TIP3    H237022   2.688   6.210   0.096 -0.3325 -0.4561  1.4015
 5155TIP3   OH237023   4.987   0.811   1.768  0.2291 -0.4584  0.0687
 5155TIP3    H137024   4.903   0.811   1.722  0.4607  2.1547 -0.5134
 5155TIP3    H237025   5.021   0.722   1.757 -3.0893 -2.0863  1.5983
 5156TIP3   OH237026   3.884   0.428   7.763 -0.2334  0.3837  0.4779
 5156TIP3    H137027   3.943   0.376   7.709 -2.5157 -1.1324 -0.7094
 5156TIP3    H237028   3.888   0.387   7.849 -1.0529 -1.0494 -0.1277
 5157TIP3   OH237029   0.190   4.847   1.218  0.1048  0.1909 -0.2168
 5157TIP3    H137030   0.173   4.806   1.133  0.9162  0.5081 -0.5368
 5157TIP3    H237031   0.113   4.825   1.270 -0.2035 -0.3824 -0.8911
 5158TIP3   OH237032   3.287   3.748   7.034 -0.2893  0.4311  0.4013
 5158TIP3    H137033   3.340   3.777   6.959  0.7149 -1.0469  0.5118
 5158TIP3    H237034   3.222   3.817   7.044  0.9037  1.7489 -0.4592
 5159TIP3   OH237035   1.171   4.230   7.636 -0.1253 -0.3907  0.3346
 5159TIP3    H137036   1.209   4.184   7.561  1.2516  1.8243 -0.4283
 5159TIP3    H237037   1.077   4.220   7.624  0.0784 -0.7679 -1.2522
 5160TIP3   OH237038   3.330   2.227   1.603 -0.4771  0.2464 -0.6334
 5160TIP3    H137039   3.407   2.283   1.614 -0.9815  0.7317  0.6324
 5160TIP3    H237040   3.257   2.289   1.592 -1.0250 -0.1547  0.6403
 5161TIP3   OH237041   5.723   5.565   8.346 -0.4380 -0.1075  0.0492
 5161TIP3    H137042   5.749   5.634   8.285 -2.8597 -0.2423 -1.2985
 5161TIP3    H237043   5.730   5.484   8.295 -2.1622 -0.2650 -0.0188
 5162TIP3   OH237044   2.279   6.504   7.333 -0.2133  0.2212 -0.4883
 5162TIP3    H137045   2.205   6.559   7.308 -1.1518 -0.2526  1.0755
 5162TIP3    H237046   2.276   6.431   7.272 -1.6524 -0.2734  0.1222
 5163TIP3   OH237047   6.749   6.038   1.639 -0.0198  0.1448 -0.1026
 5163TIP3    H137048   6.710   5.969   1.692  1.8297 -0.4502  0.5504
 5163TIP3    H237049   6.726   6.119   1.683 -4.3698  0.3339 -2.2007
 5164TIP3   OH237050   5.779   5.782   8.178  0.8504 -0.7686  0.3479
 5164TIP3    H137051   5.815   5.737   8.102 -0.7692 -0.9407 -0.3549
 5164TIP3    H237052   5.775   5.874   8.152 -0.6748 -0.9673 -0.2050
 5165TIP3   OH237053   5.649   6.397   2.875 -0.3971 -0.1068 -1.1544
 5165TIP3    H137054   5.642   6.466   2.940 -0.4505  0.0855 -1.3640
 5165TIP3    H237055   5.683   6.440   2.797  1.7350 -0.7229 -0.6276
 5166TIP3   OH237056   2.256   1.352   0.289  0.0017 -0.6975  0.3707
 5166TIP3    H137057   2.211   1.435   0.305  1.3160  0.4009 -1.3161
 5166TIP3    H237058   2.208   1.312   0.217  1.2439  0.1657 -0.9859
 5167TIP3   OH237059   3.301   3.455   7.747  0.6324 -0.0492 -0.6940
 5167TIP3    H137060   3.213   3.454   7.784  1.7129  1.8600  2.2611
 5167TIP3    H237061   3.332   3.365   7.757 -0.1007 -0.1838  0.6657
 5168TIP3   OH237062   3.479   6.091   1.640 -0.1619  0.1361  0.2293
 5168TIP3    H137063   3.497   5.997   1.636  1.3666  0.4363 -0.6807
 5168TIP3    H237064   3.395   6.097   1.686  0.3060 -1.5986  1.4255
 5169TIP3   OH237065   5.099   1.551   1.424 -0.2446 -0.0280  0.4971
 5169TIP3    H137066   5.097   1.484   1.492  0.4175 -0.9874 -0.3867
 5169TIP3    H237067   5.145   1.625   1.464  2.4761 -1.4941  0.3691
 5170TIP3   OH237068   5.428   3.701   0.323 -0.2916 -0.5651  0.1259
 5170TIP3    H137069   5.518   3.692   0.352  0.1520 -0.4262 -1.1641
 5170TIP3    H237070   5.430   3.685   0.228 -1.0402  2.6742 -0.5665
 5171TIP3   OH237071   1.969   4.504   1.613  0.7598  0.0084  0.2754
 5171TIP3    H137072   1.969   4.597   1.590  1.1113  0.3049  1.4079
 5171TIP3    H237073   2.061   4.482   1.622  0.6889  0.3542  2.9314
 5172TIP3   OH237074   0.871   5.346   8.269 -0.1246  0.0466 -0.2380
 5172TIP3    H137075   0.787   5.352   8.223  0.6405  1.1364 -1.5419
 5172TIP3    H237076   0.911   5.432   8.258  1.3680 -0.5877 -0.0268
 5173TIP3   OH237077   2.433   4.122   8.063 -0.2806 -0.1879  0.1811
 5173TIP3    H137078   2.439   4.214   8.038 -1.2614 -0.0338  0.4510
 5173TIP3    H237079   2.513   4.082   8.029  0.5473  0.9239  0.7881
 5174TIP3   OH237080   0.998   6.644   7.925  0.1524  0.3607  0.2006
 5174TIP3    H137081   0.915   6.640   7.877 -1.0251 -0.8553  2.2115
 5174TIP3    H237082   0.983   6.593   8.004  3.2615 -1.0428  0.0449
 5175TIP3   OH237083   5.767   6.574   7.641  0.1699  0.6778 -0.2464
 5175TIP3    H137084   5.736   6.652   7.686 -1.5120  0.6667 -1.3272
 5175TIP3    H237085   5.737   6.501   7.695 -1.9588  0.6586 -1.3600
 5176TIP3   OH237086   2.692   1.350   0.061 -0.0929  0.0095  0.2947
 5176TIP3    H137087   2.755   1.377   0.128 -0.6111 -1.1248  1.2714
 5176TIP3    H237088   2.746   1.323  -0.013  0.4954  1.0532  0.3133
 5177TIP3   OH237089   0.260   1.086   0.717 -0.1520 -0.6319 -0.8255
 5177TIP3    H137090   0.291   1.169   0.680  1.9530 -1.4788 -1.0697
 5177TIP3    H237091   0.211   1.111   0.795 -1.7928  0.9821 -2.2846
 5178TIP3   OH237092   0.406   5.598   2.573 -0.0176  0.5589 -0.0081
 5178TIP3    H137093   0.379   5.690   2.572 -2.0600  0.1689  3.6667
 5178TIP3    H237094   0.431   5.581   2.664 -0.4008 -2.7204 -0.4158
 5179TIP3   OH237095   6.096   2.490   6.746  0.5050 -0.1998  0.4157
 5179TIP3    H137096   6.134   2.560   6.694  0.5230  0.3553  1.1671
 5179TIP3    H237097   6.071   2.423   6.682 -0.8884  1.1127 -0.4618
 5180TIP3   OH237098   1.245   0.254   6.392 -0.2642  0.0434  0.2769
 5180TIP3    H137099   1.276   0.343   6.406  0.7722 -0.4779  1.5653
 5180TIP3    H237100   1.229   0.248   6.298  4.4770  0.1412 -0.7816
 5181TIP3   OH237101   1.802   5.876   1.961 -0.7647 -0.4592 -0.3972
 5181TIP3    H137102   1.796   5.805   2.026  1.6565 -1.5093 -1.2044
 5181TIP3    H237103   1.872   5.932   1.993 -1.7899  0.8861 -0.4469
 5182TIP3   OH237104   4.801   1.958   8.216 -1.0113  0.3789  0.3574
 5182TIP3    H137105   4.707   1.952   8.233 -0.8333  1.7987  2.1077
 5182TIP3    H237106   4.835   2.010   8.288  1.3405 -1.2013  0.4902
 5183TIP3   OH237107   4.842   5.451   0.375 -0.6052  0.1254  0.0872
 5183TIP3    H137108   4.759   5.433   0.331 -1.3325  1.7057  0.7023
 5183TIP3    H237109   4.825   5.531   0.426  1.4303  0.7528 -0.1156
 5184TIP3   OH237110   0.856   5.194   0.158 -0.0839  0.0808  0.2130
 5184TIP3    H137111   0.855   5.214   0.252 -3.1270 -0.4212  0.3966
 5184TIP3    H237112   0.923   5.252   0.123  0.7031  0.7569  2.5926
 5185TIP3   OH237113   1.829   5.394   6.887 -0.7800  0.1520 -0.0599
 5185TIP3    H137114   1.905   5.435   6.846  0.0718  0.1492  1.4390
 5185TIP3    H237115   1.843   5.408   6.981 -2.0515 -0.8726  0.3006
 5186TIP3   OH237116   6.864   5.724   1.269  0.2144 -0.1004  0.4204
 5186TIP3    H137117   6.812   5.692   1.195  0.7844 -0.6658  0.2531
 5186TIP3    H237118   6.891   5.812   1.243 -0.6693  0.2018  0.5199
 5187TIP3   OH237119   4.344   3.715   7.137  0.3036 -0.0404  0.0229
 5187TIP3    H137120   4.407   3.756   7.078 -0.4774  0.4392 -0.4921
 5187TIP3    H237121   4.262   3.762   7.122 -0.0246 -0.2062  1.1641
 5188TIP3   OH237122   3.036   6.536   0.162  0.8181  0.0907 -0.5304
 5188TIP3    H137123   2.980   6.534   0.240  0.5663 -1.3731 -0.7221
 5188TIP3    H237124   3.117   6.576   0.193  1.6149 -2.5287  1.1652
 5189TIP3   OH237125   0.986   2.211   6.552  0.5912 -0.1894  0.3287
 5189TIP3    H137126   0.924   2.206   6.479  0.9214 -0.5198  0.0695
 5189TIP3    H237127   0.987   2.304   6.576  0.7267 -0.0230 -0.3006
 5190TIP3   OH237128   5.623   3.820   0.704 -0.5380  0.2972  0.1942
 5190TIP3    H137129   5.696   3.860   0.658 -0.3022  1.7360  1.7321
 5190TIP3    H237130   5.653   3.730   0.722  0.1339  0.3298 -0.6981
 5191TIP3   OH237131   5.539   6.323   8.348  0.1324 -0.2985  0.2498
 5191TIP3    H137132   5.564   6.367   8.429  0.9142 -0.2138 -0.0278
 5191TIP3    H237133   5.622   6.300   8.306 -0.1777  1.6246 -1.6036
 5192TIP3   OH237134   4.503   3.750   0.324  0.0645  0.0530 -0.4639
 5192TIP3    H137135   4.485   3.736   0.231 -1.1945 -2.1357  0.0411
 5192TIP3    H237136   4.494   3.664   0.364  0.7892  0.8961  1.6860
 5193TIP3   OH237137   6.553   1.166   0.937 -0.2588  0.6396  0.3059
 5193TIP3    H137138   6.516   1.114   0.866  0.7938 -0.7423  0.7165
 5193TIP3    H237139   6.486   1.231   0.958 -0.9387  0.5007 -1.3358
 5194TIP3   OH237140   1.349   3.259   0.934  0.3554 -0.2997  0.1013
 5194TIP3    H137141   1.285   3.199   0.895 -2.8802  3.1416 -0.4303
 5194TIP3    H237142   1.348   3.237   1.028 -0.5220 -1.2086 -0.1025
 5195TIP3   OH237143   2.179   4.290   2.843  0.1810  0.2840 -0.1774
 5195TIP3    H137144   2.171   4.239   2.763 -0.7597 -0.1211  0.1530
 5195TIP3    H237145   2.145   4.377   2.820  0.5453  0.3682 -0.3940
 5196TIP3   OH237146   0.912   2.554   0.844 -0.3050 -0.5832 -0.5405
 5196TIP3    H137147   0.918   2.628   0.784  0.0408 -1.0010 -1.0329
 5196TIP3    H237148   0.976   2.491   0.810 -0.2678 -0.9140  0.1404
 5197TIP3   OH237149   3.345   6.381   1.716 -0.3570 -0.0256 -0.5342
 5197TIP3    H137150   3.389   6.442   1.775  0.1047  0.1668 -1.0704
 5197TIP3    H237151   3.285   6.435   1.666 -1.7901 -0.3998  0.7190
 5198TIP3   OH237152   6.013   4.071   7.947 -0.4751 -0.1018  0.7491
 5198TIP3    H137153   5.929   4.115   7.960 -0.3177  0.3727  0.1470
 5198TIP3    H237154   6.019   4.009   8.021 -1.9931 -1.1465  0.0367
 5199TIP3   OH237155   0.583   0.183   1.752 -0.0977 -0.1183  0.4597
 5199TIP3    H137156   0.562   0.157   1.662 -2.6506  0.4281  0.8244
 5199TIP3    H237157   0.544   0.114   1.806 -0.2395  0.5258  1.1958
 5200TIP3   OH237158   3.795   5.404   8.007  0.2118 -0.0230  0.3905
 5200TIP3    H137159   3.758   5.442   8.087  1.2004 -1.5562  1.6264
 5200TIP3    H237160   3.825   5.480   7.957  1.2575  0.9069  2.3217
 5201TIP3   OH237161   3.304   3.671   7.944 -0.3287 -1.4671  0.5936
 5201TIP3    H137162   3.266   3.753   7.973  0.9309 -0.9264  0.8101
 5201TIP3    H237163   3.252   3.645   7.868  2.2425  2.2185 -2.8749
 5202TIP3   OH237164   0.653   5.891   0.117 -0.2589 -0.6610  0.2559
 5202TIP3    H137165   0.626   5.809   0.159 -3.0757 -0.9050 -1.8043
 5202TIP3    H237166   0.589   5.955   0.146  0.2947  0.1616 -0.3103
 5203TIP3   OH237167   5.824   5.592   7.235  0.3390  0.5281 -0.1769
 5203TIP3    H137168   5.735   5.627   7.229 -0.5358 -1.5983 -0.6362
 5203TIP3    H237169   5.849   5.576   7.144  0.7855  0.2027  0.0021
 5204TIP3   OH237170   4.435   1.065   1.790 -0.1661 -0.1683 -0.1520
 5204TIP3    H137171   4.427   1.130   1.721 -3.2731  1.4103  1.4498
 5204TIP3    H237172   4.419   0.981   1.747 -0.8507  0.6485 -1.5308
 5205TIP3   OH237173   0.221   3.475   6.415  0.3204  0.0140  0.1808
 5205TIP3    H137174   0.295   3.522   6.378 -0.4428  1.5586  0.5263
 5205TIP3    H237175   0.154   3.542   6.429 -2.0956 -1.6190 -2.4016
 5206TIP3   OH237176   1.976   2.699   7.150 -0.3717  0.7980  0.1067
 5206TIP3    H137177   1.911   2.734   7.211  0.4469  3.5125 -0.4176
 5206TIP3    H237178   2.054   2.753   7.165  0.8403 -0.4933 -1.2218
 5207TIP3   OH237179   5.910   3.521   2.258  0.1908  0.2144 -0.8746
 5207TIP3    H137180   5.982   3.551   2.314 -0.4938  1.2142 -0.5112
 5207TIP3    H237181   5.949   3.451   2.206  1.4996  0.8936 -0.8594
 5208TIP3   OH237182   3.776   5.061   1.986 -0.2742  0.1701  0.3020
 5208TIP3    H137183   3.809   4.973   1.968  0.9525 -0.1962  3.5758
 5208TIP3    H237184   3.852   5.118   1.974  0.3143  0.0344  2.7588
 5209TIP3   OH237185   1.943   3.466   7.529 -0.0827  0.7563 -0.2625
 5209TIP3    H137186   1.910   3.515   7.454 -1.4874 -1.3106 -1.1024
 5209TIP3    H237187   1.886   3.389   7.533  0.1142  0.6681  2.7797
 5210TIP3   OH237188   2.705   5.291   0.413  0.3019  0.3340 -0.1711
 5210TIP3    H137189   2.746   5.223   0.359 -0.1954  0.3609 -0.5947
 5210TIP3    H237190   2.628   5.318   0.363  0.1012  0.7078  0.3279
 5211TIP3   OH237191   6.090   0.411   7.564 -0.1512  0.2350 -0.4549
 5211TIP3    H137192   6.131   0.352   7.627 -0.0282 -0.2134 -0.9451
 5211TIP3    H237193   6.120   0.498   7.590 -0.2223  0.0729  0.1910
 5212TIP3   OH237194   3.345   2.289   6.886 -0.0132  0.5758  0.1812
 5212TIP3    H137195   3.366   2.340   6.965 -1.4855  0.4553  0.6863
 5212TIP3    H237196   3.303   2.210   6.920  0.0601  0.1463 -0.7087
 5213TIP3   OH237197   0.897   4.295   7.868 -0.2435 -0.2273 -0.1188
 5213TIP3    H137198   0.807   4.271   7.892  0.0375 -1.1212  0.0500
 5213TIP3    H237199   0.886   4.350   7.790 -1.0377  1.0762  0.8446
 5214TIP3   OH237200   4.850   1.190   1.100 -0.4046 -0.2329  0.7715
 5214TIP3    H137201   4.800   1.260   1.059  0.1664  0.0530  0.5674
 5214TIP3    H237202   4.814   1.110   1.061 -0.7074 -0.0305  0.6307
 5215TIP3   OH237203   5.319   4.368   1.174 -0.1462 -0.2449 -0.0824
 5215TIP3    H137204   5.340   4.402   1.261  1.1344  0.1257 -0.5116
 5215TIP3    H237205   5.278   4.283   1.191  1.7594 -1.0346  0.8541
 5216TIP3   OH237206   6.219   6.317   7.908  0.3109 -0.0257 -0.3815
 5216TIP3    H137207   6.270   6.236   7.905  0.3438 -0.1884  2.2584
 5216TIP3    H237208   6.128   6.288   7.906  0.2777 -0.3770  2.5793
 5217TIP3   OH237209   5.718   0.635   8.622 -0.1995  0.1332 -0.2414
 5217TIP3    H137210   5.793   0.575   8.625  1.1799  1.6651 -1.7861
 5217TIP3    H237211   5.732   0.695   8.695 -1.2546 -0.9932  0.9322
 5218TIP3   OH237212   2.818   5.876   0.152 -0.1986  0.6935 -0.1547
 5218TIP3    H137213   2.750   5.943   0.147  1.2467  2.2367 -0.2528
 5218TIP3    H237214   2.792   5.821   0.226 -0.8099  2.1543  0.7731
 5219TIP3   OH237215   4.262   5.784   2.501 -0.1030 -0.1961  0.7905
 5219TIP3    H137216   4.350   5.821   2.508 -0.1564  0.4593 -1.4048
 5219TIP3    H237217   4.204   5.859   2.513 -0.3805 -0.5588  1.8204
 5220TIP3   OH237218   4.838   0.047   8.071  0.5948  0.4982  0.2371
 5220TIP3    H137219   4.747   0.076   8.080  0.5038  0.1646  0.4059
 5220TIP3    H237220   4.849   0.034   7.977 -0.2816 -1.7864  0.3925
 5221TIP3   OH237221   5.726   1.205   0.864 -0.6040 -0.4799 -0.1656
 5221TIP3    H137222   5.657   1.257   0.822  1.5160  1.1202 -1.9275
 5221TIP3    H237223   5.790   1.270   0.892  0.0136 -1.8890  1.8386
 5222TIP3   OH237224   1.633   2.638   8.685  0.8931  0.1439  0.6069
 5222TIP3    H137225   1.569   2.693   8.729  0.1011  0.8706 -1.3343
 5222TIP3    H237226   1.581   2.578   8.631  1.8149  0.0251 -0.1777
 5223TIP3   OH237227   4.614   0.301   7.770 -0.6665  0.4568 -0.0777
 5223TIP3    H137228   4.636   0.226   7.715 -1.8259  0.5915 -0.7539
 5223TIP3    H237229   4.602   0.373   7.709 -1.7932  0.6532  0.3469
 5224TIP3   OH237230   2.561   0.994   7.999 -0.5606 -0.2866  0.1103
 5224TIP3    H137231   2.574   0.927   7.932 -1.2539 -0.6812  0.3693
 5224TIP3    H237232   2.604   1.072   7.963  2.2866 -1.4140  0.7943
 5225TIP3   OH237233   5.322   5.988   2.161 -0.0775  0.0800 -0.2325
 5225TIP3    H137234   5.402   5.991   2.109  0.5545 -0.3913  0.6889
 5225TIP3    H237235   5.252   6.002   2.098  0.7645  1.4193 -0.9267
 5226TIP3   OH237236   0.738   3.337   7.928  0.1761  0.0483  0.1346
 5226TIP3    H137237   0.790   3.384   7.863 -0.5097  0.4802 -0.1203
 5226TIP3    H237238   0.785   3.255   7.942  1.3790  0.8037  0.5718
 5227TIP3   OH237239   0.528   2.713   7.456  0.2805 -0.0368 -0.0642
 5227TIP3    H137240   0.604   2.655   7.448  0.2353 -0.2179  0.7068
 5227TIP3    H237241   0.453   2.655   7.445  0.2218 -0.2494  1.2341
 5228TIP3   OH237242   2.702   4.812   1.111  0.2785 -0.4068 -0.2944
 5228TIP3    H137243   2.777   4.868   1.133 -0.5826  0.7708 -0.2434
 5228TIP3    H237244   2.655   4.861   1.044 -1.0033 -0.6327  0.4189
 5229TIP3   OH237245   5.947   0.005   8.364 -0.1792  0.0441 -0.0832
 5229TIP3    H137246   6.031   0.043   8.338 -0.7597  0.6587 -1.1443
 5229TIP3    H237247   5.911   0.068   8.426  0.5137 -0.6518  1.0536
 5230TIP3   OH237248   5.667   1.477   2.722 -0.2665  0.0223  0.3075
 5230TIP3    H137249   5.667   1.559   2.674  0.5274  1.0112  1.9062
 5230TIP3    H237250   5.740   1.427   2.686 -1.6955 -0.7253 -1.7597
 5231TIP3   OH237251   3.487   1.895   8.121 -0.7551  0.8159 -0.1338
 5231TIP3    H137252   3.518   1.813   8.160  1.3119  1.2303 -0.7765
 5231TIP3    H237253   3.451   1.869   8.037  0.9023  0.6307 -0.8301
 5232TIP3   OH237254   3.743   3.243   0.485 -0.0600  0.1661 -0.5913
 5232TIP3    H137255   3.705   3.169   0.438  0.4158 -0.3658 -0.1578
 5232TIP3    H237256   3.702   3.239   0.572  0.0068  0.3752 -0.5501
 5233TIP3   OH237257   4.398   1.559   0.640  0.3815  0.0015 -0.0229
 5233TIP3    H137258   4.316   1.514   0.620  0.8961 -1.3446  0.7286
 5233TIP3    H237259   4.398   1.637   0.584 -1.3670 -0.0030 -0.0658
 5234TIP3   OH237260   4.670   0.731   7.115  0.4895  0.3668  0.4474
 5234TIP3    H137261   4.579   0.715   7.091  0.8421 -1.0891  0.0390
 5234TIP3    H237262   4.664   0.789   7.192 -0.7009  2.2781 -0.9894
 5235TIP3   OH237263   2.629   1.031   6.424 -0.4954 -0.2802  0.4695
 5235TIP3    H137264   2.584   0.976   6.361  0.0422 -0.4622  0.2405
 5235TIP3    H237265   2.644   1.114   6.378 -1.0503 -0.0350  0.7190
 5236TIP3   OH237266   5.866   5.238   7.225  0.1701 -0.4992  0.2759
 5236TIP3    H137267   5.922   5.315   7.228  0.6649 -0.8852  1.1149
 5236TIP3    H237268   5.828   5.232   7.313 -0.2992 -0.9013  0.0521
 5237TIP3   OH237269   1.852   4.802   7.028  0.1630  0.0981 -0.1269
 5237TIP3    H137270   1.938   4.781   6.993  1.0255  2.1483  0.6189
 5237TIP3    H237271   1.856   4.776   7.121 -0.9956 -2.2589 -0.6464
 5238TIP3   OH237272   1.388   0.193   1.013 -0.2901  0.0893 -0.0217
 5238TIP3    H137273   1.434   0.155   0.938 -0.3002 -3.6290  1.6428
 5238TIP3    H237274   1.446   0.262   1.045  0.6876  0.3248 -2.1542
 5239TIP3   OH237275   6.636   3.342   1.607 -0.1154  0.3470  0.4524
 5239TIP3    H137276   6.668   3.427   1.636  1.2186 -0.3539  1.1542
 5239TIP3    H237277   6.552   3.331   1.650 -1.9195  2.6589 -2.1692
 5240TIP3   OH237278   3.169   2.291   8.644 -0.6884  0.2447  0.1792
 5240TIP3    H137279   3.121   2.317   8.566 -1.0331  0.6587  0.5225
 5240TIP3    H237280   3.117   2.326   8.717  0.6323  1.5642  0.5331
 5241TIP3   OH237281   0.223   5.479   7.824  0.0381  0.4778 -0.5020
 5241TIP3    H137282   0.248   5.526   7.745  0.7040  0.2867 -0.4106
 5241TIP3    H237283   0.138   5.515   7.848  0.5070  1.5879 -0.4650
 5242TIP3   OH237284   1.331   4.498   1.450  0.0856  0.7623  0.0932
 5242TIP3    H137285   1.313   4.537   1.536  0.6482  0.8097  0.1953
 5242TIP3    H237286   1.345   4.405   1.468 -3.9629 -0.1296 -0.4811
 5243TIP3   OH237287   0.937   6.119   0.909 -0.5062  0.1342 -0.9097
 5243TIP3    H137288   0.867   6.168   0.953  0.8716 -0.3903  2.1204
 5243TIP3    H237289   1.008   6.183   0.900  0.5313 -0.6200  1.1382
 5244TIP3   OH237290   5.204   1.051   2.220 -0.0242 -0.4154  0.7198
 5244TIP3    H137291   5.285   1.002   2.234 -0.6322 -1.1948  1.7195
 5244TIP3    H237292   5.162   1.009   2.146 -0.8503 -1.9004  1.9648
 5245TIP3   OH237293   0.600   4.978   7.644 -0.8128  0.2016 -0.5248
 5245TIP3    H137294   0.610   4.955   7.737 -3.5310  0.5104 -0.0688
 5245TIP3    H237295   0.669   5.041   7.628  2.0816 -2.5111  0.2217
 5246TIP3   OH237296   6.343   4.312   8.591 -0.0131  0.3104 -0.5485
 5246TIP3    H137297   6.298   4.369   8.653  2.6941  0.8408  1.0647
 5246TIP3    H237298   6.366   4.369   8.518  0.1062  0.5837 -0.2986
 5247TIP3   OH237299   4.258   0.638   8.004  0.0221 -0.1720  0.2851
 5247TIP3    H137300   4.329   0.662   8.065  2.1387 -1.7727 -1.3737
 5247TIP3    H237301   4.228   0.553   8.035  0.2092 -0.3960 -0.1395
 5248TIP3   OH237302   5.375   4.886   2.078  0.3718  0.5090 -0.2026
 5248TIP3    H137303   5.374   4.803   2.125  1.3424 -0.4333 -1.7509
 5248TIP3    H237304   5.283   4.902   2.057  0.0358  0.4835  1.1956
 5249TIP3   OH237305   2.060   4.958   1.248  0.3178  0.3137  0.3953
 5249TIP3    H137306   2.154   4.939   1.250  0.4892 -0.0617 -3.8140
 5249TIP3    H237307   2.055   5.053   1.232 -0.1132  0.5109  1.5713
 5250TIP3   OH237308   5.627   5.879   0.031 -0.2608 -0.1700  0.1042
 5250TIP3    H137309   5.632   5.971   0.056 -1.7272  0.2252 -0.9132
 5250TIP3    H237310   5.691   5.836   0.087  1.2628  1.6083 -0.1520
 5251TIP3   OH237311   5.843   6.730   1.587 -0.1741  0.4587  0.1907
 5251TIP3    H137312   5.809   6.812   1.623 -1.6702  0.6849 -1.5887
 5251TIP3    H237313   5.766   6.683   1.556  0.7913 -0.9960 -0.0937
 5252TIP3   OH237314   4.573   6.456   8.389  0.1817  0.0150 -0.1601
 5252TIP3    H137315   4.556   6.380   8.333  0.5633 -0.0077 -0.2504
 5252TIP3    H237316   4.659   6.487   8.361 -0.5683  1.3430 -1.1065
 5253TIP3   OH237317   3.350   6.522   1.415 -0.3555 -0.1841  0.1575
 5253TIP3    H137318   3.329   6.610   1.382  1.2868  0.5938  1.0379
 5253TIP3    H237319   3.283   6.503   1.480 -0.4433  0.6455  0.3186
 5254TIP3   OH237320   4.960   2.009   2.074  0.0466 -0.1485 -0.2528
 5254TIP3    H137321   4.901   2.074   2.113 -2.1304 -0.7469 -2.2465
 5254TIP3    H237322   4.916   1.984   1.993  1.7254 -2.7686 -0.4574
 5255TIP3   OH237323   3.481   5.621   2.479  0.3086 -0.0139 -0.2301
 5255TIP3    H137324   3.533   5.588   2.552 -0.1282 -0.1040  0.0406
 5255TIP3    H237325   3.488   5.717   2.487  0.6281 -0.0268 -0.3376
 5256TIP3   OH237326   5.450   3.259   1.262 -0.2657 -0.3752 -0.0226
 5256TIP3    H137327   5.502   3.337   1.242 -0.8734  0.0383  0.0056
 5256TIP3    H237328   5.516   3.191   1.280  0.2770 -0.3279 -1.7246
 5257TIP3   OH237329   1.456   0.625   7.920 -0.0395 -0.3014  0.1666
 5257TIP3    H137330   1.516   0.552   7.933  0.0390  0.0338  1.7917
 5257TIP3    H237331   1.511   0.696   7.886  0.1397 -0.5397 -0.0479
 5258TIP3   OH237332   6.381   6.310   7.481  0.2532  0.1014 -0.5446
 5258TIP3    H137333   6.410   6.372   7.548 -1.1154  0.4796 -0.2588
 5258TIP3    H237334   6.460   6.289   7.431  1.2515  0.0492  0.9917
 5259TIP3   OH237335   2.717   3.950   8.386  0.3365  0.2055  0.1655
 5259TIP3    H137336   2.719   4.020   8.451 -2.8143  0.5794  0.0132
 5259TIP3    H237337   2.783   3.975   8.322  0.8078  1.8691  1.2355
 5260TIP3   OH237338   2.655   0.240   8.049 -0.4888  0.1297  0.1245
 5260TIP3    H137339   2.703   0.180   8.106  0.7142  0.2814 -0.6936
 5260TIP3    H237340   2.571   0.252   8.093  0.5180  0.5302  2.0676
 5261TIP3   OH237341   6.797   2.579   0.364  0.3435 -0.2127  0.6013
 5261TIP3    H137342   6.751   2.594   0.281 -0.4642  0.0587  1.0804
 5261TIP3    H237343   6.880   2.625   0.354 -0.3661  1.1098  0.4784
 5262TIP3   OH237344   0.831   5.080   0.600 -0.0087 -0.1918 -0.0726
 5262TIP3    H137345   0.874   4.995   0.590  0.5490 -0.0495  0.9428
 5262TIP3    H237346   0.813   5.086   0.694  2.7531  2.1463  0.4161
 5263TIP3   OH237347   0.040   4.697   7.350  0.3560 -0.1193  0.3301
 5263TIP3    H137348   0.078   4.765   7.295  2.4757 -0.3352  1.4639
 5263TIP3    H237349  -0.053   4.720   7.355  0.3042  0.6090 -2.2633
 5264TIP3   OH237350   5.312   4.552   8.614 -0.1641  0.3703  0.4908
 5264TIP3    H137351   5.241   4.616   8.626 -0.4509  0.2673 -0.5535
 5264TIP3    H237352   5.268   4.471   8.589  0.3400  0.5969 -1.3110
 5265TIP3   OH237353   0.338   1.288   7.492  0.0758 -0.1323  0.0626
 5265TIP3    H137354   0.283   1.238   7.432 -0.5527  1.1998 -0.5180
 5265TIP3    H237355   0.287   1.367   7.511  1.6502  1.0253 -0.2845
 5266TIP3   OH237356   4.803   6.267   0.277  0.8920 -0.3487 -0.2486
 5266TIP3    H137357   4.897   6.256   0.265  0.6911 -0.4895 -2.0286
 5266TIP3    H237358   4.768   6.178   0.282  0.8390 -0.2976  0.3950
 5267TIP3   OH237359   6.532   1.963   0.960  0.1193  0.1950  0.1789
 5267TIP3    H137360   6.537   1.889   1.021  0.0320 -0.8998 -1.0788
 5267TIP3    H237361   6.601   2.023   0.988  1.2065 -1.0835  0.3421
 5268TIP3   OH237362   1.252   4.598   7.317  0.1394 -0.2315 -0.1874
 5268TIP3    H137363   1.160   4.623   7.305 -0.0740 -1.4746 -1.3695
 5268TIP3    H237364   1.285   4.660   7.382 -1.3105  0.7676 -0.3452
 5269TIP3   OH237365   0.309   3.447   0.893  0.5105  1.0177 -0.5710
 5269TIP3    H137366   0.298   3.459   0.799  0.0293  0.9769 -0.5254
 5269TIP3    H237367   0.219   3.440   0.927  0.5849  2.8571  0.1299
 5270TIP3   OH237368   6.017   4.676   1.260  0.2575  0.7860  0.3588
 5270TIP3    H137369   6.082   4.674   1.330 -1.0198  0.1343  1.6007
 5270TIP3    H237370   5.948   4.734   1.293 -0.1308  0.8758 -0.5819
 5271TIP3   OH237371   4.741   2.690   7.778  0.2242 -0.0626  0.5731
 5271TIP3    H137372   4.804   2.731   7.836  1.6665  0.7705 -1.4567
 5271TIP3    H237373   4.785   2.613   7.744  0.5517  0.9300 -1.4429
 5272TIP3   OH237374   0.135   5.993   1.516 -0.0159 -0.0625 -0.2037
 5272TIP3    H137375   0.161   6.082   1.491  0.4355  0.4155  1.7645
 5272TIP3    H237376   0.044   6.002   1.545 -0.0830 -0.3027 -0.3421
 5273TIP3   OH237377   0.457   4.738   8.363 -0.0066  0.3800  0.0302
 5273TIP3    H137378   0.513   4.784   8.426 -0.3955  1.6128 -0.4802
 5273TIP3    H237379   0.370   4.775   8.377 -0.3090 -0.1140 -0.4964
 5274TIP3   OH237380   0.551   0.143   0.441  0.3222 -0.6677  0.4386
 5274TIP3    H137381   0.488   0.198   0.488 -0.3115  0.2082 -1.3691
 5274TIP3    H237382   0.537   0.055   0.476 -2.8260 -0.7477 -0.7544
 5275TIP3   OH237383   5.883   4.374   7.440  0.1715 -0.2781 -0.0437
 5275TIP3    H137384   5.882   4.331   7.354 -0.3239 -0.0125 -0.1699
 5275TIP3    H237385   5.791   4.381   7.465  0.3034 -0.1578  0.4146
 5276TIP3   OH237386   2.131   4.509   0.869 -0.2616 -0.1962 -0.3855
 5276TIP3    H137387   2.209   4.472   0.829 -0.3396  0.8583 -1.5715
 5276TIP3    H237388   2.115   4.591   0.821 -2.6191 -0.8226 -0.8302
 5277TIP3   OH237389   2.597   2.473   1.606 -0.0228 -0.2694 -0.0956
 5277TIP3    H137390   2.646   2.429   1.675  1.3048  0.2885 -0.6379
 5277TIP3    H237391   2.540   2.534   1.652  0.9819  0.2382  0.5109
 5278TIP3   OH237392   4.482   5.990   1.449  0.0911 -0.8353  0.1050
 5278TIP3    H137393   4.427   5.919   1.483  0.6837 -1.7601 -0.7724
 5278TIP3    H237394   4.435   6.070   1.471 -0.3103 -1.4593  1.6468
 5279TIP3   OH237395   1.054   5.028   2.649 -0.1000 -0.2990  0.5408
 5279TIP3    H137396   1.021   4.958   2.593 -0.3506 -0.1474  0.4965
 5279TIP3    H237397   1.001   5.104   2.626  1.7272  0.5446 -1.0899
 5280TIP3   OH237398   0.442   5.556   0.770  0.6999 -0.1186  0.3407
 5280TIP3    H137399   0.496   5.634   0.783  1.1533 -0.3833  0.0732
 5280TIP3    H237400   0.382   5.556   0.844  0.8357  0.3695  0.4575
 5281TIP3   OH237401   6.578   5.492   2.421 -0.6317 -0.4545  0.2960
 5281TIP3    H137402   6.550   5.524   2.507 -1.1801 -0.0036 -0.0382
 5281TIP3    H237403   6.588   5.572   2.369 -2.7929 -0.8056 -0.7858
 5282TIP3   OH237404   4.985   0.913   8.343  0.2583  0.0894  0.0043
 5282TIP3    H137405   5.035   0.888   8.266  0.3518  0.5197 -0.0724
 5282TIP3    H237406   5.017   1.000   8.367  0.4243 -0.1519  0.6899
 5283TIP3   OH237407   3.884   1.622   8.700  0.3542 -0.3528  0.3750
 5283TIP3    H137408   3.908   1.712   8.723 -0.6516  0.3189 -1.0903
 5283TIP3    H237409   3.957   1.590   8.647  1.0937 -0.7299  1.5602
 5284TIP3   OH237410   2.023   4.030   1.969  0.4702 -0.4717  0.3233
 5284TIP3    H137411   2.044   4.066   1.883  1.9639 -0.3266  0.7332
 5284TIP3    H237412   1.987   4.104   2.018  0.6888 -0.2819  0.1960
 5285TIP3   OH237413   2.394   2.997   1.110  0.1921  0.0715  0.3762
 5285TIP3    H137414   2.438   2.999   1.025 -1.4312 -0.3939 -0.5242
 5285TIP3    H237415   2.345   2.915   1.109  0.6353 -0.2584  2.0535
 5286TIP3   OH237416   0.678   2.909   0.914 -0.2347 -0.9246  0.1587
 5286TIP3    H137417   0.769   2.939   0.911 -0.9949  2.0482  2.7073
 5286TIP3    H237418   0.629   2.977   0.867 -1.6835  0.5616  3.5458
 5287TIP3   OH237419   4.986   2.213   7.813  0.0789  0.4370 -0.2588
 5287TIP3    H137420   4.985   2.117   7.816 -0.0300  0.4214 -0.7268
 5287TIP3    H237421   4.902   2.236   7.773 -0.4251  0.7761  0.9522
 5288TIP3   OH237422   0.039   3.091   8.305  0.2676 -0.3870 -0.0558
 5288TIP3    H137423   0.072   3.063   8.220 -2.6802 -2.8151 -0.5683
 5288TIP3    H237424   0.021   3.185   8.294  2.4797 -0.0412 -1.1498
 5289TIP3   OH237425   5.382   5.343   7.563  0.4178 -0.0491  0.6305
 5289TIP3    H137426   5.309   5.284   7.546 -2.0797  3.5501 -2.6641
 5289TIP3    H237427   5.353   5.397   7.636  0.1808  0.7993 -0.0888
 5290TIP3   OH237428   5.313   5.386   7.992  0.2896 -0.1307  0.6951
 5290TIP3    H137429   5.274   5.437   7.921  0.8495 -0.5618  0.0634
 5290TIP3    H237430   5.355   5.312   7.948 -0.4582 -1.1063  1.5919
 5291TIP3   OH237431   5.116   2.248   7.413  0.0268  0.2719 -0.4600
 5291TIP3    H137432   5.123   2.221   7.321 -1.5541 -1.6318 -0.0838
 5291TIP3    H237433   5.078   2.172   7.458 -1.6443  2.0197  1.3029
 5292TIP3   OH237434   4.110   3.671   6.829  0.5974  0.3215 -0.0229
 5292TIP3    H137435   4.065   3.736   6.775 -1.8078  0.4412  1.9546
 5292TIP3    H237436   4.154   3.723   6.896  0.6526  0.0082  0.1830
 5293TIP3   OH237437   5.778   2.711   1.893  0.2621 -0.0130 -0.1239
 5293TIP3    H137438   5.749   2.755   1.973  3.6333  2.8205 -0.2219
 5293TIP3    H237439   5.742   2.764   1.822 -2.4883 -2.3602 -0.6663
 5294TIP3   OH237440   3.132   4.778   1.748  0.6653  0.4734  0.1415
 5294TIP3    H137441   3.187   4.834   1.803  0.2468  1.9247 -0.8514
 5294TIP3    H237442   3.061   4.835   1.719 -0.8325 -1.0820  0.5593
 5295TIP3   OH237443   4.050   4.253   1.128  0.4038  0.0454 -0.7033
 5295TIP3    H137444   4.092   4.339   1.134  0.7941 -0.2019  0.5814
 5295TIP3    H237445   3.956   4.273   1.124  0.4456  0.5386  0.3143
 5296TIP3   OH237446   4.828   5.371   7.547  0.0270  0.3941 -0.4526
 5296TIP3    H137447   4.750   5.352   7.496 -1.0331  0.2887  1.1443
 5296TIP3    H237448   4.890   5.303   7.522 -0.2712  0.6311 -1.9257
 5297TIP3   OH237449   5.576   3.469   1.102  0.2919  0.1148  0.0284
 5297TIP3    H137450   5.654   3.517   1.073  0.5132 -0.8197 -0.9978
 5297TIP3    H237451   5.531   3.445   1.021 -0.9326  0.3984  0.6031
 5298TIP3   OH237452   1.547   2.099   8.109 -0.6798 -0.1624  0.4319
 5298TIP3    H137453   1.538   2.019   8.058 -0.7378 -1.2763  2.1080
 5298TIP3    H237454   1.595   2.073   8.187  3.3262  2.3513 -0.8890
 5299TIP3   OH237455   1.034   0.663   0.861 -0.2000 -0.0492 -0.5343
 5299TIP3    H137456   0.954   0.615   0.839 -1.3057  1.5312 -0.1659
 5299TIP3    H237457   1.003   0.751   0.885  1.2882 -0.3428  3.0103
 5300TIP3   OH237458   6.524   4.534   2.196  0.6504  0.0620 -0.0304
 5300TIP3    H137459   6.533   4.575   2.110 -0.0250  1.2809  0.4709
 5300TIP3    H237460   6.590   4.464   2.195  0.0198 -0.5694 -1.8829
 5301TIP3   OH237461   6.609   3.147   0.001  0.1924  0.2814  0.0785
 5301TIP3    H137462   6.628   3.120   0.091  2.2812  1.5753  0.0664
 5301TIP3    H237463   6.687   3.123  -0.048 -0.0049  1.6402 -0.9419
 5302TIP3   OH237464   1.640   2.294   6.569 -0.4659  0.5015 -0.2699
 5302TIP3    H137465   1.697   2.360   6.607  0.2131  0.7596 -1.6782
 5302TIP3    H237466   1.673   2.282   6.480  0.1626 -2.5305  0.2422
 5303TIP3   OH237467   3.414   1.319   7.406 -0.1266 -0.5163 -0.0471
 5303TIP3    H137468   3.374   1.405   7.416  0.9788  0.0934 -0.5851
 5303TIP3    H237469   3.452   1.321   7.318  0.1441 -1.4601  0.0371
 5304TIP3   OH237470   0.839   3.352   8.586  0.0081  0.3889  0.0581
 5304TIP3    H137471   0.772   3.411   8.551  0.3252  0.3784 -0.5947
 5304TIP3    H237472   0.877   3.311   8.508  1.8616  1.5677  0.2837
 5305TIP3   OH237473   5.851   2.452   1.834  0.1740  0.2970 -0.0081
 5305TIP3    H137474   5.817   2.541   1.847 -0.8356 -0.2923  1.7095
 5305TIP3    H237475   5.840   2.409   1.919  0.1217 -1.6548 -0.9401
 5306TIP3   OH237476   6.387   2.633   7.216 -0.3397  0.5862 -0.0815
 5306TIP3    H137477   6.293   2.613   7.211 -0.3272  0.1779  0.9335
 5306TIP3    H237478   6.419   2.577   7.287  0.7585  0.4216 -0.6966
 5307TIP3   OH237479   4.032   6.749   7.317 -0.0846 -0.1401 -0.0485
 5307TIP3    H137480   3.989   6.748   7.232  0.3050  1.4011 -0.2792
 5307TIP3    H237481   4.120   6.783   7.300 -0.0839  0.4260  0.9984
 5308TIP3   OH237482   6.211   0.353   1.081 -0.4952 -0.0946 -0.3223
 5308TIP3    H137483   6.283   0.393   1.129 -0.8639  1.0220 -0.6496
 5308TIP3    H237484   6.135   0.365   1.138 -0.7814  0.5158 -0.8180
 5309TIP3   OH237485   4.381   0.867   7.618 -0.0973 -0.1892  0.4015
 5309TIP3    H137486   4.407   0.956   7.592 -3.2982  0.5804 -0.5230
 5309TIP3    H237487   4.424   0.811   7.554 -1.9971  1.1564 -2.2227
 5310TIP3   OH237488   1.805   4.899   8.691  0.9525  0.3207 -0.5688
 5310TIP3    H137489   1.811   4.969   8.756  0.0357 -0.1143 -0.0122
 5310TIP3    H237490   1.884   4.911   8.637  1.1718  1.3429 -0.0523
 5311TIP3   OH237491   6.092   0.980   2.004 -0.2204  0.4810 -0.2675
 5311TIP3    H137492   6.106   0.956   2.096 -0.3007  2.1834  0.2215
 5311TIP3    H237493   6.155   0.927   1.956 -1.3072 -1.6710  0.5742
 5312TIP3   OH237494   2.872   0.701   8.192  0.5704 -0.0089  0.2044
 5312TIP3    H137495   2.780   0.679   8.182  0.8479 -0.6365 -1.2262
 5312TIP3    H237496   2.899   0.730   8.105  1.6901  0.2937  0.6350
 5313TIP3   OH237497   3.604   2.741   0.909  0.3945 -0.0339  0.2502
 5313TIP3    H137498   3.518   2.783   0.918  0.5729  0.2901  0.4422
 5313TIP3    H237499   3.591   2.652   0.944  0.6498  0.6552  2.2096
 5314TIP3   OH237500   5.992   2.628   8.151  0.2536  0.3665 -0.0957
 5314TIP3    H137501   5.992   2.646   8.057  0.3123 -0.1202 -0.1903
 5314TIP3    H237502   5.954   2.540   8.159  1.6472 -0.2412  0.2077
 5315TIP3   OH237503   0.895   5.760   1.231  0.0690  0.3619  0.8745
 5315TIP3    H137504   0.965   5.705   1.195 -0.9799 -0.4584  0.0322
 5315TIP3    H237505   0.890   5.736   1.323  0.6141  0.1331  0.8451
 5316TIP3   OH237506   0.786   0.176   0.312  0.6113 -0.1250  0.6539
 5316TIP3    H137507   0.700   0.162   0.350 -0.4993 -1.0839 -2.0330
 5316TIP3    H237508   0.834   0.095   0.328 -0.0192 -0.7108 -0.3521
 5317TIP3   OH237509   1.286   3.939   1.846  0.3407  0.0545 -0.5983
 5317TIP3    H137510   1.207   3.943   1.792 -0.2425  1.1688  0.2874
 5317TIP3    H237511   1.357   3.926   1.783 -0.3915  0.5297 -1.5576
 5318TIP3   OH237512   2.774   3.800   2.299 -0.3472  0.0834 -0.6338
 5318TIP3    H137513   2.750   3.881   2.254  0.9992  0.6505 -0.3625
 5318TIP3    H237514   2.792   3.827   2.389  1.2239 -0.3036 -0.8008
 5319TIP3   OH237515   2.554   2.105   1.805  0.2554 -0.1393  0.1807
 5319TIP3    H137516   2.603   2.030   1.839 -0.8670 -0.5795  0.8799
 5319TIP3    H237517   2.486   2.121   1.871 -0.5912  0.4008 -0.8033
 5320TIP3   OH237518   6.586   3.335   7.874  0.8365 -0.1262  0.4831
 5320TIP3    H137519   6.627   3.421   7.881 -1.4732  0.9570  1.7654
 5320TIP3    H237520   6.598   3.295   7.961 -1.2545  0.4872  1.1099
 5321TIP3   OH237521   3.835   3.882   0.061  0.1811  0.3766 -0.4071
 5321TIP3    H137522   3.860   3.939   0.133  0.6955 -1.6626  1.1251
 5321TIP3    H237523   3.775   3.819   0.099  0.1335 -0.5103 -1.8574
 5322TIP3   OH237524   2.074   1.100   0.689 -0.7651 -0.1154 -0.3713
 5322TIP3    H137525   2.130   1.098   0.612 -1.0018  1.8512 -0.6544
 5322TIP3    H237526   2.015   1.174   0.674 -0.4238  0.7079  1.9408
 5323TIP3   OH237527   4.783   4.266   0.157  0.8260 -0.2786  0.2280
 5323TIP3    H137528   4.769   4.357   0.182 -0.9627 -0.4837  0.1139
 5323TIP3    H237529   4.766   4.263   0.063 -0.5370 -0.9651  0.4741
 5324TIP3   OH237530   5.037   4.589   7.832  0.2948  0.0141 -0.0349
 5324TIP3    H137531   5.065   4.521   7.771  0.1541  0.5883 -0.7480
 5324TIP3    H237532   5.104   4.590   7.900 -0.1937 -1.4832  0.4971
 5325TIP3   OH237533   4.261   3.657   1.238  0.2236 -0.2612 -0.0392
 5325TIP3    H137534   4.285   3.744   1.205 -2.6477  0.9529  0.7571
 5325TIP3    H237535   4.165   3.660   1.244  0.1818 -2.8266  1.8586
 5326TIP3   OH237536   3.360   2.835   0.556  0.0883  0.1094  0.0379
 5326TIP3    H137537   3.395   2.909   0.507  2.5667 -0.5194  0.6979
 5326TIP3    H237538   3.349   2.868   0.645 -2.2025  0.6049 -0.3695
 5327TIP3   OH237539   3.987   3.676   0.616  0.2287 -0.2488  0.5006
 5327TIP3    H137540   3.975   3.704   0.706 -1.7543 -1.2933  0.6162
 5327TIP3    H237541   4.061   3.728   0.584  0.0651  1.1619  2.2752
 5328TIP3   OH237542   3.662   0.645   0.045 -0.1572  0.4654 -0.8988
 5328TIP3    H137543   3.635   0.553   0.055  3.0007 -0.4096  1.0353
 5328TIP3    H237544   3.628   0.689   0.123  0.6470  0.2373 -0.4016
 5329TIP3   OH237545   6.131   4.824   8.328  0.2970  0.1624 -0.1925
 5329TIP3    H137546   6.210   4.876   8.309  0.9939 -1.2716 -1.4228
 5329TIP3    H237547   6.144   4.743   8.280 -1.6524 -0.3814  0.1252
 5330TIP3   OH237548   1.636   3.578   1.608  0.1466 -0.4111 -0.2950
 5330TIP3    H137549   1.687   3.634   1.667 -1.1322  1.4643 -0.8897
 5330TIP3    H237550   1.663   3.489   1.631  1.3229  0.3606  1.5681
 5331TIP3   OH237551   4.174   1.064   0.650  0.4755  0.0876  0.3493
 5331TIP3    H137552   4.097   1.120   0.648  0.7090  0.4125  0.5086
 5331TIP3    H237553   4.140   0.977   0.672  0.4968  0.8102  3.6449
 5332TIP3   OH237554   1.853   4.393   7.828 -0.3201 -0.2566 -0.2014
 5332TIP3    H137555   1.864   4.420   7.919 -2.2436 -1.7922  0.5774
 5332TIP3    H237556   1.822   4.472   7.783 -1.2848  0.0648  0.9586
 5333TIP3   OH237557   3.510   0.818   7.663  0.1428 -0.2143 -0.0495
 5333TIP3    H137558   3.594   0.774   7.677 -0.3458 -0.6372  1.8209
 5333TIP3    H237559   3.529   0.910   7.682 -0.1264 -0.5420  2.1033
 5334TIP3   OH237560   2.080   3.937   1.625  0.2462 -0.7695 -0.1806
 5334TIP3    H137561   2.112   3.996   1.556 -0.1782 -1.0058 -0.5909
 5334TIP3    H237562   1.984   3.943   1.618 -0.0074 -4.4051 -2.8891
 5335TIP3   OH237563   2.242   6.738   6.423  0.1526 -0.1779 -0.5734
 5335TIP3    H137564   2.179   6.790   6.373  1.0823  1.3904 -0.1707
 5335TIP3    H237565   2.189   6.667   6.460 -0.9837 -0.0522 -1.8662
 5336TIP3   OH237566   2.172   0.693   0.601  0.1677 -0.2777 -0.4623
 5336TIP3    H137567   2.175   0.735   0.515  0.0644  0.4219 -0.1326
 5336TIP3    H237568   2.211   0.607   0.587  0.7225  0.0644 -1.0737
 5337TIP3   OH237569   2.768   2.014   1.001 -0.4420 -0.2243  0.1631
 5337TIP3    H137570   2.763   2.001   1.096  0.9448 -2.3316  0.0316
 5337TIP3    H237571   2.857   2.047   0.986 -1.2150  1.7416 -0.3009
 5338TIP3   OH237572   4.221   3.076   1.453  0.1434 -0.3619 -0.4582
 5338TIP3    H137573   4.306   3.119   1.446  0.3721 -0.2442  2.1458
 5338TIP3    H237574   4.157   3.145   1.437  0.5410  0.6315  1.8592
 5339TIP3   OH237575   2.823   2.971   1.732  0.6954 -0.0094  0.3019
 5339TIP3    H137576   2.778   2.909   1.789  0.9130 -0.1639  0.3102
 5339TIP3    H237577   2.754   3.027   1.697  0.1940 -1.4672 -1.2298
 5340TIP3   OH237578   4.191   0.782   1.064  0.2187  0.1023 -0.7218
 5340TIP3    H137579   4.248   0.813   1.134  0.4805 -0.5140 -0.6607
 5340TIP3    H237580   4.150   0.703   1.100 -1.0981  0.8330 -0.5540
 5341TIP3   OH237581   6.037   5.944   1.962  0.1815 -0.8127 -0.3181
 5341TIP3    H137582   6.006   5.897   2.039  0.5137 -0.1169  0.2548
 5341TIP3    H237583   6.047   6.035   1.992 -0.5616 -0.3487 -1.4192
 5342TIP3   OH237584   4.592   3.012   1.591  0.0812  0.4472 -0.3037
 5342TIP3    H137585   4.673   3.063   1.589 -0.8973  2.0724 -0.6876
 5342TIP3    H237586   4.560   3.014   1.501 -0.1509 -0.5883 -0.2532
 5343TIP3   OH237587   4.700   0.309   0.134  0.1430 -0.4851  0.6583
 5343TIP3    H137588   4.771   0.357   0.092 -0.7289  0.3224  0.0553
 5343TIP3    H237589   4.716   0.218   0.112 -0.2794 -0.1026 -1.5109
 5344TIP3   OH237590   4.283   3.820   7.568  0.0422  0.0617 -0.6293
 5344TIP3    H137591   4.195   3.794   7.595  0.2295 -0.5597 -0.6181
 5344TIP3    H237592   4.269   3.899   7.516 -0.4345  0.5419  0.2015
 5345TIP3   OH237593   6.458   3.365   0.649  0.2121 -0.5160 -0.0565
 5345TIP3    H137594   6.392   3.295   0.645  1.4001 -1.6146 -1.5102
 5345TIP3    H237595   6.484   3.367   0.741 -0.9150 -0.9531  0.2928
 5346TIP3   OH237596   1.335   4.669   8.372  0.5751 -0.3591  0.1270
 5346TIP3    H137597   1.346   4.752   8.328 -0.8873 -0.3870 -0.3583
 5346TIP3    H237598   1.369   4.604   8.311  1.1106 -0.1839  0.2313
 5347TIP3   OH237599   1.896   5.222   6.646  0.3671  0.3983  0.0850
 5347TIP3    H137600   1.954   5.294   6.672 -1.2743  1.6484  0.3939
 5347TIP3    H237601   1.876   5.240   6.554 -1.2071  1.1928  0.5575
 5348TIP3   OH237602   0.323   6.204   8.212 -0.7512 -0.2773 -0.0098
 5348TIP3    H137603   0.314   6.157   8.129  1.2622 -1.5044  0.3808
 5348TIP3    H237604   0.356   6.290   8.188 -0.6504 -0.4562 -0.5334
 5349TIP3   OH237605   2.122   0.382   8.563 -0.0402  0.6836 -0.0088
 5349TIP3    H137606   2.098   0.467   8.528  1.2099  0.8276 -0.5588
 5349TIP3    H237607   2.184   0.346   8.500 -0.4451 -0.5794  0.2831
 5350TIP3   OH237608   5.456   0.664   1.548  0.5130 -0.3199  0.1603
 5350TIP3    H137609   5.379   0.642   1.496  0.6576  0.1363 -0.2509
 5350TIP3    H237610   5.440   0.622   1.633 -1.4832  1.9832  1.0453
 5351TIP3   OH237611   5.201   1.845   1.434  0.5595  0.7153 -0.1130
 5351TIP3    H137612   5.122   1.830   1.381  0.5742 -3.6104  0.6946
 5351TIP3    H237613   5.169   1.887   1.514 -0.5142  1.2374 -0.7910
 5352TIP3   OH237614   3.651   1.486   8.573 -0.5862 -0.3088  0.0454
 5352TIP3    H137615   3.636   1.399   8.611 -2.3997  0.5755  1.4337
 5352TIP3    H237616   3.746   1.499   8.582 -0.5383 -1.4013  1.4405
 5353TIP3   OH237617   0.270   3.971   8.322 -0.0985 -0.3154  0.1787
 5353TIP3    H137618   0.213   3.896   8.337 -0.6679  0.3037  1.2372
 5353TIP3    H237619   0.284   3.972   8.228  0.2649 -1.9908  0.1806
 5354TIP3   OH237620   1.055   3.864   0.536 -0.0979 -0.7726 -0.2916
 5354TIP3    H137621   1.084   3.863   0.627 -1.8290  0.2081  0.3152
 5354TIP3    H237622   1.132   3.895   0.487  0.5093 -0.1617  0.9838
 5355TIP3   OH237623   2.065   5.044   2.859  0.6246  0.6063  0.3028
 5355TIP3    H137624   2.002   5.080   2.796  0.6922  1.9035  0.9557
 5355TIP3    H237625   2.020   4.968   2.896  0.1240  0.5196 -0.4516
 5356TIP3   OH237626   5.426   2.004   1.451  0.3691 -0.2023  0.2758
 5356TIP3    H137627   5.491   1.966   1.392 -0.6472  0.0431 -1.0497
 5356TIP3    H237628   5.349   1.949   1.441 -0.1695  0.4749  0.5607
 5357TIP3   OH237629   5.901   3.820   7.730  0.1984 -0.0155 -0.0430
 5357TIP3    H137630   5.840   3.748   7.715 -0.6615  0.8700 -0.9383
 5357TIP3    H237631   5.987   3.779   7.725 -0.2826 -1.2833  1.2414
 5358TIP3   OH237632   2.252   2.686   1.667 -0.0542 -0.0493 -0.3320
 5358TIP3    H137633   2.159   2.708   1.659 -0.4343 -2.0750 -3.9484
 5358TIP3    H237634   2.255   2.590   1.663  2.1701 -0.0456 -0.3979
 5359TIP3   OH237635   5.183   1.463   0.887 -0.0978 -0.2125 -0.6610
 5359TIP3    H137636   5.158   1.514   0.964 -0.9737  1.3673 -1.9408
 5359TIP3    H237637   5.263   1.504   0.855 -0.2835 -0.2335 -1.1641
 5360TIP3   OH237638   6.850   1.733   8.063  0.4902 -0.0294  0.9952
 5360TIP3    H137639   6.900   1.652   8.074  0.7569  0.0906  0.6548
 5360TIP3    H237640   6.885   1.792   8.129  1.9399  0.6144 -0.3003
 5361TIP3   OH237641   1.789   0.919   2.580  0.2730 -0.6513 -0.3419
 5361TIP3    H137642   1.737   0.971   2.642  1.7945 -0.5980  0.9522
 5361TIP3    H237643   1.780   0.966   2.497  0.2936  0.7744  0.4226
 5362TIP3   OH237644   1.587   3.962   8.350  0.7195 -0.2312 -0.5668
 5362TIP3    H137645   1.676   3.926   8.356  0.5878 -0.3801  0.6741
 5362TIP3    H237646   1.536   3.911   8.413 -0.0760  0.3818 -0.6970
 5363TIP3   OH237647   4.890   4.038   8.486  0.3580 -0.2933  0.0660
 5363TIP3    H137648   4.826   4.003   8.549 -0.6092 -0.6614 -1.0771
 5363TIP3    H237649   4.860   4.005   8.401  2.5694 -1.2049 -0.4294
 5364TIP3   OH237650   1.254   2.027   0.982  0.4186 -0.2507  0.6741
 5364TIP3    H137651   1.185   1.969   1.012  1.8527 -0.9076  2.9507
 5364TIP3    H237652   1.218   2.115   0.992 -1.2369 -0.6172 -1.4009
 5365TIP3   OH237653   5.416   1.041   1.550 -0.1068  0.3793  0.3172
 5365TIP3    H137654   5.471   0.977   1.594  0.9100  1.4685  0.6942
 5365TIP3    H237655   5.328   1.024   1.583  0.5548  0.8970  2.5027
 5366TIP3   OH237656   2.410   4.422   8.010 -0.4107 -0.0148 -0.1870
 5366TIP3    H137657   2.402   4.402   7.917 -2.1965  0.5540 -0.1867
 5366TIP3    H237658   2.334   4.477   8.029  0.9208  1.4329  1.1975
 5367TIP3   OH237659   0.420   2.007   8.160  0.2345  0.5468 -0.5761
 5367TIP3    H137660   0.365   2.004   8.238 -1.1260  0.6316 -1.4975
 5367TIP3    H237661   0.503   2.044   8.190 -0.6611  1.6821  0.5897
 5368TIP3   OH237662   2.363   1.418   6.911 -0.3164  0.0305 -0.0208
 5368TIP3    H137663   2.279   1.420   6.956 -1.1413  2.3978 -1.4589
 5368TIP3    H237664   2.412   1.492   6.948  0.5230 -0.3700 -0.3031
 5369TIP3   OH237665   4.448   2.195   0.604 -0.1344 -0.3434  0.1158
 5369TIP3    H137666   4.436   2.290   0.607  1.3552 -0.1071 -0.2490
 5369TIP3    H237667   4.441   2.166   0.695 -1.2248  0.0148  0.1566
 5370TIP3   OH237668   0.686   6.297   7.494 -0.2294 -0.3386 -0.0918
 5370TIP3    H137669   0.720   6.299   7.405  0.1279  0.7947  0.0610
 5370TIP3    H237670   0.757   6.329   7.549 -0.3049 -1.3970  0.6676
 5371TIP3   OH237671   1.102   5.670   7.176  0.6851  0.1677  0.2662
 5371TIP3    H137672   1.188   5.680   7.136  0.9122  1.1746  0.9777
 5371TIP3    H237673   1.042   5.659   7.102  1.4978 -1.4065 -0.2151
 5372TIP3   OH237674   0.211   0.229   7.855 -0.3213  0.0443  0.3883
 5372TIP3    H137675   0.182   0.254   7.943 -0.1218  0.5300  0.3175
 5372TIP3    H237676   0.303   0.205   7.867 -0.0546  0.9177  0.1687
 5373TIP3   OH237677   0.059   6.405   1.588  0.1254  0.4455 -0.7845
 5373TIP3    H137678   0.117   6.409   1.664 -2.6963  0.9439  1.5247
 5373TIP3    H237679   0.035   6.496   1.572 -1.7006  0.1085 -0.2040
 5374TIP3   OH237680   0.309   2.305   8.190  0.3801  0.0386 -0.2658
 5374TIP3    H137681   0.319   2.210   8.184 -1.9480 -0.1891 -3.2804
 5374TIP3    H237682   0.298   2.322   8.283 -2.9298 -3.2669  0.2246
 5375TIP3   OH237683   3.152   2.068   6.928  0.2810  0.3121  0.0961
 5375TIP3    H137684   3.222   2.020   6.972  0.2950 -0.4101 -0.6950
 5375TIP3    H237685   3.073   2.015   6.945  0.1604  0.4227 -0.1183
 5376TIP3   OH237686   3.970   2.295   0.812  0.3096 -0.1576 -0.2149
 5376TIP3    H137687   4.063   2.303   0.833  0.2007  0.1351  0.1508
 5376TIP3    H237688   3.960   2.342   0.729  0.4611 -0.0852 -0.1920
 5377TIP3   OH237689   4.877   3.382   7.900  0.1826 -0.3416 -0.0811
 5377TIP3    H137690   4.795   3.396   7.852  0.4440  0.4073 -0.3111
 5377TIP3    H237691   4.942   3.432   7.851  0.7630 -0.8404  0.1671
 5378TIP3   OH237692   6.819   2.069   0.181  0.2874  0.7678  0.8613
 5378TIP3    H137693   6.742   2.073   0.237 -1.2932  2.9995 -1.2806
 5378TIP3    H237694   6.876   2.139   0.212  0.7807  0.1163  1.4637
 5379TIP3   OH237695   4.255   6.144   0.472  0.4101  0.2540 -0.0429
 5379TIP3    H137696   4.279   6.208   0.540 -0.5535 -1.0333  1.6093
 5379TIP3    H237697   4.337   6.124   0.427  0.7684  2.4651 -0.4887
 5380TIP3   OH237698   4.748   2.428   7.995  0.1299  0.0306  0.4780
 5380TIP3    H137699   4.723   2.367   8.064 -0.4793  0.5696  0.7418
 5380TIP3    H237700   4.780   2.505   8.041  1.9367 -0.4822  0.1466
 5381TIP3   OH237701   1.537   1.024   0.263  0.1228 -0.1355 -0.4469
 5381TIP3    H137702   1.604   0.978   0.212  0.3736  1.4768 -1.6426
 5381TIP3    H237703   1.587   1.072   0.329  0.2434  1.4500 -1.6392
 5382TIP3   OH237704   6.840   1.672   7.771  0.7214  0.2712 -0.4870
 5382TIP3    H137705   6.856   1.701   7.861  1.1585 -0.0141 -0.4668
 5382TIP3    H237706   6.856   1.750   7.718 -0.8956  0.8057 -0.2162
 5383TIP3   OH237707   2.195   2.387   8.636  0.0944 -0.0800 -0.1526
 5383TIP3    H137708   2.130   2.348   8.695 -1.1980  1.9228 -0.1563
 5383TIP3    H237709   2.234   2.312   8.591  0.6789 -1.6790  2.7016
 5384TIP3   OH237710   2.230   1.451   1.952  0.6632 -0.4443  0.5587
 5384TIP3    H137711   2.153   1.448   2.007 -0.2071 -1.5648 -0.6527
 5384TIP3    H237712   2.304   1.449   2.013 -0.1952  2.5147  1.8305
 5385TIP3   OH237713   0.070   6.346   0.800  0.5427 -0.3686  0.1575
 5385TIP3    H137714   0.152   6.298   0.793  0.1213 -1.0625 -0.0424
 5385TIP3    H237715   0.094   6.436   0.776  1.1814 -0.6260 -0.2033
 5386TIP3   OH237716   3.120   0.437   1.862  0.4386 -0.5599 -0.1603
 5386TIP3    H137717   3.058   0.433   1.935 -0.8032 -0.7641 -1.2111
 5386TIP3    H237718   3.085   0.504   1.804  2.0123  0.3855 -0.0735
 5387TIP3   OH237719   2.756   4.149   7.672  0.6272  0.0108 -0.3100
 5387TIP3    H137720   2.678   4.160   7.617  0.2957 -0.6233  0.0201
 5387TIP3    H237721   2.813   4.091   7.620  1.2251  1.0908 -0.8893
 5388TIP3   OH237722   3.944   6.217   0.933  0.0952  0.1862  0.0368
 5388TIP3    H137723   3.964   6.140   0.986 -0.9202  0.4626  0.8564
 5388TIP3    H237724   4.005   6.283   0.963  0.0524  0.1047  0.3089
 5389TIP3   OH237725   4.428   2.293   0.034 -0.1063  0.5724 -0.7846
 5389TIP3    H137726   4.515   2.292   0.073 -0.5597  1.3016  0.3158
 5389TIP3    H237727   4.409   2.386   0.021 -1.4621  0.5602  0.7799
 5390TIP3   OH237728   1.546   2.917   0.712 -0.1018 -0.7952  0.2366
 5390TIP3    H137729   1.550   2.836   0.661  1.1796 -0.3874 -0.3511
 5390TIP3    H237730   1.521   2.889   0.800  1.0188 -1.9264  0.2295
 5391TIP3   OH237731   3.502   5.129   1.992 -0.1855  0.2444 -1.4328
 5391TIP3    H137732   3.481   5.163   2.079 -0.7577  1.1056 -1.8972
 5391TIP3    H237733   3.594   5.105   1.996 -0.6973 -1.7574  0.0676
 5392TIP3   OH237734   4.513   3.730   1.463 -0.3017 -0.0792 -0.1050
 5392TIP3    H137735   4.420   3.709   1.469 -0.6315  1.4371  0.6507
 5392TIP3    H237736   4.526   3.800   1.527  1.5373 -0.7912  0.3950
 5393TIP3   OH237737   6.657   0.308   1.677 -0.3940 -0.1975  0.0528
 5393TIP3    H137738   6.630   0.388   1.723 -0.3067  0.7056 -1.4004
 5393TIP3    H237739   6.738   0.282   1.721 -0.3062  0.6418  0.4138
 5394TIP3   OH237740   5.986   3.015   7.921 -0.2243  0.2634 -0.0224
 5394TIP3    H137741   6.082   3.023   7.917 -0.2724  0.7696 -0.2945
 5394TIP3    H237742   5.958   3.090   7.973 -0.5605  0.8590 -1.0227
 5395TIP3   OH237743   0.855   2.722   2.176 -0.7471  0.1081 -0.0437
 5395TIP3    H137744   0.799   2.763   2.242  0.1047  0.8084  0.2606
 5395TIP3    H237745   0.804   2.648   2.144 -1.7787  0.6281  0.3468
 5396TIP3   OH237746   0.343   2.005   2.165  0.1019 -0.0862  0.1221
 5396TIP3    H137747   0.305   2.074   2.219 -1.9812  0.2000 -1.5827
 5396TIP3    H237748   0.393   1.952   2.227 -0.6559  1.2515  1.9955
 5397TIP3   OH237749   0.790   5.704   8.613 -0.3901  0.1332 -0.0363
 5397TIP3    H137750   0.731   5.636   8.581  0.9926  0.0536 -2.6657
 5397TIP3    H237751   0.737   5.754   8.675 -2.1936 -1.8238  0.1240
 5398TIP3   OH237752   0.711   6.726   8.028  0.0791  0.4288 -0.7049
 5398TIP3    H137753   0.649   6.731   8.101 -0.0593 -1.0681 -0.6973
 5398TIP3    H237754   0.778   6.792   8.048  0.8472 -0.9521  1.5400
 5399TIP3   OH237755   3.648   1.000   8.003  0.7776 -0.1368  0.0091
 5399TIP3    H137756   3.567   0.965   8.042  1.4748 -0.3107  1.3645
 5399TIP3    H237757   3.632   0.998   7.909 -1.3054  1.0504  0.2688
 5400TIP3   OH237758   2.903   4.709   7.973 -0.3261  0.3775 -0.5522
 5400TIP3    H137759   2.810   4.709   7.993 -0.2382  1.0457 -0.0959
 5400TIP3    H237760   2.930   4.618   7.984 -0.6759  0.3876  0.5915
 5401TIP3   OH237761   4.072   6.847   0.541  0.5487  0.2983 -0.1671
 5401TIP3    H137762   4.018   6.926   0.531  0.9146  0.3402 -2.5145
 5401TIP3    H237763   4.042   6.807   0.622 -1.2812  1.6296 -0.1271
 5402TIP3   OH237764   1.132   5.256   0.085 -0.2335  0.1891 -0.2507
 5402TIP3    H137765   1.190   5.181   0.090 -0.5281 -0.0152  0.2161
 5402TIP3    H237766   1.137   5.296   0.173 -0.5557  0.3485 -0.3024
 5403TIP3   OH237767   4.211   4.624   7.939  0.0189 -0.1790  0.1884
 5403TIP3    H137768   4.128   4.588   7.909 -0.7931  1.6459  0.1174
 5403TIP3    H237769   4.271   4.549   7.940 -1.6957 -1.5947  0.5757
 5404TIP3   OH237770   4.232   3.973   2.114 -0.2563 -0.1125  0.0868
 5404TIP3    H137771   4.158   3.928   2.072 -1.3739  1.2871  0.4660
 5404TIP3    H237772   4.309   3.941   2.066 -1.3916  0.8969 -2.6655
 5405TIP3   OH237773   2.876   4.238   1.565 -0.3434  0.3127 -0.2022
 5405TIP3    H137774   2.803   4.213   1.622 -0.2038 -2.1434 -0.9564
 5405TIP3    H237775   2.837   4.295   1.499 -1.5721 -0.8147 -0.4886
 5406TIP3   OH237776   0.467   2.596   0.429 -0.1378 -0.3106 -0.2283
 5406TIP3    H137777   0.558   2.595   0.401  0.0083 -1.9543  0.2330
 5406TIP3    H237778   0.419   2.556   0.357 -0.3998 -0.1313 -0.1545
 5407TIP3   OH237779   3.165   2.654   7.656  0.3356  0.2481 -0.1025
 5407TIP3    H137780   3.219   2.616   7.725 -0.9672 -0.8851  0.3415
 5407TIP3    H237781   3.203   2.621   7.575  0.4244 -0.4153  0.1976
 5408TIP3   OH237782   2.470   0.018   1.946 -0.4633 -0.1165  0.2054
 5408TIP3    H137783   2.435  -0.063   1.909 -0.8714  0.1477  0.0077
 5408TIP3    H237784   2.475   0.078   1.872  1.1162 -0.3752  0.0754
 5409TIP3   OH237785   0.801   6.670   7.757  0.4242 -0.2726 -0.0005
 5409TIP3    H137786   0.788   6.731   7.684  1.2136  1.1219  0.9750
 5409TIP3    H237787   0.731   6.691   7.818 -1.3232 -2.6270 -1.0400
 5410TIP3   OH237788   4.350   4.242   2.132  0.4908 -0.9168 -0.4963
 5410TIP3    H137789   4.400   4.321   2.113  0.1416 -0.4992  0.2701
 5410TIP3    H237790   4.296   4.228   2.054  1.8812 -1.4662 -1.4028
 5411TIP3   OH237791   4.031   4.286   1.453  0.2058 -0.6097 -0.2078
 5411TIP3    H137792   4.051   4.234   1.376 -1.9168 -1.4015 -0.2834
 5411TIP3    H237793   3.945   4.255   1.481 -0.1826  1.3981  0.9945
 5412TIP3   OH237794   4.377   1.913   7.694 -0.2357  0.0502 -0.2028
 5412TIP3    H137795   4.419   1.833   7.663 -0.5936 -0.9490  1.8009
 5412TIP3    H237796   4.290   1.912   7.654 -0.0593 -0.3003 -0.5790
 5413TIP3   OH237797   5.936   6.114   8.272  0.5792 -0.1458 -0.1094
 5413TIP3    H137798   5.903   6.199   8.242  1.3431 -0.2883 -1.4557
 5413TIP3    H237799   5.903   6.052   8.207  0.7997 -0.7419  0.3460
 5414TIP3   OH237800   0.228   6.280   7.676 -0.2593  0.4279  0.6452
 5414TIP3    H137801   0.284   6.353   7.654  1.0682 -0.4967  0.8368
 5414TIP3    H237802   0.287   6.206   7.687 -1.5102 -0.5883  0.8863
 5415TIP3   OH237803   0.607   2.182   8.287  0.0151 -1.0605  0.0360
 5415TIP3    H137804   0.559   2.234   8.351  1.8018  1.8057 -0.7221
 5415TIP3    H237805   0.692   2.166   8.328  0.7207 -0.2936 -1.0538
 5416TIP3   OH237806   2.489   1.507   2.057 -0.5521  0.1359 -1.1286
 5416TIP3    H137807   2.510   1.587   2.105 -0.3210 -0.3199 -0.4520
 5416TIP3    H237808   2.573   1.477   2.021  0.1281 -1.7791  1.7202
 5417TIP3   OH237809   3.264   3.677   1.823 -0.0479 -0.4697  0.3079
 5417TIP3    H137810   3.237   3.654   1.734 -1.8377 -1.7791  1.1297
 5417TIP3    H237811   3.245   3.770   1.831 -1.1626 -0.6306 -0.2626
 5418TIP3   OH237812   4.187   5.963   0.735 -0.5995  0.0541 -0.7700
 5418TIP3    H137813   4.127   5.935   0.666 -1.0325  1.3272 -0.9319
 5418TIP3    H237814   4.147   5.930   0.816 -0.1497 -1.3420 -1.0894
 5419TIP3   OH237815   0.377   1.076   1.230 -0.2760 -0.7830 -0.0858
 5419TIP3    H137816   0.429   1.149   1.197  1.2593 -0.9678  1.7574
 5419TIP3    H237817   0.289   1.090   1.195 -0.1415  2.1749  0.5789
 5420TIP3   OH237818   6.713   0.134   2.066 -0.3372  0.1899 -0.3693
 5420TIP3    H137819   6.626   0.141   2.027 -0.8357 -0.3129  0.6337
 5420TIP3    H237820   6.719   0.043   2.094  0.1819  0.4384  0.3421
 5421TIP3   OH237821   1.332   6.097   0.339  0.1267 -0.0879 -0.0141
 5421TIP3    H137822   1.252   6.129   0.296  0.1285 -0.1608 -0.0729
 5421TIP3    H237823   1.373   6.041   0.273  0.6210  0.5610 -0.2656
 5422TIP3   OH237824   6.442   2.059   7.846  0.1603  0.0178 -0.3587
 5422TIP3    H137825   6.403   2.021   7.925  0.3731 -1.4736 -0.9414
 5422TIP3    H237826   6.514   2.112   7.879  0.4515 -0.8361  0.4558
 5423TIP3   OH237827   0.490   1.538   7.856 -0.1571 -0.0318  0.2847
 5423TIP3    H137828   0.414   1.492   7.891  0.5825 -2.4913 -1.0264
 5423TIP3    H237829   0.455   1.619   7.820 -2.3160 -1.3031 -0.7329
 5424TIP3   OH237830   0.059   5.490   1.385  0.0359  0.2872 -0.2902
 5424TIP3    H137831   0.059   5.574   1.339  2.1192  0.3495 -0.2668
 5424TIP3    H237832  -0.033   5.466   1.391 -0.4589  1.5059 -2.2253
 5425TIP3   OH237833   0.608   5.483   1.348 -0.2886  0.2079  0.0295
 5425TIP3    H137834   0.628   5.563   1.396  1.3880 -1.3962  2.1777
 5425TIP3    H237835   0.575   5.423   1.414 -0.0475 -1.3989 -1.2459
 5426TIP3   OH237836   3.243   1.356   6.762  0.0801  0.0147  0.8155
 5426TIP3    H137837   3.266   1.403   6.842  2.0148 -1.1629  1.0012
 5426TIP3    H237838   3.171   1.298   6.789  0.2058  0.1651  1.5103
 5427TIP3   OH237839   5.582   5.160   0.409 -0.0495 -0.4804  0.3590
 5427TIP3    H137840   5.488   5.172   0.391 -0.6215 -2.3716  1.7258
 5427TIP3    H237841   5.596   5.066   0.401  1.9228 -0.1500 -0.4705
 5428TIP3   OH237842   2.681   5.714   0.964 -0.4364  0.4481  0.5110
 5428TIP3    H137843   2.747   5.752   1.021 -2.1047 -1.4435  4.0147
 5428TIP3    H237844   2.730   5.656   0.905  1.1885  0.6873  1.5934
 5429TIP3   OH237845   2.483   6.255   1.471 -0.8971 -0.2546 -0.0326
 5429TIP3    H137846   2.422   6.207   1.415 -0.6249 -1.0309  0.3140
 5429TIP3    H237847   2.479   6.345   1.440 -0.3579 -0.7637 -1.6330
 5430TIP3   OH237848   6.158   6.105   0.397 -0.1586  0.9311  0.2886
 5430TIP3    H137849   6.197   6.157   0.467  1.6939 -0.4850  0.4003
 5430TIP3    H237850   6.219   6.032   0.385 -2.3602 -0.9529 -0.1701
 5431TIP3   OH237851   4.571   1.426   1.836  0.1023  0.4337  0.4592
 5431TIP3    H137852   4.501   1.427   1.901 -1.1872 -0.9748 -0.8273
 5431TIP3    H237853   4.528   1.398   1.755  2.1597 -0.4818 -0.3713
 5432TIP3   OH237854   0.273   5.236   0.883  0.3370 -0.3436 -0.0060
 5432TIP3    H137855   0.227   5.174   0.938 -0.8050  0.8555  0.4382
 5432TIP3    H237856   0.327   5.182   0.825 -1.2369 -1.7706 -0.1933
 5433TIP3   OH237857   2.214   1.296   0.004 -0.3298 -0.4161 -0.3770
 5433TIP3    H137858   2.154   1.332  -0.062 -0.9158  0.7682  0.7614
 5433TIP3    H237859   2.301   1.320  -0.027 -0.6522  0.9563 -0.2619
 5434TIP3   OH237860   4.906   6.671   0.382 -0.5495 -0.1010  0.4487
 5434TIP3    H137861   4.896   6.755   0.337 -2.7834 -0.5068  0.0713
 5434TIP3    H237862   4.852   6.610   0.332  2.2163 -2.2163 -0.2114
 5435TIP3   OH237863   5.825   2.600   8.410 -0.2879 -0.3368 -0.4429
 5435TIP3    H137864   5.768   2.631   8.339 -1.4678 -0.8751  0.2352
 5435TIP3    H237865   5.767   2.592   8.485  1.3168  2.1305  1.1790
 5436TIP3   OH237866   0.005   1.031   8.342  0.3710  0.3925  0.4076
 5436TIP3    H137867  -0.082   1.067   8.327  0.0322 -0.8206 -0.6975
 5436TIP3    H237868  -0.002   0.985   8.426 -0.3275 -0.5089 -0.1412
 5437TIP3   OH237869   1.057   2.553   1.617  0.6781  0.0232 -0.6837
 5437TIP3    H137870   1.125   2.541   1.552  0.0815 -0.9303 -1.1562
 5437TIP3    H237871   1.001   2.476   1.608 -0.3918  0.7192 -0.2242
 5438TIP3   OH237872   1.585   0.746   8.500 -0.2363 -0.0528 -0.1423
 5438TIP3    H137873   1.659   0.775   8.554  1.0213  0.3549 -1.9831
 5438TIP3    H237874   1.554   0.827   8.457  1.8409 -0.8837 -3.5836
 5439TIP3   OH237875   2.475   0.500   1.388 -0.4317  0.4281  0.3468
 5439TIP3    H137876   2.514   0.450   1.316 -1.5045 -2.0855  1.3797
 5439TIP3    H237877   2.381   0.491   1.375 -0.6448  0.4631  1.6927
 5440TIP3   OH237878   6.253   3.241   8.493 -0.3503 -0.2540 -0.5242
 5440TIP3    H137879   6.209   3.289   8.563 -0.9311  0.1089 -1.1335
 5440TIP3    H237880   6.321   3.301   8.461 -1.3196  0.3337 -1.5380
 5441TIP3   OH237881   1.372   2.451   1.859 -0.8717  0.2978  0.2660
 5441TIP3    H137882   1.441   2.406   1.908  0.2370  1.9355  0.2860
 5441TIP3    H237883   1.298   2.456   1.919 -0.2651  0.4034  1.0102
 5442TIP3   OH237884   5.052   1.658   7.363 -0.1239 -0.2491 -0.3363
 5442TIP3    H137885   5.056   1.582   7.306 -1.6343 -1.3511  0.9394
 5442TIP3    H237886   4.967   1.699   7.343  0.1245  0.3807 -0.1368
 5443TIP3   OH237887   4.012   4.798   1.408 -0.0509 -0.4569  0.2804
 5443TIP3    H137888   4.031   4.717   1.455  0.1303 -0.3113  0.4615
 5443TIP3    H237889   4.016   4.866   1.475 -0.6742 -0.3524  0.2211
 5444TIP3   OH237890   6.600   6.165   7.688  0.1909  0.1593  1.0324
 5444TIP3    H137891   6.646   6.235   7.642  0.5420 -1.3771 -1.1085
 5444TIP3    H237892   6.595   6.094   7.624 -1.5380 -1.2161  2.5884
 5445TIP3   OH237893   6.096   6.629   6.971 -0.9982  0.1189  0.0895
 5445TIP3    H137894   6.029   6.675   7.022 -0.7244  1.0458 -0.3638
 5445TIP3    H237895   6.174   6.683   6.981 -0.5202 -0.5408 -0.0283
 5446TIP3   OH237896   4.503   5.821   2.782  1.1654  0.2090 -0.4494
 5446TIP3    H137897   4.563   5.746   2.793 -0.0107 -0.8495 -0.9473
 5446TIP3    H237898   4.418   5.787   2.807  0.4478  1.1180 -1.5541
 5447TIP3   OH237899   2.297   0.583   0.018  0.4333  0.6008  0.0805
 5447TIP3    H137900   2.339   0.661   0.055  0.1715  1.2143 -0.8730
 5447TIP3    H237901   2.246   0.617  -0.055  1.3469 -0.6390 -1.1733
 5448TIP3   OH237902   4.476   3.228   1.694 -0.2099 -0.1012 -0.2671
 5448TIP3    H137903   4.532   3.304   1.709  0.7025 -0.9034  0.5691
 5448TIP3    H237904   4.529   3.170   1.639  0.2427 -1.3367  1.4013
 5449TIP3   OH237905   6.782   1.656   1.701 -0.3260  0.0700  0.1953
 5449TIP3    H137906   6.733   1.574   1.707 -0.8987  0.3474 -0.5595
 5449TIP3    H237907   6.793   1.683   1.792  0.6304 -1.2740  0.5151
 5450TIP3   OH237908   5.828   2.830   7.084  0.4958 -0.3769  0.9369
 5450TIP3    H137909   5.848   2.763   7.018 -0.6966 -0.5433  0.7290
 5450TIP3    H237910   5.743   2.805   7.119 -0.6954  1.8063 -0.1902
 5451TIP3   OH237911   1.901   1.980   1.977 -1.0578 -0.2066  0.2229
 5451TIP3    H137912   1.887   2.006   2.068 -0.6825 -1.4584  0.6610
 5451TIP3    H237913   1.951   1.898   1.982  1.7123  1.2555 -1.1761
 5452TIP3   OH237914   4.563   6.749   0.341 -0.4363  0.5161  0.4060
 5452TIP3    H137915   4.512   6.760   0.261  0.6688  0.8061 -0.2768
 5452TIP3    H237916   4.626   6.680   0.320 -0.7262 -0.0481  1.3340
 5453TIP3   OH237917   6.416   2.361   1.481 -0.2669 -0.6396 -0.6757
 5453TIP3    H137918   6.501   2.317   1.488  0.2100  0.0400 -1.8560
 5453TIP3    H237919   6.437   2.454   1.476 -1.2045 -0.3166  0.7829
 5454TIP3   OH237920   0.124   2.896   7.750 -0.4248  0.1296  0.3786
 5454TIP3    H137921   0.157   2.967   7.694  0.9275 -3.0093 -3.2029
 5454TIP3    H237922   0.202   2.862   7.793 -0.5863 -0.9234 -0.1414
 5455TIP3   OH237923   0.139   3.656   1.038 -0.0534 -0.6539  0.4611
 5455TIP3    H137924   0.067   3.617   1.087 -1.2679 -1.3266 -1.6996
 5455TIP3    H237925   0.095   3.702   0.966  1.6278  0.1214 -0.1054
 5456TIP3   OH237926   2.474   2.627   6.458 -0.3431  0.6696 -0.0523
 5456TIP3    H137927   2.519   2.585   6.385  1.1727 -0.5746  1.5346
 5456TIP3    H237928   2.540   2.684   6.497 -0.6469  0.1569  1.2597
 5457TIP3   OH237929   5.027   3.045   2.020 -0.2967  0.2913  0.3206
 5457TIP3    H137930   4.940   3.008   2.010 -0.6594  1.1914  0.0030
 5457TIP3    H237931   5.066   2.995   2.091 -0.6210 -0.9114 -0.3296
 5458TIP3   OH237932   3.344   6.400   0.258 -0.0486 -0.3130  0.0265
 5458TIP3    H137933   3.327   6.336   0.189  0.8036 -1.7326  1.0814
 5458TIP3    H237934   3.431   6.377   0.291  0.1649  1.2401  0.6221
 5459TIP3   OH237935   1.157   5.018   7.411 -0.4413 -0.5714  0.3430
 5459TIP3    H137936   1.116   5.101   7.387 -0.2466 -0.5077  0.2385
 5459TIP3    H237937   1.100   4.952   7.371 -0.0249 -0.4643 -0.4378
 5460TIP3   OH237938   3.598   6.791   7.831 -0.6023  0.5294 -0.6686
 5460TIP3    H137939   3.682   6.825   7.859 -0.0467 -2.0077  1.0685
 5460TIP3    H237940   3.547   6.868   7.808  1.1022  2.3599  1.3330
 5461TIP3   OH237941   3.759   2.353   8.225 -0.2025  0.2599  0.3046
 5461TIP3    H137942   3.702   2.276   8.233 -1.1847  0.8127 -1.0206
 5461TIP3    H237943   3.845   2.321   8.251 -0.7873 -1.0227  0.7816
 5462TIP3   OH237944   3.063   4.539   1.675 -0.2610 -0.7074  0.3610
 5462TIP3    H137945   3.006   4.486   1.731 -1.7879  0.1244 -0.3383
 5462TIP3    H237946   3.087   4.614   1.730 -1.2629 -0.2030  0.1530
 5463TIP3   OH237947   4.121   6.042   1.460  0.3624  0.3646  0.5362
 5463TIP3    H137948   4.054   5.985   1.498 -1.5506  2.4826  0.5517
 5463TIP3    H237949   4.173   6.071   1.535  0.6629 -0.4648  0.6617
 5464TIP3   OH237950   1.003   3.529   6.565 -0.2941  0.3439  0.0560
 5464TIP3    H137951   1.067   3.581   6.517  0.9052 -0.1318  1.0922
 5464TIP3    H237952   0.992   3.450   6.513  0.6105  0.0553  0.2863
 5465TIP3   OH237953   5.121   1.153   1.935  0.4056  0.2439  0.2067
 5465TIP3    H137954   5.094   1.238   1.900 -0.1795  0.8013  1.9476
 5465TIP3    H237955   5.039   1.107   1.952  0.7034 -0.2675  0.2781
 5466TIP3   OH237956   5.891   0.122   6.992  0.5778  0.9199  0.2731
 5466TIP3    H137957   5.939   0.148   6.913  1.4000  0.8081  0.7224
 5466TIP3    H237958   5.959   0.092   7.052  0.0313  1.6381  1.2740
 5467TIP3   OH237959   2.645   3.546   2.382 -0.4187 -0.1977 -0.1356
 5467TIP3    H137960   2.634   3.633   2.345 -0.9179  0.4541  1.4600
 5467TIP3    H237961   2.730   3.548   2.427 -1.0794 -0.0059  1.1723
 5468TIP3   OH237962   6.850   3.458   7.179 -0.2001  0.9482 -0.2100
 5468TIP3    H137963   6.905   3.512   7.122  2.3413 -0.7878  0.4337
 5468TIP3    H237964   6.897   3.455   7.262 -1.6690 -0.0337  0.6333
 5469TIP3   OH237965   6.141   1.004   2.460  0.3968  0.0627 -0.3844
 5469TIP3    H137966   6.219   0.948   2.457  0.3683  0.0661 -1.4383
 5469TIP3    H237967   6.069   0.945   2.436  0.4658  0.6904 -2.3252
 5470TIP3   OH237968   6.240   0.052   8.542 -0.6070 -0.0253 -0.5407
 5470TIP3    H137969   6.316   0.007   8.579 -1.5140 -1.1464  0.0359
 5470TIP3    H237970   6.268   0.143   8.532  0.9070 -0.4771 -0.6661
 5471TIP3   OH237971   4.919   6.166   8.696 -0.5204 -0.0858  0.2453
 5471TIP3    H137972   4.887   6.077   8.684 -1.8366  0.5056 -0.9638
 5471TIP3    H237973   4.902   6.209   8.612  0.9223  1.0682  0.5078
 5472TIP3   OH237974   1.160   6.151   7.566 -0.6683 -0.1483 -0.0325
 5472TIP3    H137975   1.195   6.240   7.559 -1.4445  0.1362 -0.4189
 5472TIP3    H237976   1.231   6.101   7.606  0.3359  0.3043 -1.1767
 5473TIP3   OH237977   2.892   1.265   7.711 -0.0790  0.1833 -0.5166
 5473TIP3    H137978   2.911   1.202   7.641 -0.4915 -0.0518 -0.4208
 5473TIP3    H237979   2.830   1.326   7.672 -0.8440 -0.3462 -0.1559
 5474TIP3   OH237980   0.575   2.681   0.776 -0.4532 -0.6841  0.9559
 5474TIP3    H137981   0.620   2.747   0.829  1.5231 -0.9742 -0.2347
 5474TIP3    H237982   0.576   2.602   0.831 -1.4368 -0.1407  1.7757
 5475TIP3   OH237983   1.771   5.089   8.004  0.1788  0.4296 -0.9660
 5475TIP3    H137984   1.829   5.151   8.047  0.7972 -1.9306  1.9344
 5475TIP3    H237985   1.683   5.113   8.033  0.5961 -1.2244  2.0491
 5476TIP3   OH237986   3.724   3.700   7.379  0.3159 -0.5577 -0.0978
 5476TIP3    H137987   3.799   3.712   7.321  1.5410 -0.7754  1.4025
 5476TIP3    H237988   3.672   3.780   7.368  2.6424  1.3084  1.4953
 5477TIP3   OH237989   0.787   2.928   1.592  0.2565  0.1886  0.2308
 5477TIP3    H137990   0.746   2.842   1.601  0.8167 -0.1005  0.0938
 5477TIP3    H237991   0.751   2.980   1.664 -0.6877  0.0848 -0.1543
 5478TIP3   OH237992   3.384   3.312   1.532  0.5234  0.1531  0.0817
 5478TIP3    H137993   3.308   3.365   1.508  1.1877  1.8388  1.4923
 5478TIP3    H237994   3.439   3.311   1.454  0.1433  0.9287 -0.2008
 5479TIP3   OH237995   6.396   1.644   6.359  0.3013 -0.0908 -0.1015
 5479TIP3    H137996   6.311   1.676   6.387 -0.3128  0.4399 -2.3288
 5479TIP3    H237997   6.447   1.723   6.341 -0.0912 -0.2923 -2.4354
 5480TIP3   OH237998   5.488   1.972   2.235  0.0762 -0.4801  0.7751
 5480TIP3    H137999   5.423   1.928   2.290  0.0674 -2.4250 -0.7057
 5480TIP3    H238000   5.439   2.042   2.191 -0.4062 -0.3116  1.5596
 5481TIP3   OH238001   4.449   0.668   1.829  0.0778 -0.1213  0.2474
 5481TIP3    H138002   4.517   0.602   1.846 -0.1564  0.0225  1.8241
 5481TIP3    H238003   4.494   0.736   1.779  0.3669 -1.3581 -1.2718
 5482TIP3   OH238004   4.139   0.042   0.960 -0.0745  0.2433 -0.0791
 5482TIP3    H138005   4.110  -0.023   1.024 -1.6167  2.7439  1.9822
 5482TIP3    H238006   4.100   0.015   0.878  1.4987 -2.7805  0.0352
 5483TIP3   OH238007   2.344   0.470   7.299 -0.1295  0.0834 -0.1892
 5483TIP3    H138008   2.439   0.482   7.304 -0.0922 -0.5069  1.1499
 5483TIP3    H238009   2.321   0.492   7.209  1.5419 -1.5844 -1.0882
 5484TIP3   OH238010   0.079   5.459   8.170  0.2312  0.0630  0.2847
 5484TIP3    H138011   0.134   5.402   8.116 -0.3737  0.1017 -0.3953
 5484TIP3    H238012   0.112   5.547   8.154  0.4244  0.0181  0.4319
 5485TIP3   OH238013   0.194   4.912   0.518 -0.7829  0.5969  0.9270
 5485TIP3    H138014   0.218   5.003   0.505  0.8593  0.0566 -0.0570
 5485TIP3    H238015   0.277   4.864   0.518 -1.6921 -1.1205 -0.5155
 5486TIP3   OH238016   2.880   2.105   2.070  0.6994 -0.4059 -0.4204
 5486TIP3    H138017   2.796   2.095   2.113  0.0608 -4.3288 -2.1372
 5486TIP3    H238018   2.943   2.118   2.141 -0.9439 -0.9849  1.1967
 5487TIP3   OH238019   4.164   6.823   8.301 -0.4042 -0.1512 -0.1252
 5487TIP3    H138020   4.186   6.736   8.267 -0.8103  0.5975 -2.5002
 5487TIP3    H238021   4.072   6.815   8.329 -0.4324 -0.5077 -0.3061
 5488TIP3   OH238022   3.077   0.535   7.969  0.5280 -0.0030  0.2724
 5488TIP3    H138023   2.991   0.506   8.000  1.2433 -1.0032  1.4238
 5488TIP3    H238024   3.108   0.463   7.914  0.7641  0.1968  0.1460
 5489TIP3   OH238025   4.648   4.890   8.657  0.4601 -0.6957 -0.1317
 5489TIP3    H138026   4.581   4.936   8.707  2.0826  0.2943  1.2629
 5489TIP3    H238027   4.602   4.817   8.615 -1.9617  1.4615 -1.4341
 5490TIP3   OH238028   3.944   4.790   1.970 -0.2789 -0.2531 -0.2736
 5490TIP3    H138029   3.919   4.728   2.038  0.3462 -0.4248 -0.1912
 5490TIP3    H238030   3.943   4.739   1.889 -1.6822  0.1149 -0.5042
 5491TIP3   OH238031   3.155   2.635   3.002  0.1110  0.0844  0.0664
 5491TIP3    H138032   3.135   2.720   3.039 -0.5694 -0.0727  0.0710
 5491TIP3    H238033   3.227   2.651   2.941 -0.9418  0.9254 -1.0075
 5492TIP3   OH238034   2.407   2.660   0.766  0.6434 -0.3807  0.4188
 5492TIP3    H138035   2.491   2.696   0.738  0.5722  0.5201  1.3280
 5492TIP3    H238036   2.419   2.638   0.858 -0.8561  2.2682  1.3544
 5493TIP3   OH238037   6.784   0.157   7.731 -0.3483 -0.4048  0.1509
 5493TIP3    H138038   6.776   0.101   7.654 -0.5224 -0.5591  0.2791
 5493TIP3    H238039   6.875   0.148   7.758  0.0975  0.7986 -0.9008
 5494TIP3   OH238040   6.162   6.162   1.180 -0.2929 -0.0070  0.0321
 5494TIP3    H138041   6.103   6.137   1.251 -0.2477  1.8862  0.8025
 5494TIP3    H238042   6.248   6.131   1.209 -0.4648 -0.2972  0.2375
 5495TIP3   OH238043   0.233   1.769   2.076 -0.3942 -0.3492 -0.7190
 5495TIP3    H138044   0.271   1.853   2.102  0.1402 -0.6289 -0.5890
 5495TIP3    H238045   0.241   1.713   2.154  0.2672 -0.8626 -1.1445
 5496TIP3   OH238046   6.829   6.371   7.581 -0.0091  0.1222  0.4908
 5496TIP3    H138047   6.913   6.357   7.626  0.3335 -1.1327 -0.4791
 5496TIP3    H238048   6.830   6.463   7.557  1.4603 -0.0420 -0.1780
 5497TIP3   OH238049   6.634   0.590   8.156  0.1296 -0.7593 -0.5779
 5497TIP3    H138050   6.711   0.545   8.122  0.5336 -1.7886  1.5506
 5497TIP3    H238051   6.666   0.638   8.233 -0.7168  1.5671 -1.5599
 5498TIP3   OH238052   4.327   0.680   0.320 -0.1893 -0.5814  0.0763
 5498TIP3    H138053   4.248   0.734   0.314  0.0628 -0.2381 -0.1372
 5498TIP3    H238054   4.336   0.663   0.414 -0.0756  0.0325  0.1780
 5499TIP3   OH238055   2.695   1.095   7.513 -0.4418  0.4872 -0.4259
 5499TIP3    H138056   2.777   1.052   7.491 -0.6387 -0.6635  0.9709
 5499TIP3    H238057   2.712   1.188   7.499  0.3097  0.0993 -2.5410
 5500TIP3   OH238058   5.033   5.556   6.807 -0.3866 -0.5887  0.3333
 5500TIP3    H138059   5.086   5.493   6.758 -1.2745 -2.0106  1.1327
 5500TIP3    H238060   4.992   5.611   6.740  1.7650  0.3226 -0.3210
 5501TIP3   OH238061   1.867   3.713   2.824 -1.0272 -0.4676 -0.5093
 5501TIP3    H138062   1.926   3.747   2.891 -3.0301  0.2936  0.9530
 5501TIP3    H238063   1.925   3.673   2.759  1.1972  1.7342 -0.0294
 5502TIP3   OH238064   0.744   0.202   8.560  0.5933 -0.0358 -0.2983
 5502TIP3    H138065   0.717   0.292   8.541  1.9591  0.5331  0.3366
 5502TIP3    H238066   0.666   0.150   8.541 -0.7762  1.4487  0.9115
 5503TIP3   OH238067   4.775   1.875   2.453 -0.1417 -0.1334  0.5888
 5503TIP3    H138068   4.729   1.866   2.369  2.7913 -0.7170 -1.0840
 5503TIP3    H238069   4.710   1.849   2.519 -2.2299 -0.6824 -1.5656
 5504TIP3   OH238070   1.432   4.894   8.209 -0.6630  0.3468  0.0267
 5504TIP3    H138071   1.376   4.949   8.264 -0.1139 -0.1894  1.1497
 5504TIP3    H238072   1.409   4.919   8.119 -3.1805 -0.3080  0.3998
 5505TIP3   OH238073   6.100   1.404   0.120 -0.3010 -0.0219 -0.4311
 5505TIP3    H138074   6.064   1.415   0.209 -0.3243  1.3650 -0.5864
 5505TIP3    H238075   6.082   1.488   0.077 -0.1894 -0.6381 -1.7211
 5506TIP3   OH238076   1.259   2.872   0.656 -0.0360 -0.8308 -0.0011
 5506TIP3    H138077   1.327   2.898   0.719  3.2413 -4.0673 -1.8478
 5506TIP3    H238078   1.249   2.949   0.600  1.7719 -0.0869  0.6158
 5507TIP3   OH238079   2.799   2.180   2.421 -0.2675  0.2492  0.1116
 5507TIP3    H138080   2.883   2.202   2.382 -0.6292  1.6314  0.0609
 5507TIP3    H238081   2.736   2.234   2.374 -1.6830 -2.8729 -1.9164
 5508TIP3   OH238082   5.941   4.742   0.555 -0.1556 -0.4114  0.1238
 5508TIP3    H138083   6.002   4.733   0.629  0.6259  0.6701 -0.3632
 5508TIP3    H238084   5.921   4.836   0.552 -0.7691 -0.5580 -0.5838
 5509TIP3   OH238085   3.634   5.658   0.562 -0.3543 -0.1339  0.1184
 5509TIP3    H138086   3.722   5.628   0.542 -0.0812 -0.0092  1.0999
 5509TIP3    H238087   3.599   5.592   0.621 -0.3986  0.5482  0.8637
 5510TIP3   OH238088   4.937   0.168   8.478 -0.3283 -0.3042 -0.1372
 5510TIP3    H138089   5.015   0.220   8.497 -0.8114  0.1565  0.6403
 5510TIP3    H238090   4.864   0.229   8.492 -0.8701 -1.0023  0.1072
 5511TIP3   OH238091   4.811   0.714   1.569  0.0804 -0.2324 -0.7101
 5511TIP3    H138092   4.842   0.763   1.493  2.6502 -0.4761  0.0645
 5511TIP3    H238093   4.755   0.776   1.616  0.5017  0.7828 -1.5008
 5512TIP3   OH238094   5.686   5.235   0.167 -0.4541  0.1411 -0.0970
 5512TIP3    H138095   5.663   5.213   0.257  0.5039 -1.3272 -0.1637
 5512TIP3    H238096   5.769   5.282   0.174  0.8551 -1.9700 -0.2577
 5513TIP3   OH238097   0.654   4.882   7.885  0.1770  0.4256  0.3898
 5513TIP3    H138098   0.688   4.794   7.902  0.7012  0.9516  2.3942
 5513TIP3    H238099   0.599   4.901   7.962 -1.4350  1.1534 -0.8877
 5514TIP3   OH238100   3.896   6.813   8.458 -0.3803 -0.1794  0.4094
 5514TIP3    H138101   3.855   6.818   8.372 -0.4725  0.5096  0.4907
 5514TIP3    H238102   3.826   6.835   8.520  0.4662  2.7340  0.4522
 5515TIP3   OH238103   6.052   2.215   2.105 -0.7705 -0.3300 -0.3012
 5515TIP3    H138104   6.118   2.201   2.173  1.7437  1.9628 -2.0700
 5515TIP3    H238105   5.990   2.276   2.145  1.0253  1.5153 -0.1236
 5516TIP3   OH238106   0.961   4.630   0.298  0.2143 -0.2851 -0.1035
 5516TIP3    H138107   0.991   4.569   0.231  0.6468  0.7365 -0.8532
 5516TIP3    H238108   0.865   4.626   0.293  0.2449 -0.3037 -0.6889
 5517TIP3   OH238109   3.603   4.224   0.874  0.2284  0.6199  0.2755
 5517TIP3    H138110   3.643   4.162   0.813 -0.7562 -0.2858  0.5121
 5517TIP3    H238111   3.526   4.257   0.828 -0.0605  0.5492  0.6991
 5518TIP3   OH238112   3.814   2.614   8.333 -1.0461  0.0799 -0.2213
 5518TIP3    H138113   3.767   2.548   8.282  0.9677 -1.6996  0.1027
 5518TIP3    H238114   3.852   2.672   8.266 -0.4987 -0.7673 -0.6675
 5519TIP3   OH238115   4.417   2.921   8.253  0.2970 -0.0899  0.1727
 5519TIP3    H138116   4.470   2.973   8.193 -1.2637  1.8249  0.3823
 5519TIP3    H238117   4.355   2.875   8.197  0.6052 -0.4437  0.1183
 5520TIP3   OH238118   4.481   3.113   8.045  0.0257 -0.3747  0.0913
 5520TIP3    H138119   4.451   3.180   8.107 -2.4128 -1.9840  0.8275
 5520TIP3    H238120   4.412   3.108   7.980  0.8192 -1.2298 -0.7156
 5521TIP3   OH238121   1.967   5.757   0.562  0.1477  0.1040  0.4222
 5521TIP3    H138122   1.997   5.842   0.596 -1.4564  1.3662 -1.1269
 5521TIP3    H238123   1.988   5.760   0.469 -1.6493 -0.3706 -0.0329
 5522TIP3   OH238124   1.983   1.676   1.894 -0.3597 -0.0861 -0.3176
 5522TIP3    H138125   2.056   1.642   1.946 -0.6063  0.6211  0.5058
 5522TIP3    H238126   2.018   1.755   1.853 -1.1911  1.3500  1.6046
 5523TIP3   OH238127   0.835   0.441   0.270 -0.2903 -0.2920  0.6129
 5523TIP3    H138128   0.912   0.421   0.217 -1.3984  0.3301 -1.3230
 5523TIP3    H238129   0.802   0.355   0.297 -1.9930 -1.0848 -3.2235
 5524TIP3   OH238130   0.015   0.068   2.328  0.3801  0.1145  0.3225
 5524TIP3    H138131   0.008   0.083   2.234 -0.5822  1.0171  0.5206
 5524TIP3    H238132   0.098   0.022   2.339  0.2113 -0.5716 -1.0282
 5525TIP3   OH238133   3.676   3.684   0.146 -0.3057 -0.0658 -0.5359
 5525TIP3    H138134   3.602   3.705   0.203 -1.8060 -1.1884 -2.0081
 5525TIP3    H238135   3.693   3.591   0.161  0.2051 -0.0394 -0.9028
 5526TIP3   OH238136   4.005   1.898   2.878  0.4302  0.2797 -0.1067
 5526TIP3    H138137   4.026   1.812   2.915 -0.0135  0.1103 -0.2354
 5526TIP3    H238138   3.966   1.878   2.793  0.5884  0.6246 -0.2619
 5527TIP3   OH238139   0.802   2.789   1.896  0.0117  0.1073  0.4648
 5527TIP3    H138140   0.802   2.762   1.988 -2.3514  0.0946  0.5175
 5527TIP3    H238141   0.878   2.744   1.859  0.4099 -0.7466  2.1758
 5528TIP3   OH238142   2.024   2.008   7.946  0.3264  0.2666 -0.5224
 5528TIP3    H138143   2.073   2.088   7.924 -0.6851  0.8259 -0.8135
 5528TIP3    H238144   1.932   2.033   7.935 -0.0313 -0.7386  0.0803
 5529TIP3   OH238145   0.453   3.259   1.963 -0.3679  0.0145  0.0772
 5529TIP3    H138146   0.470   3.169   1.991  2.2828  0.1894 -0.6699
 5529TIP3    H238147   0.528   3.309   1.996 -1.1927  1.7407 -0.5117
 5530TIP3   OH238148   1.044   5.154   2.009  0.3469  0.1122  0.3620
 5530TIP3    H138149   1.005   5.068   1.998  1.2477 -0.3110  0.4121
 5530TIP3    H238150   0.970   5.215   1.999 -0.0221 -0.5576 -1.3991
 5531TIP3   OH238151   4.649   1.010   7.713  0.3088  0.2094 -0.6819
 5531TIP3    H138152   4.743   1.027   7.708  0.0276  1.6614 -1.5844
 5531TIP3    H238153   4.617   1.028   7.624 -0.6969 -1.2008 -0.6509
 5532TIP3   OH238154   0.779   6.214   2.530 -0.3730  0.2943  0.3077
 5532TIP3    H138155   0.691   6.182   2.509 -0.2720 -1.2184  1.9047
 5532TIP3    H238156   0.836   6.139   2.512  0.4682  0.9515  0.1976
 5533TIP3   OH238157   1.043   2.603   8.506  0.4350  0.1828 -0.0224
 5533TIP3    H138158   0.994   2.593   8.587  1.1211  1.0229  0.5077
 5533TIP3    H238159   1.055   2.698   8.497  1.0358  0.0470 -0.6973
 5534TIP3   OH238160   3.894   2.303   1.066 -0.0680 -0.0561 -0.6158
 5534TIP3    H138161   3.923   2.297   0.975  1.1648  2.9443 -0.5332
 5534TIP3    H238162   3.815   2.356   1.063 -1.5846 -2.1277 -0.0872
 5535TIP3   OH238163   5.182   2.038   0.224 -0.2492 -0.0063  0.1466
 5535TIP3    H138164   5.146   1.952   0.202  2.9712 -1.4083 -0.1400
 5535TIP3    H238165   5.244   2.021   0.295  1.3079  1.9084 -0.6728
 5536TIP3   OH238166   1.743   5.651   2.094  0.1034  0.2359  0.9908
 5536TIP3    H138167   1.750   5.557   2.112 -1.4846 -0.3455 -1.0107
 5536TIP3    H238168   1.655   5.674   2.122  0.2011  0.9250  0.7416
 5537TIP3   OH238169   1.118   1.599   8.574 -0.4892 -0.5450 -0.6457
 5537TIP3    H138170   1.087   1.682   8.610  0.4108  0.2915 -1.7425
 5537TIP3    H238171   1.191   1.574   8.631 -0.2525 -0.1776 -0.7872
 5538TIP3   OH238172   3.969   1.281   2.698 -0.2305  0.2365  0.0903
 5538TIP3    H138173   4.063   1.295   2.713 -0.5504  1.1071  1.4441
 5538TIP3    H238174   3.962   1.189   2.673  1.0567  0.3478 -0.7812
 5539TIP3   OH238175   3.711   3.225   2.237  0.4896 -0.2954  0.5586
 5539TIP3    H138176   3.691   3.141   2.278 -0.5126 -1.9471 -2.8766
 5539TIP3    H238177   3.626   3.270   2.232  1.1421  1.4144  3.1034
 5540TIP3   OH238178   0.144   4.081   1.104 -0.7848  0.0689  0.6194
 5540TIP3    H138179   0.220   4.139   1.094 -0.2651 -0.7522 -0.2871
 5540TIP3    H238180   0.180   3.999   1.138 -1.1567 -0.5496 -0.4437
 5541TIP3   OH238181   2.536   5.944   7.852 -0.5609  0.4769 -0.8649
 5541TIP3    H138182   2.601   5.894   7.900 -0.8282  1.0585  0.1384
 5541TIP3    H238183   2.554   5.925   7.760 -0.9851 -1.8380 -0.5186
 5542TIP3   OH238184   5.005   1.510   0.212 -0.5015  0.6135  0.6030
 5542TIP3    H138185   5.017   1.579   0.147  0.7148  1.3110  1.5053
 5542TIP3    H238186   4.912   1.514   0.234 -0.8683  0.5447 -0.8722
 5543TIP3   OH238187   0.104   3.955   2.089  0.1038  0.0507  0.2506
 5543TIP3    H138188   0.121   3.876   2.141 -0.9575 -0.0833  0.4130
 5543TIP3    H238189   0.017   3.983   2.116 -0.5900 -0.1652 -1.6475
 5544TIP3   OH238190   6.314   3.297   2.261 -0.2039 -0.3125 -0.2159
 5544TIP3    H138191   6.273   3.346   2.332  0.5458  0.6213 -0.3987
 5544TIP3    H238192   6.338   3.213   2.300 -1.0738 -0.3648  0.2396
 5545TIP3   OH238193   2.711   5.459   1.178  0.1585  0.7549  0.3384
 5545TIP3    H138194   2.707   5.484   1.270 -0.3506 -1.5008  0.9889
 5545TIP3    H238195   2.626   5.482   1.142 -0.1851  0.2481  0.8263
 5546TIP3   OH238196   6.858   6.679   0.039  0.0488 -0.0690 -0.6014
 5546TIP3    H138197   6.812   6.720  -0.035 -1.3394 -0.1173  0.2202
 5546TIP3    H238198   6.839   6.736   0.114 -3.2253 -2.8654  0.9325
 5547TIP3   OH238199   1.184   0.233   7.567  0.2075  0.2326 -0.1909
 5547TIP3    H138200   1.204   0.146   7.603  0.1943  0.0681 -0.5832
 5547TIP3    H238201   1.093   0.248   7.594  0.2600  0.1954  0.0139
 5548TIP3   OH238202   0.451   4.247   1.742 -0.2754  0.7505  0.0032
 5548TIP3    H138203   0.475   4.200   1.662  2.0668  1.0556  0.4443
 5548TIP3    H238204   0.360   4.222   1.759 -0.1573 -0.9485 -1.6053
 5549TIP3   OH238205   2.013   5.454   8.487 -0.5016 -0.3687  0.2230
 5549TIP3    H138206   1.933   5.445   8.436 -1.1425 -1.2479  1.3245
 5549TIP3    H238207   2.016   5.374   8.540 -0.3405  0.8658  2.1635
 5550TIP3   OH238208   1.172   0.885   1.461  0.3248 -0.0437 -0.2009
 5550TIP3    H138209   1.261   0.895   1.426  0.4625 -0.1090  0.1246
 5550TIP3    H238210   1.159   0.963   1.514  0.5782 -0.5183  0.5819
 5551TIP3   OH238211   2.456   3.804   2.103 -0.2098 -0.2504 -0.5614
 5551TIP3    H138212   2.387   3.841   2.047 -0.5132 -1.8725 -1.3289
 5551TIP3    H238213   2.439   3.842   2.189 -1.4602  0.1733 -0.9600
 5552TIP3   OH238214   0.231   4.957   8.080 -0.7877  0.1203 -0.0903
 5552TIP3    H138215   0.225   4.939   7.986 -0.9274 -0.4388  0.0233
 5552TIP3    H238216   0.140   4.973   8.106 -0.9543 -1.2119  0.2324
 5553TIP3   OH238217   6.628   1.827   0.706  0.5529 -0.2479  0.2293
 5553TIP3    H138218   6.617   1.911   0.662  3.4399 -0.4119 -1.0805
 5553TIP3    H238219   6.647   1.850   0.797  0.4425  0.4736  0.0756
 5554TIP3   OH238220   6.515   1.804   7.737  0.1637  0.5220  0.3889
 5554TIP3    H138221   6.530   1.765   7.823 -0.1597  1.8801  1.0926
 5554TIP3    H238222   6.499   1.896   7.755 -0.9814  0.6445 -1.0418
 5555TIP3   OH238223   5.156   1.940   8.393 -0.2549 -0.4410  0.1253
 5555TIP3    H138224   5.229   1.885   8.421 -0.3923 -0.4514  0.4711
 5555TIP3    H238225   5.097   1.881   8.348 -1.3501 -1.0106  2.1771
 5556TIP3   OH238226   5.417   1.143   1.976 -0.2828  0.4647  0.3047
 5556TIP3    H138227   5.489   1.185   1.930 -0.0529  2.3888  2.2505
 5556TIP3    H238228   5.338   1.174   1.932 -0.0195  0.3041 -0.2957
 5557TIP3   OH238229   2.500   1.350   1.558  0.3242 -0.7109  0.6057
 5557TIP3    H138230   2.517   1.342   1.464  2.3201 -1.1248  0.9496
 5557TIP3    H238231   2.587   1.344   1.598 -0.5249 -0.8954  2.5024
 5558TIP3   OH238232   5.161   6.550   8.520 -0.1449  0.3150 -0.5072
 5558TIP3    H138233   5.099   6.590   8.580  1.3701  1.7379  0.2056
 5558TIP3    H238234   5.200   6.624   8.473 -0.8709 -0.7117 -2.8833
 5559TIP3   OH238235   0.320   4.773   1.997 -0.2925  0.3174 -0.0648
 5559TIP3    H138236   0.368   4.849   2.030 -0.6557  1.1832 -1.4646
 5559TIP3    H238237   0.245   4.810   1.950  0.3550 -0.8222 -2.1061
 5560TIP3   OH238238   2.787   5.068   8.414  0.0780 -0.1760 -0.3794
 5560TIP3    H138239   2.792   4.981   8.374  1.9184 -0.0193 -0.5950
 5560TIP3    H238240   2.878   5.089   8.437 -0.2949  1.7806 -0.5124
 5561TIP3   OH238241   5.178   5.686   2.128 -0.5448  0.4203 -0.0792
 5561TIP3    H138242   5.095   5.679   2.081  0.4324 -0.4281 -1.7759
 5561TIP3    H238243   5.216   5.768   2.097 -0.9661  1.0897  1.1175
 5562TIP3   OH238244   2.172   1.135   1.433  0.3164 -0.3903 -0.8532
 5562TIP3    H138245   2.219   1.102   1.357  0.4386 -0.5943 -0.6916
 5562TIP3    H238246   2.239   1.144   1.501 -0.0655 -1.8979 -0.2252
 5563TIP3   OH238247   0.298   2.789   0.817 -0.5212 -0.3495 -0.0798
 5563TIP3    H138248   0.364   2.756   0.878  1.6492 -0.2960 -2.2158
 5563TIP3    H238249   0.283   2.880   0.845  1.5705  0.1678 -0.4380
 5564TIP3   OH238250   1.771   2.116   0.520 -0.1581 -0.3616  0.1695
 5564TIP3    H138251   1.822   2.104   0.600 -1.6526  0.6839  1.3306
 5564TIP3    H238252   1.697   2.057   0.529  0.5706 -1.5890 -1.3301
 5565TIP3   OH238253   3.133   2.194   6.648  0.4175  0.0133  0.3669
 5565TIP3    H138254   3.143   2.138   6.726  1.5469  0.2156  0.3814
 5565TIP3    H238255   3.150   2.283   6.680 -2.4969  0.5826  0.5902
 5566TIP3   OH238256   2.644   3.243   8.563 -0.6317  0.1012  0.6546
 5566TIP3    H138257   2.672   3.256   8.653 -1.3215 -0.2526  0.9279
 5566TIP3    H238258   2.599   3.158   8.564 -0.4377 -0.0143 -0.0705
 5567TIP3   OH238259   4.829   6.158   7.345 -0.9645  0.7165 -0.3276
 5567TIP3    H138260   4.888   6.213   7.293 -1.2336  2.0423  0.7007
 5567TIP3    H238261   4.875   6.075   7.354  0.0294  1.1870 -0.8831
 5568TIP3   OH238262   5.718   0.705   0.951 -0.0849  0.2700 -0.0664
 5568TIP3    H138263   5.683   0.659   0.875 -0.0655  0.6881 -0.3255
 5568TIP3    H238264   5.664   0.674   1.024  0.4232 -0.7614 -0.1065
 5569TIP3   OH238265   1.484   1.960   7.399  0.6910 -0.3692 -0.1742
 5569TIP3    H138266   1.518   1.994   7.316  0.9024  0.4855  0.2535
 5569TIP3    H238267   1.400   1.921   7.376  0.4192  0.4896 -0.6760
 5570TIP3   OH238268   2.466   3.896   7.701  0.0105  0.5387  0.5943
 5570TIP3    H138269   2.499   3.832   7.764  0.2666 -0.3575 -0.4174
 5570TIP3    H238270   2.544   3.923   7.651 -0.7062 -1.8615 -2.0527
 5571TIP3   OH238271   3.430   6.657   0.594 -0.4921  0.0052  0.3524
 5571TIP3    H138272   3.439   6.696   0.507  0.1995 -0.2138  0.3232
 5571TIP3    H238273   3.520   6.639   0.622 -0.5436  1.8577  1.9289
 5572TIP3   OH238274   6.335   2.205   2.206  0.3407  0.4641  0.3704
 5572TIP3    H138275   6.355   2.146   2.278  0.9795 -1.4383 -1.2818
 5572TIP3    H238276   6.421   2.231   2.172  0.0536  0.5584 -0.3015
 5573TIP3   OH238277   5.140   4.471   6.947 -0.1044  0.6566  0.5995
 5573TIP3    H138278   5.235   4.464   6.943  0.1694  2.2552  2.5677
 5573TIP3    H238279   5.118   4.545   6.890 -0.1423  0.4406  0.3339
 5574TIP3   OH238280   1.470   2.274   0.186  0.0998  0.0053 -0.0324
 5574TIP3    H138281   1.470   2.330   0.264  1.6263 -1.7151  1.2874
 5574TIP3    H238282   1.390   2.221   0.196  0.7677 -0.8685  0.9188
 5575TIP3   OH238283   1.945   4.749   6.450  0.4678  0.0876  0.1920
 5575TIP3    H138284   1.900   4.828   6.421  1.8371  1.0513  0.5971
 5575TIP3    H238285   1.908   4.679   6.396  0.1899  1.2181 -1.1397
 5576TIP3   OH238286   3.367   0.704   1.192 -0.0417  0.4094 -0.0250
 5576TIP3    H138287   3.283   0.735   1.225 -0.0065 -1.5589  2.1621
 5576TIP3    H238288   3.422   0.782   1.187 -1.0362  1.2487  1.6607
 5577TIP3   OH238289   6.618   0.999   0.279 -0.0822 -0.3659  0.2266
 5577TIP3    H138290   6.527   0.995   0.250  0.3460 -1.7513 -1.0663
 5577TIP3    H238291   6.668   1.006   0.198  1.0054 -0.6461  0.8575
 5578TIP3   OH238292   5.725   6.736   7.337  0.3027  0.1090  0.0896
 5578TIP3    H138293   5.751   6.782   7.417  0.0595 -0.3670  0.4437
 5578TIP3    H238294   5.630   6.729   7.343 -0.0516  2.2732 -1.4210
 5579TIP3   OH238295   2.521   4.961   0.945 -0.5074  0.4839  0.2406
 5579TIP3    H138296   2.435   4.957   0.986 -1.7742  0.7012 -2.2142
 5579TIP3    H238297   2.506   5.008   0.862  1.7921 -0.2135 -0.6452
 5580TIP3   OH238298   0.959   4.989   0.841 -0.1119 -0.3003  0.2507
 5580TIP3    H138299   0.945   4.901   0.875 -1.1940  0.0929  0.8806
 5580TIP3    H238300   0.895   5.043   0.887  1.3062  1.0433  0.7439
 5581TIP3   OH238301   0.437   3.985   1.593 -0.0111 -0.5123 -0.0627
 5581TIP3    H138302   0.424   3.969   1.687 -0.3514 -0.7762 -0.1534
 5581TIP3    H238303   0.504   3.921   1.567 -0.4991 -0.9911 -0.1668
 5582TIP3   OH238304   0.503   2.066   6.704  0.0147  0.8043 -0.2654
 5582TIP3    H138305   0.501   1.984   6.654  0.5920  1.1952 -0.9552
 5582TIP3    H238306   0.529   2.132   6.639  1.5264  1.2094  0.7195
 5583TIP3   OH238307   4.674   1.805   2.184  0.8316 -0.2992 -0.2779
 5583TIP3    H138308   4.736   1.732   2.182  0.1408 -0.9037 -2.4182
 5583TIP3    H238309   4.710   1.869   2.123 -0.1583 -0.2559 -0.8308
 5584TIP3   OH238310   2.760   4.915   0.376 -0.0241  0.0931 -0.4819
 5584TIP3    H138311   2.704   4.839   0.363 -0.3861  0.5067 -1.3876
 5584TIP3    H238312   2.840   4.880   0.417 -0.2758 -0.7269 -0.6814
 5585TIP3   OH238313   0.352   4.169   0.430  0.1682 -0.3667  0.0373
 5585TIP3    H138314   0.411   4.095   0.420  0.2063 -0.1577 -1.6632
 5585TIP3    H238315   0.331   4.171   0.523  2.4748 -0.7193  0.6410
 5586TIP3   OH238316   4.280   5.229   7.679  0.0903 -0.0403  0.1154
 5586TIP3    H138317   4.293   5.254   7.771  0.9282  1.4043 -0.3597
 5586TIP3    H238318   4.344   5.281   7.631 -1.0351 -0.0016 -1.4066
 5587TIP3   OH238319   1.091   2.244   7.191  0.0917 -0.2575 -0.1529
 5587TIP3    H138320   1.035   2.174   7.223  1.8814 -0.9822  1.6408
 5587TIP3    H238321   1.033   2.319   7.180 -1.5565 -1.5259 -0.3892
 5588TIP3   OH238322   6.284   2.958   7.456  0.7552 -0.1366  0.3994
 5588TIP3    H138323   6.375   2.936   7.440  1.7080  3.0996  0.7507
 5588TIP3    H238324   6.262   3.022   7.388 -0.2014  1.5409  2.1845
 5589TIP3   OH238325   6.603   0.333   7.425 -0.0149 -0.2569 -0.3739
 5589TIP3    H138326   6.571   0.414   7.385  0.1675 -0.4500 -0.9187
 5589TIP3    H238327   6.636   0.282   7.352  1.8857  0.0770  0.1826
 5590TIP3   OH238328   1.592   6.264   7.679 -0.1670 -0.0699  0.2204
 5590TIP3    H138329   1.606   6.170   7.672 -2.0439 -0.3695 -0.0954
 5590TIP3    H238330   1.679   6.303   7.668  0.7680 -1.7908  1.2249
 5591TIP3   OH238331   3.596   3.924   8.351  0.1523 -0.1398  0.1682
 5591TIP3    H138332   3.628   3.908   8.440 -1.6350 -0.3238  0.8253
 5591TIP3    H238333   3.501   3.910   8.357 -0.3177  1.9857 -1.2685
 5592TIP3   OH238334   2.558   3.332   0.287 -0.4685  0.0604  0.1291
 5592TIP3    H138335   2.610   3.322   0.207 -1.9211  1.4705 -1.0666
 5592TIP3    H238336   2.520   3.245   0.301  1.2188 -0.6780  0.3681
 5593TIP3   OH238337   1.862   3.740   7.415 -0.1962 -0.1849 -0.3251
 5593TIP3    H138338   1.867   3.662   7.359  1.0384  0.4511 -1.1555
 5593TIP3    H238339   1.821   3.806   7.360 -1.1413 -0.1977  0.3450
 5594TIP3   OH238340   6.803   2.766   2.170  0.4106  0.2329 -0.2298
 5594TIP3    H138341   6.882   2.810   2.201 -0.0261  1.7215 -1.1168
 5594TIP3    H238342   6.735   2.833   2.174 -0.4366 -0.5516 -1.0100
 5595TIP3   OH238343   1.065   3.239   1.493 -0.4701 -0.2820  0.5420
 5595TIP3    H138344   1.062   3.235   1.589  0.1278  1.8807  0.6991
 5595TIP3    H238345   1.029   3.325   1.472  2.2340  0.5818 -0.9664
 5596TIP3   OH238346   3.180   3.566   7.225 -0.3336 -0.0975 -0.8712
 5596TIP3    H138347   3.241   3.618   7.277 -1.8378  1.0559 -0.1731
 5596TIP3    H238348   3.194   3.595   7.135 -0.3636  0.7068 -0.6255
 5597TIP3   OH238349   4.315   6.170   2.044  0.5594  0.1933 -0.2174
 5597TIP3    H138350   4.262   6.097   2.010 -0.5039  1.5803 -1.7143
 5597TIP3    H238351   4.403   6.153   2.010  0.3758 -0.5094 -0.3617
 5598TIP3   OH238352   2.973   5.209   7.627 -0.1172  0.4169  0.0564
 5598TIP3    H138353   2.898   5.171   7.582  0.7845  0.0156 -1.1345
 5598TIP3    H238354   3.022   5.255   7.559  2.0651 -1.4322  0.2515
 5599TIP3   OH238355   6.407   0.311   0.832  0.3437 -0.3183 -0.6600
 5599TIP3    H138356   6.318   0.316   0.867  0.3995  1.2770 -0.6767
 5599TIP3    H238357   6.397   0.274   0.745 -0.2453 -0.5523 -0.4973
 5600TIP3   OH238358   1.924   5.907   1.691 -0.7683 -0.2173  0.5879
 5600TIP3    H138359   1.881   5.942   1.769  1.0813  0.0958  1.5461
 5600TIP3    H238360   1.942   5.816   1.713  0.0332 -0.0456  0.6757
 5601TIP3   OH238361   0.499   2.313   1.276 -0.1200 -0.2887 -0.2610
 5601TIP3    H138362   0.430   2.276   1.331 -1.3563  1.0250 -0.8665
 5601TIP3    H238363   0.489   2.408   1.285  0.7373 -0.0587 -1.4286
 5602TIP3   OH238364   6.686   4.697   1.684 -0.1045 -0.3719 -0.5410
 5602TIP3    H138365   6.624   4.677   1.755  0.3002 -1.4351 -0.4737
 5602TIP3    H238366   6.698   4.792   1.690  1.5605 -0.6534  2.2082
 5603TIP3   OH238367   3.999   6.441   7.529  0.2104 -0.1525 -0.3148
 5603TIP3    H138368   3.972   6.393   7.450  1.5225  1.1889 -1.6490
 5603TIP3    H238369   3.953   6.525   7.522  0.0002 -0.1840  0.5970
 5604TIP3   OH238370   2.540   1.779   7.607  0.1832  0.5006 -0.6952
 5604TIP3    H138371   2.507   1.698   7.568 -0.2314  0.8580 -1.0943
 5604TIP3    H238372   2.474   1.803   7.672  1.4449 -0.7411  1.1460
 5605TIP3   OH238373   6.653   0.984   8.040  0.0031  0.4619  0.1596
 5605TIP3    H138374   6.714   0.922   8.000 -0.9491  0.0194 -0.6715
 5605TIP3    H238375   6.574   0.932   8.056 -0.3812  1.1701  0.6155
 5606TIP3   OH238376   5.149   5.142   8.112 -0.9646 -0.1708 -0.3871
 5606TIP3    H138377   5.157   5.197   8.034 -1.9626  1.7549  0.7984
 5606TIP3    H238378   5.103   5.064   8.082  1.9242 -1.2778 -2.4822
 5607TIP3   OH238379   0.285   3.096   6.718 -0.3555  0.1145  0.3307
 5607TIP3    H138380   0.376   3.119   6.739 -0.1455 -0.2302 -0.1722
 5607TIP3    H238381   0.265   3.146   6.640  0.2477 -1.6269 -1.0273
 5608TIP3   OH238382   1.739   6.510   0.670 -0.4607  0.7183 -0.3646
 5608TIP3    H138383   1.651   6.547   0.684  1.2226  4.4386  2.0550
 5608TIP3    H238384   1.752   6.519   0.575 -1.7304  2.8166 -0.4303
 5609TIP3   OH238385   2.450   4.448   0.133  0.0227 -0.0305 -0.6567
 5609TIP3    H138386   2.444   4.354   0.118 -0.5346 -0.6139  2.5012
 5609TIP3    H238387   2.543   4.465   0.146 -0.1080 -0.8431  1.9179
 5610TIP3   OH238388   1.659   2.748   1.568 -0.2581  0.2021  0.0684
 5610TIP3    H138389   1.604   2.816   1.531 -0.3939  0.5353  0.8661
 5610TIP3    H238390   1.626   2.735   1.657  0.6544  0.0889  0.4035
 5611TIP3   OH238391   0.343   5.738   1.742  0.1105 -0.0719  0.1305
 5611TIP3    H138392   0.321   5.708   1.654  0.5042  1.2085 -0.4356
 5611TIP3    H238393   0.439   5.747   1.741 -0.0631  3.2997 -0.5489
 5612TIP3   OH238394   3.972   4.239   8.362 -0.9704 -0.1070 -0.3176
 5612TIP3    H138395   3.992   4.306   8.428  1.5196  0.8045 -1.8274
 5612TIP3    H238396   3.878   4.246   8.349 -1.0313  2.0293  0.7245
 5613TIP3   OH238397   4.912   0.494   0.009  0.6739 -0.3216  0.0716
 5613TIP3    H138398   4.856   0.559  -0.032  1.2621  0.8688  1.0864
 5613TIP3    H238399   4.988   0.486  -0.049  0.6835  0.0396  0.0372
 5614TIP3   OH238400   0.195   0.509   7.727  0.0165 -0.0618 -0.1779
 5614TIP3    H138401   0.273   0.564   7.735  0.1495 -0.4499  1.6224
 5614TIP3    H238402   0.209   0.438   7.791 -1.8705 -0.0468  0.3018
 5615TIP3   OH238403   5.621   0.614   7.678  0.5895 -0.2056  0.1435
 5615TIP3    H138404   5.617   0.542   7.615  0.4298  1.2111 -1.5705
 5615TIP3    H238405   5.713   0.641   7.678  0.1531  1.6245 -1.7943
 5616TIP3   OH238406   3.809   2.622   7.931 -0.1216  0.4002 -0.0939
 5616TIP3    H138407   3.766   2.537   7.925  0.4672  0.0927 -0.0155
 5616TIP3    H238408   3.900   2.605   7.909 -0.0791  1.0881 -0.4984
 5617TIP3   OH238409   2.089   6.298   1.414  0.3271 -0.0967 -0.3086
 5617TIP3    H138410   2.105   6.388   1.442 -1.7249 -0.0877  0.9984
 5617TIP3    H238411   2.081   6.249   1.496 -0.4610 -1.1116 -0.9768
 5618TIP3   OH238412   0.454   0.579   7.600  0.1760 -0.2582 -1.1534
 5618TIP3    H138413   0.448   0.640   7.527  3.0469  0.7099 -0.6950
 5618TIP3    H238414   0.537   0.533   7.587  1.1564  0.4457  1.7676
 5619TIP3   OH238415   5.308   0.997   7.790 -0.0946  0.1583 -0.0486
 5619TIP3    H138416   5.403   0.993   7.773  0.1526  2.7308  0.3707
 5619TIP3    H238417   5.268   0.986   7.704  0.6639  0.9649 -0.5157
 5620TIP3   OH238418   2.299   1.933   2.000  0.4179  0.1096  0.3911
 5620TIP3    H138419   2.319   1.860   1.942  2.9210  0.9743  0.0637
 5620TIP3    H238420   2.340   1.908   2.084 -0.7862  0.1051  1.0016
 5621TIP3   OH238421   1.786   5.714   0.740  0.0266 -0.1422  0.4225
 5621TIP3    H138422   1.838   5.742   0.815 -0.8170  1.7174  0.3685
 5621TIP3    H238423   1.846   5.721   0.665 -0.3971  2.7590  0.2329
 5622TIP3   OH238424   6.704   1.385   7.587  0.4671 -0.2108 -0.0214
 5622TIP3    H138425   6.772   1.387   7.654  0.3105 -3.5560  0.4130
 5622TIP3    H238426   6.628   1.348   7.631 -0.3860 -0.2920 -1.4781
 5623TIP3   OH238427   3.746   5.800   0.824 -0.0943  0.0485 -0.0544
 5623TIP3    H138428   3.676   5.861   0.800 -0.2473 -0.1992 -0.2331
 5623TIP3    H238429   3.790   5.843   0.898  1.8412  1.9339 -2.1221
 5624TIP3   OH238430   5.549   3.339   6.335  0.2502  0.1202  0.3695
 5624TIP3    H138431   5.509   3.410   6.284  0.7296 -0.1958 -0.4771
 5624TIP3    H238432   5.638   3.369   6.351 -0.6875  1.5936  3.7252
 5625TIP3   OH238433   1.126   6.282   0.253  0.2332  0.1516  0.2583
 5625TIP3    H138434   1.066   6.345   0.213  1.0913  0.3521 -0.7604
 5625TIP3    H238435   1.112   6.292   0.347 -1.2624  0.2456  0.0505
 5626TIP3   OH238436   2.980   1.389   7.260  0.2140  0.1268  0.3551
 5626TIP3    H138437   3.065   1.349   7.242  0.6179  0.4335  1.4688
 5626TIP3    H238438   2.933   1.384   7.177  1.0959 -0.5864 -0.1226
 5627TIP3   OH238439   1.807   6.807   2.093 -0.0480  0.2138  0.2717
 5627TIP3    H138440   1.746   6.734   2.082  0.0837  0.0323  0.7114
 5627TIP3    H238441   1.752   6.886   2.088 -0.2467  0.0696  0.1849
 5628TIP3   OH238442   5.786   5.789   8.504 -0.1944 -0.0778  0.0768
 5628TIP3    H138443   5.741   5.725   8.449 -0.0153 -0.9648  0.9358
 5628TIP3    H238444   5.725   5.807   8.576 -0.3430  0.9187 -0.2778
 5629TIP3   OH238445   2.933   1.147   0.779 -0.6673 -0.1631  0.4728
 5629TIP3    H138446   2.998   1.105   0.723 -0.1683  0.1498  0.8152
 5629TIP3    H238447   2.948   1.241   0.766 -1.2993 -0.0843  0.2666
 5630TIP3   OH238448   5.653   0.711   1.847  0.4732  0.1658 -0.2073
 5630TIP3    H138449   5.703   0.703   1.928  0.7350 -0.3429 -0.4159
 5630TIP3    H238450   5.592   0.783   1.864 -0.1619 -0.5692  0.7999
 5631TIP3   OH238451   3.819   6.345   1.443 -0.1820  0.0383 -0.1467
 5631TIP3    H138452   3.799   6.427   1.490 -1.1408 -0.7372  0.8383
 5631TIP3    H238453   3.735   6.316   1.408  0.2428 -0.2866 -0.9132
 5632TIP3   OH238454   5.455   5.141   2.268 -0.1022  0.4928 -0.8555
 5632TIP3    H138455   5.437   5.048   2.258 -0.6767  0.6117 -0.9537
 5632TIP3    H238456   5.415   5.182   2.191 -2.5293  1.1586  0.6378
 5633TIP3   OH238457   4.131   6.409   1.165 -0.3243  0.6651 -0.0698
 5633TIP3    H138458   4.071   6.346   1.206 -1.2164  1.4513 -0.1239
 5633TIP3    H238459   4.213   6.361   1.154 -1.5715 -1.1804 -2.0563
 5634TIP3   OH238460   5.310   0.908   8.466  0.1198  0.0208 -0.9907
 5634TIP3    H138461   5.303   0.973   8.396  1.1203 -1.9322 -3.0592
 5634TIP3    H238462   5.402   0.880   8.462 -0.2360 -1.3610 -0.0545
 5635TIP3   OH238463   4.647   1.493   7.976  0.2739  0.2154  0.1300
 5635TIP3    H138464   4.562   1.468   7.939  1.0751  0.2740 -1.8643
 5635TIP3    H238465   4.668   1.422   8.036 -1.0762  0.0880  0.4878
 5636TIP3   OH238466   4.518   0.372   1.120 -0.2985  0.0745  0.2590
 5636TIP3    H138467   4.465   0.329   1.052  0.8528 -0.8179 -0.1136
 5636TIP3    H238468   4.492   0.464   1.115 -0.2410  0.0443 -1.4238
 5637TIP3   OH238469   3.387   3.877   2.378 -0.6683  0.1000 -0.6742
 5637TIP3    H138470   3.325   3.899   2.447 -0.1484  2.2992 -0.8494
 5637TIP3    H238471   3.469   3.917   2.405  0.6195 -2.2845 -0.7183
 5638TIP3   OH238472   2.186   3.596   8.416  0.8439 -0.1982  0.1084
 5638TIP3    H138473   2.182   3.527   8.349  0.5398 -1.3379  1.2653
 5638TIP3    H238474   2.094   3.617   8.434  0.9441  1.3871 -1.0842
 5639TIP3   OH238475   2.164   5.351   2.166 -0.0997  0.4498  0.4559
 5639TIP3    H138476   2.186   5.443   2.153  1.9109 -0.2489 -1.7276
 5639TIP3    H238477   2.248   5.306   2.170 -1.0456 -1.3514  1.1429
 5640TIP3   OH238478   0.362   1.991   1.880  0.2342 -0.0663  1.2356
 5640TIP3    H138479   0.291   1.945   1.836  0.0920  1.0005  0.2939
 5640TIP3    H238480   0.356   1.964   1.971 -2.0446  0.7840  1.4001
 5641TIP3   OH238481   1.531   4.409   2.226 -0.4304 -0.3923  0.1930
 5641TIP3    H138482   1.622   4.398   2.253 -0.3640 -1.3071 -0.3758
 5641TIP3    H238483   1.523   4.358   2.146 -1.2675  0.2614 -0.1502
 5642TIP3   OH238484   1.869   4.843   7.581 -0.1668  0.3395 -0.1387
 5642TIP3    H138485   1.957   4.855   7.547 -0.3794 -0.9958 -1.2388
 5642TIP3    H238486   1.822   4.921   7.553  0.4317  0.6345 -0.3423
 5643TIP3   OH238487   5.360   2.482   0.228 -0.4632  0.5119  0.3093
 5643TIP3    H138488   5.393   2.405   0.182 -0.7471  0.9703 -0.6806
 5643TIP3    H238489   5.289   2.449   0.283 -1.9381  0.3487 -1.6184
 5644TIP3   OH238490   6.222   1.544   8.177 -0.4747 -0.1450  0.1035
 5644TIP3    H138491   6.259   1.518   8.262  0.7176 -2.1784 -0.9555
 5644TIP3    H238492   6.145   1.487   8.167 -0.9495  0.4980  0.0630
 5645TIP3   OH238493   0.829   0.022   2.010  0.3073  0.3331  0.1032
 5645TIP3    H138494   0.752   0.070   2.038 -1.9542 -2.7675 -0.3456
 5645TIP3    H238495   0.836  -0.050   2.071  1.9413 -0.3349 -0.8062
 5646TIP3   OH238496   2.615   4.593   0.650  0.2778  0.2161 -0.1607
 5646TIP3    H138497   2.622   4.617   0.558 -0.1573 -4.0866 -1.5710
 5646TIP3    H238498   2.520   4.594   0.668  0.3368  0.6729  0.1552
 5647TIP3   OH238499   3.457   6.522   1.913 -0.0832  0.7191 -0.2423
 5647TIP3    H138500   3.549   6.549   1.922 -0.5426  2.2605  0.1794
 5647TIP3    H238501   3.430   6.501   2.003 -0.4699  1.4930 -0.1657
 5648TIP3   OH238502   2.414   1.317   7.371 -0.1723 -0.0972 -0.2497
 5648TIP3    H138503   2.418   1.257   7.445  0.2727 -1.2799 -1.2004
 5648TIP3    H238504   2.379   1.264   7.299  1.4194  0.4192 -1.4521
 5649TIP3   OH238505   0.960   4.579   7.265  0.6071 -0.4772 -0.2048
 5649TIP3    H138506   0.865   4.567   7.274  0.4863  0.4860 -0.0581
 5649TIP3    H238507   0.996   4.490   7.269 -0.2467 -0.8189  0.2605
 5650TIP3   OH238508   4.594   3.536   7.087  0.0826  0.6669 -0.3769
 5650TIP3    H138509   4.514   3.512   7.133  0.1738  0.0160 -0.5564
 5650TIP3    H238510   4.593   3.632   7.087 -0.0759  0.6770  0.6985
 5651TIP3   OH238511   3.546   3.919   8.061 -0.1545 -0.2599  0.0928
 5651TIP3    H138512   3.537   3.848   7.998  0.1970 -0.0040 -0.2543
 5651TIP3    H238513   3.496   3.991   8.023  1.4697  0.4717 -0.7902
 5652TIP3   OH238514   2.796   4.401   7.505  0.3475 -0.6664  0.5763
 5652TIP3    H138515   2.778   4.339   7.576 -1.1356 -1.0751 -0.1161
 5652TIP3    H238516   2.718   4.455   7.500  0.9151  0.1194  0.0109
 5653TIP3   OH238517   5.971   2.196   2.726  0.4884 -1.0423 -0.0968
 5653TIP3    H138518   5.919   2.268   2.764 -1.6561 -1.4184 -2.0848
 5653TIP3    H238519   5.961   2.206   2.632 -0.2626 -4.1730 -0.4609
 5654TIP3   OH238520   0.638   4.144   8.126 -0.2242  0.4400  0.5151
 5654TIP3    H138521   0.652   4.221   8.181 -2.7922 -0.3399  2.4664
 5654TIP3    H238522   0.693   4.076   8.166 -0.1557  0.5055  0.5341
 5655TIP3   OH238523   5.448   0.176   0.955  0.3305 -0.0755 -0.2756
 5655TIP3    H138524   5.426   0.258   0.910 -0.6848  0.1377  0.5877
 5655TIP3    H238525   5.489   0.122   0.886 -0.5713  0.4962 -1.2942
 5656TIP3   OH238526   4.715   6.511   0.268  0.4769 -0.1661  0.8376
 5656TIP3    H138527   4.684   6.534   0.180  0.2080  0.2524  1.0398
 5656TIP3    H238528   4.724   6.416   0.265 -2.5156 -0.5804  1.2681
 5657TIP3   OH238529   6.566   1.760   1.171 -0.6067 -0.7843  0.4693
 5657TIP3    H138530   6.471   1.749   1.178 -0.4907 -1.5126  1.0123
 5657TIP3    H238531   6.597   1.680   1.129 -0.5801  0.8932 -3.0864
 5658TIP3   OH238532   4.120   6.690   1.554 -0.0134 -0.6706  0.0557
 5658TIP3    H138533   4.062   6.674   1.629  0.1634 -0.0592  0.3283
 5658TIP3    H238534   4.160   6.605   1.537 -0.8149 -1.0493  0.0136
 5659TIP3   OH238535   6.750   0.846   6.494  0.3512  0.3231  0.0528
 5659TIP3    H138536   6.658   0.853   6.467 -0.1532 -1.5019  1.1385
 5659TIP3    H238537   6.789   0.785   6.431  0.2649 -0.5702  0.8542
 5660TIP3   OH238538   0.581   3.721   7.574 -0.3201 -0.2723  0.0270
 5660TIP3    H138539   0.567   3.633   7.538 -0.0781 -0.4853  0.4520
 5660TIP3    H238540   0.571   3.779   7.498  0.4898 -0.7427 -0.4478
 5661TIP3   OH238541   4.129   1.472   8.095  0.2948  0.3442 -0.1621
 5661TIP3    H138542   4.162   1.548   8.045  1.0290  0.1707  0.0471
 5661TIP3    H238543   4.037   1.465   8.069  0.7938 -0.0852 -1.9408
 5662TIP3   OH238544   5.554   2.809   7.224 -0.4976 -0.0053 -0.0126
 5662TIP3    H138545   5.562   2.732   7.280  1.8135 -0.8327 -1.3477
 5662TIP3    H238546   5.590   2.880   7.277  0.7645 -0.5894 -0.0431
 5663TIP3   OH238547   1.247   1.448   2.298 -0.7328  0.1887 -0.0828
 5663TIP3    H138548   1.164   1.408   2.324 -0.8424 -0.1544 -0.9086
 5663TIP3    H238549   1.259   1.521   2.359 -0.8257 -0.7393  1.0792
 5664TIP3   OH238550   5.207   1.285   7.338 -0.8968 -0.0675  0.0658
 5664TIP3    H138551   5.251   1.246   7.262 -0.5213 -0.0485  0.2756
 5664TIP3    H238552   5.202   1.378   7.317  0.9413  0.2546  0.9059
 5665TIP3   OH238553   0.396   4.099   7.404  0.5089 -0.7975 -0.3238
 5665TIP3    H138554   0.403   4.181   7.356 -0.4591 -0.7796 -0.4589
 5665TIP3    H238555   0.350   4.122   7.484 -0.8631 -1.4040 -0.9072
 5666TIP3   OH238556   3.679   6.196   1.808  0.4791  0.3683 -0.6066
 5666TIP3    H138557   3.620   6.167   1.738  0.9908 -0.3534 -0.7509
 5666TIP3    H238558   3.623   6.202   1.886  0.6451 -2.8639 -0.1036
 5667TIP3   OH238559   6.674   6.324   1.515  0.2365 -0.6698  0.0290
 5667TIP3    H138560   6.769   6.334   1.516  0.1331  1.2039 -1.7529
 5667TIP3    H238561   6.646   6.338   1.605  1.5952 -0.4820  0.4286
 5668TIP3   OH238562   1.894   4.060   0.577 -0.1339  0.0759 -0.0207
 5668TIP3    H138563   1.897   4.121   0.650  0.7557  0.9108 -0.7382
 5668TIP3    H238564   1.984   4.029   0.568 -0.2423 -0.0471 -0.7352
 5669TIP3   OH238565   3.287   5.284   1.396  0.2352 -0.8588  0.4924
 5669TIP3    H138566   3.263   5.215   1.334  0.1425 -0.8025  0.4656
 5669TIP3    H238567   3.278   5.366   1.347 -2.1052 -0.6111  1.2226
 5670TIP3   OH238568   5.144   0.354   8.566  0.4010 -0.3978  0.8210
 5670TIP3    H138569   5.181   0.289   8.627  1.9717 -1.4334 -1.0913
 5670TIP3    H238570   5.183   0.437   8.594  0.7966 -0.7866  1.4729
 5671TIP3   OH238571   3.651   1.973   0.018 -0.3185 -0.0351  0.0347
 5671TIP3    H138572   3.685   2.062   0.026  2.1703 -0.9507  0.6638
 5671TIP3    H238573   3.606   1.972  -0.066 -0.1218  1.7122 -0.1419
 5672TIP3   OH238574   6.088   3.102   7.630 -0.3765 -0.3490  0.0965
 5672TIP3    H138575   6.125   3.049   7.560 -0.9947 -2.0773  1.0135
 5672TIP3    H238576   6.153   3.097   7.701 -0.2724  0.4447  0.0677
 5673TIP3   OH238577   5.775   4.891   8.403  0.1270  0.0380 -0.3315
 5673TIP3    H138578   5.755   4.964   8.344  0.4559 -1.1089 -1.9379
 5673TIP3    H238579   5.690   4.862   8.434 -0.2195 -0.3825 -1.5950
 5674TIP3   OH238580   4.073   6.261   2.413 -0.6128 -0.4892 -0.2810
 5674TIP3    H138581   3.982   6.230   2.406 -0.8242 -0.0705  0.5180
 5674TIP3    H238582   4.125   6.188   2.379 -0.9731 -2.5637  3.1000
 5675TIP3   OH238583   0.946   4.293   0.336 -0.9110 -0.5268 -0.4847
 5675TIP3    H138584   1.033   4.329   0.322 -0.5263 -0.2835  2.1411
 5675TIP3    H238585   0.901   4.307   0.252  0.5778  2.0886 -0.9560
 5676TIP3   OH238586   2.410   6.345   8.336 -0.2344  0.0983  0.7137
 5676TIP3    H138587   2.442   6.315   8.251 -1.1367 -1.0376  0.7431
 5676TIP3    H238588   2.318   6.318   8.337 -0.3577  0.5344  1.8536
 5677TIP3   OH238589   4.966   6.292   0.801 -0.3998 -0.3847 -0.4600
 5677TIP3    H138590   4.958   6.361   0.736 -0.2160  0.5397  0.4717
 5677TIP3    H238591   5.053   6.305   0.840 -0.7105 -0.5983  0.3290
 5678TIP3   OH238592   6.854   1.871   7.491 -0.6113  0.1702 -0.0721
 5678TIP3    H138593   6.827   1.920   7.568 -2.1374 -1.1717  0.3000
 5678TIP3    H238594   6.791   1.895   7.423 -0.7229 -0.4432 -0.1919
 5679TIP3   OH238595   6.608   4.307   8.208 -0.4739  0.0783 -0.2475
 5679TIP3    H138596   6.634   4.390   8.248  0.2721  0.2681 -1.1203
 5679TIP3    H238597   6.676   4.245   8.235 -1.5070 -0.5096  1.1785
 5680TIP3   OH238598   5.703   4.430   1.862 -0.7112 -0.3951  0.2041
 5680TIP3    H138599   5.713   4.346   1.908 -0.7009 -0.5625 -0.1037
 5680TIP3    H238600   5.621   4.420   1.814  1.5777 -2.1533 -3.8549
 5681TIP3   OH238601   1.874   4.182   0.825  0.5549  0.3515 -0.3818
 5681TIP3    H138602   1.948   4.130   0.858 -0.0584 -0.4402 -0.2120
 5681TIP3    H238603   1.831   4.214   0.904 -1.5403 -2.4255 -0.2670
 5682TIP3   OH238604   2.601   1.781   1.858  0.2431 -0.3516 -0.0091
 5682TIP3    H138605   2.510   1.751   1.850 -0.7123  1.9942  1.1512
 5682TIP3    H238606   2.631   1.792   1.768 -1.2499  0.4763 -0.4419
 5683TIP3   OH238607   4.051   4.637   7.562  0.0051 -0.2628 -0.0339
 5683TIP3    H138608   3.964   4.608   7.536 -0.2928  0.3979  0.2206
 5683TIP3    H238609   4.038   4.724   7.599  0.8151 -0.0294 -0.2716
 5684TIP3   OH238610   3.851   0.217   1.500  0.1866 -0.3447 -0.2886
 5684TIP3    H138611   3.885   0.304   1.478  0.6478 -0.3869  0.2760
 5684TIP3    H238612   3.773   0.208   1.444  0.3096  0.3045 -0.5727
 5685TIP3   OH238613   5.093   3.166   1.052 -0.6166  0.1679 -0.1170
 5685TIP3    H138614   5.131   3.126   1.130  0.0478 -0.6365 -0.8404
 5685TIP3    H238615   5.137   3.251   1.044 -1.9631  1.0737  1.3648
 5686TIP3   OH238616   1.904   4.656   2.248  0.1880 -0.7283  0.3105
 5686TIP3    H138617   1.959   4.593   2.203  2.0620  1.4687 -0.6690
 5686TIP3    H238618   1.956   4.683   2.324  1.4748  2.6587 -1.5475
 5687TIP3   OH238619   6.717   1.623   0.964 -0.0749 -0.5755 -0.2958
 5687TIP3    H138620   6.803   1.646   0.997 -0.8498  0.5753  1.0362
 5687TIP3    H238621   6.727   1.623   0.869  1.0598  0.9868 -0.2152
 5688TIP3   OH238622   5.084   4.491   1.410 -0.4635 -0.1184  0.3856
 5688TIP3    H138623   5.157   4.444   1.449  0.0457  1.2222  1.1150
 5688TIP3    H238624   5.036   4.425   1.360  1.4462 -0.9412 -0.4182
 5689TIP3   OH238625   4.427   6.686   1.495 -0.0692  0.1152  0.4875
 5689TIP3    H138626   4.389   6.772   1.480 -0.4378  0.2688  2.1052
 5689TIP3    H238627   4.490   6.674   1.424 -0.4353  1.4675 -0.0768
 5690TIP3   OH238628   1.674   3.543   2.428  0.0348 -0.0694  0.0074
 5690TIP3    H138629   1.590   3.504   2.403 -1.0307  1.6588  0.6778
 5690TIP3    H238630   1.659   3.578   2.516  0.6647  2.3597 -0.7663
 5691TIP3   OH238631   3.460   0.548   7.579 -0.0220 -0.3566 -0.1123
 5691TIP3    H138632   3.545   0.556   7.536 -1.1511 -1.1515 -2.7146
 5691TIP3    H238633   3.428   0.638   7.584  0.1603 -0.2245 -0.9915
 5692TIP3   OH238634   0.225   1.911   1.321 -0.0197 -0.0993  0.3514
 5692TIP3    H138635   0.160   1.974   1.351  1.1296  1.7119 -0.7472
 5692TIP3    H238636   0.191   1.826   1.349 -1.1414  1.0552  2.8399
 5693TIP3   OH238637   0.444   5.859   0.840  0.0366 -0.0386 -0.2137
 5693TIP3    H138638   0.488   5.943   0.852 -0.2952 -0.1455  2.1381
 5693TIP3    H238639   0.360   5.869   0.885 -0.5360 -1.2387 -0.9580
 5694TIP3   OH238640   0.755   4.740   8.222  0.0673 -0.4978 -0.1794
 5694TIP3    H138641   0.687   4.750   8.156  0.5737 -0.5350 -0.7202
 5694TIP3    H238642   0.712   4.760   8.305 -1.2082 -2.7997 -0.2170
 5695TIP3   OH238643   6.745   5.671   0.228  0.0897 -0.1445 -0.0814
 5695TIP3    H138644   6.788   5.748   0.193 -1.6383  0.8391 -0.1341
 5695TIP3    H238645   6.812   5.628   0.282  1.3871  0.7843 -0.9088
 5696TIP3   OH238646   0.888   6.187   1.728 -0.7367  0.3672 -0.3777
 5696TIP3    H138647   0.821   6.252   1.750  0.5089  1.7648 -0.5489
 5696TIP3    H238648   0.856   6.106   1.767 -1.9394  1.2590  0.5832
 5697TIP3   OH238649   1.383   1.445   6.576 -0.2902  0.1749 -0.9677
 5697TIP3    H138650   1.411   1.367   6.623  0.2739  1.1175  0.3034
 5697TIP3    H238651   1.391   1.517   6.639  1.0755  1.6042 -2.6490
 5698TIP3   OH238652   1.931   6.416   0.839 -0.1520 -0.3334  0.4347
 5698TIP3    H138653   1.856   6.433   0.896 -0.9458 -1.6389 -0.1417
 5698TIP3    H238654   1.902   6.446   0.753  0.6338  0.6693  0.5134
 5699TIP3   OH238655   1.302   1.270   7.488  0.5305 -0.0850 -0.0710
 5699TIP3    H138656   1.263   1.186   7.465 -1.0069  0.5750  0.0025
 5699TIP3    H238657   1.257   1.297   7.567  0.1035  1.3748 -0.7669
 5700TIP3   OH238658   0.371   5.851   1.462  0.0790  0.3026 -0.3344
 5700TIP3    H138659   0.300   5.904   1.498  0.0024 -0.9148  1.4363
 5700TIP3    H238660   0.330   5.768   1.438  1.1290 -1.3258  2.8874
 5701TIP3   OH238661   4.314   0.016   8.541 -0.1871 -0.0561 -0.1756
 5701TIP3    H138662   4.250   0.011   8.612  1.5610 -0.6075  1.4771
 5701TIP3    H238663   4.267  -0.013   8.463 -1.8433 -0.7331  1.0163
 5702TIP3   OH238664   4.910   4.970   2.487  0.5853  0.2622  0.0271
 5702TIP3    H138665   4.896   5.065   2.488  2.2888  0.5917  2.0324
 5702TIP3    H238666   5.005   4.960   2.496  0.5953 -1.6716 -1.5307
 5703TIP3   OH238667   3.825   1.163   8.157  0.2742 -0.4110 -1.0740
 5703TIP3    H138668   3.751   1.133   8.209  0.5305  0.8461  0.0765
 5703TIP3    H238669   3.808   1.129   8.069 -1.1475 -0.9765 -0.6112
 5704TIP3   OH238670   0.351   5.509   8.271 -0.2059 -0.0419 -0.0175
 5704TIP3    H138671   0.294   5.582   8.248  1.4782  0.8700 -1.5846
 5704TIP3    H238672   0.292   5.436   8.288 -1.9198  1.5127  1.0335
 5705TIP3   OH238673   0.367   4.147   0.073 -0.3534  0.2108 -0.8436
 5705TIP3    H138674   0.429   4.194   0.017  0.8768 -1.9626 -1.4190
 5705TIP3    H238675   0.309   4.215   0.107  1.7249  2.2185 -1.0817
 5706TIP3   OH238676   2.066   5.970   0.699  0.6928  0.3195 -0.3231
 5706TIP3    H138677   2.155   5.982   0.667  0.9015 -0.6269 -0.1489
 5706TIP3    H238678   2.052   6.042   0.761  0.6374  1.5780 -1.7547
 5707TIP3   OH238679   3.355   6.600   6.593 -0.6911  0.3894  0.1126
 5707TIP3    H138680   3.313   6.681   6.623 -0.2906  0.9744 -0.8305
 5707TIP3    H238681   3.370   6.549   6.672 -2.1681  0.6474  0.5797
 5708TIP3   OH238682   0.944   1.280   7.984  0.3139 -0.3039  0.3033
 5708TIP3    H138683   1.017   1.235   7.943  0.1229  0.3662 -0.8433
 5708TIP3    H238684   0.867   1.228   7.960  0.0756  0.6370 -1.1438
 5709TIP3   OH238685   2.017   4.931   0.584  0.2891 -0.4461 -0.0885
 5709TIP3    H138686   2.088   4.959   0.526  0.4828 -1.1627 -0.2049
 5709TIP3    H238687   1.985   4.850   0.544 -2.6563  1.3803 -1.8074
 5710TIP3   OH238688   3.436   1.748   7.860 -0.3819 -0.5967  0.0022
 5710TIP3    H138689   3.504   1.788   7.804 -0.3919 -0.4972  0.0597
 5710TIP3    H238690   3.453   1.654   7.855  0.7998 -0.4933  1.3283
 5711TIP3   OH238691   2.916   4.863   6.727 -0.1391  0.2255 -0.7099
 5711TIP3    H138692   2.921   4.951   6.764  0.4326  0.3765 -1.1272
 5711TIP3    H238693   3.006   4.832   6.728 -0.0918  0.2686 -2.0272
 5712TIP3   OH238694   6.598   0.144   0.951 -0.0653  0.1805 -0.5321
 5712TIP3    H138695   6.540   0.212   0.915 -2.0676 -0.6535  0.9434
 5712TIP3    H238696   6.541   0.068   0.962  1.4187 -0.8064  0.6660
 5713TIP3   OH238697   1.402   6.687   6.837  0.2627 -0.0684  0.4621
 5713TIP3    H138698   1.371   6.648   6.919  1.4477  1.0423  1.4658
 5713TIP3    H238699   1.465   6.624   6.803  0.0014 -0.3899  0.5670
 5714TIP3   OH238700   1.479   2.134   1.016 -0.2019 -0.0659 -0.3067
 5714TIP3    H138701   1.403   2.077   1.000 -1.3945  1.5100 -0.5383
 5714TIP3    H238702   1.463   2.210   0.960  0.8894  0.8841  0.6322
 5715TIP3   OH238703   5.897   3.108   6.886 -0.0493  0.8808 -0.4444
 5715TIP3    H138704   5.958   3.145   6.823  2.7093  0.3481  1.7308
 5715TIP3    H238705   5.903   3.013   6.873 -0.4231  0.8277 -0.2513
 5716TIP3   OH238706   5.623   2.580   2.121  0.0801 -0.1382  0.4659
 5716TIP3    H138707   5.551   2.544   2.174 -1.3750  0.4166 -1.0318
 5716TIP3    H238708   5.605   2.674   2.118  0.2391 -0.1338 -0.8004
 5717TIP3   OH238709   5.127   4.966   0.862 -0.2675  0.3745  0.1428
 5717TIP3    H138710   5.168   4.990   0.779 -1.8482 -0.4840 -0.9472
 5717TIP3    H238711   5.189   4.906   0.903  0.6432  0.9868 -0.2906
 5718TIP3   OH238712   2.897   3.119   8.429 -0.0919 -0.0235  0.5172
 5718TIP3    H138713   2.921   3.101   8.520 -1.1246  0.7672  0.9698
 5718TIP3    H238714   2.890   3.214   8.424 -0.7003 -0.0933 -0.2168
 5719TIP3   OH238715   0.621   1.140   0.727 -0.8247  0.4802 -0.6409
 5719TIP3    H138716   0.670   1.135   0.644 -0.9264  1.6790 -0.7902
 5719TIP3    H238717   0.578   1.225   0.724 -1.9997 -0.0690  0.0143
 5720TIP3   OH238718   4.687   0.849   2.656  0.6943  0.2030  0.3766
 5720TIP3    H138719   4.594   0.839   2.634  0.7208 -1.0678  0.8024
 5720TIP3    H238720   4.687   0.916   2.725  0.4561  2.8519 -2.0042
 5721TIP3   OH238721   0.550   5.356   8.173  0.0171  0.2771  0.6128
 5721TIP3    H138722   0.614   5.411   8.127  0.4495 -0.7910 -0.1299
 5721TIP3    H238723   0.512   5.413   8.239 -0.9432  2.0294 -1.3181
 5722TIP3   OH238724   0.100   2.537   8.687  0.9099 -0.0340 -0.7052
 5722TIP3    H138725   0.037   2.585   8.741 -0.5054 -0.3811 -1.9726
 5722TIP3    H238726   0.125   2.462   8.740  3.5925  2.2118  1.5744
 5723TIP3   OH238727   5.998   0.788   0.556 -0.2492 -0.2050  0.2931
 5723TIP3    H138728   6.090   0.770   0.575 -0.4741 -0.1429  1.5532
 5723TIP3    H238729   5.974   0.857   0.618 -0.3709  1.9563 -1.9953
 5724TIP3   OH238730   2.696   5.772   7.983 -0.0887 -0.1982  0.0347
 5724TIP3    H138731   2.759   5.749   7.916  0.5682  0.2059  0.5049
 5724TIP3    H238732   2.748   5.790   8.061 -0.8535 -1.1007  0.7974
 5725TIP3   OH238733   6.089   0.347   0.829  0.2057  0.6612  0.1202
 5725TIP3    H138734   6.129   0.356   0.916 -0.2319 -3.6364  1.0263
 5725TIP3    H238735   6.014   0.405   0.830  0.4971  1.0887  2.4592
 5726TIP3   OH238736   0.500   2.081   0.972  0.6429 -0.2347  0.2684
 5726TIP3    H138737   0.409   2.058   0.953  0.5152  0.9123 -0.6441
 5726TIP3    H238738   0.548   1.999   0.961 -0.0453 -0.5011 -0.9916
 5727TIP3   OH238739   3.406   3.616   2.050 -0.3063  0.1456  0.2083
 5727TIP3    H138740   3.465   3.691   2.054  0.8241 -0.6694 -0.5759
 5727TIP3    H238741   3.353   3.631   1.972  1.2105 -0.7454 -1.0498
 5728TIP3   OH238742   4.792   0.083   2.495  0.2654  0.5317  0.0391
 5728TIP3    H138743   4.868   0.111   2.444  0.5029  0.8156  0.5444
 5728TIP3    H238744   4.744   0.164   2.514 -1.1106  0.1925 -1.7424
 5729TIP3   OH238745   5.068   5.210   7.829 -0.2717 -0.8224 -0.4403
 5729TIP3    H138746   5.088   5.208   7.735 -0.6313  0.1572 -0.5488
 5729TIP3    H238747   5.016   5.289   7.841  2.4186  0.8807  1.0916
 5730TIP3   OH238748   1.970   0.703   0.028 -0.3778  0.1567  0.3288
 5730TIP3    H138749   2.021   0.711   0.109 -1.3207 -1.0898  1.0744
 5730TIP3    H238750   1.895   0.760   0.042 -0.6012 -0.1501  0.3777
 5731TIP3   OH238751   5.058   3.678   2.306  0.1227  0.2981  0.3369
 5731TIP3    H138752   5.060   3.754   2.248 -1.1618  1.0080  1.1858
 5731TIP3    H238753   5.149   3.668   2.336  0.3194  1.4439  0.1565
 5732TIP3   OH238754   1.255   6.354   1.448 -0.2006 -0.6821  0.2028
 5732TIP3    H138755   1.252   6.378   1.355 -0.5401 -1.9973 -0.1511
 5732TIP3    H238756   1.171   6.311   1.464  0.3911 -1.6611  0.7725
 5733TIP3   OH238757   3.441   2.136   7.677  0.3049 -0.3944  0.1420
 5733TIP3    H138758   3.475   2.082   7.606  0.3616 -0.9030  0.5513
 5733TIP3    H238759   3.496   2.115   7.752 -1.4387 -1.9357  1.0785
 5734TIP3   OH238760   6.690   2.431   6.525  0.1679 -0.1032  0.1694
 5734TIP3    H138761   6.697   2.511   6.472 -1.1350 -1.2804 -1.9238
 5734TIP3    H238762   6.622   2.450   6.589  0.1549  0.6049 -0.0430
 5735TIP3   OH238763   6.185   5.827   8.018  0.2861  0.6367 -0.4701
 5735TIP3    H138764   6.134   5.747   8.029  2.5411 -1.0153 -1.4005
 5735TIP3    H238765   6.167   5.855   7.928  0.8838  0.1605 -0.7366
 5736TIP3   OH238766   2.427   5.825   1.054  0.0640  0.1211 -0.3164
 5736TIP3    H138767   2.442   5.900   1.111  0.0917 -1.2020  1.4808
 5736TIP3    H238768   2.515   5.799   1.026  0.2460 -0.5411  0.8190
 5737TIP3   OH238769   0.810   5.513   0.566  0.2202  0.2274  0.4287
 5737TIP3    H138770   0.824   5.600   0.529 -1.6111  0.1078 -0.6948
 5737TIP3    H238771   0.811   5.527   0.661 -0.5720  1.5809  0.2618
 5738TIP3   OH238772   5.656   5.026   7.829 -0.0891 -0.2496  0.1729
 5738TIP3    H138773   5.599   5.103   7.829 -2.2688 -1.7126 -1.5261
 5738TIP3    H238774   5.744   5.060   7.811 -0.1281  2.1954  3.6536
 5739TIP3   OH238775   6.489   5.978   0.227 -0.2894 -0.3691  0.7479
 5739TIP3    H138776   6.511   6.053   0.283 -2.9141  0.6890  0.5422
 5739TIP3    H238777   6.491   5.903   0.286 -1.5882  0.5117  1.9930
 5740TIP3   OH238778   6.022   4.156   1.983  0.4407  0.3412  0.3663
 5740TIP3    H138779   5.988   4.227   2.036  1.1063  0.8669  0.1100
 5740TIP3    H238780   6.014   4.078   2.038 -4.1210 -0.2552 -0.7748
 5741TIP3   OH238781   2.018   0.168   8.291  0.1624  0.2854 -0.2698
 5741TIP3    H138782   1.960   0.124   8.353 -0.5496  1.3031 -0.1900
 5741TIP3    H238783   1.982   0.256   8.284  0.9254  0.5284 -1.2437
 5742TIP3   OH238784   0.529   0.473   1.822  0.2358  0.3988  0.3368
 5742TIP3    H138785   0.600   0.410   1.810  0.5193  0.8874 -0.5497
 5742TIP3    H238786   0.568   0.546   1.869 -0.2944 -0.4248  2.1607
 5743TIP3   OH238787   0.102   3.004   1.457  0.1933  0.3457  0.2416
 5743TIP3    H138788   0.166   3.005   1.528  1.3624 -0.5469 -0.7523
 5743TIP3    H238789   0.020   3.031   1.498  0.7462 -0.5469  2.0208
 5744TIP3   OH238790   6.660   2.941   0.223 -0.4069 -0.8120 -0.0475
 5744TIP3    H138791   6.575   2.903   0.202 -0.6477  0.4720 -1.6327
 5744TIP3    H238792   6.680   2.910   0.311 -2.1988 -1.6651  0.0950
 5745TIP3   OH238793   5.840   3.410   7.155  0.1525 -0.4826  0.1100
 5745TIP3    H138794   5.910   3.369   7.204  0.4525 -0.5431 -0.3581
 5745TIP3    H238795   5.880   3.489   7.117 -0.5414  0.5149  1.3910
 5746TIP3   OH238796   0.539   2.865   1.806 -0.6605 -0.3127  0.2011
 5746TIP3    H138797   0.632   2.855   1.826 -0.2086  1.8987 -0.5100
 5746TIP3    H238798   0.516   2.787   1.756  1.3168 -0.0241 -1.2553
 5747TIP3   OH238799   6.593   5.299   1.637 -0.5159  0.9398  0.5448
 5747TIP3    H138800   6.544   5.233   1.686 -1.6633  0.7371 -0.8106
 5747TIP3    H238801   6.673   5.311   1.687 -0.6526 -0.8660  1.2789
 5748TIP3   OH238802   4.267   4.348   0.735  0.0002 -0.1756 -0.1070
 5748TIP3    H138803   4.174   4.364   0.750  0.0375  2.3620 -2.0618
 5748TIP3    H238804   4.310   4.376   0.816 -0.8777 -1.2632  0.7672
 5749TIP3   OH238805   1.818   4.077   1.344 -0.2802  0.0609  0.0389
 5749TIP3    H138806   1.860   4.150   1.388 -2.2081  1.7664 -0.7994
 5749TIP3    H238807   1.882   4.050   1.277 -0.1812  2.1626 -0.8041
 5750TIP3   OH238808   0.168   1.860   6.589  0.2505  0.3753 -0.5334
 5750TIP3    H138809   0.260   1.843   6.607 -0.1535  1.0318  2.7967
 5750TIP3    H238810   0.168   1.931   6.525  2.1078  1.8183  0.9852
 5751TIP3   OH238811   0.563   2.218   7.345  0.2603 -0.6997  0.5923
 5751TIP3    H138812   0.543   2.205   7.252  1.3186  0.0038  0.2473
 5751TIP3    H238813   0.603   2.135   7.372  1.5847 -0.3177 -0.0686
 5752TIP3   OH238814   4.158   4.511   1.195  0.2188 -0.3241 -0.0011
 5752TIP3    H138815   4.228   4.514   1.260 -0.5695 -0.1197  0.8537
 5752TIP3    H238816   4.081   4.545   1.241 -0.2083  0.4348 -1.2275
 5753TIP3   OH238817   6.854   0.483   7.998 -0.2555  0.3362  0.0093
 5753TIP3    H138818   6.910   0.493   7.921 -0.0937 -1.0884 -0.0744
 5753TIP3    H238819   6.905   0.523   8.069  0.2405  0.3237 -0.3326
 5754TIP3   OH238820   5.494   6.221   0.951 -0.0302 -0.4192  0.3005
 5754TIP3    H138821   5.537   6.303   0.973 -2.7882  1.2558 -0.0032
 5754TIP3    H238822   5.516   6.206   0.859 -2.3485  2.0975 -0.8125
 5755TIP3   OH238823   0.475   4.690   0.904  0.3703  0.0851  0.3201
 5755TIP3    H138824   0.471   4.643   0.821  1.8693  0.1790  0.1543
 5755TIP3    H238825   0.419   4.639   0.963 -0.6109 -0.0560 -0.6952
 5756TIP3   OH238826   1.855   1.036   7.723 -0.0373 -0.0100 -0.2884
 5756TIP3    H138827   1.903   1.085   7.789  0.8246 -0.8553 -0.2699
 5756TIP3    H238828   1.896   1.061   7.640  0.7786 -1.0826 -0.2314
 5757TIP3   OH238829   2.421   5.212   1.678 -0.2869  0.0705 -0.1077
 5757TIP3    H138830   2.341   5.249   1.717 -0.2011 -0.2178  0.3471
 5757TIP3    H238831   2.406   5.217   1.584  0.6198  3.2935 -0.1846
 5758TIP3   OH238832   4.115   1.668   8.535  0.1118 -0.0770 -0.0328
 5758TIP3    H138833   4.151   1.584   8.504  1.1314 -0.3458  1.6948
 5758TIP3    H238834   4.191   1.713   8.572 -0.4112  1.6793 -1.0097
 5759TIP3   OH238835   4.446   2.587   1.520 -0.5993  0.4765  0.2976
 5759TIP3    H138836   4.493   2.644   1.581 -0.6659  2.2612 -1.2468
 5759TIP3    H238837   4.358   2.624   1.515 -0.4758  0.6043 -1.1772
 5760TIP3   OH238838   3.312   1.142   0.128  0.0440 -1.0365  0.6991
 5760TIP3    H138839   3.373   1.211   0.103  0.9337 -1.4054  1.7585
 5760TIP3    H238840   3.227   1.172   0.095  0.3765  0.6370  1.2653
 5761TIP3   OH238841   5.591   3.142   2.695  0.1529 -0.0753 -1.0569
 5761TIP3    H138842   5.656   3.094   2.644  2.3240 -1.6269  2.7455
 5761TIP3    H238843   5.589   3.097   2.779 -3.5704  1.9342  0.1613
 5762TIP3   OH238844   4.268   0.552   0.071 -0.1430  0.2270  0.1239
 5762TIP3    H138845   4.212   0.609   0.019 -1.4554  0.8872  2.1173
 5762TIP3    H238846   4.330   0.611   0.114 -2.0044  0.4040  2.8137
 5763TIP3   OH238847   3.010   2.740   2.122  0.1437  0.0548 -0.5513
 5763TIP3    H138848   2.985   2.648   2.129 -0.6843  0.2113 -1.3173
 5763TIP3    H238849   2.988   2.777   2.208  2.2736 -0.8448  0.4616
 5764TIP3   OH238850   6.004   1.362   8.068 -0.0410  0.3227  0.0926
 5764TIP3    H138851   5.937   1.416   8.028  0.1530 -0.7873 -1.8798
 5764TIP3    H238852   6.036   1.306   7.997  0.5417 -1.5928  1.7388
 5765TIP3   OH238853   5.373   1.262   1.717 -0.6644 -0.4435 -0.3915
 5765TIP3    H138854   5.434   1.328   1.685  1.1021 -1.6629  0.2792
 5765TIP3    H238855   5.380   1.190   1.654 -2.7072  0.0135 -1.2203
 5766TIP3   OH238856   2.634   1.456   2.328 -0.2798  0.7925  1.0042
 5766TIP3    H138857   2.678   1.458   2.243 -1.3967 -0.1019  0.3817
 5766TIP3    H238858   2.686   1.395   2.381 -2.0619 -2.2854 -0.5404
 5767TIP3   OH238859   3.831   1.408   1.536 -0.5916  0.0668  0.2889
 5767TIP3    H138860   3.762   1.346   1.514 -0.7453 -0.2173  1.4993
 5767TIP3    H238861   3.854   1.387   1.627 -1.5763  2.6058  1.2222
 5768TIP3   OH238862   3.812   6.366   0.740  0.3911  0.0544  0.1887
 5768TIP3    H138863   3.731   6.390   0.785  1.3169  0.6961  1.6019
 5768TIP3    H238864   3.850   6.298   0.795  1.1286  0.2350 -0.0864
 5769TIP3   OH238865   5.736   2.485   7.206 -0.0063  0.6017  0.0264
 5769TIP3    H138866   5.741   2.450   7.295 -0.6093  1.3570  0.3619
 5769TIP3    H238867   5.645   2.473   7.180  0.5938 -1.6555 -1.3624
 5770TIP3   OH238868   6.846   3.020   6.192 -0.2586 -0.0737  0.5588
 5770TIP3    H138869   6.790   2.954   6.152  0.5849 -1.2024  1.1732
 5770TIP3    H238870   6.787   3.071   6.248 -0.4311 -2.6739  3.0151
 5771TIP3   OH238871   6.406   0.138   7.099 -0.4307 -0.3038 -0.5009
 5771TIP3    H138872   6.366   0.195   7.032 -0.9960  0.2254  0.2718
 5771TIP3    H238873   6.494   0.173   7.111 -0.5960  0.0897 -0.4092
 5772TIP3   OH238874   1.055   6.699   8.279 -0.2896 -0.1441  0.3368
 5772TIP3    H138875   1.038   6.616   8.233  1.4023 -0.1580 -0.3528
 5772TIP3    H238876   0.983   6.756   8.254 -0.6691 -0.9289 -0.4102
 5773TIP3   OH238877   0.337   1.557   0.707  0.5035  0.2374 -0.9923
 5773TIP3    H138878   0.370   1.645   0.693  0.6935  0.0220 -2.0248
 5773TIP3    H238879   0.265   1.567   0.769 -1.3257  1.5277 -3.1781
 5774TIP3   OH238880   3.958   1.003   1.180 -0.3350  0.1758  0.4011
 5774TIP3    H138881   4.003   1.027   1.261 -0.1684 -0.4144  0.4884
 5774TIP3    H238882   3.900   0.930   1.205 -0.3792  0.0760  0.0179
 5775TIP3   OH238883   1.294   4.097   7.416 -0.2812  0.6671  0.0518
 5775TIP3    H138884   1.348   4.173   7.441 -1.9356  1.3574  1.7136
 5775TIP3    H238885   1.262   4.119   7.328 -1.2561  2.2244  0.7584
 5776TIP3   OH238886   3.058   1.752   0.675  0.3063  0.3606 -0.2816
 5776TIP3    H138887   3.138   1.802   0.690  0.6488 -0.4015  0.5034
 5776TIP3    H238888   3.069   1.714   0.587  0.4930  0.8172 -0.4581
 5777TIP3   OH238889   6.248   2.873   0.889 -0.0972 -0.1033  0.5316
 5777TIP3    H138890   6.244   2.786   0.929 -0.2096  0.1366  1.0486
 5777TIP3    H238891   6.191   2.866   0.812 -0.1109 -0.4863  0.5720
 5778TIP3   OH238892   3.733   0.431   2.354 -0.1152  0.0413 -0.0937
 5778TIP3    H138893   3.682   0.457   2.431 -1.5676  0.7875 -1.2736
 5778TIP3    H238894   3.824   0.437   2.383 -0.5615  1.8160  1.1223
 5779TIP3   OH238895   2.777   4.171   0.151  0.0504 -0.0880  0.2759
 5779TIP3    H138896   2.867   4.143   0.136  0.1713 -0.3438  1.4390
 5779TIP3    H238897   2.776   4.263   0.126  0.4281 -0.2909 -0.5219
 5780TIP3   OH238898   3.674   3.418   0.265 -0.1326 -0.1692 -0.5047
 5780TIP3    H138899   3.592   3.381   0.233 -0.1617 -0.2617 -0.3240
 5780TIP3    H238900   3.690   3.372   0.347 -0.0555  0.0645 -0.3903
 5781TIP3   OH238901   3.606   5.127   6.570  0.1560  0.0481 -0.1018
 5781TIP3    H138902   3.601   5.189   6.497  0.2003 -0.1674 -0.2910
 5781TIP3    H238903   3.520   5.133   6.612  0.9525  1.9836  1.3473
 5782TIP3   OH238904   0.088   5.983   8.244 -0.0361  0.4174 -0.0911
 5782TIP3    H138905   0.015   5.955   8.298  0.2352  0.6098  0.3855
 5782TIP3    H238906   0.166   5.959   8.294  0.2309  0.2259 -0.5835
 5783TIP3   OH238907   5.295   4.557   7.172  0.1439 -0.2101  0.2967
 5783TIP3    H138908   5.364   4.500   7.137 -0.2950 -0.1095 -0.7417
 5783TIP3    H238909   5.235   4.571   7.099 -0.5423  0.3885  0.9575
 5784TIP3   OH238910   3.702   3.285   7.329  0.2030 -0.1688 -0.2244
 5784TIP3    H138911   3.656   3.283   7.413  0.1651 -0.4055 -0.2501
 5784TIP3    H238912   3.632   3.276   7.263  0.2414 -0.0761 -0.2785
 5785TIP3   OH238913   4.538   4.917   1.618  0.6787  0.5828  0.3103
 5785TIP3    H138914   4.508   5.008   1.619 -2.8529 -0.4469 -0.2631
 5785TIP3    H238915   4.551   4.897   1.525 -0.2773  0.0412  0.2792
 5786TIP3   OH238916   1.928   3.297   1.333 -0.0271 -0.3072  0.0740
 5786TIP3    H138917   1.939   3.244   1.412  1.4762  0.5233  0.4529
 5786TIP3    H238918   1.888   3.378   1.363 -0.3319 -0.3614 -0.1753
 5787TIP3   OH238919   6.834   3.391   8.545 -0.0325  0.1147  0.4680
 5787TIP3    H138920   6.823   3.465   8.606  1.5766 -0.4360  1.4984
 5787TIP3    H238921   6.883   3.326   8.596  1.7036 -0.2268 -1.5393
 5788TIP3   OH238922   5.499   0.496   2.008 -0.3028  0.4698  0.2819
 5788TIP3    H138923   5.539   0.524   2.091  0.3199  1.8307 -0.4373
 5788TIP3    H238924   5.433   0.563   1.990 -0.2732  0.3138 -0.4353
 5789TIP3   OH238925   0.977   0.465   0.006  0.0637 -0.2022 -0.0474
 5789TIP3    H138926   0.951   0.452  -0.085  1.2753  0.3592 -0.4928
 5789TIP3    H238927   1.059   0.515   0.001  0.2369 -0.3044  1.3421
 5790TIP3   OH238928   2.341   4.087   1.046  0.3779  0.1679  0.4499
 5790TIP3    H138929   2.273   4.122   0.989  0.6724 -0.5993 -0.3953
 5790TIP3    H238930   2.423   4.118   1.008  0.5237  1.4749  1.7249
 5791TIP3   OH238931   5.845   1.322   2.583  0.0824 -0.2799  0.4344
 5791TIP3    H138932   5.849   1.359   2.495 -1.3593  0.7463  0.7697
 5791TIP3    H238933   5.917   1.259   2.586 -0.4059 -1.0219 -1.7775
 5792TIP3   OH238934   3.997   5.878   1.693  1.0120 -0.2179  0.2161
 5792TIP3    H138935   3.928   5.835   1.743  0.8601 -0.6526 -0.3641
 5792TIP3    H238936   3.969   5.970   1.689  0.5565 -0.3561  0.1330
 5793TIP3   OH238937   4.080   5.909   7.215 -0.3146 -0.0585 -0.1667
 5793TIP3    H138938   4.014   5.862   7.164 -0.6864  0.1472  0.1276
 5793TIP3    H238939   4.063   6.001   7.198  0.5530 -0.0120 -0.9210
 5794TIP3   OH238940   6.406   2.356   0.591  0.5333  0.0377 -0.7497
 5794TIP3    H138941   6.343   2.427   0.597  0.2120 -0.2479 -0.6839
 5794TIP3    H238942   6.357   2.278   0.617  0.6453 -0.3447 -1.6372
 5795TIP3   OH238943   0.386   5.175   1.677  0.5419  0.7518  0.3879
 5795TIP3    H138944   0.444   5.230   1.731 -1.1713  1.5976  1.4556
 5795TIP3    H238945   0.379   5.093   1.725  1.9180  0.1001 -0.4581
 5796TIP3   OH238946   3.563   5.874   2.517  0.4120  0.5184 -0.4753
 5796TIP3    H138947   3.557   5.965   2.548  1.1717  0.6775 -0.7742
 5796TIP3    H238948   3.657   5.854   2.521  0.3802  0.1319 -1.4861
 5797TIP3   OH238949   3.373   1.961   7.060 -0.3577 -0.2205  0.8100
 5797TIP3    H138950   3.374   1.882   7.114  1.8075 -0.5542  0.3796
 5797TIP3    H238951   3.466   1.980   7.044 -0.8778  0.0157 -2.5371
 5798TIP3   OH238952   2.952   4.978   7.058 -0.1912 -0.7857  0.2596
 5798TIP3    H138953   2.937   5.034   6.982 -0.0281 -1.5328 -0.3358
 5798TIP3    H238954   2.885   4.909   7.051 -0.7469 -0.3810  1.2802
 5799TIP3   OH238955   6.710   2.485   7.761 -0.4740  0.2861 -0.2587
 5799TIP3    H138956   6.724   2.531   7.844  0.5753 -0.6302  0.1068
 5799TIP3    H238957   6.718   2.393   7.784  0.0662  0.0296 -1.4134
 5800TIP3   OH238958   2.834   5.232   2.592  0.3518 -0.0526  0.1421
 5800TIP3    H138959   2.816   5.316   2.635 -1.0750  0.2132 -0.8753
 5800TIP3    H238960   2.920   5.243   2.552  1.1399  0.1378  1.7725
 5801TIP3   OH238961   3.524   1.411   1.227  0.2076 -0.1597  0.6702
 5801TIP3    H138962   3.606   1.371   1.255 -0.3791 -0.2154  2.4502
 5801TIP3    H238963   3.541   1.505   1.227  0.5520 -0.2111 -0.0177
 5802TIP3   OH238964   6.065   5.396   1.866 -0.2140 -0.1065  0.1856
 5802TIP3    H138965   6.058   5.489   1.846  0.9804 -0.3797 -1.8210
 5802TIP3    H238966   5.977   5.361   1.851 -0.5823  0.6133  0.6043
 5803TIP3   OH238967   1.034   1.477   6.243  0.4847  0.2621  0.4870
 5803TIP3    H138968   1.028   1.385   6.217 -2.8790  0.3053  0.7027
 5803TIP3    H238969   1.062   1.522   6.163  1.1810 -0.8013  0.1057
 5804TIP3   OH238970   6.489   2.711   7.732  0.1605  0.3310  0.1237
 5804TIP3    H138971   6.488   2.797   7.774  0.4448  0.0009  0.8216
 5804TIP3    H238972   6.554   2.719   7.662 -1.4343  1.3634 -1.3304
 5805TIP3   OH238973   4.978   4.321   1.665  0.0658  0.5624 -0.0982
 5805TIP3    H138974   4.917   4.255   1.633 -0.0714  0.4792  0.3355
 5805TIP3    H238975   5.045   4.326   1.597 -0.3527  0.5645 -0.5172
 5806TIP3   OH238976   1.198   4.929   0.369  0.1042 -0.7374 -0.4182
 5806TIP3    H138977   1.182   4.956   0.459 -0.4774  1.2035 -1.0508
 5806TIP3    H238978   1.217   4.835   0.375  1.0122 -0.4651  1.8003
 5807TIP3   OH238979   2.241   1.076   0.942 -0.1372 -0.2753  0.0932
 5807TIP3    H138980   2.205   1.122   0.866  1.8429  0.0535 -0.7175
 5807TIP3    H238981   2.228   0.984   0.923  0.3504 -0.1981 -0.6830
 5808TIP3   OH238982   2.104   4.325   0.559  0.6782  0.1493  0.1943
 5808TIP3    H138983   2.044   4.389   0.597  0.1481 -0.3407  0.1877
 5808TIP3    H238984   2.100   4.342   0.464 -0.6219 -0.8719  0.0437
 5809TIP3   OH238985   5.815   1.222   1.476 -0.1571  0.6505 -0.3628
 5809TIP3    H138986   5.790   1.303   1.519 -1.2660  1.3039 -2.1556
 5809TIP3    H238987   5.897   1.197   1.519 -0.5938  1.8682  1.2741
 5810TIP3   OH238988   2.188   5.077   0.104 -0.3077 -0.3932  0.4633
 5810TIP3    H138989   2.174   4.982   0.100  1.2980 -0.6350 -0.6470
 5810TIP3    H238990   2.283   5.087   0.111 -0.4015  1.1388 -0.0270
 5811TIP3   OH238991   1.394   2.546   7.274  0.2063  0.9816 -0.1880
 5811TIP3    H138992   1.361   2.541   7.364  0.8191  0.1858  0.0035
 5811TIP3    H238993   1.316   2.564   7.221 -0.6659 -1.2883  0.2039
 5812TIP3   OH238994   1.775   2.825   1.823  0.3659  0.3955 -0.4465
 5812TIP3    H138995   1.707   2.836   1.756  0.3034  0.9349 -0.2984
 5812TIP3    H238996   1.745   2.750   1.875 -0.2150  0.7514 -0.2636
 5813TIP3   OH238997   0.284   4.665   7.124 -0.2520  0.0922  0.2493
 5813TIP3    H138998   0.237   4.582   7.132  0.4129 -0.4829 -1.2879
 5813TIP3    H238999   0.271   4.691   7.032  2.6571 -0.3049 -0.3946
 5814TIP3   OH239000   2.749   6.405   8.514 -0.2930 -0.3697 -0.1725
 5814TIP3    H139001   2.769   6.399   8.607  0.9237  0.6079 -0.3341
 5814TIP3    H239002   2.832   6.385   8.471 -0.4513  0.6686 -1.0002
 5815TIP3   OH239003   6.038   2.853   6.814  0.3579  0.5069 -0.1697
 5815TIP3    H139004   5.980   2.778   6.802 -1.0533  1.0570  2.4733
 5815TIP3    H239005   6.110   2.838   6.753 -0.8153 -2.0229 -1.0414
 5816TIP3   OH239006   4.237   6.480   6.797  0.1634 -0.2784 -0.0950
 5816TIP3    H139007   4.305   6.445   6.854  1.9610 -0.0288 -1.9469
 5816TIP3    H239008   4.242   6.575   6.810  1.4507 -0.1163 -1.4924
 5817TIP3   OH239009   3.996   6.688   7.998 -0.2039 -0.5294 -0.1968
 5817TIP3    H139010   3.955   6.767   7.963 -0.1349  0.0542  0.9954
 5817TIP3    H239011   3.955   6.675   8.083  0.8720 -0.9179  0.2769
 5818TIP3   OH239012   6.598   4.250   0.475  0.1409 -0.1962 -0.4015
 5818TIP3    H139013   6.643   4.322   0.431 -0.8184  0.5836 -0.1194
 5818TIP3    H239014   6.580   4.187   0.404  0.6144  0.0140 -0.7165
 5819TIP3   OH239015   3.733   3.756   0.489 -0.1814  0.1908 -0.0474
 5819TIP3    H139016   3.822   3.733   0.515  0.2315  0.7405 -0.9123
 5819TIP3    H239017   3.679   3.681   0.517  0.4147  0.2057  1.1860
 5820TIP3   OH239018   5.169   3.525   1.728  0.1883  0.4607 -0.0365
 5820TIP3    H139019   5.073   3.527   1.735  0.2180  0.8769  0.3358
 5820TIP3    H239020   5.188   3.587   1.657  0.2607  1.6298  0.9727
 5821TIP3   OH239021   1.825   2.843   0.571 -0.0926  0.1738 -0.2304
 5821TIP3    H139022   1.848   2.890   0.651 -0.1178 -0.4706  0.1631
 5821TIP3    H239023   1.807   2.912   0.507  1.0672  0.6959 -0.0222
 5822TIP3   OH239024   3.047   0.758   2.033  0.0336 -0.3079 -0.0893
 5822TIP3    H139025   3.077   0.824   1.972 -1.1706  0.5133  0.1567
 5822TIP3    H239026   3.124   0.706   2.053  1.3160  1.7814  0.6665
 5823TIP3   OH239027   3.591   3.741   1.701 -0.7966 -0.0344 -0.4794
 5823TIP3    H139028   3.539   3.737   1.620 -0.0891 -0.6799 -0.9130
 5823TIP3    H239029   3.601   3.649   1.727 -2.2404  0.2218  1.1604
 5824TIP3   OH239030   4.421   1.645   1.437  0.1639 -0.1579 -0.5127
 5824TIP3    H139031   4.364   1.681   1.369 -1.0581 -1.3597 -0.1608
 5824TIP3    H239032   4.479   1.585   1.391  1.8315  1.6996 -1.0130
 5825TIP3   OH239033   5.933   3.994   8.328  0.1763  0.5885 -0.6587
 5825TIP3    H139034   5.940   3.916   8.272 -0.2299 -0.4003  0.6313
 5825TIP3    H239035   6.023   4.013   8.353  0.4575  1.5104 -2.2281
 5826TIP3   OH239036   0.618   4.337   2.876 -0.0144 -0.5201 -0.2943
 5826TIP3    H139037   0.612   4.418   2.927 -0.0300 -0.2042 -0.7819
 5826TIP3    H239038   0.678   4.281   2.925 -1.3747 -0.9291  0.9902
 5827TIP3   OH239039   4.712   3.345   8.140  0.2144 -0.0098  0.1032
 5827TIP3    H139040   4.643   3.290   8.100 -1.4525  1.4285  0.8686
 5827TIP3    H239041   4.777   3.355   8.070 -0.5131 -1.1000 -0.7853
 5828TIP3   OH239042   4.617   5.341   7.356 -0.3813 -0.3088  0.2757
 5828TIP3    H139043   4.589   5.257   7.320  1.8028 -0.2624 -1.7617
 5828TIP3    H239044   4.555   5.404   7.322 -0.2064 -0.7067 -0.8186
 5829TIP3   OH239045   6.472   0.302   7.657 -0.3111 -0.0019 -0.3806
 5829TIP3    H139046   6.521   0.283   7.737  0.5720  0.3821 -0.8141
 5829TIP3    H239047   6.539   0.307   7.588 -1.0744 -0.5518 -1.1944
 5830TIP3   OH239048   4.074   1.011   8.150  0.2491  0.1939  0.0303
 5830TIP3    H139049   4.083   0.943   8.218 -0.0190  0.1781  0.0511
 5830TIP3    H239050   3.990   1.052   8.169  0.6859  0.9397  0.3801
 5831TIP3   OH239051   5.707   4.392   0.697 -0.0339  0.2156 -0.1680
 5831TIP3    H139052   5.801   4.389   0.683 -0.1101  0.2134 -0.6918
 5831TIP3    H239053   5.670   4.407   0.610 -0.5809 -0.8691 -0.1391
 5832TIP3   OH239054   6.667   1.944   8.418  0.2602 -0.0684 -0.1826
 5832TIP3    H139055   6.583   1.956   8.461  1.0158  0.4599  1.1962
 5832TIP3    H239056   6.680   1.850   8.416  0.3648 -0.0993  1.0990
 5833TIP3   OH239057   6.211   4.841   7.788 -0.4532  0.0225  0.7031
 5833TIP3    H139058   6.284   4.780   7.773 -0.4409  0.1842  0.0952
 5833TIP3    H239059   6.245   4.926   7.762 -1.0377  0.0141 -0.1411
 5834TIP3   OH239060   3.634   5.567   8.503  0.2070  0.1924  0.8922
 5834TIP3    H139061   3.590   5.597   8.423 -1.0039 -0.9363  1.1041
 5834TIP3    H239062   3.640   5.472   8.493 -0.7467 -0.0752  2.5157
 5835TIP3   OH239063   1.005   2.078   2.466 -0.1872 -0.3254  0.4947
 5835TIP3    H139064   0.964   2.165   2.463 -1.8555 -1.0837 -2.3239
 5835TIP3    H239065   1.095   2.093   2.435  0.9898  0.9029  3.9902
 5836TIP3   OH239066   6.185   5.071   1.885  0.1108 -0.3160  0.0374
 5836TIP3    H139067   6.091   5.057   1.868 -0.0758  0.4587  0.4225
 5836TIP3    H239068   6.189   5.094   1.977  0.8178 -1.5559  0.3355
 5837TIP3   OH239069   6.089   3.368   0.629  0.5758 -0.2798  0.2325
 5837TIP3    H139070   6.125   3.407   0.708 -2.3093 -0.9802  2.0610
 5837TIP3    H239071   6.139   3.287   0.617 -0.0654 -1.0952  2.4981
 5838TIP3   OH239072   3.948   3.671   7.236 -0.4498  0.0069 -0.5130
 5838TIP3    H139073   3.930   3.578   7.225 -2.7546  0.1584  1.0958
 5838TIP3    H239074   3.946   3.707   7.148  0.7829 -1.4833 -1.1888
 5839TIP3   OH239075   2.795   6.387   7.173  0.0503 -0.3713 -0.4846
 5839TIP3    H139076   2.772   6.474   7.140  0.2273 -0.2428 -0.2717
 5839TIP3    H239077   2.743   6.327   7.120 -0.5773 -0.1008 -0.1919
 5840TIP3   OH239078   2.840   0.434   8.692 -0.1444  0.3818  0.5074
 5840TIP3    H139079   2.759   0.484   8.676 -0.6831 -0.9311 -1.2109
 5840TIP3    H239080   2.909   0.486   8.650 -0.6249 -0.0271 -0.8467
 5841TIP3   OH239081   4.216   3.353   0.632 -0.6112  0.0886  0.4291
 5841TIP3    H139082   4.254   3.427   0.678 -0.6780  0.8171 -0.6687
 5841TIP3    H239083   4.128   3.381   0.608 -0.4289 -0.1025 -0.5214
 5842TIP3   OH239084   3.312   2.703   7.074  0.4142  0.2104 -0.5275
 5842TIP3    H139085   3.289   2.694   7.166  1.8733 -0.8920 -0.2298
 5842TIP3    H239086   3.349   2.791   7.066 -0.1101  0.4653 -0.1552
 5843TIP3   OH239087   0.363   4.592   1.392 -0.0276  0.0093 -0.0302
 5843TIP3    H139088   0.448   4.547   1.391 -0.2736 -0.4554 -0.2012
 5843TIP3    H239089   0.382   4.679   1.357  0.3906 -0.0722 -0.0150
 5844TIP3   OH239090   5.797   1.992   6.941  0.0855  0.4153 -0.7915
 5844TIP3    H139091   5.786   1.939   7.020  0.9653  1.1835 -0.1271
 5844TIP3    H239092   5.889   1.981   6.917  0.0477  0.8889 -1.1872
 5845TIP3   OH239093   4.096   0.268   1.124 -0.3608  0.7286  0.0791
 5845TIP3    H139094   4.142   0.265   1.208 -1.5486 -0.9660  0.7431
 5845TIP3    H239095   4.116   0.185   1.082 -1.3562  0.7069 -0.3990
 5846TIP3   OH239096   0.145   5.521   2.709  0.0885  0.4657 -0.7950
 5846TIP3    H139097   0.173   5.613   2.707  0.7117  0.5173  2.7288
 5846TIP3    H239098   0.212   5.478   2.762 -1.0907 -1.6815 -0.9785
 5847TIP3   OH239099   2.852   2.609   8.300  0.1519 -0.1598 -0.0205
 5847TIP3    H139100   2.785   2.561   8.251 -0.1780  0.1464  0.1263
 5847TIP3    H239101   2.846   2.574   8.389 -1.5052  1.5441  0.6151
 5848TIP3   OH239102   2.745   3.552   0.946 -0.1758  0.5137 -0.1951
 5848TIP3    H139103   2.651   3.534   0.951  0.1806 -1.4800  0.1167
 5848TIP3    H239104   2.758   3.626   1.006 -1.4632  0.5358  0.1024
 5849TIP3   OH239105   2.041   5.382   1.557  0.4526  0.3023  0.3377
 5849TIP3    H139106   2.029   5.372   1.462  0.4285  0.9650  0.2709
 5849TIP3    H239107   2.022   5.295   1.592  1.0146 -0.1023 -0.3229
 5850TIP3   OH239108   4.638   1.428   0.907 -0.2099 -0.2910  0.3444
 5850TIP3    H139109   4.547   1.404   0.925 -0.3415 -0.3328 -0.3674
 5850TIP3    H239110   4.671   1.357   0.852 -0.1076  0.3377 -0.4073
 5851TIP3   OH239111   0.369   1.120   1.776 -0.4184  0.3765 -0.1419
 5851TIP3    H139112   0.381   1.197   1.832  1.3717  0.6653 -0.8427
 5851TIP3    H239113   0.276   1.119   1.755 -0.3621  2.8532 -0.7928
 5852TIP3   OH239114   1.529   5.134   7.164 -0.2668  0.6874 -0.3689
 5852TIP3    H139115   1.436   5.154   7.159 -0.4554 -0.2002 -0.5969
 5852TIP3    H239116   1.559   5.179   7.243 -0.6495  1.8419 -0.8569
 5853TIP3   OH239117   6.835   4.709   7.031  0.4386 -0.1117 -0.7618
 5853TIP3    H139118   6.871   4.769   7.096 -0.7821 -0.6146  0.4075
 5853TIP3    H239119   6.849   4.753   6.947 -0.3064  1.7493  0.0492
 5854TIP3   OH239120   3.715   1.355   2.623  0.2251  0.2304 -1.1725
 5854TIP3    H139121   3.803   1.319   2.635 -0.3602 -1.1924 -0.9046
 5854TIP3    H239122   3.669   1.333   2.704  0.2644  3.0741 -0.2841
 5855TIP3   OH239123   4.225   3.306   2.124 -0.0784 -0.7721  0.2485
 5855TIP3    H139124   4.221   3.277   2.033  0.7121 -1.5530  0.4531
 5855TIP3    H239125   4.146   3.270   2.164 -0.2000 -0.8055 -0.0147
 5856TIP3   OH239126   4.723   2.629   1.294 -0.1347 -0.3414 -0.1708
 5856TIP3    H139127   4.722   2.602   1.386 -0.0658  0.8115  0.1912
 5856TIP3    H239128   4.669   2.563   1.249 -0.6731 -0.5888  0.7924
 5857TIP3   OH239129   2.826   0.024   7.151  0.4312 -0.2092  0.1779
 5857TIP3    H139130   2.842   0.060   7.064  0.0611  2.1740  1.0215
 5857TIP3    H239131   2.913   0.020   7.192  0.7614 -2.3238 -0.5654
 5858TIP3   OH239132   5.253   0.012   1.086 -0.2247  0.0528 -0.2983
 5858TIP3    H139133   5.310  -0.056   1.122  2.2466  2.0288 -0.1620
 5858TIP3    H239134   5.313   0.072   1.041 -2.5696  0.8145 -2.6343
 5859TIP3   OH239135   2.956   0.929   2.245  0.4742 -0.2616 -0.5659
 5859TIP3    H139136   2.998   0.850   2.210  1.9417  1.0395 -1.9415
 5859TIP3    H239137   3.027   0.976   2.288 -0.1217  0.8144 -0.7307
 5860TIP3   OH239138   0.216   0.063   0.312  0.5352  0.1378  0.3261
 5860TIP3    H139139   0.248   0.149   0.340 -0.0571  0.3932  0.2313
 5860TIP3    H239140   0.138   0.082   0.259  0.8276 -0.4180 -0.3149
 5861TIP3   OH239141   2.708   0.021   2.120  0.5143  0.1170  0.6938
 5861TIP3    H139142   2.633   0.028   2.061  0.9953 -0.7442 -0.0643
 5861TIP3    H239143   2.733   0.112   2.138  0.8948  0.4219 -1.1656
 5862TIP3   OH239144   4.484   1.449   8.334 -0.7055 -0.6286  0.4178
 5862TIP3    H139145   4.453   1.540   8.332 -1.1473 -0.7613  1.0420
 5862TIP3    H239146   4.461   1.415   8.247 -1.5717 -0.4739  0.5734
 5863TIP3   OH239147   4.392   3.862   1.126  0.0101  0.0971 -0.0261
 5863TIP3    H139148   4.469   3.810   1.149 -1.0117 -0.7070  1.8415
 5863TIP3    H239149   4.413   3.950   1.155  0.9456  0.3000 -1.2765
 5864TIP3   OH239150   3.510   2.063   2.049 -0.0198 -0.1507 -0.2824
 5864TIP3    H139151   3.428   2.083   2.093 -0.6466  0.5430 -1.7119
 5864TIP3    H239152   3.537   2.146   2.010  0.9069 -0.5802 -0.5910
 5865TIP3   OH239153   0.444   5.852   7.555  0.0186 -0.5919  0.1373
 5865TIP3    H139154   0.390   5.787   7.510 -1.3853 -0.9412  2.1627
 5865TIP3    H239155   0.531   5.813   7.558  0.3839 -0.2523 -2.7301
 5866TIP3   OH239156   2.563   2.470   7.676 -0.3270  0.3610 -0.6886
 5866TIP3    H139157   2.602   2.402   7.731  0.6483  0.1365 -1.6293
 5866TIP3    H239158   2.605   2.459   7.591 -2.0277  0.5150 -1.5808
 5867TIP3   OH239159   3.183   3.970   2.538  0.2537  0.2467  0.4056
 5867TIP3    H139160   3.183   4.009   2.625 -0.7322  1.6573 -0.1982
 5867TIP3    H239161   3.145   3.883   2.550 -0.5058  0.6946  1.2692
 5868TIP3   OH239162   5.886   3.018   0.980 -0.8443  0.2785  0.5165
 5868TIP3    H139163   5.851   2.932   1.005  0.1173 -0.1540  0.4590
 5868TIP3    H239164   5.979   3.013   1.005 -0.3227  0.5768 -1.2407
 5869TIP3   OH239165   1.006   1.376   0.581  0.4240 -0.5868  0.2843
 5869TIP3    H139166   0.921   1.398   0.620  0.0969 -1.3738  0.0356
 5869TIP3    H239167   1.038   1.302   0.633  0.0698 -1.5218 -0.7933
 5870TIP3   OH239168   3.913   2.791   8.142 -0.3448  0.2032 -0.6646
 5870TIP3    H139169   3.979   2.849   8.105  1.9866 -2.2980 -0.6600
 5870TIP3    H239170   3.877   2.744   8.067 -0.2023 -0.3266 -0.4064
 5871TIP3   OH239171   2.976   0.475   7.478  0.1060  0.3047  0.6875
 5871TIP3    H139172   3.060   0.465   7.524 -0.2056 -0.1696  1.1602
 5871TIP3    H239173   2.913   0.429   7.533 -0.0333 -1.5749 -0.9266
 5872TIP3   OH239174   0.375   2.180   0.669 -0.0041 -0.3407 -0.2406
 5872TIP3    H139175   0.436   2.207   0.600 -0.4815  1.8088  0.1012
 5872TIP3    H239176   0.394   2.087   0.684  2.5162  0.0236 -0.8097
 5873TIP3   OH239177   0.207   2.408   8.458  0.5983 -0.3685 -0.1382
 5873TIP3    H139178   0.122   2.382   8.423  1.4547 -2.4459 -0.8326
 5873TIP3    H239179   0.186   2.467   8.530 -1.5555 -2.3863  1.0436
 5874TIP3   OH239180   2.230   0.979   2.366 -0.5608 -0.1026  0.6497
 5874TIP3    H139181   2.187   1.064   2.359 -0.3266  0.1353  1.8582
 5874TIP3    H239182   2.186   0.936   2.439 -1.3765 -1.4643 -0.5996
 5875TIP3   OH239183   6.318   2.710   1.707  0.1864  0.1420 -0.2628
 5875TIP3    H139184   6.234   2.731   1.747 -0.1243  0.1781 -0.9332
 5875TIP3    H239185   6.336   2.620   1.736  0.5045  0.5506  0.8681
 5876TIP3   OH239186   2.399   1.231   8.061 -0.1597 -0.3229  0.2262
 5876TIP3    H139187   2.436   1.316   8.039 -1.2777  0.8153  2.3924
 5876TIP3    H239188   2.370   1.194   7.978  0.5708  1.2924 -0.7867
 5877TIP3   OH239189   2.988   6.098   6.190  0.0573 -0.5219 -0.4891
 5877TIP3    H139190   3.024   6.135   6.270  1.4998  1.8789 -2.1451
 5877TIP3    H239191   3.036   6.016   6.178  0.1100 -0.7061  0.8588
 5878TIP3   OH239192   5.236   4.082   7.486 -0.3706 -0.5434 -0.4957
 5878TIP3    H139193   5.304   4.078   7.419  1.0085  1.1332  0.7166
 5878TIP3    H239194   5.283   4.090   7.569 -1.9311  2.3054  0.2829
 5879TIP3   OH239195   2.916   1.794   1.804 -0.4938 -0.3812  0.0707
 5879TIP3    H139196   2.913   1.709   1.849 -0.5221 -0.2309  0.3535
 5879TIP3    H239197   2.946   1.772   1.716 -1.4477 -0.8057 -0.1580
 5880TIP3   OH239198   2.586   3.468   2.711 -0.5578  0.6144  0.2042
 5880TIP3    H139199   2.648   3.525   2.666  1.0129 -1.2339 -0.0817
 5880TIP3    H239200   2.550   3.523   2.780  0.2831  2.1875 -0.5470
 5881TIP3   OH239201   1.770   2.079   1.546  0.4529 -0.3933  0.0489
 5881TIP3    H139202   1.778   2.011   1.478 -1.2244 -0.2443 -0.3444
 5881TIP3    H239203   1.745   2.158   1.498 -2.4779 -0.6732  0.9048
 5882TIP3   OH239204   3.606   5.489   7.515  0.6677 -0.1202  0.1432
 5882TIP3    H139205   3.649   5.559   7.563  1.9833  0.4550 -1.7709
 5882TIP3    H239206   3.648   5.409   7.547 -1.4329 -0.2848  2.9758
 5883TIP3   OH239207   5.817   0.943   6.777 -0.1588  0.0919  0.3944
 5883TIP3    H139208   5.728   0.920   6.752  0.4828 -1.7142 -0.3950
 5883TIP3    H239209   5.806   1.008   6.847 -2.0583  0.5249 -0.2500
 5884TIP3   OH239210   2.341   0.309   1.038 -0.4248  0.1788  0.1352
 5884TIP3    H139211   2.427   0.312   1.080 -0.1358  0.8103 -0.4972
 5884TIP3    H239212   2.279   0.303   1.111  0.1725 -0.9546  0.5813
 5885TIP3   OH239213   5.839   0.165   8.617  0.3811 -0.0723  0.4826
 5885TIP3    H139214   5.896   0.161   8.694  3.2736  1.3052 -1.4117
 5885TIP3    H239215   5.830   0.258   8.598 -0.2974 -0.3729 -0.8187
 5886TIP3   OH239216   4.547   4.520   8.674  0.2453 -0.4336 -0.0663
 5886TIP3    H139217   4.586   4.440   8.639 -2.2188 -1.3522 -0.9774
 5886TIP3    H239218   4.591   4.533   8.758  3.7934 -0.2021 -1.7670
 5887TIP3   OH239219   4.304   6.058   8.069  0.0526  0.1154 -0.3920
 5887TIP3    H139220   4.359   6.020   8.001 -0.1687  0.0048 -0.5069
 5887TIP3    H239221   4.274   6.141   8.032 -0.9759 -0.4626 -0.8658
 5888TIP3   OH239222   3.294   1.553   8.488 -0.9951  0.0140 -0.3230
 5888TIP3    H139223   3.222   1.520   8.434 -1.3133  0.0235  0.0895
 5888TIP3    H239224   3.372   1.544   8.433 -1.2432 -0.4176 -0.6073
 5889TIP3   OH239225   2.991   1.494   1.762 -0.0830  0.6905 -0.7047
 5889TIP3    H139226   3.024   1.438   1.693 -2.3248 -1.2322 -0.3343
 5889TIP3    H239227   3.018   1.452   1.844 -0.8440  0.7370 -0.4163
 5890TIP3   OH239228   3.726   2.153   8.523 -0.2108 -0.3234  0.3528
 5890TIP3    H139229   3.635   2.181   8.513  0.1010  0.4502 -0.3397
 5890TIP3    H239230   3.753   2.189   8.607 -0.4270 -0.2377  0.3866
 5891TIP3   OH239231   5.721   0.120   7.586  0.4600 -0.1974 -0.2346
 5891TIP3    H139232   5.701   0.147   7.676  1.2743 -1.2314  0.2876
 5891TIP3    H239233   5.752   0.199   7.543  0.2995  0.2587  0.4727
 5892TIP3   OH239234   2.742   3.827   7.629  0.8144  0.0085  0.5158
 5892TIP3    H139235   2.760   3.807   7.721  0.7120  0.5374  0.6525
 5892TIP3    H239236   2.814   3.786   7.581  0.7104 -0.5228  0.8056
 5893TIP3   OH239237   4.216   0.336   0.227  0.0506 -0.3043  0.2904
 5893TIP3    H139238   4.122   0.347   0.238  0.2105  2.4382 -0.2575
 5893TIP3    H239239   4.238   0.392   0.152  1.9391 -1.9286 -0.4644
 5894TIP3   OH239240   1.078   6.836   7.389 -0.1179  0.3884 -0.0472
 5894TIP3    H139241   1.163   6.874   7.413 -1.2727  2.1355  1.5500
 5894TIP3    H239242   1.088   6.742   7.407  0.9600  0.8084  1.7637
 5895TIP3   OH239243   0.221   1.424   1.108  0.2380  0.5365 -0.2645
 5895TIP3    H139244   0.186   1.392   1.190 -1.5486 -1.1399 -1.6060
 5895TIP3    H239245   0.307   1.382   1.100  0.5276  0.8936  0.8098
 5896TIP3   OH239246   2.653   1.826   0.342 -0.1721  0.4604 -0.0584
 5896TIP3    H139247   2.703   1.886   0.398  3.3549 -0.4104 -1.9827
 5896TIP3    H239248   2.613   1.763   0.403  0.1984  1.8145  1.6594
 5897TIP3   OH239249   5.515   5.481   1.586 -0.1273  0.5645 -0.3641
 5897TIP3    H139250   5.575   5.551   1.562  3.6625 -2.2662 -0.0157
 5897TIP3    H239251   5.510   5.486   1.682  0.8565 -0.1060 -0.2653
 5898TIP3   OH239252   1.343   6.300   0.571  0.6245  0.0533  0.0155
 5898TIP3    H139253   1.284   6.264   0.505  1.1563 -0.8450  0.0143
 5898TIP3    H239254   1.430   6.268   0.547  0.7703 -0.6599  1.3878
 5899TIP3   OH239255   1.755   2.740   0.891  0.3283 -0.0164  0.5061
 5899TIP3    H139256   1.681   2.759   0.949  0.5169 -0.5242  0.9257
 5899TIP3    H239257   1.833   2.759   0.944  0.4997 -0.1002  0.2892
 5900TIP3   OH239258   6.327   0.905   1.601  0.2077 -0.1110 -0.8543
 5900TIP3    H139259   6.311   0.843   1.530 -0.5075  1.6757 -2.3571
 5900TIP3    H239260   6.243   0.950   1.614  0.7333  0.6692  0.0467
 5901TIP3   OH239261   6.850   4.889   0.056 -0.1392 -0.1909 -0.0100
 5901TIP3    H139262   6.756   4.883   0.043  0.1275 -0.7815 -1.9062
 5901TIP3    H239263   6.863   4.870   0.149 -1.9610  1.0479  0.5497
 5902TIP3   OH239264   5.890   3.709   8.554 -0.5385  0.7793  0.2986
 5902TIP3    H139265   5.905   3.650   8.480  1.3163  0.0961  1.1578
 5902TIP3    H239266   5.815   3.763   8.527  0.8416  1.4429 -2.5821
 5903TIP3   OH239267   1.699   0.888   7.874  0.5993 -0.6952  0.1864
 5903TIP3    H139268   1.757   0.940   7.819  2.1418 -1.2828  1.1858
 5903TIP3    H239269   1.715   0.798   7.847  0.6932 -0.9186  0.9650
 5904TIP3   OH239270   3.870   4.012   1.299 -0.2235 -0.6634 -0.2777
 5904TIP3    H139271   3.822   4.065   1.363  0.0588  1.2191 -1.5421
 5904TIP3    H239272   3.821   4.022   1.217  0.5513 -1.3323 -0.8456
 5905TIP3   OH239273   6.537   2.488   0.195 -0.1086 -0.8758 -0.0462
 5905TIP3    H139274   6.519   2.398   0.168 -1.4094 -0.4779 -0.6173
 5905TIP3    H239275   6.518   2.540   0.117  1.7729 -0.1852 -0.0855
 5906TIP3   OH239276   4.367   4.346   1.843 -0.0126  0.3105 -0.0201
 5906TIP3    H139277   4.447   4.375   1.889  1.1974 -1.5025 -0.8594
 5906TIP3    H239278   4.381   4.373   1.752  1.3315 -2.9499 -0.9146
 5907TIP3   OH239279   0.300   1.119   6.907 -0.0621  0.3806  0.3362
 5907TIP3    H139280   0.269   1.124   6.816  0.7853 -1.8075 -0.1272
 5907TIP3    H239281   0.238   1.172   6.956 -4.2415 -3.1517 -0.5998
 5908TIP3   OH239282   5.539   3.327   0.814  0.0227 -0.4489 -0.2392
 5908TIP3    H139283   5.517   3.332   0.721  0.7293  2.0417 -0.3259
 5908TIP3    H239284   5.606   3.259   0.819  0.3996 -0.1964 -1.6297
 5909TIP3   OH239285   2.971   6.177   8.205 -0.4233 -0.2838  0.4358
 5909TIP3    H139286   2.951   6.268   8.183  0.4342  0.2598  1.7747
 5909TIP3    H239287   2.893   6.128   8.179 -0.3155  0.5880 -1.6972
 5910TIP3   OH239288   4.870   2.471   1.495  0.1947 -0.4121  0.4901
 5910TIP3    H139289   4.863   2.376   1.498  1.9206 -0.6148 -0.4179
 5910TIP3    H239290   4.963   2.489   1.511 -0.0038  1.0779  0.1255
 5911TIP3   OH239291   1.576   6.126   6.661 -0.9545 -0.7136 -0.0037
 5911TIP3    H139292   1.498   6.120   6.715 -1.9928 -0.2433 -1.3801
 5911TIP3    H239293   1.649   6.118   6.722 -2.0485 -2.7925  1.1363
 5912TIP3   OH239294   6.464   4.592   1.010  0.0172 -0.1817  0.0571
 5912TIP3    H139295   6.486   4.506   1.046  0.6700  0.2511  0.7397
 5912TIP3    H239296   6.393   4.624   1.066  0.8388  0.3710  0.8159
 5913TIP3   OH239297   1.093   0.292   1.751  0.2110  0.6665 -0.1436
 5913TIP3    H139298   1.021   0.296   1.815  2.2034 -1.6611  2.4776
 5913TIP3    H239299   1.143   0.371   1.766  1.0822 -0.2078  1.8456
 5914TIP3   OH239300   2.967   4.540   0.350 -0.1502  0.4096 -0.1416
 5914TIP3    H139301   2.891   4.486   0.329  0.9700 -1.7771  1.0918
 5914TIP3    H239302   2.950   4.570   0.439  1.5189 -2.3722  1.2618
 5915TIP3   OH239303   0.419   0.748   7.388  0.0423  0.0967  0.2101
 5915TIP3    H139304   0.425   0.672   7.330 -0.4743 -0.7526  1.2328
 5915TIP3    H239305   0.507   0.784   7.390  0.3987 -0.7435  0.0447
 5916TIP3   OH239306   6.700   2.945   1.280 -0.3235  0.4744  0.1739
 5916TIP3    H139307   6.703   3.011   1.350 -1.1364  2.0568 -1.1987
 5916TIP3    H239308   6.679   2.863   1.325  1.7624  0.8988  2.0745
 5917TIP3   OH239309   1.651   3.231   2.096 -0.0869 -0.2270  0.1752
 5917TIP3    H139310   1.686   3.153   2.054  0.1650 -1.3143  2.2812
 5917TIP3    H239311   1.588   3.198   2.160  0.2274  1.2566  1.3138
 5918TIP3   OH239312   4.987   5.572   1.736  0.3322 -0.3701  0.3014
 5918TIP3    H139313   5.000   5.575   1.641  1.2790 -1.9918  0.3294
 5918TIP3    H239314   4.922   5.503   1.750  1.8933 -1.7998  0.9047
 5919TIP3   OH239315   1.066   4.648   8.402  0.4409  0.0826 -0.1704
 5919TIP3    H139316   1.033   4.643   8.312 -0.6027 -2.3084  0.2744
 5919TIP3    H239317   1.154   4.683   8.393  1.6231 -3.0783 -2.5246
 5920TIP3   OH239318   6.087   0.944   6.686  0.0808 -0.2007 -0.2380
 5920TIP3    H139319   6.095   0.852   6.662 -0.0592 -0.8847  2.0535
 5920TIP3    H239320   5.997   0.953   6.718  0.1025  0.7223 -0.4042
 5921TIP3   OH239321   3.584   5.326   8.433  0.3203  0.4970 -0.0913
 5921TIP3    H139322   3.632   5.282   8.364 -1.4792  0.4295 -1.3585
 5921TIP3    H239323   3.492   5.306   8.416 -0.3255  2.0991  1.1597
 5922TIP3   OH239324   2.923   4.030   7.506  0.2740  0.2780  0.0724
 5922TIP3    H139325   2.940   4.020   7.413 -0.7150  1.4271 -0.2710
 5922TIP3    H239326   2.906   3.941   7.537 -1.7029  0.0815 -1.3569
 5923TIP3   OH239327   1.626   3.833   7.913 -0.1243 -0.9542  0.2193
 5923TIP3    H139328   1.694   3.898   7.934 -0.0728 -0.1097 -2.2498
 5923TIP3    H239329   1.561   3.844   7.982  0.6484  0.6286  0.7554
 5924TIP3   OH239330   4.108   0.429   1.672 -0.0572  0.2895  0.0701
 5924TIP3    H139331   4.089   0.519   1.643 -0.2515  0.4206  0.5998
 5924TIP3    H239332   4.199   0.414   1.647 -0.4209  0.1446 -1.2641
 5925TIP3   OH239333   0.034   1.163   1.411 -0.6030  0.3292  1.0071
 5925TIP3    H139334   0.035   1.246   1.362  1.5986  0.5049  1.2755
 5925TIP3    H239335   0.093   1.106   1.362 -1.4270 -0.8183  1.3138
 5926TIP3   OH239336   1.688   0.059   1.176  0.3139  0.3295  0.4127
 5926TIP3    H139337   1.696   0.155   1.181 -0.1409  0.4382 -0.7414
 5926TIP3    H239338   1.736   0.035   1.097  1.4834 -0.5537  1.3551
 5927TIP3   OH239339   0.645   0.758   0.308 -0.2926 -0.2506 -0.4548
 5927TIP3    H139340   0.562   0.728   0.271 -0.1766  1.8882 -2.7377
 5927TIP3    H239341   0.620   0.827   0.370 -0.2687  0.3980 -1.1471
 5928TIP3   OH239342   1.077   1.607   1.887  0.3133  0.1456 -0.1313
 5928TIP3    H139343   1.091   1.679   1.825  2.3201 -0.7282 -0.7891
 5928TIP3    H239344   1.162   1.595   1.930 -0.2831 -1.0979  0.7647
 5929TIP3   OH239345   4.211   0.076   0.104  0.0461  0.2962  0.2209
 5929TIP3    H139346   4.122   0.058   0.132  1.1483 -1.0986  3.2596
 5929TIP3    H239347   4.229   0.164   0.137  0.7406 -0.6506  2.5977
 5930TIP3   OH239348   1.577   4.514   0.904  0.3014  0.4507  0.1299
 5930TIP3    H139349   1.504   4.550   0.954  0.8923 -0.8559  2.0681
 5930TIP3    H239350   1.636   4.588   0.890  1.5980  0.4054  4.2055
 5931TIP3   OH239351   3.061   2.087   0.329 -0.7523 -0.2568 -0.0244
 5931TIP3    H139352   3.127   2.142   0.286  0.8422 -0.1868  2.3204
 5931TIP3    H239353   3.090   1.998   0.312  0.2611 -0.2198  1.3825
 5932TIP3   OH239354   5.664   0.482   7.440 -0.7368  0.3986  0.6643
 5932TIP3    H139355   5.733   0.416   7.441 -1.6380 -0.5760  1.0506
 5932TIP3    H239356   5.650   0.500   7.347 -0.3333  0.1970  0.5604
 5933TIP3   OH239357   4.594   5.301   0.552 -0.3557 -0.6576 -0.1591
 5933TIP3    H139358   4.675   5.280   0.599 -0.1575 -2.4746 -1.2259
 5933TIP3    H239359   4.544   5.219   0.553 -1.7171  0.1515 -0.4369
 5934TIP3   OH239360   0.511   2.723   6.274  0.0676  0.2474  0.2408
 5934TIP3    H139361   0.461   2.785   6.221  0.7631  2.2459  1.7957
 5934TIP3    H239362   0.598   2.722   6.234  0.6169  1.8186  1.2840
 5935TIP3   OH239363   0.405   0.506   1.064  0.4113 -0.0378  0.0339
 5935TIP3    H139364   0.452   0.581   1.097 -2.9255  2.4596 -0.3395
 5935TIP3    H239365   0.312   0.527   1.079 -0.8076 -3.0030 -2.2433
 5936TIP3   OH239366   6.014   4.089   0.094 -0.3001 -0.0307 -0.0474
 5936TIP3    H139367   6.042   4.177   0.119  0.1233  0.2174 -1.3126
 5936TIP3    H239368   6.007   4.092  -0.001  1.2221 -1.7681 -0.2692
 5937TIP3   OH239369   5.758   1.166   7.860 -0.0530  0.8363  0.0521
 5937TIP3    H139370   5.689   1.226   7.887  0.3272  0.2212  2.7149
 5937TIP3    H239371   5.712   1.085   7.838 -0.2573  0.4777  1.6696
 5938TIP3   OH239372   5.368   0.474   8.126 -0.2179 -0.0188  0.1386
 5938TIP3    H139373   5.385   0.552   8.074  1.0078  0.6024  1.4000
 5938TIP3    H239374   5.369   0.505   8.216 -1.1176 -1.2681  0.6076
 5939TIP3   OH239375   1.144   4.323   2.061 -0.4574  0.4117  0.2266
 5939TIP3    H139376   1.103   4.238   2.078  0.8017 -0.1205  0.8131
 5939TIP3    H239377   1.084   4.387   2.098 -1.1575 -0.2699  0.2847
 5940TIP3   OH239378   4.917   3.101   7.481 -0.3005  0.6433  0.2772
 5940TIP3    H139379   4.851   3.164   7.453  0.4527  1.5496  0.5262
 5940TIP3    H239380   4.867   3.021   7.499 -0.9100  0.0977 -3.1579
 5941TIP3   OH239381   2.486   2.044   7.463  0.0456 -0.1362 -1.1234
 5941TIP3    H139382   2.444   2.113   7.513 -1.3870 -0.7474 -1.4475
 5941TIP3    H239383   2.514   1.980   7.529 -0.6486 -0.3115 -0.9963
 5942TIP3   OH239384   0.371   1.707   8.569  0.5889 -0.4284  0.7039
 5942TIP3    H139385   0.386   1.720   8.663  0.3551 -0.8874  0.8091
 5942TIP3    H239386   0.408   1.785   8.528  1.7111 -0.7449  1.0820
 5943TIP3   OH239387   3.370   0.387   0.214  0.1845 -0.1681 -1.0110
 5943TIP3    H139388   3.415   0.405   0.297 -0.4830  0.6442 -0.8123
 5943TIP3    H239389   3.329   0.470   0.190 -0.3366 -0.6170 -1.7191
 5944TIP3   OH239390   0.876   1.347   2.665 -0.3213  0.1705  0.4683
 5944TIP3    H139391   0.839   1.407   2.601 -1.7368 -1.1622 -0.0135
 5944TIP3    H239392   0.834   1.263   2.647 -0.0546 -0.4683  2.5360
 5945TIP3   OH239393   5.107   3.236   1.597  0.3104 -0.1107  0.4610
 5945TIP3    H139394   5.063   3.321   1.608  0.8852  0.3560 -0.7002
 5945TIP3    H239395   5.153   3.243   1.514 -0.1626 -1.8167  0.0130
 5946TIP3   OH239396   1.156   2.891   0.084  0.0529 -0.1771 -0.1325
 5946TIP3    H139397   1.095   2.902   0.010  1.1229  1.7989 -0.7705
 5946TIP3    H239398   1.241   2.874   0.042  0.8232  1.7207  0.5901
 5947TIP3   OH239399   2.008   6.264   8.609 -0.1823  0.4167 -0.3980
 5947TIP3    H139400   2.010   6.242   8.702  1.4163  0.8765 -0.2895
 5947TIP3    H239401   1.999   6.179   8.564  0.6880  0.0279  0.1396
 5948TIP3   OH239402   6.359   1.012   2.189  0.1719  0.2819  0.0139
 5948TIP3    H139403   6.378   1.096   2.232  0.7810 -0.8942  2.1949
 5948TIP3    H239404   6.353   0.949   2.261  1.4947 -1.9027 -1.6659
 5949TIP3   OH239405   0.998   4.419   8.124 -0.3987  0.4535  0.2132
 5949TIP3    H139406   0.966   4.417   8.034 -0.8388  3.2214  0.2148
 5949TIP3    H239407   0.919   4.421   8.177 -0.1554  0.5612  0.5718
 5950TIP3   OH239408   2.772   0.021   1.400  0.3027  0.3657 -0.1158
 5950TIP3    H139409   2.776   0.017   1.304  0.5636 -0.1615 -0.0912
 5950TIP3    H239410   2.862   0.039   1.427  0.3271  0.0140  0.0454
 5951TIP3   OH239411   2.934   5.959   7.171  1.0121 -0.6570  0.1587
 5951TIP3    H139412   2.940   6.047   7.207 -0.6920 -0.4316 -0.0212
 5951TIP3    H239413   2.870   5.966   7.100  0.4560 -2.1191  0.4754
 5952TIP3   OH239414   3.316   1.272   1.399  0.1609  0.4760  0.1942
 5952TIP3    H139415   3.258   1.202   1.368  1.1981 -1.8100  2.9037
 5952TIP3    H239416   3.357   1.307   1.320 -2.1116 -0.3579 -1.4669
 5953TIP3   OH239417   6.486   4.604   2.463 -0.0878 -0.3438  0.5541
 5953TIP3    H139418   6.464   4.528   2.516 -0.4086 -0.4323  0.3002
 5953TIP3    H239419   6.486   4.571   2.373 -1.9754  0.3143  0.2594
 5954TIP3   OH239420   3.389   4.841   0.169  0.3232  0.1061 -0.4422
 5954TIP3    H139421   3.386   4.895   0.248  1.0755  0.4840 -0.6528
 5954TIP3    H239422   3.318   4.778   0.179 -0.1537  0.7256  0.1165
 5955TIP3   OH239423   3.350   3.794   7.664  0.1614 -0.2327  0.3433
 5955TIP3    H139424   3.349   3.748   7.580 -0.2163 -1.9257  1.2231
 5955TIP3    H239425   3.398   3.875   7.647 -1.1772  0.1809 -1.8405
 5956TIP3   OH239426   5.014   6.388   0.545  0.1881  0.2458  0.2028
 5956TIP3    H139427   5.032   6.329   0.472 -0.1218 -0.5408  0.7451
 5956TIP3    H239428   5.076   6.460   0.534 -0.3645  0.5349 -1.2636
 5957TIP3   OH239429   5.519   1.524   1.674  0.1671  0.3839 -0.0399
 5957TIP3    H139430   5.515   1.522   1.579 -0.6388 -0.2277 -0.0072
 5957TIP3    H239431   5.477   1.607   1.698  0.4910  0.6005 -0.2208
 5958TIP3   OH239432   0.064   4.177   8.602 -0.4746  0.2660  0.2790
 5958TIP3    H139433   0.141   4.132   8.638 -0.7181  0.7754  1.5076
 5958TIP3    H239434   0.092   4.269   8.596 -0.3542  0.1516 -1.1285
 5959TIP3   OH239435   4.521   2.941   7.536  0.4263  0.7638  0.5653
 5959TIP3    H139436   4.505   2.957   7.443 -0.6097 -2.4103  0.0850
 5959TIP3    H239437   4.439   2.964   7.579 -0.5956 -1.6252  0.0552
 5960TIP3   OH239438   2.081   6.472   2.625  0.7095 -0.3042 -0.3871
 5960TIP3    H139439   2.056   6.493   2.535  0.6152 -0.1178 -0.3176
 5960TIP3    H239440   2.139   6.397   2.617  1.9000  0.6309 -0.7235
 5961TIP3   OH239441   4.834   5.272   0.685  0.1313  0.0056 -0.0077
 5961TIP3    H139442   4.857   5.182   0.663  0.0754  0.1341 -0.5924
 5961TIP3    H239443   4.915   5.321   0.672  0.2857 -0.0317  0.7589
 5962TIP3   OH239444   0.974   3.610   6.823  0.0433  0.0229 -0.6614
 5962TIP3    H139445   0.995   3.580   6.735  1.6535 -2.0084  0.3096
 5962TIP3    H239446   0.927   3.536   6.863 -1.0995  1.0954  0.0337
 5963TIP3   OH239447   2.452   3.684   1.799 -0.5185  0.6851 -0.5027
 5963TIP3    H139448   2.371   3.728   1.826 -1.5263 -0.5764 -1.3929
 5963TIP3    H239449   2.449   3.599   1.841  0.9146  1.0319  0.3564
 5964TIP3   OH239450   3.920   0.259   0.890 -0.4572  0.0248  0.2359
 5964TIP3    H139451   3.964   0.272   0.973  0.0776  0.4723 -0.1132
 5964TIP3    H239452   3.833   0.226   0.914 -0.7485  1.3034  1.0125
 5965TIP3   OH239453   1.337   0.472   0.585  0.1282  0.9606  0.2700
 5965TIP3    H139454   1.431   0.489   0.586  0.8457 -2.3085 -0.9339
 5965TIP3    H239455   1.314   0.467   0.492 -1.4262  2.3174  0.5263
 5966TIP3   OH239456   3.312   4.313   1.218 -0.8791 -0.6177  0.4179
 5966TIP3    H139457   3.257   4.299   1.294 -1.0144 -1.3211  0.1974
 5966TIP3    H239458   3.351   4.228   1.200 -2.3314 -0.9662 -1.4306
 5967TIP3   OH239459   4.104   1.986   6.764  0.3471  0.1207  0.5144
 5967TIP3    H139460   4.086   2.061   6.709  0.0332 -0.1234  0.2821
 5967TIP3    H239461   4.198   1.992   6.783  0.6937 -0.3769 -0.9292
 5968TIP3   OH239462   4.074   5.883   7.928 -0.9276 -0.1405  0.0278
 5968TIP3    H139463   3.994   5.929   7.902 -0.9541  0.0547  0.4492
 5968TIP3    H239464   4.069   5.879   8.023 -1.4094 -1.8875 -0.0310
 5969TIP3   OH239465   6.147   2.381   1.584 -0.5898 -0.2866  0.7050
 5969TIP3    H139466   6.162   2.367   1.678 -0.0649 -0.3657  0.6165
 5969TIP3    H239467   6.233   2.364   1.544  0.5798  4.3619  0.6914
 5970TIP3   OH239468   1.978   6.155   0.909 -1.1006 -0.2429 -0.1506
 5970TIP3    H139469   1.940   6.232   0.867  0.0286  0.2227 -0.3314
 5970TIP3    H239470   1.956   6.165   1.002  0.0257  0.9179  0.0163
 5971TIP3   OH239471   1.603   0.526   0.558  0.2030  0.2264 -0.3005
 5971TIP3    H139472   1.676   0.553   0.614  0.5846 -1.7643  0.2306
 5971TIP3    H239473   1.633   0.546   0.469 -0.0146  2.5092  0.0812
 5972TIP3   OH239474   1.832   3.643   2.232  0.0331 -0.1000  0.1232
 5972TIP3    H139475   1.763   3.610   2.289  0.0703 -0.3602  0.0187
 5972TIP3    H239476   1.897   3.679   2.292 -0.6673  1.1233  0.1986
 5973TIP3   OH239477   3.236   3.942   7.261  0.0271 -0.1935  0.0261
 5973TIP3    H139478   3.212   3.969   7.173  1.0800 -1.6097 -0.7402
 5973TIP3    H239479   3.262   4.023   7.306 -0.7502  0.5672 -0.8811
 5974TIP3   OH239480   3.638   3.755   7.828  0.4086 -0.5648  0.3701
 5974TIP3    H139481   3.733   3.751   7.830  0.3693 -2.0308  0.3570
 5974TIP3    H239482   3.618   3.836   7.782  1.6498 -0.5793 -0.2223
 5975TIP3   OH239483   5.605   3.727   8.373  0.4192  0.0678 -0.0674
 5975TIP3    H139484   5.619   3.719   8.278  0.1049 -1.2665 -0.0275
 5975TIP3    H239485   5.540   3.659   8.393  2.4001 -1.5081  1.4977
 5976TIP3   OH239486   6.071   5.443   7.160  0.6379  0.2441 -0.1676
 5976TIP3    H139487   6.163   5.416   7.156  0.0221 -2.0617 -0.2867
 5976TIP3    H239488   6.049   5.466   7.070  1.2144  1.2927 -0.0510
 5977TIP3   OH239489   1.901   1.442   7.839 -0.5519 -0.5780 -0.0733
 5977TIP3    H139490   1.947   1.365   7.875  0.0999 -0.6540 -1.0390
 5977TIP3    H239491   1.870   1.413   7.753 -1.7191 -0.2591  0.2269
 5978TIP3   OH239492   0.614   4.881   8.526  0.5317 -0.0755  0.0853
 5978TIP3    H139493   0.619   4.962   8.577 -1.5212 -0.7574  1.4840
 5978TIP3    H239494   0.705   4.852   8.519  1.1432  1.5153  0.9377
 5979TIP3   OH239495   6.019   6.741   0.031 -0.1303  0.3512 -0.5380
 5979TIP3    H139496   5.982   6.657   0.004 -2.6660  1.5320 -1.0551
 5979TIP3    H239497   6.054   6.779  -0.050  1.0811 -0.2023 -0.2916
 5980TIP3   OH239498   4.036   0.115   1.864 -0.5250 -0.2727 -0.2636
 5980TIP3    H139499   3.981   0.168   1.922 -1.6848  0.0722 -1.6485
 5980TIP3    H239500   4.125   0.127   1.899 -0.8055  2.1931 -0.2139
 5981TIP3   OH239501   5.383   5.545   0.641  0.0951  0.5406  0.0592
 5981TIP3    H139502   5.456   5.491   0.611  0.1608  0.3269  0.5882
 5981TIP3    H239503   5.425   5.626   0.672  0.1785  0.1615  0.9634
 5982TIP3   OH239504   3.640   6.372   7.451 -0.3124  0.1597  0.9773
 5982TIP3    H139505   3.654   6.393   7.544  1.0228  1.9841  0.4316
 5982TIP3    H239506   3.642   6.276   7.448  0.6765  0.0736  2.6987
 5983TIP3   OH239507   4.925   1.473   7.167  0.2042 -0.0286  0.0796
 5983TIP3    H139508   4.867   1.536   7.126  1.8882  1.7279  0.2476
 5983TIP3    H239509   4.947   1.411   7.098 -0.7475  0.0763 -0.3343
 5984TIP3   OH239510   5.821   2.077   1.200  0.5283 -0.2785 -0.4692
 5984TIP3    H139511   5.841   2.164   1.235  2.5905 -0.6714 -0.5613
 5984TIP3    H239512   5.890   2.061   1.136 -1.2480 -0.9891 -2.2934
 5985TIP3   OH239513   1.148   2.551   1.086  0.1881  0.6964  0.1232
 5985TIP3    H139514   1.111   2.530   1.172 -0.4701 -2.7149 -0.8471
 5985TIP3    H239515   1.074   2.585   1.036  0.3526  1.7846  0.6013
 5986TIP3   OH239516   2.720   3.869   7.346 -0.4118  0.0422 -0.4151
 5986TIP3    H139517   2.672   3.912   7.417 -0.4630  0.3557 -0.6335
 5986TIP3    H239518   2.712   3.930   7.272  1.7981  0.9714  0.0205
 5987TIP3   OH239519   4.407   6.384   1.245  0.0380  0.4620 -0.1028
 5987TIP3    H139520   4.484   6.423   1.203  0.1583  0.1867 -0.1378
 5987TIP3    H239521   4.380   6.449   1.311  0.4026  0.4799  0.0291
 5988TIP3   OH239522   4.482   0.702   8.288  0.3625  0.3677 -0.1068
 5988TIP3    H139523   4.511   0.751   8.365  0.4142 -1.7284  1.2878
 5988TIP3    H239524   4.487   0.610   8.315  2.3312 -0.5984 -3.2841
 5989TIP3   OH239525   2.286   3.282   7.918 -0.4468  0.3588 -0.2851
 5989TIP3    H139526   2.205   3.230   7.919 -0.0674 -0.2522  1.2510
 5989TIP3    H239527   2.263   3.361   7.869 -1.3086 -0.8258 -1.8920
 5990TIP3   OH239528   0.112   0.391   1.524 -0.1826 -0.2932  0.0908
 5990TIP3    H139529   0.205   0.381   1.501 -0.2955 -0.9304 -0.1261
 5990TIP3    H239530   0.081   0.301   1.536 -1.4846 -0.3689 -2.7947
 5991TIP3   OH239531   4.071   1.834   7.143 -0.0383  0.6792  0.2736
 5991TIP3    H139532   4.156   1.851   7.184  0.1161 -1.6369  1.0455
 5991TIP3    H239533   4.008   1.843   7.215 -0.1123 -0.3627  0.3499
 5992TIP3   OH239534   5.799   2.061   8.698 -0.1955 -0.6038 -0.2617
 5992TIP3    H139535   5.757   2.121   8.637 -0.5984 -1.1483 -0.5250
 5992TIP3    H239536   5.884   2.101   8.716  0.0282 -0.5568 -1.3568
 5993TIP3   OH239537   0.591   4.860   2.203 -0.0402 -0.4969 -0.1825
 5993TIP3    H139538   0.618   4.898   2.287 -1.5717 -1.4387  0.7891
 5993TIP3    H239539   0.540   4.929   2.161  0.6534 -0.0507 -0.3045
 5994TIP3   OH239540   6.135   1.573   1.322 -0.0256 -0.6569 -0.0054
 5994TIP3    H139541   6.103   1.488   1.294  0.1259 -0.8502  0.3998
 5994TIP3    H239542   6.095   1.587   1.408  2.5502 -1.8279  1.4835
 5995TIP3   OH239543   0.672   6.301   0.096 -0.6177 -0.6550  0.7138
 5995TIP3    H139544   0.688   6.382   0.049 -1.6950 -1.0826 -0.4614
 5995TIP3    H239545   0.577   6.287   0.088 -0.1157 -3.6467 -1.9497
 5996TIP3   OH239546   5.676   0.434   1.155 -0.7285  0.1246  0.1070
 5996TIP3    H139547   5.728   0.489   1.214 -0.4999 -0.1417  0.1568
 5996TIP3    H239548   5.589   0.475   1.154 -0.0328  1.7340 -1.4954
 5997TIP3   OH239549   0.476   2.344   8.477 -0.0025  0.1665 -0.1088
 5997TIP3    H139550   0.386   2.376   8.482 -0.7183 -1.6240 -0.9988
 5997TIP3    H239551   0.488   2.292   8.557  0.4693  0.8513  0.2888
 5998TIP3   OH239552   5.487   1.213   7.550  0.5301 -0.3608  0.6882
 5998TIP3    H139553   5.556   1.251   7.495  0.7773 -0.6852  0.7673
 5998TIP3    H239554   5.428   1.286   7.568 -0.3494 -0.5634 -1.1971
 5999TIP3   OH239555   4.340   6.701   1.837 -0.0037  0.0460 -0.2888
 5999TIP3    H139556   4.295   6.722   1.755  1.7836 -1.5609 -1.7912
 5999TIP3    H239557   4.309   6.614   1.861 -0.2961  0.3836  0.6147
 6000TIP3   OH239558   0.809   3.021   7.111  0.3786  0.1943 -0.4171
 6000TIP3    H139559   0.892   3.055   7.077  1.2129  0.8909  2.0579
 6000TIP3    H239560   0.785   3.082   7.181 -1.9358 -0.3501 -0.6516
 6001TIP3   OH239561   0.965   2.752   0.672 -0.5431  0.0907  0.1609
 6001TIP3    H139562   1.027   2.814   0.711 -1.9565  0.5818  1.7400
 6001TIP3    H239563   1.007   2.726   0.590  0.7114  2.1281  0.0622
 6002TIP3   OH239564   3.872   3.218   0.802 -0.5018  0.2726  0.5485
 6002TIP3    H139565   3.889   3.262   0.718 -2.1411  0.0007  0.0371
 6002TIP3    H239566   3.903   3.128   0.788 -1.5888 -0.0206 -0.1096
 6003TIP3   OH239567   1.493   6.825   0.522 -0.3342  0.0332  0.2336
 6003TIP3    H139568   1.582   6.858   0.510 -0.5707  0.9371  0.8976
 6003TIP3    H239569   1.485   6.754   0.457  0.5174  0.6128 -0.5316
 6004TIP3   OH239570   3.876   6.839   1.659  0.5436  0.0218  0.1819
 6004TIP3    H139571   3.932   6.876   1.727  0.1203  0.2245  0.4270
 6004TIP3    H239572   3.831   6.915   1.622 -0.1995 -0.2197  0.5637
 6005TIP3   OH239573   2.173   3.170   7.574  0.1098 -0.3282 -0.5594
 6005TIP3    H139574   2.184   3.094   7.631  0.2398  0.4182  0.4262
 6005TIP3    H239575   2.080   3.193   7.582  0.8624  2.3042  2.7179
 6006TIP3   OH239576   3.911   3.440   7.381  0.4179 -0.2308  0.4217
 6006TIP3    H139577   3.828   3.400   7.356  0.3556  0.0109  0.2353
 6006TIP3    H239578   3.901   3.460   7.474 -0.1239  0.7160  0.1771
 6007TIP3   OH239579   4.648   4.513   0.246 -0.0909  0.1150  0.0961
 6007TIP3    H139580   4.688   4.594   0.279  1.0441 -0.5957  0.5432
 6007TIP3    H239581   4.593   4.483   0.319 -1.3244  0.9828 -0.4410
 6008TIP3   OH239582   4.796   0.811   2.089  0.0839  0.4483  0.2034
 6008TIP3    H139583   4.807   0.716   2.084 -3.8139 -0.2211  0.8199
 6008TIP3    H239584   4.772   0.828   2.180 -1.4212  1.6346 -0.3606
 6009TIP3   OH239585   5.629   6.844   8.522  0.0903  0.4441  0.1268
 6009TIP3    H139586   5.606   6.914   8.460  1.3135 -0.4929 -1.4705
 6009TIP3    H239587   5.689   6.886   8.584  0.8179  0.8407 -0.8153
 6010TIP3   OH239588   2.571   2.293   2.311  0.2584  0.4867 -0.7008
 6010TIP3    H139589   2.598   2.384   2.322 -0.7610  0.9468 -1.8743
 6010TIP3    H239590   2.476   2.297   2.298  0.0519 -0.8324  0.2057
 6011TIP3   OH239591   0.601   2.817   2.305  0.6148  0.1283 -0.4694
 6011TIP3    H139592   0.518   2.797   2.261  0.7234 -1.4168 -0.0310
 6011TIP3    H239593   0.583   2.803   2.398  1.1619  0.5230 -0.3034
 6012TIP3   OH239594   3.202   2.005   8.439 -0.4102  0.0369  0.1788
 6012TIP3    H139595   3.109   2.004   8.416 -0.5198 -3.5107  0.3037
 6012TIP3    H239596   3.203   1.990   8.534  0.3394  2.2250  0.5831
 6013TIP3   OH239597   2.824   5.528   8.577 -0.2828 -0.4194  0.3869
 6013TIP3    H139598   2.836   5.613   8.534  3.6681 -0.3487  1.2205
 6013TIP3    H239599   2.902   5.478   8.551 -0.4780 -2.3107  3.0821
 6014TIP3   OH239600   4.115   4.783   2.748  0.1304  0.6425  0.9084
 6014TIP3    H139601   4.049   4.818   2.689 -2.5969  0.0145  3.3753
 6014TIP3    H239602   4.183   4.851   2.751  0.4884  0.6413 -2.8624
 6015TIP3   OH239603   6.313   3.360   7.916  0.2910  0.9307  0.1548
 6015TIP3    H139604   6.326   3.317   8.000 -1.1800 -1.5797 -0.7775
 6015TIP3    H239605   6.397   3.350   7.871  1.1325  2.4260  1.3304
 6016TIP3   OH239606   1.645   3.605   0.382 -0.3138  0.1299  0.2666
 6016TIP3    H139607   1.646   3.572   0.472 -1.5646  1.1823  0.7043
 6016TIP3    H239608   1.734   3.636   0.367 -0.0407 -0.2176  1.0695
 6017TIP3   OH239609   1.497   2.044   7.109  0.3767 -0.3277 -0.0747
 6017TIP3    H139610   1.413   2.067   7.069 -0.5844 -0.5849  1.6828
 6017TIP3    H239611   1.532   2.127   7.142 -0.4501 -0.5292  1.4186
 6018TIP3   OH239612   6.582   2.977   0.872  0.2365 -0.2030  0.1435
 6018TIP3    H139613   6.491   2.960   0.849  0.6249  0.0274 -1.6375
 6018TIP3    H239614   6.626   2.893   0.861  0.3553 -0.1915  0.4990
 6019TIP3   OH239615   0.931   5.082   8.223  0.0469 -0.4188  0.2262
 6019TIP3    H139616   0.908   5.167   8.262 -0.5682 -0.8718  0.8802
 6019TIP3    H239617   1.000   5.103   8.160 -0.0402  0.5578  0.4298
 6020TIP3   OH239618   3.681   4.024   0.406  0.4109 -0.6430 -0.2409
 6020TIP3    H139619   3.677   3.933   0.437  1.4482 -0.7864 -0.4840
 6020TIP3    H239620   3.772   4.037   0.381  0.9279  1.2793  2.2161
 6021TIP3   OH239621   0.438   4.798   0.514 -0.1124  0.1256  0.1182
 6021TIP3    H139622   0.520   4.848   0.522 -0.0028 -0.0815  0.2966
 6021TIP3    H239623   0.457   4.714   0.556 -0.2854 -0.0835 -0.2114
 6022TIP3   OH239624   5.078   1.631   8.466 -0.9229  0.2821  0.3895
 6022TIP3    H139625   5.154   1.575   8.445  1.1439  2.7553  0.7988
 6022TIP3    H239626   5.037   1.649   8.382  0.5000  0.9299 -0.1937
 6023TIP3   OH239627   4.080   3.385   8.346  0.0333 -0.1960 -0.4432
 6023TIP3    H139628   4.138   3.311   8.330 -1.0580 -0.6648 -2.6495
 6023TIP3    H239629   4.026   3.390   8.267 -0.6547  2.2973  0.1133
 6024TIP3   OH239630   4.973   4.825   2.274 -0.1880  1.4806 -0.0308
 6024TIP3    H139631   4.941   4.860   2.356 -0.3553  0.9290  0.1462
 6024TIP3    H239632   5.068   4.817   2.286 -0.2596  1.0169  0.2660
 6025TIP3   OH239633   0.955   6.278   1.413 -0.2898 -0.2891 -0.4146
 6025TIP3    H139634   0.977   6.327   1.334 -0.0849  0.8469  0.3232
 6025TIP3    H239635   0.861   6.295   1.426 -0.1272  0.2786  0.0750
 6026TIP3   OH239636   2.446   2.572   1.058  0.1516 -0.2280  0.1316
 6026TIP3    H139637   2.455   2.477   1.070  0.5311 -0.1727  0.2762
 6026TIP3    H239638   2.536   2.605   1.055  0.2839 -0.3734 -3.9573
 6027TIP3   OH239639   1.916   6.862   8.487  0.1312  0.4280 -0.2665
 6027TIP3    H139640   1.930   6.784   8.434  0.1940  0.8449 -0.8715
 6027TIP3    H239641   1.963   6.844   8.569 -1.4117 -0.9467  0.3913
 6028TIP3   OH239642   0.174   0.276   8.137 -0.1308 -0.5949 -0.3164
 6028TIP3    H139643   0.109   0.295   8.204  1.1500  1.1827  0.5034
 6028TIP3    H239644   0.253   0.254   8.187  0.5092 -0.4633 -1.2528
 6029TIP3   OH239645   2.686   4.354   1.802  0.0225 -0.6670 -0.1705
 6029TIP3    H139646   2.662   4.445   1.816  0.5584 -0.6159  0.4456
 6029TIP3    H239647   2.605   4.305   1.817 -0.1346 -0.3379  0.0563
 6030TIP3   OH239648   4.696   4.717   1.919  0.1816  0.1066  0.1980
 6030TIP3    H139649   4.705   4.667   2.001  0.5176 -0.5195 -0.2067
 6030TIP3    H239650   4.786   4.740   1.896  0.1917 -0.5381 -0.4750
 6031TIP3   OH239651   1.338   4.634   1.723 -0.1775 -0.6602  0.0300
 6031TIP3    H139652   1.378   4.681   1.797 -0.9891 -1.1177  0.7799
 6031TIP3    H239653   1.344   4.542   1.747 -1.6939 -0.7333  0.1815
 6032TIP3   OH239654   5.808   2.683   0.718  0.2216  0.2767 -0.3335
 6032TIP3    H139655   5.812   2.594   0.683  2.9537 -0.2890  1.0726
 6032TIP3    H239656   5.839   2.674   0.808 -2.0774  2.3125  0.7893
 6033TIP3   OH239657   2.554   5.007   7.344 -0.3722 -0.9299  0.1615
 6033TIP3    H139658   2.469   5.019   7.303  0.4036 -1.1094 -1.5693
 6033TIP3    H239659   2.594   4.934   7.297  0.7374 -0.8710  0.9619
 6034TIP3   OH239660   3.771   1.018   8.631  0.2526  0.0847 -0.3487
 6034TIP3    H139661   3.852   1.020   8.682 -0.3703 -0.1983  0.6833
 6034TIP3    H239662   3.763   0.927   8.602 -0.4951 -0.2931  0.9293
 6035TIP3   OH239663   5.159   3.756   7.458  0.2721 -0.1890  0.0410
 6035TIP3    H139664   5.088   3.799   7.505  0.0627  0.0555 -0.4851
 6035TIP3    H239665   5.196   3.825   7.403 -0.8387 -0.9120 -1.7181
 6036TIP3   OH239666   2.390   1.103   7.534  0.9227  0.2228  0.0711
 6036TIP3    H139667   2.305   1.065   7.558  0.6520  0.7346 -0.0608
 6036TIP3    H239668   2.446   1.028   7.515 -0.4835 -0.1527 -3.3111
 6037TIP3   OH239669   3.412   0.001   0.404 -0.5025  0.3140 -0.6572
 6037TIP3    H139670   3.484   0.016   0.343 -0.0906  0.6848 -0.0952
 6037TIP3    H239671   3.336   0.041   0.363 -0.1429  0.9070 -0.7461
 6038TIP3   OH239672   2.045   5.454   6.694 -0.3597  0.1589  0.2166
 6038TIP3    H139673   2.110   5.512   6.733  0.1403  0.6037 -1.2366
 6038TIP3    H239674   2.086   5.421   6.614 -1.6755 -0.0604 -0.3982
 6039TIP3   OH239675   5.627   4.603   1.135  0.2184 -0.4041  0.6180
 6039TIP3    H139676   5.545   4.610   1.086 -0.3478 -1.0254  1.4424
 6039TIP3    H239677   5.612   4.655   1.214  1.7361  2.0590 -0.5705
 6040TIP3   OH239678   1.138   5.793   7.564 -0.2699 -0.0309 -0.3319
 6040TIP3    H139679   1.090   5.786   7.647 -2.1597 -0.8488 -1.4254
 6040TIP3    H239680   1.215   5.846   7.585 -1.1660  0.5527  1.7322
 6041TIP3   OH239681   0.034   1.481   6.652 -0.0777 -0.3023  0.5974
 6041TIP3    H139682   0.088   1.439   6.585 -1.6839 -1.0307 -0.3207
 6041TIP3    H239683   0.060   1.439   6.734  2.6787  1.3581  0.6912
 6042TIP3   OH239684   6.094   3.344   7.273 -0.0501  0.0844  0.3156
 6042TIP3    H139685   6.150   3.333   7.197 -0.9838 -2.6468 -0.0698
 6042TIP3    H239686   6.139   3.409   7.327  0.5023  2.3371 -2.6117
 6043TIP3   OH239687   2.550   0.181   0.610 -0.8742 -0.2315 -0.3316
 6043TIP3    H139688   2.596   0.263   0.596 -1.0068  0.0005  0.5460
 6043TIP3    H239689   2.614   0.124   0.652 -1.5183  0.2872  1.4450
 6044TIP3   OH239690   5.358   1.511   2.757  0.8002 -0.0118 -0.2789
 6044TIP3    H139691   5.454   1.508   2.753  0.8283 -0.8569  0.5358
 6044TIP3    H239692   5.334   1.585   2.701  1.9236  0.1904 -0.5281
 6045TIP3   OH239693   5.403   2.720   8.065 -0.0066  0.1502  0.7601
 6045TIP3    H139694   5.354   2.775   8.004  0.1394 -3.1970 -2.7531
 6045TIP3    H239695   5.484   2.700   8.019 -0.4479 -3.6448  1.3556
 6046TIP3   OH239696   3.613   3.668   6.723 -0.2661 -0.3008 -0.5655
 6046TIP3    H139697   3.691   3.701   6.679  0.2243  2.0520  1.8258
 6046TIP3    H239698   3.646   3.598   6.779 -0.0548 -0.0310 -0.3499
 6047TIP3   OH239699   6.206   0.945   1.166 -0.2234 -0.2893  0.1597
 6047TIP3    H139700   6.217   0.997   1.246  0.0533 -1.4329  0.8867
 6047TIP3    H239701   6.181   1.009   1.100 -0.1678  0.7321  1.0885
 6048TIP3   OH239702   4.501   5.193   1.975 -0.2178 -0.1017 -0.1123
 6048TIP3    H139703   4.573   5.136   1.945 -0.3161 -0.4465  0.3041
 6048TIP3    H239704   4.503   5.185   2.070 -0.6389  0.0994 -0.0877
 6049TIP3   OH239705   0.291   2.283   6.635 -0.1439  0.3615  0.1634
 6049TIP3    H139706   0.364   2.300   6.695 -0.5187  1.3172  0.3642
 6049TIP3    H239707   0.229   2.232   6.687  0.0193  0.2465  0.2465
 6050TIP3   OH239708   0.487   1.317   1.122  0.4084 -0.0674  0.0134
 6050TIP3    H139709   0.572   1.339   1.084  0.5516  0.3515  0.5761
 6050TIP3    H239710   0.492   1.347   1.212 -1.2967  2.4490 -0.6484
 6051TIP3   OH239711   1.421   5.573   8.616  0.1393  0.2390 -0.0813
 6051TIP3    H139712   1.368   5.627   8.676  1.3394 -0.1185  1.3800
 6051TIP3    H239713   1.482   5.635   8.576 -0.2861  0.3874 -0.5094
 6052TIP3   OH239714   1.655   6.242   0.775  0.2686  0.4645  0.0003
 6052TIP3    H139715   1.566   6.256   0.807  0.6824 -0.3976  1.6325
 6052TIP3    H239716   1.677   6.324   0.730 -0.5496  1.5578  1.5150
 6053TIP3   OH239717   5.956   4.792   8.041 -0.0698 -0.6669  0.0683
 6053TIP3    H139718   5.952   4.748   8.126  0.1956 -3.3844 -1.2118
 6053TIP3    H239719   5.866   4.794   8.011  0.2000 -3.4227 -1.2297
 6054TIP3   OH239720   1.213   6.734   1.554  0.1546 -0.6001 -0.0706
 6054TIP3    H139721   1.165   6.743   1.472  1.6041  0.6171 -0.8484
 6054TIP3    H239722   1.302   6.764   1.533  0.5709 -0.2692  1.9334
 6055TIP3   OH239723   0.569   1.464   7.433  0.2423 -0.0136 -0.2806
 6055TIP3    H139724   0.489   1.413   7.427 -0.1528  0.5158  0.3347
 6055TIP3    H239725   0.587   1.471   7.527  0.1521  1.1615 -0.3308
 6056TIP3   OH239726   6.469   6.857   0.286  0.3764  0.0369 -0.1516
 6056TIP3    H139727   6.561   6.856   0.260  0.4418  0.4888  0.0478
 6056TIP3    H239728   6.422   6.834   0.206  0.6899 -0.7826 -0.1037
 6057TIP3   OH239729   1.038   2.585   2.383  0.1300  0.0727  0.5019
 6057TIP3    H139730   1.126   2.619   2.396 -0.5481  1.6831  1.1834
 6057TIP3    H239731   0.989   2.660   2.348 -0.7307 -1.0769 -0.8724
 6058TIP3   OH239732   6.518   2.938   1.739 -0.0607 -0.0020  0.3606
 6058TIP3    H139733   6.482   2.889   1.813 -1.9429  2.0485  0.9212
 6058TIP3    H239734   6.444   2.947   1.678  1.0891 -0.4860 -1.1573
 6059TIP3   OH239735   2.615   2.350   0.268  0.5411 -0.8795  0.3723
 6059TIP3    H139736   2.637   2.263   0.235 -0.0020 -1.0414  0.4307
 6059TIP3    H239737   2.564   2.391   0.198 -1.9596 -1.7939  1.5245
 6060TIP3   OH239738   2.302   4.778   7.296 -0.4915 -0.1670 -0.6643
 6060TIP3    H139739   2.302   4.837   7.221  3.0952  0.4337 -0.3852
 6060TIP3    H239740   2.295   4.691   7.258  0.1942  0.1785 -1.6145
 6061TIP3   OH239741   5.160   6.085   0.106 -0.2119  1.1703  0.1222
 6061TIP3    H139742   5.076   6.086   0.062 -0.7081 -2.2588  0.7234
 6061TIP3    H239743   5.172   5.994   0.134  2.0045  2.2378  3.2772
 6062TIP3   OH239744   5.087   4.699   0.446  0.4250  0.4670 -0.3673
 6062TIP3    H139745   5.026   4.678   0.517 -0.1219 -0.8208 -1.1773
 6062TIP3    H239746   5.169   4.721   0.490  0.1009 -0.3236  0.6705
 6063TIP3   OH239747   4.218   3.432   0.340  0.1520  0.3247 -0.3401
 6063TIP3    H139748   4.132   3.444   0.300  0.4275  0.7987 -0.8155
 6063TIP3    H239749   4.212   3.349   0.387 -0.7934  0.7043  0.2411
 6064TIP3   OH239750   5.974   3.725   1.056  0.2782 -0.1777  0.2069
 6064TIP3    H139751   5.939   3.738   1.144 -1.4269  0.4761 -0.5349
 6064TIP3    H239752   5.909   3.672   1.011  2.1468 -2.3799 -0.0693
 6065TIP3   OH239753   6.290   2.126   1.708 -0.4085 -0.3352  0.0758
 6065TIP3    H139754   6.216   2.185   1.724  0.9165  1.8161 -1.2363
 6065TIP3    H239755   6.367   2.177   1.730  0.7689 -2.5412  1.4462
 6066TIP3   OH239756   6.601   3.878   8.034  0.5848  0.5591  0.0093
 6066TIP3    H139757   6.572   3.960   7.992  2.3853  0.6858 -1.1249
 6066TIP3    H239758   6.658   3.907   8.105 -0.9779  0.2995  1.4141
 6067TIP3   OH239759   0.267   3.780   1.736 -0.4427 -0.5205 -0.6387
 6067TIP3    H139760   0.344   3.751   1.784  0.0201  0.0755 -1.0001
 6067TIP3    H239761   0.263   3.875   1.752 -1.6254 -0.6800  0.1152
 6068TIP3   OH239762   1.399   0.735   8.166 -0.0096 -0.2724  0.1211
 6068TIP3    H139763   1.404   0.830   8.171 -1.4741 -0.0588 -1.5796
 6068TIP3    H239764   1.400   0.715   8.073 -1.6954 -1.7571  0.3435
 6069TIP3   OH239765   3.694   3.171   1.396  0.3519 -0.0265 -0.7535
 6069TIP3    H139766   3.653   3.208   1.318  1.0665 -0.1854 -1.2131
 6069TIP3    H239767   3.669   3.079   1.394  0.3798 -0.0330 -0.8005
 6070TIP3   OH239768   2.914   5.739   0.372  0.2517  0.6837  0.0255
 6070TIP3    H139769   2.852   5.670   0.345  2.1463 -0.6054 -1.3284
 6070TIP3    H239770   2.892   5.756   0.464 -0.9480 -1.0009  0.1088
 6071TIP3   OH239771   5.786   3.395   1.919  0.0397  0.7579  0.5046
 6071TIP3    H139772   5.789   3.315   1.972  2.4411  1.6454  1.8521
 6071TIP3    H239773   5.732   3.371   1.844 -0.5211 -1.6682  1.5627
 6072TIP3   OH239774   0.130   0.857   1.629 -0.5942 -0.1378 -0.4260
 6072TIP3    H139775   0.039   0.830   1.623 -0.7007  0.2670 -0.6728
 6072TIP3    H239776   0.131   0.922   1.700 -0.2840 -1.0163  0.3877
 6073TIP3   OH239777   0.791   0.509   8.258  0.6591 -0.7202  0.1262
 6073TIP3    H139778   0.751   0.427   8.228 -0.6025 -0.5558  1.2394
 6073TIP3    H239779   0.884   0.500   8.236  0.5617 -2.4810  0.2738
 6074TIP3   OH239780   5.455   3.290   7.148  0.3721 -0.1350 -0.6391
 6074TIP3    H139781   5.487   3.242   7.225  0.9520  0.7825 -0.3011
 6074TIP3    H239782   5.430   3.221   7.086 -1.7785 -0.9584  1.0013
 6075TIP3   OH239783   1.092   4.669   8.676 -0.0471  0.2446  0.1269
 6075TIP3    H139784   1.005   4.634   8.696 -1.0103  1.7568 -1.1940
 6075TIP3    H239785   1.098   4.664   8.581  1.0021  0.8984  0.1476
 6076TIP3   OH239786   0.207   5.457   1.919  0.3986 -0.2754 -0.6403
 6076TIP3    H139787   0.132   5.493   1.965 -1.0059 -2.2259 -1.2572
 6076TIP3    H239788   0.279   5.465   1.982 -0.5985  0.5076  0.4602
 6077TIP3   OH239789   1.938   3.415   0.503  0.0339  0.1720  0.2193
 6077TIP3    H139790   1.981   3.460   0.576 -0.9099  1.4507  0.0212
 6077TIP3    H239791   1.935   3.480   0.433 -1.5359 -0.1134 -0.0171
 6078TIP3   OH239792   3.874   4.589   2.135 -0.2144  1.0418 -0.3197
 6078TIP3    H139793   3.808   4.528   2.169 -1.6028  2.0572 -1.1217
 6078TIP3    H239794   3.944   4.587   2.200 -1.0886  0.0396  0.6265
 6079TIP3   OH239795   2.468   1.217   0.169  0.5139  0.0360  0.2133
 6079TIP3    H139796   2.537   1.262   0.120 -1.5195  1.4021 -1.6182
 6079TIP3    H239797   2.412   1.288   0.200 -0.6543 -1.0765  0.7160
 6080TIP3   OH239798   2.920   2.094   8.338  0.3104 -0.2570 -0.5566
 6080TIP3    H139799   2.905   2.071   8.246  0.5119  1.8274 -1.1688
 6080TIP3    H239800   2.883   2.181   8.347  1.2334  0.0029  1.0738
 6081TIP3   OH239801   5.600   0.210   0.619 -0.0475  0.0993  0.6400
 6081TIP3    H139802   5.679   0.259   0.642 -0.4065  0.8255  0.3297
 6081TIP3    H239803   5.527   0.267   0.644 -0.4675  0.0481 -0.4257
 6082TIP3   OH239804   5.416   0.773   1.046 -0.6203  0.0345 -0.0403
 6082TIP3    H139805   5.460   0.839   0.993  0.8087  0.4972  1.6309
 6082TIP3    H239806   5.384   0.821   1.122 -1.0544 -0.9123  0.3951
 6083TIP3   OH239807   5.424   2.743   0.516 -0.3502  0.4777  0.2661
 6083TIP3    H139808   5.346   2.702   0.480 -1.5896  2.9101 -0.0241
 6083TIP3    H239809   5.494   2.719   0.455 -0.7468 -1.8912  0.6350
 6084TIP3   OH239810   0.865   3.586   7.863 -0.1640  0.0636 -1.2148
 6084TIP3    H139811   0.874   3.681   7.849  1.9462  0.1066  0.0107
 6084TIP3    H239812   0.798   3.579   7.932 -0.6375  0.6235 -1.6063
 6085TIP3   OH239813   6.079   1.769   2.459 -0.0708  0.1991 -0.8189
 6085TIP3    H139814   6.093   1.677   2.481 -0.1162  0.0585 -1.3718
 6085TIP3    H239815   6.007   1.768   2.397  0.0358  0.5953 -0.9484
 6086TIP3   OH239816   6.810   0.291   6.833  0.7632 -0.1432  0.8093
 6086TIP3    H139817   6.827   0.221   6.896  1.4076  1.1874  2.2083
 6086TIP3    H239818   6.725   0.270   6.795  0.8044 -1.5086  1.4225
 6087TIP3   OH239819   4.625   1.231   0.169 -0.8026 -0.3888  0.0031
 6087TIP3    H139820   4.678   1.310   0.171 -0.6100 -0.5216  1.5722
 6087TIP3    H239821   4.535   1.263   0.165 -0.6888 -0.1131 -0.3894
 6088TIP3   OH239822   4.976   3.281   1.881 -0.1325  0.0674 -0.1337
 6088TIP3    H139823   5.019   3.363   1.904 -1.0762  0.3732  0.6026
 6088TIP3    H239824   5.036   3.213   1.912 -0.4467  0.4837  1.4776
 6089TIP3   OH239825   1.037   6.422   1.159  0.3040  0.5811 -0.3988
 6089TIP3    H139826   0.989   6.486   1.107  0.8159  0.2731 -1.2684
 6089TIP3    H239827   1.107   6.472   1.200 -0.1936  0.8542  0.1411
 6090TIP3   OH239828   2.545   6.807   8.334 -0.1366 -0.0112  0.2926
 6090TIP3    H139829   2.467   6.863   8.335 -0.8771 -1.0068  2.4820
 6090TIP3    H239830   2.512   6.718   8.346  1.1582 -0.8391 -1.6102
 6091TIP3   OH239831   3.598   4.904   1.151  0.2725 -0.0608 -0.1487
 6091TIP3    H139832   3.573   4.855   1.230  1.4040 -1.0067 -0.3455
 6091TIP3    H239833   3.517   4.943   1.120 -0.9384 -2.7106 -0.5689
 6092TIP3   OH239834   1.848   6.104   2.654  0.0460 -0.4387  0.0502
 6092TIP3    H139835   1.854   6.062   2.568 -1.1013  0.9591 -0.7613
 6092TIP3    H239836   1.755   6.097   2.678 -0.1813  1.4888 -0.0916
 6093TIP3   OH239837   1.699   0.241   8.127  0.2363  0.3020  0.3900
 6093TIP3    H139838   1.685   0.285   8.210  2.4482  0.2646  0.8399
 6093TIP3    H239839   1.686   0.148   8.147 -1.4574  0.4472  0.1283
 6094TIP3   OH239840   1.208   2.830   2.603  0.4607  0.1779  0.1239
 6094TIP3    H139841   1.256   2.774   2.543  1.8002  0.8307  0.5340
 6094TIP3    H239842   1.251   2.816   2.688 -1.5026 -0.8689  1.0019
 6095TIP3   OH239843   5.173   4.194   7.858 -0.1280  0.3594 -0.1957
 6095TIP3    H139844   5.235   4.141   7.808  0.4229  1.8884 -1.2151
 6095TIP3    H239845   5.223   4.272   7.882 -0.9545  0.5180  1.1326
 6096TIP3   OH239846   0.182   3.219   6.476 -0.2651 -0.6222 -0.0916
 6096TIP3    H139847   0.187   3.307   6.441 -1.8699 -0.0504  0.9688
 6096TIP3    H239848   0.183   3.162   6.399 -0.6068  0.4061 -0.8715
 6097TIP3   OH239849   5.711   0.907   7.433 -0.1325 -0.3248 -0.0626
 6097TIP3    H139850   5.741   0.931   7.346 -0.7696 -0.2589 -0.2715
 6097TIP3    H239851   5.700   0.812   7.429 -0.3995 -0.2907 -0.1285
 6098TIP3   OH239852   4.069   4.246   0.168  0.6093  0.1182 -0.9208
 6098TIP3    H139853   4.011   4.239   0.092  0.8154 -0.8301 -1.0027
 6098TIP3    H239854   4.044   4.172   0.224  1.2362  0.1377 -0.6066
 6099TIP3   OH239855   1.539   6.430   2.032 -0.3901 -0.1033  0.2820
 6099TIP3    H139856   1.547   6.382   2.114 -1.2527 -1.0215 -0.1456
 6099TIP3    H239857   1.446   6.452   2.026 -0.3216  0.0240 -0.4102
 6100TIP3   OH239858   5.485   6.181   7.594  0.1790 -0.1970 -0.3992
 6100TIP3    H139859   5.484   6.086   7.589  0.7858 -0.3758  1.6901
 6100TIP3    H239860   5.533   6.200   7.675  1.6065  1.9374 -1.6362
 6101TIP3   OH239861   5.459   1.891   7.273 -0.4454  0.0162  0.0421
 6101TIP3    H139862   5.474   1.832   7.347  0.7254 -0.0150 -0.1908
 6101TIP3    H239863   5.503   1.848   7.199 -2.1321 -0.2687 -0.8337
 6102TIP3   OH239864   3.117   0.460   0.888  0.2102 -0.5585  0.2766
 6102TIP3    H139865   3.211   0.441   0.893  0.4184  0.0245 -1.1693
 6102TIP3    H239866   3.110   0.538   0.834 -1.1505 -0.8988 -0.0910
 6103TIP3   OH239867   2.462   6.683   7.506 -0.2831  0.0687 -0.3291
 6103TIP3    H139868   2.401   6.628   7.456 -0.3904  1.6561 -2.0883
 6103TIP3    H239869   2.518   6.722   7.439  2.3526 -0.8836  1.1916
 6104TIP3   OH239870   5.382   3.032   0.896  0.2085  0.1814 -0.1973
 6104TIP3    H139871   5.397   2.968   0.826  0.8234  1.9033 -1.7531
 6104TIP3    H239872   5.304   3.079   0.868 -0.0186  0.3548  0.7123
 6105TIP3   OH239873   5.665   2.090   8.016 -0.2109  0.3299 -0.0024
 6105TIP3    H139874   5.746   2.058   7.977 -1.0550 -0.6430 -1.0321
 6105TIP3    H239875   5.661   2.047   8.101 -0.5593 -1.1707 -0.7324
 6106TIP3   OH239876   4.164   3.629   7.976 -0.2878 -0.5441  0.1873
 6106TIP3    H139877   4.130   3.681   8.048 -1.6101 -0.1124 -0.7162
 6106TIP3    H239878   4.259   3.647   7.977 -0.5655  1.0939  0.5278
 6107TIP3   OH239879   4.238   2.283   0.402 -0.2994  0.7573 -0.4047
 6107TIP3    H139880   4.229   2.378   0.388 -1.9967  0.7791  0.5771
 6107TIP3    H239881   4.330   2.272   0.427 -0.1856  2.2192 -0.0363
 6108TIP3   OH239882   4.080   6.478   0.738  0.5370  0.0883 -0.3534
 6108TIP3    H139883   4.135   6.401   0.751  0.4614  0.1717  0.4814
 6108TIP3    H239884   3.996   6.442   0.708  0.5555 -0.1382 -0.1368
 6109TIP3   OH239885   0.601   1.412   6.558  0.4818  0.4287 -0.6271
 6109TIP3    H139886   0.693   1.425   6.580  0.3590 -0.0192  0.1667
 6109TIP3    H239887   0.554   1.470   6.618  0.2025  0.0439 -0.4737
 6110TIP3   OH239888   3.451   1.078   0.662 -0.0645 -0.4866  0.0198
 6110TIP3    H139889   3.446   0.989   0.696  2.7441 -1.3780 -1.5665
 6110TIP3    H239890   3.511   1.123   0.721  2.2981 -1.1363 -1.7017
 6111TIP3   OH239891   2.453   5.511   1.020 -0.2332 -0.3127 -0.5542
 6111TIP3    H139892   2.461   5.458   0.941 -0.7056 -0.9633 -0.1770
 6111TIP3    H239893   2.500   5.591   1.000  0.6897 -0.9611 -1.0693
 6112TIP3   OH239894   3.297   3.943   8.659 -0.2160 -0.0653  0.0299
 6112TIP3    H139895   3.238   3.879   8.701  0.2735 -0.2315  0.4659
 6112TIP3    H239896   3.367   3.957   8.722  0.7459 -0.6159 -0.8652
 6113TIP3   OH239897   2.806   6.825   1.135  0.3240  0.2904 -0.3284
 6113TIP3    H139898   2.800   6.765   1.061  1.2865 -0.5996  0.2790
 6113TIP3    H239899   2.893   6.865   1.127  0.2764  0.4921  0.0878
 6114TIP3   OH239900   5.408   1.687   1.259  0.1913  0.1915 -0.2568
 6114TIP3    H139901   5.343   1.753   1.281 -0.5668 -0.4454 -0.5452
 6114TIP3    H239902   5.404   1.624   1.331  1.8114  1.0815  0.6748
 6115TIP3   OH239903   1.427   2.727   2.127  0.0348 -0.0711 -0.0608
 6115TIP3    H139904   1.409   2.820   2.111  0.3361 -0.2553 -1.6270
 6115TIP3    H239905   1.499   2.706   2.068 -2.3606 -2.1603 -2.5168
 6116TIP3   OH239906   5.208   3.687   8.366 -0.3214  0.1660  0.6833
 6116TIP3    H139907   5.192   3.687   8.271 -0.0780  0.4634  0.6387
 6116TIP3    H239908   5.123   3.665   8.405 -0.4606  0.1966  0.3997
 6117TIP3   OH239909   6.065   5.395   1.566 -0.0822  0.0727  0.5310
 6117TIP3    H139910   6.006   5.319   1.567 -1.4131  1.0579  0.4555
 6117TIP3    H239911   6.152   5.358   1.583  0.2302 -2.1642 -4.2634
 6118TIP3   OH239912   0.825   2.719   8.244 -0.1653  0.2500 -0.4376
 6118TIP3    H139913   0.823   2.806   8.285 -0.4566  0.1742 -0.2853
 6118TIP3    H239914   0.779   2.662   8.306 -0.5340  0.1177 -0.8284
 6119TIP3   OH239915   2.831   1.958   8.106 -0.2161  0.1460 -0.0336
 6119TIP3    H139916   2.778   1.883   8.079  0.7038 -0.8232  0.7630
 6119TIP3    H239917   2.919   1.939   8.074  0.2422  0.4071  1.0261
 6120TIP3   OH239918   5.665   3.992   7.865 -0.4922 -0.0406 -0.5839
 6120TIP3    H139919   5.748   3.945   7.858  0.5652  1.3173  1.6696
 6120TIP3    H239920   5.690   4.084   7.856 -1.9460  0.3305 -1.0205
 6121TIP3   OH239921   5.427   1.573   0.786  0.5691 -0.5083 -0.0135
 6121TIP3    H139922   5.389   1.659   0.802  2.5259  0.0147  2.4251
 6121TIP3    H239923   5.522   1.587   0.789  0.9434 -2.7253  0.4323
 6122TIP3   OH239924   0.725   3.279   7.236  0.0622  0.8098 -0.6315
 6122TIP3    H139925   0.759   3.351   7.184 -0.9498  0.5880 -1.6360
 6122TIP3    H239926   0.634   3.302   7.254 -0.3214 -0.2490 -1.0796
 6123TIP3   OH239927   2.062   0.685   6.967  0.2224 -0.4819  0.1041
 6123TIP3    H139928   2.130   0.622   6.943 -0.9318 -1.9535  0.5762
 6123TIP3    H239929   1.994   0.633   7.009 -0.4131  1.2082  1.2929
 6124TIP3   OH239930   6.302   6.524   0.050 -0.3269 -0.0782 -0.3089
 6124TIP3    H139931   6.319   6.611   0.013  1.4936 -1.2411 -2.4454
 6124TIP3    H239932   6.388   6.482   0.054 -1.4025 -2.5961 -1.5755
 6125TIP3   OH239933   0.199   3.048   8.636 -0.1140  0.0209 -0.5647
 6125TIP3    H139934   0.205   3.136   8.671 -1.3037 -1.3053  3.5118
 6125TIP3    H239935   0.105   3.030   8.632  0.0997 -1.0542 -1.4505
 6126TIP3   OH239936   0.011   2.710   2.798 -0.1958 -0.1176  0.2196
 6126TIP3    H139937  -0.045   2.763   2.855 -1.6757 -2.4695  1.1538
 6126TIP3    H239938  -0.047   2.681   2.728  1.4536  2.2252 -2.2971
 6127TIP3   OH239939   1.156   5.401   8.079 -0.4160  0.2458 -0.1864
 6127TIP3    H139940   1.103   5.476   8.050 -1.5025 -0.2975  0.3320
 6127TIP3    H239941   1.106   5.325   8.049  0.4501 -0.2783 -0.3117
 6128TIP3   OH239942   2.561   2.707   0.111 -0.4748 -0.2212  0.2784
 6128TIP3    H139943   2.499   2.636   0.094 -0.8269  0.0158  0.5723
 6128TIP3    H239944   2.527   2.751   0.188  0.8653 -0.9995  1.3605
 6129TIP3   OH239945   1.078   0.578   7.347  0.9967  0.6547 -0.0795
 6129TIP3    H139946   1.060   0.616   7.261  3.6611  1.4253 -0.3747
 6129TIP3    H239947   1.057   0.648   7.409 -0.7328  0.1645 -0.0369
 6130TIP3   OH239948   0.124   3.231   7.830  0.0035  0.6672 -0.0928
 6130TIP3    H139949   0.143   3.208   7.739  1.0286 -0.2875  0.3408
 6130TIP3    H239950   0.058   3.300   7.824 -0.2010  0.3759 -1.5494
 6131TIP3   OH239951   0.495   6.827   1.943  0.1482  0.7060  0.5794
 6131TIP3    H139952   0.560   6.872   1.998  0.5878  0.5040  0.2303
 6131TIP3    H239953   0.531   6.739   1.931 -0.3055  0.5183  0.5721
 6132TIP3   OH239954   5.785   1.784   0.366  0.3608 -0.1147 -0.1355
 6132TIP3    H139955   5.776   1.878   0.350  2.0503  0.2679  0.9662
 6132TIP3    H239956   5.864   1.776   0.420  0.0426 -2.1398  0.0969
 6133TIP3   OH239957   2.015   4.687   2.487 -0.5351 -0.1813 -0.2787
 6133TIP3    H139958   2.061   4.676   2.571  1.0457 -0.9879 -1.1971
 6133TIP3    H239959   1.953   4.758   2.503 -0.0966 -0.1508  1.5031
 6134TIP3   OH239960   0.121   3.820   2.330  0.8185 -0.2841  0.0022
 6134TIP3    H139961   0.198   3.764   2.320  0.2196 -1.0160 -0.6501
 6134TIP3    H239962   0.079   3.788   2.410 -0.5707 -2.1324 -1.3678
 6135TIP3   OH239963   6.273   5.334   6.731 -0.1683 -0.4293 -0.2141
 6135TIP3    H139964   6.235   5.360   6.647  0.2788 -1.0657 -0.6197
 6135TIP3    H239965   6.242   5.400   6.792 -3.4471 -1.8516 -0.1296
 6136TIP3   OH239966   4.011   4.686   0.852 -0.3056  0.0232  0.6517
 6136TIP3    H139967   3.932   4.639   0.878 -0.4238  0.6283  1.4070
 6136TIP3    H239968   4.010   4.682   0.756 -1.8730  0.9982  0.5911
 6137TIP3   OH239969   1.882   3.959   8.281 -0.0075  0.0015 -0.0860
 6137TIP3    H139970   1.899   3.867   8.264 -1.9150 -0.3934 -0.0343
 6137TIP3    H239971   1.968   3.996   8.301  1.1864 -1.2114 -2.5468
 6138TIP3   OH239972   3.737   2.848   1.287  0.2049 -0.1841 -0.2551
 6138TIP3    H139973   3.761   2.909   1.218 -0.9865 -0.2481 -0.7351
 6138TIP3    H239974   3.654   2.811   1.259 -0.6615  0.2939  1.5221
 6139TIP3   OH239975   6.857   5.083   0.877 -0.6608 -0.2456 -0.1353
 6139TIP3    H139976   6.905   5.010   0.838  0.3544  0.0538  0.4960
 6139TIP3    H239977   6.773   5.084   0.832  0.1095 -0.4914 -1.6258
 6140TIP3   OH239978   5.031   4.417   0.378  0.2981  0.7583  0.2318
 6140TIP3    H139979   4.950   4.426   0.429 -0.8771  0.7818 -1.5424
 6140TIP3    H239980   5.080   4.496   0.397 -0.4010  1.0662  0.8180
 6141TIP3   OH239981   3.096   5.345   0.605  1.0674  0.0872 -0.4023
 6141TIP3    H139982   3.174   5.367   0.554  0.8342 -0.2566 -0.9213
 6141TIP3    H239983   3.096   5.249   0.608  0.0560  0.0233 -1.4141
 6142TIP3   OH239984   5.609   6.853   1.697 -0.4804 -0.1256  0.2037
 6142TIP3    H139985   5.576   6.941   1.677  1.4961  0.7648  0.6015
 6142TIP3    H239986   5.586   6.840   1.789 -0.2815  0.2171  0.3040
 6143TIP3   OH239987   3.065   4.624   2.282  0.1774 -0.3092  0.2927
 6143TIP3    H139988   3.094   4.670   2.361 -1.4332 -0.5726  1.0882
 6143TIP3    H239989   2.970   4.639   2.280 -0.2412 -2.6858 -0.0088
 6144TIP3   OH239990   2.480   3.683   7.973 -0.2516  0.3907 -0.0827
 6144TIP3    H139991   2.444   3.673   8.061  0.6861  1.7221  0.4808
 6144TIP3    H239992   2.404   3.706   7.919 -0.8253 -0.4016  0.3624
 6145TIP3   OH239993   3.243   0.372   7.544  0.0246 -0.8609  0.1427
 6145TIP3    H139994   3.321   0.422   7.565 -0.6100  1.9664 -3.3764
 6145TIP3    H239995   3.275   0.287   7.516  1.6755 -0.2881  0.2142
 6146TIP3   OH239996   0.292   2.188   1.446  0.0834  0.5591 -0.0915
 6146TIP3    H139997   0.309   2.097   1.470 -1.4858 -0.4702 -2.4835
 6146TIP3    H239998   0.221   2.215   1.505  0.5958  0.2712  0.6747
 6147TIP3   OH239999   0.403   0.048   8.034  0.0810  0.0905  0.0134
 6147TIP3    H140000   0.422   0.142   8.035  3.2214 -0.3771 -1.7446
 6147TIP3    H240001   0.431   0.018   7.948 -1.2769 -2.4085  0.3432
 6148TIP3   OH240002   2.715   0.656   1.161 -0.2775  0.4075  0.4212
 6148TIP3    H140003   2.663   0.646   1.082 -0.3357 -0.8145  0.5941
 6148TIP3    H240004   2.771   0.578   1.163 -0.5087  0.2567  1.7451
 6149TIP3   OH240005   5.398   4.777   0.831  0.4363 -0.4571  0.0747
 6149TIP3    H140006   5.458   4.706   0.808  0.8515 -0.0884  0.0138
 6149TIP3    H240007   5.452   4.855   0.830 -0.4797  0.2307 -2.1474
 6150TIP3   OH240008   4.276   4.726   8.299  0.0400 -0.0085 -0.0209
 6150TIP3    H140009   4.202   4.776   8.335 -1.6264 -0.9225 -1.9153
 6150TIP3    H240010   4.234   4.661   8.242  2.3625 -0.1403 -1.6988
 6151TIP3   OH240011   2.844   6.097   2.134  0.7719  0.0753 -0.1036
 6151TIP3    H140012   2.927   6.143   2.117  1.6521 -1.8692 -1.4253
 6151TIP3    H240013   2.848   6.075   2.227  1.4052  0.6302  0.0094
 6152TIP3   OH240014   5.653   0.259   7.017  0.3474  0.5072  0.2541
 6152TIP3    H140015   5.718   0.191   7.001  0.6954  0.6398  1.0312
 6152TIP3    H240016   5.624   0.286   6.930 -0.1288 -0.9473 -0.0702
 6153TIP3   OH240017   3.988   3.499   6.987  0.2305  0.3776 -0.0085
 6153TIP3    H140018   4.028   3.576   6.947 -0.9325  1.0084  0.0092
 6153TIP3    H240019   3.947   3.452   6.913 -0.5034  0.6765  0.1969
 6154TIP3   OH240020   2.538   0.764   7.821 -0.7534 -0.3688  0.2434
 6154TIP3    H140021   2.600   0.694   7.840  0.7969  0.8191 -0.2763
 6154TIP3    H240022   2.484   0.730   7.750  1.8073 -0.0583 -1.9671
 6155TIP3   OH240023   0.936   2.151   1.163  0.3996 -0.1143 -0.4849
 6155TIP3    H140024   0.846   2.134   1.136  0.5827 -1.8441 -0.1161
 6155TIP3    H240025   0.979   2.182   1.083 -0.3430  0.0040 -0.8479
 6156TIP3   OH240026   1.730   6.655   6.990 -0.5817 -0.3821 -0.3885
 6156TIP3    H140027   1.777   6.610   6.920 -1.5410 -0.4956 -0.9771
 6156TIP3    H240028   1.653   6.601   7.006 -1.9832  1.2243 -1.3891
 6157TIP3   OH240029   3.448   2.287   8.583 -0.3208 -0.0129  0.1521
 6157TIP3    H140030   3.420   2.282   8.492 -0.4443 -1.8912  0.2699
 6157TIP3    H240031   3.367   2.293   8.633 -0.2816  0.1738  0.1957
 6158TIP3   OH240032   5.575   1.030   6.998  0.4847  0.0951  0.7892
 6158TIP3    H140033   5.640   1.100   6.994 -0.0790  0.6843  1.4648
 6158TIP3    H240034   5.615   0.962   7.052  0.8533  0.1000  0.5244
 6159TIP3   OH240035   4.795   6.377   1.034  0.1589  0.2854 -0.3492
 6159TIP3    H140036   4.849   6.329   0.971 -0.7204  1.0739 -1.7699
 6159TIP3    H240037   4.705   6.356   1.008 -0.2955 -0.8713  1.8431
 6160TIP3   OH240038   0.968   0.557   6.347  0.1652  0.1249 -0.2112
 6160TIP3    H140039   0.986   0.577   6.255 -1.9022  0.9169 -0.5087
 6160TIP3    H240040   0.960   0.643   6.389 -2.3319 -0.0903 -0.0910
 6161TIP3   OH240041   1.479   6.614   0.720 -0.0501 -0.2924 -0.0996
 6161TIP3    H140042   1.415   6.599   0.790 -0.8421 -1.3014 -1.0065
 6161TIP3    H240043   1.426   6.643   0.645  0.0218 -4.1119 -1.8735
 6162TIP3   OH240044   2.884   1.076   1.252  0.2595  0.3744  0.0983
 6162TIP3    H140045   2.972   1.097   1.220  0.9735 -3.3638 -0.7614
 6162TIP3    H240046   2.833   1.058   1.173 -0.8634  0.8781  0.6827
 6163TIP3   OH240047   0.518   4.324   0.759  0.0886  0.1100 -0.5343
 6163TIP3    H140048   0.439   4.271   0.759 -0.4608  0.5289 -4.9687
 6163TIP3    H240049   0.581   4.274   0.708  2.0252  0.7628  1.0644
 6164TIP3   OH240050   0.137   2.150   6.793 -0.0071  0.4606  0.2471
 6164TIP3    H140051   0.135   2.240   6.823 -0.5099  1.0344 -1.3605
 6164TIP3    H240052   0.048   2.117   6.807  0.9303 -0.9816  3.9602
 6165TIP3   OH240053   3.200   6.223   0.095 -0.3190 -0.1605 -0.1360
 6165TIP3    H140054   3.109   6.205   0.118  0.1061 -0.7262  1.2123
 6165TIP3    H240055   3.251   6.164   0.151  0.8785  0.2496 -0.7643
 6166TIP3   OH240056   5.170   1.951   7.781 -0.2612 -0.0259  0.3581
 6166TIP3    H140057   5.128   1.971   7.697 -0.4657  0.1094  0.4900
 6166TIP3    H240058   5.235   2.020   7.793  0.1003 -0.3147  0.0869
 6167TIP3   OH240059   1.792   1.468   6.404  0.2537 -0.0859 -0.3182
 6167TIP3    H140060   1.783   1.542   6.464  0.6329 -1.4275  1.5297
 6167TIP3    H240061   1.810   1.507   6.319  1.0259  1.9138  0.6970
 6168TIP3   OH240062   5.347   5.515   8.250 -0.0955 -0.5658 -0.6109
 6168TIP3    H140063   5.326   5.481   8.163 -1.2202 -0.7500 -0.2816
 6168TIP3    H240064   5.367   5.437   8.301 -1.3090 -0.6501 -0.2224
 6169TIP3   OH240065   5.801   3.534   2.588 -0.2874 -0.1842  0.1494
 6169TIP3    H140066   5.893   3.544   2.611 -0.4032 -1.9633  1.5809
 6169TIP3    H240067   5.794   3.444   2.556 -1.4300  0.1345 -0.5532
 6170TIP3   OH240068   4.456   5.808   8.569  0.5401 -0.0756 -0.4417
 6170TIP3    H140069   4.511   5.785   8.494 -2.3431 -3.7678 -1.7719
 6170TIP3    H240070   4.425   5.896   8.551  4.1712  1.3177 -0.6448
 6171TIP3   OH240071   3.248   2.980   0.062  0.2501 -0.3597 -0.3323
 6171TIP3    H140072   3.253   3.050   0.127  1.5340  0.4521 -1.2653
 6171TIP3    H240073   3.253   2.899   0.114 -1.1500  0.2082  0.7478
 6172TIP3   OH240074   3.283   0.199   0.835  0.5056 -0.2964 -0.4321
 6172TIP3    H140075   3.364   0.174   0.790  0.0935  0.3578 -1.5880
 6172TIP3    H240076   3.302   0.187   0.928  1.4712 -1.4691 -0.7497
 6173TIP3   OH240077   1.181   2.326   8.533 -0.4290  0.5820 -0.2838
 6173TIP3    H140078   1.164   2.414   8.498 -0.0159  1.0965  0.7498
 6173TIP3    H240079   1.103   2.305   8.583 -0.0754  0.8682  0.4154
 6174TIP3   OH240080   6.215   3.090   7.222  0.6759  0.2065  0.0616
 6174TIP3    H140081   6.251   3.082   7.133  1.8109  1.5674  0.3530
 6174TIP3    H240082   6.121   3.082   7.211  0.9664 -3.0425 -0.8026
 6175TIP3   OH240083   6.655   5.154   0.164  0.2028  0.0471 -0.0497
 6175TIP3    H140084   6.609   5.225   0.209 -2.6853  0.1627 -2.8085
 6175TIP3    H240085   6.598   5.078   0.174  0.4520 -0.4027 -1.7962
 6176TIP3   OH240086   2.338   4.635   0.698  0.1717 -0.6401 -0.7748
 6176TIP3    H140087   2.316   4.698   0.767  0.7397 -0.2607 -0.9254
 6176TIP3    H240088   2.314   4.680   0.617  1.3732 -0.2485 -0.9362
 6177TIP3   OH240089   6.338   2.209   0.377  0.6141  0.0586 -0.5179
 6177TIP3    H140090   6.354   2.247   0.463  0.1801 -2.0892  0.5888
 6177TIP3    H240091   6.266   2.147   0.391 -1.4462  1.6525 -3.0524
 6178TIP3   OH240092   6.668   4.152   0.217 -0.1812  0.2711 -0.2672
 6178TIP3    H140093   6.682   4.099   0.139 -1.6724 -0.1199 -0.2843
 6178TIP3    H240094   6.731   4.224   0.208  1.4128 -1.1046 -0.5656
 6179TIP3   OH240095   2.129   5.536   8.054  0.3128 -0.1553 -0.4690
 6179TIP3    H140096   2.185   5.511   8.128  0.1691  2.1220  0.4724
 6179TIP3    H240097   2.189   5.545   7.980  1.4754  3.1424  0.7254
 6180TIP3   OH240098   4.820   4.069   0.574  0.1489  0.2232 -0.8638
 6180TIP3    H140099   4.735   4.027   0.560  0.3979 -0.8399  0.5111
 6180TIP3    H240100   4.884   4.002   0.548  0.5542 -0.2482  1.1672
 6181TIP3   OH240101   1.533   1.392   0.096 -0.4590 -0.3128  0.4285
 6181TIP3    H140102   1.605   1.329   0.087  0.4606  0.8661 -0.9096
 6181TIP3    H240103   1.479   1.378   0.018  1.5169  2.5820 -1.7049
 6182TIP3   OH240104   2.242   1.114   0.438  0.4978 -0.1870 -0.2539
 6182TIP3    H140105   2.250   1.058   0.362 -0.0165  0.8512 -1.1043
 6182TIP3    H240106   2.220   1.200   0.402 -0.3057  0.1981  1.0849
 6183TIP3   OH240107   3.854   3.960   8.116 -0.0232 -0.3173 -0.1932
 6183TIP3    H140108   3.925   3.995   8.170  0.8146 -1.2189 -0.6696
 6183TIP3    H240109   3.871   3.994   8.028 -1.7465  1.6775  0.1663
 6184TIP3   OH240110   6.378   4.031   8.622 -0.2708  0.3859 -0.3435
 6184TIP3    H140111   6.365   4.126   8.619  1.4671  0.7347  1.4637
 6184TIP3    H240112   6.455   4.016   8.568 -0.6206 -0.0392 -0.7347
 6185TIP3   OH240113   1.329   4.957   7.975  0.0915  0.2612  0.1621
 6185TIP3    H140114   1.380   4.953   7.894 -0.7870  0.8104 -0.4408
 6185TIP3    H240115   1.284   4.873   7.979 -0.2443  0.4173 -0.1930
 6186TIP3   OH240116   6.211   3.908   0.221 -0.2083 -0.1764 -0.0947
 6186TIP3    H140117   6.139   3.962   0.190 -0.9967 -0.4214  1.2487
 6186TIP3    H240118   6.288   3.964   0.213 -0.5892  0.2244 -1.1588
 6187TIP3   OH240119   2.300   6.702   0.627 -0.0817  0.0227 -0.4077
 6187TIP3    H140120   2.364   6.666   0.689 -1.4338  0.4642  1.3047
 6187TIP3    H240121   2.345   6.698   0.542  1.0733 -2.5333  0.2178
 6188TIP3   OH240122   0.780   1.014   0.067  0.3375  0.0960  0.4696
 6188TIP3    H140123   0.821   0.941   0.113 -1.6922 -1.3327  0.1598
 6188TIP3    H240124   0.848   1.080   0.061  1.8929 -1.2917  1.8513
 6189TIP3   OH240125   2.987   1.089   7.485  0.4763  0.0709  0.0790
 6189TIP3    H140126   3.051   1.098   7.415 -0.6239 -2.5305 -1.4146
 6189TIP3    H240127   3.031   1.035   7.551  0.6709  0.4079  0.2245
 6190TIP3   OH240128   3.363   1.677   7.134 -0.6960  0.3553  0.1295
 6190TIP3    H140129   3.276   1.680   7.172 -0.8376 -0.8734 -0.0593
 6190TIP3    H240130   3.379   1.584   7.117  1.4997  0.2735  2.1596
 6191TIP3   OH240131   6.714   0.320   0.391 -0.2865  0.1735 -0.1912
 6191TIP3    H140132   6.624   0.307   0.422 -0.6688  1.0224 -0.9073
 6191TIP3    H240133   6.730   0.244   0.335 -0.7902  0.3243 -0.5528
 6192TIP3   OH240134   3.955   0.696   8.373 -0.0010  0.3085 -0.0841
 6192TIP3    H140135   3.998   0.782   8.366 -0.4164  0.5368  0.1151
 6192TIP3    H240136   3.861   0.716   8.365 -0.2049  0.0386  1.3655
 6193TIP3   OH240137   3.527   3.771   0.715 -0.4641  0.3130 -0.0537
 6193TIP3    H140138   3.620   3.753   0.730 -0.8434 -2.0529 -0.0452
 6193TIP3    H240139   3.522   3.865   0.701  1.7171  0.7190  1.4334
 6194TIP3   OH240140   1.598   4.269   8.126 -0.1060  0.2864  0.4656
 6194TIP3    H140141   1.515   4.287   8.081  0.8427 -0.3584 -1.6971
 6194TIP3    H240142   1.585   4.302   8.215 -2.0810  1.7558 -0.2891
 6195TIP3   OH240143   5.555   0.922   8.084 -0.1615  0.6309  0.0344
 6195TIP3    H140144   5.639   0.905   8.042 -0.3912  1.4349 -0.7695
 6195TIP3    H240145   5.561   0.878   8.169  0.1098 -1.5253 -1.0368
 6196TIP3   OH240146   6.018   4.294   0.248 -0.3429  0.8461  0.0898
 6196TIP3    H140147   5.933   4.252   0.260 -0.5707  0.8635 -1.3032
 6196TIP3    H240148   6.007   4.382   0.283 -1.0860  1.0426 -0.6155
 6197TIP3   OH240149   3.577   3.817   8.623 -0.1258  0.0726 -0.4721
 6197TIP3    H140150   3.633   3.771   8.686 -1.1448 -0.2003  0.2566
 6197TIP3    H240151   3.488   3.802   8.654 -0.5182  3.7105  0.6530
 6198TIP3   OH240152   6.110   2.049   2.492  0.0640  0.0199 -0.0408
 6198TIP3    H140153   6.199   2.045   2.457 -0.9023 -1.5328 -2.5960
 6198TIP3    H240154   6.087   1.958   2.510 -0.8512  0.4461  1.0277
 6199TIP3   OH240155   0.851   2.214   8.406 -0.0006 -0.0077 -0.2115
 6199TIP3    H140156   0.919   2.157   8.442  0.1214  1.4216  1.9218
 6199TIP3    H240157   0.898   2.273   8.348  0.1795 -0.6247 -0.7138
 6200TIP3   OH240158   6.744   0.703   0.063 -0.1733 -0.0384  0.4854
 6200TIP3    H140159   6.715   0.775   0.007  2.5830  1.4544  0.7661
 6200TIP3    H240160   6.816   0.662   0.015  0.4971 -0.4183  1.7466
 6201TIP3   OH240161   0.934   3.029   1.400  0.2946 -0.1950  0.2850
 6201TIP3    H140162   0.872   2.995   1.465  1.2051 -1.2680  0.6110
 6201TIP3    H240163   0.979   3.100   1.445  0.9859 -0.9943  0.8784
 6202TIP3   OH240164   2.430   6.401   8.590  0.4983 -0.4243 -0.3236
 6202TIP3    H140165   2.421   6.322   8.644  0.1361  1.1511  2.1186
 6202TIP3    H240166   2.430   6.369   8.500 -0.6716 -3.1090  0.5077
 6203TIP3   OH240167   4.368   4.401   7.930 -0.0716  0.1042  0.1686
 6203TIP3    H140168   4.461   4.425   7.928  0.4549 -1.6930 -2.1225
 6203TIP3    H240169   4.356   4.347   7.852 -3.5112  1.8060 -0.6764
 6204TIP3   OH240170   4.341   2.553   8.677  0.0078 -0.0514  0.1690
 6204TIP3    H140171   4.331   2.647   8.664  1.8771  0.1885  0.2374
 6204TIP3    H240172   4.374   2.520   8.593  0.9627 -0.3522  0.6419
 6205TIP3   OH240173   6.422   4.968   0.232 -0.1889 -0.6030 -0.0304
 6205TIP3    H140174   6.364   4.903   0.192  0.3175 -1.7407  1.0009
 6205TIP3    H240175   6.453   4.926   0.312  1.4793  0.2649 -0.1740
 6206TIP3   OH240176   0.653   2.935   2.561 -0.5162 -0.1810  0.2199
 6206TIP3    H140177   0.656   2.975   2.474 -0.0329 -0.2784  0.1888
 6206TIP3    H240178   0.745   2.930   2.589 -0.4369 -2.3195 -0.2581
 6207TIP3   OH240179   3.894   1.919   6.938  0.4358  0.0945  0.1137
 6207TIP3    H140180   3.965   1.954   6.883  1.3442 -0.1515  1.1001
 6207TIP3    H240181   3.939   1.885   7.016 -0.9799  2.9377  2.3530
 6208TIP3   OH240182   1.249   3.973   2.614 -0.3414 -0.4944  0.3611
 6208TIP3    H140183   1.213   3.928   2.537 -1.3312 -0.4865  0.7947
 6208TIP3    H240184   1.311   3.910   2.652  1.2260  0.0358 -1.2040
 6209TIP3   OH240185   1.862   5.813   8.312  0.6069 -0.5470  0.5532
 6209TIP3    H140186   1.770   5.808   8.339  0.6591 -0.3558  0.7631
 6209TIP3    H240187   1.878   5.729   8.268  0.3210 -0.5641  0.4770
 6210TIP3   OH240188   6.164   4.461   0.045 -0.3750 -0.0542 -0.7859
 6210TIP3    H140189   6.106   4.427   0.112 -1.1513  0.8507 -0.9792
 6210TIP3    H240190   6.201   4.541   0.083 -0.5782  0.2935 -1.3095
 6211TIP3   OH240191   1.735   1.179   0.406  0.6108 -0.0966 -0.3595
 6211TIP3    H140192   1.812   1.144   0.361  1.9573  1.0410  0.9295
 6211TIP3    H240193   1.747   1.153   0.498  0.3967  1.5690  0.1780
 6212TIP3   OH240194   6.795   1.740   1.976 -0.1382  0.3233 -0.1652
 6212TIP3    H140195   6.768   1.775   2.061  0.4268 -0.6169  0.4316
 6212TIP3    H240196   6.887   1.764   1.968 -0.1310  0.2211 -0.4119
 6213TIP3   OH240197   3.059   6.050   1.701 -0.2782  0.0950 -0.2106
 6213TIP3    H140198   3.008   5.968   1.704  0.3088 -0.2758 -0.2065
 6213TIP3    H240199   3.064   6.071   1.607  2.0055 -1.4482 -0.5162
 6214TIP3   OH240200   3.189   3.577   1.564 -0.2022 -0.9776  0.0618
 6214TIP3    H140201   3.155   3.488   1.565 -0.0078 -1.1025 -1.4164
 6214TIP3    H240202   3.115   3.630   1.535 -0.7625 -0.4075  2.3786
 6215TIP3   OH240203   6.096   5.582   7.780 -0.1330 -0.4008 -0.0183
 6215TIP3    H140204   6.172   5.552   7.830 -0.4524 -2.2191 -0.5340
 6215TIP3    H240205   6.132   5.646   7.718  0.8668 -0.7415  0.1889
 6216TIP3   OH240206   4.981   5.218   1.363 -0.2516 -0.2569  0.2176
 6216TIP3    H140207   4.889   5.242   1.368 -0.2942 -0.4775  0.5064
 6216TIP3    H240208   5.028   5.296   1.393 -0.2954  0.2285 -0.9362
 6217TIP3   OH240209   1.297   5.017   1.228 -0.7592  0.4616  0.5137
 6217TIP3    H140210   1.257   5.041   1.311 -1.0992 -0.1132  0.5225
 6217TIP3    H240211   1.223   4.993   1.172 -0.4237 -0.9561  0.6406
 6218TIP3   OH240212   2.569   0.221   1.784  0.3149  0.5409  0.5560
 6218TIP3    H140213   2.634   0.225   1.715 -0.7596 -2.4294 -0.7946
 6218TIP3    H240214   2.516   0.300   1.772  1.5712  1.2475 -0.4983
 6219TIP3   OH240215   6.441   4.608   8.180  0.0292 -0.5900 -0.4480
 6219TIP3    H140216   6.535   4.623   8.192  0.1591 -0.0580 -1.9096
 6219TIP3    H240217   6.406   4.695   8.161 -1.0455 -0.5238  1.5231
 6220TIP3   OH240218   2.757   1.257   2.495 -0.7483  0.6902  0.3626
 6220TIP3    H140219   2.835   1.276   2.548  0.1815 -0.7657 -0.4323
 6220TIP3    H240220   2.697   1.214   2.556 -0.7139  1.2852  0.8352
 6221TIP3   OH240221   5.466   0.586   7.878  0.4747  0.1265  0.6943
 6221TIP3    H140222   5.527   0.584   7.805 -0.8945 -0.5753 -0.4692
 6221TIP3    H240223   5.380   0.576   7.838 -0.6161  2.8879  2.0789
 6222TIP3   OH240224   5.939   2.184   0.526 -0.2578  0.5946 -0.0366
 6222TIP3    H140225   5.868   2.124   0.503  0.5823  0.2700 -2.0009
 6222TIP3    H240226   6.013   2.154   0.473  0.7109  2.2605  0.3174
 6223TIP3   OH240227   5.530   2.339   7.685  0.4893  0.7803  0.1241
 6223TIP3    H140228   5.445   2.372   7.655  0.5450  0.6947 -0.1358
 6223TIP3    H240229   5.531   2.247   7.658  0.0149  0.3341  1.5414
 6224TIP3   OH240230   2.124   1.490   7.007  0.0826  0.4106 -0.6357
 6224TIP3    H140231   2.123   1.559   7.073  1.1989  1.2525 -1.4576
 6224TIP3    H240232   2.086   1.414   7.051  0.4771  1.0434  0.8521
 6225TIP3   OH240233   3.234   2.245   0.225  0.2788  0.5124 -0.1768
 6225TIP3    H140234   3.307   2.300   0.198  0.7952  0.7549  1.6034
 6225TIP3    H240235   3.157   2.289   0.190  0.8322  1.3424 -0.3848
 6226TIP3   OH240236   6.468   0.231   0.459 -0.1657 -0.9384  0.4617
 6226TIP3    H140237   6.466   0.150   0.408 -1.6002 -0.3911 -0.4297
 6226TIP3    H240238   6.378   0.240   0.491  0.3391 -0.4379  1.7670
 6227TIP3   OH240239   5.811   0.883   7.915  0.4345 -0.1883 -0.0665
 6227TIP3    H140240   5.790   0.827   7.840  1.7109 -2.1501  0.9475
 6227TIP3    H240241   5.890   0.930   7.887  0.1982  0.0169 -0.3960
 6228TIP3   OH240242   6.512   1.257   1.271  0.1792  0.5950 -0.4838
 6228TIP3    H140243   6.601   1.257   1.237 -0.7944 -0.0361 -3.2468
 6228TIP3    H240244   6.498   1.347   1.300  0.9195  1.3621 -2.3507
 6229TIP3   OH240245   5.913   3.802   0.212  0.1119 -0.3323  0.2661
 6229TIP3    H140246   5.999   3.777   0.245  0.3058 -1.1268 -0.7787
 6229TIP3    H240247   5.916   3.898   0.209  1.5780 -0.3582 -1.2169
 6230TIP3   OH240248   2.432   5.099   1.920 -0.0800 -0.4283  0.6528
 6230TIP3    H140249   2.376   5.135   1.989  0.3416  0.6457  0.4576
 6230TIP3    H240250   2.428   5.164   1.850 -0.0925 -1.2607 -0.1384
 6231TIP3   OH240251   2.907   3.452   2.001  0.2502 -0.0534 -0.0542
 6231TIP3    H140252   2.911   3.536   2.047 -3.4187 -0.1057  0.6759
 6231TIP3    H240253   2.903   3.475   1.909 -0.0398  0.5519  0.1032
 6232TIP3   OH240254   2.636   4.347   8.196  0.4660  0.0875  0.2249
 6232TIP3    H140255   2.577   4.391   8.135  0.1913 -1.1555 -0.4530
 6232TIP3    H240256   2.587   4.342   8.278  0.8635  1.8258  0.5970
 6233TIP3   OH240257   5.793   2.451   0.301  0.0234 -0.4407 -0.2450
 6233TIP3    H140258   5.716   2.434   0.355  0.0784  1.1971  0.4052
 6233TIP3    H240259   5.766   2.427   0.212 -0.6755 -1.4257  0.2203
 6234TIP3   OH240260   6.295   6.806   7.525  0.5861 -0.2312 -0.2156
 6234TIP3    H140261   6.297   6.723   7.574  0.7277  0.0429  0.2543
 6234TIP3    H240262   6.382   6.812   7.486  0.6056 -0.2582 -0.1763
 6235TIP3   OH240263   4.673   1.518   1.456 -0.1044  0.5097 -0.0287
 6235TIP3    H140264   4.743   1.478   1.508 -1.1160  1.7120  2.4337
 6235TIP3    H240265   4.625   1.444   1.420  1.1125 -0.3658  0.0926
 6236TIP3   OH240266   2.562   1.759   2.151 -0.0189  0.7523 -0.0879
 6236TIP3    H140267   2.628   1.744   2.218 -1.8397 -0.8588  1.4777
 6236TIP3    H240268   2.610   1.795   2.077  2.3518  0.9546  1.4634
 6237TIP3   OH240269   2.244   5.262   7.029 -0.4007  0.5603 -0.4738
 6237TIP3    H140270   2.206   5.277   7.116  0.5896  0.6010 -0.0423
 6237TIP3    H240271   2.299   5.339   7.013  2.9531 -1.3928  0.7938
 6238TIP3   OH240272   2.757   3.601   7.401  0.0322  0.4588  0.1776
 6238TIP3    H140273   2.827   3.586   7.336 -0.2290 -0.1242  0.0228
 6238TIP3    H240274   2.738   3.694   7.394  0.0106  0.4064 -0.5872
 6239TIP3   OH240275   3.823   4.985   0.645  0.1253 -0.1558  0.1579
 6239TIP3    H140276   3.791   4.917   0.704 -1.9330  2.2064  1.9688
 6239TIP3    H240277   3.866   5.048   0.702  0.2059  1.0397 -1.1694
 6240TIP3   OH240278   4.606   6.114   0.076 -0.1640 -0.4909  0.2567
 6240TIP3    H140279   4.662   6.182   0.114  0.1765 -1.3428  1.3294
 6240TIP3    H240280   4.661   6.035   0.078 -0.0242 -0.5251 -2.3030
 6241TIP3   OH240281   2.202   3.482   1.126 -0.7299 -0.2640 -0.3352
 6241TIP3    H140282   2.220   3.536   1.203  0.1266 -1.8720  0.6258
 6241TIP3    H240283   2.140   3.535   1.075 -0.7451  1.1613  1.0630
 6242TIP3   OH240284   4.796   6.340   7.789 -1.0919 -0.4066 -0.5603
 6242TIP3    H140285   4.721   6.382   7.831 -0.8423  0.8272 -1.3197
 6242TIP3    H240286   4.861   6.331   7.858 -1.8984 -1.4532  0.1008
 6243TIP3   OH240287   3.122   3.783   0.065 -0.4434 -0.3192 -0.2317
 6243TIP3    H140288   3.114   3.692   0.093 -0.7923  0.1729  1.3419
 6243TIP3    H240289   3.038   3.823   0.086 -0.0473  0.5423 -0.2396
 6244TIP3   OH240290   5.153   4.974   1.368 -0.3963  0.2598 -0.2230
 6244TIP3    H140291   5.128   5.062   1.341  2.1772  0.9443 -0.6184
 6244TIP3    H240292   5.210   4.942   1.297  1.4038 -0.3747  1.4183
 6245TIP3   OH240293   6.544   3.896   0.588 -0.3145 -0.1695  0.4394
 6245TIP3    H140294   6.500   3.978   0.607 -1.3478 -0.2601 -1.3126
 6245TIP3    H240295   6.632   3.922   0.559  0.4913  0.0748  2.8773
 6246TIP3   OH240296   5.345   4.926   0.015 -0.0322 -0.0831 -0.0442
 6246TIP3    H140297   5.311   5.009   0.050  1.0548  0.3790 -0.0357
 6246TIP3    H240298   5.345   4.867   0.090  3.8026  1.3583  1.3365
 6247TIP3   OH240299   3.787   0.887   8.227 -0.1333  0.2020 -0.1826
 6247TIP3    H140300   3.726   0.876   8.300  1.3470  2.0501  1.4390
 6247TIP3    H240301   3.740   0.942   8.165 -0.4091  1.0765  0.7575
 6248TIP3   OH240302   4.865   3.777   1.949  0.1601 -0.0912  0.9317
 6248TIP3    H140303   4.945   3.724   1.947  0.0588 -0.2615 -1.2934
 6248TIP3    H240304   4.880   3.841   2.019  1.3410 -1.4260  1.9579
 6249TIP3   OH240305   5.298   3.663   2.420  0.1770 -0.6668 -0.4311
 6249TIP3    H140306   5.289   3.726   2.492  1.7918 -2.1284  1.1528
 6249TIP3    H240307   5.348   3.710   2.354 -1.5182  0.7816 -0.7634
 6250TIP3   OH240308   1.618   4.446   8.363 -0.6648 -0.2754  0.1988
 6250TIP3    H140309   1.641   4.537   8.345  0.4120 -0.1425  2.0341
 6250TIP3    H240310   1.677   4.419   8.433  0.2151 -2.9356 -1.4029
 6251TIP3   OH240311   3.673   1.708   0.372 -0.3174  0.4169  0.4510
 6251TIP3    H140312   3.624   1.727   0.452  1.6799  0.3176  1.7538
 6251TIP3    H240313   3.701   1.794   0.340 -0.2322  0.3922  0.4582
 6252TIP3   OH240314   1.209   3.964   1.572 -0.4685  0.7139  0.0193
 6252TIP3    H140315   1.289   3.919   1.543 -0.6835  0.6287 -0.4493
 6252TIP3    H240316   1.139   3.901   1.557 -1.0190  1.7834 -2.3204
 6253TIP3   OH240317   4.012   2.255   6.921  0.4153  0.3123 -0.0390
 6253TIP3    H140318   3.951   2.217   6.859  1.1140  0.9762 -1.1719
 6253TIP3    H240319   3.989   2.348   6.924  0.7959  0.4020  0.2113
 6254TIP3   OH240320   3.295   5.634   8.524 -0.2432 -0.6471  0.0100
 6254TIP3    H140321   3.348   5.665   8.450  2.0219 -1.0732  1.3710
 6254TIP3    H240322   3.334   5.675   8.601 -3.6944  1.2927  0.9214
 6255TIP3   OH240323   3.025   3.740   7.583  0.2151 -0.2161 -0.1584
 6255TIP3    H140324   3.111   3.744   7.624  0.0699 -0.8635  0.2187
 6255TIP3    H240325   3.022   3.655   7.541  0.2827  0.3560 -1.3620
 6256TIP3   OH240326   5.235   5.545   7.739 -0.1676 -0.6518  0.2629
 6256TIP3    H140327   5.150   5.558   7.695  0.0132 -0.1035  0.0591
 6256TIP3    H240328   5.262   5.634   7.763  0.3897 -0.8159  0.2477
 6257TIP3   OH240329   0.609   0.320   1.166  0.4794  0.3846  0.2628
 6257TIP3    H140330   0.528   0.371   1.169  1.2606  1.7016 -0.0306
 6257TIP3    H240331   0.653   0.338   1.249  0.7452  0.1617  0.1753
 6258TIP3   OH240332   4.934   3.852   0.326  0.1085  0.0489 -0.3497
 6258TIP3    H140333   4.892   3.772   0.360 -1.2985 -0.2122 -2.5232
 6258TIP3    H240334   4.868   3.892   0.269  1.2344  2.1266 -0.2883
 6259TIP3   OH240335   1.054   5.545   7.424 -0.6530 -0.0046 -0.2209
 6259TIP3    H140336   1.075   5.582   7.338 -0.9835 -0.6624 -0.5928
 6259TIP3    H240337   1.043   5.621   7.480 -5.3832  0.8366 -1.8357
 6260TIP3   OH240338   6.417   6.800   0.793  0.2649 -0.3742 -0.0374
 6260TIP3    H140339   6.438   6.768   0.881  0.2609  1.2718  0.5897
 6260TIP3    H240340   6.332   6.843   0.803  1.4120  2.0996 -0.2115
 6261TIP3   OH240341   6.405   0.298   1.562  0.2509  0.0150 -0.1466
 6261TIP3    H140342   6.398   0.392   1.544 -0.1129 -0.0240 -0.2089
 6261TIP3    H240343   6.496   0.285   1.588  0.1218  0.4999  0.5571
 6262TIP3   OH240344   5.254   6.109   8.318 -0.2704  0.7751 -0.2021
 6262TIP3    H140345   5.238   6.019   8.345  1.2587  0.1780 -1.1525
 6262TIP3    H240346   5.225   6.112   8.226 -0.3751  1.2775 -0.1582
 6263TIP3   OH240347   5.638   2.091   0.476  0.1890 -0.6655  0.4582
 6263TIP3    H140348   5.692   2.103   0.398  1.5718  2.3593  1.6973
 6263TIP3    H240349   5.566   2.153   0.464  0.5896  0.0666  1.6755
 6264TIP3   OH240350   1.411   4.354   7.440 -0.3016  1.1928 -0.2639
 6264TIP3    H140351   1.430   4.397   7.524 -0.5723  1.3004 -0.2553
 6264TIP3    H240352   1.368   4.422   7.388 -0.6324  0.9672 -0.2902
 6265TIP3   OH240353   2.114   0.166   7.744  0.0084  0.1472  0.2978
 6265TIP3    H140354   2.042   0.199   7.691 -0.4772  0.8272  1.3613
 6265TIP3    H240355   2.082   0.170   7.834  1.1519 -0.1128  0.7330
 6266TIP3   OH240356   1.576   0.335   8.374  0.1594 -0.3331 -0.2563
 6266TIP3    H140357   1.630   0.306   8.447 -2.1084 -1.0830  1.2535
 6266TIP3    H240358   1.511   0.264   8.363 -0.7742  0.6868 -1.6574
 6267TIP3   OH240359   2.987   6.328   0.690 -0.0803 -0.2415 -0.1143
 6267TIP3    H140360   3.018   6.246   0.653 -0.6504 -0.2220 -0.6588
 6267TIP3    H240361   3.059   6.390   0.678  1.0467 -1.0628  1.8687
 6268TIP3   OH240362   3.998   2.962   0.666  0.1469 -0.0005 -0.2065
 6268TIP3    H140363   4.076   2.981   0.613  0.5390  0.6703  0.5787
 6268TIP3    H240364   3.931   2.938   0.602  0.7330  0.3258 -0.9698
 6269TIP3   OH240365   0.724   1.485   8.364  0.3948  0.0515  0.1262
 6269TIP3    H140366   0.789   1.429   8.322  0.6954  0.0876  0.5374
 6269TIP3    H240367   0.652   1.488   8.302  0.8716  0.1844 -0.4289
 6270TIP3   OH240368   2.174   3.477   2.128  0.4612 -0.4506  0.0328
 6270TIP3    H140369   2.210   3.470   2.217  1.5276 -0.6884 -0.3991
 6270TIP3    H240370   2.092   3.427   2.132  1.0530 -1.4247  0.6013
 6271TIP3   OH240371   6.089   5.898   0.995  0.2261  0.0431 -0.2821
 6271TIP3    H140372   6.123   5.967   1.053  0.4342 -0.7394  0.5458
 6271TIP3    H240373   6.069   5.944   0.913 -0.6928  1.3028  0.6051
 6272TIP3   OH240374   2.005   2.458   7.041 -0.1531 -0.2381 -0.5721
 6272TIP3    H140375   2.100   2.451   7.034 -0.3426 -1.3650 -2.7426
 6272TIP3    H240376   1.989   2.549   7.066  1.5099 -0.4769  1.7864
 6273TIP3   OH240377   2.162   5.947   8.247 -0.1856  0.0658  0.4809
 6273TIP3    H140378   2.126   6.030   8.218 -0.5034  0.1759  1.1774
 6273TIP3    H240379   2.108   5.881   8.203 -0.7899  0.2306  0.9582
 6274TIP3   OH240380   0.168   1.076   0.398  0.2384  0.2663  0.6253
 6274TIP3    H140381   0.115   1.152   0.373  1.2310  0.9943  0.6870
 6274TIP3    H240382   0.197   1.095   0.487  0.1052 -0.4143  0.8193
 6275TIP3   OH240383   0.586   3.386   1.471 -0.3540 -0.1226 -0.3551
 6275TIP3    H140384   0.625   3.377   1.558  1.7959 -1.2152 -1.3601
 6275TIP3    H240385   0.521   3.316   1.466  0.9006 -1.3302 -0.2850
 6276TIP3   OH240386   5.367   6.429   8.653  0.2424 -0.0863 -0.0998
 6276TIP3    H140387   5.409   6.495   8.708 -1.2164 -0.3432  1.3758
 6276TIP3    H240388   5.299   6.476   8.606 -0.6077 -0.4618  0.7336
 6277TIP3   OH240389   5.663   6.144   0.072  0.2529 -0.1348  0.3001
 6277TIP3    H140390   5.611   6.193   0.009  1.1713 -3.0973 -3.0825
 6277TIP3    H240391   5.753   6.174   0.057  0.2220  1.1694  2.3559
 6278TIP3   OH240392   0.043   1.919   8.263  0.0234  0.0297  0.0764
 6278TIP3    H140393  -0.048   1.946   8.275 -0.0315  0.8272 -1.8279
 6278TIP3    H240394   0.091   1.968   8.330 -1.0393 -1.2928  1.8870
 6279TIP3   OH240395   4.782   5.442   1.628 -0.4271 -0.4818  0.2526
 6279TIP3    H140396   4.724   5.452   1.703  2.1124  0.2026  2.2910
 6279TIP3    H240397   4.771   5.522   1.577 -2.6394 -1.2272 -0.5545
 6280TIP3   OH240398   3.434   4.665   6.965 -0.1196  0.1209  0.2985
 6280TIP3    H140399   3.465   4.614   7.040 -0.8593  1.7601  1.7918
 6280TIP3    H240400   3.347   4.629   6.946 -0.3445  0.3494  0.8828
 6281TIP3   OH240401   4.784   4.374   1.889 -0.1691 -0.2236 -0.2685
 6281TIP3    H140402   4.799   4.365   1.795 -0.5955 -1.7345 -0.2205
 6281TIP3    H240403   4.864   4.416   1.922  0.6915 -1.1446 -1.0915
 6282TIP3   OH240404   0.299   1.324   0.595  0.2189  0.1219 -0.0373
 6282TIP3    H140405   0.301   1.416   0.620  2.2378 -0.0444  0.5513
 6282TIP3    H240406   0.374   1.313   0.536  0.2368 -1.2192  0.2046
 6283TIP3   OH240407   5.167   2.381   0.410 -0.1866  0.3498 -0.2791
 6283TIP3    H140408   5.104   2.333   0.464 -0.9122  1.2358 -0.3026
 6283TIP3    H240409   5.112   2.435   0.353  0.5912  1.8133  0.3011
 6284TIP3   OH240410   4.301   4.124   1.688 -0.2091 -0.3061 -0.1388
 6284TIP3    H140411   4.318   4.191   1.755 -3.0099 -1.6545  2.1784
 6284TIP3    H240412   4.342   4.044   1.723  0.9434 -0.3975 -1.6203
 6285TIP3   OH240413   2.904   0.456   2.030 -0.3917 -0.1743  0.1521
 6285TIP3    H140414   2.875   0.429   2.117 -1.8557 -0.4750 -0.4091
 6285TIP3    H240415   2.874   0.546   2.022 -1.6110 -0.6266 -0.5976
 6286TIP3   OH240416   0.946   0.034   2.496  0.9458  0.3129 -0.1053
 6286TIP3    H140417   0.880   0.065   2.433  0.3465 -1.3553 -0.3423
 6286TIP3    H240418   0.935   0.091   2.572 -1.6902 -0.6780  0.3784
 6287TIP3   OH240419   1.652   2.239   1.963 -0.0390 -0.5605 -0.2371
 6287TIP3    H140420   1.739   2.278   1.964  0.1639 -0.8979 -2.1717
 6287TIP3    H240421   1.648   2.187   2.044  0.9042  0.7866  0.7139
 6288TIP3   OH240422   0.692   4.250   0.527  0.0752 -0.1566 -0.5146
 6288TIP3    H140423   0.658   4.161   0.536  0.9651 -0.4839 -0.2635
 6288TIP3    H240424   0.783   4.238   0.498  0.5734  0.6212  0.6267
 6289TIP3   OH240425   5.138   1.045   1.356  0.3730 -0.5365  0.0050
 6289TIP3    H140426   5.119   1.043   1.449 -2.2457  2.0268 -0.3136
 6289TIP3    H240427   5.131   1.138   1.332 -0.8945 -1.2565 -3.0083
 6290TIP3   OH240428   2.900   3.718   8.313  0.0020 -0.2607  0.0130
 6290TIP3    H140429   2.958   3.681   8.380 -0.3899  0.1344  0.5764
 6290TIP3    H240430   2.816   3.728   8.357  0.5130  3.0191  0.4947
 6291TIP3   OH240431   2.037   4.970   8.561  0.5402 -0.3666  0.3091
 6291TIP3    H140432   2.050   5.012   8.476  0.6476 -0.1119  0.4505
 6291TIP3    H240433   2.125   4.944   8.589  0.5651 -0.0260  0.5574
 6292TIP3   OH240434   0.452   3.282   7.163 -0.5435  0.3498 -0.2837
 6292TIP3    H140435   0.497   3.218   7.109 -0.5284  0.0374  0.0908
 6292TIP3    H240436   0.366   3.243   7.179 -0.3446  0.1685  0.3864
 6293TIP3   OH240437   1.875   4.733   1.346  0.2023 -0.7785  0.4144
 6293TIP3    H140438   1.944   4.798   1.330 -0.7603 -0.1155 -1.3409
 6293TIP3    H240439   1.847   4.749   1.436  1.9400 -0.6920  0.9757
 6294TIP3   OH240440   1.162   4.511   6.937  0.3321  0.1063  0.7167
 6294TIP3    H140441   1.233   4.493   6.998  2.7616  1.3108 -1.5293
 6294TIP3    H240442   1.124   4.593   6.968  1.4961  0.6751  0.7207
 6295TIP3   OH240443   3.078   2.095   1.248 -0.3540  0.3008 -0.0031
 6295TIP3    H140444   2.983   2.092   1.243 -0.2905 -0.0230 -1.6722
 6295TIP3    H240445   3.097   2.128   1.336 -2.0118  0.9777  0.1326
 6296TIP3   OH240446   4.108   1.390   1.512  0.4853  0.2553 -0.2766
 6296TIP3    H140447   4.156   1.443   1.449  1.0467  3.7977  2.7423
 6296TIP3    H240448   4.017   1.396   1.485  0.7484  1.4351 -0.9698
 6297TIP3   OH240449   4.726   4.052   7.848 -0.3171 -0.2643 -0.1280
 6297TIP3    H140450   4.794   4.093   7.900 -1.1912  0.0464  0.8033
 6297TIP3    H240451   4.700   3.975   7.898 -0.0644 -0.8721 -0.9015
 6298TIP3   OH240452   4.420   4.776   7.689  0.0886 -0.6954 -0.1036
 6298TIP3    H140453   4.400   4.686   7.664  0.3984 -0.8018  0.0265
 6298TIP3    H240454   4.475   4.809   7.618  1.0061 -1.0124  0.4468
 6299TIP3   OH240455   1.227   0.508   6.467  0.2117  0.4967  0.1687
 6299TIP3    H140456   1.138   0.494   6.433  0.2329  0.1488  0.2491
 6299TIP3    H240457   1.215   0.529   6.559  0.2038  0.5696  0.1507
 6300TIP3   OH240458   6.659   2.862   2.885  0.6737 -0.0401 -0.6225
 6300TIP3    H140459   6.605   2.839   2.809  0.9489  0.4869 -0.9854
 6300TIP3    H240460   6.606   2.925   2.934  0.0706 -1.1360  0.1778
 6301TIP3   OH240461   5.675   3.717   6.505  0.3066  0.3951  0.2221
 6301TIP3    H140462   5.736   3.690   6.573  0.1256  0.5644  0.4557
 6301TIP3    H240463   5.641   3.801   6.536 -0.6918 -0.1047  0.5177
 6302TIP3   OH240464   0.418   2.485   2.375  0.2055 -0.5765 -0.3609
 6302TIP3    H140465   0.450   2.443   2.295  0.1983 -0.0039 -0.6702
 6302TIP3    H240466   0.496   2.492   2.430  0.0622 -1.6834  0.0174
 6303TIP3   OH240467   3.878   3.246   0.057  0.5077 -0.2417 -0.0018
 6303TIP3    H140468   3.797   3.225   0.011 -1.0368  1.2558  1.8973
 6303TIP3    H240469   3.888   3.176   0.122 -0.0503  0.3313  0.7087
 6304TIP3   OH240470   0.618   2.677   6.750  0.0454 -0.3081  0.5981
 6304TIP3    H140471   0.551   2.708   6.811  0.8105 -1.9163  2.3216
 6304TIP3    H240472   0.601   2.584   6.741  0.0791 -0.1595 -1.5503
 6305TIP3   OH240473   2.082   5.318   0.461 -0.4421  0.2299 -0.3222
 6305TIP3    H140474   2.063   5.385   0.527  2.1431 -0.7209  1.5228
 6305TIP3    H240475   2.124   5.366   0.390  1.5314  0.6613  1.0481
 6306TIP3   OH240476   5.151   5.388   1.918  0.5010 -0.0958  0.0506
 6306TIP3    H140477   5.143   5.476   1.883  1.5920 -0.0935 -0.2449
 6306TIP3    H240478   5.069   5.372   1.965  0.7523  1.5137  1.1088
 6307TIP3   OH240479   6.391   4.193   7.033 -0.1316  0.6043  0.0562
 6307TIP3    H140480   6.417   4.105   7.059  0.3880  0.6376 -0.3227
 6307TIP3    H240481   6.460   4.221   6.973  0.5511  1.8698  1.3571
 6308TIP3   OH240482   4.672   1.234   8.485 -0.2428 -0.1208  0.1082
 6308TIP3    H140483   4.680   1.154   8.433  4.6163  0.4381 -0.4385
 6308TIP3    H240484   4.663   1.304   8.420 -1.7549  0.0638  0.4769
 6309TIP3   OH240485   6.815   3.425   1.393 -0.2448  0.5066  0.1177
 6309TIP3    H140486   6.859   3.352   1.349 -0.7216  1.1628 -1.5391
 6309TIP3    H240487   6.757   3.384   1.457  0.9042 -0.4655  0.5633
 6310TIP3   OH240488   0.786   4.390   2.631  0.5047  0.2213  0.3619
 6310TIP3    H140489   0.760   4.347   2.550 -2.0818  2.8427 -0.3763
 6310TIP3    H240490   0.746   4.337   2.700 -0.6593  0.1211 -0.3597
 6311TIP3   OH240491   5.538   5.049   1.216 -0.3493 -0.0102  0.5255
 6311TIP3    H140492   5.588   5.076   1.139 -1.8087  1.1161 -0.0697
 6311TIP3    H240493   5.552   5.120   1.280  1.9659 -1.5614  1.9176
 6312TIP3   OH240494   6.239   1.190   1.822  0.8132  0.3387  0.2876
 6312TIP3    H140495   6.222   1.228   1.908 -1.1155  0.4209 -0.0773
 6312TIP3    H240496   6.298   1.117   1.838  0.0160 -0.0106  1.7763
 6313TIP3   OH240497   3.736   6.554   6.834 -0.3554  0.5520  0.3629
 6313TIP3    H140498   3.693   6.635   6.861  2.3787  1.9411  0.9118
 6313TIP3    H240499   3.790   6.579   6.759 -1.1367 -1.3259 -0.9077
 6314TIP3   OH240500   3.508   5.427   0.039 -0.0219  0.5432 -0.4992
 6314TIP3    H140501   3.535   5.481  -0.035  0.9058  1.4041  0.4324
 6314TIP3    H240502   3.575   5.442   0.106 -1.0838  0.1780  0.6914
 6315TIP3   OH240503   3.916   5.390   0.531 -0.0840  0.7980  1.0002
 6315TIP3    H140504   3.922   5.418   0.622  1.7168  0.9952  0.8556
 6315TIP3    H240505   3.956   5.303   0.529 -0.7226  0.5055  0.5068
 6316TIP3   OH240506   1.331   0.630   8.449  0.3209  0.2606  0.2396
 6316TIP3    H140507   1.337   0.637   8.354  0.1701 -0.4899  0.1661
 6316TIP3    H240508   1.422   0.640   8.480  0.3118  0.9635  0.0612
 6317TIP3   OH240509   5.860   4.488   1.061 -0.1688 -0.2263  0.0738
 6317TIP3    H140510   5.771   4.520   1.074 -0.6526 -0.2203 -2.6740
 6317TIP3    H240511   5.916   4.557   1.097 -1.1900 -0.6448  2.6904
 6318TIP3   OH240512   4.788   1.631   0.805  0.2384  0.0737  0.3642
 6318TIP3    H140513   4.717   1.583   0.848 -0.6960  0.6154 -0.5446
 6318TIP3    H240514   4.829   1.567   0.747 -0.1992  0.0434  0.0877
 6319TIP3   OH240515   6.560   2.965   7.373  0.1084 -0.4323  0.3329
 6319TIP3    H140516   6.546   2.915   7.292 -1.3267 -1.3483  1.1086
 6319TIP3    H240517   6.610   3.042   7.345  0.1202 -1.0008 -1.3332
 6320TIP3   OH240518   1.950   6.826   6.640 -0.2429  0.4116  0.4088
 6320TIP3    H140519   1.937   6.771   6.564 -0.0617 -0.3716  0.9330
 6320TIP3    H240520   2.031   6.874   6.623  0.1451 -0.2429  0.3855
 6321TIP3   OH240521   0.776   0.810   0.905 -0.5481 -0.2565 -0.4244
 6321TIP3    H140522   0.702   0.752   0.921 -0.5219 -0.1073  0.2656
 6321TIP3    H240523   0.742   0.898   0.920 -0.1047 -0.2191  0.4149
 6322TIP3   OH240524   3.331   2.789   8.424  0.0071  0.2472  0.4061
 6322TIP3    H140525   3.299   2.861   8.477 -1.8369 -0.8986  0.9504
 6322TIP3    H240526   3.339   2.716   8.485  1.6442 -0.0917 -0.1657
 6323TIP3   OH240527   5.642   3.277   8.370 -0.0818  0.3109  0.3565
 6323TIP3    H140528   5.614   3.204   8.424  0.4648 -0.0255  0.1952
 6323TIP3    H240529   5.565   3.301   8.318  0.4635 -2.0269 -1.7110
 6324TIP3   OH240530   2.600   0.177   7.590 -0.1826 -0.3331  0.0031
 6324TIP3    H140531   2.615   0.186   7.496 -0.3105  0.7231  0.0656
 6324TIP3    H240532   2.505   0.186   7.600 -0.3017 -1.6416  0.1240
 6325TIP3   OH240533   0.227   2.668   1.978 -0.2421  0.1823 -0.5344
 6325TIP3    H140534   0.138   2.653   2.009 -0.2747 -1.7032 -1.4172
 6325TIP3    H240535   0.254   2.584   1.940  1.4286  1.0888 -1.4710
 6326TIP3   OH240536   1.811   5.082   0.906  0.3476  0.6240 -0.4968
 6326TIP3    H140537   1.887   5.115   0.858 -0.8081  0.4203 -2.6082
 6326TIP3    H240538   1.778   5.010   0.852  0.8663 -1.9466  2.3142
 6327TIP3   OH240539   3.910   1.255   6.760 -0.2193 -0.0374 -0.3485
 6327TIP3    H140540   3.862   1.337   6.770 -1.3330 -0.9193  2.4947
 6327TIP3    H240541   3.847   1.194   6.722 -0.3228 -0.3258  0.2742
 6328TIP3   OH240542   2.923   3.241   2.465  0.3741 -0.5887 -0.1458
 6328TIP3    H140543   2.869   3.249   2.543 -0.7563 -1.6894 -0.7652
 6328TIP3    H240544   2.936   3.147   2.455  1.1280 -0.4171 -0.8627
 6329TIP3   OH240545   2.779   0.863   8.391 -0.2439  0.2994 -0.2185
 6329TIP3    H140546   2.747   0.802   8.458  0.6676 -1.9040 -1.6516
 6329TIP3    H240547   2.818   0.806   8.324  2.0530  2.5415 -0.9534
 6330TIP3   OH240548   2.556   6.040   1.898 -0.1916 -0.3479  0.0018
 6330TIP3    H140549   2.512   6.038   1.813 -1.9825  1.8059  0.7735
 6330TIP3    H240550   2.575   5.948   1.918 -0.5876 -0.9806 -2.2723
 6331TIP3   OH240551   2.722   3.524   7.722  0.0554  0.1367 -0.4196
 6331TIP3    H140552   2.655   3.543   7.656 -1.1836 -1.1113  0.4155
 6331TIP3    H240553   2.678   3.466   7.784  1.7034 -0.0953  0.5830
 6332TIP3   OH240554   0.232   0.345   1.974  0.0903 -0.4672 -0.0508
 6332TIP3    H140555   0.261   0.342   1.883 -0.3550  0.6989 -0.2382
 6332TIP3    H240556   0.314   0.342   2.024  0.3867 -0.2466 -0.5075
 6333TIP3   OH240557   5.419   6.289   6.612 -0.7853 -0.1552 -0.4430
 6333TIP3    H140558   5.410   6.209   6.663  0.6160 -0.0455  0.0340
 6333TIP3    H240559   5.501   6.328   6.644  0.8976 -0.7446 -3.6331
 6334TIP3   OH240560   6.141   4.729   0.747  0.5366 -0.7402 -0.1909
 6334TIP3    H140561   6.222   4.712   0.699 -0.1178 -2.1761 -0.8482
 6334TIP3    H240562   6.117   4.645   0.785 -0.8006 -0.4125 -0.2487
 6335TIP3   OH240563   6.715   6.160   1.079 -0.4212 -0.1382 -0.0113
 6335TIP3    H140564   6.648   6.229   1.074 -1.8981 -1.5970 -1.9373
 6335TIP3    H240565   6.704   6.122   1.167 -0.2138  1.4262  0.7219
 6336TIP3   OH240566   5.400   1.846   1.933  0.6428 -0.0576  0.1779
 6336TIP3    H140567   5.407   1.897   2.014  2.5501  1.9421 -1.1101
 6336TIP3    H240568   5.353   1.767   1.958 -2.2910  2.1319  2.4311
 6337TIP3   OH240569   1.854   4.385   8.118 -0.0330 -0.0526 -0.3300
 6337TIP3    H140570   1.764   4.355   8.103  0.1848 -1.5588  1.1382
 6337TIP3    H240571   1.846   4.480   8.127 -1.7778 -0.3215  1.6210
 6338TIP3   OH240572   3.925   4.114   7.893  0.2678  0.1499  1.0445
 6338TIP3    H140573   3.959   4.184   7.949  0.5988  0.4627  0.4572
 6338TIP3    H240574   4.002   4.076   7.851 -0.0946  0.9989 -0.4497
 6339TIP3   OH240575   2.311   2.100   2.382  0.1898  0.0050 -0.1105
 6339TIP3    H140576   2.404   2.092   2.406  0.5398  0.3376 -1.2996
 6339TIP3    H240577   2.264   2.078   2.463  1.2886 -0.9530  0.3004
 6340TIP3   OH240578   4.972   0.039   1.096  0.7526 -0.4675 -0.2449
 6340TIP3    H140579   5.063   0.011   1.111  2.0822  0.6699 -4.6455
 6340TIP3    H240580   4.927  -0.042   1.072  1.0322 -0.7929  0.2963
 6341TIP3   OH240581   2.387   4.170   7.181  0.1302  0.1931 -0.4004
 6341TIP3    H140582   2.365   4.252   7.138  0.1494  0.1197 -0.5513
 6341TIP3    H240583   2.414   4.112   7.110 -1.3579 -0.4362 -0.4871
 6342TIP3   OH240584   5.624   0.882   1.611  0.6939 -1.2061  0.2445
 6342TIP3    H140585   5.664   0.899   1.525 -0.0187 -0.5940  0.0282
 6342TIP3    H240586   5.590   0.792   1.604 -1.7560 -0.2677 -1.0970
 6343TIP3   OH240587   6.011   2.679   7.256  0.4274 -0.1719  0.3077
 6343TIP3    H140588   6.047   2.636   7.178  1.2912  0.0093  0.5887
 6343TIP3    H240589   5.950   2.744   7.222  0.1804 -0.6560 -0.1803
 6344TIP3   OH240590   5.849   2.392   2.151 -0.0324 -0.1954  0.1990
 6344TIP3    H140591   5.912   2.465   2.143 -0.2063 -0.2197 -2.3383
 6344TIP3    H240592   5.764   2.435   2.157 -0.0054 -0.1946  0.6289
 6345TIP3   OH240593   3.219   6.424   8.584 -0.6483 -0.9548 -0.5326
 6345TIP3    H140594   3.143   6.389   8.538 -0.9744 -0.6736 -0.2128
 6345TIP3    H240595   3.223   6.373   8.665 -0.8815 -0.5279 -0.2538
 6346TIP3   OH240596   5.766   3.616   0.080 -0.5860 -0.0025 -0.3818
 6346TIP3    H140597   5.806   3.634  -0.004 -0.5089 -1.7225 -0.7518
 6346TIP3    H240598   5.790   3.690   0.135  0.6713  0.3823 -1.4209
 6347TIP3   OH240599   4.249   1.398   8.477  0.0633 -0.0322  0.2169
 6347TIP3    H140600   4.321   1.416   8.416  0.1567 -0.3166  0.2439
 6347TIP3    H240601   4.269   1.312   8.513 -0.5750 -0.3470 -0.1811
 6348TIP3   OH240602   2.880   2.979   7.704  0.6502  0.4240 -0.1949
 6348TIP3    H140603   2.890   2.884   7.715  2.7705  0.6407  0.1653
 6348TIP3    H240604   2.805   3.002   7.758 -0.0048 -1.0678 -0.4217
 6349TIP3   OH240605   4.637   3.805   7.523 -0.8675  0.0478  0.8055
 6349TIP3    H140606   4.707   3.769   7.469  0.3498 -2.1203  3.5801
 6349TIP3    H240607   4.557   3.791   7.471  0.3932 -0.0850 -1.2037
 6350TIP3   OH240608   5.064   2.200   1.310  0.5060 -0.0457 -0.1687
 6350TIP3    H140609   5.076   2.105   1.310  0.4122 -0.0575 -0.1984
 6350TIP3    H240610   5.058   2.224   1.218 -0.4530 -0.1367 -0.1418
 6351TIP3   OH240611   1.796   3.142   8.247  0.4022  1.1226  0.2999
 6351TIP3    H140612   1.805   3.127   8.341 -3.1572  1.7855  0.8996
 6351TIP3    H240613   1.773   3.056   8.211 -0.5375  1.2933  0.4641
 6352TIP3   OH240614   2.449   4.179   1.869 -0.0741 -0.1543 -0.3146
 6352TIP3    H140615   2.378   4.187   1.933 -1.0576 -0.7518 -1.2924
 6352TIP3    H240616   2.508   4.115   1.907 -1.0469 -1.0919 -0.3274
 6353TIP3   OH240617   6.681   4.977   1.284  0.3005 -0.3108 -0.4789
 6353TIP3    H140618   6.597   4.933   1.270  0.2176 -0.1774 -0.4001
 6353TIP3    H240619   6.733   4.915   1.335  0.2191 -0.3574 -0.4529
 6354TIP3   OH240620   3.280   3.993   1.661 -0.4528 -0.3137  0.6500
 6354TIP3    H140621   3.326   4.009   1.743 -1.4040 -1.3497  1.4315
 6354TIP3    H240622   3.187   3.990   1.686 -0.6966 -1.6728 -0.2697
 6355TIP3   OH240623   4.758   1.138   0.390  0.5100  0.3610  0.0928
 6355TIP3    H140624   4.708   1.139   0.309  0.7045  0.6276 -0.0244
 6355TIP3    H240625   4.747   1.049   0.423  1.4658 -0.1489 -0.8836
 6356TIP3   OH240626   2.194   3.850   1.314  0.4860  0.7533 -0.7549
 6356TIP3    H140627   2.258   3.780   1.325  0.5325  0.8796 -0.2037
 6356TIP3    H240628   2.248   3.930   1.308  0.3358  1.0299  1.1445
 6357TIP3   OH240629   0.770   1.506   2.456  0.2665  0.4419 -0.5302
 6357TIP3    H140630   0.713   1.564   2.405  1.3876  0.7792 -1.4444
 6357TIP3    H240631   0.843   1.562   2.482 -1.0710  0.8029  3.0475
 6358TIP3   OH240632   3.615   4.735   8.088 -0.0536  0.6855 -0.4525
 6358TIP3    H140633   3.661   4.668   8.039  1.7156  0.1171  1.7706
 6358TIP3    H240634   3.532   4.695   8.113  0.0811  0.0964 -0.9389
 6359TIP3   OH240635   5.186   2.090   1.956 -0.4867  0.0116  0.1228
 6359TIP3    H140636   5.121   2.032   1.994  1.3223 -0.9616  1.9207
 6359TIP3    H240637   5.187   2.167   2.014 -1.2399  0.8433 -0.9212
 6360TIP3   OH240638   4.672   3.488   7.472  0.3794  0.7920 -0.4660
 6360TIP3    H140639   4.600   3.512   7.414  0.1467  1.0250 -0.0825
 6360TIP3    H240640   4.673   3.392   7.471 -2.1471  0.6117  2.1861
 6361TIP3   OH240641   2.025   1.166   2.363  0.6056  0.4344  0.0022
 6361TIP3    H140642   2.048   1.254   2.393  1.2984  0.3125 -0.1377
 6361TIP3    H240643   1.930   1.160   2.375  0.8898  0.1226  2.9274
 6362TIP3   OH240644   5.867   3.463   8.376  0.1449  0.3079 -0.5377
 6362TIP3    H140645   5.783   3.422   8.355 -0.4670  0.4344  1.4022
 6362TIP3    H240646   5.930   3.390   8.377 -0.2655 -0.0485 -0.4216
 6363TIP3   OH240647   4.910   5.875   7.185 -0.0066  0.2624  0.3399
 6363TIP3    H140648   4.934   5.928   7.108  1.6033 -3.8006 -2.2664
 6363TIP3    H240649   4.817   5.859   7.175  0.1429 -0.0382 -0.6637
 6364TIP3   OH240650   0.359   6.259   8.554 -0.0422  0.4221  0.3341
 6364TIP3    H140651   0.391   6.344   8.526 -0.8778  0.7538  0.3509
 6364TIP3    H240652   0.272   6.252   8.515 -1.3081  0.9543  2.8405
 6365TIP3   OH240653   5.450   2.256   2.138  0.3554 -0.2843  0.8407
 6365TIP3    H140654   5.544   2.240   2.136  0.6588  1.3511  0.2956
 6365TIP3    H240655   5.438   2.322   2.206 -0.0202  1.4687 -0.8465
 6366TIP3   OH240656   2.242   2.611   7.911  0.1518 -0.0702  0.2108
 6366TIP3    H140657   2.183   2.548   7.871 -0.6947  1.1595 -0.5408
 6366TIP3    H240658   2.298   2.558   7.969 -1.3130 -1.3318  0.5403
 6367TIP3   OH240659   1.030   4.498   2.634 -0.0933 -1.0048 -0.4258
 6367TIP3    H140660   0.941   4.467   2.618 -0.1995 -1.1741  0.4730
 6367TIP3    H240661   1.081   4.418   2.646 -0.2713 -0.8815  1.4036
 6368TIP3   OH240662   1.439   3.648   0.216 -0.6595  0.0111 -0.0971
 6368TIP3    H140663   1.521   3.629   0.262  0.5052  0.4173 -1.9237
 6368TIP3    H240664   1.382   3.687   0.283  1.4137  1.7714  0.7416
 6369TIP3   OH240665   1.240   6.430   2.002  0.1372  0.1249  0.3132
 6369TIP3    H140666   1.200   6.517   2.007  1.4290  0.7453  0.2391
 6369TIP3    H240667   1.203   6.392   1.923  1.0318  1.4058 -0.7761
 6370TIP3   OH240668   0.027   5.256   0.331 -0.4543  0.3397  0.1031
 6370TIP3    H140669  -0.067   5.270   0.326 -0.4303  0.2755 -0.6220
 6370TIP3    H240670   0.049   5.273   0.423 -1.7076 -2.9353  1.1489
 6371TIP3   OH240671   2.714   4.431   7.125 -0.4924  0.0930 -0.0719
 6371TIP3    H140672   2.762   4.493   7.070  0.6760  0.2897  1.1091
 6371TIP3    H240673   2.630   4.474   7.142  0.3582  1.4701  0.8560
 6372TIP3   OH240674   5.677   2.353   8.253 -0.7922  0.1153  0.0018
 6372TIP3    H140675   5.750   2.362   8.192  0.1175 -1.0384  0.8564
 6372TIP3    H240676   5.604   2.323   8.199 -0.4628  0.7053 -0.7758
 6373TIP3   OH240677   3.476   2.606   7.994  0.2310 -0.3446 -1.2200
 6373TIP3    H140678   3.425   2.683   7.968  0.0434  0.0189  0.1526
 6373TIP3    H240679   3.523   2.634   8.073 -0.5904 -1.9409 -0.1197
 6374TIP3   OH240680   1.029   5.536   8.611  0.1371 -0.0822 -0.4739
 6374TIP3    H140681   1.090   5.575   8.673  0.4277  1.3067 -1.5711
 6374TIP3    H240682   0.943   5.568   8.637  0.3130  0.9126 -1.0344
 6375TIP3   OH240683   0.757   1.084   7.454 -0.4240  0.1982  0.1500
 6375TIP3    H140684   0.729   1.066   7.543  0.1427  0.5998  0.4133
 6375TIP3    H240685   0.759   1.180   7.448 -0.9998  0.1800 -0.4631
 6376TIP3   OH240686   3.350   5.951   7.384 -0.0703 -0.0874 -0.4372
 6376TIP3    H140687   3.379   5.880   7.442 -1.7853 -0.7036 -0.2880
 6376TIP3    H240688   3.258   5.933   7.368  0.3854 -0.1147 -3.6331
 6377TIP3   OH240689   2.401   0.681   0.306 -0.1346 -0.2783 -0.4277
 6377TIP3    H140690   2.478   0.661   0.252 -0.7815 -1.8295 -0.8357
 6377TIP3    H240691   2.438   0.714   0.388  0.9092  0.4689 -1.1707
 6378TIP3   OH240692   3.896   0.502   0.783  0.3785  0.2502 -0.0687
 6378TIP3    H140693   3.935   0.448   0.851  0.4119 -0.3961 -0.5956
 6378TIP3    H240694   3.834   0.559   0.830 -1.0101 -1.4836  0.3111
 6379TIP3   OH240695   3.188   0.341   0.635  0.7647  0.3236 -0.2694
 6379TIP3    H140696   3.264   0.394   0.611  2.3176 -2.4274 -2.0057
 6379TIP3    H240697   3.218   0.286   0.707  0.2335 -0.3720 -0.5661
 6380TIP3   OH240698   4.129   2.506   8.336  0.3291 -0.1048  0.1348
 6380TIP3    H140699   4.059   2.541   8.391  1.1844  1.9346 -0.0063
 6380TIP3    H240700   4.124   2.411   8.350 -1.8363  0.0419  0.8426
 6381TIP3   OH240701   1.474   6.532   1.600 -0.1197  0.1373 -0.2153
 6381TIP3    H140702   1.394   6.487   1.572  0.0130 -0.5222  0.4457
 6381TIP3    H240703   1.444   6.596   1.665  0.0694 -1.3627  1.4221
 6382TIP3   OH240704   2.922   5.823   7.799 -0.3207  0.1234 -0.1718
 6382TIP3    H140705   2.988   5.877   7.757 -0.0381 -2.0295 -2.7204
 6382TIP3    H240706   2.970   5.775   7.867  0.8088 -1.3615 -1.9401
 6383TIP3   OH240707   3.587   5.837   7.569 -0.6985 -0.2441 -0.3876
 6383TIP3    H140708   3.672   5.793   7.571 -0.7235 -0.3412 -1.1541
 6383TIP3    H240709   3.558   5.837   7.660  0.3859  0.3096 -0.0168
 6384TIP3   OH240710   6.447   4.984   7.442  0.3156  0.3755  0.1506
 6384TIP3    H140711   6.365   5.012   7.402  0.7470 -0.0365 -1.1001
 6384TIP3    H240712   6.489   5.066   7.470 -0.5876  0.5716  0.9785
 6385TIP3   OH240713   5.826   0.356   0.541  0.1382  0.4660  0.0129
 6385TIP3    H140714   5.806   0.350   0.448  0.7605  0.5754 -0.1384
 6385TIP3    H240715   5.882   0.281   0.559  2.7231  2.1417 -0.4673
 6386TIP3   OH240716   4.945   6.743   6.964  0.1693  0.0415 -0.6210
 6386TIP3    H140717   4.937   6.691   7.044  0.2459 -0.0136 -0.6482
 6386TIP3    H240718   4.967   6.679   6.896 -1.1735 -0.1049 -0.9407
 6387TIP3   OH240719   2.463   3.335   2.512 -0.3826 -0.1254  0.1575
 6387TIP3    H140720   2.535   3.388   2.545 -1.8514  1.1737  1.4847
 6387TIP3    H240721   2.481   3.247   2.544  0.0474  0.4144  1.4693
 6388TIP3   OH240722   6.162   3.738   1.453 -0.1500  0.0069 -0.3648
 6388TIP3    H140723   6.137   3.829   1.470  1.1452  0.3790 -0.3225
 6388TIP3    H240724   6.120   3.688   1.523 -0.0503  0.7036  0.2053
 6389TIP3   OH240725   2.875   0.405   8.079  0.1957 -0.0158  0.1165
 6389TIP3    H140726   2.881   0.311   8.098  2.4131 -0.6262 -2.7828
 6389TIP3    H240727   2.905   0.448   8.159 -1.2238 -1.7092  1.6387
 6390TIP3   OH240728   0.445   1.393   1.873 -0.1458  0.2248 -0.4661
 6390TIP3    H140729   0.376   1.460   1.873 -0.7981 -0.3455  2.3637
 6390TIP3    H240730   0.524   1.441   1.898 -0.0701  0.3806 -0.9903
 6391TIP3   OH240731   4.466   4.058   8.067  0.0861  0.1638 -0.6208
 6391TIP3    H140732   4.556   4.076   8.092  0.0811 -2.1231  1.3828
 6391TIP3    H240733   4.473   3.989   8.000 -0.1813  1.1863 -1.7522
 6392TIP3   OH240734   2.625   2.842   6.584 -0.3644 -0.3386 -0.3344
 6392TIP3    H140735   2.664   2.930   6.582 -0.0708 -0.4783 -1.2781
 6392TIP3    H240736   2.547   2.851   6.639 -0.5248  0.5930 -0.7030
 6393TIP3   OH240737   2.600   6.156   8.503  0.1822  0.8999  0.1888
 6393TIP3    H140738   2.566   6.143   8.592  2.4374 -0.7907  0.8642
 6393TIP3    H240739   2.646   6.240   8.507  0.8538  0.5086  0.8282
 6394TIP3   OH240740   2.552   4.603   7.419  0.8772  0.1812  0.0140
 6394TIP3    H140741   2.525   4.511   7.412  0.1942  0.2142  1.7449
 6394TIP3    H240742   2.546   4.636   7.329 -1.0781 -0.8767 -0.3053
 6395TIP3   OH240743   3.557   2.465   1.655  0.3670  0.6118  0.2530
 6395TIP3    H140744   3.593   2.478   1.567 -0.9224  0.0357 -0.3949
 6395TIP3    H240745   3.507   2.546   1.672 -0.2922  0.2719 -0.0242
 6396TIP3   OH240746   1.947   6.116   8.309 -0.4091  0.0591  0.2597
 6396TIP3    H140747   1.944   6.020   8.312  2.4371 -0.0941  2.1828
 6396TIP3    H240748   1.920   6.144   8.396 -0.6537  0.9736 -0.0942
 6397TIP3   OH240749   0.004   2.496   7.340 -0.6235  0.8965  0.0761
 6397TIP3    H140750   0.056   2.500   7.260 -0.4075  2.3943  0.2643
 6397TIP3    H240751  -0.087   2.500   7.310 -0.6158 -0.4522 -0.1802
 6398TIP3   OH240752   0.042   3.930   7.523  0.0010 -0.4762 -0.4925
 6398TIP3    H140753   0.030   4.025   7.519 -0.6220 -0.5040  0.5022
 6398TIP3    H240754  -0.046   3.894   7.521  0.1719 -0.9731  0.4195
 6399TIP3   OH240755   6.312   4.598   7.425 -0.1972 -0.4314  0.4503
 6399TIP3    H140756   6.251   4.525   7.417 -0.0495 -0.5122 -0.0005
 6399TIP3    H240757   6.257   4.674   7.440 -0.5291 -0.2884 -1.2365
 6400TIP3   OH240758   0.606   3.708   8.007  0.6788  0.1991 -0.0960
 6400TIP3    H140759   0.529   3.654   7.991  1.7274 -1.5558  0.6073
 6400TIP3    H240760   0.610   3.767   7.932 -0.5659 -0.6022 -0.8146
 6401TIP3   OH240761   2.256   3.525   7.399 -0.2420  0.3334 -0.0145
 6401TIP3    H140762   2.170   3.565   7.403 -0.7044 -0.5309 -0.6992
 6401TIP3    H240763   2.247   3.457   7.332  0.4772 -0.9304  1.1231
 6402TIP3   OH240764   1.921   5.105   6.976  0.1117 -0.4118 -0.2627
 6402TIP3    H140765   1.924   5.018   6.936  2.3362 -0.1541 -0.7744
 6402TIP3    H240766   1.988   5.155   6.930 -2.0478  2.0568 -0.9848
 6403TIP3   OH240767   3.345   6.855   8.053 -0.6690 -0.0349  0.1704
 6403TIP3    H140768   3.307   6.768   8.057 -1.2855  0.2564  0.9782
 6403TIP3    H240769   3.373   6.865   7.962  1.1909 -1.7932  0.4864
 6404TIP3   OH240770   6.114   2.343   1.862 -0.2532 -0.0399 -0.0655
 6404TIP3    H140771   6.031   2.390   1.856 -0.4719 -0.5905 -1.6900
 6404TIP3    H240772   6.093   2.261   1.907 -0.2223  0.5760  1.1127
 6405TIP3   OH240773   2.570   1.689   0.081  0.3721 -0.1963  0.0493
 6405TIP3    H140774   2.544   1.680   0.173  0.4577  0.3707  0.1338
 6405TIP3    H240775   2.666   1.690   0.083  0.4957 -3.0420 -0.3357
 6406TIP3   OH240776   5.248   3.887   1.899  0.4333  0.0905  0.2008
 6406TIP3    H140777   5.251   3.892   1.803 -2.1250 -1.0924 -0.0221
 6406TIP3    H240778   5.249   3.978   1.927  1.1514  0.4653 -0.9349
 6407TIP3   OH240779   1.093   2.803   8.312 -0.0131 -0.0781  0.1100
 6407TIP3    H140780   1.055   2.890   8.304 -1.9695 -0.9184 -0.3019
 6407TIP3    H240781   1.032   2.745   8.266  1.8277 -1.5349 -0.6704
 6408TIP3   OH240782   6.293   5.869   0.430 -0.2908  0.0005  0.2390
 6408TIP3    H140783   6.286   5.902   0.520 -0.0876  0.1027  0.2168
 6408TIP3    H240784   6.373   5.817   0.430 -0.9002 -0.9652  0.4261
 6409TIP3   OH240785   1.539   3.241   7.510 -0.0761  0.3115 -0.0614
 6409TIP3    H140786   1.498   3.154   7.508 -0.4613  0.4967 -0.1092
 6409TIP3    H240787   1.483   3.293   7.566  0.1724  0.5259 -0.0113
 6410TIP3   OH240788   6.785   4.380   0.318  0.3369 -0.2535 -0.4043
 6410TIP3    H140789   6.763   4.436   0.244 -0.9258 -0.7662 -0.4414
 6410TIP3    H240790   6.844   4.433   0.372  0.2531  0.5901 -1.1228
 6411TIP3   OH240791   1.417   0.299   7.285  0.0891 -0.4823 -0.2812
 6411TIP3    H140792   1.409   0.319   7.192 -0.8158  0.6265  0.0177
 6411TIP3    H240793   1.365   0.366   7.329 -0.4667 -1.6779  0.9658
 6412TIP3   OH240794   5.115   4.892   1.946  0.2670 -0.5011 -0.1083
 6412TIP3    H140795   5.061   4.902   1.868 -0.7208 -1.6129  0.4199
 6412TIP3    H240796   5.100   4.973   1.995 -1.0196 -0.8321  0.0827
 6413TIP3   OH240797   4.111   2.403   1.821  0.1277  0.4726 -0.1681
 6413TIP3    H140798   4.206   2.394   1.833  0.1235  1.9694  1.1940
 6413TIP3    H240799   4.102   2.460   1.745  0.3078  0.4424 -0.2144
 6414TIP3   OH240800   1.640   0.020   0.890  0.1397  0.3152 -0.6705
 6414TIP3    H140801   1.546   0.008   0.878 -0.5929  2.7167  1.6960
 6414TIP3    H240802   1.665   0.081   0.820 -0.0231 -0.3234 -1.3036
 6415TIP3   OH240803   4.285   3.535   8.428  0.3522 -0.1287 -0.2902
 6415TIP3    H140804   4.251   3.524   8.517 -1.0771  2.2410 -0.4677
 6415TIP3    H240805   4.217   3.497   8.372  0.0099  0.7515 -0.4732
 6416TIP3   OH240806   1.915   6.604   6.793 -0.3317 -0.0806  0.3659
 6416TIP3    H140807   1.905   6.692   6.757 -2.0042  0.0787  1.1322
 6416TIP3    H240808   1.880   6.546   6.725 -0.1122 -0.0822  0.2533
 6417TIP3   OH240809   3.806   3.067   8.377 -0.5520  0.2821  0.5543
 6417TIP3    H140810   3.756   3.144   8.406 -1.5765 -0.0635 -0.2151
 6417TIP3    H240811   3.837   3.091   8.290  0.9755  0.6358  1.1784
 6418TIP3   OH240812   2.728   4.425   8.519  0.2103 -0.2164  0.2813
 6418TIP3    H140813   2.749   4.443   8.611 -0.5653  0.6072  0.3109
 6418TIP3    H240814   2.655   4.363   8.523  0.0527 -0.0354  0.2257
 6419TIP3   OH240815   2.145   4.890   6.666  0.2839  0.4026 -0.0625
 6419TIP3    H140816   2.166   4.975   6.706 -0.7112 -0.4136  2.3918
 6419TIP3    H240817   2.230   4.847   6.654  0.6587  0.8505  0.8734
 6420TIP3   OH240818   0.944   6.113   8.134  0.6248  0.4350  0.1143
 6420TIP3    H140819   0.974   6.075   8.217  0.0370  0.6899  0.4486
 6420TIP3    H240820   0.981   6.056   8.067 -0.0496 -0.6044  0.6030
 6421TIP3   OH240821   1.941   2.852   7.873  0.0187 -0.1738 -0.0478
 6421TIP3    H140822   1.859   2.837   7.921 -0.6706  0.0687 -1.1055
 6421TIP3    H240823   1.981   2.927   7.917 -0.8481  0.3582 -0.1300
 6422TIP3   OH240824   3.380   1.365   0.980  0.1820  0.0865 -0.4309
 6422TIP3    H140825   3.422   1.371   1.065 -1.3301  0.2510  0.3377
 6422TIP3    H240826   3.450   1.336   0.920  0.5801 -3.4769  1.4594
 6423TIP3   OH240827   3.998   0.265   2.333 -0.7361 -0.3754 -0.2962
 6423TIP3    H140828   4.029   0.296   2.418  0.2634  0.7346 -1.0223
 6423TIP3    H240829   3.937   0.194   2.354 -1.1399  0.3942  1.3683
 6424TIP3   OH240830   3.820   1.218   7.826  0.0770 -0.0614 -0.6077
 6424TIP3    H140831   3.848   1.126   7.822 -1.0549 -0.5087  0.8060
 6424TIP3    H240832   3.744   1.222   7.769 -0.6994 -0.3587  0.3735
 6425TIP3   OH240833   3.838   5.605   0.396 -0.1580 -0.9335  0.0370
 6425TIP3    H140834   3.880   5.529   0.436  0.2665 -1.0438 -0.6040
 6425TIP3    H240835   3.890   5.623   0.317  0.7810  1.0435  1.0268
 6426TIP3   OH240836   5.184   2.699   8.344  0.6326 -0.6604  0.3441
 6426TIP3    H140837   5.217   2.787   8.326 -0.4515 -0.1594  0.7140
 6426TIP3    H240838   5.175   2.659   8.257  0.3453 -0.1066  0.1135
 6427TIP3   OH240839   0.882   0.192   2.707 -0.1651 -0.4641 -0.0041
 6427TIP3    H140840   0.893   0.286   2.696 -1.5240 -0.2008  0.6621
 6427TIP3    H240841   0.788   0.180   2.723  0.1579 -1.7809  1.2043
 6428TIP3   OH240842   2.330   6.609   8.305 -0.2474 -0.0965 -0.4145
 6428TIP3    H140843   2.411   6.559   8.292 -0.2316  0.4811 -3.0945
 6428TIP3    H240844   2.286   6.564   8.378  0.6530 -2.8628 -1.4298
 6429TIP3   OH240845   5.594   6.050   0.305 -0.3095 -0.8481 -0.2616
 6429TIP3    H140846   5.584   6.069   0.212  0.8363 -0.4026 -0.3022
 6429TIP3    H240847   5.638   6.127   0.341  0.7481 -1.7105  0.3341
 6430TIP3   OH240848   3.094   2.959   7.244 -0.0297  0.7063  0.2035
 6430TIP3    H140849   3.156   2.972   7.172  1.1007 -0.4593  0.9123
 6430TIP3    H240850   3.023   2.907   7.205  2.4691 -3.5588  0.6787
 6431TIP3   OH240851   4.667   0.948   0.137  0.2974  0.2234  0.2688
 6431TIP3    H140852   4.744   0.916   0.091  0.0625 -0.1617  0.1337
 6431TIP3    H240853   4.677   1.043   0.138  0.9030  0.1585  0.4929
 6432TIP3   OH240854   3.540   6.605   2.851 -0.1263 -0.6342 -0.4292
 6432TIP3    H140855   3.466   6.554   2.883 -0.7250 -0.6210 -1.7357
 6432TIP3    H240856   3.617   6.564   2.891 -0.6991 -1.7402 -0.4238
 6433TIP3   OH240857   2.006   5.942   0.102  0.0789 -0.0098  0.5312
 6433TIP3    H140858   1.957   5.917   0.181  0.2996  0.5588  0.8512
 6433TIP3    H240859   1.951   5.911   0.030  0.5199 -1.7612  0.9063
 6434TIP3   OH240860   1.365   3.761   7.653 -0.2651 -1.0490 -0.3791
 6434TIP3    H140861   1.379   3.846   7.696  1.3100 -0.4576 -1.9217
 6434TIP3    H240862   1.273   3.742   7.668  0.0787 -0.7576  2.9410
 6435TIP3   OH240863   2.464   3.787   6.962  0.4518 -0.0756 -0.3405
 6435TIP3    H140864   2.415   3.752   7.037 -0.1236  0.9717 -0.2102
 6435TIP3    H240865   2.399   3.792   6.892  0.4604  0.9495 -0.2857
 6436TIP3   OH240866   4.246   4.007   1.440  0.7241  0.5015  0.3174
 6436TIP3    H140867   4.177   3.972   1.496 -0.4678  2.8186  0.4435
 6436TIP3    H240868   4.308   4.048   1.500 -0.3531  2.6414  0.0601
 6437TIP3   OH240869   4.538   4.779   8.221 -0.5818 -0.3782  0.3683
 6437TIP3    H140870   4.444   4.764   8.215 -0.7365  0.3531  0.8440
 6437TIP3    H240871   4.546   4.869   8.253  0.2944  0.3321 -1.6801
 6438TIP3   OH240872   1.934   3.205   8.490  0.0421 -0.3279  0.3758
 6438TIP3    H140873   1.931   3.112   8.512 -0.4830 -0.4744 -0.2620
 6438TIP3    H240874   2.026   3.229   8.495  0.4513 -1.3750 -1.3354
 6439TIP3   OH240875   2.492   3.052   0.341  0.2994 -0.6898 -0.2828
 6439TIP3    H140876   2.573   3.003   0.329  0.5963 -0.3572  0.2997
 6439TIP3    H240877   2.430   3.012   0.279  0.7440 -1.3022 -0.3431
 6440TIP3   OH240878   2.003   4.519   6.660 -0.2381  0.3824 -0.3936
 6440TIP3    H140879   1.919   4.476   6.643 -0.3712  0.3975  0.1883
 6440TIP3    H240880   2.069   4.454   6.635 -0.4361 -0.5421  1.2911
 6441TIP3   OH240881   1.517   6.272   1.196 -0.1170 -0.2719 -0.0010
 6441TIP3    H140882   1.496   6.298   1.106  3.4290 -0.1229 -0.9175
 6441TIP3    H240883   1.559   6.350   1.234  1.1995 -1.2893  0.7034
 6442TIP3   OH240884   1.149   1.997   8.326 -0.3064 -0.0089  0.1087
 6442TIP3    H140885   1.193   2.074   8.290  2.6252 -1.1446  0.9685
 6442TIP3    H240886   1.122   1.946   8.249 -1.4250  1.3918 -0.4510
 6443TIP3   OH240887   3.227   4.240   8.139 -0.1559 -0.0301 -0.3141
 6443TIP3    H140888   3.142   4.279   8.157 -0.1784 -0.4051  0.4095
 6443TIP3    H240889   3.253   4.200   8.222  0.5649 -0.2192 -0.6281
 6444TIP3   OH240890   0.365   0.894   0.330 -0.0812 -0.2136  0.0426
 6444TIP3    H140891   0.353   0.989   0.330 -0.6461 -0.2806  0.3450
 6444TIP3    H240892   0.321   0.864   0.409  1.5742 -0.5555  0.8764
 6445TIP3   OH240893   0.069   4.380   7.619  0.7032  0.0567 -0.3304
 6445TIP3    H140894   0.102   4.412   7.536  0.2570  1.0431 -0.1368
 6445TIP3    H240895   0.005   4.312   7.595  0.2121  0.6834 -0.8129
 6446TIP3   OH240896   0.652   4.431   7.615  0.3816 -0.1206  0.2607
 6446TIP3    H140897   0.575   4.486   7.606 -0.3081 -0.9603  0.9015
 6446TIP3    H240898   0.618   4.341   7.614  1.5556 -0.6133 -1.7738
 6447TIP3   OH240899   4.332   3.844   8.421  0.1073  0.0444  0.8436
 6447TIP3    H140900   4.324   3.774   8.486  0.0616  0.3403  1.1571
 6447TIP3    H240901   4.258   3.901   8.439 -1.2905 -1.0906 -0.9605
 6448TIP3   OH240902   3.359   4.960   1.440  0.8711 -0.2493  0.2706
 6448TIP3    H140903   3.377   5.004   1.523 -1.4951 -0.6507  1.0727
 6448TIP3    H240904   3.446   4.940   1.404  2.0150  2.6156  1.1471
 6449TIP3   OH240905   4.803   4.396   0.537  0.1648 -0.3282  0.2650
 6449TIP3    H140906   4.810   4.424   0.629 -0.5464  1.2059 -0.1165
 6449TIP3    H240907   4.709   4.386   0.522  0.1617  0.8555 -0.6709
 6450TIP3   OH240908   4.692   3.799   1.094 -0.2202  0.0379  0.2608
 6450TIP3    H140909   4.776   3.776   1.055 -1.0591 -1.5906 -0.7290
 6450TIP3    H240910   4.682   3.893   1.077  0.7697 -0.0305 -0.8273
 6451TIP3   OH240911   4.251   5.449   8.388  0.6494  0.3749 -0.0353
 6451TIP3    H140912   4.281   5.362   8.361  0.9732  0.8612 -1.3022
 6451TIP3    H240913   4.250   5.444   8.484  0.5454 -1.0548 -0.0804
 6452TIP3   OH240914   0.602   5.490   8.474 -0.4698  0.1592 -0.0545
 6452TIP3    H140915   0.547   5.561   8.439 -0.9299 -0.5674 -0.8662
 6452TIP3    H240916   0.540   5.418   8.490  0.2704 -0.8116 -1.3587
 6453TIP3   OH240917   4.172   4.125   0.464 -0.0367 -0.2618  0.6786
 6453TIP3    H140918   4.219   4.208   0.466 -1.3354  0.6104 -1.2606
 6453TIP3    H240919   4.114   4.128   0.539 -1.1114  1.3068 -0.1551
 6454TIP3   OH240920   0.428   5.658   2.859  0.3237  0.0903  0.1320
 6454TIP3    H140921   0.501   5.718   2.871  1.6226 -1.0255 -1.6751
 6454TIP3    H240922   0.464   5.572   2.879 -0.2515 -0.5779 -1.5704
 6455TIP3   OH240923   5.908   3.162   8.400 -0.1011 -0.2577  0.1228
 6455TIP3    H140924   5.817   3.175   8.374  0.0155  0.4259  0.0450
 6455TIP3    H240925   5.948   3.114   8.328 -0.3001 -0.2087 -0.0193
 6456TIP3   OH240926   4.531   4.040   2.099  0.4504  0.3819 -0.1453
 6456TIP3    H140927   4.474   4.116   2.107 -0.1631  0.0176 -0.9152
 6456TIP3    H240928   4.508   3.985   2.174 -1.8700 -0.8183 -1.6498
 6457TIP3   OH240929   0.092   5.530   0.328 -0.4084 -0.1294 -0.3079
 6457TIP3    H140930   0.105   5.436   0.314  1.8987  0.3020 -1.4744
 6457TIP3    H240931   0.136   5.548   0.410  0.9373  0.2388 -1.0823
 6458TIP3   OH240932   5.779   5.053   7.520  0.0712  0.4489  0.5756
 6458TIP3    H140933   5.870   5.033   7.542 -0.0504  0.6987  1.3094
 6458TIP3    H240934   5.733   4.970   7.530 -0.1337  0.7239  2.0680
 6459TIP3   OH240935   1.290   0.241   0.017  0.2311  0.2254  0.2610
 6459TIP3    H140936   1.237   0.320   0.032  1.0629  1.4450 -2.4788
 6459TIP3    H240937   1.375   0.261   0.058  0.0684  0.2497  0.5877
 6460TIP3   OH240938   4.912   4.992   0.508 -0.1398  0.6825 -0.4773
 6460TIP3    H140939   4.963   4.911   0.509  0.7652  1.2025  1.8640
 6460TIP3    H240940   4.835   4.973   0.559  0.5970  1.5523  1.0291
 6461TIP3   OH240941   0.294   6.672   7.649 -0.0489 -0.3432 -0.7395
 6461TIP3    H140942   0.338   6.589   7.632 -1.1509 -1.1447  0.1735
 6461TIP3    H240943   0.205   6.659   7.617 -0.5029  0.1534  0.2875
 6462TIP3   OH240944   1.507   5.584   6.921 -0.4151 -0.1945 -0.1598
 6462TIP3    H140945   1.419   5.572   6.888  0.1999 -1.5023 -1.3987
 6462TIP3    H240946   1.562   5.590   6.843  0.7237 -0.4377  0.5900
 6463TIP3   OH240947   4.515   6.383   7.829  0.3170 -0.5475 -0.2051
 6463TIP3    H140948   4.541   6.344   7.913  0.6597 -1.1530 -0.5817
 6463TIP3    H240949   4.512   6.477   7.846 -0.8247 -0.7318  0.8132
 6464TIP3   OH240950   2.379   3.716   1.053 -0.4939 -0.0384  0.9151
 6464TIP3    H140951   2.391   3.810   1.064 -1.0627  0.2989 -1.0115
 6464TIP3    H240952   2.407   3.678   1.137  2.3549  1.5869  0.8089
 6465TIP3   OH240953   1.160   2.898   6.409  0.7002  0.2235 -0.2372
 6465TIP3    H140954   1.246   2.908   6.449  0.9798  1.9593 -1.1883
 6465TIP3    H240955   1.133   2.809   6.433  1.4226  0.6724  2.5852
 6466TIP3   OH240956   0.249   5.976   7.680  0.0221 -0.6971 -0.1182
 6466TIP3    H140957   0.181   5.925   7.723 -0.9574  1.4101  0.9569
 6466TIP3    H240958   0.297   5.912   7.627 -1.3884 -2.6211  0.8187
 6467TIP3   OH240959   5.672   6.286   0.423 -0.4375 -0.1010  0.2181
 6467TIP3    H140960   5.621   6.353   0.468 -0.0522 -0.6119  1.4726
 6467TIP3    H240961   5.751   6.276   0.477 -0.0643 -0.9112 -0.4484
 6468TIP3   OH240962   5.887   2.885   1.448  0.2824 -0.6410  0.0894
 6468TIP3    H140963   5.883   2.898   1.543 -3.3897  1.0986 -0.1348
 6468TIP3    H240964   5.908   2.971   1.413  1.3028 -1.2052 -0.7427
 6469TIP3   OH240965   4.747   0.707   8.590 -0.0587  0.6644  0.6569
 6469TIP3    H140966   4.799   0.783   8.614  0.0610  1.5385 -2.0423
 6469TIP3    H240967   4.663   0.743   8.563 -0.6256 -0.3452  1.0143
 6470TIP3   OH240968   6.089   6.345   6.997  0.4659 -0.1558  0.8604
 6470TIP3    H140969   6.110   6.432   6.962 -0.3822 -0.2993 -0.0734
 6470TIP3    H240970   6.155   6.329   7.063  1.8686  0.3367 -0.3661
 6471TIP3   OH240971   6.467   2.779   2.680 -0.3693  0.2781  0.4693
 6471TIP3    H140972   6.419   2.855   2.645  1.2357  2.7721  3.2161
 6471TIP3    H240973   6.531   2.757   2.612 -2.1440 -0.0002 -1.2030
 6472TIP3   OH240974   3.210   4.704   1.425 -1.0842  0.1593  0.1482
 6472TIP3    H140975   3.128   4.699   1.474 -0.1229  0.1672  1.8294
 6472TIP3    H240976   3.240   4.794   1.438 -0.3982 -0.0789  0.2558
 6473TIP3   OH240977   1.217   5.511   6.961 -0.0628  0.2014  0.2647
 6473TIP3    H140978   1.140   5.461   6.988  0.7386 -0.4594  1.3881
 6473TIP3    H240979   1.260   5.456   6.896 -0.4667  0.5346 -0.3015
 6474TIP3   OH240980   2.975   1.457   7.957 -0.2915  0.7371 -0.2942
 6474TIP3    H140981   2.973   1.385   8.020 -1.1797  1.8702  1.0443
 6474TIP3    H240982   3.058   1.501   7.974 -0.1630  0.5645 -0.4759
 6475TIP3   OH240983   2.241   3.379   1.414  0.4907 -0.2261 -0.0486
 6475TIP3    H140984   2.247   3.294   1.372  0.8219  0.2282 -0.9405
 6475TIP3    H240985   2.148   3.393   1.428  0.4961 -1.3337  1.3987
 6476TIP3   OH240986   1.534   5.504   1.938  0.3068  0.2880  0.2698
 6476TIP3    H140987   1.561   5.572   2.000  1.7932  0.5378 -0.6084
 6476TIP3    H240988   1.502   5.553   1.862  3.3344  0.1369 -1.2349
 6477TIP3   OH240989   2.964   3.519   0.387  0.2843 -0.4309  0.4672
 6477TIP3    H140990   2.977   3.600   0.437  1.0796  0.9569 -1.8354
 6477TIP3    H240991   2.871   3.522   0.362  0.6117  0.4843 -0.7140
 6478TIP3   OH240992   0.478   2.858   7.193 -0.2776  0.2114  0.6006
 6478TIP3    H140993   0.496   2.943   7.154  0.4169  1.4634  3.3683
 6478TIP3    H240994   0.420   2.878   7.267 -1.1342 -1.9052  0.5753
 6479TIP3   OH240995   3.270   0.614   2.019  0.1167  0.3099  0.5885
 6479TIP3    H140996   3.221   0.556   1.960 -1.9827  2.5845 -0.0837
 6479TIP3    H240997   3.350   0.635   1.971  1.5537 -2.8257  1.3503
 6480TIP3   OH240998   2.571   2.361   6.781 -0.0830  0.0066 -0.0801
 6480TIP3    H140999   2.636   2.420   6.742 -0.4029  0.0711 -0.5116
 6480TIP3    H241000   2.570   2.285   6.723  1.9198 -1.4443  1.6022
 6481TIP3   OH241001   3.866   6.049   2.676 -0.7390 -0.5545 -0.3984
 6481TIP3    H141002   3.828   6.101   2.606 -1.4938 -1.6331 -0.8188
 6481TIP3    H241003   3.845   5.958   2.653 -0.6395 -0.9628  0.9982
 6482TIP3   OH241004   4.977   6.283   7.984 -0.6445 -0.1268 -0.8342
 6482TIP3    H141005   5.071   6.275   8.001 -1.1728 -0.9910  2.3143
 6482TIP3    H241006   4.949   6.194   7.963 -1.1454 -0.4800  1.1045
 6483TIP3   OH241007   5.107   0.703   6.975  0.1494  0.3233 -0.5411
 6483TIP3    H141008   5.022   0.659   6.971  1.2000 -2.2122  2.0357
 6483TIP3    H241009   5.101   0.760   7.051  1.3523 -1.5287  1.0331
 6484TIP3   OH241010   1.200   5.859   1.911  0.0701  0.1637  0.2792
 6484TIP3    H141011   1.208   5.854   2.006 -2.0489  0.4388  0.5327
 6484TIP3    H241012   1.120   5.809   1.891  1.5222 -1.5779 -1.5859
 6485TIP3   OH241013   4.186   1.850   1.411  0.6562  0.1561 -0.1541
 6485TIP3    H141014   4.216   1.941   1.407 -0.8134  0.7174  0.7944
 6485TIP3    H241015   4.109   1.848   1.354  0.6394 -0.4925 -0.1161
 6486TIP3   OH241016   1.929   2.474   7.418 -0.2343 -0.5235  0.2106
 6486TIP3    H141017   1.867   2.424   7.365 -1.2919 -0.0943  1.0065
 6486TIP3    H241018   1.942   2.555   7.369 -0.6166 -0.4419  0.2467
 6487TIP3   OH241019   2.729   1.187   7.913  0.0506 -0.1166 -0.2968
 6487TIP3    H141020   2.772   1.215   7.994  0.2712  2.8971 -1.3312
 6487TIP3    H241021   2.790   1.211   7.843 -1.1932 -0.3097 -1.5097
 6488TIP3   OH241022   5.706   3.423   6.641 -0.9619  0.0239  0.5747
 6488TIP3    H141023   5.757   3.485   6.694 -0.8455 -0.3021  0.8483
 6488TIP3    H241024   5.715   3.455   6.552 -2.9118  1.8054  0.9553
 6489TIP3   OH241025   1.070   3.152   2.237 -0.6068 -0.0412  0.0994
 6489TIP3    H141026   1.124   3.203   2.298  2.7528 -2.4111 -0.6011
 6489TIP3    H241027   1.041   3.076   2.289  0.7144 -1.1281 -0.7010
 6490TIP3   OH241028   4.688   2.198   0.496  0.2013 -0.2148 -0.7214
 6490TIP3    H141029   4.606   2.155   0.521  0.6222 -1.5993 -1.6532
 6490TIP3    H241030   4.668   2.292   0.501 -0.5461 -0.4324  2.0124
 6491TIP3   OH241031   6.382   5.461   2.669  0.1699 -0.3269  0.7134
 6491TIP3    H141032   6.287   5.470   2.670  0.2292  0.7713 -0.8987
 6491TIP3    H241033   6.414   5.549   2.648  1.4698 -1.0203 -0.2997
 6492TIP3   OH241034   4.870   1.921   7.926 -0.1368  0.3389  0.3461
 6492TIP3    H141035   4.960   1.889   7.931 -0.1095  0.1305 -1.0062
 6492TIP3    H241036   4.850   1.953   8.014  1.8004  1.8346  0.3011
 6493TIP3   OH241037   3.383   1.359   8.679  0.3570 -0.1550  0.1612
 6493TIP3    H141038   3.472   1.385   8.704 -0.0843  0.2952  1.2948
 6493TIP3    H241039   3.337   1.441   8.664 -0.7074 -0.2312  2.5918
 6494TIP3   OH241040   0.628   2.565   8.389 -0.0047  0.1761  0.6909
 6494TIP3    H141041   0.540   2.603   8.389 -0.2495 -0.3660  1.5962
 6494TIP3    H241042   0.619   2.483   8.437  0.6599 -0.6976 -0.6139
 6495TIP3   OH241043   2.216   3.797   1.824  0.0763 -0.0197  0.0865
 6495TIP3    H141044   2.152   3.797   1.894  0.2680  1.4751  0.3013
 6495TIP3    H241045   2.171   3.836   1.749  0.0125 -1.1860 -0.5204
 6496TIP3   OH241046   1.334   0.422   8.237  0.3633 -0.2435 -0.0302
 6496TIP3    H141047   1.388   0.388   8.308  0.2689 -0.2954  0.0170
 6496TIP3    H241048   1.317   0.345   8.182 -0.8418 -0.5301  0.7105
 6497TIP3   OH241049   2.378   0.059   0.899  0.2860  0.2618 -0.4683
 6497TIP3    H141050   2.337   0.120   0.960  1.1791  0.2627  0.1468
 6497TIP3    H241051   2.390   0.109   0.819  0.1456  0.6034 -0.2757
 6498TIP3   OH241052   4.752   4.003   0.188 -0.3095 -0.2561  0.1869
 6498TIP3    H141053   4.658   3.991   0.176 -0.6851  1.6270  0.9424
 6498TIP3    H241054   4.766   4.097   0.180  1.9576 -0.7045 -2.6288
 6499TIP3   OH241055   3.208   4.429   2.579  0.4609  0.1575 -0.0820
 6499TIP3    H141056   3.138   4.378   2.538  0.1923 -1.5822  2.3160
 6499TIP3    H241057   3.287   4.406   2.529  0.3916 -2.9681  1.0305
 6500TIP3   OH241058   0.649   5.722   1.472 -0.0237  0.0572 -0.1905
 6500TIP3    H141059   0.645   5.815   1.449  2.2561  0.0978 -0.6198
 6500TIP3    H241060   0.611   5.718   1.560 -1.7564  1.0935 -0.8391
 6501TIP3   OH241061   1.161   4.503   1.228  0.4206  0.1865  0.1953
 6501TIP3    H141062   1.072   4.517   1.262  0.6318 -1.7688  1.7201
 6501TIP3    H241063   1.218   4.525   1.301  1.2207  1.1375 -0.6819
 6502TIP3   OH241064   3.057   4.966   8.517 -0.1858 -0.0064  0.7485
 6502TIP3    H141065   3.081   4.883   8.559 -2.9548 -0.8643  0.8213
 6502TIP3    H241066   3.125   4.980   8.451  0.7991 -1.9117  1.2783
 6503TIP3   OH241067   4.904   4.094   7.267  0.0005  0.2576 -0.2272
 6503TIP3    H141068   4.963   4.153   7.220 -0.3508  0.9004  0.1343
 6503TIP3    H241069   4.874   4.144   7.343 -0.6154 -0.2434 -0.1287
 6504TIP3   OH241070   2.174   1.892   0.486 -0.3619 -0.5301  0.5142
 6504TIP3    H141071   2.240   1.825   0.471  0.0490 -0.2862  1.1899
 6504TIP3    H241072   2.126   1.862   0.563  0.4029  0.3779  1.3715
 6505TIP3   OH241073   2.784   0.840   1.740 -0.4671 -0.1916  0.0823
 6505TIP3    H141074   2.762   0.898   1.812 -0.5614 -1.8999  1.4957
 6505TIP3    H241075   2.706   0.786   1.727 -1.0155  1.0638 -2.3573
 6506TIP3   OH241076   4.578   1.212   7.913 -0.3350  0.7170 -0.4109
 6506TIP3    H141077   4.594   1.142   7.849 -1.4294  1.2572 -1.3249
 6506TIP3    H241078   4.533   1.280   7.862 -3.0033  0.3856  1.3292
 6507TIP3   OH241079   4.108   5.174   7.351  0.4291 -0.3109 -0.0836
 6507TIP3    H141080   4.112   5.140   7.440  1.1208  0.6666  0.2801
 6507TIP3    H241081   4.156   5.257   7.355 -0.0746  0.0572 -1.2212
 6508TIP3   OH241082   4.682   2.637   8.549  0.4389 -0.0499 -0.1432
 6508TIP3    H141083   4.674   2.542   8.537 -0.4077 -0.0325  0.2474
 6508TIP3    H241084   4.595   2.671   8.530  0.7316  0.6522 -0.2417
 6509TIP3   OH241085   0.159   6.582   1.263  0.2276  0.2591 -0.1656
 6509TIP3    H141086   0.125   6.505   1.217 -0.8320  0.4755  0.2376
 6509TIP3    H241087   0.108   6.655   1.229  0.7578  0.6941 -0.0384
 6510TIP3   OH241088   1.955   0.781   8.110  0.1479  0.3742  0.1177
 6510TIP3    H141089   1.893   0.812   8.176  0.5729  2.4810 -0.4113
 6510TIP3    H241090   1.946   0.686   8.113 -1.3138  0.4959  1.7705
 6511TIP3   OH241091   3.575   3.013   7.617 -0.1612  0.2334  0.4552
 6511TIP3    H141092   3.644   2.971   7.667  1.0894  0.2524 -1.1807
 6511TIP3    H241093   3.541   2.943   7.560 -0.0240  0.7268 -0.2495
 6512TIP3   OH241094   5.556   3.647   7.454 -0.4795 -0.1116  0.0860
 6512TIP3    H141095   5.561   3.605   7.368  1.4201  0.4444 -0.1215
 6512TIP3    H241096   5.601   3.730   7.443 -0.8849  0.3139  1.4460
 6513TIP3   OH241097   3.522   0.689   0.926 -0.1930 -0.5050  0.2482
 6513TIP3    H141098   3.602   0.642   0.949  0.9204  1.7795  1.3549
 6513TIP3    H241099   3.464   0.675   1.001  0.6413  0.9043  1.1907
 6514TIP3   OH241100   3.264   4.576   1.178 -0.1003 -0.4292 -0.2254
 6514TIP3    H141101   3.247   4.628   1.257 -0.5265 -0.2900 -0.4044
 6514TIP3    H241102   3.290   4.490   1.210  1.5170  0.1499  0.0982
 6515TIP3   OH241103   5.804   6.394   1.813  0.2541 -0.7164 -0.2418
 6515TIP3    H141104   5.782   6.455   1.884  1.3307  1.0903 -1.3835
 6515TIP3    H241105   5.725   6.388   1.760 -0.1474 -1.0567  0.3873
 6516TIP3   OH241106   0.531   2.888   1.429  0.5226  0.2955  0.4102
 6516TIP3    H141107   0.580   2.922   1.354  1.5249  0.6936  1.2114
 6516TIP3    H241108   0.597   2.840   1.480 -0.0039  0.5409  1.3332
 6517TIP3   OH241109   6.719   2.923   7.718  0.3825  0.5052  0.5392
 6517TIP3    H141110   6.814   2.916   7.725  0.4242  0.0892 -0.2944
 6517TIP3    H241111   6.705   2.984   7.646  0.0882 -2.1351 -1.8528
 6518TIP3   OH241112   6.584   5.407   0.635  0.5187 -0.7192 -0.4303
 6518TIP3    H141113   6.514   5.362   0.681 -0.0480  0.0041 -0.5609
 6518TIP3    H241114   6.664   5.383   0.683  0.3270 -2.3723 -0.9064
 6519TIP3   OH241115   3.205   2.489   6.734  0.5079  0.3564 -0.1614
 6519TIP3    H141116   3.263   2.563   6.720 -0.0925  1.2819  1.8362
 6519TIP3    H241117   3.257   2.426   6.784 -0.0692  1.1056  1.4636
 6520TIP3   OH241118   0.934   6.409   2.387  0.1472 -0.1597  0.1847
 6520TIP3    H141119   0.917   6.331   2.439 -0.2038 -0.9612 -1.0978
 6520TIP3    H241120   1.028   6.407   2.369  0.2867  0.1698  0.8384
 6521TIP3   OH241121   4.216   4.875   0.323  0.1591  0.2174 -0.0209
 6521TIP3    H141122   4.289   4.829   0.282 -0.1636  0.2378 -0.6173
 6521TIP3    H241123   4.222   4.965   0.291  0.2502  0.3782  0.4353
 6522TIP3   OH241124   6.582   6.484   7.676 -0.4874 -0.0408 -1.0052
 6522TIP3    H141125   6.648   6.428   7.717 -1.5155 -1.2530 -0.9688
 6522TIP3    H241126   6.522   6.507   7.747 -0.5234  0.4505 -1.1882
 6523TIP3   OH241127   5.153   1.953   1.670 -0.1038 -0.1141 -0.0566
 6523TIP3    H141128   5.065   1.925   1.696  0.0349 -0.2077  0.3321
 6523TIP3    H241129   5.191   1.990   1.750  0.2647 -0.2222 -0.1773
 6524TIP3   OH241130   0.454   6.735   0.199  0.5231  0.1572 -0.4626
 6524TIP3    H141131   0.521   6.728   0.267 -0.2140 -1.2528  0.1822
 6524TIP3    H241132   0.402   6.812   0.225  1.9916  1.4301 -1.1242
 6525TIP3   OH241133   3.608   5.591   8.203 -0.4360 -0.0640 -0.0961
 6525TIP3    H141134   3.564   5.669   8.235 -0.8413 -1.1981  2.3019
 6525TIP3    H241135   3.537   5.527   8.189  0.0380 -0.5223 -0.4705
 6526TIP3   OH241136   3.949   1.975   2.119 -0.2730 -0.2408  0.2391
 6526TIP3    H141137   3.879   1.945   2.061  0.6549 -0.1191 -1.0058
 6526TIP3    H241138   3.943   1.919   2.196 -1.1481 -0.8527 -0.2575
 6527TIP3   OH241139   6.744   3.603   0.009 -0.4512  0.1854 -0.5310
 6527TIP3    H141140   6.735   3.655   0.089 -0.4850  1.9428 -1.6262
 6527TIP3    H241141   6.669   3.543   0.011 -0.9247  0.7857  0.3384
 6528TIP3   OH241142   4.691   3.106   7.817 -0.1499 -0.4006  0.2321
 6528TIP3    H141143   4.649   3.164   7.754  1.9748  1.5375  0.4558
 6528TIP3    H241144   4.768   3.071   7.771  0.8541  0.2339  1.3646
 6529TIP3   OH241145   5.296   2.951   0.632  0.0895  0.9232 -0.2042
 6529TIP3    H141146   5.333   2.867   0.607 -0.1552  1.1324 -1.2992
 6529TIP3    H241147   5.213   2.929   0.675 -1.0750  0.6532 -2.4409
 6530TIP3   OH241148   3.300   0.095   8.304  0.3397 -0.0319  0.5339
 6530TIP3    H141149   3.297   0.190   8.287  3.7158 -0.0130 -0.6333
 6530TIP3    H241150   3.313   0.056   8.217  1.8531 -1.3201  1.2958
 6531TIP3   OH241151   1.442   2.948   8.314  0.1194 -0.0604  0.5790
 6531TIP3    H141152   1.538   2.948   8.316  0.1519  0.9981 -0.0992
 6531TIP3    H241153   1.417   3.031   8.356 -0.6217 -1.4954  3.2625
 6532TIP3   OH241154   5.508   5.320   8.684 -0.7052 -0.8279 -0.4167
 6532TIP3    H141155   5.440   5.335   8.751  0.5851 -0.1503  0.7999
 6532TIP3    H241156   5.580   5.279   8.732 -0.5178 -2.2177 -1.8317
 6533TIP3   OH241157   4.508   0.907   8.117  0.5349 -0.3154 -0.2878
 6533TIP3    H141158   4.440   0.974   8.129  0.4082 -0.6767  1.1155
 6533TIP3    H241159   4.499   0.850   8.193 -1.0540 -3.4579 -2.5993
 6534TIP3   OH241160   1.018   1.771   0.304  0.1259 -0.6529  0.0578
 6534TIP3    H141161   0.958   1.711   0.350  0.9905  0.2224  2.4939
 6534TIP3    H241162   1.105   1.742   0.330  0.5707  1.4862  1.1642
 6535TIP3   OH241163   5.091   0.671   8.097 -0.0462  0.4903 -0.4980
 6535TIP3    H141164   5.161   0.735   8.085 -1.7947  3.4320  3.0079
 6535TIP3    H241165   5.117   0.622   8.176 -1.6393  1.3580  0.6168
 6536TIP3   OH241166   2.644   6.318   7.425 -0.5608  0.1701 -0.7542
 6536TIP3    H141167   2.695   6.358   7.354  0.5574  0.1074 -0.0166
 6536TIP3    H241168   2.656   6.376   7.500 -0.7860 -0.3533 -0.3010
 6537TIP3   OH241169   0.134   2.580   1.242 -0.6861 -0.2023  0.0292
 6537TIP3    H141170   0.176   2.650   1.292 -0.6489  1.6142 -2.3652
 6537TIP3    H241171   0.178   2.500   1.271 -0.8005  0.6724  2.9437
 6538TIP3   OH241172   4.034   3.795   1.294  0.0697 -0.1393  0.5252
 6538TIP3    H141173   3.994   3.875   1.259  0.2264 -0.1369  0.3487
 6538TIP3    H241174   4.049   3.814   1.387  1.5580  0.6373  0.1731
 6539TIP3   OH241175   5.693   3.120   8.132 -0.3583 -0.1352 -0.5801
 6539TIP3    H141176   5.687   3.070   8.213 -0.6826  0.0320 -0.5003
 6539TIP3    H241177   5.621   3.183   8.137  0.2839  0.6100 -0.5011
 6540TIP3   OH241178   5.613   4.540   7.424  0.1874 -0.0370 -0.1835
 6540TIP3    H141179   5.584   4.493   7.502  2.8409  0.1459  0.9981
 6540TIP3    H241180   5.569   4.495   7.352 -1.5644 -0.8467  1.2948
 6541TIP3   OH241181   0.997   3.352   0.358 -0.2912  0.3554 -0.4524
 6541TIP3    H141182   1.032   3.401   0.433  2.5681  1.3951 -2.2773
 6541TIP3    H241183   0.981   3.418   0.291  0.1355 -0.8122 -1.7617
 6542TIP3   OH241184   6.771   5.368   8.513 -0.4620 -0.3065  0.0396
 6542TIP3    H141185   6.704   5.319   8.561 -1.0651 -2.7103 -2.9727
 6542TIP3    H241186   6.854   5.328   8.540 -0.6518 -0.5492  0.2670
 6543TIP3   OH241187   1.850   1.493   7.248  0.1426  0.1355  0.3117
 6543TIP3    H141188   1.780   1.511   7.311 -0.8399 -0.7333 -0.5159
 6543TIP3    H241189   1.845   1.566   7.186 -0.5109 -0.3120 -0.1630
 6544TIP3   OH241190   3.570   4.107   1.684  0.4696 -0.2278  0.1246
 6544TIP3    H141191   3.507   4.074   1.748  0.0942  0.2025 -0.0166
 6544TIP3    H241192   3.516   4.147   1.616  0.8748 -0.4787 -0.3472
 6545TIP3   OH241193   4.471   2.449   2.383  0.2949  0.1531 -0.2629
 6545TIP3    H141194   4.532   2.459   2.456 -0.3736  2.1686  0.0995
 6545TIP3    H241195   4.520   2.400   2.317  1.3307 -0.6472  1.0502
 6546TIP3   OH241196   6.579   5.342   7.002 -0.4396  0.4198  1.1662
 6546TIP3    H141197   6.646   5.396   6.959 -1.0213  0.3750  0.1814
 6546TIP3    H241198   6.503   5.399   7.011 -1.6798 -0.6484 -1.4824
 6547TIP3   OH241199   3.498   5.525   6.519  0.1970 -0.6879  0.4653
 6547TIP3    H141200   3.590   5.549   6.530  0.0029 -0.1114  0.8181
 6547TIP3    H241201   3.451   5.579   6.582 -0.4269 -0.7198  0.0306
 6548TIP3   OH241202   2.495   4.280   8.455 -0.1373 -0.1227  0.1083
 6548TIP3    H141203   2.451   4.358   8.489 -0.2938 -0.0806 -0.1883
 6548TIP3    H241204   2.424   4.226   8.419 -0.0385 -0.4352  0.3786
 6549TIP3   OH241205   1.631   1.287   1.611  0.0485 -0.3789  0.3778
 6549TIP3    H141206   1.688   1.213   1.631  0.1978 -0.3835 -0.0439
 6549TIP3    H241207   1.632   1.340   1.691  0.1023 -0.7263  0.6103
 6550TIP3   OH241208   1.423   5.636   1.060  0.1965 -0.2476 -0.1108
 6550TIP3    H141209   1.402   5.699   1.129  0.1910  0.0512 -0.3820
 6550TIP3    H241210   1.369   5.560   1.080  0.9373 -0.5678  0.7991
 6551TIP3   OH241211   5.548   4.540   6.776 -0.1419  0.0422  0.2760
 6551TIP3    H141212   5.480   4.522   6.712 -1.3160 -0.4488  1.6177
 6551TIP3    H241213   5.548   4.635   6.786 -0.1998  0.0898 -0.1774
 6552TIP3   OH241214   4.146   1.739   1.662 -0.1951  0.3151  0.1912
 6552TIP3    H141215   4.233   1.703   1.678 -0.3796 -1.0897 -1.6196
 6552TIP3    H241216   4.150   1.774   1.574 -1.8290 -1.0823 -0.5012
 6553TIP3   OH241217   0.349   0.837   0.632  0.0321  0.1786 -0.6193
 6553TIP3    H141218   0.353   0.917   0.683  0.3064  0.2038 -0.6765
 6553TIP3    H241219   0.281   0.785   0.674 -0.6721  0.7514 -1.0356
 6554TIP3   OH241220   0.761   3.320   0.697  0.6973  0.3692  0.1198
 6554TIP3    H141221   0.714   3.403   0.698 -0.7980 -0.3814 -1.8314
 6554TIP3    H241222   0.837   3.335   0.754 -1.1036  2.0876  2.2578
 6555TIP3   OH241223   4.556   5.333   8.669 -0.1130 -0.3411 -0.3600
 6555TIP3    H141224   4.467   5.364   8.655 -0.5603 -0.6831  1.4348
 6555TIP3    H241225   4.572   5.347   8.762  1.7848 -0.1329 -0.6780
 6556TIP3   OH241226   2.685   5.203   1.453  0.3959  0.0774  0.4586
 6556TIP3    H141227   2.682   5.289   1.495  0.4750  0.4467 -0.2619
 6556TIP3    H241228   2.771   5.199   1.412  0.9641 -0.9537  1.6903
 6557TIP3   OH241229   3.498   6.810   1.177  0.3090 -0.1697  0.1239
 6557TIP3    H141230   3.551   6.731   1.166 -1.0423 -1.2701  1.0619
 6557TIP3    H241231   3.455   6.798   1.261 -0.4175  1.2849 -0.0143
 6558TIP3   OH241232   0.066   2.592   7.061  0.2715 -0.3644  0.2744
 6558TIP3    H141233   0.020   2.600   6.977 -0.6515  0.3542  0.8334
 6558TIP3    H241234   0.140   2.533   7.042  0.8972  0.8683 -1.3704
 6559TIP3   OH241235   6.323   1.960   0.045  0.0048  0.2780  0.0029
 6559TIP3    H141236   6.275   1.967   0.128 -1.9510  1.1063 -1.1397
 6559TIP3    H241237   6.377   1.882   0.056 -2.2586 -1.2486  1.0855
 6560TIP3   OH241238   0.721   2.474   7.373  0.3501 -0.5845  0.3778
 6560TIP3    H141239   0.756   2.387   7.355 -1.9698 -1.3332 -0.9344
 6560TIP3    H241240   0.679   2.500   7.291  0.8547  1.7319  0.7903
 6561TIP3   OH241241   1.273   3.681   0.459  0.2531 -0.6716  0.2393
 6561TIP3    H141242   1.181   3.709   0.466 -0.2080 -2.2242  0.7651
 6561TIP3    H241243   1.302   3.674   0.549  0.9853  0.0144  0.0703
 6562TIP3   OH241244   4.332   2.076   1.108  0.4079  0.2016  0.6067
 6562TIP3    H141245   4.390   2.053   1.181 -0.3179 -1.9443  0.5838
 6562TIP3    H241246   4.262   2.127   1.148  0.9079  0.4963  1.1097
 6563TIP3   OH241247   4.861   3.099   8.331  0.1667 -0.3498  0.4945
 6563TIP3    H141248   4.802   3.039   8.285  2.1379 -0.4167 -2.1455
 6563TIP3    H241249   4.858   3.180   8.280  0.5578  0.4753  1.7328
 6564TIP3   OH241250   4.398   0.142   0.889  0.6760 -0.0156  0.6232
 6564TIP3    H141251   4.308   0.111   0.880  0.1972  1.4144  0.2547
 6564TIP3    H241252   4.427   0.106   0.973  0.4240 -2.0085 -0.0873
 6565TIP3   OH241253   1.048   1.344   2.419 -0.3365 -0.2503  0.2834
 6565TIP3    H141254   1.016   1.324   2.507  1.4789 -0.7696  0.8771
 6565TIP3    H241255   0.990   1.296   2.361 -1.7396  0.3131  1.1595
 6566TIP3   OH241256   5.595   4.743   7.783  0.5629  0.2128 -0.3357
 6566TIP3    H141257   5.624   4.834   7.789 -0.3158  0.5899 -1.4352
 6566TIP3    H241258   5.624   4.703   7.865  0.3725  1.6592  0.4743
 6567TIP3   OH241259   1.872   6.198   0.162  0.0358 -0.6636  0.0829
 6567TIP3    H141260   1.810   6.136   0.200 -1.7652  0.7722 -0.3892
 6567TIP3    H241261   1.943   6.203   0.226 -0.9067 -1.4461  1.2348
 6568TIP3   OH241262   1.549   5.269   7.420  0.6433 -0.1925  0.5234
 6568TIP3    H141263   1.630   5.313   7.444  0.8436  0.9703 -1.9373
 6568TIP3    H241264   1.481   5.317   7.466  1.1472  0.6187  0.4413
 6569TIP3   OH241265   4.453   4.242   7.718 -0.0968 -0.1788 -0.4093
 6569TIP3    H141266   4.532   4.256   7.770 -0.4094  0.4049 -0.0763
 6569TIP3    H241267   4.476   4.173   7.656  0.0423 -1.4605  1.0172
 6570TIP3   OH241268   3.921   1.338   8.518  0.4663 -0.7751  0.1902
 6570TIP3    H141269   3.938   1.246   8.538  0.4594 -0.7501  0.3137
 6570TIP3    H241270   3.996   1.364   8.464  0.1503 -1.0198 -0.3782
 6571TIP3   OH241271   4.368   0.995   0.358 -0.5105  0.0181  0.0139
 6571TIP3    H141272   4.287   0.960   0.396 -0.1765  0.5019  1.2513
 6571TIP3    H241273   4.338   1.061   0.295 -1.0922 -0.9722 -0.7757
 6572TIP3   OH241274   6.201   4.190   0.404 -0.2717  0.2089 -0.1327
 6572TIP3    H141275   6.146   4.225   0.333 -1.3842  0.3043  0.7328
 6572TIP3    H241276   6.271   4.143   0.359 -1.1433 -0.0470 -1.3056
 6573TIP3   OH241277   1.287   6.069   8.641 -0.3698  0.0457  0.0122
 6573TIP3    H141278   1.212   6.029   8.598 -1.2554  0.7181  0.8890
 6573TIP3    H241279   1.270   6.163   8.636  0.3039  0.1922  0.4101
 6574TIP3   OH241280   5.514   3.850   2.835  0.0335  0.0600  0.2384
 6574TIP3    H141281   5.462   3.908   2.779 -0.3367  0.3423  0.8642
 6574TIP3    H241282   5.537   3.776   2.778  1.4823  1.3306 -0.9238
 6575TIP3   OH241283   5.605   5.489   1.252 -0.1792 -0.6748  0.0240
 6575TIP3    H141284   5.537   5.537   1.206  1.8666  1.6494 -0.7943
 6575TIP3    H241285   5.615   5.536   1.335  1.3412 -0.0795 -0.4669
 6576TIP3   OH241286   6.444   1.047   0.689 -0.4568 -0.2159 -0.0976
 6576TIP3    H141287   6.392   1.042   0.609 -0.5523  0.1686 -0.0637
 6576TIP3    H241288   6.487   0.962   0.696 -0.3211 -0.1903 -0.6397
 6577TIP3   OH241289   2.232   0.823   1.399 -0.2996 -0.1836  0.2711
 6577TIP3    H141290   2.294   0.876   1.350 -1.3330  0.7865 -0.0066
 6577TIP3    H241291   2.281   0.796   1.477  0.2019  1.2930  0.4958
 6578TIP3   OH241292   6.354   6.094   7.854 -0.4982  0.1841  0.0899
 6578TIP3    H141293   6.283   6.039   7.820  2.5686 -2.7810 -2.1498
 6578TIP3    H241294   6.410   6.110   7.779  2.2076  0.7294  2.0786
 6579TIP3   OH241295   1.632   3.554   0.663 -0.2029  0.0665 -0.0569
 6579TIP3    H141296   1.571   3.537   0.734  0.4488 -0.9610  0.2864
 6579TIP3    H241297   1.681   3.631   0.691 -1.0405  0.6434 -0.1455
 6580TIP3   OH241298   0.471   6.503   1.225  0.0133 -0.1671  0.1356
 6580TIP3    H141299   0.456   6.443   1.297  0.0507 -1.4490 -0.8934
 6580TIP3    H241300   0.384   6.532   1.198 -0.5824 -3.8840 -2.7230
 6581TIP3   OH241301   2.251   6.286   8.078  0.2373 -0.1359 -0.2834
 6581TIP3    H141302   2.256   6.209   8.020  0.7072  1.4516 -2.4907
 6581TIP3    H241303   2.157   6.304   8.085  0.1896  0.0117 -1.1213
 6582TIP3   OH241304   4.585   3.308   2.472 -0.1569  0.2720  1.0151
 6582TIP3    H141305   4.518   3.357   2.520 -0.9259 -0.7861  1.0637
 6582TIP3    H241306   4.567   3.326   2.380  0.5725  1.3455  1.0655
 6583TIP3   OH241307   3.702   4.907   0.416 -0.3146 -0.0326 -0.1564
 6583TIP3    H141308   3.780   4.879   0.368 -0.8784  0.5536 -1.4504
 6583TIP3    H241309   3.736   4.937   0.501  0.5809 -2.0720  0.2571
 6584TIP3   OH241310   6.318   3.964   6.195 -0.2986  0.2816  0.6813
 6584TIP3    H141311   6.411   3.985   6.205 -0.4925  0.4480  2.4873
 6584TIP3    H241312   6.316   3.869   6.184  0.0162  0.0217  2.5347
 6585TIP3   OH241313   3.455   3.132   1.852  0.2347 -0.0727 -0.6226
 6585TIP3    H141314   3.396   3.203   1.826  1.6871  1.7259  0.7430
 6585TIP3    H241315   3.415   3.097   1.931  0.0619 -0.0888 -0.7147
 6586TIP3   OH241316   2.452   6.692   1.767 -0.0443  0.0621  0.4219
 6586TIP3    H141317   2.477   6.739   1.688 -0.6085  2.1222  1.4110
 6586TIP3    H241318   2.362   6.662   1.749  0.9391 -2.3448 -0.9083
 6587TIP3   OH241319   4.463   5.607   8.306  0.0763  0.1067 -0.1054
 6587TIP3    H141320   4.420   5.692   8.319  0.5821  0.1668  1.3716
 6587TIP3    H241321   4.395   5.543   8.330 -0.0046  0.1196 -0.2973
 6588TIP3   OH241322   3.890   4.912   1.089  0.4211 -0.0776  0.7776
 6588TIP3    H141323   3.917   4.821   1.078  1.3139 -0.0978  2.6313
 6588TIP3    H241324   3.800   4.907   1.121  0.0482 -0.2367 -0.2634
 6589TIP3   OH241325   3.010   0.275   1.639 -0.2809 -0.3533  0.3708
 6589TIP3    H141326   3.019   0.344   1.572 -2.6834  0.7896  1.0839
 6589TIP3    H241327   3.023   0.321   1.722 -0.5257 -1.0611  0.8033
 6590TIP3   OH241328   2.377   4.937   1.265 -0.6158  0.4608  0.2606
 6590TIP3    H141329   2.468   4.941   1.293 -0.5113  1.6851 -0.1869
 6590TIP3    H241330   2.351   4.846   1.279  0.6338  0.1274  0.4983
 6591TIP3   OH241331   4.176   6.194   1.706  0.3179 -0.3142 -0.2808
 6591TIP3    H141332   4.083   6.195   1.682  0.7794  0.3002 -2.2231
 6591TIP3    H241333   4.212   6.272   1.665  1.6999 -0.5227  0.4879
 6592TIP3   OH241334   4.514   1.839   0.784 -0.6953  0.1875 -0.1679
 6592TIP3    H141335   4.508   1.754   0.741 -0.3168 -0.4276  0.9460
 6592TIP3    H241336   4.598   1.837   0.830 -0.5082  1.3182 -0.4223
 6593TIP3   OH241337   2.120   5.941   7.110  0.1450 -0.3173 -0.7376
 6593TIP3    H141338   2.190   5.973   7.053 -0.0552  0.0095 -0.7995
 6593TIP3    H241339   2.039   5.975   7.071 -0.0179 -0.3719 -0.4492
 6594TIP3   OH241340   5.874   4.635   8.304  0.1303 -0.3866  0.5488
 6594TIP3    H141341   5.960   4.627   8.344  0.1454 -0.3795  0.5180
 6594TIP3    H241342   5.822   4.684   8.368  0.4034  0.4026  0.1715
 6595TIP3   OH241343   5.282   3.936   1.615  0.6284  0.1086  0.0165
 6595TIP3    H141344   5.279   3.996   1.540 -0.8143  0.3033  0.1983
 6595TIP3    H241345   5.240   3.856   1.583 -0.7762  0.4809  0.8361
 6596TIP3   OH241346   4.649   0.470   1.896 -0.0276 -0.3028 -0.4439
 6596TIP3    H141347   4.718   0.492   1.959 -1.4558  0.5439  0.8960
 6596TIP3    H241348   4.695   0.460   1.813  1.6582  0.6972  0.3060
 6597TIP3   OH241349   1.325   5.635   0.594 -0.3390 -0.5902  0.2992
 6597TIP3    H141350   1.351   5.703   0.657 -0.3909 -0.6355  0.3702
 6597TIP3    H241351   1.365   5.555   0.628  2.0565 -0.1573 -1.2307
 6598TIP3   OH241352   2.401   3.802   7.276 -0.1446 -0.5789 -0.1207
 6598TIP3    H141353   2.359   3.783   7.360  1.1341 -0.8649  0.4800
 6598TIP3    H241354   2.483   3.845   7.300  1.3642 -2.7292 -1.0719
 6599TIP3   OH241355   6.830   3.480   7.890  0.2498 -0.2525  0.0918
 6599TIP3    H141356   6.845   3.497   7.983  0.2033  0.3160 -0.0027
 6599TIP3    H241357   6.864   3.558   7.846 -1.2135  0.2023 -0.2618
 6600TIP3   OH241358   6.521   5.217   8.578 -0.1759  0.4915 -0.2064
 6600TIP3    H141359   6.456   5.154   8.609  0.3461 -0.4361 -0.9351
 6600TIP3    H241360   6.497   5.300   8.620 -0.4109 -0.3512  1.4164
 6601TIP3   OH241361   2.275   4.069   6.672  0.3029  0.4923  0.1397
 6601TIP3    H141362   2.356   4.117   6.688  0.6605  0.0474 -0.2841
 6601TIP3    H241363   2.296   3.979   6.697 -0.4826  0.6103  1.3122
 6602TIP3   OH241364   6.513   2.248   1.820 -0.1701  0.2326  0.1401
 6602TIP3    H141365   6.567   2.223   1.895  0.4871  1.3165  0.0502
 6602TIP3    H241366   6.530   2.342   1.809 -0.5927  0.1766 -1.0875
 6603TIP3   OH241367   6.161   4.425   1.975 -0.5821 -0.6953 -0.1934
 6603TIP3    H141368   6.179   4.485   2.047 -1.3611 -1.1057  0.3609
 6603TIP3    H241369   6.163   4.338   2.015 -1.7796 -0.8793 -0.4904
 6604TIP3   OH241370   0.684   2.903   1.183 -0.0415 -0.4450 -0.2528
 6604TIP3    H141371   0.670   2.879   1.092 -1.1676 -0.6555 -0.0405
 6604TIP3    H241372   0.756   2.847   1.211 -0.4357 -1.2071 -0.7087
 6605TIP3   OH241373   1.043   3.691   1.578  0.2506  0.9627  0.0579
 6605TIP3    H141374   0.957   3.732   1.584  0.1648  1.0223 -1.2784
 6605TIP3    H241375   1.041   3.621   1.643 -1.2520  0.2315 -0.7235
 6606TIP3   OH241376   3.238   3.218   8.018 -0.2275 -0.1407  0.1459
 6606TIP3    H141377   3.279   3.171   7.946 -0.2881  0.9206 -0.6097
 6606TIP3    H241378   3.291   3.197   8.094 -1.1413 -2.6439  0.1795
 6607TIP3   OH241379   3.476   0.156   7.857  0.2972  0.3237 -0.1706
 6607TIP3    H141380   3.407   0.220   7.874 -0.2486 -0.3004  0.0361
 6607TIP3    H241381   3.540   0.202   7.803  0.3291  1.2815  0.6612
 6608TIP3   OH241382   4.123   2.845   0.133 -0.7189  0.3673 -0.4596
 6608TIP3    H141383   4.159   2.865   0.046  1.9811  2.8195  1.0300
 6608TIP3    H241384   4.043   2.898   0.138 -0.4091  0.9247 -1.1278
 6609TIP3   OH241385   2.580   5.131   6.352  0.3664 -0.0202  0.1806
 6609TIP3    H141386   2.589   5.044   6.391 -1.1673 -0.7894 -1.0708
 6609TIP3    H241387   2.669   5.154   6.324  0.5270 -2.0366 -1.1372
 6610TIP3   OH241388   1.359   0.027   7.425 -0.7379 -0.1139 -0.3234
 6610TIP3    H141389   1.432  -0.015   7.469 -0.5024 -1.0476 -1.5550
 6610TIP3    H241390   1.395   0.110   7.392 -1.2153  1.1693  2.1447
 6611TIP3   OH241391   6.060   2.529   0.291 -0.9557 -0.3354 -0.1059
 6611TIP3    H141392   5.969   2.498   0.289 -1.6879  1.6902 -0.1074
 6611TIP3    H241393   6.063   2.599   0.226  0.4816 -0.0139  0.2682
 6612TIP3   OH241394   3.580   2.089   7.936  0.7952  0.6355 -0.4036
 6612TIP3    H141395   3.675   2.091   7.938  0.8439 -0.8238  0.1121
 6612TIP3    H241396   3.556   2.018   7.996 -0.7157  2.5801  1.4202
 6613TIP3   OH241397   6.337   2.782   6.982 -0.2344  0.4456  0.8061
 6613TIP3    H141398   6.380   2.768   7.066 -0.8677 -2.1544  0.7737
 6613TIP3    H241399   6.401   2.752   6.917 -1.3150 -1.7439  0.6667
 6614TIP3   OH241400   6.018   3.188   8.643 -0.5060 -0.3177  0.2114
 6614TIP3    H141401   5.979   3.188   8.556  0.8820 -0.3530 -0.4351
 6614TIP3    H241402   5.991   3.272   8.682  0.6731  0.7233 -1.1164
 6615TIP3   OH241403   5.564   4.144   7.582  0.2528 -0.1021  0.5872
 6615TIP3    H141404   5.540   4.233   7.608 -1.3109 -0.5163  0.6311
 6615TIP3    H241405   5.659   4.140   7.594  0.4322  1.7257  0.0508
 6616TIP3   OH241406   5.524   2.296   1.602 -0.0167 -0.0518  0.3523
 6616TIP3    H141407   5.492   2.236   1.670  0.9240 -1.6358 -0.5515
 6616TIP3    H241408   5.455   2.298   1.537 -0.4596  0.6319  0.8264
 6617TIP3   OH241409   1.488   5.185   2.002  0.1060  0.5071 -0.6720
 6617TIP3    H141410   1.532   5.208   2.084  0.0850  0.0168 -0.5169
 6617TIP3    H241411   1.450   5.099   2.019 -3.5254  2.1314  0.2233
 6618TIP3   OH241412   3.884   1.771   0.980 -0.6144 -0.2027  0.6207
 6618TIP3    H141413   3.941   1.821   0.922  1.8404 -2.5699  0.7711
 6618TIP3    H241414   3.798   1.812   0.970  0.6450  2.2992 -1.1892
 6619TIP3   OH241415   5.452   0.757   8.690 -0.0217  0.0742 -0.0546
 6619TIP3    H141416   5.481   0.844   8.718  0.4315 -0.4556  1.1654
 6619TIP3    H241417   5.530   0.716   8.654 -0.2525  0.1877 -0.6975
 6620TIP3   OH241418   1.813   1.755   0.505 -0.5840  0.4862 -0.0702
 6620TIP3    H141419   1.868   1.710   0.441 -0.3136 -0.7731  1.0116
 6620TIP3    H241420   1.874   1.808   0.556 -0.8020  1.5041 -0.8436
 6621TIP3   OH241421   5.328   0.693   1.993  0.2541 -0.0705 -0.3521
 6621TIP3    H141422   5.290   0.773   2.031  0.6126 -0.1292  0.1381
 6621TIP3    H241423   5.398   0.726   1.935 -1.2842  0.1142 -2.2203
 6622TIP3   OH241424   6.851   1.519   7.352  0.0948 -0.0989 -0.0791
 6622TIP3    H141425   6.786   1.560   7.410  2.2137  1.3962  1.3683
 6622TIP3    H241426   6.846   1.426   7.372 -0.8473  0.1197  0.7661
 6623TIP3   OH241427   0.794   5.602   0.837 -0.1173  0.1717 -0.0735
 6623TIP3    H141428   0.811   5.688   0.877  1.0112  0.4606 -1.0922
 6623TIP3    H241429   0.853   5.543   0.884  0.7162  0.3866 -0.8147
 6624TIP3   OH241430   6.647   0.294   7.920  0.0822  0.2901 -0.3150
 6624TIP3    H141431   6.684   0.242   7.848 -0.5235 -0.5226 -0.0654
 6624TIP3    H241432   6.715   0.357   7.942  0.3048  0.5085 -1.5496
 6625TIP3   OH241433   2.930   1.978   7.244 -0.1266  0.3642  0.4521
 6625TIP3    H141434   2.912   1.965   7.151  0.4452  1.3753  0.1804
 6625TIP3    H241435   2.870   2.047   7.271 -0.1349  0.2330  0.7754
 6626TIP3   OH241436   1.547   4.697   0.574  0.6070  0.4532 -0.2007
 6626TIP3    H141437   1.578   4.752   0.502  0.7781 -0.5177 -0.8926
 6626TIP3    H241438   1.467   4.740   0.604  1.2660  1.6291 -0.0418
 6627TIP3   OH241439   4.186   5.558   2.358  0.0281 -0.2646 -0.4760
 6627TIP3    H141440   4.240   5.623   2.401 -0.7566 -0.3036  0.6267
 6627TIP3    H241441   4.100   5.565   2.401 -0.4824 -1.0456 -1.3060
 6628TIP3   OH241442   6.731   2.566   1.274  0.0772 -0.2123 -0.4200
 6628TIP3    H141443   6.692   2.479   1.269  0.1360 -0.1756 -1.7151
 6628TIP3    H241444   6.820   2.556   1.241 -0.4358  0.6170 -2.1947
 6629TIP3   OH241445   2.621   4.995   8.628 -0.5204 -0.5190 -0.5600
 6629TIP3    H141446   2.677   4.928   8.668 -1.0787 -1.2818 -1.0356
 6629TIP3    H241447   2.668   5.022   8.550  0.6303  1.0574  0.6052
 6630TIP3   OH241448   5.196   4.018   0.585  0.0380  0.1652 -0.6180
 6630TIP3    H141449   5.236   3.943   0.630  0.0579  0.5560  0.0373
 6630TIP3    H241450   5.154   4.067   0.655  0.3275  0.9537 -0.9952
 6631TIP3   OH241451   2.415   5.846   1.702 -0.4011  0.2194  0.8000
 6631TIP3    H141452   2.324   5.828   1.728 -0.7405  2.0896  1.0451
 6631TIP3    H241453   2.444   5.765   1.659 -2.2060 -0.3943  0.6444
 6632TIP3   OH241454   0.512   6.053   6.951  0.4151 -0.1623 -0.9057
 6632TIP3    H141455   0.544   6.064   7.040  0.8569 -0.4644 -1.0184
 6632TIP3    H241456   0.497   5.959   6.942 -2.5884  0.1490 -0.1826
 6633TIP3   OH241457   3.544   1.986   1.679  0.5802 -0.5167  0.5757
 6633TIP3    H141458   3.450   1.972   1.673  0.7497 -1.2917 -0.7226
 6633TIP3    H241459   3.569   2.018   1.592  1.1827  1.9741  1.5907
 6634TIP3   OH241460   6.125   6.169   7.370  0.0629 -0.3309  0.1227
 6634TIP3    H141461   6.132   6.080   7.335  1.7408  0.1228 -0.7731
 6634TIP3    H241462   6.193   6.175   7.436  0.0967  0.3451  0.0392
 6635TIP3   OH241463   2.284   6.346   0.232 -0.1820  0.5494 -0.3781
 6635TIP3    H141464   2.217   6.288   0.268  0.1580  0.3919  0.0069
 6635TIP3    H241465   2.353   6.348   0.299 -0.0199  1.0928 -0.5542
 6636TIP3   OH241466   2.749   2.610   0.738 -0.5667 -0.0808 -0.1970
 6636TIP3    H141467   2.698   2.535   0.769 -0.6410 -0.8322 -2.0112
 6636TIP3    H241468   2.808   2.573   0.672  0.4689  1.2183 -0.0347
 6637TIP3   OH241469   0.210   2.216   7.322  0.5356 -0.5571  0.4770
 6637TIP3    H141470   0.262   2.149   7.277 -0.9971 -1.7594  0.3864
 6637TIP3    H241471   0.239   2.299   7.284  1.1968 -1.3207 -0.7661
 6638TIP3   OH241472   6.403   0.646   7.841  0.2657 -0.2248 -0.0819
 6638TIP3    H141473   6.400   0.556   7.872 -0.0811  0.1384  1.0311
 6638TIP3    H241474   6.388   0.641   7.747 -1.6026 -1.2031  0.2237
 6639TIP3   OH241475   3.451   2.304   1.317  0.0596 -0.5465  0.0557
 6639TIP3    H141476   3.521   2.327   1.256 -0.2628 -1.5977 -0.7253
 6639TIP3    H241477   3.463   2.211   1.335  0.0912 -0.2877  1.5436
 6640TIP3   OH241478   0.615   1.938   1.729  0.4191  0.4840  0.5991
 6640TIP3    H141479   0.542   1.917   1.786 -0.2541  1.7508  0.2499
 6640TIP3    H241480   0.609   2.033   1.717  2.7677  0.8085  1.4471
 6641TIP3   OH241481   1.944   3.652   0.307  0.3550 -0.2764 -0.1752
 6641TIP3    H141482   1.918   3.731   0.354  1.1519  0.2075 -0.5419
 6641TIP3    H241483   2.018   3.679   0.253  0.9691 -1.3967  0.0843
 6642TIP3   OH241484   1.059   4.252   7.303  0.0745  0.3381  0.0437
 6642TIP3    H141485   0.986   4.273   7.361  0.8098 -0.1092  1.1771
 6642TIP3    H241486   1.031   4.172   7.258 -0.1938  0.2308  0.3925
 6643TIP3   OH241487   6.570   5.108   0.969 -0.5806 -0.1465 -0.1493
 6643TIP3    H141488   6.515   5.146   1.038 -0.9666 -1.4615  0.2911
 6643TIP3    H241489   6.558   5.014   0.978  1.4729 -0.4764 -0.2617
 6644TIP3   OH241490   0.234   6.860   0.606 -0.1856  0.4427  0.2333
 6644TIP3    H141491   0.238   6.917   0.529 -3.4324  0.0753 -0.3852
 6644TIP3    H241492   0.164   6.896   0.660 -0.2616 -1.2035  1.3317
 6645TIP3   OH241493   1.968   4.788   1.035 -0.3597 -0.2443  0.3288
 6645TIP3    H141494   1.873   4.774   1.033 -0.2432 -1.0669  0.3668
 6645TIP3    H241495   1.979   4.865   1.091 -1.0998  0.7817 -0.8890
 6646TIP3   OH241496   1.015   1.761   0.617  0.4897  0.0198 -0.0096
 6646TIP3    H141497   1.107   1.735   0.615  0.7981  0.2203  3.8649
 6646TIP3    H241498   0.967   1.678   0.623  0.5402 -0.0381 -0.4164
 6647TIP3   OH241499   0.083   5.289   0.586  0.3861  0.0398 -0.5961
 6647TIP3    H141500   0.098   5.378   0.619  0.8609 -0.4150  0.4714
 6647TIP3    H241501   0.171   5.254   0.570  0.4515 -1.3522  2.1482
 6648TIP3   OH241502   3.582   4.552   7.746  0.4067  0.1836 -0.4213
 6648TIP3    H141503   3.603   4.487   7.814  0.2810  1.6441  1.0692
 6648TIP3    H241504   3.526   4.616   7.790  0.0005  0.9836 -2.0218
 6649TIP3   OH241505   6.759   2.047   6.807  0.0135  0.6823  0.5174
 6649TIP3    H141506   6.741   2.051   6.713 -0.9543  1.9304  0.7219
 6649TIP3    H241507   6.673   2.054   6.849  0.2844 -1.2654  1.5107
 6650TIP3   OH241508   3.731   2.535   1.392  0.0076  0.0701 -0.4016
 6650TIP3    H141509   3.710   2.536   1.299 -1.4747 -1.0607 -0.1242
 6650TIP3    H241510   3.779   2.453   1.405 -0.4041 -0.1239 -0.0658
 6651TIP3   OH241511   1.832   1.745   2.161 -0.2689  0.2856 -0.6729
 6651TIP3    H141512   1.828   1.705   2.074 -0.1039 -0.4024 -0.3701
 6651TIP3    H241513   1.921   1.778   2.168  0.9423 -2.9001  0.6121
 6652TIP3   OH241514   5.367   4.626   1.073  0.1725  0.4053 -0.5143
 6652TIP3    H141515   5.330   4.545   1.107  1.5703  0.2997  0.8836
 6652TIP3    H241516   5.413   4.600   0.993  0.6597 -0.2207 -0.0417
 6653TIP3   OH241517   0.201   4.094   1.878  0.6066 -0.3443  0.0115
 6653TIP3    H141518   0.135   4.052   1.823 -0.8357  1.4583  0.2577
 6653TIP3    H241519   0.182   4.063   1.966 -1.8567  2.2534  0.5438
 6654TIP3   OH241520   2.096   4.220   1.737 -0.0085  0.2569 -0.1530
 6654TIP3    H141521   2.140   4.304   1.749  0.6064  0.2769 -2.2341
 6654TIP3    H241522   2.160   4.165   1.693 -1.2435 -0.5050 -1.0760
 6655TIP3   OH241523   2.354   1.029   1.255 -0.0694  0.1051 -0.7988
 6655TIP3    H141524   2.441   1.003   1.285 -0.1072 -0.4210 -1.1351
 6655TIP3    H241525   2.371   1.099   1.191  0.0613  0.5030 -0.3409
 6656TIP3   OH241526   2.950   2.333   1.474  0.6855  0.3724 -0.3213
 6656TIP3    H141527   2.981   2.393   1.405  2.2497  0.0851  0.0941
 6656TIP3    H241528   2.948   2.387   1.553  2.2922 -0.1156  0.0961
 6657TIP3   OH241529   4.976   0.540   0.276 -0.4044  0.8204 -0.1654
 6657TIP3    H141530   4.944   0.473   0.336 -2.2947  1.9654  0.1873
 6657TIP3    H241531   4.942   0.515   0.190 -1.0911  1.2790 -0.0377
 6658TIP3   OH241532   0.206   2.111   6.449 -0.4019 -0.0943  0.8155
 6658TIP3    H141533   0.207   2.178   6.380  0.6186 -0.2783  0.6400
 6658TIP3    H241534   0.254   2.151   6.521 -0.7964 -0.1991  1.1355
 6659TIP3   OH241535   5.513   2.402   0.630  0.8436 -0.0561 -0.6054
 6659TIP3    H141536   5.506   2.386   0.724 -0.4939  0.9108 -0.5288
 6659TIP3    H241537   5.554   2.488   0.624 -0.5032  0.5932 -0.8553
 6660TIP3   OH241538   0.689   5.129   8.616  0.8303  0.7740  0.2470
 6660TIP3    H141539   0.717   5.154   8.705  1.0572  4.8317 -0.7600
 6660TIP3    H241540   0.759   5.162   8.560 -0.5408  0.6569 -1.5935
 6661TIP3   OH241541   0.505   4.400   0.023  0.0696  0.3944 -0.1719
 6661TIP3    H141542   0.446   4.398  -0.052  0.7937  2.8963 -0.8957
 6661TIP3    H241543   0.465   4.462   0.083  1.1128  0.8746  0.0481
 6662TIP3   OH241544   6.445   0.066   1.738  0.5580 -0.1868  0.5497
 6662TIP3    H141545   6.426   0.147   1.786 -0.0097  0.5054 -0.7781
 6662TIP3    H241546   6.476   0.096   1.653 -0.3346 -1.3740 -0.2208
 6663TIP3   OH241547   5.099   6.595   1.146 -0.0774  0.2755 -0.2744
 6663TIP3    H141548   5.153   6.596   1.067  1.3148  0.2738  0.6371
 6663TIP3    H241549   5.155   6.634   1.213 -1.2101  0.2262  0.7266
 6664TIP3   OH241550   3.852   1.661   1.429 -0.0031  0.0613  0.3557
 6664TIP3    H141551   3.860   1.725   1.499 -0.5159 -1.0545  1.4830
 6664TIP3    H241552   3.855   1.576   1.474 -0.4914 -0.6812 -0.9493
 6665TIP3   OH241553   5.341   2.561   8.526  0.6116  0.1972 -0.1805
 6665TIP3    H141554   5.290   2.594   8.453 -1.1440 -3.7223 -1.0110
 6665TIP3    H241555   5.279   2.556   8.599  0.9871 -0.4469  0.1080
 6666TIP3   OH241556   3.631   4.625   0.803 -0.2665  0.2965 -0.4962
 6666TIP3    H141557   3.619   4.718   0.823 -0.9347  0.5149 -1.7658
 6666TIP3    H241558   3.568   4.580   0.859  0.0988  0.6014  0.1674
 6667TIP3   OH241559   4.652   6.831   2.840  0.7520  0.4550 -0.2001
 6667TIP3    H141560   4.610   6.859   2.921  2.3584 -1.9179  1.6026
 6667TIP3    H241561   4.583   6.784   2.792  0.6468 -1.4995  1.6911
 6668TIP3   OH241562   1.235   5.016   0.100  0.3883 -0.1717 -0.0740
 6668TIP3    H141563   1.287   4.958   0.046  1.7566  0.0193  0.9873
 6668TIP3    H241564   1.197   4.960   0.168 -0.6693 -0.2795 -0.7324
 6669TIP3   OH241565   6.435   2.644   1.207 -0.2122  0.1921  0.3544
 6669TIP3    H141566   6.523   2.608   1.196 -0.0014  0.5653  0.7567
 6669TIP3    H241567   6.422   2.648   1.302 -0.3453  0.8785  0.3148
 6670TIP3   OH241568   1.636   1.048   8.533 -0.1998  0.4978 -0.1992
 6670TIP3    H141569   1.632   1.143   8.539 -0.0466  0.4476  1.0863
 6670TIP3    H241570   1.663   1.020   8.621  0.0874 -0.7094 -0.6502
 6671TIP3   OH241571   0.837   0.542   1.705 -0.1470  0.5421 -0.1475
 6671TIP3    H141572   0.892   0.619   1.714  1.5351 -0.6225  0.0072
 6671TIP3    H241573   0.801   0.548   1.617  0.8771  0.9334 -0.5480
 6672TIP3   OH241574   1.310   6.793   6.571  0.0600 -0.5454  0.5190
 6672TIP3    H141575   1.215   6.799   6.576 -0.2366 -2.3158 -1.3649
 6672TIP3    H241576   1.338   6.768   6.659 -1.7689 -4.5726  0.1719
 6673TIP3   OH241577   6.316   4.720   6.701  0.0957 -0.1748  0.1899
 6673TIP3    H141578   6.265   4.765   6.633  1.8072  1.2739 -0.2108
 6673TIP3    H241579   6.291   4.628   6.693 -2.7787  0.5079  0.3567
 6674TIP3   OH241580   3.719   6.548   7.733 -0.0724 -0.5606  0.2406
 6674TIP3    H141581   3.770   6.560   7.653 -1.7267 -0.9067 -0.9179
 6674TIP3    H241582   3.684   6.635   7.751  0.2819 -0.4881  0.5919
 6675TIP3   OH241583   6.157   5.168   0.846 -0.0959 -0.4142  0.0484
 6675TIP3    H141584   6.197   5.081   0.848  1.9549  0.4712  0.2812
 6675TIP3    H241585   6.105   5.173   0.926 -1.2630 -1.8324 -0.5683
 6676TIP3   OH241586   2.545   5.798   0.629 -0.2854  0.0405  0.2549
 6676TIP3    H141587   2.632   5.779   0.664 -0.5169  1.4618  1.7464
 6676TIP3    H241588   2.497   5.836   0.703 -2.5778 -1.7354 -0.1822
 6677TIP3   OH241589   2.273   3.816   0.496  0.2201  0.3881 -0.0668
 6677TIP3    H141590   2.227   3.882   0.548 -0.2645 -0.4761  0.6402
 6677TIP3    H241591   2.341   3.865   0.450 -1.2145  1.6752 -0.9409
 6678TIP3   OH241592   5.210   6.386   1.819 -0.1276  0.3265  0.5970
 6678TIP3    H141593   5.123   6.418   1.794  0.2850 -0.5713 -2.3390
 6678TIP3    H241594   5.195   6.295   1.845 -0.0633  0.0543 -0.2724
 6679TIP3   OH241595   5.630   1.900   1.301  0.1515 -0.2283  0.4952
 6679TIP3    H141596   5.688   1.964   1.259  0.5263 -0.3935  0.7576
 6679TIP3    H241597   5.666   1.815   1.276  0.9373 -0.3389  1.8962
 6680TIP3   OH241598   1.774   0.429   0.264 -0.4083  0.1526 -0.0192
 6680TIP3    H141599   1.850   0.435   0.322 -1.2675  2.2007  0.9662
 6680TIP3    H241600   1.739   0.518   0.259 -2.7514 -0.7145 -0.4438
 6681TIP3   OH241601   6.716   2.009   1.882  0.4381 -0.4423 -0.6621
 6681TIP3    H141602   6.681   2.009   1.793 -0.0105 -1.9441 -0.5132
 6681TIP3    H241603   6.769   1.929   1.887  0.0663 -0.6291  0.5678
 6682TIP3   OH241604   1.077   5.261   7.284 -0.0064  0.2363  0.2454
 6682TIP3    H141605   1.035   5.280   7.201  0.0026 -0.9751 -0.0395
 6682TIP3    H241606   1.070   5.344   7.333 -2.7894  0.0782  0.2568
 6683TIP3   OH241607   6.315   1.489   0.403  0.2991 -0.0131  0.1359
 6683TIP3    H141608   6.319   1.409   0.351  0.0636  1.5541 -2.4633
 6683TIP3    H241609   6.405   1.521   0.404 -0.2522  2.0270 -2.9443
 6684TIP3   OH241610   6.831   0.777   7.397 -0.1381 -0.2051  0.6280
 6684TIP3    H141611   6.847   0.732   7.480 -0.8221 -0.6653  0.5222
 6684TIP3    H241612   6.861   0.715   7.330  1.0655  0.4480  0.5384
 6685TIP3   OH241613   1.464   0.885   0.596 -0.2185  0.0030  0.3280
 6685TIP3    H141614   1.462   0.814   0.531  1.5645 -1.1866  1.4907
 6685TIP3    H241615   1.407   0.855   0.666  0.4890 -0.2679  0.7946
 6686TIP3   OH241616   4.401   1.788   0.207  0.1955  0.0905 -0.1884
 6686TIP3    H141617   4.348   1.774   0.285  0.4169  0.1547 -0.0249
 6686TIP3    H241618   4.455   1.865   0.227  1.4401 -0.8509  0.2496
 6687TIP3   OH241619   3.962   5.691   1.303  0.5602 -0.7938 -0.1089
 6687TIP3    H141620   3.970   5.642   1.385 -3.2396 -1.0058  0.3127
 6687TIP3    H241621   4.018   5.645   1.241  2.8397 -1.1665  2.0749
 6688TIP3   OH241622   4.104   4.880   8.482 -0.2181  0.5161  0.1813
 6688TIP3    H141623   4.190   4.894   8.523  0.2728 -0.0237 -0.6296
 6688TIP3    H241624   4.045   4.938   8.530  0.5503  0.7029  0.9248
 6689TIP3   OH241625   6.213   5.155   7.355 -0.1361 -0.3218  0.7303
 6689TIP3    H141626   6.283   5.215   7.378 -1.6865  0.5321  3.8157
 6689TIP3    H241627   6.204   5.163   7.260  0.9763  2.9367  0.7830
 6690TIP3   OH241628   4.460   1.110   1.078 -0.0548  0.0206 -0.3704
 6690TIP3    H141629   4.443   1.042   1.143  1.8929  0.6542  0.8876
 6690TIP3    H241630   4.539   1.081   1.033 -0.4983  0.3601 -1.3790
 6691TIP3   OH241631   1.391   1.877   1.699  0.6306  0.2525  0.3331
 6691TIP3    H141632   1.427   1.820   1.767  1.0870  0.9614  0.6917
 6691TIP3    H241633   1.427   1.964   1.718 -1.3355  1.0251  0.7452
 6692TIP3   OH241634   6.687   2.754   7.446 -0.0892 -0.0476 -0.2576
 6692TIP3    H141635   6.633   2.833   7.441  1.0920  0.8460  0.5059
 6692TIP3    H241636   6.709   2.734   7.354  0.0292  0.8238 -0.4245
 6693TIP3   OH241637   2.790   5.114   0.218 -0.3430 -0.3286  0.0719
 6693TIP3    H141638   2.780   5.033   0.269  0.0469  0.2042  0.9995
 6693TIP3    H241639   2.819   5.083   0.132 -0.8015 -1.2184  0.2125
 6694TIP3   OH241640   6.054   0.925   1.486 -0.0790 -0.2942  0.0097
 6694TIP3    H141641   5.973   0.903   1.532 -0.0487 -1.3640 -0.4194
 6694TIP3    H241642   6.028   0.990   1.420  0.1333  2.4870  2.4603
 6695TIP3   OH241643   2.605   1.090   6.706 -0.1806  0.4009 -0.4507
 6695TIP3    H141644   2.626   1.058   6.619  3.5474  0.0144  0.4048
 6695TIP3    H241645   2.657   1.035   6.765 -0.1754  2.5893  1.7578
 6696TIP3   OH241646   5.232   2.378   7.637  0.2453 -0.2947  0.2056
 6696TIP3    H141647   5.199   2.466   7.618  2.5570  0.5662 -0.1734
 6696TIP3    H241648   5.191   2.323   7.571  0.1569  0.8369 -0.7258
 6697TIP3   OH241649   3.503   0.683   1.941  0.1189 -0.7642  0.6754
 6697TIP3    H141650   3.557   0.736   1.882  1.5656 -2.8545 -0.0332
 6697TIP3    H241651   3.566   0.647   2.004 -1.5211  2.5668  4.6984
 6698TIP3   OH241652   3.050   3.580   7.832  0.2446  0.6191  0.5004
 6698TIP3    H141653   3.012   3.566   7.746  1.0140  0.4813  0.1709
 6698TIP3    H241654   3.013   3.511   7.887  1.9765 -1.1469 -0.4573
 6699TIP3   OH241655   6.669   2.201   7.512 -0.1049  0.1651  0.6240
 6699TIP3    H141656   6.676   2.297   7.516 -1.5733  0.3596 -0.6605
 6699TIP3    H241657   6.725   2.176   7.439 -0.9065  0.2087 -0.0128
 6700TIP3   OH241658   0.677   0.466   7.512 -0.5580 -0.4935 -0.4142
 6700TIP3    H141659   0.730   0.537   7.477  0.5027 -1.3816 -0.6709
 6700TIP3    H241660   0.725   0.387   7.489 -0.7818 -1.2189  1.4300
 6701TIP3   OH241661   1.494   3.874   7.274 -0.0864  0.3992  0.0542
 6701TIP3    H141662   1.532   3.943   7.329 -0.1100 -0.4127  1.1226
 6701TIP3    H241663   1.533   3.888   7.188 -0.1436  1.7860  0.2279
 6702TIP3   OH241664   4.257   5.185   8.264 -0.6427  0.0713  0.6707
 6702TIP3    H141665   4.248   5.221   8.176 -0.4784 -0.2470  0.5211
 6702TIP3    H241666   4.235   5.092   8.254  1.4048 -0.4334  0.5579
 6703TIP3   OH241667   2.086   1.556   0.564  0.3583  0.0242 -0.1911
 6703TIP3    H141668   2.120   1.551   0.475 -1.7758 -2.0466 -1.0223
 6703TIP3    H241669   2.162   1.540   0.621  1.3146 -1.2878 -1.7663
 6704TIP3   OH241670   5.736   6.074   8.482  0.1647 -0.3583 -0.0309
 6704TIP3    H141671   5.757   5.993   8.529 -0.8742  0.6296  2.3270
 6704TIP3    H241672   5.799   6.078   8.410 -0.8116 -4.0605 -1.2755
 6705TIP3   OH241673   2.690   2.748   1.900  0.0417  0.0309  0.5245
 6705TIP3    H141674   2.595   2.738   1.899 -0.1069  1.2482 -0.4656
 6705TIP3    H241675   2.721   2.678   1.958 -1.5748  0.8528  2.5005
 6706TIP3   OH241676   4.543   3.876   0.745 -0.2146 -0.1117  0.1347
 6706TIP3    H141677   4.466   3.928   0.769 -1.1194 -1.9610  1.4702
 6706TIP3    H241678   4.572   3.913   0.662  0.2541  3.6199  1.7780
 6707TIP3   OH241679   3.073   6.695   1.292 -0.1378 -0.1662  0.2131
 6707TIP3    H141680   3.021   6.617   1.305  0.4044 -0.3966  1.0654
 6707TIP3    H241681   3.030   6.763   1.344 -0.7863  0.1984 -0.7712
 6708TIP3   OH241682   5.488   5.739   8.191 -1.1171  0.1771 -0.2961
 6708TIP3    H141683   5.577   5.717   8.217 -0.7457  1.8829 -0.0290
 6708TIP3    H241684   5.437   5.659   8.208  0.0401 -0.2991  1.0769
 6709TIP3   OH241685   0.760   3.074   1.814  0.6220 -0.3000 -0.9829
 6709TIP3    H141686   0.725   3.096   1.900 -0.4823 -1.7432 -1.0341
 6709TIP3    H241687   0.840   3.025   1.833  0.3998 -0.5847 -0.7802
 6710TIP3   OH241688   0.884   2.923   7.897  0.0629 -0.4070 -0.1634
 6710TIP3    H141689   0.874   2.830   7.915 -0.0361 -0.0267  2.0453
 6710TIP3    H241690   0.866   2.966   7.981  1.5993  1.5020 -0.7220
 6711TIP3   OH241691   1.911   2.499   8.517 -0.0030  0.1096 -0.2963
 6711TIP3    H141692   1.866   2.578   8.549  1.6476  0.7959  0.4388
 6711TIP3    H241693   1.919   2.443   8.595  0.4167 -0.0056 -0.4225
 6712TIP3   OH241694   0.229   3.047   0.988  0.1497 -0.1059  0.1476
 6712TIP3    H141695   0.139   3.079   0.996 -0.3864 -1.5984  0.3888
 6712TIP3    H241696   0.283   3.119   1.020 -0.8926  1.1641 -0.8411
 6713TIP3   OH241697   3.484   3.622   7.164  0.0087 -0.2380  0.1840
 6713TIP3    H141698   3.545   3.689   7.194 -0.7703 -0.2884  1.9606
 6713TIP3    H241699   3.418   3.670   7.113  0.2729  0.1188  0.1747
 6714TIP3   OH241700   3.109   0.299   8.609  0.0404 -0.5238 -0.1574
 6714TIP3    H141701   3.184   0.330   8.659  1.2716 -1.3005 -1.4474
 6714TIP3    H241702   3.035   0.304   8.670  1.4537 -1.3812  1.7104
 6715TIP3   OH241703   0.495   5.229   7.445 -0.1058  0.2192  0.1948
 6715TIP3    H141704   0.497   5.167   7.372  1.9657  0.7460 -0.2571
 6715TIP3    H241705   0.471   5.313   7.405  0.4102  0.3832  0.2287
 6716TIP3   OH241706   4.173   6.201   6.941  0.2248  0.3871 -0.3791
 6716TIP3    H141707   4.132   6.171   7.022 -0.9278  0.2268 -1.0056
 6716TIP3    H241708   4.115   6.270   6.909  0.8370  0.6637 -0.9271
 6717TIP3   OH241709   1.101   4.277   2.391  0.2212  0.1695  0.5956
 6717TIP3    H141710   1.115   4.213   2.321 -1.9742 -2.0356  2.0140
 6717TIP3    H241711   1.065   4.354   2.346  0.7507 -0.4391 -0.9169
 6718TIP3   OH241712   1.390   1.802   2.407  0.4283  0.2439  0.1105
 6718TIP3    H141713   1.318   1.744   2.430  1.7259 -1.0958  1.0199
 6718TIP3    H241714   1.352   1.865   2.346 -1.2405 -1.0547 -0.2702
 6719TIP3   OH241715   5.870   0.076   0.404  0.3578 -0.3018 -0.3075
 6719TIP3    H141716   5.847  -0.001   0.456  0.1907 -0.1103 -0.0948
 6719TIP3    H241717   5.792   0.093   0.351 -0.2767  0.7555  0.9055
 6720TIP3   OH241718   1.552   4.738   7.311  0.3939 -0.1856  0.3649
 6720TIP3    H141719   1.509   4.743   7.396  0.1305  0.8692  0.1824
 6720TIP3    H241720   1.597   4.822   7.302  1.1057 -0.6105 -0.1855
 6721TIP3   OH241721   6.383   2.844   1.986 -0.9326 -0.3744 -0.3454
 6721TIP3    H141722   6.363   2.935   2.005  0.2892 -0.4064  1.3003
 6721TIP3    H241723   6.298   2.802   1.973 -1.5547  0.7662 -0.0462
 6722TIP3   OH241724   1.314   0.239   8.058  0.2342  0.5291  0.1618
 6722TIP3    H141725   1.347   0.263   7.972  0.4927  0.0663  0.1334
 6722TIP3    H241726   1.287   0.148   8.050  1.0385  0.2223  0.7919
 6723TIP3   OH241727   2.556   5.459   7.761 -0.5437  0.6410 -0.2100
 6723TIP3    H141728   2.650   5.458   7.746 -0.3428  1.3445  0.8746
 6723TIP3    H241729   2.543   5.410   7.842 -1.2246 -0.2929 -0.8703
 6724TIP3   OH241730   6.709   5.317   1.371  0.5552 -0.1457  0.2065
 6724TIP3    H141731   6.652   5.306   1.447  1.0496  1.1160  0.7817
 6724TIP3    H241732   6.672   5.258   1.305  0.8154 -2.1533  1.7893
 6725TIP3   OH241733   6.651   2.836   2.461 -0.6557 -0.2267 -0.1832
 6725TIP3    H141734   6.640   2.869   2.372  0.4017  0.0374 -0.2240
 6725TIP3    H241735   6.701   2.904   2.506  0.9598 -1.4348 -0.0795
 6726TIP3   OH241736   1.737   2.291   8.023  0.2809 -0.1143 -0.1742
 6726TIP3    H141737   1.654   2.247   8.040 -0.7112  0.1491 -3.5702
 6726TIP3    H241738   1.713   2.379   7.994  1.5468 -0.4233 -2.4600
 6727TIP3   OH241739   4.329   6.422   1.930 -0.3852 -0.3087 -0.3927
 6727TIP3    H141740   4.250   6.421   1.876 -0.3824  1.5032 -0.5087
 6727TIP3    H241741   4.330   6.337   1.973 -1.2447 -1.1886 -2.0141
 6728TIP3   OH241742   6.240   5.650   1.587  0.4447  0.5823  0.1339
 6728TIP3    H141743   6.327   5.614   1.569 -0.2596 -0.5905 -1.1334
 6728TIP3    H241744   6.182   5.574   1.585 -0.8077  1.5234 -0.5543
 6729TIP3   OH241745   0.067   0.567   7.261  0.0015  0.4580  0.3882
 6729TIP3    H141746   0.047   0.477   7.238  0.4677  0.6646 -0.8970
 6729TIP3    H241747   0.138   0.592   7.202  2.2488  0.6002  2.9720
 6730TIP3   OH241748   2.001   1.224   7.072  0.1322  0.0134  0.5962
 6730TIP3    H141749   1.931   1.189   7.017 -1.0154 -1.4687  2.8413
 6730TIP3    H241750   2.003   1.167   7.149  1.3556  2.1664  2.3133
 6731TIP3   OH241751   4.920   5.876   2.449 -0.2328  0.3908  0.1671
 6731TIP3    H141752   4.891   5.807   2.509  0.6283 -1.4848 -1.4543
 6731TIP3    H241753   5.007   5.900   2.479 -0.5220  0.7558  0.7194
 6732TIP3   OH241754   2.705   6.254   1.839  0.1108  0.5032 -0.6165
 6732TIP3    H141755   2.655   6.335   1.830  0.6672  0.7263 -1.8654
 6732TIP3    H241756   2.642   6.190   1.871 -0.4169  1.3324  0.0476
 6733TIP3   OH241757   6.293   2.431   7.417  0.1451  0.2235  0.2552
 6733TIP3    H141758   6.271   2.507   7.470 -2.7295 -1.5937  1.9135
 6733TIP3    H241759   6.340   2.373   7.477  0.6704 -0.0923 -0.4508
 6734TIP3   OH241760   5.567   1.518   1.997 -0.0750 -0.2535  0.2461
 6734TIP3    H141761   5.588   1.550   2.084  0.1136 -0.0872  0.1413
 6734TIP3    H241762   5.472   1.530   1.988 -0.6534 -2.9859  1.5392
 6735TIP3   OH241763   4.389   0.838   0.070 -0.5543 -0.1255 -0.2642
 6735TIP3    H141764   4.452   0.851  -0.001  0.0504  1.2624  0.5014
 6735TIP3    H241765   4.326   0.909   0.061 -1.5223 -0.9701 -0.4566
 6736TIP3   OH241766   2.485   6.442   1.891  0.0459 -0.2389  0.1784
 6736TIP3    H141767   2.466   6.521   1.840  1.0143  0.1255  0.3741
 6736TIP3    H241768   2.460   6.370   1.833  2.6281  0.1045 -1.5380
 6737TIP3   OH241769   2.936   0.285   8.366  0.2671 -0.2592 -0.6601
 6737TIP3    H141770   2.975   0.341   8.434 -0.3992 -0.3311 -0.2094
 6737TIP3    H241771   2.857   0.249   8.407 -1.0237  0.9372 -1.9879
 6738TIP3   OH241772   3.326   2.350   7.161 -0.4192  0.1483  0.3163
 6738TIP3    H141773   3.256   2.407   7.192 -0.3029 -0.6977  2.2545
 6738TIP3    H241774   3.307   2.265   7.200 -0.5583 -1.2069 -2.4341
 6739TIP3   OH241775   1.619   6.422   7.318 -0.0816 -0.5163 -0.0551
 6739TIP3    H141776   1.714   6.414   7.319 -0.0568 -0.2032  1.1672
 6739TIP3    H241777   1.588   6.332   7.330  0.0790 -0.4904  0.6017
 6740TIP3   OH241778   2.037   2.596   0.962  0.1294 -0.1574  0.2383
 6740TIP3    H141779   2.025   2.501   0.950 -0.2210  0.1150 -2.0586
 6740TIP3    H241780   2.003   2.614   1.049 -2.0207 -1.8110 -0.1816
 6741TIP3   OH241781   5.050   5.382   1.088  0.1833 -0.5698 -0.8534
 6741TIP3    H141782   4.957   5.361   1.090 -0.5955  2.4717 -0.1422
 6741TIP3    H241783   5.061   5.431   1.007  0.1277  2.8003  1.0198
 6742TIP3   OH241784   0.140   2.040   1.046 -0.3141  0.3612  0.2612
 6742TIP3    H141785   0.191   2.028   0.966 -0.2939  3.1563 -0.2279
 6742TIP3    H241786   0.180   1.979   1.109 -0.0565 -1.5760 -1.6684
 6743TIP3   OH241787   2.476   0.275   6.611  0.3942  0.2030  0.2306
 6743TIP3    H141788   2.459   0.183   6.631 -1.5408  0.5953  0.7122
 6743TIP3    H241789   2.547   0.300   6.671  0.9618 -0.9669  0.0683
 6744TIP3   OH241790   1.617   0.258   6.991 -0.2342 -0.5298 -0.1160
 6744TIP3    H141791   1.676   0.214   7.052 -1.3670 -1.8692  0.0652
 6744TIP3    H241792   1.598   0.193   6.924 -1.3601 -0.0901 -0.2510
 6745TIP3   OH241793   5.235   3.523   7.155  0.0634  0.5324 -0.4631
 6745TIP3    H141794   5.250   3.475   7.074  2.4912 -1.2216  0.9250
 6745TIP3    H241795   5.150   3.492   7.187  0.9181 -1.8204 -0.3454
 6746TIP3   OH241796   6.624   4.625   0.494  0.3589 -0.4540 -0.3225
 6746TIP3    H141797   6.595   4.598   0.407 -2.1530  0.7227  0.0694
 6746TIP3    H241798   6.552   4.600   0.552  0.6262  1.5040  0.9356
 6747TIP3   OH241799   4.455   2.500   7.908  0.1623 -0.7385 -0.3828
 6747TIP3    H141800   4.534   2.545   7.878 -1.7932  1.0403 -3.2894
 6747TIP3    H241801   4.437   2.435   7.840 -0.8205 -1.1909  0.2915
 6748TIP3   OH241802   0.524   6.348   1.706  0.3280 -0.2649 -0.6124
 6748TIP3    H141803   0.558   6.260   1.693  1.7326  0.2956 -0.8852
 6748TIP3    H241804   0.564   6.379   1.787 -0.6318 -0.0833 -0.1880
 6749TIP3   OH241805   4.805   1.303   1.862 -0.0949  0.7414 -0.3047
 6749TIP3    H141806   4.764   1.226   1.900  1.3088 -0.3314 -0.9073
 6749TIP3    H241807   4.733   1.349   1.818 -0.4980 -1.8265 -2.5398
 6750TIP3   OH241808   1.539   1.453   7.681  0.3195  0.5458 -0.0938
 6750TIP3    H141809   1.558   1.361   7.696  0.9008  0.3614 -1.7620
 6750TIP3    H241810   1.584   1.474   7.599 -1.4617  1.7904 -0.8087
 6751TIP3   OH241811   0.324   2.396   6.904  0.7252  0.0843  0.3352
 6751TIP3    H141812   0.420   2.396   6.901  0.8173  3.6871 -0.1083
 6751TIP3    H241813   0.297   2.457   6.836 -1.9469 -1.0084  0.3000
 6752TIP3   OH241814   6.740   4.484   0.897 -0.6851 -0.1626 -0.5330
 6752TIP3    H141815   6.663   4.443   0.936 -1.2551  1.0229 -0.3865
 6752TIP3    H241816   6.753   4.564   0.947  0.4645 -0.1825 -0.7682
 6753TIP3   OH241817   2.211   2.860   6.863  0.4214 -0.0842  0.6827
 6753TIP3    H141818   2.162   2.809   6.799  0.9548  0.6637 -0.3709
 6753TIP3    H241819   2.212   2.806   6.942  1.2348 -1.8692 -0.4637
 6754TIP3   OH241820   0.776   3.869   8.132 -0.5847 -0.4318  0.1132
 6754TIP3    H141821   0.703   3.827   8.087 -0.2399 -0.4367 -0.4511
 6754TIP3    H241822   0.812   3.802   8.189 -1.2154 -0.3368  0.6374
 6755TIP3   OH241823   5.194   6.331   0.936 -0.6916 -0.7964 -0.5388
 6755TIP3    H141824   5.288   6.321   0.919 -0.8322 -0.1636 -1.8125
 6755TIP3    H241825   5.184   6.306   1.028  0.8590 -0.0165 -0.1179
 6756TIP3   OH241826   0.420   4.344   7.277  0.0722 -0.0689 -0.6852
 6756TIP3    H141827   0.430   4.363   7.183 -0.1997 -0.6208 -0.8304
 6756TIP3    H241828   0.328   4.363   7.295  0.8656  3.6063  0.3227
 6757TIP3   OH241829   1.432   2.118   1.830 -0.7995  0.5055  0.3456
 6757TIP3    H141830   1.354   2.113   1.885 -0.1653 -1.7166  1.1584
 6757TIP3    H241831   1.504   2.132   1.891 -0.1958 -1.0796  0.0651
 6758TIP3   OH241832   4.989   5.881   7.565 -0.2596 -0.3477  0.1719
 6758TIP3    H141833   4.986   5.969   7.602 -0.4348 -0.3177  0.0852
 6758TIP3    H241834   5.082   5.860   7.562 -0.2883 -0.7176  1.4910
 6759TIP3   OH241835   3.938   1.766   7.960 -0.6116 -0.4834 -0.0981
 6759TIP3    H141836   3.920   1.677   7.991 -1.1949  0.2141  1.7592
 6759TIP3    H241837   4.031   1.766   7.938 -0.7660 -1.7318 -0.8063
 6760TIP3   OH241838   2.182   6.264   0.603  0.1492  0.7595  0.1030
 6760TIP3    H141839   2.138   6.345   0.576 -0.4436  0.8525  1.2680
 6760TIP3    H241840   2.258   6.294   0.653 -0.0675  0.6111  0.5302
 6761TIP3   OH241841   0.847   5.405   7.552  0.4115  0.0053  0.4734
 6761TIP3    H141842   0.756   5.434   7.541  0.4084 -0.6283 -1.4928
 6761TIP3    H241843   0.898   5.463   7.496  1.1419 -0.1075  1.0130
 6762TIP3   OH241844   4.900   1.636   7.619 -0.1162 -0.3150  0.3325
 6762TIP3    H141845   4.955   1.651   7.542 -0.9323  1.7768  0.0978
 6762TIP3    H241846   4.828   1.697   7.609 -0.3882 -0.1763  2.6540
 6763TIP3   OH241847   2.781   1.839   7.744  0.0265  0.2129  0.0545
 6763TIP3    H141848   2.794   1.931   7.769  0.4626  0.6325 -1.5914
 6763TIP3    H241849   2.693   1.838   7.704  0.4772  0.1768 -0.9680
 6764TIP3   OH241850   4.722   3.237   7.381  0.6217 -0.0809 -0.4459
 6764TIP3    H141851   4.637   3.195   7.392 -0.1415  1.6086  0.5125
 6764TIP3    H241852   4.725   3.264   7.289  0.1369 -0.2109 -0.4999
 6765TIP3   OH241853   4.448   3.299   7.178 -0.1631 -0.0573 -0.1922
 6765TIP3    H141854   4.375   3.360   7.176 -0.2639 -0.1769 -1.6154
 6765TIP3    H241855   4.408   3.213   7.191 -0.4153 -0.2420 -1.9129
 6766TIP3   OH241856   1.370   3.079   7.027  0.3512 -0.1425  0.3243
 6766TIP3    H141857   1.399   3.043   6.943  0.2491 -1.6113  0.8790
 6766TIP3    H241858   1.445   3.067   7.086  0.5349  1.1611  0.3830
 6767TIP3   OH241859   3.890   0.854   0.633  0.3935 -0.1624  0.5339
 6767TIP3    H141860   3.903   0.827   0.724 -1.0661 -0.5820  0.6487
 6767TIP3    H241861   3.928   0.782   0.581 -0.9221 -1.1299  0.8433
 6768TIP3   OH241862   0.432   2.565   1.018 -0.4200 -0.3760 -0.6200
 6768TIP3    H141863   0.399   2.632   1.079  0.5169  0.1074 -0.6208
 6768TIP3    H241864   0.355   2.513   0.996 -0.8069 -0.5439  0.9515
 6769TIP3   OH241865   5.927   3.902   0.849 -0.0913 -0.4941 -0.3202
 6769TIP3    H141866   5.966   3.831   0.900 -2.0550 -0.6196  1.1341
 6769TIP3    H241867   5.859   3.938   0.906  0.2160  1.9748 -1.3813
 6770TIP3   OH241868   1.520   6.161   7.338  0.2338  0.4024  0.0473
 6770TIP3    H141869   1.505   6.118   7.253  2.4948  0.2452 -0.3417
 6770TIP3    H241870   1.433   6.185   7.368 -0.7535 -0.7414 -1.6940
 6771TIP3   OH241871   6.066   1.043   8.392 -0.3181  0.3946  0.5476
 6771TIP3    H141872   6.071   1.135   8.366  1.3498  0.2852  0.3268
 6771TIP3    H241873   6.116   1.039   8.474 -2.4512  0.0875  1.9052
 6772TIP3   OH241874   2.055   1.137   6.703  0.3073  0.3520  0.0230
 6772TIP3    H141875   2.099   1.068   6.653 -1.6028 -0.1251 -1.0904
 6772TIP3    H241876   2.007   1.187   6.638 -1.7140  0.1347  1.2779
 6773TIP3   OH241877   5.081   1.143   8.451 -0.1979 -0.4925  0.1016
 6773TIP3    H141878   5.152   1.202   8.475  0.7175 -1.5552  0.0718
 6773TIP3    H241879   5.013   1.160   8.516 -0.0882  0.8128 -0.1028
 6774TIP3   OH241880   5.962   4.532   8.560 -0.0698  0.0245  0.2595
 6774TIP3    H141881   5.979   4.456   8.505 -1.1347  0.3003 -0.4686
 6774TIP3    H241882   5.906   4.499   8.631  0.0836 -0.0201  0.3609
 6775TIP3   OH241883   1.446   1.453   2.089  0.3252  0.0848  0.2093
 6775TIP3    H141884   1.406   1.524   2.038  2.4689  2.5079  1.6973
 6775TIP3    H241885   1.395   1.450   2.170  0.4443  0.1426  0.2863
 6776TIP3   OH241886   3.278   5.293   8.689  0.4475 -0.2616  0.5746
 6776TIP3    H141887   3.321   5.210   8.709  0.6389 -0.1217  0.7564
 6776TIP3    H241888   3.347   5.359   8.703  0.1503 -0.0265  0.9515
 6777TIP3   OH241889   6.456   0.326   1.240 -0.3272  0.4441  0.2765
 6777TIP3    H141890   6.448   0.395   1.307 -0.4346  0.7108 -0.0076
 6777TIP3    H241891   6.500   0.369   1.167  0.9300 -0.1942  0.6452
 6778TIP3   OH241892   3.889   1.656   0.679 -0.3187 -0.4898  0.0623
 6778TIP3    H141893   3.807   1.606   0.678  0.4662 -1.8273 -0.1765
 6778TIP3    H241894   3.922   1.647   0.768 -0.7288  0.5871  0.3371
 6779TIP3   OH241895   2.246   1.794   8.419 -0.1576 -0.8883 -0.1046
 6779TIP3    H141896   2.203   1.867   8.464 -0.5805 -1.5794  0.6571
 6779TIP3    H241897   2.184   1.768   8.351  0.8720  0.7398 -1.7514
 6780TIP3   OH241898   4.645   6.427   0.528 -0.3270  0.0826 -0.2420
 6780TIP3    H141899   4.624   6.489   0.599 -1.2208  1.7951 -1.9077
 6780TIP3    H241900   4.667   6.483   0.454 -0.9883 -1.6142 -1.7872
 6781TIP3   OH241901   3.977   0.595   2.378 -0.2953  0.2360  0.2509
 6781TIP3    H141902   4.071   0.608   2.362 -0.3528  0.9127  0.4386
 6781TIP3    H241903   3.938   0.681   2.365 -1.3067 -0.5405 -2.4594
 6782TIP3   OH241904   5.349   5.380   0.239 -0.4639  0.0612 -0.0733
 6782TIP3    H141905   5.266   5.414   0.207  0.0875  1.2933 -0.2579
 6782TIP3    H241906   5.328   5.293   0.273 -1.5819 -0.1712 -1.2759
 6783TIP3   OH241907   4.173   3.959   8.113 -0.0669 -0.1812  0.1222
 6783TIP3    H141908   4.269   3.965   8.111  0.0440 -1.5723  0.6679
 6783TIP3    H241909   4.146   3.997   8.029  0.7944  2.4671  0.9470
 6784TIP3   OH241910   5.749   0.976   1.379 -0.2375  0.3337  0.3015
 6784TIP3    H141911   5.745   0.964   1.284 -0.5379  0.5554  0.2856
 6784TIP3    H241912   5.731   1.069   1.393 -0.1980  0.3013  0.5747
 6785TIP3   OH241913   4.989   2.829   7.815 -0.1454  0.2973 -0.3584
 6785TIP3    H141914   4.996   2.918   7.780  0.3199  0.1771 -0.5719
 6785TIP3    H241915   5.077   2.793   7.810 -0.3299 -0.1826 -0.2859
 6786TIP3   OH241916   2.881   6.432   8.084 -0.0230  0.4737 -0.0281
 6786TIP3    H141917   2.846   6.494   8.148  0.1535  2.4144 -1.7247
 6786TIP3    H241918   2.828   6.446   8.006  0.3981 -1.1544 -0.6425
 6787TIP3   OH241919   3.933   2.745   7.281 -0.2306  0.2017  0.0681
 6787TIP3    H141920   4.021   2.709   7.287 -1.2799 -2.6963 -0.4498
 6787TIP3    H241921   3.910   2.740   7.188 -1.7342 -1.3136  0.4665
 6788TIP3   OH241922   3.381   3.396   0.516  0.1362 -0.3279 -0.1518
 6788TIP3    H141923   3.451   3.359   0.571 -1.6916 -1.0092  1.8547
 6788TIP3    H241924   3.395   3.355   0.430  1.6397 -1.1704  0.4491
 6789TIP3   OH241925   0.410   0.708   8.583 -0.9940 -0.2007  0.0093
 6789TIP3    H141926   0.418   0.694   8.488  0.8410 -2.2134  0.3931
 6789TIP3    H241927   0.480   0.769   8.604 -0.7304 -0.5732  0.2138
 6790TIP3   OH241928   3.661   5.158   7.938  0.0087 -0.3809 -0.0389
 6790TIP3    H141929   3.728   5.092   7.953 -1.4005 -1.7220  0.6555
 6790TIP3    H241930   3.697   5.239   7.975  0.7794 -1.3222  1.3063
 6791TIP3   OH241931   1.281   6.554   1.239 -0.0756  0.0904  0.0027
 6791TIP3    H141932   1.227   6.631   1.255 -1.5010 -0.8007 -0.3062
 6791TIP3    H241933   1.371   6.585   1.246 -0.5910  2.0141 -1.2261
 6792TIP3   OH241934   3.116   0.070   7.207 -0.1480  0.1990  0.1057
 6792TIP3    H141935   3.197   0.062   7.157 -0.0084  0.7206  0.2452
 6792TIP3    H241936   3.102   0.164   7.216 -0.0616  0.1237  1.2094
 6793TIP3   OH241937   1.131   1.060   1.051 -0.2651 -0.0242  0.3604
 6793TIP3    H141938   1.176   1.140   1.077  0.2481 -0.3141  0.3969
 6793TIP3    H241939   1.091   1.080   0.967 -0.9438  0.5603  0.8179
 6794TIP3   OH241940   3.123   5.525   8.700 -0.4259 -0.1106 -0.0634
 6794TIP3    H141941   3.186   5.463   8.736 -2.0311 -0.9217  1.4917
 6794TIP3    H241942   3.169   5.566   8.627  2.4101  0.4073  1.8615
 6795TIP3   OH241943   4.669   5.970   7.996  0.4328 -0.3989 -0.1865
 6795TIP3    H141944   4.669   5.876   8.014 -0.3756 -0.0287  2.0715
 6795TIP3    H241945   4.603   5.982   7.928 -1.8653 -1.1559  1.7808
 6796TIP3   OH241946   0.001   0.065   8.544 -0.5356  0.2669 -0.3636
 6796TIP3    H141947  -0.044   0.048   8.461 -0.8678  0.1932 -0.1691
 6796TIP3    H241948  -0.070   0.076   8.608 -0.2790 -2.0867  0.4087
 6797TIP3   OH241949   4.707   3.730   1.701  0.2732  0.0581 -0.7155
 6797TIP3    H141950   4.742   3.736   1.790  1.6298 -0.2188 -1.2075
 6797TIP3    H241951   4.739   3.809   1.657 -0.0096 -0.0281 -1.0861
 6798TIP3   OH241952   2.354   6.508   2.500 -0.2399 -0.1775  0.0256
 6798TIP3    H141953   2.380   6.426   2.542  1.4097 -1.3759 -2.9712
 6798TIP3    H241954   2.277   6.484   2.448  0.2491  0.1266 -0.8598
 6799TIP3   OH241955   1.773   2.424   0.114 -0.2458 -0.8914  1.0457
 6799TIP3    H141956   1.764   2.450   0.206  0.2814  1.8072  0.4339
 6799TIP3    H241957   1.732   2.496   0.065 -0.1991 -2.0893 -0.8571
 6800TIP3   OH241958   1.178   1.866   6.016 -0.0299  0.9037  0.0521
 6800TIP3    H141959   1.258   1.883   5.967 -0.3624  2.3442 -0.0502
 6800TIP3    H241960   1.143   1.953   6.035 -0.5047  0.3703  1.8733
 6801TIP3   OH241961   3.962   1.257   0.638  0.4966  0.0376  0.3369
 6801TIP3    H141962   3.938   1.297   0.721 -1.9889 -0.7924  0.1044
 6801TIP3    H241963   3.903   1.296   0.574  2.4879  0.8009 -1.1422
 6802TIP3   OH241964   3.733   1.678   7.759 -1.2485  0.0211  0.7814
 6802TIP3    H141965   3.796   1.619   7.718 -0.8635  1.5288 -0.9172
 6802TIP3    H241966   3.782   1.724   7.827 -0.5568  0.9358 -0.3018
 6803TIP3   OH241967   2.484   6.771   1.486 -0.4671  0.6972  0.5262
 6803TIP3    H141968   2.555   6.813   1.437 -1.5097  1.0591 -0.7465
 6803TIP3    H241969   2.404   6.807   1.446 -1.3736 -0.9104  0.8304
 6804TIP3   OH241970   4.787   4.247   7.491  0.3794 -0.0949 -0.0282
 6804TIP3    H141971   4.859   4.242   7.554  0.6175 -1.6157 -0.3837
 6804TIP3    H241972   4.716   4.196   7.531  0.4977 -0.9833 -0.9170
 6805TIP3   OH241973   0.641   2.462   0.099  0.5648 -0.3187 -0.5200
 6805TIP3    H141974   0.589   2.535   0.066 -0.0346 -0.9624 -1.0336
 6805TIP3    H241975   0.581   2.387   0.096  0.7419 -0.5778  1.2704
 6806TIP3   OH241976   0.982   1.315   0.932  0.2531 -0.2499 -0.0196
 6806TIP3    H141977   1.032   1.395   0.946 -1.0474  0.5977 -0.0281
 6806TIP3    H241978   1.028   1.269   0.862  0.4331  1.0193 -0.7618
 6807TIP3   OH241979   5.946   5.237   2.681  0.4664  0.2150 -0.4438
 6807TIP3    H141980   6.021   5.280   2.639 -0.9091  2.4019 -0.7774
 6807TIP3    H241981   5.986   5.168   2.734  2.8053  1.8294  0.0787
 6808TIP3   OH241982   5.378   4.010   7.722  0.6381 -0.0507  0.3527
 6808TIP3    H141983   5.385   3.915   7.716  1.0472  0.0358 -0.7068
 6808TIP3    H241984   5.460   4.042   7.686  0.5607  0.7068  0.8359
 6809TIP3   OH241985   6.707   1.654   0.521 -0.6101 -0.4929  0.1174
 6809TIP3    H141986   6.683   1.704   0.442 -0.0495  1.4698  1.1326
 6809TIP3    H241987   6.677   1.709   0.594  1.5611 -0.8064  1.3106
 6810TIP3   OH241988   0.972   5.432   1.001  0.6353  0.0108  0.1936
 6810TIP3    H141989   1.067   5.433   1.015  0.6375 -0.8704  0.3494
 6810TIP3    H241990   0.950   5.339   1.004  0.1896 -0.0602 -2.8875
 6811TIP3   OH241991   3.863   0.972   0.393 -0.2083 -0.1881 -0.1303
 6811TIP3    H141992   3.858   0.947   0.485  1.3545 -0.6191 -0.1269
 6811TIP3    H241993   3.841   0.893   0.344 -0.0008 -0.2522 -0.1211
 6812TIP3   OH241994   0.114   4.438   7.346 -0.5543 -0.0894  0.3490
 6812TIP3    H141995   0.091   4.427   7.254  1.9334  0.0614 -0.3684
 6812TIP3    H241996   0.106   4.532   7.362 -0.5222 -0.0496  0.1348
 6813TIP3   OH241997   2.741   6.146   1.543 -0.5942  0.1657 -0.0980
 6813TIP3    H141998   2.666   6.197   1.512 -1.6920 -0.8458  0.7837
 6813TIP3    H241999   2.731   6.145   1.639  0.7334  0.2835  0.0571
 6814TIP3   OH242000   5.941   1.387   0.333  1.1887 -0.1546  0.2323
 6814TIP3    H142001   5.910   1.296   0.337 -2.5984  0.8577 -1.4981
 6814TIP3    H242002   5.910   1.426   0.415  2.7685 -0.3517  0.9512
 6815TIP3   OH242003   1.501   0.106   6.488 -0.2140  0.6519 -0.0439
 6815TIP3    H142004   1.454   0.153   6.420  0.5790  0.4417 -0.7490
 6815TIP3    H242005   1.435   0.047   6.526 -1.0165  1.7435  0.3268
 6816TIP3   OH242006   5.022   0.808   7.733  0.1168  0.1992  0.2781
 6816TIP3    H142007   5.115   0.828   7.739  0.0936  0.1580  0.7634
 6816TIP3    H242008   5.006   0.746   7.804 -0.4361  0.7680  0.6526
 6817TIP3   OH242009   4.823   2.619   1.039 -0.2495  0.0608 -0.4838
 6817TIP3    H142010   4.746   2.631   1.094 -0.9225 -0.4637 -1.2864
 6817TIP3    H242011   4.889   2.580   1.097 -0.6501  0.3160  0.1515
 6818TIP3   OH242012   3.394   6.243   7.998 -0.4536 -0.3072  0.2843
 6818TIP3    H142013   3.435   6.274   7.917  0.8282 -0.7214  0.7410
 6818TIP3    H242014   3.468   6.225   8.056 -1.3558  0.1148  1.5982
 6819TIP3   OH242015   0.805   4.910   0.083 -0.6808  0.2486  0.1149
 6819TIP3    H142016   0.819   4.992   0.131 -0.7222 -0.7482  1.9229
 6819TIP3    H242017   0.823   4.932  -0.008  1.2599  1.7908  0.8076
 6820TIP3   OH242018   4.050   5.370   2.187 -0.3643 -0.1416  0.1757
 6820TIP3    H142019   4.001   5.405   2.114  1.7022  0.8763 -0.8073
 6820TIP3    H242020   4.082   5.447   2.234 -0.0932 -0.7652  1.0419
 6821TIP3   OH242021   5.462   1.173   1.316 -0.1642  0.6102  0.1282
 6821TIP3    H142022   5.447   1.135   1.402 -1.7324  0.7079 -0.0705
 6821TIP3    H242023   5.421   1.112   1.254 -2.1729  2.1931 -0.2411
 6822TIP3   OH242024   2.906   4.579   1.297 -0.1663  0.0058  0.2411
 6822TIP3    H142025   2.914   4.640   1.224 -1.1528  0.3466  0.4049
 6822TIP3    H242026   2.969   4.509   1.277 -0.1037  0.3165 -0.6980
 6823TIP3   OH242027   0.933   6.627   0.956 -0.3372 -0.5788  0.3098
 6823TIP3    H142028   0.915   6.709   1.002 -0.9899  0.3643 -1.5176
 6823TIP3    H242029   0.846   6.592   0.936 -0.0699 -1.0213 -0.0923
 6824TIP3   OH242030   3.237   6.738   0.169  0.8994  0.2512 -0.4992
 6824TIP3    H142031   3.217   6.824   0.206 -1.1174 -0.2271 -0.3659
 6824TIP3    H242032   3.228   6.751   0.074 -2.0199 -0.3171 -0.3994
 6825TIP3   OH242033   4.674   5.719   0.392 -0.1072  0.2828 -0.1199
 6825TIP3    H142034   4.582   5.700   0.413  0.3702 -0.2768  1.6823
 6825TIP3    H242035   4.719   5.709   0.475  1.5231  1.0913 -0.8734
 6826TIP3   OH242036   2.498   1.436   7.918  0.5279 -0.6688  0.1478
 6826TIP3    H142037   2.495   1.394   7.832  0.2077  0.0867 -0.2253
 6826TIP3    H242038   2.583   1.481   7.919  0.4487 -0.5168  0.1389
 6827TIP3   OH242039   3.461   6.678   0.916 -0.2003 -0.6343  0.8420
 6827TIP3    H142040   3.384   6.729   0.893  1.2365  0.7439 -1.3036
 6827TIP3    H242041   3.480   6.703   1.007 -0.9615  0.7694  0.6440
 6828TIP3   OH242042   6.603   3.789   8.455  0.2535 -0.3066  0.2949
 6828TIP3    H142043   6.672   3.738   8.498 -0.3834 -0.1094  1.6015
 6828TIP3    H242044   6.547   3.723   8.414  1.4851 -0.4448 -1.2510
 6829TIP3   OH242045   5.900   0.184   2.239 -0.2011 -0.2738  0.5995
 6829TIP3    H142046   5.901   0.261   2.182  0.7558 -1.1173 -0.6101
 6829TIP3    H242047   5.931   0.216   2.324 -2.1799  1.1291  0.8560
 6830TIP3   OH242048   4.190   6.260   0.157  0.3921 -0.4088  0.3659
 6830TIP3    H142049   4.263   6.275   0.218 -1.4465  1.5953  2.2570
 6830TIP3    H242050   4.193   6.335   0.097 -0.5142  0.0946  0.9307
 6831TIP3   OH242051   1.194   0.032   1.814 -0.1670 -0.1473  0.1728
 6831TIP3    H142052   1.161   0.122   1.810  0.2521  0.0119  0.2866
 6831TIP3    H242053   1.153  -0.011   1.739 -0.3339  0.1499  0.0886
 6832TIP3   OH242054   4.333   4.297   8.242 -0.6898 -0.0576  0.1099
 6832TIP3    H142055   4.398   4.281   8.311  0.4620 -0.7055 -1.0719
 6832TIP3    H242056   4.384   4.299   8.162 -1.5907  3.6232 -0.5144
 6833TIP3   OH242057   5.456   6.561   7.793  0.0754 -0.3051  0.0346
 6833TIP3    H142058   5.497   6.647   7.791 -0.2226 -0.1705 -1.4901
 6833TIP3    H242059   5.392   6.564   7.722 -0.5049 -1.5182  0.4825
 6834TIP3   OH242060   2.828   1.820   1.407 -0.0169  0.4332 -0.1203
 6834TIP3    H142061   2.919   1.801   1.383  0.0620 -0.0103  0.4927
 6834TIP3    H242062   2.777   1.751   1.364 -0.1266  0.9909 -0.8999
 6835TIP3   OH242063   6.344   0.012   7.950 -0.2518 -0.6834  0.6061
 6835TIP3    H142064   6.388   0.084   7.994 -0.4659 -1.0351  1.4164
 6835TIP3    H242065   6.257   0.009   7.990 -0.7952 -0.4098 -0.5098
 6836TIP3   OH242066   3.655   0.680   1.510 -0.6669 -0.2407  0.4388
 6836TIP3    H142067   3.683   0.733   1.436 -0.6850 -1.2519 -0.3163
 6836TIP3    H242068   3.640   0.593   1.473  0.1227 -0.9820  1.7763
 6837TIP3   OH242069   3.803   1.408   0.477  0.6783  0.2707 -0.4843
 6837TIP3    H142070   3.847   1.462   0.411  0.8163  1.3409  0.4490
 6837TIP3    H242071   3.757   1.472   0.533  1.8844 -0.4591  1.4336
 6838TIP3   OH242072   2.193   5.062   0.398 -0.0672 -0.0476 -0.2087
 6838TIP3    H142073   2.171   5.149   0.433 -1.0342 -0.3100 -0.1330
 6838TIP3    H242074   2.186   5.073   0.303 -1.0844 -0.2476 -0.1752
 6839TIP3   OH242075   1.376   4.682   0.957 -0.5470  0.7684  0.2409
 6839TIP3    H142076   1.366   4.725   1.042 -0.9282 -1.1903  1.2662
 6839TIP3    H242077   1.375   4.753   0.893 -1.9331  2.2018  1.7535
 6840TIP3   OH242078   1.646   4.079   6.927 -0.3830  0.6563 -0.2244
 6840TIP3    H142079   1.627   3.989   6.952  0.3184 -0.0028 -1.9707
 6840TIP3    H242080   1.559   4.120   6.918 -0.8713 -0.7352 -2.4780
 6841TIP3   OH242081   5.236   3.602   1.202 -0.1756  1.0112  0.4329
 6841TIP3    H142082   5.231   3.573   1.111 -0.2847 -0.8808  0.9955
 6841TIP3    H242083   5.320   3.649   1.208  0.5386 -0.1239 -0.3094
 6842TIP3   OH242084   5.368   1.139   7.175  0.5139  0.4592  0.3091
 6842TIP3    H142085   5.457   1.150   7.142  0.9490 -1.9531  0.4760
 6842TIP3    H242086   5.377   1.077   7.248 -1.0455  1.8813  1.7908
 6843TIP3   OH242087   0.946   1.554   1.487 -0.3334  0.2483  0.3478
 6843TIP3    H142088   0.866   1.596   1.519 -0.2350  0.9479 -0.3198
 6843TIP3    H242089   1.015   1.618   1.502  0.3420 -0.7824  1.9937
 6844TIP3   OH242090   0.540   2.996   2.051  0.3957  0.1846 -0.5279
 6844TIP3    H142091   0.538   2.932   1.981 -2.5536  0.2191 -0.6181
 6844TIP3    H242092   0.519   2.946   2.130 -1.6259  0.8945 -0.5515
 6845TIP3   OH242093   1.198   4.443   6.662  0.0494 -0.0766  0.2370
 6845TIP3    H142094   1.190   4.445   6.757  2.4477 -0.0540  0.4873
 6845TIP3    H242095   1.128   4.501   6.631 -0.7253 -0.0349  1.9805
 6846TIP3   OH242096   2.524   1.926   2.450  0.4925 -0.0062 -0.5577
 6846TIP3    H142097   2.441   1.891   2.484  0.6728 -1.5544 -1.6152
 6846TIP3    H242098   2.590   1.866   2.484  0.7688 -1.0576 -2.7571
 6847TIP3   OH242099   6.599   4.027   8.353  0.1436 -0.7568  0.1792
 6847TIP3    H142100   6.589   3.949   8.408  1.2698  0.3371  2.0737
 6847TIP3    H242101   6.681   4.013   8.306  0.1399 -0.8916  0.2119
 6848TIP3   OH242102   0.597   2.414   6.878 -0.7411 -0.1864 -0.3050
 6848TIP3    H142103   0.688   2.402   6.850 -1.1070  0.3690 -1.8342
 6848TIP3    H242104   0.602   2.468   6.957  0.2902 -0.8108  0.0641
 6849TIP3   OH242105   2.080   5.002   8.287 -0.3129 -0.1998  0.5663
 6849TIP3    H142106   2.041   4.954   8.213 -2.2194  0.8003  0.8568
 6849TIP3    H242107   2.168   5.023   8.257 -0.7166 -0.6401 -1.0794
 6850TIP3   OH242108   6.611   6.756   1.467  0.6689  0.0586  0.1085
 6850TIP3    H142109   6.582   6.672   1.504  0.5848  0.8053  1.8538
 6850TIP3    H242110   6.531   6.796   1.433  0.3065  0.3806  1.3025
 6851TIP3   OH242111   2.482   2.483   0.462  0.2864  0.0967 -0.8232
 6851TIP3    H142112   2.516   2.410   0.410 -0.7742 -1.9893  1.2152
 6851TIP3    H242113   2.537   2.484   0.541 -0.7442  0.4034 -0.0891
 6852TIP3   OH242114   1.683   0.338   1.838 -0.4335  0.0562 -0.0598
 6852TIP3    H142115   1.774   0.321   1.817 -0.4561  1.6223 -1.6332
 6852TIP3    H242116   1.683   0.360   1.931  0.8318  0.3031 -0.1039
 6853TIP3   OH242117   0.588   1.973   7.472  0.0299  0.1877  0.2970
 6853TIP3    H142118   0.499   1.976   7.507  1.0692 -1.4559  3.5123
 6853TIP3    H242119   0.597   1.884   7.437  0.0842  0.7418 -1.1846
 6854TIP3   OH242120   1.995   4.859   1.817 -0.1164 -0.4514  0.4278
 6854TIP3    H142121   2.087   4.871   1.842 -0.3445 -0.8208  1.4984
 6854TIP3    H242122   1.983   4.764   1.819 -0.9326 -0.3529  1.9435
 6855TIP3   OH242123   4.184   6.567   2.446 -0.0847 -0.0820 -0.6933
 6855TIP3    H142124   4.244   6.546   2.518 -1.9648 -0.5291  0.8296
 6855TIP3    H242125   4.129   6.638   2.480 -0.2082  0.5659 -2.1733
 6856TIP3   OH242126   6.752   4.661   2.527 -0.4957 -0.6961 -0.3547
 6856TIP3    H142127   6.666   4.645   2.488  0.1557 -1.3588 -1.5787
 6856TIP3    H242128   6.777   4.747   2.494 -0.3486 -0.8566 -0.6720
 6857TIP3   OH242129   0.077   3.755   8.326  0.1179  0.6030 -0.2750
 6857TIP3    H142130   0.032   3.676   8.297  0.1157 -0.2555  1.8999
 6857TIP3    H242131   0.104   3.736   8.416  2.4054  2.1102 -0.5409
 6858TIP3   OH242132   5.294   1.525   7.249  0.3965 -0.4475  0.3466
 6858TIP3    H142133   5.385   1.498   7.256  0.8502  1.0713  0.6705
 6858TIP3    H242134   5.280   1.538   7.155  0.2942 -1.3701  0.2297
 6859TIP3   OH242135   1.660   2.068   3.051  0.1273  0.0156  0.2009
 6859TIP3    H142136   1.582   2.124   3.048 -1.2146 -1.7322  0.8041
 6859TIP3    H242137   1.719   2.113   3.112 -1.6814 -0.0885  2.1448
 6860TIP3   OH242138   2.866   2.289   0.758  0.9156  0.1000  0.3592
 6860TIP3    H142139   2.848   2.245   0.675 -0.0719 -0.8326  1.0496
 6860TIP3    H242140   2.909   2.371   0.733 -2.1242  1.3397 -1.2749
 6861TIP3   OH242141   2.937   2.646   7.367 -0.7813  0.2290  0.0278
 6861TIP3    H142142   2.921   2.712   7.300 -0.0328 -0.3366 -0.7240
 6861TIP3    H242143   2.853   2.636   7.412 -1.3358  0.4825 -0.9378
 6862TIP3   OH242144   6.557   4.241   7.893 -0.6128 -0.2802 -0.0464
 6862TIP3    H142145   6.638   4.242   7.943 -0.4700 -0.0249 -0.2840
 6862TIP3    H242146   6.508   4.316   7.926  0.1356  0.8366 -1.3619
 6863TIP3   OH242147   1.092   0.809   8.459  0.3789  0.2795 -0.3972
 6863TIP3    H142148   1.120   0.897   8.433 -0.6880  0.7491  0.0156
 6863TIP3    H242149   1.175   0.761   8.471  1.0630  1.7003  1.0225
 6864TIP3   OH242150   5.356   0.925   1.261  0.7699  0.1622 -0.0830
 6864TIP3    H142151   5.387   0.889   1.345  0.2706 -0.7309 -0.2693
 6864TIP3    H242152   5.272   0.966   1.282  0.1154 -1.0017 -0.3200
 6865TIP3   OH242153   5.560   2.934   7.822  0.2505  0.5976 -0.4489
 6865TIP3    H142154   5.600   2.950   7.737  1.7829  1.7553  0.4361
 6865TIP3    H242155   5.627   2.886   7.872 -1.6935 -2.8070 -0.7641
 6866TIP3   OH242156   5.653   3.226   6.905 -0.0827  0.4355 -0.3822
 6866TIP3    H142157   5.728   3.169   6.916 -0.1390  0.3233 -0.5693
 6866TIP3    H242158   5.652   3.280   6.983 -0.3865 -0.2340  0.0836
 6867TIP3   OH242159   0.486   6.852   7.773  0.9651 -0.1354  0.2733
 6867TIP3    H142160   0.423   6.800   7.725 -0.6265  0.6606  1.4130
 6867TIP3    H242161   0.556   6.870   7.710  0.4070 -1.6152 -0.8065
 6868TIP3   OH242162   3.166   6.180   7.843  0.1133  0.0037  0.2311
 6868TIP3    H142163   3.239   6.168   7.903 -0.4426  1.3279  1.2209
 6868TIP3    H242164   3.188   6.259   7.793 -0.7533  0.5827  0.7430
 6869TIP3   OH242165   6.566   6.413   7.979 -0.2914 -0.4977 -0.1583
 6869TIP3    H142166   6.487   6.467   7.979 -0.0343 -0.0987  1.0698
 6869TIP3    H242167   6.535   6.326   8.005 -0.2918 -0.2739  0.6073
 6870TIP3   OH242168   3.430   4.565   1.468  0.3135  0.7534 -0.0275
 6870TIP3    H142169   3.446   4.601   1.555  1.9075  0.0653 -0.0003
 6870TIP3    H242170   3.336   4.577   1.454 -0.2562 -0.2523  2.3193
 6871TIP3   OH242171   0.419   3.653   0.275  0.4591 -0.6488  0.1820
 6871TIP3    H142172   0.397   3.738   0.239  1.0850 -1.0900 -1.2923
 6871TIP3    H242173   0.514   3.647   0.267  0.6177 -0.8401  1.7841
 6872TIP3   OH242174   2.066   6.642   7.206 -0.2427 -0.0539 -0.2927
 6872TIP3    H142175   2.028   6.556   7.188 -0.8619  0.3615 -1.0904
 6872TIP3    H242176   2.094   6.674   7.120  1.0919  0.0493  0.1558
 6873TIP3   OH242177   0.669   6.589   0.844  0.2689 -0.2889  0.1761
 6873TIP3    H142178   0.602   6.648   0.810  1.1867 -0.4568 -2.0743
 6873TIP3    H242179   0.621   6.508   0.863 -0.5845  0.4043  1.0890
 6874TIP3   OH242180   6.563   1.504   8.111 -0.0930  0.8973 -0.5037
 6874TIP3    H142181   6.551   1.486   8.204  3.0455  1.0932  0.0661
 6874TIP3    H242182   6.583   1.419   8.072 -1.9030  0.7338 -1.1453
 6875TIP3   OH242183   6.129   6.614   0.254  0.6579  0.3819  0.0281
 6875TIP3    H142184   6.096   6.662   0.178  0.8726  0.8480  0.2300
 6875TIP3    H242185   6.205   6.566   0.221  1.6357  1.7085  0.2687
 6876TIP3   OH242186   0.366   1.753   0.139 -0.1295  0.0856 -0.0273
 6876TIP3    H142187   0.382   1.704   0.220  1.7417  1.1749  0.3304
 6876TIP3    H242188   0.334   1.838   0.168 -1.2032 -0.1194 -0.5480
 6877TIP3   OH242189   6.049   6.791   6.741  0.1929  0.5195  0.1112
 6877TIP3    H142190   6.073   6.777   6.832  1.4226 -0.4286 -0.3331
 6877TIP3    H242191   6.054   6.704   6.701 -2.6956  0.4812 -0.3682
 6878TIP3   OH242192   1.848   1.395   1.184  0.1090  0.6684  0.5421
 6878TIP3    H142193   1.858   1.318   1.240  1.9522 -0.7339 -1.5573
 6878TIP3    H242194   1.904   1.461   1.223  1.8308 -0.4814  0.1291
 6879TIP3   OH242195   4.109   5.809   0.989 -0.2405 -0.0965 -0.5420
 6879TIP3    H142196   4.119   5.714   0.993  1.2981  0.0745  0.2568
 6879TIP3    H242197   4.188   5.843   1.030 -0.6276  1.5440 -1.1080
 6880TIP3   OH242198   3.119   2.461   8.440  0.4442 -0.3757 -0.3528
 6880TIP3    H142199   3.158   2.487   8.357 -1.3643 -0.6709 -1.3383
 6880TIP3    H242200   3.037   2.418   8.416  0.4367 -1.5319  1.5322
 6881TIP3   OH242201   2.266   1.650   0.784 -0.2077  0.5479 -0.3071
 6881TIP3    H142202   2.299   1.679   0.869 -0.5160  0.1106 -0.0330
 6881TIP3    H242203   2.322   1.694   0.720  0.1211  0.7629  0.1233
 6882TIP3   OH242204   1.355   3.666   8.470  0.1519 -0.2801 -0.0581
 6882TIP3    H142205   1.414   3.737   8.495 -0.1557  0.2900 -0.9147
 6882TIP3    H242206   1.358   3.605   8.544  2.2026 -0.5363 -0.3089
 6883TIP3   OH242207   1.509   6.832   8.104 -0.9831  0.1560  0.2235
 6883TIP3    H142208   1.481   6.885   8.179 -3.5789 -0.3802 -0.2935
 6883TIP3    H242209   1.550   6.895   8.044  0.8524  0.6377  1.8870
 6884TIP3   OH242210   1.054   6.315   0.527 -0.0402  0.4427 -0.5842
 6884TIP3    H142211   1.077   6.233   0.569  1.4642  1.2543  0.2648
 6884TIP3    H242212   0.960   6.326   0.544  0.1241 -0.1989  0.8771
 6885TIP3   OH242213   1.427   0.036   1.527  0.7076 -0.8219  0.2856
 6885TIP3    H142214   1.455   0.120   1.564  2.1431 -0.9907 -0.3376
 6885TIP3    H242215   1.407   0.056   1.436 -1.8238 -0.6085  0.8210
 6886TIP3   OH242216   2.350   2.284   7.609 -0.6951 -0.4410  0.0538
 6886TIP3    H142217   2.402   2.352   7.650 -1.3307 -0.4165  0.8468
 6886TIP3    H242218   2.300   2.330   7.541 -1.2488 -0.0654  0.6973
 6887TIP3   OH242219   3.759   0.666   7.776 -0.2727 -0.1249  0.2939
 6887TIP3    H142220   3.704   0.681   7.853  0.2004  0.4429  0.5328
 6887TIP3    H242221   3.774   0.572   7.775 -1.9817 -0.4113 -0.2902
 6888TIP3   OH242222   0.188   2.325   0.527 -0.2984 -0.7955  0.2529
 6888TIP3    H142223   0.193   2.396   0.590  0.2032 -0.2390 -0.4017
 6888TIP3    H242224   0.266   2.272   0.543  0.5705  0.1325 -0.8141
 6889TIP3   OH242225   4.503   4.696   0.637 -0.3740 -0.2152 -0.3691
 6889TIP3    H142226   4.521   4.729   0.549 -1.5251 -0.4318 -0.7023
 6889TIP3    H242227   4.464   4.771   0.683 -0.4472 -0.3130 -0.2721
 6890TIP3   OH242228   5.777   4.255   7.991 -0.4259 -0.1642  0.0122
 6890TIP3    H142229   5.795   4.347   8.009  0.0924 -0.7078  2.6755
 6890TIP3    H242230   5.714   4.229   8.058  1.2691 -2.2945  0.9101
 6891TIP3   OH242231   3.201   5.295   7.852 -0.3330 -0.2528  0.3103
 6891TIP3    H142232   3.200   5.390   7.843 -1.2592 -0.0816  1.9026
 6891TIP3    H242233   3.117   5.267   7.815 -0.5447 -0.3421  0.8579
 6892TIP3   OH242234   2.257   1.161   7.825 -0.0841  0.0486 -0.2265
 6892TIP3    H142235   2.289   1.217   7.754  2.2695 -0.3168  0.4336
 6892TIP3    H242236   2.268   1.072   7.792 -1.5749 -0.0825 -0.3964
 6893TIP3   OH242237   2.547   5.156   8.320 -0.0354 -0.2822 -0.9299
 6893TIP3    H142238   2.635   5.134   8.351 -0.1914 -0.9112 -0.9390
 6893TIP3    H242239   2.507   5.203   8.394 -0.8305 -2.7839  0.3594
 6894TIP3   OH242240   3.294   3.026   0.724 -0.4354  0.1282 -0.1652
 6894TIP3    H142241   3.283   3.072   0.640 -2.4646  0.7136  0.3610
 6894TIP3    H242242   3.304   3.095   0.789 -0.9093 -0.2504  0.3202
 6895TIP3   OH242243   1.647   3.999   0.763 -0.7509  0.2536 -0.0916
 6895TIP3    H142244   1.590   4.072   0.789  0.5954  0.4915  2.5680
 6895TIP3    H242245   1.722   4.041   0.721 -0.0452  0.4694  1.3087
 6896TIP3   OH242246   1.471   1.716   5.926 -0.1247  0.9197 -0.9636
 6896TIP3    H142247   1.424   1.799   5.920 -1.4555  0.6428  2.9269
 6896TIP3    H242248   1.563   1.740   5.938 -0.5230  1.8587  0.2810
 6897TIP3   OH242249   1.011   0.289   7.241 -0.3540 -0.2337  0.3173
 6897TIP3    H142250   1.004   0.367   7.296 -0.1757 -2.1756  3.3818
 6897TIP3    H242251   1.100   0.291   7.207 -0.3601  0.8774  0.3400
 6898TIP3   OH242252   0.563   2.252   0.463 -0.9702 -0.0045 -0.1468
 6898TIP3    H142253   0.574   2.237   0.369 -2.1050  0.1480 -0.3099
 6898TIP3    H242254   0.624   2.323   0.484 -1.2754  0.4913 -0.9252
 6899TIP3   OH242255   6.422   6.275   0.315  0.3719 -0.0412  0.3767
 6899TIP3    H142256   6.352   6.279   0.381  0.2116  0.7333  0.1709
 6899TIP3    H242257   6.498   6.315   0.358  0.8756 -1.3974  0.8024
 6900TIP3   OH242258   2.292   6.683   8.045  0.4293  0.3871  0.2395
 6900TIP3    H142259   2.301   6.673   8.140 -0.1482  0.8764  0.3495
 6900TIP3    H242260   2.277   6.776   8.032  1.2716  0.4420 -0.4027
 6901TIP3   OH242261   0.110   3.446   7.413 -0.3694 -0.5967 -0.0971
 6901TIP3    H142262   0.054   3.487   7.479 -0.0917  0.9147 -0.7660
 6901TIP3    H242263   0.199   3.459   7.445 -0.1019  1.7393 -1.5396
 6902TIP3   OH242264   5.769   6.675   0.173  0.2430 -0.4208  0.1314
 6902TIP3    H142265   5.789   6.608   0.239  0.2241 -1.9794 -1.3621
 6902TIP3    H242266   5.855   6.701   0.138  0.1485 -1.8823 -1.3225
 6903TIP3   OH242267   1.610   1.567   1.010  0.1081 -0.0118 -0.5367
 6903TIP3    H142268   1.677   1.513   0.968 -0.8714 -0.5992 -1.3779
 6903TIP3    H242269   1.613   1.541   1.102 -0.3986 -1.5747 -0.9438
 6904TIP3   OH242270   4.048   3.792   8.579  0.2220  0.0830  0.1371
 6904TIP3    H142271   4.073   3.869   8.527  2.3275  0.0947  1.0713
 6904TIP3    H242272   3.998   3.828   8.652  2.1553  0.7756  1.1967
 6905TIP3   OH242273   4.622   1.780   1.786  0.0969 -0.6083  0.4444
 6905TIP3    H142274   4.542   1.731   1.765  0.8132 -2.1002  1.0737
 6905TIP3    H242275   4.666   1.727   1.852  1.6192  0.1895  0.1119
 6906TIP3   OH242276   5.787   3.556   0.944 -0.4173  0.0192  0.6582
 6906TIP3    H142277   5.788   3.562   0.848 -1.9629 -1.2622  0.5114
 6906TIP3    H242278   5.815   3.466   0.963  1.1966  0.6629  1.5126
 6907TIP3   OH242279   5.099   6.842   8.271 -0.1337 -0.2274  0.2181
 6907TIP3    H142280   5.177   6.791   8.293 -1.7914 -2.3786  1.5966
 6907TIP3    H242281   5.132   6.929   8.249  2.7368 -1.4513 -0.7201
 6908TIP3   OH242282   0.241   3.557   1.434 -0.3415  0.7314  0.1363
 6908TIP3    H142283   0.251   3.496   1.361  0.2269 -1.3859  1.8562
 6908TIP3    H242284   0.310   3.623   1.421  1.6635 -1.2294  0.2278
 6909TIP3   OH242285   2.047   2.364   2.560 -0.8518  0.2797 -0.1010
 6909TIP3    H142286   2.089   2.430   2.505 -1.5736  1.8341  1.1406
 6909TIP3    H242287   2.000   2.414   2.627 -2.1695 -1.4699  0.3694
 6910TIP3   OH242288   3.098   1.722   1.547 -0.6708  0.2778  0.5187
 6910TIP3    H142289   3.171   1.661   1.543 -1.2996 -0.5013  0.7163
 6910TIP3    H242290   3.128   1.792   1.605  0.0571  0.1684  0.2746
 6911TIP3   OH242291   3.580   6.094   7.441  0.4338  0.8209  0.1250
 6911TIP3    H142292   3.646   6.032   7.471  0.0891  0.8825  1.0565
 6911TIP3    H242293   3.501   6.042   7.429  0.3934  0.9159 -0.0251
 6912TIP3   OH242294   2.870   0.344   2.765 -0.2386 -0.4395 -0.2636
 6912TIP3    H142295   2.839   0.338   2.675  0.4295 -0.4639 -0.4911
 6912TIP3    H242296   2.844   0.432   2.793 -0.3598 -0.3962 -0.5084
 6913TIP3   OH242297   0.875   1.409   7.312 -0.2792 -0.1352 -0.7972
 6913TIP3    H142298   0.876   1.420   7.407 -2.0993 -0.8238 -0.6558
 6913TIP3    H242299   0.966   1.422   7.285  0.1514  0.7456  0.9459
 6914TIP3   OH242300   6.529   3.259   6.584  0.5930 -0.5909 -0.4894
 6914TIP3    H142301   6.605   3.250   6.525 -0.1671 -1.8402 -1.3205
 6914TIP3    H242302   6.498   3.348   6.568  1.4195 -0.3272 -0.7130
 6915TIP3   OH242303   3.819   6.294   2.111  0.4396 -0.1684 -0.8139
 6915TIP3    H142304   3.751   6.310   2.177  0.8944 -0.5740 -0.2345
 6915TIP3    H242305   3.869   6.220   2.146  1.1988  0.1419 -1.2166
 6916TIP3   OH242306   2.654   5.375   0.047  0.2062  0.1143  0.3407
 6916TIP3    H142307   2.711   5.425  -0.012  0.5584  1.2206  1.5425
 6916TIP3    H242308   2.711   5.308   0.084  0.4886  0.5978  0.8010
 6917TIP3   OH242309   1.818   3.906   2.132  0.2933  0.2973  0.0054
 6917TIP3    H142310   1.841   3.826   2.180 -0.0871  0.5328  0.5853
 6917TIP3    H242311   1.890   3.917   2.070  0.8339  0.0247  0.5673
 6918TIP3   OH242312   3.418   5.741   8.316 -0.2346  0.0484 -0.0670
 6918TIP3    H142313   3.351   5.795   8.274 -0.0635  0.0486 -0.3445
 6918TIP3    H242314   3.478   5.804   8.355 -0.0968  0.0617 -0.2938
 6919TIP3   OH242315   1.096   0.910   0.068  0.1620  0.1161 -0.0039
 6919TIP3    H142316   1.191   0.906   0.077  0.3176 -0.7692 -1.5771
 6919TIP3    H242317   1.074   0.830   0.020 -1.3490  0.4384  0.1090
 6920TIP3   OH242318   2.216   0.678   8.451  0.5034 -0.0904 -0.4228
 6920TIP3    H142319   2.125   0.698   8.430  0.7094 -1.6180 -3.4264
 6920TIP3    H242320   2.259   0.763   8.454 -0.8207  0.5999  0.0706
 6921TIP3   OH242321   0.427   6.148   7.382  0.3554  0.3101 -0.7282
 6921TIP3    H142322   0.376   6.228   7.367  0.2039  0.4223  0.2836
 6921TIP3    H242323   0.369   6.092   7.434  1.4850  0.7137  1.0496
 6922TIP3   OH242324   1.574   4.650   7.894  0.2474  0.2544  0.4606
 6922TIP3    H142325   1.517   4.715   7.852  0.2428  0.1339  0.2775
 6922TIP3    H242326   1.663   4.679   7.873  0.2371 -0.2758 -0.3650
 6923TIP3   OH242327   4.841   6.474   2.106  0.2185 -0.6570  0.0908
 6923TIP3    H142328   4.863   6.400   2.049  1.5543 -0.2143 -0.0195
 6923TIP3    H242329   4.768   6.518   2.061  1.1427 -0.4002 -1.2360
 6924TIP3   OH242330   3.796   4.469   6.666  0.3011  0.1689 -0.1832
 6924TIP3    H142331   3.875   4.516   6.693 -0.0540  0.9013 -0.3771
 6924TIP3    H242332   3.725   4.531   6.684 -0.2498 -0.5566  0.1751
 6925TIP3   OH242333   2.640   0.511   1.611 -0.5759 -0.1738  0.0289
 6925TIP3    H142334   2.573   0.499   1.543 -0.7936  0.5144  0.1183
 6925TIP3    H242335   2.668   0.422   1.632 -1.2466 -0.4581 -0.2328
 6926TIP3   OH242336   2.532   0.896   7.394 -0.0935 -0.0871  0.4813
 6926TIP3    H142337   2.613   0.892   7.343 -1.6534  0.1871 -2.2043
 6926TIP3    H242338   2.463   0.872   7.332 -2.2183  0.8551  2.3244
 6927TIP3   OH242339   0.273   1.933   0.827  0.0577  0.1489  0.8275
 6927TIP3    H142340   0.205   1.901   0.768  0.2102 -0.8037  1.1512
 6927TIP3    H242341   0.300   1.855   0.877  1.5677  0.4418  0.5095
 6928TIP3   OH242342   0.739   6.302   2.150  0.0140  0.2647 -0.7047
 6928TIP3    H142343   0.829   6.274   2.166 -0.5168 -0.4015  1.5863
 6928TIP3    H242344   0.710   6.338   2.234 -1.5825  1.3014 -1.6417
 6929TIP3   OH242345   0.307   5.525   0.523 -0.4271 -0.4325 -0.2318
 6929TIP3    H142346   0.279   5.512   0.614 -0.4765 -3.2489 -0.5584
 6929TIP3    H242347   0.369   5.455   0.507  2.2240  2.0103 -1.4349
 6930TIP3   OH242348   1.285   2.177   0.557 -0.8762  0.6465 -0.0656
 6930TIP3    H142349   1.285   2.088   0.592 -0.6028  0.7898  0.3046
 6930TIP3    H242350   1.294   2.165   0.462  1.2795  0.3110  0.1232
 6931TIP3   OH242351   0.624   3.935   6.886 -0.2686 -0.0117  0.0928
 6931TIP3    H142352   0.677   3.939   6.806  0.3603  0.9528  0.5379
 6931TIP3    H242353   0.543   3.892   6.859  0.7166 -1.5041 -0.6151
 6932TIP3   OH242354   6.260   1.685   7.702  0.0032  0.1870  1.1059
 6932TIP3    H142355   6.229   1.606   7.747 -1.1079  0.8132  1.4873
 6932TIP3    H242356   6.348   1.699   7.735  0.0172 -0.6021  1.4218
 6933TIP3   OH242357   2.232   5.324   1.867  0.5464  0.2110  0.1019
 6933TIP3    H142358   2.292   5.393   1.837 -0.4411 -0.3660 -3.6527
 6933TIP3    H242359   2.148   5.369   1.878 -0.0180 -0.2164 -2.0241
 6934TIP3   OH242360   5.989   0.390   2.085 -0.4253 -0.5839 -0.3470
 6934TIP3    H142361   6.073   0.358   2.119 -0.7216 -3.3300 -1.9387
 6934TIP3    H242362   6.009   0.418   1.996 -0.9232  0.4131 -0.1657
 6935TIP3   OH242363   1.180   3.992   6.836 -0.2049  0.9325 -0.1774
 6935TIP3    H142364   1.146   3.905   6.815 -1.6503  1.7365 -1.3336
 6935TIP3    H242365   1.200   3.988   6.929 -2.4462  0.0483  0.3237
 6936TIP3   OH242366   2.315   2.454   2.266  0.5157  0.1417 -0.2807
 6936TIP3    H142367   2.379   2.525   2.260 -0.2355  0.8397 -0.1705
 6936TIP3    H242368   2.249   2.487   2.327  0.3549 -0.8105  0.0661
 6937TIP3   OH242369   5.956   0.592   8.173 -0.1727  0.0574 -0.2383
 6937TIP3    H142370   5.971   0.526   8.105  0.7010  0.1632 -0.1613
 6937TIP3    H242371   5.933   0.541   8.251 -0.8211 -0.0810 -0.5129
 6938TIP3   OH242372   3.321   3.593   0.686 -0.1260 -0.0583 -0.5987
 6938TIP3    H142373   3.374   3.673   0.685 -0.6535  0.3010 -1.8739
 6938TIP3    H242374   3.353   3.542   0.612 -1.2124 -0.0656 -1.0730
 6939TIP3   OH242375   1.076   4.883   1.137 -0.0038  0.3125 -0.6445
 6939TIP3    H142376   1.064   4.834   1.218  0.2719  3.6685  1.6479
 6939TIP3    H242377   0.995   4.870   1.088 -0.5677 -1.0800  0.5884
 6940TIP3   OH242378   2.631   3.787   0.567  0.3436  0.1885 -0.1038
 6940TIP3    H142379   2.638   3.836   0.649  0.0782  0.6640 -0.3640
 6940TIP3    H242380   2.672   3.702   0.586 -0.5644 -0.0601  0.8085
 6941TIP3   OH242381   4.502   0.797   7.885  0.2801 -0.0975  0.3826
 6941TIP3    H142382   4.530   0.856   7.815  1.2601 -0.3790  0.5237
 6941TIP3    H242383   4.516   0.846   7.965  1.3382 -0.5887  0.5173
 6942TIP3   OH242384   3.760   4.847   1.565 -0.1610 -0.0938  0.2740
 6942TIP3    H142385   3.855   4.858   1.579 -0.1586  1.3789 -0.6534
 6942TIP3    H242386   3.721   4.870   1.649  0.1491  3.1132 -0.3170
 6943TIP3   OH242387   2.843   3.207   2.727  0.1049  0.3208  0.2757
 6943TIP3    H142388   2.843   3.297   2.760 -0.8582  0.4121  0.0669
 6943TIP3    H242389   2.912   3.163   2.777  0.7817  1.2394  0.1774
 6944TIP3   OH242390   5.845   5.811   7.648  0.4599 -0.3693  0.0014
 6944TIP3    H142391   5.805   5.868   7.582  1.5405 -1.5270 -1.7521
 6944TIP3    H242392   5.847   5.725   7.607  1.5637 -1.0404  1.3809
 6945TIP3   OH242393   4.146   2.089   2.268  0.6057  0.6719  0.0443
 6945TIP3    H142394   4.070   2.056   2.220  0.8966 -0.2277  0.1707
 6945TIP3    H242395   4.127   2.068   2.359 -0.0827  2.6482  0.4092
 6946TIP3   OH242396   2.026   1.385   2.138 -0.2377  0.3447  0.2927
 6946TIP3    H142397   1.938   1.391   2.175 -0.5346  0.9154 -0.4584
 6946TIP3    H242398   2.085   1.402   2.211 -0.8128  1.7008  0.4751
 6947TIP3   OH242399   0.228   6.496   1.773 -0.1854 -0.5189  0.2165
 6947TIP3    H142400   0.237   6.517   1.866 -0.3473 -0.8590  0.3098
 6947TIP3    H242401   0.315   6.463   1.748  0.1658  0.5623 -0.0112
 6948TIP3   OH242402   3.699   6.181   1.040 -0.0956  0.3692 -0.3647
 6948TIP3    H142403   3.767   6.168   1.106 -1.0078  0.5080  0.6287
 6948TIP3    H242404   3.747   6.188   0.958  1.1716  1.3007  0.4043
 6949TIP3   OH242405   2.106   1.834   2.225 -0.0405  0.7152  0.2108
 6949TIP3    H142406   2.183   1.809   2.277 -0.1936  0.7441  0.4548
 6949TIP3    H242407   2.128   1.920   2.189  0.0987  0.6597  0.1654
 6950TIP3   OH242408   2.679   4.164   0.430  0.0438 -0.6165  0.2429
 6950TIP3    H142409   2.761   4.159   0.478  0.9751 -0.1938 -1.2321
 6950TIP3    H242410   2.705   4.174   0.338 -1.6496 -1.3833 -0.3740
 6951TIP3   OH242411   1.821   2.083   6.345  0.5225 -0.5285  0.6723
 6951TIP3    H142412   1.807   2.177   6.331 -0.8094 -0.4328  2.4056
 6951TIP3    H242413   1.741   2.041   6.314  1.9316 -1.4041 -2.1783
 6952TIP3   OH242414   6.161   3.632   8.033  0.7858 -0.5604  0.2236
 6952TIP3    H142415   6.221   3.691   8.079 -1.6391  0.5126  2.2057
 6952TIP3    H242416   6.140   3.677   7.951 -0.5280  1.1158  1.4217
 6953TIP3   OH242417   5.227   3.230   0.108 -0.6353 -0.1130  0.5567
 6953TIP3    H142418   5.141   3.224   0.150 -0.1484 -0.2261  1.5743
 6953TIP3    H242419   5.281   3.168   0.157  0.1048  0.2035  0.1446
 6954TIP3   OH242420   1.751   2.320   1.389  1.0689  0.3176  0.6845
 6954TIP3    H142421   1.673   2.311   1.335  0.7349  0.6604  1.1055
 6954TIP3    H242422   1.783   2.409   1.370  0.6493  0.6388  1.4413
 6955TIP3   OH242423   1.402   6.370   8.082 -0.4054  0.0451  1.0380
 6955TIP3    H142424   1.495   6.350   8.092 -0.4492 -1.2808 -0.6983
 6955TIP3    H242425   1.400   6.461   8.053  0.3671 -0.0313  0.7275
 6956TIP3   OH242426   1.545   1.745   1.894  0.4703  0.9891  0.4060
 6956TIP3    H142427   1.612   1.682   1.924  1.3988  1.6650 -0.1976
 6956TIP3    H242428   1.596   1.818   1.858 -0.4623  3.3144  3.4093
 6957TIP3   OH242429   3.518   6.733   2.586 -0.4979 -0.0695 -0.1498
 6957TIP3    H142430   3.428   6.763   2.575 -0.7736 -0.9609 -0.4219
 6957TIP3    H242431   3.523   6.706   2.678 -0.9727 -1.4521 -0.5094
 6958TIP3   OH242432   5.543   6.541   7.498  0.2051  0.0294 -0.1373
 6958TIP3    H142433   5.635   6.566   7.508  0.8667 -1.5222 -1.8160
 6958TIP3    H242434   5.503   6.616   7.452  0.9853  0.0797 -0.7396
 6959TIP3   OH242435   5.271   1.217   0.466 -0.0093  0.1470 -0.1205
 6959TIP3    H142436   5.223   1.137   0.449  0.7488 -0.5859  1.0369
 6959TIP3    H242437   5.356   1.188   0.500  0.9617  1.4097 -1.3376
 6960TIP3   OH242438   4.892   2.855   1.545  1.0005  0.8450  0.2107
 6960TIP3    H142439   4.846   2.938   1.553 -0.8664 -0.2404  1.6186
 6960TIP3    H242440   4.831   2.790   1.581  2.7339 -1.0170 -0.0157
 6961TIP3   OH242441   2.433   6.013   8.237 -0.2605 -0.1662 -0.3494
 6961TIP3    H142442   2.341   6.017   8.262 -0.8182  1.8922 -2.3713
 6961TIP3    H242443   2.474   6.085   8.284 -0.0464 -0.0430 -0.7200
 6962TIP3   OH242444   2.511   2.758   7.282  0.2518 -0.2919 -0.0470
 6962TIP3    H142445   2.565   2.778   7.205  0.5423 -1.9996 -0.3125
 6962TIP3    H242446   2.480   2.669   7.267 -0.1593 -0.4451  1.5590
 6963TIP3   OH242447   2.856   4.409   1.052 -0.0538 -0.1762 -0.8776
 6963TIP3    H142448   2.887   4.469   0.985  1.5415  0.4162  0.3197
 6963TIP3    H242449   2.801   4.462   1.109  2.2753  0.5537  0.8404
 6964TIP3   OH242450   3.615   2.413   7.430  0.4692  0.4575  0.1191
 6964TIP3    H142451   3.616   2.418   7.334 -0.2713  0.2872  0.1009
 6964TIP3    H242452   3.672   2.485   7.458  0.4847  0.6693 -0.4431
 6965TIP3   OH242453   3.545   5.940   1.095  0.4664 -0.3502 -0.4706
 6965TIP3    H142454   3.563   5.940   1.189 -0.5809  0.2857 -0.2568
 6965TIP3    H242455   3.596   6.013   1.061  1.1201 -0.7918 -0.4693
 6966TIP3   OH242456   2.316   3.307   8.208  0.2786 -0.2167  0.1062
 6966TIP3    H142457   2.255   3.378   8.225  1.2413  0.5179  0.5820
 6966TIP3    H242458   2.308   3.290   8.114 -0.6986 -0.1884  0.1781
 6967TIP3   OH242459   5.976   2.888   8.313  0.0977  0.0893  0.2953
 6967TIP3    H142460   5.892   2.898   8.357  0.7040  0.4002  1.4086
 6967TIP3    H242461   5.978   2.796   8.285  0.1097 -0.4032  1.8113
 6968TIP3   OH242462   5.917   1.147   1.873 -0.1828  0.4181 -0.1318
 6968TIP3    H142463   5.952   1.078   1.929 -0.0894  1.4295  1.1331
 6968TIP3    H242464   5.990   1.175   1.819 -0.6647 -1.6625 -2.0085
 6969TIP3   OH242465   4.638   5.603   7.630 -0.1960  0.0214 -0.4330
 6969TIP3    H142466   4.673   5.685   7.595 -1.0320 -0.3541 -2.2752
 6969TIP3    H242467   4.713   5.563   7.675  0.4846  1.3201 -0.3544
 6970TIP3   OH242468   1.386   3.988   7.780  0.4232  0.5281 -1.1387
 6970TIP3    H142469   1.337   4.009   7.860  0.5144 -1.3875 -0.5126
 6970TIP3    H242470   1.455   4.054   7.776  0.8855  0.2406  0.8251
 6971TIP3   OH242471   4.950   2.280   0.547 -0.3329 -0.5725  0.1589
 6971TIP3    H142472   4.974   2.320   0.631  0.0232  0.7543 -0.5438
 6971TIP3    H242473   4.859   2.252   0.558 -0.1679 -0.7441  1.1058
 6972TIP3   OH242474   3.908   1.974   0.531 -0.9816 -0.1506 -0.5637
 6972TIP3    H142475   3.839   1.970   0.465 -1.1628  0.5514 -0.4241
 6972TIP3    H242476   3.959   1.894   0.517 -1.3161 -0.2580 -1.2222
 6973TIP3   OH242477   4.537   5.842   2.515  0.1705  0.4718  0.3248
 6973TIP3    H142478   4.539   5.849   2.610 -0.3020  1.0416  0.2998
 6973TIP3    H242479   4.605   5.778   2.494  0.0774  0.1217  1.0619
 6974TIP3   OH242480   0.761   0.838   7.000  0.3633  0.0823  0.8486
 6974TIP3    H142481   0.823   0.909   7.016  0.3450 -0.0658  1.5989
 6974TIP3    H242482   0.695   0.846   7.069 -0.6427  0.4264 -0.1285
 6975TIP3   OH242483   3.925   5.311   1.121  0.9144 -0.8108 -0.3911
 6975TIP3    H142484   3.966   5.231   1.088  2.6934 -0.0805 -0.0690
 6975TIP3    H242485   3.905   5.292   1.213  0.0931 -1.3256 -0.6702
 6976TIP3   OH242486   4.369   3.193   2.709 -0.3180  0.3370 -0.1548
 6976TIP3    H142487   4.349   3.285   2.726 -0.3133  0.4581 -0.7658
 6976TIP3    H242488   4.285   3.156   2.680 -0.4941 -0.0344  0.8160
 6977TIP3   OH242489   3.254   5.395   0.843 -0.4410  0.0924  0.2913
 6977TIP3    H142490   3.190   5.409   0.773  0.2816  0.1780 -0.3678
 6977TIP3    H242491   3.310   5.472   0.840  1.4890 -1.2872 -1.1181
 6978TIP3   OH242492   4.239   4.893   8.065  0.2618  0.6805 -0.1015
 6978TIP3    H142493   4.304   4.931   8.007 -0.6257  0.4097 -1.3171
 6978TIP3    H242494   4.256   4.799   8.061 -0.5282  0.5553 -0.8713
 6979TIP3   OH242495   4.635   2.300   8.251 -0.4638 -0.1022 -0.4586
 6979TIP3    H142496   4.654   2.212   8.284 -1.0542  0.9193  2.9889
 6979TIP3    H242497   4.710   2.353   8.278 -1.7723  1.1474  0.9408
 6980TIP3   OH242498   0.664   0.896   7.290 -0.7747  0.3239 -0.2667
 6980TIP3    H142499   0.590   0.926   7.237  0.6367  1.8375 -1.4968
 6980TIP3    H242500   0.698   0.975   7.332  1.3590  0.0937 -1.3823
 6981TIP3   OH242501   4.708   2.193   1.324  0.2202 -0.0198  0.1153
 6981TIP3    H142502   4.790   2.190   1.375  0.5859  1.3997 -0.3394
 6981TIP3    H242503   4.736   2.186   1.233 -0.1720  0.4359 -0.0422
 6982TIP3   OH242504   1.311   0.920   2.070  0.0821 -0.2501  0.6230
 6982TIP3    H142505   1.256   0.858   2.022  1.9668 -1.8067  0.3513
 6982TIP3    H242506   1.299   0.896   2.162  0.2883 -0.5717  0.5667
 6983TIP3   OH242507   4.821   4.419   7.142 -0.2867  0.3642 -0.0839
 6983TIP3    H142508   4.734   4.380   7.139  0.1029 -0.5309 -0.1877
 6983TIP3    H242509   4.807   4.507   7.177 -1.5087  1.1026 -2.2576
 6984TIP3   OH242510   6.528   6.823   7.370  0.3283 -0.7642  0.9703
 6984TIP3    H142511   6.537   6.895   7.308  2.5175 -1.4987  0.3369
 6984TIP3    H242512   6.607   6.828   7.424 -0.3674 -1.5982  2.1313
 6985TIP3   OH242513   2.534   6.040   1.175  0.1451 -0.0172 -0.2833
 6985TIP3    H142514   2.576   6.081   1.099  0.2791 -0.1703 -0.2942
 6985TIP3    H242515   2.456   6.092   1.191 -0.9308 -1.1057 -1.7148
 6986TIP3   OH242516   1.978   3.219   1.609 -0.4378 -0.4387 -0.2263
 6986TIP3    H142517   1.883   3.232   1.612 -0.3415  1.0808 -1.9248
 6986TIP3    H242518   2.012   3.278   1.676 -0.6221  0.6542 -1.0496
 6987TIP3   OH242519   4.874   4.984   2.063 -0.4006 -0.2504 -0.2222
 6987TIP3    H142520   4.930   4.919   2.106  0.7886 -0.5877 -2.1518
 6987TIP3    H242521   4.882   5.063   2.118  1.3559 -0.5425 -0.0030
 6988TIP3   OH242522   0.583   2.699   7.771  0.1189  0.8037 -0.3334
 6988TIP3    H142523   0.519   2.770   7.757 -0.2164  1.3544  3.0684
 6988TIP3    H242524   0.666   2.736   7.741 -0.2997  2.1845  0.0830
 6989TIP3   OH242525   6.306   4.377   7.696  0.0279  0.3427 -0.4847
 6989TIP3    H142526   6.315   4.403   7.788  0.7189 -0.7893 -0.2021
 6989TIP3    H242527   6.263   4.292   7.700 -0.8517  0.7377 -1.2821
 6990TIP3   OH242528   1.306   1.614   7.720  0.3028  0.0413  0.4244
 6990TIP3    H142529   1.377   1.550   7.714 -1.0309 -1.7289  2.1915
 6990TIP3    H242530   1.325   1.664   7.799  0.6318  0.9759 -0.2285
 6991TIP3   OH242531   1.458   1.332   1.066  0.2875 -0.5851  0.3594
 6991TIP3    H142532   1.482   1.423   1.051 -0.7901 -0.5284 -1.1874
 6991TIP3    H242533   1.365   1.335   1.091 -0.2158 -1.3467 -1.2856
 6992TIP3   OH242534   5.023   5.587   7.554 -0.2707  0.1882  0.3500
 6992TIP3    H142535   5.032   5.674   7.515  1.4323 -0.4613 -0.8218
 6992TIP3    H242536   4.947   5.549   7.510  1.0658 -0.1826 -1.7505
 6993TIP3   OH242537   3.972   5.822   0.634 -0.8169  0.1766  0.0146
 6993TIP3    H142538   3.921   5.768   0.694 -0.1819  0.7395  1.0883
 6993TIP3    H242539   3.919   5.901   0.623  0.1882  1.1743  1.8787
 6994TIP3   OH242540   3.000   6.126   6.841 -0.1931  0.3126  0.0647
 6994TIP3    H142541   2.916   6.119   6.886  0.4787 -0.9733  1.2070
 6994TIP3    H242542   3.047   6.046   6.865  0.9759  0.5182 -1.3673
 6995TIP3   OH242543   0.741   2.156   8.018 -0.5651  0.2843  0.2598
 6995TIP3    H142544   0.823   2.108   8.034 -0.0833 -0.1959 -2.9450
 6995TIP3    H242545   0.704   2.169   8.105  1.6093 -1.8074  1.6381
 6996TIP3   OH242546   5.681   5.289   2.020 -0.4782  0.2654  0.1807
 6996TIP3    H142547   5.725   5.373   2.010 -1.1576  0.4281 -1.6432
 6996TIP3    H242548   5.613   5.306   2.086 -1.4752  1.5271 -1.1145
 6997TIP3   OH242549   0.920   3.081   0.394 -0.0850  0.3642  0.0356
 6997TIP3    H142550   0.844   3.132   0.367  0.2051  0.2627 -1.0448
 6997TIP3    H242551   0.992   3.144   0.396 -0.2508  0.5269  1.3782
 6998TIP3   OH242552   2.268   0.962   8.219  0.1523  0.1070  0.0899
 6998TIP3    H142553   2.266   0.878   8.173 -0.9267 -0.6962  1.4884
 6998TIP3    H242554   2.322   1.019   8.165 -0.5698 -0.9445 -1.8247
 6999TIP3   OH242555   1.895   6.567   1.404  0.4644 -0.6421 -0.3371
 6999TIP3    H142556   1.822   6.505   1.407 -0.0095 -0.0718  0.3508
 6999TIP3    H242557   1.853   6.653   1.408  1.1958 -0.3175  0.7280
 7000TIP3   OH242558   1.935   0.187   1.995 -0.3917 -0.1713 -0.3084
 7000TIP3    H142559   2.003   0.225   2.050  0.4675 -0.9724 -0.8012
 7000TIP3    H242560   1.964   0.097   1.980 -0.7638 -0.0524 -1.8306
 7001TIP3   OH242561   4.410   4.737   1.840  0.0990 -0.4837 -0.7232
 7001TIP3    H142562   4.495   4.703   1.868  0.4551 -0.2088 -1.4669
 7001TIP3    H242563   4.430   4.798   1.770 -0.7196 -0.4370 -0.9231
 7002TIP3   OH242564   1.100   6.664   1.976 -0.5567 -0.1940  0.0211
 7002TIP3    H142565   1.094   6.755   1.947  2.5350  0.3437  0.8002
 7002TIP3    H242566   1.064   6.664   2.064  0.2292  0.4661  0.3465
 7003TIP3   OH242567   0.237   5.984   1.000 -0.5225  0.1257  0.8200
 7003TIP3    H142568   0.283   6.067   1.001 -0.1576 -0.0661  0.0888
 7003TIP3    H242569   0.212   5.969   1.092  0.9204  0.2013  1.2368
 7004TIP3   OH242570   2.328   1.724   2.344 -0.0885  0.0921 -0.0118
 7004TIP3    H142571   2.410   1.739   2.299 -0.0533 -2.2174 -0.8510
 7004TIP3    H242572   2.353   1.683   2.427 -0.3724 -1.9437 -0.8727
 7005TIP3   OH242573   2.704   5.048   7.559  0.0380  0.0783 -0.2090
 7005TIP3    H142574   2.658   5.019   7.481 -0.5257  1.9229 -0.6216
 7005TIP3    H242575   2.704   4.972   7.618 -0.3893 -1.0273 -1.6017
 7006TIP3   OH242576   1.741   0.509   6.604  0.2062 -0.6722 -0.3729
 7006TIP3    H142577   1.696   0.593   6.615  0.2387 -0.4975 -1.4626
 7006TIP3    H242578   1.673   0.443   6.622 -0.3597 -0.4106 -1.4952
 7007TIP3   OH242579   2.402   0.948   1.989  0.7259  0.0246  0.4601
 7007TIP3    H142580   2.464   0.913   1.925 -0.8189 -0.9910 -0.5553
 7007TIP3    H242581   2.413   1.043   1.984  1.2803 -0.0827 -0.6420
 7008TIP3   OH242582   2.029   1.113   8.163 -0.0691  0.1436 -0.1736
 7008TIP3    H142583   2.092   1.173   8.203 -0.8598 -1.4814  3.9417
 7008TIP3    H242584   2.083   1.041   8.130  0.4458  0.3440  0.2170
 7009TIP3   OH242585   5.249   1.489   8.272  0.3816 -0.1298  0.2836
 7009TIP3    H142586   5.254   1.537   8.189  2.0076  3.9468  2.4291
 7009TIP3    H242587   5.325   1.431   8.270  0.0353 -0.5869 -1.2815
 7010TIP3   OH242588   2.892   3.871   8.629 -0.6500 -0.6776 -1.0020
 7010TIP3    H142589   2.800   3.876   8.604 -1.0132  0.8717  0.4243
 7010TIP3    H242590   2.891   3.833   8.717 -0.1201  0.8962 -0.2717
 7011TIP3   OH242591   0.215   5.390   1.645  0.4934 -0.1018 -0.7027
 7011TIP3    H142592   0.205   5.295   1.646 -1.9787  0.0904 -0.0754
 7011TIP3    H242593   0.249   5.411   1.732 -3.0554 -0.2041  0.9065
 7012TIP3   OH242594   5.104   5.914   6.838 -0.6135  0.1853 -0.4070
 7012TIP3    H142595   5.058   5.957   6.911  0.0866  0.0331  0.1283
 7012TIP3    H242596   5.111   5.823   6.865 -0.2084  0.1600 -0.5985
 7013TIP3   OH242597   3.694   2.360   2.534 -0.2514 -0.0774 -0.1141
 7013TIP3    H142598   3.738   2.390   2.614  0.2937  1.3938 -0.9205
 7013TIP3    H242599   3.605   2.339   2.562 -0.0603  0.3737  0.8952
 7014TIP3   OH242600   3.698   4.158   1.123  0.1432  0.7303 -0.1346
 7014TIP3    H142601   3.657   4.155   1.037 -0.4038  1.1017  0.1064
 7014TIP3    H242602   3.628   4.186   1.182  0.5351  0.5729  0.4157
 7015TIP3   OH242603   2.038   3.618   2.617  0.6170 -0.3810 -0.2689
 7015TIP3    H142604   2.128   3.586   2.627  1.0978  0.5329 -1.5199
 7015TIP3    H242605   1.995   3.552   2.562  0.5243 -0.7912  0.2864
 7016TIP3   OH242606   3.036   4.987   1.002  0.3739 -0.7442 -0.1038
 7016TIP3    H142607   3.093   5.037   0.944  1.7489 -2.2255 -0.0936
 7016TIP3    H242608   2.954   4.977   0.952  1.0968 -0.9412 -1.2890
 7017TIP3   OH242609   3.769   6.666   0.547 -0.2404  0.7726  0.0493
 7017TIP3    H142610   3.788   6.688   0.638 -1.1597  1.3059  0.1149
 7017TIP3    H242611   3.854   6.641   0.511  0.1215  0.4775  1.0701
 7018TIP3   OH242612   0.023   4.194   1.473 -0.0367  0.2620 -0.3862
 7018TIP3    H142613   0.046   4.284   1.449 -1.5918  0.0938 -2.9449
 7018TIP3    H242614   0.099   4.142   1.446  1.5346  0.8447  2.5139
 7019TIP3   OH242615   2.689   4.015   1.638 -0.7634 -0.3781 -0.1256
 7019TIP3    H142616   2.756   3.958   1.675  0.7193  2.2325  1.4604
 7019TIP3    H242617   2.641   4.048   1.714 -0.7478  1.4510 -0.8779
 7020TIP3   OH242618   6.715   2.729   0.855 -0.3838 -0.0441  0.5930
 7020TIP3    H142619   6.774   2.735   0.929 -0.4327 -0.7956  0.7029
 7020TIP3    H242620   6.758   2.669   0.794 -0.9952 -0.5755  0.6617
 7021TIP3   OH242621   6.637   1.436   1.748 -0.2520  0.3771  0.3781
 7021TIP3    H142622   6.548   1.469   1.755  0.1612  1.1892  2.5425
 7021TIP3    H242623   6.628   1.341   1.758 -0.8416  0.4928  1.0367
 7022TIP3   OH242624   2.843   5.483   7.014  0.5238  0.4337  0.0442
 7022TIP3    H142625   2.905   5.525   7.073  0.8869 -0.3563  0.2491
 7022TIP3    H242626   2.895   5.414   6.971 -0.1188 -0.0012 -0.0458
 7023TIP3   OH242627   5.225   4.967   7.863  0.2881 -0.7489 -0.3382
 7023TIP3    H142628   5.221   4.896   7.927 -2.5513  0.1357  0.5824
 7023TIP3    H242629   5.177   5.039   7.904  0.0693  0.5131 -2.6728
 7024TIP3   OH242630   0.580   6.067   2.173  0.3324 -0.5738 -0.1705
 7024TIP3    H142631   0.655   6.127   2.170  0.3466 -0.6136 -0.6879
 7024TIP3    H242632   0.569   6.047   2.266 -1.2602  2.2416  0.3878
 7025TIP3   OH242633   1.475   2.947   1.288 -0.0798  0.3771  0.3308
 7025TIP3    H142634   1.440   2.888   1.355  0.8122  1.2978  1.6586
 7025TIP3    H242635   1.502   2.889   1.217  1.7984 -0.9916  2.0474
 7026TIP3   OH242636   1.230   6.821   0.424  0.3664  0.1648  0.3952
 7026TIP3    H142637   1.314   6.837   0.467 -0.7641 -1.5789  3.6072
 7026TIP3    H242638   1.226   6.726   0.415 -0.4947  0.3552 -1.5007
 7027TIP3   OH242639   3.935   3.310   1.069 -0.1057  0.3102 -0.0649
 7027TIP3    H142640   3.846   3.321   1.102 -0.3281 -1.8128  0.1551
 7027TIP3    H242641   3.924   3.288   0.977  0.2099  0.5188 -0.1528
 7028TIP3   OH242642   1.984   6.480   0.229  0.0403 -0.8588 -0.0718
 7028TIP3    H142643   1.933   6.515   0.301 -0.3679 -0.4003 -0.5742
 7028TIP3    H242644   2.075   6.493   0.255 -0.0316  2.2527 -0.9681
 7029TIP3   OH242645   4.124   5.201   1.608  0.0411 -0.0087 -0.3914
 7029TIP3    H142646   4.196   5.261   1.590 -0.0531  0.5429  0.9487
 7029TIP3    H242647   4.067   5.250   1.668 -0.2679 -1.2751  0.3709
 7030TIP3   OH242648   5.015   5.941   1.261  0.5063 -0.1036  0.4229
 7030TIP3    H142649   4.971   5.863   1.227 -0.0790  0.6097 -0.4905
 7030TIP3    H242650   4.982   6.013   1.207  1.2831  0.7352  1.0378
 7031TIP3   OH242651   0.121   1.863   1.749  0.2467 -0.4250 -1.0341
 7031TIP3    H142652   0.176   1.907   1.685 -0.7757  1.0601 -0.9294
 7031TIP3    H242653   0.056   1.816   1.696 -0.7766  1.0379 -1.1169
 7032TIP3   OH242654   5.271   2.247   0.776  0.7393 -0.1772 -0.3027
 7032TIP3    H142655   5.340   2.193   0.816  0.7589 -0.1970 -0.3646
 7032TIP3    H242656   5.308   2.277   0.693  0.1667 -1.3222 -0.9906
 7033TIP3   OH242657   1.300   3.268   1.948 -0.2610  0.1300 -0.1458
 7033TIP3    H142658   1.210   3.234   1.944 -0.6036  0.9542  0.2093
 7033TIP3    H242659   1.297   3.333   2.019 -0.3638  2.9687 -2.5527
 7034TIP3   OH242660   1.718   4.381   7.317 -0.5870 -0.2333 -0.2678
 7034TIP3    H142661   1.783   4.348   7.379  0.2098  0.7381 -0.5582
 7034TIP3    H242662   1.635   4.377   7.365 -0.1856 -0.7295  0.3979
 7035TIP3   OH242663   4.424   5.452   7.607  0.1121 -0.9544  0.3783
 7035TIP3    H142664   4.381   5.496   7.681  0.9802 -0.6497  0.7144
 7035TIP3    H242665   4.511   5.491   7.604  0.3944 -1.6199 -0.2417
 7036TIP3   OH242666   3.648   0.495   7.179 -0.5770 -0.0710 -0.2778
 7036TIP3    H142667   3.611   0.565   7.233  0.8141  1.2137 -0.8999
 7036TIP3    H242668   3.573   0.441   7.155 -1.7150  1.2283  0.2062
 7037TIP3   OH242669   2.649   1.876   1.602  0.2523 -0.0979 -0.0756
 7037TIP3    H142670   2.691   1.831   1.529  1.3540 -0.1641  0.5711
 7037TIP3    H242671   2.715   1.938   1.633 -0.6327  0.7671  0.1220
 7038TIP3   OH242672   2.828   5.477   7.742 -0.2265  0.5294 -0.0991
 7038TIP3    H142673   2.860   5.387   7.747  1.4806  1.1721  1.8809
 7038TIP3    H242674   2.874   5.516   7.668  0.2304  0.2075  0.0153
 7039TIP3   OH242675   4.342   1.363   0.156 -0.2413  0.1651  0.4272
 7039TIP3    H142676   4.252   1.332   0.150 -0.0842 -0.0696 -2.3575
 7039TIP3    H242677   4.381   1.338   0.072  1.9277  1.7527  0.8771
 7040TIP3   OH242678   5.712   3.946   8.497 -0.2916  0.6886 -0.6146
 7040TIP3    H142679   5.678   3.865   8.460  0.9083 -0.3358  0.4215
 7040TIP3    H242680   5.792   3.964   8.447 -0.4864  1.1685 -0.7580
 7041TIP3   OH242681   6.316   4.934   0.836 -0.4236  0.3904  0.0358
 7041TIP3    H142682   6.406   4.910   0.859 -0.8164  0.0904  1.3621
 7041TIP3    H242683   6.267   4.853   0.843 -0.3288 -0.1665 -3.7022
 7042TIP3   OH242684   5.261   2.116   8.125  0.0999  0.6411 -0.1803
 7042TIP3    H142685   5.235   2.064   8.201  2.9748  0.0408  0.4953
 7042TIP3    H242686   5.243   2.059   8.050  3.0077 -1.4558  0.5257
 7043TIP3   OH242687   6.566   0.709   0.425 -0.4103  0.4217 -0.3453
 7043TIP3    H142688   6.481   0.725   0.384 -0.2207  0.4731 -0.7222
 7043TIP3    H242689   6.564   0.762   0.505  0.0949  2.1723 -1.4302
 7044TIP3   OH242690   1.312   6.015   0.835 -0.0344  0.5322 -0.4783
 7044TIP3    H142691   1.350   6.102   0.844 -0.4735  0.5569  1.4813
 7044TIP3    H242692   1.387   5.956   0.836  0.1639  0.7852 -0.3052
 7045TIP3   OH242693   0.028   2.077   7.677 -0.3315 -0.3540  0.4102
 7045TIP3    H142694   0.037   2.084   7.772 -0.6347 -0.8149  0.4768
 7045TIP3    H242695  -0.039   2.142   7.655  0.6888  0.6992  0.3372
 7046TIP3   OH242696   3.962   4.009   0.289 -0.1623  0.2251  0.3990
 7046TIP3    H142697   4.008   4.020   0.373 -0.5899 -2.6341  1.0844
 7046TIP3    H242698   4.028   3.974   0.230 -0.6053 -0.6289  0.4069
 7047TIP3   OH242699   1.463   2.658   2.587 -0.3270 -0.1585 -0.3633
 7047TIP3    H142700   1.460   2.675   2.681 -0.9930 -1.2335 -0.1618
 7047TIP3    H242701   1.500   2.570   2.579 -1.1028 -0.4422 -1.0407
 7048TIP3   OH242702   4.544   5.196   2.253 -0.5622 -0.2453  0.4968
 7048TIP3    H142703   4.604   5.270   2.263  1.9852 -1.9424 -1.2608
 7048TIP3    H242704   4.582   5.127   2.306 -1.2891 -1.2117 -0.2043
 7049TIP3   OH242705   4.301   6.220   2.693 -0.4177 -0.1837  0.3456
 7049TIP3    H142706   4.382   6.185   2.730 -0.4550  1.4314  2.1699
 7049TIP3    H242707   4.315   6.315   2.690 -2.5367  0.2608  1.6672
 7050TIP3   OH242708   0.891   6.575   0.442  0.2482  0.0312 -0.4513
 7050TIP3    H142709   0.865   6.496   0.488 -0.8439  0.2404 -0.6759
 7050TIP3    H242710   0.910   6.546   0.353 -0.9495  0.1335 -0.7500
 7051TIP3   OH242711   5.820   6.095   1.808 -0.1650  0.2956 -0.5522
 7051TIP3    H142712   5.910   6.065   1.820  0.0339  0.4329 -1.5893
 7051TIP3    H242713   5.826   6.191   1.809 -0.4296  0.3082  0.2265
 7052TIP3   OH242714   1.051   2.919   2.410 -0.0839 -0.3418 -0.1951
 7052TIP3    H142715   1.131   2.899   2.460 -0.6276 -3.6339 -0.4243
 7052TIP3    H242716   0.984   2.864   2.450 -1.4475 -0.1693 -2.1326
 7053TIP3   OH242717   3.684   5.847   8.607  0.4728 -0.5291  0.3151
 7053TIP3    H142718   3.658   5.758   8.582  0.1006  0.1076 -1.6590
 7053TIP3    H242719   3.767   5.835   8.654 -0.4483 -2.0585  1.6626
 7054TIP3   OH242720   0.115   1.875   0.362 -0.4497  0.1433  0.5061
 7054TIP3    H142721   0.061   1.923   0.299  1.2570  0.6039 -0.6727
 7054TIP3    H242722   0.204   1.904   0.343  0.7260 -3.6308 -0.4466
 7055TIP3   OH242723   4.543   0.965   0.717  0.5649 -0.2998 -0.3457
 7055TIP3    H142724   4.476   0.904   0.685  0.2563  0.2269 -0.7040
 7055TIP3    H242725   4.517   1.050   0.683  0.7206  0.1292  0.5718
 7056TIP3   OH242726   5.023   2.176   1.036  0.1114  0.3476 -0.3137
 7056TIP3    H142727   4.956   2.128   0.987  0.6152  0.7131 -1.3947
 7056TIP3    H242728   5.093   2.113   1.049  1.2024  0.9794 -2.5977
 7057TIP3   OH242729   0.246   2.758   8.603  0.1043 -0.1453  0.8030
 7057TIP3    H142730   0.202   2.843   8.604  0.0640 -0.1561  0.2596
 7057TIP3    H242731   0.174   2.695   8.608 -0.0332 -0.1820 -0.9755
 7058TIP3   OH242732   5.221   3.613   6.712  0.2142 -0.4599 -0.1864
 7058TIP3    H142733   5.253   3.550   6.776 -1.7205 -1.2844  0.0215
 7058TIP3    H242734   5.154   3.663   6.758 -0.1950 -0.0937 -1.1525
 7059TIP3   OH242735   6.549   5.579   1.619 -0.2638  0.4484 -0.0108
 7059TIP3    H142736   6.569   5.486   1.630 -0.5851  0.2108 -1.3071
 7059TIP3    H242737   6.551   5.614   1.708 -1.1752 -1.0076  0.6250
 7060TIP3   OH242738   2.256   3.602   7.795  0.2470  0.5509  0.0758
 7060TIP3    H142739   2.176   3.651   7.777 -0.6807 -0.7961  0.3641
 7060TIP3    H242740   2.273   3.553   7.715 -0.5563 -0.9289  0.7655
 7061TIP3   OH242741   5.962   3.549   0.480  0.5561 -0.0326  0.7642
 7061TIP3    H142742   6.015   3.498   0.541 -0.0580  0.1231  1.4412
 7061TIP3    H242743   6.011   3.631   0.469  0.5314  0.0535  1.2694
 7062TIP3   OH242744   0.594   3.122   0.780  0.1924 -0.0793  0.1984
 7062TIP3    H142745   0.521   3.136   0.719  0.9548  0.9032 -0.5098
 7062TIP3    H242746   0.668   3.168   0.741  1.1486 -0.8619  1.0259
 7063TIP3   OH242747   2.240   2.142   1.824  0.4432  0.1096  0.0489
 7063TIP3    H142748   2.250   2.065   1.769 -1.2967 -0.0429 -0.1309
 7063TIP3    H242749   2.232   2.107   1.913 -1.5478 -0.0849 -0.1498
 7064TIP3   OH242750   2.176   0.136   2.601  0.8816 -0.6110 -0.6716
 7064TIP3    H142751   2.218   0.204   2.654  1.9051 -0.5342 -1.5529
 7064TIP3    H242752   2.150   0.069   2.665 -0.4942  0.7475  0.2554
 7065TIP3   OH242753   6.297   1.947   2.737 -0.4277 -0.0028 -0.6058
 7065TIP3    H142754   6.378   1.961   2.688 -1.0084 -1.5200 -2.0815
 7065TIP3    H242755   6.267   1.860   2.711 -1.4574 -0.3535  1.5122
 7066TIP3   OH242756   0.318   6.613   2.229 -0.4315  0.3242 -0.0446
 7066TIP3    H142757   0.282   6.666   2.301  0.8926  0.5417  0.4832
 7066TIP3    H242758   0.402   6.583   2.262  0.2099  0.4359 -1.5321
 7067LIG     C142759   0.490   1.988   5.799  0.2697 -0.1727  0.0555
 7067LIG     N142760   0.575   1.946   5.910  0.4687 -0.4053 -0.1129
 7067LIG     C242761   0.558   1.847   6.010  0.3711 -0.1598 -0.9387
 7067LIG     N242762   0.657   1.838   6.098  0.0051  0.1926  0.5826
 7067LIG     C342763   0.742   1.940   6.050 -0.5267  0.3215 -0.4144
 7067LIG     C442764   0.691   2.008   5.941  0.5519 -0.3440  0.4489
 7067LIG     C542765   0.760   2.117   5.891 -0.0670 -0.3636  0.5293
 7067LIG     O142766   0.721   2.177   5.788 -0.2370  0.4573  1.0730
 7067LIG     N342767   0.877   2.155   5.967  0.3010  0.2135  0.7061
 7067LIG     C642768   0.936   2.075   6.057 -0.3403  0.1265 -0.0775
 7067LIG     O242769   1.051   2.098   6.097 -0.3798  0.3458  0.8676
 7067LIG     N442770   0.865   1.966   6.111  0.4343  0.0197  0.7805
 7067LIG     C742771   0.937   1.885   6.211  0.1601 -0.0421 -0.3285
 7067LIG     C842772   0.949   2.273   5.916  0.1275 -0.3002 -0.5301
 7067LIG     H142773   0.436   2.085   5.807 -2.2621 -1.4788 -0.3729
 7067LIG     H242774   0.411   1.914   5.777 -0.2492 -0.1359  1.6599
 7067LIG     H342775   0.547   1.980   5.704  1.2633  0.6340  0.5612
 7067LIG     H442776   0.477   1.774   6.017  0.6800 -0.4525 -0.2260
 7067LIG     H542777   1.022   1.930   6.267  0.6014 -1.6466  0.3528
 7067LIG     H642778   0.978   1.799   6.155  1.1330 -0.4302  0.9306
 7067LIG     H742779   0.866   1.853   6.290 -0.3132 -0.0249 -0.7452
 7067LIG     H842780   0.890   2.366   5.902  0.7427  1.1213  4.4013
 7067LIG     H942781   0.996   2.245   5.819 -1.3775 -2.2229 -0.7555
 7067LIG    H1042782   1.022   2.308   5.992  0.5898 -0.5419 -0.8570
   6.86508   6.86508   8.70261
