Title
42773
    1SAPS     N    1   5.406   5.413   7.678  0.5779 -0.0875  0.3529
    1SAPS   HN1    2   5.317   5.363   7.700  0.7164 -0.4560  0.0829
    1SAPS   HN2    3   5.457   5.363   7.603 -0.0168 -0.1081 -0.0421
    1SAPS   HN3    4   5.464   5.424   7.763 -0.7395  1.5442  1.1174
    1SAPS   C12    5   5.397   5.559   7.634  0.5977 -0.3739  1.2952
    1SAPS  H12A    6   5.346   5.555   7.539  2.2241 -0.2843  0.3950
    1SAPS   C13    7   5.323   5.651   7.733  0.2774  0.3878 -0.1617
    1SAPS  O13A    8   5.237   5.603   7.809  0.4184  0.4014  0.1478
    1SAPS  O13B    9   5.325   5.776   7.703 -0.1063  0.5879 -0.0866
    1SAPS   C11   10   5.541   5.595   7.591 -0.0763 -0.3135  0.2524
    1SAPS  H11A   11   5.605   5.618   7.679  1.0880  1.7114 -1.0549
    1SAPS  H11B   12   5.524   5.688   7.532 -0.7729 -0.6261 -0.0608
    1SAPS     P   13   5.717   5.550   7.404  0.2496 -0.1430  0.0834
    1SAPS   O13   14   5.791   5.652   7.471 -0.7049  0.1258 -0.3994
    1SAPS   O14   15   5.787   5.423   7.370  0.4422  0.1744 -0.1273
    1SAPS   O12   16   5.604   5.499   7.501 -0.1875 -0.0959 -0.2903
    1SAPS   O11   17   5.645   5.605   7.273  0.6325  0.0491  0.2073
    1SAPS    C1   18   5.512   5.578   7.236 -0.6415 -0.0215 -0.1315
    1SAPS    HA   19   5.496   5.469   7.221  0.5868 -0.4355  1.3946
    1SAPS    HB   20   5.442   5.630   7.305 -0.2765  2.4740 -1.5412
    1SAPS    C2   21   5.485   5.645   7.092  0.6418  1.1379 -0.3955
    1SAPS    HS   22   5.390   5.613   7.045  1.1665  1.4292 -1.6868
    1SAPS   O21   23   5.597   5.613   7.013 -0.3547  0.0046 -0.0612
    1SAPS   C21   24   5.587   5.500   6.947  0.6319  0.4177  0.5366
    1SAPS   O22   25   5.501   5.415   6.953  0.6030  0.5973  0.2593
    1SAPS   C22   26   5.693   5.489   6.843  0.0935 -0.0875 -0.6665
    1SAPS   H2R   27   5.736   5.589   6.824 -0.3998  0.2188 -0.2007
    1SAPS   H2S   28   5.769   5.427   6.896 -1.2673 -2.0608 -0.8950
    1SAPS    C3   29   5.463   5.801   7.112  0.3763 -0.4166  0.0480
    1SAPS    HX   30   5.561   5.834   7.153 -0.5992  0.7268  1.5698
    1SAPS    HY   31   5.391   5.819   7.194  1.9101 -0.0098  1.3561
    1SAPS   O31   32   5.442   5.867   6.986 -0.2402  0.0129 -0.1357
    1SAPS   C31   33   5.321   5.852   6.936  0.1388  0.3270  0.3074
    1SAPS   O32   34   5.229   5.790   6.993 -0.0179 -0.3793  0.3328
    1SAPS   C32   35   5.321   5.928   6.796  0.1343  0.0763 -0.6190
    1SAPS   H2X   36   5.381   5.856   6.738  1.2439  0.2379  0.2939
    1SAPS   H2Y   37   5.369   6.028   6.804  0.7043 -0.0746 -1.9894
    1SAPS   C23   38   5.651   5.404   6.722 -0.5574 -0.4286  0.1078
    1SAPS   H3R   39   5.595   5.456   6.641 -0.6636 -1.5651 -0.5674
    1SAPS   H3S   40   5.605   5.313   6.766  0.9270 -1.1084  0.3278
    1SAPS   C24   41   5.779   5.340   6.671 -0.1794 -0.1289  0.8679
    1SAPS   H4R   42   5.757   5.239   6.629 -2.4686  0.8502 -0.4732
    1SAPS   H4S   43   5.855   5.319   6.750 -2.5551 -0.4722  3.1769
    1SAPS   C25   44   5.836   5.424   6.563  0.3647 -0.1424 -0.3925
    1SAPS   H5R   45   5.904   5.504   6.594  0.6177 -0.1381 -0.9505
    1SAPS   C26   46   5.802   5.420   6.432 -0.0021 -0.3925 -0.3710
    1SAPS   H6R   47   5.845   5.499   6.369  0.9856 -1.5477 -1.1872
    1SAPS   C27   48   5.706   5.326   6.354  0.4693 -0.0209  0.2736
    1SAPS   H7R   49   5.665   5.249   6.424 -1.0478 -0.1175 -0.6864
    1SAPS   H7S   50   5.769   5.280   6.275  1.6369 -0.2703  1.3039
    1SAPS   C28   51   5.599   5.413   6.299  0.1170  0.2092  0.2070
    1SAPS   H8R   52   5.526   5.451   6.371 -1.2078 -2.2222  0.2621
    1SAPS   C29   53   5.574   5.450   6.172  0.4477  0.1901 -0.2205
    1SAPS   H9R   54   5.490   5.518   6.153 -0.5230 -0.4491  1.6069
    1SAPS  C210   55   5.661   5.422   6.054 -0.2044  0.3723  0.4642
    1SAPS  H10R   56   5.764   5.407   6.091  1.0003  5.3486 -0.0908
    1SAPS  H10S   57   5.682   5.522   6.010 -0.7198  0.4133  0.2985
    1SAPS  C211   58   5.601   5.331   5.957 -0.1308 -0.3494 -0.1046
    1SAPS  H11R   59   5.563   5.234   5.993 -0.1446 -0.9285 -1.5823
    1SAPS  C212   60   5.583   5.352   5.825 -0.0415 -0.2689  0.4164
    1SAPS  H12R   61   5.541   5.266   5.771 -1.2020  0.2846  0.4080
    1SAPS  C213   62   5.644   5.464   5.744 -0.6054 -0.3550  0.5409
    1SAPS  H13R   63   5.693   5.543   5.804  0.5866  0.5752 -1.5304
    1SAPS  H13S   64   5.562   5.507   5.683  0.5174 -0.9624 -1.4999
    1SAPS  C214   65   5.749   5.412   5.643  0.0320 -0.4271  0.0313
    1SAPS  H14R   66   5.846   5.386   5.688  0.2400 -1.4378 -0.9479
    1SAPS  C215   67   5.743   5.418   5.508 -0.7244  0.1602 -0.4536
    1SAPS  H15R   68   5.826   5.371   5.453 -0.4821  2.4181 -2.1544
    1SAPS  C216   69   5.633   5.475   5.422 -0.2812 -0.5456 -0.1443
    1SAPS  H16R   70   5.673   5.498   5.321 -2.0923 -2.1297 -1.2833
    1SAPS  H16S   71   5.606   5.569   5.476  1.1544 -1.2698  1.9646
    1SAPS  C217   72   5.505   5.381   5.402 -0.1750 -0.0075 -0.2084
    1SAPS  H17R   73   5.445   5.389   5.495  0.4591  0.0271  0.1978
    1SAPS  H17S   74   5.543   5.276   5.404 -2.3796 -0.8684  0.3594
    1SAPS  C218   75   5.418   5.411   5.286  0.0217 -0.2238  0.7907
    1SAPS  H18R   76   5.477   5.380   5.196 -0.9249 -0.2898  0.1753
    1SAPS  H18S   77   5.399   5.520   5.271  0.2211 -0.3193 -0.2810
    1SAPS  C219   78   5.289   5.322   5.293 -0.2677 -0.6883 -0.0655
    1SAPS  H19R   79   5.237   5.348   5.388  0.0959 -0.5045  0.0837
    1SAPS  H19S   80   5.315   5.215   5.304 -1.6078 -1.1417 -1.0166
    1SAPS  C220   81   5.204   5.327   5.172  0.9143  0.1768  0.2223
    1SAPS  H20R   82   5.139   5.417   5.169 -3.0052 -2.4287 -3.0117
    1SAPS  H20S   83   5.140   5.239   5.150  0.4264  0.5435  0.1769
    1SAPS  H20T   84   5.271   5.334   5.083  0.8330 -0.9963  0.0520
    1SAPS   C33   85   5.171   5.947   6.755  0.5944  0.0638  0.0053
    1SAPS   H3X   86   5.115   6.022   6.815 -0.1682 -1.1284  0.8311
    1SAPS   H3Y   87   5.125   5.847   6.764 -1.0501  0.5259 -2.4152
    1SAPS   C34   88   5.164   5.992   6.607  0.5990 -0.0258 -0.5187
    1SAPS   H4X   89   5.219   6.088   6.602  0.4057  0.0640 -0.9699
    1SAPS   H4Y   90   5.063   6.033   6.583 -0.4484 -1.6141  0.8929
    1SAPS   C35   91   5.209   5.885   6.505 -0.0285 -0.3883 -0.2914
    1SAPS   H5X   92   5.149   5.793   6.489 -0.7609  0.0001  0.1631
    1SAPS   H5Y   93   5.309   5.850   6.538 -0.5833  0.3337  2.5083
    1SAPS   C36   94   5.217   5.934   6.360 -0.8821 -0.3048 -0.5126
    1SAPS   H6X   95   5.275   5.856   6.306  1.1119  2.2633 -2.3225
    1SAPS   H6Y   96   5.287   6.020   6.355  0.0004 -1.0336 -0.9131
    1SAPS   C37   97   5.094   5.973   6.287  0.1528 -0.6258 -0.0141
    1SAPS   H7X   98   5.048   6.066   6.327 -0.8488  0.2745 -3.0224
    1SAPS   H7Y   99   5.020   5.890   6.288  0.1889 -0.6615 -0.2400
    1SAPS   C38  100   5.105   6.012   6.135  0.1830  0.6430  0.1814
    1SAPS   H8X  101   5.195   6.073   6.113 -0.4259  1.5071  0.0629
    1SAPS   H8Y  102   5.023   6.085   6.119 -0.5518 -0.6048 -2.1193
    1SAPS   C39  103   5.098   5.896   6.039 -0.4200  0.3725 -0.1505
    1SAPS   H9X  104   5.000   5.849   6.058 -0.8076  1.7018  1.4414
    1SAPS   H9Y  105   5.179   5.826   6.069 -1.6941 -0.1125  2.4093
    1SAPS  C310  106   5.115   5.931   5.889  0.4813  0.4632 -0.2755
    1SAPS  H10X  107   5.109   5.843   5.822 -2.3957  0.4993 -0.1834
    1SAPS  H10Y  108   5.213   5.984   5.885  0.6862  0.0642 -0.6931
    1SAPS  C311  109   5.011   6.023   5.833 -0.2976 -0.6314 -0.3069
    1SAPS  H11X  110   5.029   6.118   5.887  0.3159 -1.5252  1.1232
    1SAPS  H11Y  111   4.912   5.979   5.856 -0.2384  0.7092  3.1674
    1SAPS  C312  112   5.028   6.055   5.682  0.4152  0.0668 -0.4023
    1SAPS  H12X  113   5.031   5.968   5.613 -0.9864 -0.5226  0.2414
    1SAPS  H12Y  114   5.117   6.120   5.668 -0.0514  1.0371  0.9506
    1SAPS  C313  115   4.896   6.130   5.632 -0.1154  0.4244  0.0617
    1SAPS  H13X  116   4.868   6.212   5.701 -1.2954  1.0896 -1.1540
    1SAPS  H13Y  117   4.820   6.051   5.650 -0.0331  0.1304 -0.8322
    1SAPS  C314  118   4.918   6.178   5.488 -0.1547 -0.0784  0.1217
    1SAPS  H14X  119   4.974   6.104   5.426  0.7014  0.2670  0.4688
    1SAPS  H14Y  120   4.975   6.273   5.485 -1.1086  0.5018  0.0061
    1SAPS  C315  121   4.794   6.217   5.410  0.1466  0.1965  0.4842
    1SAPS  H15X  122   4.768   6.319   5.446  1.3384  0.1327  1.5988
    1SAPS  H15Y  123   4.717   6.143   5.439  1.4185 -1.4046 -0.0757
    1SAPS  C316  124   4.820   6.226   5.257  0.0629 -0.0647  0.2804
    1SAPS  H16X  125   4.723   6.226   5.203  0.2994  1.4187 -0.2013
    1SAPS  H16Y  126   4.863   6.128   5.226 -0.0254  0.3912 -1.3699
    1SAPS  C317  127   4.915   6.329   5.204  0.0629 -0.6589  0.3821
    1SAPS  H17X  128   4.915   6.332   5.093  0.4427  2.0434  0.3775
    1SAPS  H17Y  129   5.018   6.310   5.240  0.0714 -1.5265 -0.0879
    1SAPS  C318  130   4.893   6.474   5.239  0.2728 -0.6848 -0.1298
    1SAPS  H18X  131   4.790   6.506   5.212  0.7278 -2.0499 -4.1159
    1SAPS  H18Y  132   4.953   6.541   5.175 -0.2246  1.4818  1.5537
    1SAPS  H18Z  133   4.911   6.498   5.346 -0.2446  0.7555 -0.3515
    2SAPS     N  134   4.611   2.371   7.630  0.1084  0.8055  0.5457
    2SAPS   HN1  135   4.692   2.372   7.695 -0.5700 -1.5225  1.5044
    2SAPS   HN2  136   4.528   2.371   7.692  0.3552 -1.0819  0.9161
    2SAPS   HN3  137   4.607   2.282   7.576  0.9383  0.6293  0.7672
    2SAPS   C12  138   4.602   2.482   7.536  0.1650  0.4725  0.1672
    2SAPS  H12A  139   4.551   2.563   7.586 -2.0255  0.0698 -1.2743
    2SAPS   C13  140   4.727   2.543   7.473 -0.1505 -0.0855  0.9485
    2SAPS  O13A  141   4.838   2.478   7.492  0.3973  0.3034  0.0621
    2SAPS  O13B  142   4.724   2.631   7.383 -0.4106 -0.3227  0.3053
    2SAPS   C11  143   4.506   2.435   7.423 -0.4964  0.0587 -0.8907
    2SAPS  H11A  144   4.558   2.366   7.353 -2.2816 -0.4667 -1.7574
    2SAPS  H11B  145   4.473   2.530   7.376 -0.4720  0.9667  0.8485
    2SAPS     P  146   4.254   2.382   7.412 -0.0366 -0.0231 -0.3646
    2SAPS   O13  147   4.172   2.280   7.481 -0.1041 -0.1918 -0.1069
    2SAPS   O14  148   4.207   2.525   7.424  0.0358  0.3653  0.2914
    2SAPS   O12  149   4.397   2.369   7.477  0.0952 -0.0201 -0.3214
    2SAPS   O11  150   4.288   2.355   7.268 -0.3920  0.4941  0.6155
    2SAPS    C1  151   4.273   2.451   7.164  0.0174 -0.5196  0.5104
    2SAPS    HA  152   4.169   2.489   7.164 -0.0733 -0.7619  0.8371
    2SAPS    HB  153   4.332   2.543   7.180 -1.4452  1.3381 -3.4492
    2SAPS    C2  154   4.300   2.407   7.011  0.4890 -0.3301  0.0795
    2SAPS    HS  155   4.333   2.490   6.946  0.0948 -0.1366  0.1253
    2SAPS   O21  156   4.178   2.358   6.950  0.4772  1.0126  0.5186
    2SAPS   C21  157   4.097   2.454   6.920 -0.4731  0.3673  0.3456
    2SAPS   O22  158   4.120   2.575   6.936  0.1565 -0.4664 -0.0586
    2SAPS   C22  159   3.975   2.401   6.839  0.5011  0.6735  0.7388
    2SAPS   H2R  160   3.890   2.407   6.910  1.2825 -0.2287  1.7912
    2SAPS   H2S  161   3.961   2.474   6.756 -1.5228 -1.7255 -1.1966
    2SAPS    C3  162   4.408   2.291   7.007 -0.4047 -0.3861 -0.1245
    2SAPS    HX  163   4.373   2.205   7.069  3.7143 -1.4169  1.1320
    2SAPS    HY  164   4.501   2.317   7.063 -0.6830 -0.3428  0.3176
    2SAPS   O31  165   4.438   2.247   6.874  0.0442  0.0463 -0.0897
    2SAPS   C31  166   4.513   2.333   6.800 -0.0520  0.7802  1.4891
    2SAPS   O32  167   4.561   2.437   6.837 -0.2061  0.2087  0.3328
    2SAPS   C32  168   4.524   2.268   6.659 -0.2366  0.3819 -0.5368
    2SAPS   H2X  169   4.423   2.230   6.629 -0.6242  0.9474  0.0213
    2SAPS   H2Y  170   4.598   2.187   6.668 -1.0396 -0.2185  1.0307
    2SAPS   C23  171   3.990   2.257   6.787  0.4562  0.5329 -1.1242
    2SAPS   H3R  172   3.981   2.195   6.879  0.2244  1.0046 -0.8216
    2SAPS   H3S  173   4.091   2.246   6.742  0.7978  0.2373 -0.3129
    2SAPS   C24  174   3.879   2.223   6.686  0.5356  0.3121  0.1625
    2SAPS   H4R  175   3.894   2.278   6.591 -1.0699  0.4535 -0.0320
    2SAPS   H4S  176   3.782   2.260   6.726  1.3758  0.9742  1.7010
    2SAPS   C25  177   3.866   2.072   6.671  0.5249 -1.0387  0.4706
    2SAPS   H5R  178   3.881   2.019   6.766  0.1558  1.7013  2.1426
    2SAPS   C26  179   3.837   2.005   6.562  0.0494 -0.0343  0.0744
    2SAPS   H6R  180   3.843   1.895   6.560 -0.9806 -0.1054 -2.1520
    2SAPS   C27  181   3.830   2.065   6.425 -0.1145  0.1789  0.1550
    2SAPS   H7R  182   3.867   1.982   6.362 -1.2570  0.7700 -1.3569
    2SAPS   H7S  183   3.898   2.151   6.412 -0.9712  0.6931 -1.1098
    2SAPS   C28  184   3.686   2.088   6.382 -0.0681 -0.0917 -0.0733
    2SAPS   H8R  185   3.622   2.126   6.463 -0.8094 -0.7434 -0.3359
    2SAPS   C29  186   3.626   2.052   6.262 -0.3287 -0.4298 -0.1985
    2SAPS   H9R  187   3.516   2.059   6.256 -0.2630 -0.6166 -2.2041
    2SAPS  C210  188   3.690   1.989   6.148  0.3472  0.1912  0.0386
    2SAPS  H10R  189   3.795   1.957   6.165 -0.1025 -1.8232 -0.6559
    2SAPS  H10S  190   3.706   2.058   6.062 -2.7677  1.4065  0.3132
    2SAPS  C211  191   3.621   1.855   6.109  0.4669 -0.3253 -0.2620
    2SAPS  H11R  192   3.624   1.782   6.192 -0.7025  3.5365  3.5648
    2SAPS  C212  193   3.537   1.825   6.012  0.0464 -0.7513  0.9841
    2SAPS  H12R  194   3.500   1.722   6.005 -0.5706 -0.3885 -3.1433
    2SAPS  C213  195   3.503   1.923   5.900 -0.0524  0.3114  0.3096
    2SAPS  H13R  196   3.544   1.884   5.804  3.2417  0.4797  1.5068
    2SAPS  H13S  197   3.545   2.025   5.912  0.5487  0.0478  0.5153
    2SAPS  C214  198   3.350   1.932   5.892  0.5857  0.1225 -0.1727
    2SAPS  H14R  199   3.298   1.842   5.859  1.5965 -0.4076 -0.3743
    2SAPS  C215  200   3.270   2.031   5.942 -0.2828  0.4614  0.6186
    2SAPS  H15R  201   3.161   2.024   5.947 -0.3963  1.0212 -0.7457
    2SAPS  C216  202   3.313   2.171   5.990 -0.3051  0.5411 -0.6664
    2SAPS  H16R  203   3.275   2.256   5.931 -1.4150 -0.8074 -1.9765
    2SAPS  H16S  204   3.424   2.173   5.993 -0.2731 -0.2768  2.6881
    2SAPS  C217  205   3.277   2.199   6.136 -0.2979  0.1731 -0.3529
    2SAPS  H17R  206   3.310   2.120   6.207  0.0692 -1.4027 -2.2095
    2SAPS  H17S  207   3.166   2.205   6.147 -0.4191 -1.5237 -0.4524
    2SAPS  C218  208   3.344   2.336   6.176  0.8070  0.8660  0.2499
    2SAPS  H18R  209   3.314   2.406   6.095 -0.6127  1.5592  1.3296
    2SAPS  H18S  210   3.452   2.310   6.184  1.0429  1.5143 -0.6548
    2SAPS  C219  211   3.301   2.385   6.311 -0.3081  0.2822 -0.0637
    2SAPS  H19R  212   3.336   2.491   6.314 -0.0582  0.1971  0.1157
    2SAPS  H19S  213   3.345   2.330   6.397 -0.5817  0.5243  0.2391
    2SAPS  C220  214   3.151   2.392   6.343  0.5174  0.2767 -0.5457
    2SAPS  H20R  215   3.142   2.415   6.451  1.1509 -0.8785 -0.2278
    2SAPS  H20S  216   3.095   2.296   6.334 -1.8738  0.9398  4.1749
    2SAPS  H20T  217   3.093   2.473   6.294 -2.6965 -1.6940 -0.2578
    2SAPS   C33  218   4.571   2.376   6.556  0.1192 -0.5147 -0.5541
    2SAPS   H3X  219   4.674   2.407   6.580 -0.1392 -0.7181  0.9078
    2SAPS   H3Y  220   4.497   2.459   6.554 -0.9398 -1.4234 -1.1080
    2SAPS   C34  221   4.581   2.311   6.417 -0.4527 -0.3039 -0.2466
    2SAPS   H4X  222   4.485   2.262   6.390 -0.7578 -0.7076  1.4511
    2SAPS   H4Y  223   4.644   2.219   6.419  1.6724  1.0510  2.2008
    2SAPS   C35  224   4.628   2.415   6.319  0.1649  0.0851 -0.1928
    2SAPS   H5X  225   4.718   2.473   6.350 -0.0217  0.9264 -1.1467
    2SAPS   H5Y  226   4.546   2.490   6.315  0.3784  0.3546  0.3783
    2SAPS   C36  227   4.662   2.365   6.185 -0.0918  0.1066 -0.1187
    2SAPS   H6X  228   4.582   2.299   6.146 -1.3722  2.0398 -0.8520
    2SAPS   H6Y  229   4.755   2.303   6.180  0.3767  0.8977 -1.8314
    2SAPS   C37  230   4.681   2.484   6.096 -0.2842  0.3102 -0.8196
    2SAPS   H7X  231   4.744   2.562   6.145 -1.3132 -0.0983  1.2524
    2SAPS   H7Y  232   4.582   2.531   6.080 -1.4122 -1.2351  1.1864
    2SAPS   C38  233   4.739   2.465   5.957 -0.2960 -0.0078  0.4064
    2SAPS   H8X  234   4.830   2.402   5.961 -0.6835 -0.6886 -1.0188
    2SAPS   H8Y  235   4.763   2.565   5.916 -1.7758  0.4683  0.6417
    2SAPS   C39  236   4.649   2.383   5.867 -0.0743  0.0467  0.3049
    2SAPS   H9X  237   4.559   2.445   5.848 -0.0203  0.7161  2.0438
    2SAPS   H9Y  238   4.622   2.290   5.921  0.4377 -0.4086 -0.2143
    2SAPS  C310  239   4.715   2.343   5.738 -0.5762  0.1489  0.2901
    2SAPS  H10X  240   4.809   2.291   5.769  0.3506  2.0942  0.9346
    2SAPS  H10Y  241   4.742   2.432   5.677 -0.4914 -0.0338  0.0569
    2SAPS  C311  242   4.623   2.247   5.661  0.6141 -0.8906 -0.4255
    2SAPS  H11X  243   4.536   2.312   5.641  2.7177  2.6535  1.0972
    2SAPS  H11Y  244   4.591   2.153   5.710  1.8096 -0.3923  1.4209
    2SAPS  C312  245   4.674   2.224   5.510  0.7162  0.3643  0.2996
    2SAPS  H12X  246   4.603   2.147   5.470  1.6878  0.1301 -1.0200
    2SAPS  H12Y  247   4.781   2.196   5.510  0.4877 -0.5880  0.8557
    2SAPS  C313  248   4.654   2.349   5.414 -0.4662 -0.1811 -0.1423
    2SAPS  H13X  249   4.698   2.434   5.470  2.6434 -0.2673 -2.1996
    2SAPS  H13Y  250   4.547   2.371   5.391 -0.9752 -0.6606  1.6582
    2SAPS  C314  251   4.723   2.332   5.273 -0.1418  0.2368  0.2467
    2SAPS  H14X  252   4.686   2.245   5.214  0.5873 -0.7924  1.2735
    2SAPS  H14Y  253   4.829   2.309   5.296  0.2406  0.3260 -1.2925
    2SAPS  C315  254   4.707   2.450   5.177 -0.6187  0.3110 -0.5045
    2SAPS  H15X  255   4.723   2.543   5.235 -1.6863  0.2682 -0.1021
    2SAPS  H15Y  256   4.597   2.451   5.159 -0.5288  0.5883 -1.0604
    2SAPS  C316  257   4.783   2.430   5.046  0.5083  0.1324  0.1917
    2SAPS  H16X  258   4.740   2.339   5.000  0.0363  0.8260 -0.7839
    2SAPS  H16Y  259   4.892   2.419   5.064  1.5645 -1.4562 -5.3659
    2SAPS  C317  260   4.757   2.527   4.941  0.4875 -0.5490  0.1732
    2SAPS  H17X  261   4.650   2.554   4.941  0.7698  0.6213  0.2255
    2SAPS  H17Y  262   4.786   2.491   4.839 -1.0238 -2.4811  0.3724
    2SAPS  C318  263   4.825   2.660   4.967 -0.0539 -0.0196  0.2656
    2SAPS  H18X  264   4.931   2.634   4.984 -0.2697 -1.2053 -0.1282
    2SAPS  H18Y  265   4.788   2.706   5.061 -1.9440 -2.9986  1.1016
    2SAPS  H18Z  266   4.807   2.730   4.882  0.0751 -1.4636 -0.9956
    3SAPS     N  267   3.335   6.011   7.413 -0.8391  0.3905  0.0649
    3SAPS   HN1  268   3.279   5.978   7.332  0.6778  1.8053 -1.6397
    3SAPS   HN2  269   3.417   6.068   7.381 -1.0845  0.4801 -0.4067
    3SAPS   HN3  270   3.380   5.929   7.459 -1.0255 -0.0024 -0.4465
    3SAPS   C12  271   3.249   6.071   7.520  0.4368 -0.3637  0.5773
    3SAPS  H12A  272   3.173   5.997   7.542  0.5671 -0.8956 -0.6844
    3SAPS   C13  273   3.324   6.098   7.652 -0.5792 -0.2340 -0.1056
    3SAPS  O13A  274   3.450   6.076   7.665 -0.2529 -1.3898 -0.0052
    3SAPS  O13B  275   3.258   6.124   7.760  0.7232 -0.5374 -0.0924
    3SAPS   C11  276   3.183   6.206   7.472  1.1306  0.0700 -0.4379
    3SAPS  H11A  277   3.267   6.261   7.424  0.9247  1.4829  0.7391
    3SAPS  H11B  278   3.157   6.280   7.551 -0.6148  1.7564 -2.4986
    3SAPS     P  279   2.938   6.139   7.433 -0.2845  0.6925 -0.2822
    3SAPS   O13  280   2.899   6.008   7.367  0.0813 -0.4240 -0.3432
    3SAPS   O14  281   2.937   6.139   7.579  0.1376 -0.7341 -0.8976
    3SAPS   O12  282   3.085   6.185   7.377  0.7433 -0.3192 -0.5348
    3SAPS   O11  283   2.833   6.249   7.389 -0.2105  0.1418 -0.4236
    3SAPS    C1  284   2.881   6.364   7.322 -0.5920 -0.0046  0.4833
    3SAPS    HA  285   2.826   6.455   7.355 -0.2629  0.2873  0.2395
    3SAPS    HB  286   2.982   6.394   7.357 -0.9794  1.7470  0.2077
    3SAPS    C2  287   2.857   6.348   7.175  0.9530  0.9112  0.5567
    3SAPS    HS  288   2.907   6.257   7.136 -0.3938 -0.4519  1.8890
    3SAPS   O21  289   2.887   6.464   7.097  0.2030  0.0138  0.0962
    3SAPS   C21  290   3.013   6.496   7.097 -0.0328 -0.4718 -0.6379
    3SAPS   O22  291   3.106   6.436   7.150 -0.8756 -0.0953  0.5038
    3SAPS   C22  292   3.029   6.623   7.014  0.0525 -0.5463 -0.1603
    3SAPS   H2R  293   2.984   6.610   6.913 -0.4805  3.2272 -0.5544
    3SAPS   H2S  294   2.975   6.699   7.074 -0.7850  0.9246 -2.6350
    3SAPS    C3  295   2.706   6.319   7.160  0.4375  0.1806  1.1074
    3SAPS    HX  296   2.652   6.412   7.187 -1.0400  0.2994 -1.8194
    3SAPS    HY  297   2.676   6.234   7.226 -0.0218  0.0066  0.6840
    3SAPS   O31  298   2.669   6.295   7.024  0.3350  0.3969 -0.9185
    3SAPS   C31  299   2.661   6.167   6.973 -0.3444 -1.0675 -0.1609
    3SAPS   O32  300   2.699   6.066   7.029 -0.0171  0.1129 -0.4577
    3SAPS   C32  301   2.573   6.170   6.853  0.6208  0.0708  0.1490
    3SAPS   H2X  302   2.628   6.137   6.762 -0.4091  0.7367 -0.7407
    3SAPS   H2Y  303   2.549   6.276   6.829  3.4265  0.6914 -0.1807
    3SAPS   C23  304   3.177   6.668   7.005 -0.1164 -0.1840 -0.3952
    3SAPS   H3R  305   3.250   6.596   6.963 -1.8033 -0.4297 -3.1288
    3SAPS   H3S  306   3.202   6.698   7.109  2.8527  1.0575 -1.3652
    3SAPS   C24  307   3.190   6.805   6.928  0.3090  0.0301  0.6112
    3SAPS   H4R  308   3.109   6.864   6.975 -0.7384 -0.6457 -0.3212
    3SAPS   H4S  309   3.163   6.784   6.823  3.7155 -0.3433 -0.3304
    3SAPS   C25  310   3.324   6.870   6.938 -0.3024 -0.8493 -0.4964
    3SAPS   H5R  311   3.365   6.878   7.040  0.1771  0.2358 -0.7554
    3SAPS   C26  312   3.404   6.926   6.839  0.4999  0.0228 -0.2768
    3SAPS   H6R  313   3.496   6.978   6.869  2.1523 -2.6347 -0.4508
    3SAPS   C27  314   3.380   6.931   6.693 -0.0633 -0.3496  0.3897
    3SAPS   H7R  315   3.331   7.030   6.682  0.9134  0.1214  0.1832
    3SAPS   H7S  316   3.314   6.849   6.657 -0.5758  0.3775 -0.3583
    3SAPS   C28  317   3.510   6.935   6.608  0.2398 -0.2716 -0.9365
    3SAPS   H8R  318   3.571   7.020   6.644 -0.7413  0.7023 -1.5013
    3SAPS   C29  319   3.549   6.854   6.509 -0.0378  0.0600 -0.4869
    3SAPS   H9R  320   3.645   6.872   6.459  1.1352 -0.5656  1.4406
    3SAPS  C210  321   3.479   6.738   6.446  0.3230  0.4988 -0.6575
    3SAPS  H10R  322   3.371   6.728   6.466  0.3890 -0.0527 -0.5592
    3SAPS  H10S  323   3.514   6.643   6.491 -2.3651 -0.6400 -0.7946
    3SAPS  C211  324   3.505   6.737   6.299 -0.0002  0.7663 -0.6668
    3SAPS  H11R  325   3.591   6.675   6.269 -1.0106 -0.7411 -0.5906
    3SAPS  C212  326   3.422   6.784   6.205 -0.7456  1.1189  0.4991
    3SAPS  H12R  327   3.463   6.790   6.103 -0.1033  0.7460  0.7313
    3SAPS  C213  328   3.297   6.858   6.231  0.5038 -0.3721 -0.4527
    3SAPS  H13R  329   3.304   6.887   6.338 -0.8251  0.2688 -0.5136
    3SAPS  H13S  330   3.219   6.779   6.223 -0.4776  0.4219  0.8430
    3SAPS  C214  331   3.281   6.977   6.139 -0.2143 -0.7433 -0.0087
    3SAPS  H14R  332   3.345   7.059   6.176  0.4126 -1.3646  0.2969
    3SAPS  C215  333   3.222   6.994   6.024  0.2873 -0.4914  1.0859
    3SAPS  H15R  334   3.230   7.088   5.967 -1.2668 -0.5182  0.7634
    3SAPS  C216  335   3.136   6.890   5.947 -0.2851 -0.6693 -0.5261
    3SAPS  H16R  336   3.047   6.935   5.899 -1.0813 -0.8258  0.7663
    3SAPS  H16S  337   3.097   6.804   6.005 -2.9156  0.6966 -0.1253
    3SAPS  C217  338   3.236   6.822   5.849  0.2199  0.5219 -0.0175
    3SAPS  H17R  339   3.306   6.757   5.904  0.6814  1.4932  0.5736
    3SAPS  H17S  340   3.293   6.890   5.781  1.8285  0.7192  1.4598
    3SAPS  C218  341   3.159   6.722   5.757  0.0153 -0.2796  0.1231
    3SAPS  H18R  342   3.084   6.783   5.703  1.2130  1.5116  0.4093
    3SAPS  H18S  343   3.111   6.644   5.819  2.0353 -0.3759  1.6809
    3SAPS  C219  344   3.257   6.646   5.663 -0.0898 -0.3984  0.6587
    3SAPS  H19R  345   3.273   6.706   5.571 -0.7179  2.3576  2.2528
    3SAPS  H19S  346   3.359   6.647   5.708  1.8496 -1.0756 -3.2752
    3SAPS  C220  347   3.218   6.496   5.633 -0.9419 -0.7261 -0.8215
    3SAPS  H20R  348   3.219   6.445   5.732  2.3609  2.1678  0.8849
    3SAPS  H20S  349   3.293   6.459   5.559  0.5661  0.7357 -0.1009
    3SAPS  H20T  350   3.123   6.507   5.577 -0.6383 -0.0807 -1.2166
    3SAPS   C33  351   2.457   6.075   6.878 -0.1799  0.4499 -0.3585
    3SAPS   H3X  352   2.409   6.100   6.975 -0.7466 -0.6849 -0.3287
    3SAPS   H3Y  353   2.489   5.970   6.893  1.3712  1.0054  0.5758
    3SAPS   C34  354   2.364   6.055   6.757 -0.0871  0.5423 -0.3844
    3SAPS   H4X  355   2.313   6.154   6.745 -0.6292  0.0896 -2.1247
    3SAPS   H4Y  356   2.292   5.974   6.782  0.4415  0.4879  1.0318
    3SAPS   C35  357   2.430   6.029   6.620  0.4162 -0.1652 -0.0229
    3SAPS   H5X  358   2.491   6.121   6.607 -0.4233  0.5929  1.1417
    3SAPS   H5Y  359   2.498   5.942   6.632  1.6867  0.9475  1.2323
    3SAPS   C36  360   2.332   6.011   6.510  0.8251  0.1826 -0.4814
    3SAPS   H6X  361   2.275   6.105   6.500  2.3145  1.1094 -0.4932
    3SAPS   H6Y  362   2.254   5.940   6.545  1.5600 -0.7598 -0.6977
    3SAPS   C37  363   2.394   5.970   6.376  0.0760 -1.0156 -0.3330
    3SAPS   H7X  364   2.479   5.899   6.387  0.9378 -0.1236 -1.0618
    3SAPS   H7Y  365   2.438   6.064   6.337  0.3947 -0.4018  1.4278
    3SAPS   C38  366   2.293   5.923   6.268 -0.0793  0.5640  0.1664
    3SAPS   H8X  367   2.214   6.000   6.259 -1.2947 -0.7708 -0.8633
    3SAPS   H8Y  368   2.235   5.836   6.304 -0.9847 -0.3468 -3.2091
    3SAPS   C39  369   2.350   5.901   6.125 -0.7499 -0.0193  0.3184
    3SAPS   H9X  370   2.430   5.824   6.125  2.3163  2.8068  4.1122
    3SAPS   H9Y  371   2.402   5.993   6.088 -0.1928 -0.4819 -0.0726
    3SAPS  C310  372   2.242   5.873   6.020 -0.2813 -0.2855  0.2162
    3SAPS  H10X  373   2.166   5.953   6.030 -0.5362 -0.3506 -1.0142
    3SAPS  H10Y  374   2.190   5.777   6.042 -2.1683  0.9296  1.2762
    3SAPS  C311  375   2.295   5.889   5.879 -0.4793  0.4762  0.3959
    3SAPS  H11X  376   2.356   5.799   5.854 -0.2095  0.4331  1.1654
    3SAPS  H11Y  377   2.358   5.980   5.867  1.0942 -0.7559 -1.2942
    3SAPS  C312  378   2.176   5.881   5.784  0.1286  0.4085  0.6398
    3SAPS  H12X  379   2.142   5.987   5.775 -0.2910  0.1995 -0.2921
    3SAPS  H12Y  380   2.094   5.823   5.833 -0.1385  0.9579  0.8581
    3SAPS  C313  381   2.217   5.824   5.646  0.9750 -0.1093 -0.3135
    3SAPS  H13X  382   2.268   5.724   5.650 -1.1047 -1.1782  1.7829
    3SAPS  H13Y  383   2.285   5.900   5.604  0.1608  1.7446  1.5545
    3SAPS  C314  384   2.104   5.814   5.541 -0.2437 -0.1446 -0.6120
    3SAPS  H14X  385   2.056   5.914   5.539 -1.8775 -0.9022 -0.4522
    3SAPS  H14Y  386   2.033   5.735   5.575 -2.5584  2.0185 -0.1262
    3SAPS  C315  387   2.153   5.773   5.403  0.4032 -0.2636  0.2931
    3SAPS  H15X  388   2.204   5.857   5.352 -0.1909  0.5195  0.9562
    3SAPS  H15Y  389   2.058   5.746   5.353  0.1576  0.8421  0.1353
    3SAPS  C316  390   2.259   5.653   5.389 -0.1171 -0.5808  0.2725
    3SAPS  H16X  391   2.229   5.581   5.469 -0.7263 -1.1537 -0.4469
    3SAPS  H16Y  392   2.356   5.699   5.417 -0.3610 -1.1019  2.1250
    3SAPS  C317  393   2.246   5.589   5.256 -0.0043 -0.4161  0.2609
    3SAPS  H17X  394   2.139   5.567   5.234 -0.3598  2.6609 -1.7734
    3SAPS  H17Y  395   2.295   5.491   5.271  1.0075  0.3611  2.3268
    3SAPS  C318  396   2.306   5.656   5.138  0.3256  0.2531 -0.3730
    3SAPS  H18X  397   2.283   5.609   5.040  0.9569  3.1539 -2.0503
    3SAPS  H18Y  398   2.416   5.649   5.153  0.5837  0.4221 -2.0177
    3SAPS  H18Z  399   2.265   5.759   5.128 -1.6887 -0.4489  0.1958
    4SAPS     N  400   3.089   4.539   7.343  0.7293 -0.0886 -0.4759
    4SAPS   HN1  401   3.148   4.590   7.275 -0.5696  1.7069 -0.3068
    4SAPS   HN2  402   3.118   4.583   7.433  0.2381  1.7030 -1.1527
    4SAPS   HN3  403   3.112   4.438   7.350  0.3932 -0.1043  0.5928
    4SAPS   C12  404   2.940   4.558   7.306 -0.0617  0.6657 -0.6000
    4SAPS  H12A  405   2.888   4.474   7.349  2.7852 -1.0226 -0.1655
    4SAPS   C13  406   2.881   4.685   7.364  0.6047 -0.9289 -0.5512
    4SAPS  O13A  407   2.962   4.774   7.401 -0.0279 -0.5580 -0.1721
    4SAPS  O13B  408   2.762   4.719   7.350  0.5409  0.3610  0.5297
    4SAPS   C11  409   2.923   4.528   7.160  0.6985 -0.2602  0.4402
    4SAPS  H11A  410   2.947   4.620   7.103 -0.9793  0.3174  0.5980
    4SAPS  H11B  411   2.814   4.513   7.147  0.0769  2.8758  1.3117
    4SAPS     P  412   2.946   4.265   7.102  0.3049  0.2298  0.3825
    4SAPS   O13  413   2.871   4.220   7.221  0.4807  0.1143  0.0477
    4SAPS   O14  414   2.880   4.244   6.968 -0.4086 -0.4229  0.1761
    4SAPS   O12  415   2.996   4.420   7.116  0.6374 -0.1475  0.5215
    4SAPS   O11  416   3.079   4.184   7.105  0.0870  0.7000  0.1320
    4SAPS    C1  417   3.207   4.233   7.076 -0.1332  0.1202 -0.1964
    4SAPS    HA  418   3.228   4.331   7.123 -1.5332  1.0527 -1.4414
    4SAPS    HB  419   3.286   4.163   7.112 -0.4685 -0.6132 -0.8576
    4SAPS    C2  420   3.242   4.235   6.924  0.2219 -0.0415 -0.1117
    4SAPS    HS  421   3.353   4.237   6.928  0.3125 -2.9135  2.0565
    4SAPS   O21  422   3.181   4.343   6.854 -0.5523 -0.2939 -0.0498
    4SAPS   C21  423   3.223   4.462   6.891  0.3099  0.3457  0.8740
    4SAPS   O22  424   3.318   4.490   6.961 -0.0209 -0.0714 -0.4157
    4SAPS   C22  425   3.137   4.573   6.828 -0.3200  0.7594  0.1865
    4SAPS   H2R  426   3.037   4.561   6.875 -0.5300  2.4088  0.2351
    4SAPS   H2S  427   3.174   4.672   6.864 -0.5487  0.7307  0.5038
    4SAPS    C3  428   3.201   4.098   6.865 -1.1049  0.0807  0.1879
    4SAPS    HX  429   3.095   4.084   6.835 -0.3914 -1.8011 -1.7745
    4SAPS    HY  430   3.217   4.023   6.945  0.7381  0.8048  0.5439
    4SAPS   O31  431   3.293   4.064   6.759 -0.2927 -0.3118 -0.1067
    4SAPS   C31  432   3.233   4.077   6.635  0.4173 -0.5647  0.4564
    4SAPS   O32  433   3.133   4.146   6.620 -0.4893 -0.2812 -0.2879
    4SAPS   C32  434   3.321   4.006   6.524 -0.0143 -0.4846 -0.5423
    4SAPS   H2X  435   3.339   3.900   6.551  1.8497 -0.5395 -1.7968
    4SAPS   H2Y  436   3.424   4.047   6.524  0.8693 -2.5743 -0.1081
    4SAPS   C23  437   3.126   4.577   6.671 -0.6837 -0.1965  0.4179
    4SAPS   H3R  438   3.083   4.481   6.636  1.5237 -1.1048 -0.0097
    4SAPS   H3S  439   3.226   4.594   6.625 -0.4431 -2.0466  0.2078
    4SAPS   C24  440   3.050   4.701   6.621 -0.1800 -0.6360  0.2364
    4SAPS   H4R  441   3.113   4.791   6.638  1.4574 -1.7187  0.1012
    4SAPS   H4S  442   2.956   4.701   6.681 -0.0971 -1.6846  0.3808
    4SAPS   C25  443   3.001   4.699   6.476 -0.7951 -0.2393 -0.3580
    4SAPS   H5R  444   3.072   4.752   6.410  2.1613 -3.1050  0.2919
    4SAPS   C26  445   2.883   4.650   6.433 -0.4744 -0.4501 -0.3332
    4SAPS   H6R  446   2.858   4.680   6.330 -0.5897  2.2257  0.3846
    4SAPS   C27  447   2.773   4.593   6.519  1.0424  0.0760 -0.1546
    4SAPS   H7R  448   2.774   4.641   6.620 -0.3550 -1.2676  0.5543
    4SAPS   H7S  449   2.795   4.486   6.538  1.1110 -0.1054 -1.2117
    4SAPS   C28  450   2.642   4.614   6.444 -0.3236 -0.8169  0.0345
    4SAPS   H8R  451   2.601   4.715   6.453  0.1823 -0.5234 -0.8816
    4SAPS   C29  452   2.584   4.518   6.364 -0.5123 -0.9744 -0.0268
    4SAPS   H9R  453   2.497   4.552   6.307  1.1903  2.0147 -1.0429
    4SAPS  C210  454   2.648   4.383   6.328 -0.0713  0.1843  0.0163
    4SAPS  H10R  455   2.594   4.304   6.384 -0.7050 -0.3416 -1.3012
    4SAPS  H10S  456   2.756   4.383   6.356  0.2851  2.5118 -1.0814
    4SAPS  C211  457   2.640   4.348   6.182 -0.6116 -0.1695  0.4255
    4SAPS  H11R  458   2.553   4.285   6.157 -1.5650  0.9467  0.8564
    4SAPS  C212  459   2.720   4.388   6.080  1.1208 -0.5225  0.3905
    4SAPS  H12R  460   2.685   4.359   5.980  0.4376  0.3455  0.3637
    4SAPS  C213  461   2.830   4.490   6.090 -0.0496  0.1768  0.0645
    4SAPS  H13R  462   2.930   4.443   6.091 -0.5469 -1.0221  2.9150
    4SAPS  H13S  463   2.818   4.538   6.189  0.8962 -1.2114  0.8763
    4SAPS  C214  464   2.837   4.601   5.994 -0.0958 -0.0395 -0.2018
    4SAPS  H14R  465   2.832   4.696   6.048 -1.3586  1.3502 -2.6303
    4SAPS  C215  466   2.858   4.593   5.862 -0.0667 -0.0329  0.3155
    4SAPS  H15R  467   2.862   4.691   5.811  1.0800  0.6501  1.6335
    4SAPS  C216  468   2.846   4.472   5.776 -0.9492 -0.0794  0.6373
    4SAPS  H16R  469   2.772   4.396   5.811 -0.2534 -1.5170 -0.8766
    4SAPS  H16S  470   2.941   4.419   5.757 -2.3088 -2.1438 -0.9254
    4SAPS  C217  471   2.791   4.506   5.636  0.2625  0.9929 -0.2297
    4SAPS  H17R  472   2.865   4.570   5.584  0.3646  2.5619  1.7409
    4SAPS  H17S  473   2.695   4.562   5.637  0.6407  1.6478  0.1199
    4SAPS  C218  474   2.765   4.382   5.547  0.9230  0.6866 -0.2680
    4SAPS  H18R  475   2.678   4.332   5.595  0.9172  1.2223  0.3009
    4SAPS  H18S  476   2.850   4.312   5.560 -0.3595 -0.7818  0.6011
    4SAPS  C219  477   2.754   4.393   5.395 -0.0910  0.5949 -0.4643
    4SAPS  H19R  478   2.670   4.459   5.365 -1.3409 -1.1075 -0.8819
    4SAPS  H19S  479   2.722   4.295   5.354 -1.7236  1.3108 -0.9792
    4SAPS  C220  480   2.884   4.441   5.328  0.6925 -0.0544  0.7207
    4SAPS  H20R  481   2.962   4.361   5.330  0.9548  0.1610 -0.3466
    4SAPS  H20S  482   2.930   4.530   5.376  0.5539 -0.3272  1.3653
    4SAPS  H20T  483   2.868   4.463   5.221 -1.2372  2.6998  1.4705
    4SAPS   C33  484   3.260   4.004   6.382 -0.2427  0.1173  0.6398
    4SAPS   H3X  485   3.221   4.103   6.350  1.2933  0.1980 -1.1454
    4SAPS   H3Y  486   3.178   3.929   6.393  0.7952 -1.0854  0.4260
    4SAPS   C34  487   3.362   3.963   6.279 -0.4520  0.1640  0.5602
    4SAPS   H4X  488   3.362   3.853   6.288 -0.7654  0.2252  1.4163
    4SAPS   H4Y  489   3.466   4.000   6.292  1.4060 -4.0452 -0.6393
    4SAPS   C35  490   3.327   3.989   6.131  0.3797  0.3170  0.3548
    4SAPS   H5X  491   3.283   4.091   6.129 -1.2011 -0.0800  4.5278
    4SAPS   H5Y  492   3.238   3.923   6.120  0.2236  0.0315  2.7739
    4SAPS   C36  493   3.429   3.946   6.025  0.2879 -1.2532 -0.0134
    4SAPS   H6X  494   3.486   3.854   6.051  2.3825  0.1717  0.7403
    4SAPS   H6Y  495   3.517   4.014   6.030  1.0090 -2.0580 -1.3488
    4SAPS   C37  496   3.376   3.947   5.884 -0.1043 -0.5124 -0.5050
    4SAPS   H7X  497   3.336   4.046   5.857 -0.6728 -1.3208 -2.8310
    4SAPS   H7Y  498   3.305   3.862   5.874  1.8665 -2.1948 -0.9119
    4SAPS   C38  499   3.494   3.908   5.792 -0.4343  0.4231  0.1799
    4SAPS   H8X  500   3.543   3.816   5.829  0.7935  0.8544 -0.3157
    4SAPS   H8Y  501   3.573   3.986   5.782  0.8557 -0.9159 -0.5240
    4SAPS   C39  502   3.449   3.877   5.645 -0.0627 -0.0640  0.0346
    4SAPS   H9X  503   3.539   3.862   5.582  0.4166  0.9374  0.4601
    4SAPS   H9Y  504   3.401   3.965   5.597  2.1847  1.5337  0.5600
    4SAPS  C310  505   3.366   3.751   5.621 -0.7040 -0.2245  0.0339
    4SAPS  H10X  506   3.272   3.753   5.680 -1.9218 -1.8375 -1.7438
    4SAPS  H10Y  507   3.425   3.663   5.654 -1.6706 -1.2532 -0.8966
    4SAPS  C311  508   3.338   3.730   5.473  0.8221  0.1621  0.2303
    4SAPS  H11X  509   3.436   3.733   5.421  0.4201  1.3330 -0.4922
    4SAPS  H11Y  510   3.279   3.816   5.435 -1.6474 -1.5878 -0.1113
    4SAPS  C312  511   3.266   3.598   5.441  0.8148 -0.0994  0.4032
    4SAPS  H12X  512   3.171   3.602   5.498 -0.2048  2.2338 -1.2847
    4SAPS  H12Y  513   3.332   3.515   5.473  0.8083 -0.7575 -1.2097
    4SAPS  C313  514   3.236   3.570   5.294 -0.1062  0.0333 -0.2669
    4SAPS  H13X  515   3.331   3.552   5.240 -0.9431  0.5283 -1.9929
    4SAPS  H13Y  516   3.180   3.649   5.240 -0.6467  0.1376  0.4296
    4SAPS  C314  517   3.153   3.442   5.269 -0.2027  0.4788 -0.1371
    4SAPS  H14X  518   3.110   3.446   5.167 -1.6589 -1.6761  0.3343
    4SAPS  H14Y  519   3.061   3.443   5.331  0.7757  1.2793  1.3783
    4SAPS  C315  520   3.224   3.308   5.300 -0.4257  0.1787  0.7715
    4SAPS  H15X  521   3.138   3.244   5.329 -1.3209 -0.7272 -3.2887
    4SAPS  H15Y  522   3.303   3.320   5.378  0.4179 -2.7572  0.4732
    4SAPS  C316  523   3.290   3.241   5.176  0.1515 -0.6522  0.4078
    4SAPS  H16X  524   3.364   3.307   5.128 -0.1585 -2.1004 -2.2650
    4SAPS  H16Y  525   3.212   3.223   5.099 -2.3974  1.3308  2.3454
    4SAPS  C317  526   3.354   3.104   5.206 -0.8872 -0.5297 -0.7081
    4SAPS  H17X  527   3.351   3.032   5.122 -2.5677 -4.0473  2.1053
    4SAPS  H17Y  528   3.279   3.050   5.268 -0.7881  0.1369  0.0131
    4SAPS  C318  529   3.482   3.115   5.286 -0.0009  0.6115  0.2065
    4SAPS  H18X  530   3.510   3.012   5.316  1.3671  1.3137  1.4780
    4SAPS  H18Y  531   3.484   3.179   5.376  1.3516  1.1475 -0.1814
    4SAPS  H18Z  532   3.562   3.162   5.224 -0.7444  1.8607  0.1563
    5SAPS     N  533   3.549   0.258   7.184  0.1154  0.3218  0.1777
    5SAPS   HN1  534   3.546   0.342   7.122 -1.5058 -0.4192 -0.8415
    5SAPS   HN2  535   3.584   0.182   7.121 -0.0769  2.3206 -2.5248
    5SAPS   HN3  536   3.456   0.238   7.226 -0.5004  0.4313 -1.0858
    5SAPS   C12  537   3.631   0.287   7.308  0.3250 -0.8551  0.0509
    5SAPS  H12A  538   3.735   0.308   7.284  0.2714 -0.2444  0.3387
    5SAPS   C13  539   3.575   0.408   7.392  0.2583 -0.3468 -0.0303
    5SAPS  O13A  540   3.486   0.479   7.340  0.3655 -0.5826  0.1364
    5SAPS  O13B  541   3.629   0.443   7.499 -0.4823 -0.0499  0.4802
    5SAPS   C11  542   3.626   0.161   7.394 -0.5401 -0.3724 -0.0175
    5SAPS  H11A  543   3.522   0.146   7.430 -1.3991 -0.0093 -2.1735
    5SAPS  H11B  544   3.694   0.190   7.476 -0.6529  1.0382 -0.4036
    5SAPS     P  545   3.824   0.024   7.295 -0.4454  0.3999 -0.1452
    5SAPS   O13  546   3.909   0.070   7.410 -0.5557  0.4041  0.3569
    5SAPS   O14  547   3.849  -0.112   7.251  0.4087  0.4047 -0.3310
    5SAPS   O12  548   3.672   0.048   7.319 -0.1006  0.7184  0.0771
    5SAPS   O11  549   3.845   0.127   7.176 -0.2261  0.1034  0.1410
    5SAPS    C1  550   3.953   0.101   7.084 -0.7806 -0.2974 -1.1832
    5SAPS    HA  551   4.026   0.184   7.070  0.5322 -1.0328  0.8363
    5SAPS    HB  552   4.018   0.018   7.117 -0.7679 -0.6251 -2.0169
    5SAPS    C2  553   3.896   0.080   6.938  0.3201 -0.0175 -0.1618
    5SAPS    HS  554   3.834   0.170   6.915 -0.5976 -0.7267 -0.5284
    5SAPS   O21  555   3.827  -0.044   6.932  0.1517 -0.4787 -0.3589
    5SAPS   C21  556   3.703  -0.043   6.972  0.6532 -0.4324  0.2712
    5SAPS   O22  557   3.638   0.054   7.015  0.0732  0.1671 -0.4892
    5SAPS   C22  558   3.638  -0.180   6.932  0.4750  0.1859 -1.2000
    5SAPS   H2R  559   3.725  -0.247   6.947 -0.0340  0.0086  1.5738
    5SAPS   H2S  560   3.562  -0.206   7.009 -0.1766  1.2281 -1.4627
    5SAPS    C3  561   4.024   0.067   6.846  0.3727  0.8166  1.0433
    5SAPS    HX  562   4.075  -0.029   6.871  2.0984  1.4434  0.1227
    5SAPS    HY  563   4.097   0.146   6.877 -0.4001  1.4237  1.3720
    5SAPS   O31  564   4.001   0.072   6.704 -0.3102  0.3336 -0.1131
    5SAPS   C31  565   3.960  -0.044   6.651  0.2565 -0.2325  0.1807
    5SAPS   O32  566   3.933  -0.147   6.709 -0.2872 -0.1998  0.0115
    5SAPS   C32  567   3.939  -0.019   6.502 -0.5265  0.0233 -0.5854
    5SAPS   H2X  568   3.883   0.076   6.489  0.8645  0.7387 -1.6554
    5SAPS   H2Y  569   3.884  -0.106   6.461 -0.0758 -1.7840  2.3553
    5SAPS   C23  570   3.579  -0.204   6.791 -0.3733  0.0395 -0.5008
    5SAPS   H3R  571   3.639  -0.156   6.711 -0.9595 -0.5657 -1.3136
    5SAPS   H3S  572   3.488  -0.142   6.774 -0.2864  0.4606  0.5041
    5SAPS   C24  573   3.535  -0.348   6.762 -0.3831 -0.4099 -0.2076
    5SAPS   H4R  574   3.627  -0.408   6.745 -0.6431 -0.8202 -0.1580
    5SAPS   H4S  575   3.472  -0.342   6.671 -0.8063 -0.8204  0.0555
    5SAPS   C25  576   3.446  -0.411   6.867 -0.6041 -0.1186 -0.1205
    5SAPS   H5R  577   3.425  -0.349   6.956 -0.5944 -0.4070  0.0856
    5SAPS   C26  578   3.398  -0.535   6.857  0.0825 -0.2354 -0.3879
    5SAPS   H6R  579   3.320  -0.569   6.927 -0.1426  0.7135 -0.1682
    5SAPS   C27  580   3.420  -0.631   6.736 -0.2899 -0.6421  0.5082
    5SAPS   H7R  581   3.456  -0.578   6.645 -0.8762 -0.1834  0.5393
    5SAPS   H7S  582   3.320  -0.660   6.696 -0.1583  0.9185 -1.0705
    5SAPS   C28  583   3.486  -0.766   6.774  0.3209  0.7343  0.0867
    5SAPS   H8R  584   3.482  -0.784   6.883  0.8730  0.9319  0.1407
    5SAPS   C29  585   3.543  -0.860   6.689  0.9528 -0.5452 -0.3254
    5SAPS   H9R  586   3.589  -0.952   6.729  0.3616 -0.8652 -0.3862
    5SAPS  C210  587   3.554  -0.873   6.538 -0.7464  0.0131  0.3982
    5SAPS  H10R  588   3.651  -0.922   6.514 -0.3720  0.7847  0.2977
    5SAPS  H10S  589   3.571  -0.773   6.493 -2.4121  0.0471 -0.2362
    5SAPS  C211  590   3.429  -0.944   6.486 -0.0837  0.4334  0.1192
    5SAPS  H11R  591   3.362  -0.998   6.555 -2.5477 -0.3111 -2.6511
    5SAPS  C212  592   3.420  -0.962   6.358  0.9600  0.2884 -0.9465
    5SAPS  H12R  593   3.319  -0.992   6.323 -0.0350 -0.2371  2.1062
    5SAPS  C213  594   3.518  -0.913   6.249 -0.7914 -0.5276  0.0069
    5SAPS  H13R  595   3.562  -0.814   6.275 -0.7726 -0.4811 -0.2055
    5SAPS  H13S  596   3.464  -0.895   6.154 -0.4655  2.4079  0.2735
    5SAPS  C214  597   3.627  -1.011   6.233  0.2066  0.1849 -0.2540
    5SAPS  H14R  598   3.706  -1.018   6.309  0.8619  0.6418 -0.8835
    5SAPS  C215  599   3.637  -1.094   6.130 -0.0326 -0.2772  0.4106
    5SAPS  H15R  600   3.725  -1.159   6.119  1.5251  1.7173  0.4893
    5SAPS  C216  601   3.540  -1.113   6.016  0.4237 -0.8488  1.0073
    5SAPS  H16R  602   3.440  -1.071   6.037 -0.8620 -3.3162  0.1568
    5SAPS  H16S  603   3.513  -1.220   6.001 -0.6144 -0.4503 -0.0813
    5SAPS  C217  604   3.606  -1.066   5.886  0.1016  0.5134  0.3063
    5SAPS  H17R  605   3.693  -1.133   5.868 -1.3354 -1.4255  0.2437
    5SAPS  H17S  606   3.631  -0.959   5.897 -1.0137  0.7300  0.9045
    5SAPS  C218  607   3.517  -1.085   5.764  0.8013  0.6319 -0.4853
    5SAPS  H18R  608   3.423  -1.035   5.795 -0.6398 -1.9420 -0.4383
    5SAPS  H18S  609   3.481  -1.189   5.751  2.3868  0.1843 -1.5925
    5SAPS  C219  610   3.566  -1.033   5.625  0.2192  0.7836  0.2222
    5SAPS  H19R  611   3.563  -0.922   5.633  2.8929  0.8372  1.4846
    5SAPS  H19S  612   3.495  -1.054   5.542  2.1144  0.5482 -1.3937
    5SAPS  C220  613   3.704  -1.077   5.574  0.0688 -0.0680 -0.3050
    5SAPS  H20R  614   3.716  -1.186   5.561  1.4757  0.2178 -1.8644
    5SAPS  H20S  615   3.799  -1.051   5.626  1.3896 -0.6583 -2.2757
    5SAPS  H20T  616   3.710  -1.034   5.471  0.5624  0.2307 -0.1558
    5SAPS   C33  617   4.069  -0.006   6.417 -0.1246  0.1877  0.3347
    5SAPS   H3X  618   4.144  -0.083   6.443  1.8302  1.7297 -0.4733
    5SAPS   H3Y  619   4.127   0.085   6.443  2.4075 -1.3598  0.4452
    5SAPS   C34  620   4.053  -0.014   6.262  0.1323  0.1528 -0.1284
    5SAPS   H4X  621   4.064  -0.113   6.213 -0.0968  0.5550 -0.9937
    5SAPS   H4Y  622   4.130   0.043   6.207 -0.2043 -0.8527 -1.6880
    5SAPS   C35  623   3.917   0.044   6.212 -0.0236 -0.4532  0.1997
    5SAPS   H5X  624   3.910   0.154   6.206  0.5834 -0.4920 -1.9579
    5SAPS   H5Y  625   3.832   0.022   6.280 -2.5509  0.3484 -2.4907
    5SAPS   C36  626   3.862   0.001   6.073 -0.0326 -0.1811  0.0006
    5SAPS   H6X  627   3.823  -0.103   6.076 -2.2209  0.6028  1.7222
    5SAPS   H6Y  628   3.942   0.017   5.997  0.5167  1.3658  0.8717
    5SAPS   C37  629   3.765   0.112   6.023  0.7959 -0.1892 -0.4013
    5SAPS   H7X  630   3.812   0.210   6.045  0.6129 -0.2368  0.2345
    5SAPS   H7Y  631   3.678   0.099   6.091  0.6253  1.6474 -0.2363
    5SAPS   C38  632   3.735   0.105   5.865 -0.4425 -0.4758  0.4403
    5SAPS   H8X  633   3.751   0.000   5.831  2.2707  0.2084 -0.6793
    5SAPS   H8Y  634   3.811   0.167   5.813  0.0692  0.0247  1.7442
    5SAPS   C39  635   3.593   0.146   5.833  0.6994  0.0719 -0.0549
    5SAPS   H9X  636   3.566   0.245   5.877 -1.4373 -1.7399  3.0763
    5SAPS   H9Y  637   3.523   0.079   5.886  0.7139  0.6875  0.7647
    5SAPS  C310  638   3.564   0.160   5.684 -0.1962  0.2127  0.7671
    5SAPS  H10X  639   3.469   0.109   5.660  1.0908 -1.6241 -0.7882
    5SAPS  H10Y  640   3.639   0.105   5.624 -0.0088  0.4560  0.7736
    5SAPS  C311  641   3.571   0.306   5.638  0.5633  0.8080  0.3997
    5SAPS  H11X  642   3.671   0.347   5.662  1.7962 -1.4032 -0.6519
    5SAPS  H11Y  643   3.493   0.371   5.683 -1.1800  0.5887 -2.0951
    5SAPS  C312  644   3.556   0.323   5.484 -0.5773  0.9146 -0.3703
    5SAPS  H12X  645   3.455   0.291   5.450 -0.8659  1.8052 -0.3614
    5SAPS  H12Y  646   3.637   0.272   5.428  0.7045  0.6728  1.5922
    5SAPS  C313  647   3.577   0.474   5.455 -0.7290 -0.0829 -0.3232
    5SAPS  H13X  648   3.686   0.485   5.477 -0.5457  0.5157 -1.4393
    5SAPS  H13Y  649   3.533   0.536   5.535  1.7462 -0.5069  1.4939
    5SAPS  C314  650   3.546   0.533   5.317  0.0687  0.0556  0.2750
    5SAPS  H14X  651   3.439   0.546   5.294 -0.0412 -2.2330 -0.8069
    5SAPS  H14Y  652   3.586   0.460   5.244  0.5092  1.0874 -0.5396
    5SAPS  C315  653   3.606   0.668   5.301  0.2277 -0.6128  0.4352
    5SAPS  H15X  654   3.603   0.730   5.393  2.0087 -1.9883  1.4809
    5SAPS  H15Y  655   3.555   0.708   5.210  3.6830  1.4492 -0.7991
    5SAPS  C316  656   3.754   0.660   5.261  0.7084  0.7953  0.0470
    5SAPS  H16X  657   3.767   0.603   5.166  1.4086  0.8967  0.0779
    5SAPS  H16Y  658   3.819   0.631   5.346  0.4467  0.8422  0.2653
    5SAPS  C317  659   3.815   0.800   5.217 -0.0781 -0.5998  0.2517
    5SAPS  H17X  660   3.781   0.882   5.284 -0.5730 -1.7743  1.5007
    5SAPS  H17Y  661   3.771   0.818   5.117 -0.6401 -0.3898  0.5336
    5SAPS  C318  662   3.961   0.800   5.190 -0.2803  0.0434  0.0930
    5SAPS  H18X  663   3.978   0.714   5.121  1.3633  0.5631 -0.1990
    5SAPS  H18Y  664   4.015   0.759   5.278 -0.2016 -1.5920 -0.6678
    5SAPS  H18Z  665   4.013   0.892   5.155 -0.1850  0.1504  0.5080
    6SAPS     N  666   1.702   4.692   7.192  0.2140  0.1433  0.4842
    6SAPS   HN1  667   1.662   4.597   7.186  1.7115 -0.5599  1.1374
    6SAPS   HN2  668   1.632   4.759   7.154  1.5479  1.3486  0.0500
    6SAPS   HN3  669   1.789   4.692   7.134 -0.5593  3.3528 -0.9124
    6SAPS   C12  670   1.758   4.743   7.318  0.2048 -0.4218  0.3503
    6SAPS  H12A  671   1.687   4.720   7.397 -0.7576  3.4749  0.7995
    6SAPS   C13  672   1.901   4.681   7.344  0.3782  0.6341 -0.4960
    6SAPS  O13A  673   1.950   4.592   7.270  0.3530 -0.5029 -0.4487
    6SAPS  O13B  674   1.955   4.716   7.451 -0.0672 -0.0451 -0.3626
    6SAPS   C11  675   1.771   4.894   7.316  0.7736 -0.2808 -0.3426
    6SAPS  H11A  676   1.834   4.908   7.226 -0.4931 -1.2419 -1.4184
    6SAPS  H11B  677   1.818   4.921   7.413 -0.3981 -0.5525  0.3097
    6SAPS     P  678   1.611   5.097   7.264 -0.1820 -0.1818 -0.3561
    6SAPS   O13  679   1.471   5.118   7.240  0.0996  0.3580  0.4226
    6SAPS   O14  680   1.671   5.196   7.358 -0.3069 -0.3724  0.6858
    6SAPS   O12  681   1.635   4.949   7.308 -0.0385 -0.5348  0.0269
    6SAPS   O11  682   1.687   5.104   7.126  0.1881  0.1706 -0.1575
    6SAPS    C1  683   1.643   5.040   7.006 -0.1794 -0.4919  0.0459
    6SAPS    HA  684   1.708   4.959   6.967 -0.4422  0.5310 -2.7372
    6SAPS    HB  685   1.545   4.988   7.012 -0.2859 -0.2213  0.7377
    6SAPS    C2  686   1.634   5.148   6.890 -0.2851  0.1313 -0.2963
    6SAPS    HS  687   1.595   5.093   6.802 -2.3013  1.2904 -0.1737
    6SAPS   O21  688   1.767   5.196   6.868  0.1045  0.2264  0.3372
    6SAPS   C21  689   1.847   5.110   6.805 -0.2578  0.3701 -0.2195
    6SAPS   O22  690   1.808   5.008   6.751 -0.6901  0.3524  0.3188
    6SAPS   C22  691   1.993   5.157   6.815 -0.0178 -0.0864 -0.2415
    6SAPS   H2R  692   1.992   5.263   6.848  2.7096 -0.2452  0.5852
    6SAPS   H2S  693   2.037   5.094   6.895 -1.0565 -2.7641 -1.6560
    6SAPS    C3  694   1.540   5.260   6.929  0.0312  0.1688 -0.6410
    6SAPS    HX  695   1.574   5.316   7.018 -1.3755  0.8912 -0.5304
    6SAPS    HY  696   1.456   5.202   6.971 -1.1645  0.5740 -2.3576
    6SAPS   O31  697   1.491   5.348   6.825 -0.2196 -0.4194  1.0443
    6SAPS   C31  698   1.404   5.312   6.735 -0.0564  1.1614  0.2927
    6SAPS   O32  699   1.354   5.200   6.726  0.5064  0.5453  0.6535
    6SAPS   C32  700   1.360   5.433   6.654  0.5292  0.2202  0.5329
    6SAPS   H2X  701   1.447   5.498   6.629  1.2215 -1.7400 -2.7631
    6SAPS   H2Y  702   1.278   5.486   6.706 -1.3453 -0.4723 -1.5594
    6SAPS   C23  703   2.062   5.146   6.676 -0.0748 -0.3395 -0.5482
    6SAPS   H3R  704   1.989   5.163   6.594 -1.7698 -3.0507  0.2794
    6SAPS   H3S  705   2.092   5.039   6.674  1.3758  0.0141  0.6199
    6SAPS   C24  706   2.185   5.236   6.665  0.5492 -0.6032 -1.0256
    6SAPS   H4R  707   2.239   5.198   6.576 -0.0548 -1.9026 -0.8546
    6SAPS   H4S  708   2.248   5.211   6.753  0.0661 -1.0594 -0.8004
    6SAPS   C25  709   2.176   5.382   6.642  0.0440 -0.4130  0.3708
    6SAPS   H5R  710   2.199   5.445   6.730  2.9959  0.8495 -1.1786
    6SAPS   C26  711   2.161   5.445   6.526 -1.4184  0.2107 -0.1287
    6SAPS   H6R  712   2.169   5.554   6.523  0.0483  0.1185 -0.4819
    6SAPS   C27  713   2.164   5.383   6.390  0.1079  0.6307  0.3156
    6SAPS   H7R  714   2.100   5.292   6.397  0.1973  0.5947  0.6699
    6SAPS   H7S  715   2.270   5.361   6.362  0.5302 -0.0597  2.2944
    6SAPS   C28  716   2.103   5.474   6.281  0.2877 -0.8108 -0.2867
    6SAPS   H8R  717   2.075   5.575   6.317 -0.0353 -0.4113 -1.5888
    6SAPS   C29  718   2.107   5.455   6.148  0.5494  0.1513 -0.0993
    6SAPS   H9R  719   2.053   5.519   6.076 -0.9653 -0.2126  0.6722
    6SAPS  C210  720   2.154   5.325   6.083 -0.1290 -0.9253 -0.2482
    6SAPS  H10R  721   2.081   5.281   6.012 -0.1907  1.0597 -1.5042
    6SAPS  H10S  722   2.193   5.256   6.161  1.2590 -0.5236 -0.5661
    6SAPS  C211  723   2.271   5.367   5.997  0.3934  0.4438  0.1377
    6SAPS  H11R  724   2.356   5.398   6.059  0.0489 -0.0645  0.8847
    6SAPS  C212  725   2.284   5.374   5.859 -0.4818  0.4528 -0.0596
    6SAPS  H12R  726   2.381   5.408   5.820  0.7535 -1.3058  1.3136
    6SAPS  C213  727   2.185   5.336   5.750 -0.3912 -0.5995 -0.1348
    6SAPS  H13R  728   2.190   5.425   5.684 -1.7047 -0.3748  0.0336
    6SAPS  H13S  729   2.083   5.338   5.794  0.0470  2.3463  0.9873
    6SAPS  C214  730   2.203   5.210   5.671 -0.3841 -0.1324  0.0571
    6SAPS  H14R  731   2.275   5.133   5.701  0.8431  1.3574  1.0748
    6SAPS  C215  732   2.129   5.178   5.565  0.5102 -0.5816 -0.1882
    6SAPS  H15R  733   2.145   5.075   5.529  0.0681 -1.8134  2.7907
    6SAPS  C216  734   2.021   5.257   5.501 -0.6213  0.5083  0.0603
    6SAPS  H16R  735   1.987   5.348   5.555 -0.1588  1.8030 -1.7436
    6SAPS  H16S  736   1.927   5.199   5.492  0.2273 -0.7366 -1.1552
    6SAPS  C217  737   2.093   5.304   5.370  0.2284  0.4381  0.3773
    6SAPS  H17R  738   2.182   5.367   5.394 -0.0472  0.8628  0.2972
    6SAPS  H17S  739   2.022   5.370   5.316 -0.2900 -1.3500 -1.1882
    6SAPS  C218  740   2.147   5.197   5.277 -0.7298  0.1832 -0.0237
    6SAPS  H18R  741   2.074   5.113   5.277  2.1242 -2.4926 -0.1629
    6SAPS  H18S  742   2.235   5.138   5.310 -1.2165 -2.0270 -2.3309
    6SAPS  C219  743   2.175   5.243   5.134  0.6991  0.9350  0.5286
    6SAPS  H19R  744   2.258   5.317   5.141  3.5081 -2.0623  2.7042
    6SAPS  H19S  745   2.083   5.290   5.096  0.6947 -0.5021 -1.3837
    6SAPS  C220  746   2.225   5.132   5.045  0.1231 -0.2110 -0.0163
    6SAPS  H20R  747   2.180   5.035   5.077  1.0553 -0.1160  1.6615
    6SAPS  H20S  748   2.333   5.111   5.037  0.2445 -0.6033  2.1455
    6SAPS  H20T  749   2.200   5.162   4.941 -2.2644  1.4128  0.9373
    6SAPS   C33  750   1.328   5.394   6.507 -0.4239 -0.1488 -0.2985
    6SAPS   H3X  751   1.230   5.344   6.506 -1.2719  1.4393  0.0580
    6SAPS   H3Y  752   1.406   5.325   6.467 -1.1664 -1.1737 -0.0012
    6SAPS   C34  753   1.326   5.514   6.404  0.0322 -0.3666 -0.2140
    6SAPS   H4X  754   1.422   5.568   6.418  0.1905 -1.2957  3.1782
    6SAPS   H4Y  755   1.239   5.577   6.434  0.6622  0.2555  0.3421
    6SAPS   C35  756   1.313   5.453   6.272  0.4179  0.0526  0.3445
    6SAPS   H5X  757   1.212   5.407   6.273  0.4113  0.0572  1.9286
    6SAPS   H5Y  758   1.392   5.377   6.252  2.6603  2.7287 -1.8209
    6SAPS   C36  759   1.307   5.546   6.155  0.1718  0.1747  0.8464
    6SAPS   H6X  760   1.403   5.600   6.144  1.1032 -1.7066 -1.0279
    6SAPS   H6Y  761   1.219   5.610   6.174 -0.0854 -0.1158  0.6331
    6SAPS   C37  762   1.278   5.478   6.023  0.4359 -0.6396  0.2220
    6SAPS   H7X  763   1.182   5.422   6.026  0.7645 -1.1962  0.5880
    6SAPS   H7Y  764   1.363   5.410   6.001 -0.1470 -0.8511 -1.5198
    6SAPS   C38  765   1.268   5.581   5.902 -0.5540  0.1273 -0.3489
    6SAPS   H8X  766   1.367   5.631   5.895 -0.7567  0.5141 -0.4662
    6SAPS   H8Y  767   1.177   5.644   5.910 -1.1158 -0.7586  0.4256
    6SAPS   C39  768   1.232   5.512   5.764  0.1722 -0.0101 -0.5384
    6SAPS   H9X  769   1.138   5.455   5.760  0.3321 -0.2086 -2.9532
    6SAPS   H9Y  770   1.320   5.448   5.743  1.4304  1.3510  0.3436
    6SAPS  C310  771   1.235   5.616   5.657 -0.0555 -0.2394  0.2259
    6SAPS  H10X  772   1.327   5.677   5.668 -0.6587  0.4582  1.7388
    6SAPS  H10Y  773   1.160   5.698   5.658 -0.5400 -0.6630 -0.3580
    6SAPS  C311  774   1.237   5.550   5.518 -0.5377 -0.3111 -0.2923
    6SAPS  H11X  775   1.138   5.500   5.508 -0.6621 -0.6312  2.0699
    6SAPS  H11Y  776   1.318   5.474   5.519 -1.4785 -1.3397  0.5222
    6SAPS  C312  777   1.274   5.644   5.398 -0.3300 -0.6566  0.2650
    6SAPS  H12X  778   1.370   5.698   5.406 -0.5500 -0.2418  0.1094
    6SAPS  H12Y  779   1.201   5.727   5.392  1.8237  1.2554 -0.7860
    6SAPS  C313  780   1.280   5.568   5.268  0.3513 -0.1838  0.3450
    6SAPS  H13X  781   1.194   5.497   5.265  0.2871 -0.2618  2.5489
    6SAPS  H13Y  782   1.369   5.503   5.278 -0.2872 -1.0472  0.6206
    6SAPS  C314  783   1.287   5.652   5.143 -0.2315 -0.1665  0.0064
    6SAPS  H14X  784   1.392   5.687   5.134  0.1607 -1.6008 -1.6588
    6SAPS  H14Y  785   1.213   5.735   5.146 -0.0557 -0.0164  0.1866
    6SAPS  C315  786   1.259   5.558   5.018 -0.2246 -0.0023 -0.0316
    6SAPS  H15X  787   1.152   5.532   5.034 -0.8248  1.4720 -1.3653
    6SAPS  H15Y  788   1.323   5.468   5.032  0.0310  0.2930  0.7716
    6SAPS  C316  789   1.277   5.626   4.884  0.6006 -0.2319 -0.1394
    6SAPS  H16X  790   1.367   5.691   4.877 -0.2515  0.8153 -2.1246
    6SAPS  H16Y  791   1.194   5.700   4.886  0.1980 -0.5940  3.5238
    6SAPS  C317  792   1.269   5.528   4.765 -1.2942 -0.5506 -0.2024
    6SAPS  H17X  793   1.360   5.465   4.764 -1.5128 -0.8746  0.0118
    6SAPS  H17Y  794   1.270   5.597   4.679  2.5906 -1.6852 -1.2562
    6SAPS  C318  795   1.147   5.440   4.751 -0.5026  0.0395 -0.5404
    6SAPS  H18X  796   1.160   5.379   4.659 -1.1300 -1.6408  0.4485
    6SAPS  H18Y  797   1.057   5.506   4.754  0.4110  1.3173  2.4102
    6SAPS  H18Z  798   1.137   5.382   4.845 -0.8010  1.2505  0.1992
    7SAPS     N  799   3.596   1.647   7.303 -0.1474  0.1449  0.1615
    7SAPS   HN1  800   3.591   1.745   7.272 -0.3963 -0.2264 -1.0047
    7SAPS   HN2  801   3.611   1.583   7.222  0.6256  3.0532 -2.1605
    7SAPS   HN3  802   3.506   1.624   7.351 -1.1857  3.2957 -0.0794
    7SAPS   C12  803   3.694   1.626   7.406 -0.3715  0.0044 -0.0529
    7SAPS  H12A  804   3.752   1.717   7.406 -1.3036  0.6128  0.1951
    7SAPS   C13  805   3.625   1.608   7.546 -0.2171 -0.1768  0.3851
    7SAPS  O13A  806   3.496   1.611   7.558 -0.2504  0.7292 -0.1802
    7SAPS  O13B  807   3.704   1.606   7.643  0.1950  0.1920  0.8059
    7SAPS   C11  808   3.779   1.500   7.367 -0.1110  0.1964 -0.2678
    7SAPS  H11A  809   3.715   1.409   7.370 -0.4885  0.4769  0.7703
    7SAPS  H11B  810   3.860   1.487   7.441 -0.3896 -1.0210 -0.1505
    7SAPS     P  811   3.980   1.494   7.194  0.0739  0.1586 -0.3741
    7SAPS   O13  812   4.055   1.574   7.292 -0.2356  0.1987  0.1025
    7SAPS   O14  813   4.004   1.351   7.191 -0.4070 -0.5558  0.2821
    7SAPS   O12  814   3.828   1.519   7.233  0.3007  0.0697 -0.2223
    7SAPS   O11  815   3.986   1.559   7.049 -0.4155  0.1889 -0.3898
    7SAPS    C1  816   3.952   1.696   7.026 -0.0481  0.2598  0.0837
    7SAPS    HA  817   3.855   1.723   7.071  1.4394  0.8776  3.1971
    7SAPS    HB  818   4.033   1.759   7.069  0.6254 -0.9921  0.7078
    7SAPS    C2  819   3.964   1.725   6.872  0.6625  0.2062 -0.2183
    7SAPS    HS  820   3.894   1.809   6.850  0.9571  0.6729  0.5989
    7SAPS   O21  821   3.923   1.615   6.791  0.3031 -0.3687  0.2506
    7SAPS   C21  822   3.794   1.603   6.775 -0.5461  0.3442  0.6075
    7SAPS   O22  823   3.707   1.672   6.824  0.6526  0.1964  0.0659
    7SAPS   C22  824   3.757   1.487   6.682  0.1917 -0.8050  0.2440
    7SAPS   H2R  825   3.840   1.415   6.665  0.4193 -0.4200 -0.2783
    7SAPS   H2S  826   3.667   1.446   6.733 -1.6413  2.3395 -0.1770
    7SAPS    C3  827   4.110   1.781   6.831  0.2780 -0.3809  0.5412
    7SAPS    HX  828   4.189   1.704   6.847 -0.1131 -0.7003  0.9654
    7SAPS    HY  829   4.127   1.868   6.897  2.2542 -1.2350  1.2194
    7SAPS   O31  830   4.096   1.809   6.691 -0.2986 -0.0185 -0.0793
    7SAPS   C31  831   4.178   1.905   6.648 -0.3188 -0.0727 -0.1664
    7SAPS   O32  832   4.242   1.971   6.726  0.0834 -0.0236 -0.0885
    7SAPS   C32  833   4.177   1.909   6.493 -0.5986  0.2829 -0.2091
    7SAPS   H2X  834   4.151   2.014   6.467  0.4063  1.1095  1.9344
    7SAPS   H2Y  835   4.099   1.839   6.455  1.7043 -1.9111 -1.1893
    7SAPS   C23  836   3.689   1.519   6.540 -0.4593  0.6319 -0.7086
    7SAPS   H3R  837   3.587   1.557   6.566  0.5169  0.9441  3.4969
    7SAPS   H3S  838   3.684   1.416   6.498 -1.1463  1.0628 -1.7307
    7SAPS   C24  839   3.771   1.610   6.454 -0.1278  0.2720  0.6376
    7SAPS   H4R  840   3.769   1.716   6.485 -0.0419  0.3765  0.2890
    7SAPS   H4S  841   3.716   1.612   6.357 -0.5024  0.2724  0.8509
    7SAPS   C25  842   3.917   1.579   6.425  0.6052 -0.7437 -0.1576
    7SAPS   H5R  843   3.987   1.593   6.508 -1.1118 -1.0192  1.3795
    7SAPS   C26  844   3.956   1.531   6.305 -0.6248 -0.0396  0.8845
    7SAPS   H6R  845   4.064   1.530   6.286 -0.6536  0.4217  0.6869
    7SAPS   C27  846   3.882   1.508   6.179 -0.0155 -0.8106  0.3309
    7SAPS   H7R  847   3.778   1.476   6.202  0.3798  0.2149  4.3434
    7SAPS   H7S  848   3.936   1.419   6.141  0.2640 -1.9089  3.0467
    7SAPS   C28  849   3.887   1.637   6.094 -0.2882 -0.6375 -0.1703
    7SAPS   H8R  850   3.892   1.725   6.159  1.5087  0.8412 -2.1572
    7SAPS   C29  851   3.890   1.653   5.962 -0.5866  0.2232 -0.5578
    7SAPS   H9R  852   3.882   1.757   5.925  0.1771  0.6778  0.4841
    7SAPS  C210  853   3.889   1.545   5.859  0.2590  0.2486 -0.5664
    7SAPS  H10R  854   3.787   1.502   5.865  0.5072 -0.3296 -0.4154
    7SAPS  H10S  855   3.962   1.466   5.887  0.9142 -0.0622 -2.9019
    7SAPS  C211  856   3.919   1.590   5.716  0.6922 -0.3114  0.0846
    7SAPS  H11R  857   4.019   1.635   5.704  1.6012 -2.1988  0.2655
    7SAPS  C212  858   3.832   1.579   5.615  0.0472  0.0190  0.0659
    7SAPS  H12R  859   3.859   1.607   5.512 -1.2495  4.0818  0.6281
    7SAPS  C213  860   3.689   1.522   5.617  0.0909 -0.2139  0.1775
    7SAPS  H13R  861   3.673   1.466   5.711  0.1819 -2.1526 -0.9018
    7SAPS  H13S  862   3.691   1.450   5.532 -0.4301 -0.7088  0.5846
    7SAPS  C214  863   3.593   1.630   5.580  0.4132  0.4732  0.2397
    7SAPS  H14R  864   3.622   1.716   5.518 -0.1405  0.2142 -0.3937
    7SAPS  C215  865   3.462   1.623   5.617  0.0248  0.9834  0.1978
    7SAPS  H15R  866   3.393   1.706   5.596 -0.6454  0.8863  1.8788
    7SAPS  C216  867   3.395   1.508   5.684  0.2797 -0.3026  0.4200
    7SAPS  H16R  868   3.450   1.415   5.658 -0.1351 -0.7662  1.1642
    7SAPS  H16S  869   3.301   1.482   5.631 -0.6241  1.6507  0.9574
    7SAPS  C217  870   3.366   1.521   5.836  0.1236 -0.2283 -0.0202
    7SAPS  H17R  871   3.297   1.606   5.855 -1.5368 -0.8949 -2.5424
    7SAPS  H17S  872   3.458   1.545   5.893  0.8903 -2.1700 -0.3551
    7SAPS  C218  873   3.307   1.393   5.901 -1.1213 -0.2455 -0.1214
    7SAPS  H18R  874   3.212   1.361   5.854 -1.7158  0.5643  0.5011
    7SAPS  H18S  875   3.285   1.408   6.009 -0.3041  0.5576 -0.0566
    7SAPS  C219  876   3.410   1.280   5.894 -0.0553  0.0385  0.2925
    7SAPS  H19R  877   3.451   1.261   5.792  0.8740  1.8529  0.2900
    7SAPS  H19S  878   3.350   1.192   5.928  0.9604 -0.1568  1.6914
    7SAPS  C220  879   3.536   1.290   5.975 -0.2182 -0.6160 -0.0862
    7SAPS  H20R  880   3.521   1.305   6.084  1.6269  1.3595 -0.0462
    7SAPS  H20S  881   3.583   1.389   5.958  1.0327 -0.9554  1.2605
    7SAPS  H20T  882   3.606   1.210   5.943  0.9176 -0.3233  1.5403
    7SAPS   C33  883   4.318   1.872   6.434  0.6208  0.0703 -0.3246
    7SAPS   H3X  884   4.320   1.762   6.451  0.0269  0.1510  0.3169
    7SAPS   H3Y  885   4.399   1.912   6.498  1.1862 -2.4482  0.6483
    7SAPS   C34  886   4.333   1.902   6.285  0.1524 -0.2965  0.1997
    7SAPS   H4X  887   4.438   1.912   6.251  0.4774 -0.8828  1.0013
    7SAPS   H4Y  888   4.278   1.991   6.247  0.1406  0.0635  1.0518
    7SAPS   C35  889   4.278   1.784   6.201 -0.7675  0.5507  0.2649
    7SAPS   H5X  890   4.172   1.758   6.224 -1.2536  2.4940  0.3959
    7SAPS   H5Y  891   4.339   1.696   6.232 -0.6029  0.7465  0.5078
    7SAPS   C36  892   4.313   1.803   6.051  0.5463 -0.5621  0.0243
    7SAPS   H6X  893   4.311   1.707   5.995  1.3528 -0.7052  0.2385
    7SAPS   H6Y  894   4.414   1.848   6.045  1.0318 -1.6662 -0.3506
    7SAPS   C37  895   4.226   1.906   5.972 -0.5082 -0.0107 -0.6741
    7SAPS   H7X  896   4.221   1.999   6.032 -0.8386 -1.7893  2.2417
    7SAPS   H7Y  897   4.122   1.868   5.957 -0.4663 -1.0560  1.3574
    7SAPS   C38  898   4.295   1.948   5.838  0.1658 -0.3033  0.6194
    7SAPS   H8X  899   4.384   2.006   5.871 -0.9882  0.3699  2.7806
    7SAPS   H8Y  900   4.224   2.011   5.779 -0.0379 -0.9928  0.1160
    7SAPS   C39  901   4.342   1.833   5.751  0.0888  0.3677 -0.4965
    7SAPS   H9X  902   4.264   1.774   5.698 -0.0674 -0.5402  0.7045
    7SAPS   H9Y  903   4.408   1.763   5.806  0.8124 -1.2367 -3.2094
    7SAPS  C310  904   4.439   1.885   5.644  0.1227  0.0352 -0.7208
    7SAPS  H10X  905   4.536   1.898   5.696  0.2051 -2.1071 -0.2288
    7SAPS  H10Y  906   4.406   1.981   5.600 -1.1709  0.1247  0.3749
    7SAPS  C311  907   4.457   1.783   5.533 -0.3023 -0.6606  0.5642
    7SAPS  H11X  908   4.453   1.676   5.563 -0.2257 -1.5147 -2.1692
    7SAPS  H11Y  909   4.564   1.800   5.508  0.0146  1.1390  2.8535
    7SAPS  C312  910   4.369   1.815   5.413  0.0414 -0.1939 -0.6809
    7SAPS  H12X  911   4.272   1.858   5.448  1.6131  2.4887  0.6770
    7SAPS  H12Y  912   4.348   1.713   5.375  0.0656 -0.9576  1.2474
    7SAPS  C313  913   4.420   1.896   5.300 -0.3289 -0.2927  0.5605
    7SAPS  H13X  914   4.478   1.978   5.346 -1.2074  0.1863  0.8301
    7SAPS  H13Y  915   4.331   1.946   5.256  0.3484 -1.9241 -3.0213
    7SAPS  C314  916   4.484   1.819   5.198 -0.4783  0.8704  0.0157
    7SAPS  H14X  917   4.435   1.722   5.177 -1.3827  1.6565 -1.7436
    7SAPS  H14Y  918   4.587   1.786   5.226 -0.9708 -0.4586  0.3038
    7SAPS  C315  919   4.485   1.879   5.058  0.2796 -0.2618  0.7565
    7SAPS  H15X  920   4.505   1.987   5.072  0.7278 -0.2002 -0.2567
    7SAPS  H15Y  921   4.389   1.878   5.003  0.2168  1.1607  0.8091
    7SAPS  C316  922   4.591   1.820   4.963  0.5604  0.1638 -0.5652
    7SAPS  H16X  923   4.564   1.723   4.915 -2.7738 -0.2653  1.8371
    7SAPS  H16Y  924   4.688   1.795   5.011 -0.4819 -2.0508  0.4994
    7SAPS  C317  925   4.630   1.920   4.852  0.8711 -0.2475 -0.1545
    7SAPS  H17X  926   4.679   2.006   4.903  1.1357  0.1227 -1.0115
    7SAPS  H17Y  927   4.545   1.959   4.793  1.2720 -0.5913 -0.9836
    7SAPS  C318  928   4.739   1.863   4.756  0.3107 -0.3158 -0.2975
    7SAPS  H18X  929   4.824   1.823   4.816  0.0955  0.8881  0.8500
    7SAPS  H18Y  930   4.789   1.943   4.696  0.2388 -1.6036 -2.1541
    7SAPS  H18Z  931   4.702   1.782   4.690  0.6136 -0.4671 -0.2829
    8SAPS     N  932   3.635   2.576   7.165 -0.3982  0.0931  0.4168
    8SAPS   HN1  933   3.678   2.500   7.108  0.9759 -0.9698  2.7511
    8SAPS   HN2  934   3.570   2.628   7.102  1.0917  1.0656 -0.3831
    8SAPS   HN3  935   3.703   2.645   7.202  0.7830 -1.7585  1.8333
    8SAPS   C12  936   3.568   2.515   7.278 -0.2480 -0.3722 -1.0111
    8SAPS  H12A  937   3.632   2.444   7.330 -0.3868  0.2271 -0.0055
    8SAPS   C13  938   3.530   2.627   7.382 -0.3148 -1.5145  0.1070
    8SAPS  O13A  939   3.551   2.750   7.354 -0.3797  0.1641  0.5462
    8SAPS  O13B  940   3.477   2.608   7.493  0.2181 -0.8540  0.4945
    8SAPS   C11  941   3.432   2.459   7.225 -0.3249  0.1875  0.7311
    8SAPS  H11A  942   3.371   2.534   7.169 -0.4803 -0.6588 -0.2807
    8SAPS  H11B  943   3.385   2.422   7.318  0.2175  0.5586  1.1547
    8SAPS     P  944   3.356   2.242   7.104  0.0989  0.0221 -0.0890
    8SAPS   O13  945   3.412   2.110   7.136  0.4868  0.4946  0.6910
    8SAPS   O14  946   3.233   2.272   7.182  0.2166 -0.2151  0.7295
    8SAPS   O12  947   3.459   2.352   7.132 -0.2281 -0.0363  0.0681
    8SAPS   O11  948   3.329   2.249   6.951 -0.2199 -0.5010  0.2466
    8SAPS    C1  949   3.307   2.381   6.887 -0.0334  0.8997  0.3251
    8SAPS    HA  950   3.203   2.403   6.852  0.5228  0.1476 -1.9542
    8SAPS    HB  951   3.340   2.471   6.944  1.5722  0.9974 -0.7138
    8SAPS    C2  952   3.393   2.390   6.754  0.2152  0.0143  0.5964
    8SAPS    HS  953   3.350   2.475   6.696 -0.4777  0.8626  2.2607
    8SAPS   O21  954   3.386   2.267   6.669  0.1898 -0.5322  0.1203
    8SAPS   C21  955   3.274   2.203   6.639  0.0142  0.0078  0.1893
    8SAPS   O22  956   3.162   2.230   6.671  0.0819 -0.7341  0.0103
    8SAPS   C22  957   3.315   2.076   6.559 -0.4662  0.4689  0.5356
    8SAPS   H2R  958   3.224   2.015   6.575  0.0474 -0.0939  1.3627
    8SAPS   H2S  959   3.345   2.103   6.455  2.5919  2.2584  1.7410
    8SAPS    C3  960   3.537   2.425   6.783 -0.5352 -0.6409 -0.2768
    8SAPS    HX  961   3.571   2.371   6.873  1.1299  0.4318 -0.2185
    8SAPS    HY  962   3.552   2.527   6.825 -0.6370 -0.2019 -1.2641
    8SAPS   O31  963   3.620   2.419   6.664 -0.0411 -0.3730 -0.2237
    8SAPS   C31  964   3.617   2.523   6.583  0.1314 -0.5561 -0.9084
    8SAPS   O32  965   3.552   2.623   6.609 -0.3725 -0.3845  0.0739
    8SAPS   C32  966   3.707   2.495   6.460 -0.1282  0.1228 -0.0554
    8SAPS   H2X  967   3.671   2.397   6.420  1.5330 -0.1435 -0.9968
    8SAPS   H2Y  968   3.812   2.477   6.493 -1.0555  0.5067  3.6056
    8SAPS   C23  969   3.428   1.998   6.638 -0.1017 -0.0844 -0.7209
    8SAPS   H3R  970   3.400   1.980   6.745 -0.5741  1.8525 -0.4921
    8SAPS   H3S  971   3.522   2.054   6.653 -0.7633  0.6609  0.9744
    8SAPS   C24  972   3.461   1.869   6.559  0.0517  0.8747 -0.3286
    8SAPS   H4R  973   3.542   1.824   6.621 -2.1067  0.2397  2.2280
    8SAPS   H4S  974   3.507   1.895   6.461 -0.3871 -0.3863 -0.9015
    8SAPS   C25  975   3.355   1.756   6.556 -0.1204 -0.5936 -0.7417
    8SAPS   H5R  976   3.300   1.733   6.648 -5.3662  0.6285 -3.1616
    8SAPS   C26  977   3.305   1.695   6.453 -0.2341  0.0835 -0.2182
    8SAPS   H6R  978   3.224   1.624   6.472  0.5675 -0.3219  1.9181
    8SAPS   C27  979   3.351   1.721   6.312 -0.3812 -0.0808 -0.4674
    8SAPS   H7R  980   3.385   1.622   6.274  1.2618 -1.4025  3.8684
    8SAPS   H7S  981   3.446   1.779   6.305 -1.0611  1.0395 -0.6702
    8SAPS   C28  982   3.249   1.785   6.228  0.1612  0.2195  0.2439
    8SAPS   H8R  983   3.263   1.891   6.205  2.0290  0.0403  0.3665
    8SAPS   C29  984   3.141   1.721   6.169 -0.0372 -0.0589  0.1510
    8SAPS   H9R  985   3.064   1.780   6.117  0.0213 -0.5333 -0.4879
    8SAPS  C210  986   3.112   1.576   6.173 -0.0220  0.3602  0.5136
    8SAPS  H10R  987   3.179   1.527   6.247  1.2445  2.5821  0.9274
    8SAPS  H10S  988   3.133   1.550   6.067 -1.7784  1.8915 -0.2665
    8SAPS  C211  989   2.968   1.562   6.217 -0.2140 -0.2168  0.7301
    8SAPS  H11R  990   2.965   1.578   6.326  0.2013  1.1916  0.5580
    8SAPS  C212  991   2.862   1.525   6.148 -0.0124  0.1520  0.6867
    8SAPS  H12R  992   2.765   1.505   6.196 -2.1107  0.0532 -3.1881
    8SAPS  C213  993   2.862   1.480   6.001 -0.2221 -0.0410 -0.6813
    8SAPS  H13R  994   2.849   1.370   5.997 -3.3565  0.1760  0.6950
    8SAPS  H13S  995   2.955   1.505   5.945  0.4765 -3.0666 -1.0204
    8SAPS  C214  996   2.748   1.542   5.925  0.4518  0.1794 -0.6816
    8SAPS  H14R  997   2.771   1.633   5.868 -0.6018  0.1679 -1.1313
    8SAPS  C215  998   2.624   1.499   5.920 -0.1203  0.4881 -0.1486
    8SAPS  H15R  999   2.554   1.571   5.874 -0.7032  0.4761  0.7050
    8SAPS  C216 1000   2.560   1.370   5.973  0.3812 -0.4395 -0.2844
    8SAPS  H16R 1001   2.506   1.402   6.064  0.6034 -0.9765  0.0392
    8SAPS  H16S 1002   2.636   1.302   6.016  1.3604  2.0968  2.3305
    8SAPS  C217 1003   2.443   1.311   5.890  0.1291 -0.3017 -0.0426
    8SAPS  H17R 1004   2.366   1.391   5.878  0.6799  0.1240 -0.8545
    8SAPS  H17S 1005   2.400   1.229   5.951  1.0842 -1.0065 -0.3058
    8SAPS  C218 1006   2.484   1.266   5.752  0.0317  0.9689  0.2123
    8SAPS  H18R 1007   2.566   1.197   5.780 -2.1591 -1.6925  0.4506
    8SAPS  H18S 1008   2.533   1.349   5.696  1.5360 -0.4397 -0.6422
    8SAPS  C219 1009   2.371   1.201   5.669 -0.7454  0.1081 -0.3532
    8SAPS  H19R 1010   2.282   1.263   5.692 -0.7729  0.0704 -0.3595
    8SAPS  H19S 1011   2.353   1.100   5.713 -1.3306  0.5432  0.4335
    8SAPS  C220 1012   2.391   1.192   5.517 -0.5793 -0.0841  0.1099
    8SAPS  H20R 1013   2.298   1.146   5.476 -1.4350  0.6710  1.1154
    8SAPS  H20S 1014   2.468   1.121   5.481  2.3473  2.5675  0.7129
    8SAPS  H20T 1015   2.405   1.290   5.467 -1.6155  0.8955  1.6303
    8SAPS   C33 1016   3.703   2.607   6.349  0.8572 -0.1180 -0.6507
    8SAPS   H3X 1017   3.734   2.707   6.387  1.3616  0.1508 -1.7389
    8SAPS   H3Y 1018   3.601   2.616   6.306 -1.0150 -0.3952  3.2561
    8SAPS   C34 1019   3.792   2.577   6.227 -0.3037  0.0016 -0.0920
    8SAPS   H4X 1020   3.901   2.571   6.249 -0.3352 -3.3933 -0.4153
    8SAPS   H4Y 1021   3.773   2.657   6.152  0.4361  0.4784  0.2079
    8SAPS   C35 1022   3.764   2.442   6.164 -0.0002  0.0065 -0.2823
    8SAPS   H5X 1023   3.654   2.425   6.158  0.1539 -0.8938 -0.6530
    8SAPS   H5Y 1024   3.813   2.367   6.230  1.3918  0.6788 -0.5152
    8SAPS   C36 1025   3.828   2.446   6.024  0.0031  0.0909  0.3132
    8SAPS   H6X 1026   3.935   2.475   6.013 -0.2881  1.0819 -0.0718
    8SAPS   H6Y 1027   3.782   2.526   5.963 -0.7740  0.6398  1.5959
    8SAPS   C37 1028   3.791   2.318   5.955 -0.2679  0.0763  0.0119
    8SAPS   H7X 1029   3.687   2.291   5.986  0.4514 -0.5666  2.0361
    8SAPS   H7Y 1030   3.853   2.242   6.007 -0.6834 -0.0812  0.2833
    8SAPS   C38 1031   3.803   2.323   5.807 -0.2662 -0.3394  0.1307
    8SAPS   H8X 1032   3.907   2.355   5.782  0.7657 -3.5276 -0.0615
    8SAPS   H8Y 1033   3.732   2.398   5.766 -3.1277 -0.8139  3.7416
    8SAPS   C39 1034   3.787   2.178   5.751  0.2475 -0.3430 -0.6057
    8SAPS   H9X 1035   3.750   2.176   5.647  0.9595  2.4529 -0.9888
    8SAPS   H9Y 1036   3.711   2.130   5.817  0.0017  0.1513 -0.5231
    8SAPS  C310 1037   3.920   2.094   5.759  0.8481 -0.5114 -0.1445
    8SAPS  H10X 1038   3.952   2.098   5.865 -1.9307  0.6101  0.7433
    8SAPS  H10Y 1039   3.995   2.139   5.690 -0.7532  1.0618 -0.9317
    8SAPS  C311 1040   3.903   1.952   5.713  0.5504  0.2189  0.5592
    8SAPS  H11X 1041   3.822   1.904   5.772 -1.0706  2.7101  0.5096
    8SAPS  H11Y 1042   4.002   1.905   5.731  0.2829 -0.6387 -0.1401
    8SAPS  C312 1043   3.866   1.942   5.562 -0.1778 -0.7321 -0.4132
    8SAPS  H12X 1044   3.774   2.004   5.554 -0.6137 -1.1528  1.0445
    8SAPS  H12Y 1045   3.839   1.836   5.542  0.5113 -0.6684 -1.8494
    8SAPS  C313 1046   3.982   1.993   5.467  0.0813 -0.9654 -0.6561
    8SAPS  H13X 1047   4.065   1.933   5.511 -0.8202 -1.0607  0.9657
    8SAPS  H13Y 1048   3.993   2.104   5.460 -1.0980 -0.9462 -3.8286
    8SAPS  C314 1049   3.967   1.943   5.315  0.1238 -0.0522 -0.1289
    8SAPS  H14X 1050   4.051   1.985   5.256 -0.6211 -0.1916 -1.3084
    8SAPS  H14Y 1051   3.879   1.991   5.267  0.9141  0.4836 -1.0857
    8SAPS  C315 1052   3.950   1.790   5.298 -0.2812  0.7290  0.4650
    8SAPS  H15X 1053   3.872   1.762   5.371 -0.7883 -2.2573 -1.0530
    8SAPS  H15Y 1054   4.050   1.751   5.327  0.7365  2.1537 -0.9347
    8SAPS  C316 1055   3.901   1.741   5.157  0.0037 -0.0049  0.5637
    8SAPS  H16X 1056   3.967   1.787   5.080 -0.9096  0.2925 -0.0720
    8SAPS  H16Y 1057   3.803   1.791   5.141  0.4207  0.4220 -0.7920
    8SAPS  C317 1058   3.891   1.590   5.148  0.5168  0.6484 -0.4716
    8SAPS  H17X 1059   3.806   1.574   5.218  0.4691  0.8042 -0.4948
    8SAPS  H17Y 1060   3.976   1.527   5.181  1.2601  0.8489 -1.8910
    8SAPS  C318 1061   3.838   1.536   5.017 -0.8749  0.4914  0.2181
    8SAPS  H18X 1062   3.896   1.554   4.924 -0.9134  0.5567  0.2072
    8SAPS  H18Y 1063   3.733   1.561   4.994 -0.9831 -0.1542 -0.0198
    8SAPS  H18Z 1064   3.837   1.427   5.040 -1.4444  0.3975 -0.2252
    9SAPS     N 1065   2.041   5.742   7.436  0.2577 -0.0527 -0.2456
    9SAPS   HN1 1066   2.125   5.701   7.483  0.0263 -1.8376 -1.2547
    9SAPS   HN2 1067   2.038   5.843   7.416 -0.8075  0.3526  1.6901
    9SAPS   HN3 1068   1.955   5.717   7.489 -0.1127 -2.8102 -1.9139
    9SAPS   C12 1069   2.023   5.678   7.296  0.6680  0.2099 -1.1451
    9SAPS  H12A 1070   2.121   5.664   7.252  1.6859 -1.2033  1.3047
    9SAPS   C13 1071   1.954   5.546   7.306 -0.3597 -0.2084  0.2369
    9SAPS  O13A 1072   1.946   5.479   7.413 -0.2739 -0.1266 -0.0929
    9SAPS  O13B 1073   1.924   5.493   7.193 -0.3990  0.4256 -0.2377
    9SAPS   C11 1074   1.942   5.768   7.204 -0.3497  0.2071 -0.8836
    9SAPS  H11A 1075   1.832   5.760   7.211 -0.3949  0.6966 -0.9563
    9SAPS  H11B 1076   1.963   5.734   7.100  0.3363  0.6794 -0.9078
    9SAPS     P 1077   2.067   5.996   7.133 -0.0725  0.1328  0.3893
    9SAPS   O13 1078   2.030   6.141   7.139 -0.5400 -0.0737 -0.2360
    9SAPS   O14 1079   2.202   5.967   7.177 -0.3915 -0.0888  0.8078
    9SAPS   O12 1080   1.974   5.904   7.232  0.3420 -0.2743  0.4578
    9SAPS   O11 1081   2.046   5.947   6.983  0.1666  0.1377  0.4756
    9SAPS    C1 1082   1.942   6.000   6.900 -0.0055 -0.7970  0.1829
    9SAPS    HA 1083   1.906   6.096   6.942  2.3617  0.3504 -0.2090
    9SAPS    HB 1084   1.983   6.033   6.802  1.1220 -0.3542  0.7853
    9SAPS    C2 1085   1.823   5.905   6.874 -0.3129 -0.2091 -0.0909
    9SAPS    HS 1086   1.783   5.881   6.975 -2.3788 -0.6055 -0.9450
    9SAPS   O21 1087   1.880   5.789   6.813  0.4798 -0.9968  0.1851
    9SAPS   C21 1088   1.795   5.693   6.806 -0.2310  0.0114  0.0980
    9SAPS   O22 1089   1.682   5.689   6.849 -0.5607 -0.1887  0.2976
    9SAPS   C22 1090   1.854   5.586   6.715  0.0907 -0.1431  0.1831
    9SAPS   H2R 1091   1.902   5.639   6.629 -0.7481  0.0558 -0.1691
    9SAPS   H2S 1092   1.930   5.532   6.775 -0.0256  0.3432  0.7810
    9SAPS    C3 1093   1.721   5.976   6.783  0.9257  0.4665  0.2945
    9SAPS    HX 1094   1.675   6.057   6.844 -1.0410  1.5937 -2.4350
    9SAPS    HY 1095   1.632   5.916   6.753 -0.3191  1.7630  1.2394
    9SAPS   O31 1096   1.787   6.033   6.665 -0.6188 -0.0314 -0.1675
    9SAPS   C31 1097   1.799   5.973   6.553 -0.5544  0.0021 -0.3235
    9SAPS   O32 1098   1.735   5.871   6.527  0.2282 -0.0534 -0.0994
    9SAPS   C32 1099   1.906   6.045   6.476 -0.5152 -0.4567 -0.5344
    9SAPS   H2X 1100   1.994   6.016   6.536 -1.0656  1.4968  1.3244
    9SAPS   H2Y 1101   1.864   6.148   6.481 -1.2394 -0.7765  0.2433
    9SAPS   C23 1102   1.742   5.491   6.652 -0.3817 -0.7167 -0.0573
    9SAPS   H3R 1103   1.656   5.561   6.640 -1.1347 -1.3245  1.5041
    9SAPS   H3S 1104   1.701   5.420   6.727 -0.6016  1.1610  1.6914
    9SAPS   C24 1105   1.775   5.427   6.513  0.6943  0.0352 -0.3734
    9SAPS   H4R 1106   1.694   5.352   6.500  1.5036 -1.1055  0.8992
    9SAPS   H4S 1107   1.876   5.381   6.511  0.8341  0.1990  1.2488
    9SAPS   C25 1108   1.768   5.545   6.414 -0.6077 -0.2847 -0.0042
    9SAPS   H5R 1109   1.799   5.646   6.442  0.0963 -0.1963 -1.0686
    9SAPS   C26 1110   1.728   5.531   6.286 -0.1323 -0.2307 -0.1216
    9SAPS   H6R 1111   1.710   5.621   6.226  1.5842 -0.6425 -1.3710
    9SAPS   C27 1112   1.669   5.411   6.218 -0.3691 -0.1676  0.4608
    9SAPS   H7R 1113   1.575   5.442   6.168  0.2532 -2.5576 -2.5052
    9SAPS   H7S 1114   1.630   5.341   6.294  2.3485 -0.1666  1.9806
    9SAPS   C28 1115   1.768   5.338   6.129  0.5857  0.3427 -0.4755
    9SAPS   H8R 1116   1.822   5.249   6.164 -0.6383 -0.7593 -1.2690
    9SAPS   C29 1117   1.791   5.362   5.995 -0.1301  0.1779 -0.2450
    9SAPS   H9R 1118   1.857   5.291   5.943  0.9081  1.5896 -0.9273
    9SAPS  C210 1119   1.725   5.467   5.906 -0.5366  0.0733 -0.2268
    9SAPS  H10R 1120   1.801   5.528   5.851 -1.4121  0.2321 -1.2871
    9SAPS  H10S 1121   1.663   5.534   5.970 -0.1933  0.6715 -0.5094
    9SAPS  C211 1122   1.629   5.402   5.814  0.6384 -0.5236 -0.5043
    9SAPS  H11R 1123   1.551   5.345   5.865 -0.8667  1.4868 -0.4497
    9SAPS  C212 1124   1.633   5.402   5.677 -0.4019 -0.5087 -0.0033
    9SAPS  H12R 1125   1.561   5.340   5.621  1.4651  0.4067 -3.7199
    9SAPS  C213 1126   1.723   5.474   5.578  0.0624 -0.0176 -0.0112
    9SAPS  H13R 1127   1.740   5.406   5.492 -0.2542 -1.8027  1.2733
    9SAPS  H13S 1128   1.827   5.492   5.611 -0.1010 -0.3221  0.7063
    9SAPS  C214 1129   1.650   5.605   5.545  0.1991  0.4206 -0.1858
    9SAPS  H14R 1130   1.563   5.630   5.607 -0.6748 -2.4481 -0.0836
    9SAPS  C215 1131   1.676   5.694   5.450 -0.0964  0.3457 -0.0972
    9SAPS  H15R 1132   1.599   5.770   5.431 -1.1509 -0.1366  1.9657
    9SAPS  C216 1133   1.789   5.679   5.353  0.0029 -0.1715 -0.7779
    9SAPS  H16R 1134   1.873   5.628   5.405 -0.0470  1.2304  0.7581
    9SAPS  H16S 1135   1.826   5.783   5.340 -0.1591 -0.3637 -3.0406
    9SAPS  C217 1136   1.744   5.625   5.219 -0.0214 -0.1090  0.2056
    9SAPS  H17R 1137   1.804   5.673   5.138 -0.0141 -0.9757 -0.3130
    9SAPS  H17S 1138   1.643   5.667   5.202  0.2189  1.0087  1.3320
    9SAPS  C218 1139   1.721   5.478   5.216 -0.7828 -0.2115  0.1861
    9SAPS  H18R 1140   1.663   5.446   5.305  0.1742 -1.0425  0.5271
    9SAPS  H18S 1141   1.817   5.422   5.204  0.1490  1.4259 -0.3192
    9SAPS  C219 1142   1.650   5.430   5.094  0.0745 -0.1234 -0.2885
    9SAPS  H19R 1143   1.550   5.476   5.090  1.0886  2.1860 -0.5290
    9SAPS  H19S 1144   1.633   5.321   5.111  1.0012 -0.0428  1.4702
    9SAPS  C220 1145   1.717   5.461   4.960  0.1416 -0.8191 -0.2329
    9SAPS  H20R 1146   1.651   5.448   4.872 -1.3687  1.4441  0.4917
    9SAPS  H20S 1147   1.811   5.405   4.940 -0.0658 -0.8185 -1.2456
    9SAPS  H20T 1148   1.728   5.571   4.949 -1.7937 -0.7368 -1.8972
    9SAPS   C33 1149   1.927   6.011   6.326  0.1645  0.1239 -0.7459
    9SAPS   H3X 1150   1.937   5.901   6.310 -2.2039 -0.6163  2.0658
    9SAPS   H3Y 1151   2.010   6.071   6.282 -0.0618 -0.0871 -1.4836
    9SAPS   C34 1152   1.788   6.042   6.254 -0.4306 -0.7823  0.8407
    9SAPS   H4X 1153   1.758   6.147   6.276 -1.7296 -0.6898 -1.1378
    9SAPS   H4Y 1154   1.709   5.972   6.287 -0.4078 -0.5363  1.4335
    9SAPS   C35 1155   1.803   6.030   6.100 -0.6790  0.5314  1.0688
    9SAPS   H5X 1156   1.901   6.082   6.087 -0.8730  0.7139  0.2754
    9SAPS   H5Y 1157   1.726   6.092   6.048  0.2597 -0.4832 -1.7203
    9SAPS   C36 1158   1.811   5.888   6.036  0.5574 -0.3482  0.0914
    9SAPS   H6X 1159   1.705   5.854   6.041  0.2036  0.8540  1.8232
    9SAPS   H6Y 1160   1.890   5.828   6.084 -0.3629 -1.8646 -0.2307
    9SAPS   C37 1161   1.850   5.897   5.886  0.7058  0.0614 -0.2088
    9SAPS   H7X 1162   1.884   5.799   5.847  3.8257  0.5264  1.1244
    9SAPS   H7Y 1163   1.939   5.963   5.891  2.1850 -1.9394  1.0627
    9SAPS   C38 1164   1.739   5.965   5.795  0.0217 -0.2212 -0.2363
    9SAPS   H8X 1165   1.730   6.063   5.848  0.0742 -0.9195  1.0996
    9SAPS   H8Y 1166   1.643   5.909   5.798 -0.5676  0.7562 -0.2787
    9SAPS   C39 1167   1.779   5.990   5.650 -0.0965  0.8175 -0.5869
    9SAPS   H9X 1168   1.805   5.894   5.600 -0.2086  1.0169 -1.0313
    9SAPS   H9Y 1169   1.869   6.055   5.649  0.9674 -0.5715  0.5152
    9SAPS  C310 1170   1.681   6.072   5.563  0.4927  0.4632 -0.2761
    9SAPS  H10X 1171   1.633   6.151   5.624  1.2311 -0.5665  1.7634
    9SAPS  H10Y 1172   1.609   5.993   5.533  1.0869 -0.4542  0.6009
    9SAPS  C311 1173   1.743   6.136   5.438 -0.2401 -0.1746  0.4293
    9SAPS  H11X 1174   1.784   6.052   5.379 -0.5886  1.4166 -2.2553
    9SAPS  H11Y 1175   1.833   6.196   5.466  0.0164  0.4826 -1.6281
    9SAPS  C312 1176   1.648   6.220   5.350  0.7222 -0.0056 -0.2994
    9SAPS  H12X 1177   1.716   6.273   5.280  1.4884 -0.7786 -0.1623
    9SAPS  H12Y 1178   1.596   6.296   5.411  1.0964 -0.6270  0.8268
    9SAPS  C313 1179   1.550   6.133   5.268 -0.2274 -0.1649 -0.3942
    9SAPS  H13X 1180   1.479   6.194   5.209 -0.8976 -1.8906 -1.4333
    9SAPS  H13Y 1181   1.489   6.079   5.343 -1.4885  2.1851  0.3645
    9SAPS  C314 1182   1.617   6.038   5.170  0.5266 -0.4083 -0.6136
    9SAPS  H14X 1183   1.540   5.978   5.116 -0.8605  0.3872  0.4182
    9SAPS  H14Y 1184   1.678   5.964   5.226  2.5632  0.9049 -1.0179
    9SAPS  C315 1185   1.708   6.105   5.068 -0.4475  0.7914 -0.5203
    9SAPS  H15X 1186   1.805   6.133   5.114 -1.2078  1.4539  0.7389
    9SAPS  H15Y 1187   1.656   6.199   5.040  0.1899  1.7561  1.3639
    9SAPS  C316 1188   1.737   6.005   4.949 -0.0127  0.5169  0.1508
    9SAPS  H16X 1189   1.703   6.058   4.858 -2.9255 -1.6142 -0.1519
    9SAPS  H16Y 1190   1.671   5.916   4.963  0.5170  0.2619  1.2124
    9SAPS  C317 1191   1.882   5.961   4.940  0.7083 -0.7376 -0.4330
    9SAPS  H17X 1192   1.922   5.910   5.030 -0.2878 -2.9710 -1.1946
    9SAPS  H17Y 1193   1.940   6.054   4.921  1.8168 -1.6994 -1.9040
    9SAPS  C318 1194   1.898   5.872   4.818  0.0155 -0.6378  0.0673
    9SAPS  H18X 1195   1.835   5.780   4.820 -0.8473 -0.0628 -0.1389
    9SAPS  H18Y 1196   1.995   5.842   4.774 -0.2596  2.3440 -2.9653
    9SAPS  H18Z 1197   1.849   5.925   4.733 -0.0716 -1.1632 -0.2120
   10SAPS     N 1198   3.154   4.960   7.381 -0.3451  0.2229  0.2099
   10SAPS   HN1 1199   3.105   4.871   7.357 -0.2074  0.7349 -2.2907
   10SAPS   HN2 1200   3.087   5.034   7.353 -0.8609 -0.6792 -1.0290
   10SAPS   HN3 1201   3.238   4.979   7.322  2.6718 -0.1321  3.9922
   10SAPS   C12 1202   3.187   4.971   7.524  0.3533 -0.3765 -0.0868
   10SAPS  H12A 1203   3.089   4.968   7.568 -0.5196 -1.0279 -1.9727
   10SAPS   C13 1204   3.280   4.862   7.590 -0.2353 -0.4342 -0.3731
   10SAPS  O13A 1205   3.326   4.764   7.529  0.0172  0.2444 -0.2515
   10SAPS  O13B 1206   3.305   4.871   7.714  0.2498  0.6475 -0.0611
   10SAPS   C11 1207   3.255   5.113   7.544  0.2536 -0.0910  0.2848
   10SAPS  H11A 1208   3.345   5.110   7.479  0.6304  1.8585  0.6819
   10SAPS  H11B 1209   3.278   5.122   7.652 -2.5057 -0.1838  0.9420
   10SAPS     P 1210   3.200   5.367   7.556  0.1427  0.2185  0.1757
   10SAPS   O13 1211   3.094   5.413   7.646  0.1711  0.8907  0.6572
   10SAPS   O14 1212   3.333   5.361   7.609  0.4272  0.3315 -0.0754
   10SAPS   O12 1213   3.162   5.219   7.511  0.3543 -0.0014  0.1374
   10SAPS   O11 1214   3.201   5.455   7.425 -0.4988 -0.4005 -0.7202
   10SAPS    C1 1215   3.083   5.524   7.384 -0.0760  0.7807 -0.1105
   10SAPS    HA 1216   2.994   5.481   7.435  1.3063  1.8157  3.4661
   10SAPS    HB 1217   3.093   5.633   7.400  2.7287  1.0015 -2.3970
   10SAPS    C2 1218   3.066   5.505   7.227 -0.4756  0.6443 -0.3687
   10SAPS    HS 1219   3.075   5.396   7.209 -1.3311  0.5003  0.0465
   10SAPS   O21 1220   3.165   5.580   7.156  0.3281 -0.0695 -0.5318
   10SAPS   C21 1221   3.205   5.525   7.045 -0.3185  0.3230  0.3533
   10SAPS   O22 1222   3.172   5.417   6.999 -0.1032 -0.3296 -0.5192
   10SAPS   C22 1223   3.295   5.628   6.974 -0.1245  0.5252  0.1662
   10SAPS   H2R 1224   3.262   5.732   6.996 -0.4258  0.2069  1.3161
   10SAPS   H2S 1225   3.390   5.598   7.023 -1.1662 -0.3922  1.7486
   10SAPS    C3 1226   2.926   5.548   7.175  0.6959 -0.4832 -1.0950
   10SAPS    HX 1227   2.933   5.658   7.169  0.6864 -0.4990 -1.4347
   10SAPS    HY 1228   2.852   5.531   7.256  1.2539  0.3674 -0.3942
   10SAPS   O31 1229   2.873   5.496   7.047 -0.4988 -0.3494  0.1034
   10SAPS   C31 1230   2.828   5.370   7.065  0.2322  0.3030  0.5997
   10SAPS   O32 1231   2.824   5.314   7.172 -0.5669  0.2487 -0.2596
   10SAPS   C32 1232   2.794   5.314   6.920 -0.0962  0.2516  0.4979
   10SAPS   H2X 1233   2.731   5.223   6.928  0.6798 -0.4816 -1.3005
   10SAPS   H2Y 1234   2.890   5.295   6.868 -1.0136 -3.6450 -0.0611
   10SAPS   C23 1235   3.295   5.616   6.818 -0.0891  0.1524 -0.0173
   10SAPS   H3R 1236   3.342   5.523   6.780 -1.7919 -0.4511 -0.7289
   10SAPS   H3S 1237   3.358   5.704   6.791 -0.0737 -0.5008 -2.3282
   10SAPS   C24 1238   3.150   5.616   6.757 -0.1284 -0.2574  0.2086
   10SAPS   H4R 1239   3.084   5.674   6.826 -0.4132 -1.6506  1.1553
   10SAPS   H4S 1240   3.100   5.517   6.745  0.3273 -0.3965 -0.5955
   10SAPS   C25 1241   3.159   5.669   6.617  0.0213  0.6541  0.6306
   10SAPS   H5R 1242   3.258   5.669   6.570 -0.3943  0.6004 -0.2722
   10SAPS   C26 1243   3.061   5.719   6.541  0.0193  0.2951 -0.4803
   10SAPS   H6R 1244   3.104   5.757   6.447 -1.5178  2.7018 -0.2940
   10SAPS   C27 1245   2.917   5.742   6.571 -0.6269  0.6814  0.5532
   10SAPS   H7R 1246   2.886   5.715   6.675 -0.3467 -0.4590  0.3511
   10SAPS   H7S 1247   2.850   5.669   6.520  0.2566  0.0222  0.3163
   10SAPS   C28 1248   2.874   5.888   6.552 -0.3477  0.2656 -1.0874
   10SAPS   H8R 1249   2.799   5.900   6.473 -2.0679  1.2148  0.5966
   10SAPS   C29 1250   2.894   5.996   6.624 -0.8669  0.0142  0.0999
   10SAPS   H9R 1251   2.843   6.090   6.600  1.6057  0.7810 -2.7308
   10SAPS  C210 1252   2.965   6.011   6.764  0.5691 -0.6147  0.3162
   10SAPS  H10R 1253   3.068   5.969   6.761 -0.1871 -2.5265 -0.3218
   10SAPS  H10S 1254   2.913   5.948   6.839  2.5084 -1.5576  0.9469
   10SAPS  C211 1255   2.970   6.149   6.827 -0.0095 -0.4001  1.2606
   10SAPS  H11R 1256   2.925   6.147   6.927 -0.2367 -0.5955  1.1542
   10SAPS  C212 1257   3.012   6.262   6.769 -0.8231  0.0551 -0.5143
   10SAPS  H12R 1258   3.004   6.356   6.826  3.0796  0.7327 -0.8016
   10SAPS  C213 1259   3.061   6.276   6.625 -0.2730 -0.3411 -0.9408
   10SAPS  H13R 1260   2.978   6.268   6.551 -2.2993  1.6805  0.9381
   10SAPS  H13S 1261   3.125   6.190   6.596 -1.0964 -1.9031  1.5526
   10SAPS  C214 1262   3.130   6.413   6.618  0.0721  0.2755 -0.5152
   10SAPS  H14R 1263   3.075   6.492   6.672 -2.4189 -0.6645 -1.5247
   10SAPS  C215 1264   3.231   6.458   6.538 -0.6539  0.2343  0.2319
   10SAPS  H15R 1265   3.281   6.547   6.578  0.8723 -0.5635  0.1910
   10SAPS  C216 1266   3.300   6.378   6.425  0.5921  0.2507  0.2423
   10SAPS  H16R 1267   3.256   6.276   6.418 -0.1903  0.5210  1.0136
   10SAPS  H16S 1268   3.408   6.379   6.450  0.9717  1.5085 -1.2736
   10SAPS  C217 1269   3.283   6.452   6.284  0.2359  0.4642 -0.2958
   10SAPS  H17R 1270   3.358   6.415   6.211  0.4854  0.0756  0.1536
   10SAPS  H17S 1271   3.307   6.560   6.294  2.2262  0.0723 -0.5308
   10SAPS  C218 1272   3.141   6.428   6.223 -0.4922  0.4268 -0.3767
   10SAPS  H18R 1273   3.059   6.447   6.295  0.9682 -2.5407  2.3121
   10SAPS  H18S 1274   3.128   6.319   6.200  2.1350 -0.0697  0.1809
   10SAPS  C219 1275   3.113   6.491   6.087 -0.1778 -0.2811  0.4258
   10SAPS  H19R 1276   3.186   6.453   6.013 -1.0400 -1.0074 -0.0767
   10SAPS  H19S 1277   3.128   6.600   6.101 -0.5757 -0.3485  1.5345
   10SAPS  C220 1278   2.978   6.459   6.022  0.5821 -0.2596 -0.2123
   10SAPS  H20R 1279   2.987   6.482   5.914 -0.6286 -0.5020 -0.3803
   10SAPS  H20S 1280   2.900   6.527   6.062  0.7458 -1.4281  2.2950
   10SAPS  H20T 1281   2.964   6.350   6.040  1.3215 -0.3706 -0.2595
   10SAPS   C33 1282   2.724   5.424   6.843  0.2668 -0.8070 -0.0818
   10SAPS   H3X 1283   2.701   5.382   6.743 -2.3772 -0.8291  0.4591
   10SAPS   H3Y 1284   2.789   5.510   6.814 -0.1083 -0.8768 -1.1850
   10SAPS   C34 1285   2.587   5.475   6.892 -0.1516  1.1758 -0.3840
   10SAPS   H4X 1286   2.593   5.524   6.992  0.6932  0.4539 -0.0681
   10SAPS   H4Y 1287   2.520   5.388   6.910  3.0167 -1.5385 -0.6378
   10SAPS   C35 1288   2.512   5.571   6.798 -0.6197 -0.1313  0.2084
   10SAPS   H5X 1289   2.572   5.664   6.797 -0.2537 -0.3508  0.8696
   10SAPS   H5Y 1290   2.415   5.591   6.849  1.0375  2.6458  2.5614
   10SAPS   C36 1291   2.475   5.527   6.652  0.0486 -0.2861  0.6264
   10SAPS   H6X 1292   2.382   5.577   6.618 -0.4194 -3.1331 -2.9338
   10SAPS   H6Y 1293   2.450   5.419   6.651  1.7858 -0.7114  0.6760
   10SAPS   C37 1294   2.575   5.565   6.547 -0.0850 -0.1669  0.6416
   10SAPS   H7X 1295   2.656   5.488   6.546  0.5903  0.4798 -1.8167
   10SAPS   H7Y 1296   2.619   5.663   6.572 -0.5934 -0.1764  1.6190
   10SAPS   C38 1297   2.513   5.565   6.404 -0.1889  0.2256  0.0457
   10SAPS   H8X 1298   2.436   5.645   6.404 -0.1664  0.2476  0.2126
   10SAPS   H8Y 1299   2.455   5.470   6.398 -0.5654  0.4180  0.5660
   10SAPS   C39 1300   2.615   5.586   6.291  0.3534 -0.1118 -0.5829
   10SAPS   H9X 1301   2.710   5.532   6.313 -0.1436 -0.5550  0.5424
   10SAPS   H9Y 1302   2.641   5.694   6.300 -1.5523  0.4543 -1.4607
   10SAPS  C310 1303   2.563   5.540   6.153  0.3270  0.4292  0.0563
   10SAPS  H10X 1304   2.454   5.562   6.148  0.4318  0.9413 -0.0250
   10SAPS  H10Y 1305   2.566   5.430   6.162 -1.5014  0.4649  1.7657
   10SAPS  C311 1306   2.641   5.606   6.038  0.0282 -0.7344 -0.0271
   10SAPS  H11X 1307   2.747   5.574   6.043  0.4342  0.4523 -0.7012
   10SAPS  H11Y 1308   2.624   5.715   6.049  0.3832 -0.6548 -0.2797
   10SAPS  C312 1309   2.568   5.589   5.899 -0.1640  0.1398  0.2051
   10SAPS  H12X 1310   2.462   5.624   5.899 -0.3438 -0.3549 -0.9771
   10SAPS  H12Y 1311   2.582   5.482   5.872 -1.1194  0.1701 -0.4585
   10SAPS  C313 1312   2.649   5.660   5.795  0.1304  0.0704  0.5322
   10SAPS  H13X 1313   2.570   5.654   5.716 -0.1185  0.7054  0.7261
   10SAPS  H13Y 1314   2.741   5.602   5.772  1.3370  1.2935  2.0402
   10SAPS  C314 1315   2.680   5.810   5.822 -0.5978  0.4384 -0.3612
   10SAPS  H14X 1316   2.767   5.818   5.891  1.2073 -0.0321 -2.4849
   10SAPS  H14Y 1317   2.591   5.856   5.871 -0.6679  0.5084 -0.5519
   10SAPS  C315 1318   2.695   5.896   5.700  0.5283 -0.3011  0.0466
   10SAPS  H15X 1319   2.594   5.903   5.654  0.1037  1.9555  1.1679
   10SAPS  H15Y 1320   2.766   5.854   5.626 -1.6385 -0.3680 -2.0949
   10SAPS  C316 1321   2.735   6.039   5.741  0.2932 -0.1116  0.6322
   10SAPS  H16X 1322   2.823   6.037   5.809  1.6860  0.6721 -1.0834
   10SAPS  H16Y 1323   2.661   6.097   5.800  2.1323  2.8321  0.2375
   10SAPS  C317 1324   2.759   6.126   5.610  0.0591 -0.4956 -0.4819
   10SAPS  H17X 1325   2.662   6.135   5.557 -0.8629  0.0275  1.1896
   10SAPS  H17Y 1326   2.830   6.070   5.546  0.2800 -0.1490 -0.5446
   10SAPS  C318 1327   2.807   6.270   5.623 -0.2254  0.0247 -0.0366
   10SAPS  H18X 1328   2.884   6.281   5.703 -0.2015 -0.9541  0.0867
   10SAPS  H18Y 1329   2.715   6.324   5.654 -0.0874 -1.0674  2.5408
   10SAPS  H18Z 1330   2.846   6.314   5.529 -0.8666 -1.9721 -1.3083
   11SAPS     N 1331   2.052   1.352   2.547  0.2361 -0.2717  0.0744
   11SAPS   HN1 1332   1.949   1.349   2.547  0.1991  0.1903  1.5017
   11SAPS   HN2 1333   2.090   1.409   2.625 -2.6170 -0.5753  1.7827
   11SAPS   HN3 1334   2.087   1.394   2.458  1.9652 -1.1858  0.2765
   11SAPS   C12 1335   2.097   1.210   2.552 -0.6328  0.4473 -0.2453
   11SAPS  H12A 1336   2.026   1.158   2.615  0.0006 -0.2239 -0.0749
   11SAPS   C13 1337   2.114   1.130   2.418  0.0560 -0.2696  0.0597
   11SAPS  O13A 1338   2.104   1.193   2.313  0.2073  0.3309 -0.1092
   11SAPS  O13B 1339   2.141   1.009   2.430 -0.1630  0.2635  0.0710
   11SAPS   C11 1340   2.230   1.208   2.631  0.0628  0.2128 -0.3672
   11SAPS  H11A 1341   2.302   1.265   2.568 -0.9530  2.1819  0.1596
   11SAPS  H11B 1342   2.260   1.101   2.632 -0.0330  0.1847 -0.5797
   11SAPS     P 1343   2.346   1.263   2.856  0.3948  0.3088 -0.1442
   11SAPS   O13 1344   2.444   1.365   2.816  0.3497 -0.4881  0.4369
   11SAPS   O14 1345   2.300   1.267   2.999  0.1768  0.6183  0.3789
   11SAPS   O12 1346   2.228   1.277   2.760 -0.0871  0.0868 -0.3090
   11SAPS   O11 1347   2.398   1.112   2.837 -0.1630 -0.0411 -0.3418
   11SAPS    C1 1348   2.537   1.088   2.854  0.0385  0.3361 -0.1625
   11SAPS    HA 1349   2.582   1.058   2.757  0.2460 -0.7369  0.2491
   11SAPS    HB 1350   2.596   1.180   2.876 -1.2806  0.8387  1.5464
   11SAPS    C2 1351   2.562   0.981   2.965  1.1571 -0.1634  0.0802
   11SAPS    HS 1352   2.672   0.983   2.982  1.2730 -0.0612 -0.6618
   11SAPS   O21 1353   2.520   0.850   2.925  0.1766  0.1852  0.1134
   11SAPS   C21 1354   2.572   0.783   2.819  0.2818 -0.4623 -0.0087
   11SAPS   O22 1355   2.647   0.832   2.738 -0.0642  0.3021  0.7280
   11SAPS   C22 1356   2.537   0.634   2.827  0.2097  0.6380  0.4763
   11SAPS   H2R 1357   2.534   0.607   2.935  1.4564 -0.0533  0.3544
   11SAPS   H2S 1358   2.436   0.611   2.786 -0.0029 -1.0946  1.8456
   11SAPS    C3 1359   2.495   1.020   3.098  0.2079 -0.2765  0.0570
   11SAPS    HX 1360   2.384   1.020   3.085  0.1281  2.6909  0.2305
   11SAPS    HY 1361   2.531   1.124   3.108 -0.9018  0.2789 -1.4455
   11SAPS   O31 1362   2.547   0.941   3.206  0.0042  0.0621  0.0100
   11SAPS   C31 1363   2.465   0.859   3.264  0.3580 -0.2627 -0.2641
   11SAPS   O32 1364   2.348   0.837   3.222 -0.6941 -0.0143 -0.1510
   11SAPS   C32 1365   2.531   0.785   3.379 -0.1889 -0.3750  0.3413
   11SAPS   H2X 1366   2.529   0.848   3.470 -0.7074 -0.4360  0.3768
   11SAPS   H2Y 1367   2.638   0.776   3.352  0.0890  0.0695  1.2671
   11SAPS   C23 1368   2.633   0.538   2.741  0.3122  0.2421 -0.2481
   11SAPS   H3R 1369   2.627   0.572   2.635 -2.1751  1.8868  0.3404
   11SAPS   H3S 1370   2.581   0.440   2.751  1.7852 -0.6114 -0.5810
   11SAPS   C24 1371   2.766   0.521   2.809  0.5323  0.4719 -0.4527
   11SAPS   H4R 1372   2.812   0.618   2.839  2.0890 -0.1305 -0.7885
   11SAPS   H4S 1373   2.842   0.486   2.736  0.4820 -0.2728 -0.1503
   11SAPS   C25 1374   2.754   0.421   2.932  0.2228  0.4795 -0.0418
   11SAPS   H5R 1375   2.725   0.316   2.912 -0.7711  0.1665  2.5735
   11SAPS   C26 1376   2.765   0.456   3.056  0.3451 -0.0831  0.1598
   11SAPS   H6R 1377   2.758   0.374   3.129  1.8829 -0.2464  0.1615
   11SAPS   C27 1378   2.787   0.598   3.108  0.1601  0.2356 -0.6162
   11SAPS   H7R 1379   2.685   0.637   3.129  0.0588 -0.2134 -0.2676
   11SAPS   H7S 1380   2.837   0.652   3.024  0.8517 -0.0824 -0.4218
   11SAPS   C28 1381   2.885   0.608   3.222  0.1319 -0.2296 -0.6642
   11SAPS   H8R 1382   2.935   0.519   3.263  4.0418  1.5022 -1.2628
   11SAPS   C29 1383   2.930   0.719   3.283 -0.3325 -0.0520  0.1092
   11SAPS   H9R 1384   2.994   0.702   3.371 -0.4232  2.5487  0.7360
   11SAPS  C210 1385   2.888   0.860   3.256  0.0219 -0.2700  0.8024
   11SAPS  H10R 1386   2.884   0.912   3.354 -2.3332  0.5785  0.3210
   11SAPS  H10S 1387   2.791   0.857   3.203  0.6730 -0.2620 -0.4247
   11SAPS  C211 1388   2.982   0.920   3.151  0.7168 -0.2148 -0.2112
   11SAPS  H11R 1389   2.943   0.907   3.049  3.3639  1.2481 -1.5019
   11SAPS  C212 1390   3.104   0.975   3.161 -1.2717 -0.9472 -0.1068
   11SAPS  H12R 1391   3.163   1.022   3.081  0.1521  1.0466  1.9732
   11SAPS  C213 1392   3.174   0.998   3.299  1.2922  0.0597 -0.4409
   11SAPS  H13R 1393   3.120   0.936   3.373 -1.0109  0.2919 -1.8441
   11SAPS  H13S 1394   3.142   1.097   3.337 -1.7308 -0.7927 -0.5369
   11SAPS  C214 1395   3.319   0.988   3.303 -0.2117  0.1877  0.0627
   11SAPS  H14R 1396   3.363   1.019   3.206 -0.7170  1.5720  0.2561
   11SAPS  C215 1397   3.405   0.966   3.399 -0.1068  0.0702  0.3660
   11SAPS  H15R 1398   3.511   0.987   3.376  0.0721  0.8773  1.7940
   11SAPS  C216 1399   3.361   0.929   3.540  0.1045 -0.4870  0.9475
   11SAPS  H16R 1400   3.275   0.858   3.539  1.1036 -1.7437 -0.9872
   11SAPS  H16S 1401   3.321   1.016   3.596  0.1069 -0.2917  0.6466
   11SAPS  C217 1402   3.468   0.871   3.617 -0.1638  1.0041 -0.4366
   11SAPS  H17R 1403   3.550   0.945   3.635 -0.7043  1.9461 -1.7275
   11SAPS  H17S 1404   3.520   0.784   3.571  0.6014 -1.5724  4.5787
   11SAPS  C218 1405   3.428   0.830   3.762 -0.5823 -0.0458 -0.2225
   11SAPS  H18R 1406   3.510   0.770   3.806  1.0170  1.3681 -1.1266
   11SAPS  H18S 1407   3.343   0.760   3.750  0.5906 -1.8963  1.6881
   11SAPS  C219 1408   3.392   0.951   3.858  0.0859 -0.5840  0.3304
   11SAPS  H19R 1409   3.345   1.031   3.797  0.0951 -1.2420 -0.5669
   11SAPS  H19S 1410   3.484   0.998   3.898 -0.7966  0.0185  1.7103
   11SAPS  C220 1411   3.302   0.926   3.971 -0.0572  0.0261  0.6091
   11SAPS  H20R 1412   3.328   0.835   4.028 -1.8558 -0.6096  0.4635
   11SAPS  H20S 1413   3.203   0.903   3.926 -1.1457  0.6477  2.5704
   11SAPS  H20T 1414   3.298   1.018   4.033 -1.9928  1.8011 -1.9150
   11SAPS   C33 1415   2.460   0.651   3.398  0.1389  0.2941  0.1615
   11SAPS   H3X 1416   2.470   0.597   3.301  0.0013 -0.7691  0.7246
   11SAPS   H3Y 1417   2.351   0.663   3.419  0.6824  0.7909  3.2646
   11SAPS   C34 1418   2.531   0.563   3.504  0.0874 -0.4876  0.1477
   11SAPS   H4X 1419   2.638   0.576   3.481  0.1954  0.3482  1.0327
   11SAPS   H4Y 1420   2.510   0.456   3.486 -2.6252  0.3318 -2.3324
   11SAPS   C35 1421   2.492   0.590   3.651 -0.1024  0.0161  0.3792
   11SAPS   H5X 1422   2.384   0.581   3.672  0.0925 -0.9115  1.1074
   11SAPS   H5Y 1423   2.532   0.692   3.666  1.8274 -0.7747  0.9858
   11SAPS   C36 1424   2.566   0.499   3.745 -0.4578 -0.2712  0.4554
   11SAPS   H6X 1425   2.676   0.507   3.736 -0.0197 -4.5623 -0.4378
   11SAPS   H6Y 1426   2.546   0.393   3.717  1.6001 -0.2960 -1.1641
   11SAPS   C37 1427   2.523   0.528   3.890 -0.2445 -0.5554  0.1810
   11SAPS   H7X 1428   2.415   0.505   3.903 -1.1273  1.7183 -2.0785
   11SAPS   H7Y 1429   2.529   0.639   3.900  0.4842 -0.6832  1.3446
   11SAPS   C38 1430   2.614   0.467   3.995 -0.0132  0.9131 -0.0542
   11SAPS   H8X 1431   2.711   0.518   3.978  1.3103 -0.9519  1.5335
   11SAPS   H8Y 1432   2.631   0.360   3.970 -0.2638  0.4239  1.7218
   11SAPS   C39 1433   2.576   0.497   4.139 -1.2043  0.4418 -0.7228
   11SAPS   H9X 1434   2.482   0.449   4.173 -1.4013  0.5289 -1.1440
   11SAPS   H9Y 1435   2.576   0.607   4.153 -0.8281  0.2671  0.9373
   11SAPS  C310 1436   2.689   0.450   4.230  0.5574 -0.6144 -0.2654
   11SAPS  H10X 1437   2.780   0.513   4.218  0.1368  0.4499  1.7514
   11SAPS  H10Y 1438   2.711   0.344   4.207  1.8965 -0.1012 -1.5444
   11SAPS  C311 1439   2.652   0.462   4.378 -0.2803 -0.0528 -0.2497
   11SAPS  H11X 1440   2.551   0.423   4.402 -0.4011 -1.2869 -2.4904
   11SAPS  H11Y 1441   2.634   0.571   4.393 -2.4376 -0.2707 -0.8511
   11SAPS  C312 1442   2.773   0.405   4.470  0.1231  0.2202  0.4187
   11SAPS  H12X 1443   2.862   0.446   4.418 -0.9478 -0.9567 -2.5774
   11SAPS  H12Y 1444   2.767   0.294   4.473  1.7623  0.1291  2.3682
   11SAPS  C313 1445   2.757   0.451   4.614  0.1035  1.4737 -1.1236
   11SAPS  H13X 1446   2.715   0.554   4.612 -1.5134  0.8598 -1.1016
   11SAPS  H13Y 1447   2.857   0.444   4.660  0.3684  1.1901 -1.7338
   11SAPS  C314 1448   2.651   0.364   4.694 -0.5711  0.4721  0.1872
   11SAPS  H14X 1449   2.692   0.262   4.712  2.1068  1.3527 -0.3330
   11SAPS  H14Y 1450   2.571   0.341   4.621  0.5751 -0.2075 -0.8946
   11SAPS  C315 1451   2.588   0.433   4.817  0.3901  0.0501  0.0398
   11SAPS  H15X 1452   2.523   0.520   4.792  0.8577  1.0728  2.1256
   11SAPS  H15Y 1453   2.668   0.478   4.880 -0.8966  1.2593  0.8591
   11SAPS  C316 1454   2.511   0.315   4.899 -0.8171 -0.3933 -0.5127
   11SAPS  H16X 1455   2.569   0.222   4.917 -3.0543 -1.8934 -0.5744
   11SAPS  H16Y 1456   2.432   0.280   4.829  0.4039 -2.4174 -0.9773
   11SAPS  C317 1457   2.455   0.359   5.030  0.3767  0.0117 -0.2237
   11SAPS  H17X 1458   2.382   0.286   5.069 -1.1131 -0.1146 -3.0118
   11SAPS  H17Y 1459   2.382   0.439   5.005  2.8401  1.9529 -1.8216
   11SAPS  C318 1460   2.548   0.423   5.135 -0.0978  0.1203 -0.9217
   11SAPS  H18X 1461   2.636   0.355   5.147 -0.9054 -0.7531  0.2381
   11SAPS  H18Y 1462   2.507   0.447   5.235 -1.3811  0.5055 -1.5172
   11SAPS  H18Z 1463   2.586   0.521   5.100  1.0677 -0.9166 -2.7750
   12SAPS     N 1464   2.373   5.863   2.413  0.4292  0.4906 -0.2247
   12SAPS   HN1 1465   2.345   5.788   2.347 -0.3462  1.0951 -0.5958
   12SAPS   HN2 1466   2.473   5.875   2.385 -0.4670 -0.6642 -4.7750
   12SAPS   HN3 1467   2.364   5.817   2.506  0.2190  1.8076  0.4271
   12SAPS   C12 1468   2.280   5.983   2.398  0.6056 -0.0674 -0.0141
   12SAPS  H12A 1469   2.290   6.042   2.488 -0.4360  1.6403 -0.9618
   12SAPS   C13 1470   2.303   6.075   2.279  0.2353  0.0517  0.2511
   12SAPS  O13A 1471   2.421   6.085   2.222  0.7307  0.1358 -0.5262
   12SAPS  O13B 1472   2.222   6.169   2.262 -0.5762 -0.0123 -0.2460
   12SAPS   C11 1473   2.135   5.941   2.408 -0.0396 -0.0666 -0.1418
   12SAPS  H11A 1474   2.104   5.858   2.341  0.9325 -0.4629 -0.1298
   12SAPS  H11B 1475   2.061   6.021   2.390 -0.5081 -0.5844 -0.5282
   12SAPS     P 1476   2.026   5.968   2.651  0.0022  0.1669  0.0964
   12SAPS   O13 1477   1.922   6.061   2.597 -0.6412 -0.0474  0.3158
   12SAPS   O14 1478   1.978   5.862   2.744 -0.5907 -0.1103  0.3338
   12SAPS   O12 1479   2.117   5.894   2.539  0.1388  0.5281 -0.5231
   12SAPS   O11 1480   2.133   6.052   2.736 -0.1858  0.3818  0.0025
   12SAPS    C1 1481   2.254   5.987   2.769 -1.0659  0.0836  0.0041
   12SAPS    HA 1482   2.283   5.894   2.716  1.0101  1.6557 -1.8622
   12SAPS    HB 1483   2.326   6.062   2.729 -0.0786 -0.4310  0.7535
   12SAPS    C2 1484   2.278   5.964   2.928 -0.7232 -0.2188 -0.4737
   12SAPS    HS 1485   2.241   5.863   2.956 -0.1713  0.2216  2.1484
   12SAPS   O21 1486   2.197   6.062   3.003  0.2466 -0.2352 -0.0000
   12SAPS   C21 1487   2.246   6.181   3.017  0.4259 -0.8621  0.1062
   12SAPS   O22 1488   2.340   6.234   2.955  1.0995  0.2578 -0.0240
   12SAPS   C22 1489   2.172   6.248   3.139 -0.1037  0.2636  0.5921
   12SAPS   H2R 1490   2.064   6.256   3.115  0.0566  0.0764 -0.2416
   12SAPS   H2S 1491   2.184   6.184   3.228 -1.1646  1.1032  1.3665
   12SAPS    C3 1492   2.427   5.947   2.961  0.1893  0.0428 -0.3513
   12SAPS    HX 1493   2.469   6.033   2.905  0.6215 -0.2469 -0.4692
   12SAPS    HY 1494   2.455   5.851   2.914  0.6095  0.6771 -1.4423
   12SAPS   O31 1495   2.463   5.946   3.099 -0.0973  0.0433 -0.1826
   12SAPS   C31 1496   2.602   5.975   3.115 -0.2673  0.0659  0.2873
   12SAPS   O32 1497   2.683   5.970   3.032 -0.2384  0.8108  0.0028
   12SAPS   C32 1498   2.626   6.008   3.264  0.5444  0.4892  0.5375
   12SAPS   H2X 1499   2.726   6.055   3.278  0.4502  1.3291 -1.2665
   12SAPS   H2Y 1500   2.638   5.916   3.326  3.1846  0.7711  0.5867
   12SAPS   C23 1501   2.202   6.399   3.166 -0.3247 -0.6661  0.8594
   12SAPS   H3R 1502   2.111   6.455   3.195  0.1405  1.5972 -1.6425
   12SAPS   H3S 1503   2.235   6.447   3.071  1.4339  1.1023  2.2756
   12SAPS   C24 1504   2.308   6.415   3.277  0.1401  0.1050  0.7913
   12SAPS   H4R 1505   2.405   6.377   3.240 -0.0466  0.8274 -0.4647
   12SAPS   H4S 1506   2.285   6.359   3.371  1.5019  0.9389  1.6575
   12SAPS   C25 1507   2.321   6.563   3.298 -0.5290 -0.0531  0.3134
   12SAPS   H5R 1508   2.360   6.613   3.208  3.2827 -0.1953  1.6733
   12SAPS   C26 1509   2.287   6.622   3.416 -0.3888 -0.1681  0.6409
   12SAPS   H6R 1510   2.281   6.732   3.418 -0.0324 -0.1630  1.7155
   12SAPS   C27 1511   2.216   6.567   3.534 -0.7268  0.6892 -0.6929
   12SAPS   H7R 1512   2.140   6.493   3.504 -1.1932 -0.0098  1.9625
   12SAPS   H7S 1513   2.172   6.652   3.590  1.8105  0.8102  1.3333
   12SAPS   C28 1514   2.295   6.484   3.635 -0.0606  0.1645 -1.0711
   12SAPS   H8R 1515   2.326   6.386   3.597 -0.8034 -0.7013  0.4672
   12SAPS   C29 1516   2.324   6.509   3.770 -0.0206  0.0216  0.2882
   12SAPS   H9R 1517   2.377   6.426   3.818 -0.6835 -1.1729 -0.9681
   12SAPS  C210 1518   2.302   6.628   3.854  0.4482  0.2811 -0.5690
   12SAPS  H10R 1519   2.314   6.718   3.790 -1.1293  0.2986 -0.8730
   12SAPS  H10S 1520   2.390   6.635   3.922 -0.0399 -1.8544  0.3721
   12SAPS  C211 1521   2.164   6.626   3.918 -0.4801 -0.2372 -0.3072
   12SAPS  H11R 1522   2.076   6.619   3.853 -0.8011  0.7699 -0.0059
   12SAPS  C212 1523   2.142   6.623   4.051  0.2526 -0.1330  0.6939
   12SAPS  H12R 1524   2.040   6.632   4.093  0.1590  2.7604  0.0317
   12SAPS  C213 1525   2.240   6.635   4.161  0.5564  0.1369  0.6074
   12SAPS  H13R 1526   2.197   6.691   4.247  0.9584  1.1824  0.1457
   12SAPS  H13S 1527   2.310   6.712   4.122 -0.5918 -0.1566 -2.2523
   12SAPS  C214 1528   2.310   6.511   4.208  0.0728  0.0358  0.2443
   12SAPS  H14R 1529   2.363   6.462   4.125 -2.6958 -3.1532  0.1387
   12SAPS  C215 1530   2.302   6.448   4.329 -0.0115  0.0067 -0.3880
   12SAPS  H15R 1531   2.363   6.357   4.341  0.0462 -0.2412 -2.2975
   12SAPS  C216 1532   2.238   6.514   4.447  0.1731  0.0976 -0.6435
   12SAPS  H16R 1533   2.131   6.481   4.446 -0.1570  0.8080  2.2658
   12SAPS  H16S 1534   2.232   6.625   4.444 -1.5078  0.0429 -0.3481
   12SAPS  C217 1535   2.291   6.471   4.581 -0.0869 -0.6993  0.0483
   12SAPS  H17R 1536   2.395   6.499   4.608 -0.0025  0.2178 -1.1711
   12SAPS  H17S 1537   2.290   6.360   4.582 -0.5149 -0.7085 -0.6224
   12SAPS  C218 1538   2.195   6.519   4.695 -0.6517  0.1023  0.7547
   12SAPS  H18R 1539   2.096   6.485   4.657  0.3696  0.6216 -2.6168
   12SAPS  H18S 1540   2.191   6.630   4.696 -1.2717  0.0916  0.0731
   12SAPS  C219 1541   2.231   6.471   4.836 -0.6437 -0.1972  0.2251
   12SAPS  H19R 1542   2.266   6.366   4.829 -0.1214  0.0706 -1.7004
   12SAPS  H19S 1543   2.144   6.475   4.905 -0.2866  0.7028  0.6475
   12SAPS  C220 1544   2.336   6.554   4.897 -0.5077 -0.8290 -0.7008
   12SAPS  H20R 1545   2.426   6.562   4.832 -0.4649  0.1031 -0.5303
   12SAPS  H20S 1546   2.366   6.534   5.002  0.2006  3.5213  0.0895
   12SAPS  H20T 1547   2.299   6.658   4.902  1.4880 -0.1408  1.3483
   12SAPS   C33 1548   2.516   6.093   3.321  0.0985  0.3429  0.6018
   12SAPS   H3X 1549   2.434   6.023   3.347  0.4489  0.0664  0.9646
   12SAPS   H3Y 1550   2.482   6.169   3.247  1.3333 -0.0701 -0.4148
   12SAPS   C34 1551   2.561   6.157   3.450  0.1108  0.7438 -0.1598
   12SAPS   H4X 1552   2.474   6.207   3.498  1.1067  2.8246 -0.4133
   12SAPS   H4Y 1553   2.631   6.240   3.427  0.3020  0.6570  0.1074
   12SAPS   C35 1554   2.621   6.067   3.558 -0.9376  0.6538 -0.7353
   12SAPS   H5X 1555   2.719   6.023   3.530 -1.9219 -1.2544 -1.3835
   12SAPS   H5Y 1556   2.557   5.978   3.578  1.7421 -1.5162 -1.1970
   12SAPS   C36 1557   2.635   6.155   3.686 -0.8058 -0.0066 -0.0878
   12SAPS   H6X 1558   2.536   6.165   3.735  0.3374 -0.1100  2.3954
   12SAPS   H6Y 1559   2.674   6.255   3.658 -0.3339 -0.5883 -1.5825
   12SAPS   C37 1560   2.729   6.091   3.793  0.0950 -0.6856  0.0530
   12SAPS   H7X 1561   2.830   6.094   3.747 -0.1771  1.8654 -0.5209
   12SAPS   H7Y 1562   2.712   5.985   3.822  0.6909 -0.7811  0.0655
   12SAPS   C38 1563   2.742   6.166   3.935  0.5505  0.8499 -0.8056
   12SAPS   H8X 1564   2.771   6.273   3.929  3.0664  0.4960  2.1302
   12SAPS   H8Y 1565   2.828   6.124   3.993 -0.3066 -1.9523 -1.3907
   12SAPS   C39 1566   2.612   6.150   4.022 -0.5614  0.4041 -1.0378
   12SAPS   H9X 1567   2.576   6.045   4.027 -2.0478  0.8813 -1.1689
   12SAPS   H9Y 1568   2.526   6.195   3.969 -1.1790 -0.9571 -1.2483
   12SAPS  C310 1569   2.622   6.211   4.168  0.3696 -0.7770  0.6085
   12SAPS  H10X 1570   2.530   6.177   4.220  0.7437 -0.1321  1.7443
   12SAPS  H10Y 1571   2.622   6.322   4.158  1.0788 -0.9725 -2.8274
   12SAPS  C311 1572   2.748   6.164   4.244 -0.2730  0.7840 -0.0929
   12SAPS  H11X 1573   2.837   6.222   4.210 -0.4481  2.6151  2.3160
   12SAPS  H11Y 1574   2.763   6.060   4.210  2.0677  1.2813 -0.8055
   12SAPS  C312 1575   2.724   6.166   4.397  0.2315 -0.2254 -0.1654
   12SAPS  H12X 1576   2.826   6.138   4.432  0.9647 -0.3441 -2.2717
   12SAPS  H12Y 1577   2.661   6.080   4.428 -2.3837  1.6048 -0.0828
   12SAPS  C313 1578   2.682   6.305   4.442 -0.3882  0.8462 -0.0757
   12SAPS  H13X 1579   2.571   6.301   4.430 -0.1450 -0.7243 -2.5017
   12SAPS  H13Y 1580   2.717   6.370   4.359 -0.4310 -0.4605 -1.1478
   12SAPS  C314 1581   2.721   6.340   4.587 -0.8750  0.2914  0.5269
   12SAPS  H14X 1582   2.671   6.436   4.611 -0.3440  0.4671  0.9484
   12SAPS  H14Y 1583   2.832   6.342   4.597 -0.5770 -1.1673 -1.7461
   12SAPS  C315 1584   2.670   6.255   4.704  0.2862 -0.3140 -0.1915
   12SAPS  H15X 1585   2.715   6.154   4.702  2.2925  0.4665  1.2011
   12SAPS  H15Y 1586   2.560   6.243   4.693 -0.2077  2.1827  1.0757
   12SAPS  C316 1587   2.708   6.319   4.839 -0.1202  0.3989 -0.0333
   12SAPS  H16X 1588   2.650   6.413   4.848  0.4752  0.7928 -0.2161
   12SAPS  H16Y 1589   2.818   6.339   4.842 -0.2506  1.1536 -0.1379
   12SAPS  C317 1590   2.678   6.236   4.967 -1.1191  0.2737  0.8973
   12SAPS  H17X 1591   2.734   6.140   4.959  2.0207  1.8857  2.0029
   12SAPS  H17Y 1592   2.569   6.215   4.960 -0.8922 -0.8770  0.4118
   12SAPS  C318 1593   2.712   6.310   5.096 -0.2903 -0.0533 -0.5913
   12SAPS  H18X 1594   2.715   6.237   5.180  1.4968  1.5282  0.8198
   12SAPS  H18Y 1595   2.643   6.393   5.124  0.6631  0.3841  0.5600
   12SAPS  H18Z 1596   2.805   6.370   5.089 -0.8292  0.6455 -2.1351
   13SAPS     N 1597   0.387   5.420   2.544  0.0216  0.0211 -0.6051
   13SAPS   HN1 1598   0.462   5.481   2.507  1.6353 -0.4951  1.5902
   13SAPS   HN2 1599   0.308   5.478   2.580  0.1519  0.7323 -1.4435
   13SAPS   HN3 1600   0.434   5.368   2.620  0.1178  0.1331 -0.5884
   13SAPS   C12 1601   0.325   5.333   2.449 -0.0982 -0.0798 -0.7125
   13SAPS  H12A 1602   0.311   5.399   2.365  1.2457  1.0841 -0.0403
   13SAPS   C13 1603   0.408   5.218   2.400  0.4955 -0.1990 -0.2472
   13SAPS  O13A 1604   0.525   5.199   2.444 -0.0831 -0.1604  0.1093
   13SAPS  O13B 1605   0.359   5.138   2.309 -0.3618 -0.0411  0.4228
   13SAPS   C11 1606   0.196   5.278   2.510 -0.4880  0.0516  0.1346
   13SAPS  H11A 1607   0.217   5.205   2.591  0.2350  2.4057  2.2226
   13SAPS  H11B 1608   0.146   5.229   2.424  0.9955 -0.2231 -0.5995
   13SAPS     P 1609  -0.029   5.345   2.631  0.0556 -0.1640 -0.6195
   13SAPS   O13 1610  -0.097   5.471   2.665 -0.2579  0.2304 -0.3337
   13SAPS   O14 1611  -0.101   5.256   2.539  0.1856  0.4963 -0.4776
   13SAPS   O12 1612   0.115   5.381   2.568  0.0132 -0.1019  0.4539
   13SAPS   O11 1613   0.005   5.264   2.769 -0.0039  0.0688  0.2287
   13SAPS    C1 1614   0.090   5.334   2.858 -0.5278 -1.1412  0.3838
   13SAPS    HA 1615   0.180   5.376   2.809  0.0211  0.5246  2.6895
   13SAPS    HB 1616   0.032   5.421   2.894 -0.8762 -2.2288  2.6436
   13SAPS    C2 1617   0.126   5.258   2.987  0.0731 -0.1991  0.3526
   13SAPS    HS 1618   0.185   5.175   2.944 -0.3096 -0.3385  0.0954
   13SAPS   O21 1619   0.004   5.203   3.042  0.7038 -0.2402  0.3519
   13SAPS   C21 1620   0.021   5.082   3.112  0.2329 -0.1468  0.5771
   13SAPS   O22 1621   0.125   5.020   3.117  0.4969  0.1525  0.2710
   13SAPS   C22 1622  -0.114   5.049   3.175  0.0044  0.8404 -0.9416
   13SAPS   H2R 1623  -0.180   5.138   3.188 -1.6608 -0.3433 -0.8824
   13SAPS   H2S 1624  -0.164   4.985   3.100  0.5803 -0.3617 -0.3269
   13SAPS    C3 1625   0.199   5.341   3.095 -0.1770  0.3937  0.1164
   13SAPS    HX 1626   0.125   5.409   3.142 -2.6369 -0.8861 -1.6181
   13SAPS    HY 1627   0.271   5.407   3.042 -1.3313 -0.2959 -2.5058
   13SAPS   O31 1628   0.262   5.261   3.197  0.0663 -0.3844  0.1299
   13SAPS   C31 1629   0.378   5.215   3.174  0.3719  0.4240 -0.0570
   13SAPS   O32 1630   0.437   5.209   3.067 -0.3903  0.2005  0.0810
   13SAPS   C32 1631   0.431   5.146   3.304  0.0433 -0.4118 -0.0621
   13SAPS   H2X 1632   0.378   5.055   3.337 -1.2243  0.8044  1.4215
   13SAPS   H2Y 1633   0.425   5.220   3.387  2.7090 -0.0842 -0.0670
   13SAPS   C23 1634  -0.114   4.980   3.314 -0.8425 -0.2170  0.1025
   13SAPS   H3R 1635  -0.032   4.908   3.337 -0.5991 -0.0791 -0.3337
   13SAPS   H3S 1636  -0.207   4.920   3.326 -1.0119  0.0139 -0.0674
   13SAPS   C24 1637  -0.119   5.090   3.425 -0.4855 -0.5538 -0.5338
   13SAPS   H4R 1638  -0.147   5.048   3.524 -3.0402  1.4706 -0.2981
   13SAPS   H4S 1639  -0.197   5.163   3.392 -0.2058 -0.6467 -1.4194
   13SAPS   C25 1640   0.001   5.181   3.437  0.5225  0.5641 -0.4351
   13SAPS   H5R 1641   0.000   5.263   3.365 -2.1890  0.4881 -0.6075
   13SAPS   C26 1642   0.100   5.168   3.528  0.5809 -0.4942 -0.1921
   13SAPS   H6R 1643   0.180   5.243   3.517 -0.4982  0.5616 -1.1540
   13SAPS   C27 1644   0.114   5.063   3.638 -0.3647  0.0594  0.2768
   13SAPS   H7R 1645   0.057   4.972   3.611 -1.6678  0.8916  0.1679
   13SAPS   H7S 1646   0.079   5.095   3.738  1.5366  0.6053  0.8198
   13SAPS   C28 1647   0.255   5.011   3.657  0.0223  0.1490 -0.6508
   13SAPS   H8R 1648   0.299   4.963   3.569  4.1902  1.1202  0.6834
   13SAPS   C29 1649   0.329   5.021   3.774  0.1964  0.2149  0.3355
   13SAPS   H9R 1650   0.424   4.966   3.785 -0.1885 -0.4261  0.4606
   13SAPS  C210 1651   0.293   5.096   3.898 -0.3970  0.2539 -0.5424
   13SAPS  H10R 1652   0.207   5.040   3.941  0.5548 -1.4767 -0.8121
   13SAPS  H10S 1653   0.266   5.198   3.864 -2.4205 -0.7314 -2.1105
   13SAPS  C211 1654   0.415   5.115   3.991  0.2428  0.0862  0.3036
   13SAPS  H11R 1655   0.500   5.164   3.941 -0.0697  1.0616  0.7051
   13SAPS  C212 1656   0.422   5.089   4.123 -0.5637 -0.6422  0.4539
   13SAPS  H12R 1657   0.513   5.123   4.174 -1.2844  1.1090  0.6106
   13SAPS  C213 1658   0.320   5.026   4.206  0.2115  0.7172  0.4121
   13SAPS  H13R 1659   0.248   4.969   4.144  0.7000  0.0337  0.4593
   13SAPS  H13S 1660   0.244   5.095   4.249  0.4565  2.1078 -1.3041
   13SAPS  C214 1661   0.372   4.938   4.319 -0.5228 -0.3713  0.3332
   13SAPS  H14R 1662   0.370   4.832   4.291 -0.9176 -0.1231 -0.6151
   13SAPS  C215 1663   0.410   4.984   4.437 -0.0419  0.0901 -1.4247
   13SAPS  H15R 1664   0.421   4.903   4.511 -0.0653 -0.8685 -2.4487
   13SAPS  C216 1665   0.398   5.129   4.484  0.0156  1.0795 -0.4711
   13SAPS  H16R 1666   0.392   5.200   4.399 -1.6591  0.4199 -0.9478
   13SAPS  H16S 1667   0.502   5.137   4.523  0.8654 -0.4209 -2.2544
   13SAPS  C217 1668   0.292   5.171   4.599 -0.6567  0.5799 -0.4926
   13SAPS  H17R 1669   0.187   5.179   4.564 -1.2219  0.5308  1.1010
   13SAPS  H17S 1670   0.322   5.278   4.609 -0.9451  0.8254 -2.0429
   13SAPS  C218 1671   0.306   5.117   4.737  0.8232  0.8424 -0.0363
   13SAPS  H18R 1672   0.398   5.144   4.793 -0.4320  0.6647  2.2474
   13SAPS  H18S 1673   0.301   5.006   4.728 -1.2728  0.9033 -0.1738
   13SAPS  C219 1674   0.191   5.167   4.832 -0.3522 -0.1329 -0.0127
   13SAPS  H19R 1675   0.135   5.094   4.894 -1.6243 -0.6296 -1.6656
   13SAPS  H19S 1676   0.108   5.204   4.767 -1.0079  0.6942  1.2552
   13SAPS  C220 1677   0.233   5.283   4.926 -0.3996 -0.8050 -0.0156
   13SAPS  H20R 1678   0.274   5.360   4.857 -2.9226  0.7287  0.0567
   13SAPS  H20S 1679   0.304   5.243   5.002 -0.5295  1.4736  1.3861
   13SAPS  H20T 1680   0.151   5.335   4.981  0.5672  2.3886 -1.3804
   13SAPS   C33 1681   0.581   5.097   3.298  0.0838  0.0222 -0.3062
   13SAPS   H3X 1682   0.647   5.184   3.276  0.0495 -0.1560 -1.1443
   13SAPS   H3Y 1683   0.601   5.024   3.216  2.0629  2.0130 -1.7261
   13SAPS   C34 1684   0.620   5.043   3.435 -0.2864 -0.5306 -0.8547
   13SAPS   H4X 1685   0.568   4.949   3.461  0.0847 -0.1806  1.3616
   13SAPS   H4Y 1686   0.603   5.121   3.512  1.9030  0.1123 -0.9510
   13SAPS   C35 1687   0.774   5.013   3.447  0.5927 -0.4004  0.5271
   13SAPS   H5X 1688   0.816   5.104   3.400 -2.2868  0.4721 -0.6023
   13SAPS   H5Y 1689   0.799   4.925   3.383  0.9248  0.3281 -0.3522
   13SAPS   C36 1690   0.817   4.987   3.591  0.0757  0.3502 -0.5245
   13SAPS   H6X 1691   0.925   4.962   3.587  0.5781  1.9924  1.1825
   13SAPS   H6Y 1692   0.772   4.897   3.638 -1.5061  0.5327 -1.6107
   13SAPS   C37 1693   0.804   5.103   3.687 -0.6196 -0.2534  0.9361
   13SAPS   H7X 1694   0.698   5.136   3.689 -0.6835 -0.4753  1.5607
   13SAPS   H7Y 1695   0.867   5.187   3.651 -0.5799  0.2812  2.1835
   13SAPS   C38 1696   0.842   5.076   3.827  0.0230  0.6657 -0.0631
   13SAPS   H8X 1697   0.947   5.040   3.838 -0.0331  1.0265  1.9837
   13SAPS   H8Y 1698   0.767   5.005   3.867 -0.2406  0.6041 -0.6557
   13SAPS   C39 1699   0.820   5.199   3.914 -0.1607 -0.6929 -0.3132
   13SAPS   H9X 1700   0.716   5.234   3.896 -0.7176 -1.6692  0.8913
   13SAPS   H9Y 1701   0.881   5.283   3.874 -0.3385  0.1288  1.0747
   13SAPS  C310 1702   0.834   5.182   4.061 -0.7556 -0.4406 -0.0054
   13SAPS  H10X 1703   0.932   5.133   4.077 -0.6993  0.1483  1.6091
   13SAPS  H10Y 1704   0.757   5.109   4.093  1.8680 -1.1264  5.9561
   13SAPS  C311 1705   0.820   5.305   4.142  0.0853  0.3774 -0.9685
   13SAPS  H11X 1706   0.820   5.265   4.246 -1.4721 -0.3890 -1.2276
   13SAPS  H11Y 1707   0.723   5.354   4.124  1.3375  3.5118  0.1349
   13SAPS  C312 1708   0.935   5.405   4.124 -0.0062  0.3813  0.7526
   13SAPS  H12X 1709   0.947   5.426   4.016 -2.0639 -0.5899  0.3034
   13SAPS  H12Y 1710   1.034   5.374   4.164 -1.1494 -2.0565  1.8511
   13SAPS  C313 1711   0.904   5.541   4.199  0.6609 -0.3975  0.0072
   13SAPS  H13X 1712   0.802   5.576   4.175  1.4453  0.6844 -2.0719
   13SAPS  H13Y 1713   0.966   5.622   4.154  0.3190  0.3681  0.8850
   13SAPS  C314 1714   0.911   5.534   4.351 -0.8547 -0.0364  0.3752
   13SAPS  H14X 1715   1.000   5.474   4.381 -0.9161 -0.3518 -0.0634
   13SAPS  H14Y 1716   0.823   5.475   4.384 -0.5675 -0.6048  0.1475
   13SAPS  C315 1717   0.913   5.673   4.417 -0.5342  0.4905 -0.0679
   13SAPS  H15X 1718   0.817   5.721   4.391 -0.6875  0.4954  0.4908
   13SAPS  H15Y 1719   1.005   5.721   4.379 -0.0157 -2.1249 -2.5059
   13SAPS  C316 1720   0.924   5.668   4.566 -0.1109 -0.1553  0.6803
   13SAPS  H16X 1721   1.029   5.647   4.594 -0.7303 -0.4352  3.0293
   13SAPS  H16Y 1722   0.858   5.591   4.611  0.6555 -0.2737  1.6234
   13SAPS  C317 1723   0.891   5.808   4.622 -0.5202 -0.4576 -0.0055
   13SAPS  H17X 1724   0.791   5.826   4.577 -0.7950 -1.1661  0.2976
   13SAPS  H17Y 1725   0.965   5.877   4.577  0.0147  0.3369  1.9681
   13SAPS  C318 1726   0.897   5.800   4.779 -0.3634 -0.0458  0.1718
   13SAPS  H18X 1727   0.803   5.755   4.817  0.3087 -1.6062  0.0759
   13SAPS  H18Y 1728   0.913   5.893   4.838 -0.3211 -0.2066  0.4140
   13SAPS  H18Z 1729   0.979   5.727   4.796  0.4082  0.4565 -1.1888
   14SAPS     N 1730   3.906   0.373   2.585  0.4003  0.0500 -0.5865
   14SAPS   HN1 1731   3.849   0.391   2.669 -0.0682 -0.1177 -0.8651
   14SAPS   HN2 1732   3.837   0.345   2.512 -2.3093  1.3165  1.3329
   14SAPS   HN3 1733   3.968   0.293   2.611  0.0190 -0.0212  0.1229
   14SAPS   C12 1734   3.985   0.489   2.546 -0.4112  0.2566 -0.4856
   14SAPS  H12A 1735   4.040   0.456   2.459  0.3332  0.9581 -0.2998
   14SAPS   C13 1736   3.891   0.606   2.502  0.1869 -0.1169  0.0442
   14SAPS  O13A 1737   3.767   0.590   2.504 -0.6779  0.2136  0.0503
   14SAPS  O13B 1738   3.939   0.704   2.438 -0.7220 -0.0996  0.4781
   14SAPS   C11 1739   4.070   0.538   2.664 -0.4172 -0.9249 -0.2586
   14SAPS  H11A 1740   4.015   0.590   2.745  1.0046 -0.8757  0.7115
   14SAPS  H11B 1741   4.139   0.612   2.617  1.2400 -0.2153  2.9847
   14SAPS     P 1742   4.303   0.459   2.736  0.3351  0.1335 -0.1235
   14SAPS   O13 1743   4.397   0.348   2.706  0.1514  0.0263  0.2419
   14SAPS   O14 1744   4.353   0.589   2.685 -0.1474 -0.0224  0.1275
   14SAPS   O12 1745   4.143   0.432   2.716  0.1892 -0.4010 -0.3103
   14SAPS   O11 1746   4.317   0.489   2.894 -0.0688  0.3461 -0.5837
   14SAPS    C1 1747   4.289   0.374   2.978  0.0275  0.3267  0.3575
   14SAPS    HA 1748   4.318   0.276   2.935 -0.6893  0.8807 -1.5009
   14SAPS    HB 1749   4.352   0.390   3.068  2.6236 -0.4493 -1.2127
   14SAPS    C2 1750   4.138   0.365   3.019 -0.2571 -0.2068 -0.1658
   14SAPS    HS 1751   4.072   0.344   2.932  0.4754 -0.9009 -0.5696
   14SAPS   O21 1752   4.101   0.483   3.097 -0.1656  0.1439  0.5892
   14SAPS   C21 1753   3.979   0.484   3.129 -0.0047  0.3055 -0.2241
   14SAPS   O22 1754   3.888   0.420   3.074 -0.0865  0.4919 -0.0605
   14SAPS   C22 1755   3.954   0.565   3.252 -0.4424 -0.4937  0.6624
   14SAPS   H2R 1756   4.046   0.583   3.311  1.3183 -0.1073 -2.0421
   14SAPS   H2S 1757   3.924   0.667   3.219 -1.4907 -1.9680 -3.5409
   14SAPS    C3 1758   4.114   0.233   3.096 -0.2031 -0.3095 -0.5200
   14SAPS    HX 1759   4.138   0.148   3.028  1.7387  1.0860 -1.6775
   14SAPS    HY 1760   4.008   0.219   3.126 -0.4775  1.7799 -0.3762
   14SAPS   O31 1761   4.201   0.232   3.209 -0.0552  0.0883  0.1932
   14SAPS   C31 1762   4.160   0.161   3.304  0.9392  0.5568 -0.9036
   14SAPS   O32 1763   4.065   0.087   3.307  0.2491  0.3282  0.6417
   14SAPS   C32 1764   4.255   0.185   3.431  0.3409 -0.1961 -0.2789
   14SAPS   H2X 1765   4.270   0.295   3.439 -1.2802 -0.0782  3.3024
   14SAPS   H2Y 1766   4.359   0.149   3.418  0.7714  0.0897  1.9086
   14SAPS   C23 1767   3.838   0.508   3.334  0.3468  0.2560 -0.8753
   14SAPS   H3R 1768   3.761   0.469   3.263 -0.1561  0.1699 -0.2922
   14SAPS   H3S 1769   3.792   0.589   3.394 -0.7710 -1.4454  0.6719
   14SAPS   C24 1770   3.882   0.379   3.408 -0.6331  0.9220 -0.0484
   14SAPS   H4R 1771   3.905   0.284   3.354 -0.7269 -0.4702  2.2272
   14SAPS   H4S 1772   3.795   0.347   3.469 -0.2587  2.4797  1.3698
   14SAPS   C25 1773   3.993   0.395   3.510 -0.2569 -0.2468  0.1681
   14SAPS   H5R 1774   4.092   0.383   3.466 -0.6485 -0.8068 -0.5792
   14SAPS   C26 1775   3.987   0.388   3.647 -0.5691  0.0463  0.0397
   14SAPS   H6R 1776   4.082   0.417   3.695 -1.5400  1.4601  1.2217
   14SAPS   C27 1777   3.858   0.381   3.737 -0.6724  0.3812 -0.0192
   14SAPS   H7R 1778   3.773   0.412   3.673  0.0721 -0.9755 -1.7597
   14SAPS   H7S 1779   3.873   0.451   3.822 -0.6346  0.9783 -0.5136
   14SAPS   C28 1780   3.844   0.245   3.800 -0.1688  0.7520 -0.3177
   14SAPS   H8R 1781   3.845   0.165   3.724 -0.9435  0.9116 -0.5030
   14SAPS   C29 1782   3.798   0.214   3.922  0.0010 -0.1892  0.4906
   14SAPS   H9R 1783   3.806   0.109   3.952 -0.6620 -0.0231  1.2629
   14SAPS  C210 1784   3.765   0.315   4.033 -0.6094  0.1098 -0.7057
   14SAPS  H10R 1785   3.667   0.300   4.083 -1.2831  3.0258 -0.9943
   14SAPS  H10S 1786   3.745   0.415   3.988 -1.1325  0.3535  0.0501
   14SAPS  C211 1787   3.874   0.330   4.135 -0.0339 -0.1322 -0.2254
   14SAPS  H11R 1788   3.970   0.351   4.085  1.3390  0.2517  2.4303
   14SAPS  C212 1789   3.870   0.321   4.265  0.5012 -0.0143 -0.2332
   14SAPS  H12R 1790   3.967   0.342   4.314  0.8076 -0.1942 -0.7564
   14SAPS  C213 1791   3.748   0.289   4.352  0.3417  0.4947  0.2425
   14SAPS  H13R 1792   3.656   0.343   4.323  1.4817  1.8049 -1.0591
   14SAPS  H13S 1793   3.761   0.325   4.457 -2.1752 -2.2712  1.6522
   14SAPS  C214 1794   3.718   0.144   4.361 -0.0884 -0.1355  0.5003
   14SAPS  H14R 1795   3.724   0.091   4.264 -1.5600  2.2229 -0.9818
   14SAPS  C215 1796   3.680   0.073   4.467  0.2768 -0.0360 -1.1841
   14SAPS  H15R 1797   3.660  -0.035   4.455  1.9397 -0.5511  0.2551
   14SAPS  C216 1798   3.651   0.131   4.601 -0.2561  0.6047 -0.3298
   14SAPS  H16R 1799   3.634   0.240   4.596 -2.9851  0.4943  3.1853
   14SAPS  H16S 1800   3.729   0.118   4.679  0.6409 -0.6456 -1.3862
   14SAPS  C217 1801   3.519   0.081   4.660 -0.5187  0.2911 -0.6307
   14SAPS  H17R 1802   3.533  -0.029   4.654 -0.3847  0.1793  1.1786
   14SAPS  H17S 1803   3.430   0.120   4.605 -0.5111  1.6809  0.2997
   14SAPS  C218 1804   3.496   0.128   4.804 -0.3441 -0.4009  0.1847
   14SAPS  H18R 1805   3.489   0.238   4.808 -0.8955 -0.4274  4.2926
   14SAPS  H18S 1806   3.588   0.108   4.864 -1.0146 -0.1270  1.3375
   14SAPS  C219 1807   3.381   0.055   4.871  0.1175  1.1414 -0.2775
   14SAPS  H19R 1808   3.394  -0.055   4.863 -1.2690  1.0071 -0.9919
   14SAPS  H19S 1809   3.277   0.072   4.834 -0.5401  0.2929  1.0668
   14SAPS  C220 1810   3.384   0.094   5.021  0.4621  0.3841 -0.2823
   14SAPS  H20R 1811   3.280   0.101   5.060  0.7609  2.5794  0.2165
   14SAPS  H20S 1812   3.425   0.194   5.044 -2.4489  1.5301  0.3434
   14SAPS  H20T 1813   3.442   0.016   5.075  1.4910  0.7314 -0.8679
   14SAPS   C33 1814   4.202   0.125   3.567 -0.0078  0.6317 -0.5905
   14SAPS   H3X 1815   4.220   0.016   3.558  2.8440  1.0598 -1.2917
   14SAPS   H3Y 1816   4.094   0.141   3.585  0.4696  2.2568  1.2304
   14SAPS   C34 1817   4.279   0.172   3.696 -0.0804  0.1041 -0.5743
   14SAPS   H4X 1818   4.257   0.280   3.709  0.8841  0.2227  0.2216
   14SAPS   H4Y 1819   4.389   0.155   3.694 -0.3535 -1.7674 -1.3771
   14SAPS   C35 1820   4.226   0.097   3.818 -0.2784 -0.2811 -0.4460
   14SAPS   H5X 1821   4.245  -0.012   3.805  1.0445 -0.3815  1.7941
   14SAPS   H5Y 1822   4.117   0.117   3.811 -0.3978 -1.4398 -3.9158
   14SAPS   C36 1823   4.280   0.144   3.950  0.4724 -0.3271 -0.2689
   14SAPS   H6X 1824   4.225   0.101   4.036  0.8624  1.4215  0.8901
   14SAPS   H6Y 1825   4.274   0.254   3.963 -0.3548 -0.6141  2.2541
   14SAPS   C37 1826   4.419   0.096   3.977  0.2467  0.8539  0.1363
   14SAPS   H7X 1827   4.487   0.151   3.909  0.7840  0.3753  0.2797
   14SAPS   H7Y 1828   4.437  -0.013   3.964 -0.0147  0.8909 -0.5788
   14SAPS   C38 1829   4.467   0.128   4.115  0.8184 -0.5373 -0.7080
   14SAPS   H8X 1830   4.405   0.055   4.171 -0.3541  1.1515  0.2840
   14SAPS   H8Y 1831   4.438   0.230   4.147 -1.8994 -1.0786 -1.2169
   14SAPS   C39 1832   4.611   0.104   4.140 -0.4112 -0.0923 -0.7976
   14SAPS   H9X 1833   4.670   0.169   4.072 -0.2399  2.0229  1.2825
   14SAPS   H9Y 1834   4.640   0.002   4.107 -0.1982 -0.7009  1.1953
   14SAPS  C310 1835   4.647   0.115   4.290 -0.0118  0.3645 -0.4674
   14SAPS  H10X 1836   4.640   0.220   4.326 -1.7717 -0.4367  1.7753
   14SAPS  H10Y 1837   4.752   0.080   4.302  0.2816  1.2185 -0.4838
   14SAPS  C311 1838   4.559   0.022   4.377 -0.3058 -0.1564  0.0503
   14SAPS  H11X 1839   4.564  -0.081   4.336  1.0341 -0.0864 -0.0218
   14SAPS  H11Y 1840   4.454   0.059   4.379 -0.2432  0.5893 -3.6749
   14SAPS  C312 1841   4.621   0.023   4.513  0.2146 -0.0894  0.1521
   14SAPS  H12X 1842   4.645   0.128   4.542 -0.3034  0.8666 -2.5977
   14SAPS  H12Y 1843   4.711  -0.040   4.500 -0.4786 -0.8422 -1.2550
   14SAPS  C313 1844   4.549  -0.042   4.634 -0.1402  0.1019  0.6171
   14SAPS  H13X 1845   4.533  -0.151   4.620  2.1732 -0.0916 -1.1512
   14SAPS  H13Y 1846   4.453   0.014   4.647 -0.7930 -0.8460  0.0367
   14SAPS  C314 1847   4.620  -0.017   4.769  0.5757 -0.2098  0.5992
   14SAPS  H14X 1848   4.607  -0.101   4.840 -0.7546  0.8239  1.6297
   14SAPS  H14Y 1849   4.576   0.075   4.813 -0.3326  0.5202 -1.6662
   14SAPS  C315 1850   4.777   0.009   4.773  0.3525 -0.0778  0.1878
   14SAPS  H15X 1851   4.801   0.083   4.693 -0.2897 -0.4360 -0.3504
   14SAPS  H15Y 1852   4.834  -0.080   4.740  2.9904  0.2408  3.4031
   14SAPS  C316 1853   4.828   0.035   4.915  0.0183 -0.3741  0.0530
   14SAPS  H16X 1854   4.775  -0.029   4.989  1.3033 -1.2675  0.2406
   14SAPS  H16Y 1855   4.797   0.141   4.929 -0.0673 -0.3104 -0.5867
   14SAPS  C317 1856   4.973   0.016   4.913 -0.0159  0.3363 -0.0265
   14SAPS  H17X 1857   5.005   0.074   4.823 -1.0698  1.4272  0.2840
   14SAPS  H17Y 1858   4.993  -0.092   4.895 -0.8915  0.2365 -0.4375
   14SAPS  C318 1859   5.048   0.041   5.040  0.2665 -0.4697 -0.1580
   14SAPS  H18X 1860   5.016  -0.026   5.124 -4.0029  0.3004 -0.9281
   14SAPS  H18Y 1861   5.042   0.147   5.073  4.1561  0.5875 -2.2881
   14SAPS  H18Z 1862   5.157   0.021   5.031  0.8177  1.2711  1.8033
   15SAPS     N 1863   3.563   0.753   2.539 -0.8340 -0.0786 -0.1509
   15SAPS   HN1 1864   3.615   0.675   2.583 -0.5082  0.3730  0.2692
   15SAPS   HN2 1865   3.609   0.779   2.449  2.0292 -1.9981  0.6284
   15SAPS   HN3 1866   3.574   0.825   2.612  0.0922 -1.1704  0.8229
   15SAPS   C12 1867   3.418   0.709   2.533 -0.1727  0.6485 -0.0182
   15SAPS  H12A 1868   3.373   0.745   2.625 -2.0516  1.5186 -1.2059
   15SAPS   C13 1869   3.339   0.768   2.413  0.2514 -0.2203  0.2076
   15SAPS  O13A 1870   3.405   0.828   2.328 -0.2297 -0.0495  0.0164
   15SAPS  O13B 1871   3.220   0.735   2.388 -0.0717 -0.1293 -0.1110
   15SAPS   C11 1872   3.409   0.555   2.534  0.3399  0.2810  0.0617
   15SAPS  H11A 1873   3.463   0.521   2.442 -1.0420  0.4306 -0.8357
   15SAPS  H11B 1874   3.304   0.521   2.522  0.9227 -1.5838 -0.0829
   15SAPS     P 1875   3.453   0.375   2.727  0.1277  0.3183  0.3035
   15SAPS   O13 1876   3.491   0.259   2.645 -0.1131 -0.0777 -0.3960
   15SAPS   O14 1877   3.513   0.388   2.860 -0.1088  0.3746  0.0482
   15SAPS   O12 1878   3.481   0.514   2.651  0.0299 -0.1498  0.2197
   15SAPS   O11 1879   3.298   0.377   2.744 -0.1512  0.0327  0.1248
   15SAPS    C1 1880   3.225   0.483   2.809  0.1830  0.2766  0.3143
   15SAPS    HA 1881   3.266   0.585   2.791 -0.6028  0.2137 -2.0452
   15SAPS    HB 1882   3.125   0.493   2.762  0.6263  1.1304 -0.4717
   15SAPS    C2 1883   3.220   0.459   2.960 -0.0595 -0.1134  0.2386
   15SAPS    HS 1884   3.324   0.437   2.993 -0.1751 -1.6694 -0.3636
   15SAPS   O21 1885   3.125   0.352   2.993  0.2705  0.6341  0.0884
   15SAPS   C21 1886   3.158   0.272   3.087 -0.2887  0.4743  0.3815
   15SAPS   O22 1887   3.268   0.265   3.141 -0.2106 -0.5602  0.1080
   15SAPS   C22 1888   3.036   0.197   3.129  0.6897  0.3938 -0.6269
   15SAPS   H2R 1889   2.957   0.272   3.145  0.8046  0.0904  1.6866
   15SAPS   H2S 1890   3.003   0.126   3.050  0.3171  0.4203 -0.4930
   15SAPS    C3 1891   3.184   0.590   3.044 -0.1356  0.0001 -0.2514
   15SAPS    HX 1892   3.076   0.611   3.032 -0.6075 -2.1349 -0.0240
   15SAPS    HY 1893   3.239   0.676   2.999 -1.2323  0.7482 -0.1970
   15SAPS   O31 1894   3.206   0.569   3.179  0.8788  0.4945  0.4479
   15SAPS   C31 1895   3.318   0.596   3.230 -0.6144 -0.9956 -0.4838
   15SAPS   O32 1896   3.412   0.653   3.171  0.0610  0.7849 -0.1089
   15SAPS   C32 1897   3.342   0.553   3.380  0.3112  0.0871 -0.3225
   15SAPS   H2X 1898   3.246   0.569   3.434  1.7722  2.7439  1.6967
   15SAPS   H2Y 1899   3.408   0.629   3.427 -2.6769  3.1879 -0.7245
   15SAPS   C23 1900   3.052   0.125   3.267 -0.7788  0.2886 -0.3291
   15SAPS   H3R 1901   3.104   0.189   3.341 -2.0642  1.0769 -0.0714
   15SAPS   H3S 1902   3.117   0.035   3.256 -1.2701  0.0412 -1.3395
   15SAPS   C24 1903   2.912   0.078   3.324  0.0186  0.9979 -0.4320
   15SAPS   H4R 1904   2.944   0.009   3.405  0.9044 -0.3088 -1.8500
   15SAPS   H4S 1905   2.861   0.018   3.246 -0.7982 -0.7336  1.3263
   15SAPS   C25 1906   2.811   0.188   3.372 -0.0477  0.5373 -0.5437
   15SAPS   H5R 1907   2.764   0.230   3.282 -1.1436 -4.2879 -2.5384
   15SAPS   C26 1908   2.776   0.209   3.498  0.6902  0.6110  0.3093
   15SAPS   H6R 1909   2.708   0.290   3.529 -1.0228 -0.5146 -0.4111
   15SAPS   C27 1910   2.836   0.146   3.620 -0.3541  0.4903  0.0530
   15SAPS   H7R 1911   2.822   0.036   3.618  0.7638  0.3460 -1.0486
   15SAPS   H7S 1912   2.774   0.174   3.708 -2.2356 -2.2532 -0.2974
   15SAPS   C28 1913   2.987   0.164   3.630 -0.1168 -0.3320 -0.1178
   15SAPS   H8R 1914   3.052   0.109   3.560  1.3673  2.1981 -0.8603
   15SAPS   C29 1915   3.055   0.226   3.725 -0.6208  0.5821 -0.6969
   15SAPS   H9R 1916   3.165   0.219   3.725 -0.6481  0.0802 -0.5619
   15SAPS  C210 1917   2.995   0.288   3.853 -0.1903  0.4168 -0.2450
   15SAPS  H10R 1918   2.918   0.362   3.822 -0.6115  0.2145  0.2971
   15SAPS  H10S 1919   3.083   0.338   3.899 -0.7480 -0.5759  2.0205
   15SAPS  C211 1920   2.936   0.185   3.947 -0.1523 -0.2624 -0.7712
   15SAPS  H11R 1921   2.838   0.149   3.914 -0.3659  1.1832 -1.8323
   15SAPS  C212 1922   2.998   0.139   4.068 -0.5113  0.2848  0.3307
   15SAPS  H12R 1923   2.941   0.080   4.141  2.0428 -2.3503  0.3559
   15SAPS  C213 1924   3.126   0.182   4.129  0.0118 -0.1226 -0.1043
   15SAPS  H13R 1925   3.208   0.215   4.062 -0.0139  1.4670  0.6281
   15SAPS  H13S 1926   3.161   0.104   4.200 -1.8657 -0.3433  0.6460
   15SAPS  C214 1927   3.095   0.305   4.210  0.3222 -0.3741 -0.0988
   15SAPS  H14R 1928   3.051   0.392   4.160  0.6004  0.2169  0.6792
   15SAPS  C215 1929   3.132   0.325   4.340 -0.4684 -0.8563  0.9652
   15SAPS  H15R 1930   3.105   0.421   4.385 -0.6758  0.3476 -1.5809
   15SAPS  C216 1931   3.197   0.227   4.431  0.1744 -0.0907 -0.0451
   15SAPS  H16R 1932   3.307   0.220   4.419  0.3011 -1.9406  1.6005
   15SAPS  H16S 1933   3.157   0.126   4.407  2.5236 -0.6198 -2.1384
   15SAPS  C217 1934   3.161   0.257   4.572  0.2860 -0.0292  0.0972
   15SAPS  H17R 1935   3.176   0.166   4.634  1.0241  1.9889  3.1136
   15SAPS  H17S 1936   3.053   0.278   4.588  0.5291 -0.4610  2.7612
   15SAPS  C218 1937   3.242   0.364   4.631  0.5700 -0.6229  0.1465
   15SAPS  H18R 1938   3.351   0.366   4.609  0.6663 -2.2179  0.3457
   15SAPS  H18S 1939   3.243   0.348   4.741 -2.1455  1.2284  0.5533
   15SAPS  C219 1940   3.188   0.509   4.612  0.2225 -0.6276  0.8777
   15SAPS  H19R 1941   3.078   0.512   4.595  0.5183  1.2128 -1.0756
   15SAPS  H19S 1942   3.233   0.545   4.517 -2.2764 -2.0241 -0.9840
   15SAPS  C220 1943   3.223   0.616   4.727  0.4094  0.1892  0.9733
   15SAPS  H20R 1944   3.165   0.584   4.816 -0.5441  0.5935  0.5029
   15SAPS  H20S 1945   3.189   0.717   4.698 -1.3899 -1.0222 -1.4797
   15SAPS  H20T 1946   3.334   0.621   4.740  0.5347 -0.5308  0.3024
   15SAPS   C33 1947   3.407   0.417   3.409 -0.2899  0.1934  0.7723
   15SAPS   H3X 1948   3.516   0.416   3.386 -0.4963  0.2991 -0.2643
   15SAPS   H3Y 1949   3.362   0.324   3.368 -0.8267 -0.0050  1.7793
   15SAPS   C34 1950   3.408   0.395   3.565  0.2709  0.0345 -0.7823
   15SAPS   H4X 1951   3.309   0.418   3.610  1.8819 -0.5359  3.5248
   15SAPS   H4Y 1952   3.489   0.462   3.599  3.2369 -2.8571 -1.6538
   15SAPS   C35 1953   3.460   0.261   3.623 -0.2251  0.0732 -0.5036
   15SAPS   H5X 1954   3.444   0.267   3.733  0.8224  1.6986 -0.4092
   15SAPS   H5Y 1955   3.568   0.244   3.606 -0.6353 -0.7782 -2.4535
   15SAPS   C36 1956   3.392   0.138   3.564  0.7006 -0.5159 -0.5180
   15SAPS   H6X 1957   3.420   0.128   3.457  4.2687 -0.7856  0.3158
   15SAPS   H6Y 1958   3.281   0.141   3.567  0.6506 -0.7747 -1.5964
   15SAPS   C37 1959   3.423   0.006   3.649  0.5495 -0.8035  0.3416
   15SAPS   H7X 1960   3.534  -0.002   3.644  0.5666 -0.4488  0.1181
   15SAPS   H7Y 1961   3.384  -0.077   3.586 -0.8582 -0.5162  0.8048
   15SAPS   C38 1962   3.383  -0.009   3.793 -0.0454  0.1052 -0.2146
   15SAPS   H8X 1963   3.274  -0.025   3.806  0.0679  0.8617  1.9691
   15SAPS   H8Y 1964   3.397   0.088   3.846 -3.7010 -0.2962  1.7476
   15SAPS   C39 1965   3.472  -0.108   3.866 -0.2254  0.3069  0.9599
   15SAPS   H9X 1966   3.579  -0.084   3.855  0.2015 -1.1583  1.6070
   15SAPS   H9Y 1967   3.452  -0.206   3.817 -2.5622 -0.4362  3.1506
   15SAPS  C310 1968   3.453  -0.105   4.020  0.4808  0.1016 -0.2580
   15SAPS  H10X 1969   3.343  -0.110   4.034  0.3874  2.6682  0.4805
   15SAPS  H10Y 1970   3.481  -0.011   4.072  1.9324 -1.3675  1.7983
   15SAPS  C311 1971   3.519  -0.221   4.090  0.1021 -0.7675 -0.1310
   15SAPS  H11X 1972   3.622  -0.226   4.049 -0.1241 -1.3402 -0.6547
   15SAPS  H11Y 1973   3.475  -0.323   4.079 -0.1434 -0.5966 -0.8093
   15SAPS  C312 1974   3.522  -0.197   4.249  1.2394  0.2239  0.2439
   15SAPS  H12X 1975   3.422  -0.167   4.288 -0.2279 -2.4275 -1.2212
   15SAPS  H12Y 1976   3.598  -0.116   4.264  1.0944  0.2326  0.9390
   15SAPS  C313 1977   3.564  -0.333   4.316 -0.1718  0.1432 -0.0979
   15SAPS  H13X 1978   3.667  -0.350   4.277 -0.5074  0.1120 -0.9760
   15SAPS  H13Y 1979   3.489  -0.403   4.275 -1.9489  1.7689  0.2150
   15SAPS  C314 1980   3.552  -0.315   4.469 -0.1483 -0.4929  0.2909
   15SAPS  H14X 1981   3.443  -0.311   4.493 -0.0664  0.2002  0.5491
   15SAPS  H14Y 1982   3.598  -0.221   4.503 -0.5491 -0.0363 -0.4034
   15SAPS  C315 1983   3.613  -0.420   4.551 -0.3138 -0.0244 -0.2659
   15SAPS  H15X 1984   3.718  -0.427   4.516 -0.9752 -0.0348 -2.4143
   15SAPS  H15Y 1985   3.560  -0.516   4.534 -1.6791  0.8851 -1.3538
   15SAPS  C316 1986   3.589  -0.402   4.698 -0.0577  0.0865  0.2983
   15SAPS  H16X 1987   3.482  -0.428   4.719 -0.1756  0.2360 -0.1105
   15SAPS  H16Y 1988   3.606  -0.297   4.728 -1.7418  0.9365 -1.4961
   15SAPS  C317 1989   3.676  -0.495   4.785  0.0864  0.6757  0.2322
   15SAPS  H17X 1990   3.781  -0.461   4.776  0.1077  0.3512 -0.9141
   15SAPS  H17Y 1991   3.669  -0.600   4.748 -1.7871  0.5720  0.7691
   15SAPS  C318 1992   3.627  -0.508   4.928 -0.4247  0.6330  0.5484
   15SAPS  H18X 1993   3.534  -0.564   4.948 -0.2526 -0.4530 -1.4594
   15SAPS  H18Y 1994   3.623  -0.404   4.967 -0.8887  1.0832 -0.6298
   15SAPS  H18Z 1995   3.700  -0.566   4.988 -3.0905 -2.3926  1.1111
   16SAPS     N 1996   3.697   2.297   2.849  0.3691 -0.4019  1.0150
   16SAPS   HN1 1997   3.652   2.354   2.924 -1.2717  1.8150 -1.4581
   16SAPS   HN2 1998   3.645   2.323   2.762 -0.6934  1.3011  2.1134
   16SAPS   HN3 1999   3.691   2.195   2.871 -1.0443 -0.4468  0.5593
   16SAPS   C12 2000   3.836   2.353   2.831 -0.0579 -0.6856  0.1171
   16SAPS  H12A 2001   3.889   2.311   2.916 -1.2932 -1.0193  0.7493
   16SAPS   C13 2002   3.918   2.302   2.702  0.3102  0.7952  0.3103
   16SAPS  O13A 2003   3.855   2.224   2.626  0.5984 -0.0920 -0.0531
   16SAPS  O13B 2004   4.027   2.350   2.672 -0.1957 -0.0526 -0.2297
   16SAPS   C11 2005   3.838   2.507   2.859 -0.3839 -0.8274  0.6570
   16SAPS  H11A 2006   3.940   2.545   2.839 -1.1601  2.0767  1.6429
   16SAPS  H11B 2007   3.812   2.521   2.966  0.7723 -0.9930  0.9718
   16SAPS     P 2008   3.742   2.727   2.751  0.0221 -0.1150  0.0983
   16SAPS   O13 2009   3.805   2.763   2.620  0.3739 -0.5785 -0.1569
   16SAPS   O14 2010   3.602   2.770   2.783  0.5724  0.1835 -0.1037
   16SAPS   O12 2011   3.747   2.565   2.770  0.4651  0.1480  0.3562
   16SAPS   O11 2012   3.842   2.774   2.864  0.5079  0.3441  0.4824
   16SAPS    C1 2013   3.812   2.899   2.933 -0.0515 -0.0357  0.3855
   16SAPS    HA 2014   3.906   2.935   2.979  1.0559 -2.5516  0.2484
   16SAPS    HB 2015   3.774   2.978   2.865 -0.2974 -0.0724  0.4802
   16SAPS    C2 2016   3.713   2.896   3.057  0.3892  0.4273 -0.3676
   16SAPS    HS 2017   3.619   2.841   3.032  1.6169 -1.7540 -0.4196
   16SAPS   O21 2018   3.680   3.033   3.094  0.5468 -0.1519  0.3800
   16SAPS   C21 2019   3.601   3.100   3.009  0.4583 -0.1256  0.0173
   16SAPS   O22 2020   3.535   3.058   2.917 -0.5073 -0.2948  0.0447
   16SAPS   C22 2021   3.585   3.241   3.074 -0.0680 -0.6620  0.4707
   16SAPS   H2R 2022   3.674   3.300   3.044 -0.1280 -0.8522 -0.0843
   16SAPS   H2S 2023   3.495   3.295   3.037 -0.8213 -1.8810  0.4760
   16SAPS    C3 2024   3.780   2.812   3.166 -0.4049  0.5068 -0.2330
   16SAPS    HX 2025   3.878   2.862   3.181 -0.2146 -0.2866  1.4313
   16SAPS    HY 2026   3.807   2.715   3.118 -1.4749  0.7545 -1.3934
   16SAPS   O31 2027   3.712   2.797   3.291  0.1070 -0.2964  0.5521
   16SAPS   C31 2028   3.603   2.724   3.300 -0.1836 -0.5827  0.3221
   16SAPS   O32 2029   3.556   2.667   3.204  0.2977  0.0977  0.0428
   16SAPS   C32 2030   3.539   2.734   3.444  0.5141 -0.4067  0.0712
   16SAPS   H2X 2031   3.581   2.828   3.486 -1.2797  1.2423 -1.5965
   16SAPS   H2Y 2032   3.565   2.639   3.494  1.7747 -0.1087  0.0127
   16SAPS   C23 2033   3.563   3.234   3.229  1.0699  0.4649 -0.2665
   16SAPS   H3R 2034   3.616   3.149   3.277  2.5661  1.7660  0.4390
   16SAPS   H3S 2035   3.454   3.218   3.248  0.7045  2.4305 -0.4645
   16SAPS   C24 2036   3.609   3.357   3.313 -0.3369  0.2370  0.0626
   16SAPS   H4R 2037   3.720   3.354   3.300 -0.5617 -0.1695 -2.2458
   16SAPS   H4S 2038   3.578   3.336   3.417 -2.3118 -0.2649 -0.5838
   16SAPS   C25 2039   3.544   3.487   3.264  0.3525 -0.6386 -0.2795
   16SAPS   H5R 2040   3.564   3.514   3.160 -1.1226  0.3662 -0.3341
   16SAPS   C26 2041   3.478   3.575   3.346 -0.2722 -0.5835 -0.3415
   16SAPS   H6R 2042   3.433   3.663   3.298  0.8816  0.6102  0.6974
   16SAPS   C27 2043   3.456   3.582   3.490 -0.3691 -0.4349  0.0445
   16SAPS   H7R 2044   3.443   3.686   3.525  1.1252 -0.7037  1.5098
   16SAPS   H7S 2045   3.543   3.546   3.548 -0.1803  0.9821  0.6529
   16SAPS   C28 2046   3.343   3.489   3.532  0.3801 -0.3872 -0.1951
   16SAPS   H8R 2047   3.351   3.385   3.497  1.6481  0.0987 -1.4342
   16SAPS   C29 2048   3.238   3.518   3.613 -0.7168  0.3313 -0.6861
   16SAPS   H9R 2049   3.169   3.438   3.644  1.5314 -1.3891  0.1653
   16SAPS  C210 2050   3.195   3.655   3.654  0.1105 -0.7912  0.5431
   16SAPS  H10R 2051   3.141   3.690   3.563  2.6593 -0.0778 -0.7752
   16SAPS  H10S 2052   3.281   3.723   3.670  0.3794 -1.1815  0.7656
   16SAPS  C211 2053   3.106   3.669   3.773 -0.4446  0.0451 -0.8279
   16SAPS  H11R 2054   3.145   3.727   3.858 -0.9043  0.2706 -0.7684
   16SAPS  C212 2055   2.976   3.651   3.783  0.0644 -0.0099  0.2627
   16SAPS  H12R 2056   2.936   3.667   3.884 -0.5892  2.6014 -0.3520
   16SAPS  C213 2057   2.887   3.583   3.678  0.3135  0.7451  0.0357
   16SAPS  H13R 2058   2.809   3.512   3.712  0.4817 -0.8211 -2.6151
   16SAPS  H13S 2059   2.941   3.528   3.599 -2.8805 -2.1792 -0.3696
   16SAPS  C214 2060   2.826   3.706   3.620  0.0565 -0.4087 -0.1444
   16SAPS  H14R 2061   2.892   3.780   3.573 -1.9797  2.0738  0.6505
   16SAPS  C215 2062   2.692   3.743   3.615 -0.9973  0.1846 -0.5255
   16SAPS  H15R 2063   2.664   3.845   3.582  1.8894  1.4263  0.5985
   16SAPS  C216 2064   2.577   3.666   3.669 -0.1780 -0.0899 -0.1037
   16SAPS  H16R 2065   2.597   3.557   3.676 -0.3065 -0.2577 -1.8023
   16SAPS  H16S 2066   2.496   3.662   3.593  0.6577  1.1883 -1.1179
   16SAPS  C217 2067   2.522   3.719   3.800 -0.4106  0.3228 -0.1717
   16SAPS  H17R 2068   2.416   3.685   3.800 -0.6680  1.0695  0.9182
   16SAPS  H17S 2069   2.530   3.829   3.806 -0.7712  0.2611  2.2872
   16SAPS  C218 2070   2.604   3.653   3.913 -0.2142 -0.6912 -0.1362
   16SAPS  H18R 2071   2.707   3.690   3.896 -0.9428  0.4972 -2.4225
   16SAPS  H18S 2072   2.596   3.542   3.911  0.2251 -0.7279  0.0943
   16SAPS  C219 2073   2.559   3.703   4.050 -0.5650 -1.0640 -0.0956
   16SAPS  H19R 2074   2.540   3.811   4.035 -0.4998 -1.0148  0.1786
   16SAPS  H19S 2075   2.644   3.707   4.122 -0.1887 -1.0128 -0.5301
   16SAPS  C220 2076   2.442   3.630   4.108 -0.2027 -0.3054 -0.1641
   16SAPS  H20R 2077   2.447   3.519   4.109  0.2558 -0.2904  1.1398
   16SAPS  H20S 2078   2.346   3.651   4.057 -1.2774 -2.7364  0.6812
   16SAPS  H20T 2079   2.431   3.664   4.213  3.4176  2.6326 -0.5433
   16SAPS   C33 2080   3.388   2.766   3.429 -0.8085  0.6831  0.1978
   16SAPS   H3X 2081   3.356   2.692   3.353  2.6957 -1.8808  0.9641
   16SAPS   H3Y 2082   3.379   2.869   3.386 -2.1845  0.5953  0.2556
   16SAPS   C34 2083   3.309   2.758   3.559 -0.2812 -0.3125  0.4480
   16SAPS   H4X 2084   3.319   2.659   3.608  2.5870 -1.5632 -2.2525
   16SAPS   H4Y 2085   3.204   2.782   3.534  0.5001  2.3550 -0.6174
   16SAPS   C35 2086   3.364   2.867   3.650 -0.0295  0.1832  0.1053
   16SAPS   H5X 2087   3.380   2.961   3.594 -0.5014 -0.6670 -1.5180
   16SAPS   H5Y 2088   3.460   2.828   3.691 -0.5910 -2.2035 -0.7245
   16SAPS   C36 2089   3.266   2.894   3.766  0.6736 -0.6685  0.7058
   16SAPS   H6X 2090   3.164   2.903   3.725  1.0913  0.5025 -0.1124
   16SAPS   H6Y 2091   3.283   2.994   3.810 -2.9573  1.6651 -2.6161
   16SAPS   C37 2092   3.261   2.789   3.872  0.1674 -0.3396 -0.5669
   16SAPS   H7X 2093   3.256   2.685   3.832 -0.7497 -1.1691  1.5678
   16SAPS   H7Y 2094   3.162   2.800   3.921  0.2287 -1.8797 -0.0406
   16SAPS   C38 2095   3.358   2.796   3.988 -0.5192 -1.3897 -0.0390
   16SAPS   H8X 2096   3.460   2.773   3.950 -0.2224  0.9075 -0.7918
   16SAPS   H8Y 2097   3.326   2.714   4.056  0.5439 -0.1995  1.9908
   16SAPS   C39 2098   3.348   2.931   4.065 -0.1450  0.1109 -0.3040
   16SAPS   H9X 2099   3.241   2.922   4.092 -0.3905 -1.7332 -1.6978
   16SAPS   H9Y 2100   3.360   3.021   4.001 -1.4700  1.1006  0.7656
   16SAPS  C310 2101   3.434   2.955   4.185 -0.0081  0.1033 -0.6316
   16SAPS  H10X 2102   3.536   2.982   4.152 -0.7969  2.7571 -1.2181
   16SAPS  H10Y 2103   3.438   2.853   4.227 -2.6387  1.1745  2.7656
   16SAPS  C311 2104   3.368   3.049   4.293 -0.4878 -0.2432 -0.5737
   16SAPS  H11X 2105   3.264   3.015   4.312 -0.1534 -0.8300  0.2322
   16SAPS  H11Y 2106   3.363   3.158   4.269 -0.5018 -0.1485 -0.1469
   16SAPS  C312 2107   3.444   3.031   4.421  0.1415 -0.2002  0.2987
   16SAPS  H12X 2108   3.447   2.922   4.442  1.6576 -0.6740 -2.0646
   16SAPS  H12Y 2109   3.389   3.086   4.500  0.7550  0.7709  0.0716
   16SAPS  C313 2110   3.591   3.084   4.417  0.6042 -0.7089 -0.5119
   16SAPS  H13X 2111   3.588   3.170   4.346 -1.4170 -0.8093 -0.6192
   16SAPS  H13Y 2112   3.658   3.005   4.379  0.5691 -1.1105  0.2481
   16SAPS  C314 2113   3.639   3.126   4.553 -0.1279  0.0521 -0.0686
   16SAPS  H14X 2114   3.563   3.179   4.615  1.7310  3.5315 -0.5377
   16SAPS  H14Y 2115   3.722   3.200   4.556 -1.2643  1.4865 -1.6002
   16SAPS  C315 2116   3.670   3.002   4.639  0.4021  0.4074  0.1336
   16SAPS  H15X 2117   3.737   2.932   4.583 -1.4243 -1.2128 -0.1556
   16SAPS  H15Y 2118   3.575   2.956   4.673  1.3220 -2.5856 -1.0023
   16SAPS  C316 2119   3.741   3.028   4.770 -0.1146 -0.2404  0.0449
   16SAPS  H16X 2120   3.696   3.114   4.825 -3.1605 -2.3429  1.1215
   16SAPS  H16Y 2121   3.840   3.076   4.754 -0.4368  0.6443  0.6444
   16SAPS  C317 2122   3.753   2.901   4.854  0.1173  0.8536 -0.1811
   16SAPS  H17X 2123   3.843   2.848   4.816 -0.0664  0.1581  0.3301
   16SAPS  H17Y 2124   3.667   2.832   4.840  0.4398  0.1290  1.3021
   16SAPS  C318 2125   3.770   2.935   5.005 -0.0598 -0.5848 -0.1997
   16SAPS  H18X 2126   3.784   2.840   5.059  0.3017 -0.6655 -0.4307
   16SAPS  H18Y 2127   3.675   2.983   5.037  0.3509 -1.1484  2.0178
   16SAPS  H18Z 2128   3.865   2.993   5.012  0.5552 -1.4488 -1.0348
   17SAPS     N 2129   1.350   2.910   2.639 -0.0611 -0.0589 -0.0117
   17SAPS   HN1 2130   1.264   2.889   2.692  0.9609 -0.4801  1.5563
   17SAPS   HN2 2131   1.414   2.977   2.685 -0.1340  0.6778 -0.9473
   17SAPS   HN3 2132   1.328   2.957   2.549 -0.2520  0.6294  0.3878
   17SAPS   C12 2133   1.430   2.780   2.621 -0.0829  0.5348 -1.0124
   17SAPS  H12A 2134   1.384   2.717   2.545  0.8103 -0.3686 -0.8302
   17SAPS   C13 2135   1.578   2.790   2.594 -0.1949  0.7039 -0.0561
   17SAPS  O13A 2136   1.624   2.898   2.557 -0.0666  0.0769  0.2648
   17SAPS  O13B 2137   1.642   2.685   2.577 -0.0812 -0.0277  0.0545
   17SAPS   C11 2138   1.411   2.710   2.763 -0.1114  0.4201  0.1596
   17SAPS  H11A 2139   1.447   2.605   2.755 -0.4607  0.3980 -1.8259
   17SAPS  H11B 2140   1.304   2.703   2.793  0.1052 -0.9007  0.7112
   17SAPS     P 2141   1.585   2.732   2.955  0.7080 -0.2562  0.1754
   17SAPS   O13 2142   1.599   2.583   2.960 -0.2626 -0.8315 -0.0231
   17SAPS   O14 2143   1.718   2.795   2.945 -0.1623 -0.0055 -0.1373
   17SAPS   O12 2144   1.470   2.784   2.863  0.0772 -0.2000 -0.0837
   17SAPS   O11 2145   1.533   2.769   3.099  0.4481 -0.2505  0.5029
   17SAPS    C1 2146   1.401   2.816   3.121  0.0254  0.3997 -0.4584
   17SAPS    HA 2147   1.327   2.774   3.049 -0.4422 -2.3032  1.4588
   17SAPS    HB 2148   1.363   2.773   3.216 -1.0237 -0.3480 -1.1912
   17SAPS    C2 2149   1.402   2.977   3.129  0.0210  0.6693  0.0794
   17SAPS    HS 2150   1.431   3.011   3.027 -1.4950 -2.8632 -1.6799
   17SAPS   O21 2151   1.495   3.017   3.235  0.1375  0.4846 -0.2683
   17SAPS   C21 2152   1.534   3.139   3.230 -0.9652  0.0279 -0.2325
   17SAPS   O22 2153   1.506   3.218   3.143 -0.0263  0.5064 -0.7850
   17SAPS   C22 2154   1.643   3.173   3.337 -0.1612 -0.4815  0.0662
   17SAPS   H2R 2155   1.694   3.085   3.382  0.6388 -0.0886 -0.0413
   17SAPS   H2S 2156   1.726   3.211   3.273  1.4223  1.7888  3.1709
   17SAPS    C3 2157   1.263   3.031   3.155 -0.4362  0.1304 -0.7630
   17SAPS    HX 2158   1.195   3.010   3.070  1.5319 -1.1030 -2.1264
   17SAPS    HY 2159   1.252   3.138   3.180 -2.8862 -0.3931  0.6679
   17SAPS   O31 2160   1.219   2.958   3.266  0.0278  0.1157 -0.5662
   17SAPS   C31 2161   1.085   2.970   3.280  0.2413 -0.8987 -0.1064
   17SAPS   O32 2162   1.023   3.058   3.227 -0.8188 -0.4008  0.1713
   17SAPS   C32 2163   1.024   2.859   3.365 -0.2443  0.6504  1.1957
   17SAPS   H2X 2164   1.108   2.794   3.397 -1.6115 -2.1015 -0.3720
   17SAPS   H2Y 2165   0.974   2.796   3.288 -0.0320 -0.4725  1.9529
   17SAPS   C23 2166   1.614   3.282   3.439  0.5509  0.4992  1.0903
   17SAPS   H3R 2167   1.567   3.367   3.383 -0.8205 -1.5167 -1.0208
   17SAPS   H3S 2168   1.709   3.314   3.487  1.9403 -3.5890  1.4704
   17SAPS   C24 2169   1.519   3.233   3.554 -0.5779 -0.8449 -0.0742
   17SAPS   H4R 2170   1.574   3.150   3.604 -2.7840 -1.0896  2.1458
   17SAPS   H4S 2171   1.428   3.189   3.509 -2.8562  1.6890  1.7840
   17SAPS   C25 2172   1.484   3.335   3.658  0.6706  0.4578  0.0408
   17SAPS   H5R 2173   1.474   3.437   3.618 -0.7438 -0.1663 -1.3232
   17SAPS   C26 2174   1.477   3.318   3.791 -0.0954 -0.1339  0.7456
   17SAPS   H6R 2175   1.442   3.407   3.845 -0.9177  0.4213 -0.6295
   17SAPS   C27 2176   1.492   3.188   3.870 -0.1492  0.3704  0.1925
   17SAPS   H7R 2177   1.600   3.165   3.886 -0.5742 -1.8535  0.1835
   17SAPS   H7S 2178   1.455   3.102   3.810  1.4671 -0.8962  0.9169
   17SAPS   C28 2179   1.420   3.199   4.005  0.2591 -0.0429  0.1700
   17SAPS   H8R 2180   1.311   3.202   4.001  0.3094  1.8629 -1.0440
   17SAPS   C29 2181   1.476   3.182   4.121 -0.6606 -0.2236 -0.4519
   17SAPS   H9R 2182   1.415   3.186   4.212  4.3559 -1.6037  3.4955
   17SAPS  C210 2183   1.621   3.134   4.150  0.1195  0.4161 -0.1640
   17SAPS  H10R 2184   1.688   3.220   4.169  0.2827  0.5154 -1.1429
   17SAPS  H10S 2185   1.661   3.079   4.062  0.7803  2.7477 -1.3965
   17SAPS  C211 2186   1.632   3.049   4.275 -0.7288  0.1771  0.2411
   17SAPS  H11R 2187   1.580   3.088   4.364 -0.9610  0.6954 -0.1190
   17SAPS  C212 2188   1.716   2.942   4.294 -0.6115  0.3752  0.7321
   17SAPS  H12R 2189   1.726   2.898   4.394  2.0110  0.1259  0.4288
   17SAPS  C213 2190   1.814   2.877   4.196  0.2424  0.1912 -0.3918
   17SAPS  H13R 2191   1.765   2.891   4.097  1.1006 -1.3124 -1.0596
   17SAPS  H13S 2192   1.807   2.767   4.207 -1.0202 -0.3189 -4.6747
   17SAPS  C214 2193   1.958   2.930   4.178 -0.4068 -0.1065  0.4581
   17SAPS  H14R 2194   1.983   2.941   4.071 -0.5064  0.3112  0.4737
   17SAPS  C215 2195   2.055   2.961   4.264 -0.6011  0.2657 -0.1255
   17SAPS  H15R 2196   2.149   2.992   4.216 -1.0227 -2.9747 -3.4935
   17SAPS  C216 2197   2.054   2.936   4.412  0.7984  0.1323 -0.0736
   17SAPS  H16R 2198   2.153   2.901   4.447  0.2513 -0.9148  0.4879
   17SAPS  H16S 2199   1.980   2.854   4.423  0.5165  0.0822 -2.0169
   17SAPS  C217 2200   2.022   3.053   4.507  0.4910  0.0815 -0.1485
   17SAPS  H17R 2201   1.932   3.111   4.476  0.6726  0.3476 -0.1828
   17SAPS  H17S 2202   2.108   3.122   4.498  1.7167 -1.4742 -0.7796
   17SAPS  C218 2203   2.013   3.018   4.655  0.1858 -0.1994  0.1564
   17SAPS  H18R 2204   2.050   3.107   4.710 -0.0441  0.8350 -1.3149
   17SAPS  H18S 2205   2.087   2.936   4.667  0.7017  0.1956 -0.3032
   17SAPS  C219 2206   1.882   2.979   4.718  0.0983  0.2028 -0.3483
   17SAPS  H19R 2207   1.830   2.908   4.650 -0.2916 -2.1656  2.2685
   17SAPS  H19S 2208   1.814   3.067   4.720 -1.8700 -1.2672  0.5816
   17SAPS  C220 2209   1.898   2.916   4.853 -0.4192 -0.4622  0.0766
   17SAPS  H20R 2210   1.930   2.988   4.931 -2.7784  1.2984 -0.4927
   17SAPS  H20S 2211   1.962   2.825   4.853 -0.8048 -0.7381  0.4371
   17SAPS  H20T 2212   1.799   2.884   4.892  0.2175  0.2945  2.4516
   17SAPS   C33 2213   0.933   2.898   3.487  0.2779  0.0195 -0.2132
   17SAPS   H3X 2214   0.833   2.921   3.442 -0.1490  0.5671  0.9692
   17SAPS   H3Y 2215   0.988   2.989   3.520  1.0766 -0.4672 -0.2051
   17SAPS   C34 2216   0.922   2.799   3.597  0.5008  0.1936 -0.3526
   17SAPS   H4X 2217   1.007   2.730   3.582  1.7271  1.6184 -0.1496
   17SAPS   H4Y 2218   0.826   2.743   3.587  0.5972 -0.0486  0.0515
   17SAPS   C35 2219   0.934   2.851   3.744 -0.6236  0.2037 -0.5892
   17SAPS   H5X 2220   0.841   2.910   3.759  0.9183  2.0401  3.1315
   17SAPS   H5Y 2221   1.018   2.923   3.749 -0.5013 -0.0203  0.7481
   17SAPS   C36 2222   0.927   2.751   3.865 -0.3059 -0.1819  0.6017
   17SAPS   H6X 2223   1.024   2.700   3.883 -0.9341 -0.8692  2.1974
   17SAPS   H6Y 2224   0.852   2.672   3.847  0.1573 -0.6885  0.8657
   17SAPS   C37 2225   0.886   2.830   3.994  0.4820 -0.1689  0.5456
   17SAPS   H7X 2226   0.789   2.881   3.977  0.0158 -1.5966 -1.5398
   17SAPS   H7Y 2227   0.960   2.910   4.017  0.2779 -0.1558  1.1756
   17SAPS   C38 2228   0.858   2.739   4.112  0.2864  0.5210  0.3902
   17SAPS   H8X 2229   0.927   2.652   4.105 -0.6902 -0.5147  2.5437
   17SAPS   H8Y 2230   0.758   2.692   4.103  1.0811 -1.3383  0.6944
   17SAPS   C39 2231   0.877   2.814   4.244 -0.0666 -0.0008  1.0599
   17SAPS   H9X 2232   0.812   2.903   4.250  0.8874  0.7041  1.0951
   17SAPS   H9Y 2233   0.980   2.854   4.247  0.1129 -0.3185 -0.0833
   17SAPS  C310 2234   0.851   2.722   4.358  0.0806  0.1944 -0.3663
   17SAPS  H10X 2235   0.867   2.792   4.443 -0.7984  0.4832 -0.4262
   17SAPS  H10Y 2236   0.924   2.640   4.370 -2.0626 -1.5849  1.1741
   17SAPS  C311 2237   0.707   2.676   4.376 -0.1366  0.3811 -0.1806
   17SAPS  H11X 2238   0.703   2.622   4.473 -3.4599  0.2090 -0.3000
   17SAPS  H11Y 2239   0.678   2.596   4.305  1.9524 -1.4505  0.9336
   17SAPS  C312 2240   0.605   2.792   4.378 -0.5136  0.4754  0.1890
   17SAPS  H12X 2241   0.508   2.737   4.387  1.4091 -3.3413 -0.2639
   17SAPS  H12Y 2242   0.604   2.837   4.277 -0.0001 -0.9379 -0.4673
   17SAPS  C313 2243   0.632   2.894   4.491  0.7726  0.3835 -0.0970
   17SAPS  H13X 2244   0.648   2.998   4.453  0.6378  1.3370  2.3003
   17SAPS  H13Y 2245   0.717   2.857   4.552  1.7497  0.0766 -1.5938
   17SAPS  C314 2246   0.515   2.909   4.595 -0.6658 -0.8609  0.0216
   17SAPS  H14X 2247   0.499   2.819   4.658  0.1471  0.1180  1.6874
   17SAPS  H14Y 2248   0.429   2.926   4.527  0.6953  1.3860 -1.2677
   17SAPS  C315 2249   0.532   3.017   4.700  0.0983  0.0622 -0.3649
   17SAPS  H15X 2250   0.539   3.117   4.653 -1.7393  0.0566 -0.7192
   17SAPS  H15Y 2251   0.631   2.991   4.744 -0.7376 -1.7980  0.5091
   17SAPS  C316 2252   0.425   3.021   4.809 -0.0292  0.9518  0.8418
   17SAPS  H16X 2253   0.451   3.061   4.909  1.2396 -0.1364  0.9592
   17SAPS  H16Y 2254   0.374   2.924   4.829 -0.2725  0.9685  0.3208
   17SAPS  C317 2255   0.316   3.128   4.764  0.1189 -0.2311  0.1314
   17SAPS  H17X 2256   0.286   3.108   4.659  0.2843  1.8075 -0.3454
   17SAPS  H17Y 2257   0.365   3.227   4.771 -1.9249  1.0335 -1.8379
   17SAPS  C318 2258   0.196   3.140   4.861 -0.2471  0.2242  0.5848
   17SAPS  H18X 2259   0.157   3.241   4.886 -0.2949  0.0776  1.1114
   17SAPS  H18Y 2260   0.237   3.095   4.954  2.1644 -1.7192 -1.2792
   17SAPS  H18Z 2261   0.108   3.078   4.833 -0.7193  1.3269 -0.4277
   18SAPS     N 2262   0.541   6.189   2.426 -0.1648 -0.5288 -0.9731
   18SAPS   HN1 2263   0.564   6.098   2.380 -1.1545 -0.7047 -1.1445
   18SAPS   HN2 2264   0.625   6.245   2.452 -1.9635  1.9893 -0.2505
   18SAPS   HN3 2265   0.494   6.164   2.515  1.4782  2.2650  0.8208
   18SAPS   C12 2266   0.444   6.255   2.338  0.1318  0.1526 -0.5281
   18SAPS  H12A 2267   0.489   6.330   2.275 -1.2309  0.1599 -1.5433
   18SAPS   C13 2268   0.381   6.167   2.232  1.1374  0.1559 -0.1284
   18SAPS  O13A 2269   0.411   6.047   2.208 -0.0893  0.3094 -0.2789
   18SAPS  O13B 2270   0.311   6.229   2.146  0.3690 -1.0712  0.1090
   18SAPS   C11 2271   0.336   6.323   2.431 -0.4255 -0.3907  0.0846
   18SAPS  H11A 2272   0.283   6.233   2.469  0.7945 -0.8516  0.7422
   18SAPS  H11B 2273   0.276   6.382   2.357  1.2443  1.4617  0.1406
   18SAPS     P 2274   0.364   6.564   2.533 -0.2749  0.0887  0.0097
   18SAPS   O13 2275   0.420   6.628   2.414 -0.0863  0.3425 -0.1243
   18SAPS   O14 2276   0.223   6.594   2.568 -0.2207 -0.2975  0.1779
   18SAPS   O12 2277   0.382   6.408   2.536  0.1417  0.0068 -0.6986
   18SAPS   O11 2278   0.457   6.616   2.649  0.4217 -0.0411  0.0302
   18SAPS    C1 2279   0.559   6.542   2.709 -0.2154  0.0509 -0.9949
   18SAPS    HA 2280   0.620   6.482   2.637 -1.1591 -1.6525 -0.4185
   18SAPS    HB 2281   0.621   6.623   2.754 -1.1697  0.3805 -0.2459
   18SAPS    C2 2282   0.514   6.449   2.831 -0.5463 -0.1104  0.0426
   18SAPS    HS 2283   0.458   6.361   2.793 -0.0516  0.1853 -1.4333
   18SAPS   O21 2284   0.425   6.529   2.924 -0.3274  0.3048  0.2620
   18SAPS   C21 2285   0.343   6.456   3.001  0.0209  0.1863  0.7154
   18SAPS   O22 2286   0.330   6.336   2.999  0.5846  0.2327 -0.0392
   18SAPS   C22 2287   0.282   6.543   3.104  0.0051 -0.3600  0.0252
   18SAPS   H2R 2288   0.272   6.652   3.083 -2.5275 -0.1628  1.7443
   18SAPS   H2S 2289   0.178   6.502   3.106 -0.0157 -0.5839 -2.6402
   18SAPS    C3 2290   0.636   6.397   2.916 -0.2496 -0.6045  0.1996
   18SAPS    HX 2291   0.698   6.486   2.938 -0.9520 -0.1580  0.4326
   18SAPS    HY 2292   0.692   6.327   2.851 -1.3382 -0.5270 -0.8695
   18SAPS   O31 2293   0.595   6.324   3.041  0.1152  0.8492 -0.2632
   18SAPS   C31 2294   0.571   6.199   3.019 -0.9682 -0.0670  0.0268
   18SAPS   O32 2295   0.573   6.139   2.914  0.4064  0.4298  0.0005
   18SAPS   C32 2296   0.548   6.125   3.155 -0.6718 -0.7181  0.2449
   18SAPS   H2X 2297   0.616   6.038   3.146 -0.2765 -0.4542  0.6080
   18SAPS   H2Y 2298   0.443   6.089   3.158 -0.7305 -0.5173  1.0626
   18SAPS   C23 2299   0.334   6.512   3.246 -0.3839 -0.1431  0.3491
   18SAPS   H3R 2300   0.442   6.536   3.254 -0.7293  1.9035 -0.6150
   18SAPS   H3S 2301   0.313   6.403   3.251 -1.5493 -0.0628 -1.7708
   18SAPS   C24 2302   0.257   6.579   3.357  0.4224 -0.6088  0.3645
   18SAPS   H4R 2303   0.291   6.545   3.457  0.0800  0.2961  0.8043
   18SAPS   H4S 2304   0.149   6.554   3.351 -1.0630  4.5205  1.0468
   18SAPS   C25 2305   0.271   6.728   3.347 -0.1092 -0.5796 -0.3436
   18SAPS   H5R 2306   0.327   6.762   3.258 -0.7571  1.6696  0.0447
   18SAPS   C26 2307   0.203   6.820   3.415  0.4848 -0.6545 -0.3244
   18SAPS   H6R 2308   0.223   6.927   3.405 -0.9327 -0.2022  1.3279
   18SAPS   C27 2309   0.112   6.786   3.533 -0.5466  0.1555  0.1888
   18SAPS   H7R 2310   0.081   6.679   3.527  2.3345 -0.8742  2.0257
   18SAPS   H7S 2311   0.022   6.851   3.538  0.4110  1.4107  3.8849
   18SAPS   C28 2312   0.174   6.800   3.666 -0.1262  0.5422  0.1306
   18SAPS   H8R 2313   0.222   6.897   3.683  0.5948  0.3754 -0.8965
   18SAPS   C29 2314   0.177   6.715   3.767 -1.0275  0.0432 -0.9420
   18SAPS   H9R 2315   0.217   6.742   3.866 -0.2323 -2.5313 -0.4792
   18SAPS  C210 2316   0.106   6.580   3.784 -0.2469  0.0074  0.0311
   18SAPS  H10R 2317   0.056   6.552   3.689 -1.0491 -1.4151  0.8392
   18SAPS  H10S 2318   0.021   6.599   3.852 -1.0578  0.2241 -1.0101
   18SAPS  C211 2319   0.192   6.462   3.828 -0.2562 -0.1454 -0.6619
   18SAPS  H11R 2320   0.256   6.411   3.755 -1.5321 -1.1288 -1.1161
   18SAPS  C212 2321   0.218   6.428   3.955 -0.3219 -0.2691  0.2218
   18SAPS  H12R 2322   0.288   6.345   3.971 -0.0886 -0.7150 -2.5686
   18SAPS  C213 2323   0.149   6.481   4.079 -0.2138 -0.0356  0.2435
   18SAPS  H13R 2324   0.045   6.514   4.057 -0.1008  0.4642  0.4319
   18SAPS  H13S 2325   0.204   6.571   4.115 -0.1158 -0.3445  0.8779
   18SAPS  C214 2326   0.143   6.384   4.198 -0.8166 -0.1483  0.0131
   18SAPS  H14R 2327   0.103   6.282   4.181 -1.0774 -0.4196  2.0728
   18SAPS  C215 2328   0.195   6.408   4.321  0.3002  0.3367 -0.2356
   18SAPS  H15R 2329   0.198   6.328   4.397  3.4066 -0.3867 -0.9727
   18SAPS  C216 2330   0.244   6.540   4.370  0.0564 -0.4167  0.5936
   18SAPS  H16R 2331   0.161   6.613   4.378 -0.4883 -0.9443 -0.0979
   18SAPS  H16S 2332   0.322   6.575   4.299 -0.3136 -3.0632 -1.2719
   18SAPS  C217 2333   0.331   6.535   4.496 -0.6823 -0.6872 -0.0677
   18SAPS  H17R 2334   0.365   6.640   4.507  0.3086 -0.8660 -1.2250
   18SAPS  H17S 2335   0.423   6.475   4.478  1.3106  2.3848 -0.8970
   18SAPS  C218 2336   0.263   6.493   4.624 -0.0557 -0.6266  0.0261
   18SAPS  H18R 2337   0.224   6.389   4.618  0.6577 -0.9158  0.2444
   18SAPS  H18S 2338   0.173   6.558   4.625  1.3323  1.4015 -0.7369
   18SAPS  C219 2339   0.344   6.517   4.759  0.4641  0.3003  0.8230
   18SAPS  H19R 2340   0.363   6.626   4.771 -0.1411  0.0640  5.7210
   18SAPS  H19S 2341   0.445   6.475   4.743 -0.8259 -2.9545  0.5242
   18SAPS  C220 2342   0.269   6.470   4.886 -0.0624  0.0616  0.4970
   18SAPS  H20R 2343   0.164   6.507   4.887 -0.0213  0.9019 -4.1458
   18SAPS  H20S 2344   0.312   6.503   4.983  1.3362 -0.7625  0.1788
   18SAPS  H20T 2345   0.268   6.359   4.898  0.6649 -0.0303 -0.2526
   18SAPS   C33 2346   0.567   6.216   3.277 -0.7695  0.0600  0.2706
   18SAPS   H3X 2347   0.485   6.290   3.288 -0.1444  0.5192  2.3154
   18SAPS   H3Y 2348   0.664   6.270   3.283 -0.9427  0.4103 -0.0415
   18SAPS   C34 2349   0.574   6.129   3.402  0.5367  0.5088  0.0987
   18SAPS   H4X 2350   0.663   6.063   3.408 -1.2385 -1.9257  1.5707
   18SAPS   H4Y 2351   0.481   6.072   3.424 -0.5036  2.3820  0.7510
   18SAPS   C35 2352   0.607   6.208   3.527 -1.1444 -0.8277  0.1388
   18SAPS   H5X 2353   0.554   6.306   3.518  2.6319  1.3418 -0.5961
   18SAPS   H5Y 2354   0.713   6.241   3.519 -1.6322  0.6876 -0.5702
   18SAPS   C36 2355   0.570   6.148   3.668  0.3396 -0.2748  0.3317
   18SAPS   H6X 2356   0.463   6.117   3.662 -0.5004  2.4125  0.4362
   18SAPS   H6Y 2357   0.580   6.216   3.755 -0.3197  2.4173 -1.5716
   18SAPS   C37 2358   0.657   6.019   3.700  0.1245  0.2690 -0.9720
   18SAPS   H7X 2359   0.764   6.046   3.693  0.1445  0.4247 -0.1224
   18SAPS   H7Y 2360   0.633   5.929   3.638 -1.3313  1.1408 -1.7354
   18SAPS   C38 2361   0.626   5.962   3.841 -0.5219 -0.3625 -0.4240
   18SAPS   H8X 2362   0.523   5.925   3.857  0.2144 -1.0915  4.2331
   18SAPS   H8Y 2363   0.634   6.053   3.905 -0.6020 -0.1459 -0.7183
   18SAPS   C39 2364   0.722   5.860   3.908 -0.9288  0.5999 -0.1835
   18SAPS   H9X 2365   0.823   5.906   3.901 -0.0056 -1.2683  0.3460
   18SAPS   H9Y 2366   0.719   5.758   3.864  0.2517  1.0007 -1.2824
   18SAPS  C310 2367   0.679   5.841   4.053  0.0536  0.1851 -0.4472
   18SAPS  H10X 2368   0.758   5.775   4.096 -0.4814  1.5970  3.0928
   18SAPS  H10Y 2369   0.576   5.798   4.046  0.2755 -0.2886 -0.8363
   18SAPS  C311 2370   0.670   5.968   4.134 -1.1264 -0.4207 -0.6005
   18SAPS  H11X 2371   0.567   6.006   4.122  0.0651  3.1872 -0.5140
   18SAPS  H11Y 2372   0.732   6.049   4.090  1.2217 -2.2996 -0.9962
   18SAPS  C312 2373   0.698   5.951   4.277  0.5104 -0.1080 -0.2147
   18SAPS  H12X 2374   0.793   5.898   4.301  1.4150  1.1021 -1.0257
   18SAPS  H12Y 2375   0.619   5.883   4.316 -0.3611  0.6620 -0.6071
   18SAPS  C313 2376   0.685   6.093   4.345 -0.0687  0.4893  0.2596
   18SAPS  H13X 2377   0.593   6.142   4.304  0.7913  0.0454 -2.3728
   18SAPS  H13Y 2378   0.757   6.164   4.300 -0.9901  0.0952 -1.9888
   18SAPS  C314 2379   0.690   6.092   4.500  0.0226 -0.0069  0.5853
   18SAPS  H14X 2380   0.792   6.099   4.542 -0.1014 -0.2070  0.9211
   18SAPS  H14Y 2381   0.636   6.004   4.540  0.1531 -1.0899 -1.4551
   18SAPS  C315 2382   0.620   6.215   4.563 -0.2850  0.0182  0.8147
   18SAPS  H15X 2383   0.526   6.235   4.507  2.0010  1.9576 -2.7274
   18SAPS  H15Y 2384   0.670   6.314   4.554 -1.8633  1.1495  3.4539
   18SAPS  C316 2385   0.584   6.189   4.709 -0.3559  0.0713 -0.3685
   18SAPS  H16X 2386   0.496   6.122   4.704  0.4004 -0.8808 -1.5904
   18SAPS  H16Y 2387   0.559   6.286   4.756 -0.3772 -0.2502  0.2950
   18SAPS  C317 2388   0.699   6.127   4.791  0.2949 -0.5192  1.2371
   18SAPS  H17X 2389   0.729   6.026   4.757 -0.4863  0.3861 -2.7193
   18SAPS  H17Y 2390   0.656   6.113   4.892 -0.2500  0.0832  1.0976
   18SAPS  C318 2391   0.827   6.220   4.809 -0.3738  0.2883  0.4003
   18SAPS  H18X 2392   0.884   6.150   4.874 -3.2002 -0.3007  2.4367
   18SAPS  H18Y 2393   0.806   6.318   4.858 -0.4790  1.0527 -1.1147
   18SAPS  H18Z 2394   0.869   6.230   4.707  1.5498 -0.5440  1.0700
   19SAPS     N 2395   4.713   5.001   2.607  0.4267  0.3288 -0.0446
   19SAPS   HN1 2396   4.693   4.944   2.692  2.7699  0.2539  0.5398
   19SAPS   HN2 2397   4.785   5.076   2.618 -1.0267  1.9494 -1.1307
   19SAPS   HN3 2398   4.628   5.055   2.583  0.6183  2.0873  2.7424
   19SAPS   C12 2399   4.751   4.911   2.499  0.0125 -0.2260  0.1261
   19SAPS  H12A 2400   4.682   4.828   2.491 -0.9050  0.5881 -0.5387
   19SAPS   C13 2401   4.742   4.978   2.367  0.0647 -0.1984  0.8600
   19SAPS  O13A 2402   4.733   5.102   2.346  0.1516 -0.5145  0.1828
   19SAPS  O13B 2403   4.742   4.901   2.262 -0.0851 -0.0252 -0.0800
   19SAPS   C11 2404   4.898   4.872   2.534 -0.1466 -0.4659 -0.1484
   19SAPS  H11A 2405   4.961   4.963   2.540 -1.7371  0.6018  2.3387
   19SAPS  H11B 2406   4.939   4.801   2.459  1.6746 -1.8850  2.0554
   19SAPS     P 2407   5.032   4.748   2.731  0.4011  0.2425  0.2054
   19SAPS   O13 2408   5.023   4.607   2.689 -0.1455  0.5021  0.6026
   19SAPS   O14 2409   5.154   4.832   2.702  0.0281  0.3668  0.2463
   19SAPS   O12 2410   4.902   4.813   2.672  0.2339 -0.2649 -0.1738
   19SAPS   O11 2411   5.008   4.744   2.886  0.3085  0.1497  0.5849
   19SAPS    C1 2412   4.952   4.855   2.972  0.5791  0.2369  0.2787
   19SAPS    HA 2413   5.033   4.924   3.004  0.4211  0.0898  1.0149
   19SAPS    HB 2414   4.882   4.921   2.915 -1.9088 -0.6958  2.0521
   19SAPS    C2 2415   4.864   4.814   3.097  0.3095 -0.4939  0.3481
   19SAPS    HS 2416   4.815   4.905   3.136  1.4833  0.5540 -0.5353
   19SAPS   O21 2417   4.954   4.749   3.188  0.4512 -0.7577 -0.3867
   19SAPS   C21 2418   5.022   4.834   3.258  0.2888 -0.1892  0.0631
   19SAPS   O22 2419   5.010   4.958   3.240 -0.1495 -0.2559 -0.7273
   19SAPS   C22 2420   5.114   4.761   3.355 -1.0848 -0.9756 -0.0292
   19SAPS   H2R 2421   5.213   4.760   3.304 -0.1167  1.3360  1.6377
   19SAPS   H2S 2422   5.119   4.821   3.448  1.9818  0.8846 -1.2309
   19SAPS    C3 2423   4.751   4.722   3.035  0.3793  0.4576  0.3799
   19SAPS    HX 2424   4.806   4.649   2.971 -1.3150  0.4185 -1.1047
   19SAPS    HY 2425   4.692   4.787   2.967 -1.6176 -2.7691 -1.2330
   19SAPS   O31 2426   4.661   4.662   3.132  0.6190  0.2151 -0.3630
   19SAPS   C31 2427   4.696   4.539   3.168 -0.0270 -0.1715  0.5364
   19SAPS   O32 2428   4.793   4.478   3.125  0.3724  0.0524 -0.2276
   19SAPS   C32 2429   4.609   4.488   3.285  0.2052 -0.4638 -0.0119
   19SAPS   H2X 2430   4.664   4.400   3.325  0.6194 -0.0591  0.3240
   19SAPS   H2Y 2431   4.508   4.458   3.250 -0.6076 -0.9185  2.5241
   19SAPS   C23 2432   5.071   4.612   3.387 -0.0497 -0.3550 -0.3060
   19SAPS   H3R 2433   5.089   4.546   3.300  3.3531 -1.5222  1.0967
   19SAPS   H3S 2434   4.968   4.608   3.427  0.3130 -1.6191  0.5839
   19SAPS   C24 2435   5.154   4.540   3.490 -1.0542  0.3359 -0.6998
   19SAPS   H4R 2436   5.256   4.539   3.445 -1.3814 -0.8611 -1.4393
   19SAPS   H4S 2437   5.115   4.437   3.495  0.6235 -0.3072  2.7053
   19SAPS   C25 2438   5.138   4.617   3.619 -0.6058 -0.2204 -0.1765
   19SAPS   H5R 2439   5.206   4.703   3.629  0.3144 -0.9865  0.3846
   19SAPS   C26 2440   5.054   4.600   3.726 -0.1317  0.5420 -0.5159
   19SAPS   H6R 2441   5.037   4.672   3.807 -1.1089  2.5482 -2.3869
   19SAPS   C27 2442   4.972   4.476   3.743  0.2858  0.0246  0.4368
   19SAPS   H7R 2443   5.025   4.392   3.692 -1.1097 -2.3219  2.6165
   19SAPS   H7S 2444   4.873   4.489   3.693  1.2101  0.5241 -1.3601
   19SAPS   C28 2445   4.966   4.436   3.884 -0.2079 -0.1742 -0.0741
   19SAPS   H8R 2446   5.059   4.451   3.941 -0.6781  0.7368  0.4737
   19SAPS   C29 2447   4.867   4.398   3.968  0.1779  0.3061 -0.3670
   19SAPS   H9R 2448   4.886   4.398   4.077 -0.1222  1.1323 -0.3012
   19SAPS  C210 2449   4.722   4.370   3.938 -0.6815 -0.2899 -0.7191
   19SAPS  H10R 2450   4.698   4.370   3.830 -1.1241 -0.7546 -0.6194
   19SAPS  H10S 2451   4.659   4.447   3.988 -0.0102  0.5525 -1.1281
   19SAPS  C211 2452   4.691   4.233   3.995 -0.7200  0.3460 -0.8021
   19SAPS  H11R 2453   4.714   4.146   3.932  1.5688 -0.4971  1.0497
   19SAPS  C212 2454   4.667   4.199   4.127 -0.7205  0.1860  0.4515
   19SAPS  H12R 2455   4.639   4.096   4.153  0.2098 -0.1804  0.0629
   19SAPS  C213 2456   4.662   4.297   4.238  0.7539  0.0555  0.4918
   19SAPS  H13R 2457   4.561   4.296   4.285 -0.5711 -0.0260 -2.1747
   19SAPS  H13S 2458   4.674   4.404   4.211  0.4270 -0.4326 -1.7300
   19SAPS  C214 2459   4.780   4.273   4.341 -0.3477 -0.6395  0.3149
   19SAPS  H14R 2460   4.866   4.336   4.316 -1.7460  1.5486  0.7046
   19SAPS  C215 2461   4.777   4.186   4.442 -0.1994 -0.3348 -0.0542
   19SAPS  H15R 2462   4.868   4.175   4.502  0.3396 -1.7167 -1.0769
   19SAPS  C216 2463   4.660   4.093   4.472 -0.7499  0.3155  0.3519
   19SAPS  H16R 2464   4.698   3.993   4.501 -0.2880  0.2387 -0.5054
   19SAPS  H16S 2465   4.592   4.085   4.385  1.1840 -0.0648 -1.1810
   19SAPS  C217 2466   4.575   4.146   4.593  0.0250  0.1390 -0.4085
   19SAPS  H17R 2467   4.541   4.251   4.583 -0.8145  0.0172  0.9663
   19SAPS  H17S 2468   4.644   4.137   4.680 -0.6880 -0.5875  0.0941
   19SAPS  C218 2469   4.467   4.047   4.632  0.4744 -0.0480 -0.3179
   19SAPS  H18R 2470   4.504   3.945   4.607 -0.0582 -0.0902 -0.9480
   19SAPS  H18S 2471   4.377   4.056   4.569  2.0708  0.0705 -2.7067
   19SAPS  C219 2472   4.416   4.055   4.776 -0.2947  0.7668  0.7511
   19SAPS  H19R 2473   4.505   4.044   4.842 -0.5209  0.7531  1.0537
   19SAPS  H19S 2474   4.352   3.966   4.791  1.1122 -0.2472  0.9503
   19SAPS  C220 2475   4.344   4.184   4.806  0.2431  0.7258  0.3342
   19SAPS  H20R 2476   4.396   4.268   4.754  1.5339  0.4979  1.1910
   19SAPS  H20S 2477   4.350   4.199   4.916  1.2035 -1.6748  0.6571
   19SAPS  H20T 2478   4.240   4.168   4.771  0.2677 -3.4140  1.6412
   19SAPS   C33 2479   4.606   4.590   3.403 -0.5273  0.5361  0.1472
   19SAPS   H3X 2480   4.571   4.690   3.368  0.4924  1.0246  0.4490
   19SAPS   H3Y 2481   4.710   4.610   3.439 -0.4976  1.7096 -0.5292
   19SAPS   C34 2482   4.520   4.537   3.520  0.3355 -0.4690 -0.4475
   19SAPS   H4X 2483   4.532   4.427   3.534 -1.3310 -0.4818  1.3907
   19SAPS   H4Y 2484   4.410   4.545   3.504 -0.0518 -0.5822  1.7349
   19SAPS   C35 2485   4.538   4.616   3.647 -1.1599 -0.3354 -0.1445
   19SAPS   H5X 2486   4.490   4.714   3.629  1.0311  0.3396 -3.0800
   19SAPS   H5Y 2487   4.643   4.637   3.679 -0.6485  0.1709 -2.0250
   19SAPS   C36 2488   4.451   4.553   3.760  0.2168 -0.0907  0.4659
   19SAPS   H6X 2489   4.475   4.452   3.801 -1.9494 -0.7588  0.2191
   19SAPS   H6Y 2490   4.354   4.546   3.708  0.7909 -0.3062 -0.6096
   19SAPS   C37 2491   4.421   4.645   3.872  0.0517 -0.1828 -0.4475
   19SAPS   H7X 2492   4.380   4.741   3.835 -1.0838 -0.6228 -0.3614
   19SAPS   H7Y 2493   4.521   4.676   3.910  0.5080  0.9359 -2.4317
   19SAPS   C38 2494   4.332   4.582   3.984  0.1188  0.2397 -0.0610
   19SAPS   H8X 2495   4.373   4.481   4.007 -0.5814  0.2662  1.3910
   19SAPS   H8Y 2496   4.228   4.561   3.949 -1.1474  1.0912  2.9143
   19SAPS   C39 2497   4.336   4.657   4.115  0.0837  0.1486 -0.0132
   19SAPS   H9X 2498   4.280   4.607   4.197 -0.1837 -0.4847 -0.5696
   19SAPS   H9Y 2499   4.269   4.744   4.100  1.2094  0.6086 -3.0968
   19SAPS  C310 2500   4.484   4.692   4.178  0.9157 -0.2814  0.4429
   19SAPS  H10X 2501   4.535   4.777   4.127  0.0681 -0.7695 -1.3007
   19SAPS  H10Y 2502   4.539   4.597   4.160  1.1777  0.1170 -0.9793
   19SAPS  C311 2503   4.472   4.722   4.335  0.1132  0.5472  0.5484
   19SAPS  H11X 2504   4.571   4.716   4.385 -0.5110 -1.2206  1.6039
   19SAPS  H11Y 2505   4.416   4.645   4.391  0.8913 -0.5681 -0.1691
   19SAPS  C312 2506   4.432   4.869   4.366  0.4899 -0.5202  0.2697
   19SAPS  H12X 2507   4.349   4.897   4.298 -0.4741  0.1795  1.7053
   19SAPS  H12Y 2508   4.516   4.939   4.345  0.2614 -0.7123 -1.4778
   19SAPS  C313 2509   4.376   4.896   4.505  0.1958 -0.0935 -0.1367
   19SAPS  H13X 2510   4.274   4.854   4.510  0.2023  0.0057  1.2789
   19SAPS  H13Y 2511   4.366   5.005   4.527 -0.3131 -0.2246  0.2870
   19SAPS  C314 2512   4.474   4.848   4.615  0.3353  0.4166 -0.4540
   19SAPS  H14X 2513   4.573   4.893   4.591  0.7399  0.5666  1.3691
   19SAPS  H14Y 2514   4.498   4.740   4.619 -1.4111 -0.0143 -0.6927
   19SAPS  C315 2515   4.448   4.910   4.759 -0.3132  0.6449 -0.1161
   19SAPS  H15X 2516   4.522   4.852   4.819  0.4220  1.6303 -0.0480
   19SAPS  H15Y 2517   4.349   4.873   4.793 -0.7978 -1.1995 -3.1871
   19SAPS  C316 2518   4.471   5.059   4.768 -0.0761 -0.4998 -0.5675
   19SAPS  H16X 2519   4.371   5.105   4.750  0.5456  0.7749 -0.8656
   19SAPS  H16Y 2520   4.537   5.094   4.686  1.6054  1.5877  1.5448
   19SAPS  C317 2521   4.514   5.116   4.902 -0.2633 -0.5124 -0.0792
   19SAPS  H17X 2522   4.523   5.227   4.903  0.0365 -0.5074 -1.1588
   19SAPS  H17Y 2523   4.612   5.073   4.932 -0.1407  0.9108  1.7012
   19SAPS  C318 2524   4.414   5.082   5.012  0.3367  0.0796  0.3997
   19SAPS  H18X 2525   4.402   4.972   5.013 -1.3011  0.2230  0.1167
   19SAPS  H18Y 2526   4.313   5.126   4.994  0.6787 -0.1007 -2.3793
   19SAPS  H18Z 2527   4.447   5.113   5.113  0.4212 -1.3142  0.8193
   20SAPS     N 2528   5.674   5.245   2.701 -0.1510 -0.3203  0.3421
   20SAPS   HN1 2529   5.596   5.193   2.745 -2.2573 -0.0291 -2.7269
   20SAPS   HN2 2530   5.711   5.188   2.622 -0.5745 -0.6206  0.3575
   20SAPS   HN3 2531   5.758   5.250   2.762  0.4682 -0.1998 -0.4983
   20SAPS   C12 2532   5.626   5.381   2.662  0.4866 -0.2511 -0.4138
   20SAPS  H12A 2533   5.602   5.432   2.754  0.3328 -0.2324 -0.4650
   20SAPS   C13 2534   5.736   5.473   2.600  0.8154 -0.5354 -0.2811
   20SAPS  O13A 2535   5.855   5.441   2.616  0.0881  0.1938 -0.1813
   20SAPS  O13B 2536   5.703   5.587   2.561  0.2875 -0.4227  0.7195
   20SAPS   C11 2537   5.501   5.385   2.568 -0.1652 -0.0699 -0.1290
   20SAPS  H11A 2538   5.510   5.340   2.467 -0.3468  0.6846 -0.4908
   20SAPS  H11B 2539   5.490   5.494   2.552  3.0713  0.5141  0.8046
   20SAPS     P 2540   5.240   5.360   2.570  0.1079  0.0079 -0.3046
   20SAPS   O13 2541   5.252   5.403   2.431 -0.0099 -0.4096  0.1594
   20SAPS   O14 2542   5.154   5.246   2.596  0.0461 -0.0379 -0.0655
   20SAPS   O12 2543   5.379   5.321   2.627 -0.0890 -0.0883  0.0895
   20SAPS   O11 2544   5.190   5.485   2.655 -0.0491  0.3571 -0.3282
   20SAPS    C1 2545   5.258   5.515   2.780 -0.0676 -0.9294 -0.5370
   20SAPS    HA 2546   5.368   5.528   2.768  0.0810 -0.1195  1.2834
   20SAPS    HB 2547   5.210   5.608   2.819  0.8953  0.5267 -2.6260
   20SAPS    C2 2548   5.234   5.403   2.890  0.4192  0.4558 -0.6710
   20SAPS    HS 2549   5.251   5.302   2.847  0.3885  0.7929 -1.4902
   20SAPS   O21 2550   5.090   5.425   2.923 -0.1562  0.4980  0.5570
   20SAPS   C21 2551   5.019   5.325   2.963  0.0138  0.3558 -0.0994
   20SAPS   O22 2552   5.047   5.213   2.922  0.1988  0.1395  0.1111
   20SAPS   C22 2553   4.902   5.369   3.056  0.3183 -0.3352  0.3286
   20SAPS   H2R 2554   4.811   5.392   2.997 -1.0817 -2.0416  1.7160
   20SAPS   H2S 2555   4.881   5.278   3.116  0.2739 -1.5510 -1.4366
   20SAPS    C3 2556   5.315   5.416   3.020  0.0327  0.3381  0.0329
   20SAPS    HX 2557   5.293   5.520   3.052 -0.6736  0.3953 -0.6261
   20SAPS    HY 2558   5.425   5.401   3.015  0.0085 -0.7666  1.9009
   20SAPS   O31 2559   5.260   5.322   3.118 -0.5424 -0.0989 -0.2899
   20SAPS   C31 2560   5.348   5.239   3.180  0.5158 -0.1539 -0.0701
   20SAPS   O32 2561   5.462   5.225   3.156 -1.0359  0.6705 -0.5807
   20SAPS   C32 2562   5.280   5.160   3.288 -0.4199 -0.4302 -0.9310
   20SAPS   H2X 2563   5.285   5.053   3.259 -0.6664 -0.4152 -1.0339
   20SAPS   H2Y 2564   5.170   5.177   3.290 -0.3993 -0.3787  0.3255
   20SAPS   C23 2565   4.927   5.491   3.153  0.1854 -0.3688  0.0191
   20SAPS   H3R 2566   4.832   5.548   3.162  0.3283 -0.2458  0.7695
   20SAPS   H3S 2567   4.997   5.566   3.110 -0.3548 -0.7460 -1.6341
   20SAPS   C24 2568   4.965   5.450   3.297 -0.8263 -0.1085 -0.8431
   20SAPS   H4R 2569   5.017   5.531   3.352 -0.1493 -1.0753 -0.0462
   20SAPS   H4S 2570   5.037   5.367   3.288 -1.0848 -0.3645 -0.5498
   20SAPS   C25 2571   4.843   5.420   3.382  0.3034  0.3086  0.3062
   20SAPS   H5R 2572   4.764   5.497   3.385  0.7853  0.8491 -0.4392
   20SAPS   C26 2573   4.814   5.310   3.458 -0.3736 -0.1506  0.0638
   20SAPS   H6R 2574   4.717   5.322   3.509 -1.0148 -1.8125 -0.6851
   20SAPS   C27 2575   4.896   5.189   3.499 -0.6052 -0.6887  0.1338
   20SAPS   H7R 2576   4.929   5.219   3.601 -2.7603  0.1654  0.6375
   20SAPS   H7S 2577   4.988   5.180   3.437 -0.2649  4.4496 -0.5581
   20SAPS   C28 2578   4.806   5.068   3.495 -0.4917 -0.7451 -0.0486
   20SAPS   H8R 2579   4.756   5.046   3.400 -0.1243 -0.5077 -0.2988
   20SAPS   C29 2580   4.819   4.968   3.586 -0.5299  0.7701 -0.4991
   20SAPS   H9R 2581   4.763   4.873   3.586  0.8696 -0.0943 -1.6879
   20SAPS  C210 2582   4.903   4.978   3.717 -0.1978  0.0512 -0.2050
   20SAPS  H10R 2583   4.979   5.059   3.708 -2.1612  1.8927 -1.2723
   20SAPS  H10S 2584   4.966   4.889   3.737  0.7996  1.3437  3.0463
   20SAPS  C211 2585   4.815   5.023   3.840 -0.2518 -0.6062  0.6389
   20SAPS  H11R 2586   4.772   5.125   3.831  1.3398  0.1074  0.7730
   20SAPS  C212 2587   4.789   4.955   3.946 -0.1657  0.4119  0.3848
   20SAPS  H12R 2588   4.697   4.987   3.997 -0.4908 -0.5355  0.3944
   20SAPS  C213 2589   4.832   4.808   3.974  0.3878 -0.4703 -0.5855
   20SAPS  H13R 2590   4.821   4.747   3.882 -1.2796 -1.7145  0.3948
   20SAPS  H13S 2591   4.767   4.764   4.052 -0.2529  1.5953  0.1247
   20SAPS  C214 2592   4.980   4.800   4.019  0.5659  0.2062  1.3419
   20SAPS  H14R 2593   5.049   4.845   3.945 -0.7432 -0.1294 -0.1235
   20SAPS  C215 2594   5.021   4.755   4.138 -0.0542  0.5095 -0.1425
   20SAPS  H15R 2595   5.129   4.750   4.153 -0.1383 -0.7117  0.1589
   20SAPS  C216 2596   4.941   4.691   4.256 -0.3465  1.1247  0.5403
   20SAPS  H16R 2597   4.991   4.600   4.295 -1.6502 -0.4653 -1.3192
   20SAPS  H16S 2598   4.839   4.660   4.224  1.3109 -3.8167 -0.9197
   20SAPS  C217 2599   4.908   4.788   4.374 -0.3794 -0.1007  0.2971
   20SAPS  H17R 2600   4.823   4.853   4.342  1.3826  0.8939 -2.6857
   20SAPS  H17S 2601   4.996   4.855   4.385 -1.8048  1.6813  1.5997
   20SAPS  C218 2602   4.880   4.716   4.513  0.2826  0.2819 -0.0470
   20SAPS  H18R 2603   4.976   4.664   4.529  1.7822  2.4498 -1.3552
   20SAPS  H18S 2604   4.790   4.652   4.526  1.1103 -0.4120  2.8394
   20SAPS  C219 2605   4.862   4.824   4.617 -0.2192 -0.2365  0.6797
   20SAPS  H19R 2606   4.772   4.879   4.581 -0.4674 -1.5930 -0.8760
   20SAPS  H19S 2607   4.953   4.888   4.613 -0.5424  0.1726 -0.1797
   20SAPS  C220 2608   4.852   4.764   4.755  0.6031  0.0033 -0.7284
   20SAPS  H20R 2609   4.843   4.836   4.840 -2.2177 -1.9854  0.8287
   20SAPS  H20S 2610   4.941   4.699   4.768  2.1820  2.2233  0.1354
   20SAPS  H20T 2611   4.759   4.705   4.769  0.7373  0.2912  2.0073
   20SAPS   C33 2612   5.345   5.169   3.429 -0.2621  0.7232 -0.7787
   20SAPS   H3X 2613   5.325   5.265   3.480 -0.0470  0.4614 -0.1956
   20SAPS   H3Y 2614   5.453   5.144   3.420 -0.0013  0.8333  1.5619
   20SAPS   C34 2615   5.286   5.058   3.519 -0.7776  0.0126  0.0411
   20SAPS   H4X 2616   5.309   4.958   3.477  1.6967 -0.1167  1.5070
   20SAPS   H4Y 2617   5.177   5.070   3.537 -1.0487  1.8406 -2.3039
   20SAPS   C35 2618   5.356   5.060   3.653  1.1682 -0.1628 -1.0707
   20SAPS   H5X 2619   5.465   5.042   3.643  1.0903 -0.6781 -0.9882
   20SAPS   H5Y 2620   5.319   4.984   3.724  0.6368  1.2248  0.1916
   20SAPS   C36 2621   5.345   5.197   3.727 -0.2422  0.2156  0.1898
   20SAPS   H6X 2622   5.246   5.247   3.714 -0.4347  0.5009  2.3420
   20SAPS   H6Y 2623   5.421   5.266   3.683  0.8865 -1.1087  0.0212
   20SAPS   C37 2624   5.365   5.189   3.882 -0.3203 -0.3661  0.2212
   20SAPS   H7X 2625   5.400   5.288   3.919  0.1395  0.0741 -1.3154
   20SAPS   H7Y 2626   5.442   5.110   3.897  2.2903  1.9667  0.0899
   20SAPS   C38 2627   5.232   5.169   3.956 -0.0453  0.1894  0.2793
   20SAPS   H8X 2628   5.181   5.076   3.920  0.7430 -0.3987  0.6582
   20SAPS   H8Y 2629   5.157   5.240   3.915  0.9895  0.4532 -1.2542
   20SAPS   C39 2630   5.244   5.166   4.106  0.4837 -0.0751  0.0009
   20SAPS   H9X 2631   5.153   5.210   4.151  3.0354  3.0138  2.6003
   20SAPS   H9Y 2632   5.304   5.252   4.143 -1.5515  1.4855 -0.1901
   20SAPS  C310 2633   5.288   5.034   4.177 -0.6474  0.0168  0.0224
   20SAPS  H10X 2634   5.398   5.029   4.186 -0.6946  0.6186  1.2105
   20SAPS  H10Y 2635   5.251   4.948   4.118 -0.8181 -0.7448  1.2015
   20SAPS  C311 2636   5.231   5.021   4.322 -0.9608 -0.2146 -0.7214
   20SAPS  H11X 2637   5.240   4.913   4.344  2.8376 -0.4070 -2.3940
   20SAPS  H11Y 2638   5.125   5.054   4.325 -0.9853 -0.2130 -1.4004
   20SAPS  C312 2639   5.307   5.115   4.410 -0.1859  0.0994 -0.3887
   20SAPS  H12X 2640   5.306   5.217   4.367  0.9679 -0.8813 -2.9400
   20SAPS  H12Y 2641   5.412   5.080   4.404  0.4902  2.1456 -1.6672
   20SAPS  C313 2642   5.255   5.130   4.552  0.4527 -0.1950  0.4257
   20SAPS  H13X 2643   5.152   5.172   4.555  0.1228 -0.7536 -1.6991
   20SAPS  H13Y 2644   5.319   5.191   4.620 -0.9540  1.6772  0.1461
   20SAPS  C314 2645   5.246   4.997   4.632  0.1498 -0.1650 -0.6723
   20SAPS  H14X 2646   5.332   4.929   4.616  0.8467  0.7213 -0.7002
   20SAPS  H14Y 2647   5.162   4.928   4.608  1.4694 -1.7615 -0.8880
   20SAPS  C315 2648   5.235   5.023   4.786  0.1273 -0.0489 -0.2142
   20SAPS  H15X 2649   5.134   5.066   4.803  2.0991  4.1798  2.7702
   20SAPS  H15Y 2650   5.306   5.100   4.825 -0.6692  1.4763 -1.7001
   20SAPS  C316 2651   5.241   4.899   4.884  0.3219 -0.4579 -0.3609
   20SAPS  H16X 2652   5.152   4.835   4.868 -0.4238  0.9352 -2.1859
   20SAPS  H16Y 2653   5.227   4.930   4.989  0.2591 -0.0395 -0.4908
   20SAPS  C317 2654   5.376   4.824   4.882  0.0409  0.0970 -0.3572
   20SAPS  H17X 2655   5.377   4.772   4.784 -0.2672 -1.3152  0.3577
   20SAPS  H17Y 2656   5.369   4.744   4.959  1.6016  0.1427 -0.1379
   20SAPS  C318 2657   5.500   4.904   4.917  0.6570 -0.4448 -0.2133
   20SAPS  H18X 2658   5.573   4.843   4.974  1.6546  0.6480 -0.2948
   20SAPS  H18Y 2659   5.472   4.997   4.972 -1.0864  0.3910 -2.3430
   20SAPS  H18Z 2660   5.559   4.940   4.830 -0.3044 -0.0085 -0.7075
   21CHL1    C3 2661   1.589   4.848   6.583  0.3889  0.7380 -0.3524
   21CHL1    H3 2662   1.513   4.771   6.558 -1.0328  1.0399  2.5557
   21CHL1    O3 2663   1.599   4.867   6.723 -0.3940 -0.3576  0.3036
   21CHL1   H3' 2664   1.691   4.885   6.743  0.0108 -0.6837 -1.1243
   21CHL1    C4 2665   1.728   4.800   6.530 -0.2563 -0.4617  0.0592
   21CHL1   H4A 2666   1.802   4.873   6.568 -1.6535  0.0643  1.9216
   21CHL1   H4B 2667   1.761   4.710   6.586  0.4766  0.7405  1.6378
   21CHL1    C5 2668   1.742   4.785   6.382 -0.0477  0.1483 -0.3095
   21CHL1    C6 2669   1.774   4.672   6.320  0.9015 -0.2720 -0.5222
   21CHL1    H6 2670   1.784   4.580   6.380 -1.8444 -0.4528 -0.1797
   21CHL1    C7 2671   1.780   4.665   6.167  0.4803  0.4128  0.0893
   21CHL1   H7A 2672   1.877   4.620   6.137  0.1294  0.7532 -1.6991
   21CHL1   H7B 2673   1.703   4.595   6.127  1.1459  0.4640 -1.3579
   21CHL1    C8 2674   1.769   4.793   6.091 -0.5349 -1.2638 -0.3323
   21CHL1    H8 2675   1.862   4.854   6.101 -1.6735  0.5313 -0.2139
   21CHL1   C14 2676   1.736   4.773   5.943  0.0155  0.0932  0.6359
   21CHL1   H14 2677   1.637   4.722   5.939  0.7940 -1.4055 -0.8316
   21CHL1   C15 2678   1.812   4.670   5.870 -0.2281  0.5113 -0.6190
   21CHL1  H15A 2679   1.918   4.698   5.882  0.1028 -0.8378 -0.3033
   21CHL1  H15B 2680   1.795   4.565   5.904 -0.0713  0.2132 -1.4444
   21CHL1   C16 2681   1.779   4.692   5.724 -0.1248  0.6008 -0.2622
   21CHL1  H16A 2682   1.870   4.692   5.660  0.7458  0.4547  0.9574
   21CHL1  H16B 2683   1.702   4.617   5.696 -0.8359  0.4007  2.0822
   21CHL1   C17 2684   1.702   4.826   5.716 -0.6684  0.1267  0.0066
   21CHL1   H17 2685   1.594   4.804   5.718 -0.6222 -0.2148  3.0121
   21CHL1   C13 2686   1.727   4.893   5.853 -0.1785  0.3737  0.3176
   21CHL1   C18 2687   1.863   4.972   5.854 -0.2128  0.7070  0.0538
   21CHL1  H18A 2688   1.886   5.007   5.957 -0.1221 -0.6215  0.5058
   21CHL1  H18B 2689   1.944   4.898   5.837 -0.2068  0.4690  1.0447
   21CHL1  H18C 2690   1.873   5.062   5.790  1.9086  0.7526  0.3869
   21CHL1   C12 2691   1.617   4.977   5.908  0.7532  0.1141  0.5552
   21CHL1  H12A 2692   1.609   5.070   5.848  0.8129 -0.5015 -0.4277
   21CHL1  H12B 2693   1.514   4.936   5.899 -0.0570  1.9136  1.2778
   21CHL1   C11 2694   1.647   5.010   6.057  0.4321  0.5356  0.3142
   21CHL1  H11A 2695   1.732   5.080   6.060 -0.6051  1.8041  2.8104
   21CHL1  H11B 2696   1.557   5.059   6.100  0.1187  0.3785 -0.1504
   21CHL1    C9 2697   1.667   4.883   6.144  0.1839 -0.1539  0.1331
   21CHL1    H9 2698   1.568   4.835   6.131 -1.3316  3.0407 -0.7945
   21CHL1   C10 2699   1.690   4.910   6.296  0.5947  0.1256  0.1450
   21CHL1   C19 2700   1.789   5.028   6.302  0.6116  0.1150  0.3256
   21CHL1  H19A 2701   1.882   5.001   6.247 -0.2045 -0.4887 -0.7998
   21CHL1  H19B 2702   1.734   5.118   6.265  3.2827  1.9644  0.5549
   21CHL1  H19C 2703   1.817   5.058   6.406 -1.6892  0.1251  0.9941
   21CHL1    C1 2704   1.558   4.965   6.361 -0.2264 -0.6146  0.3584
   21CHL1   H1A 2705   1.538   5.065   6.317  0.0576  0.6495  2.9142
   21CHL1   H1B 2706   1.481   4.888   6.340  0.0702 -1.2284  1.4199
   21CHL1    C2 2707   1.544   4.974   6.516  0.8488 -0.2570  0.2350
   21CHL1   H2A 2708   1.438   4.999   6.537 -0.3218 -3.1498 -1.5976
   21CHL1   H2B 2709   1.613   5.055   6.548 -1.9071  2.5842 -0.5042
   21CHL1   C20 2710   1.732   4.914   5.590 -0.9935 -0.6700 -0.4208
   21CHL1   H20 2711   1.840   4.941   5.593 -0.9475 -0.7530 -1.1111
   21CHL1   C21 2712   1.669   5.057   5.583  0.5229 -0.1816  0.2749
   21CHL1  H21A 2713   1.692   5.125   5.668 -1.2042  1.3261 -0.4054
   21CHL1  H21B 2714   1.561   5.045   5.559  0.4809 -0.1287  0.4385
   21CHL1  H21C 2715   1.708   5.108   5.492  0.1374  1.4220  0.9711
   21CHL1   C22 2716   1.709   4.846   5.459  0.0953  0.2515 -0.2536
   21CHL1  H22A 2717   1.737   4.740   5.475  0.2419  0.2147 -0.7385
   21CHL1  H22B 2718   1.599   4.842   5.444 -0.4635  3.7486  1.5854
   21CHL1   C23 2719   1.782   4.895   5.333  0.2018 -0.2105  0.3663
   21CHL1  H23A 2720   1.766   5.005   5.330  0.9867 -0.0718  0.7832
   21CHL1  H23B 2721   1.890   4.885   5.359  0.4568 -0.4597 -0.7424
   21CHL1   C24 2722   1.750   4.820   5.206  0.7391  0.6372 -0.6039
   21CHL1  H24A 2723   1.781   4.714   5.217 -0.7643  0.1242 -1.0069
   21CHL1  H24B 2724   1.639   4.817   5.198  0.7648  0.5519 -0.9299
   21CHL1   C25 2725   1.815   4.877   5.078  0.7521 -0.0369  0.5976
   21CHL1   H25 2726   1.925   4.883   5.084  0.9205 -1.0097 -0.9756
   21CHL1   C26 2727   1.792   4.784   4.958 -0.1716  0.3300 -0.2007
   21CHL1  H26A 2728   1.818   4.679   4.983  0.7365  0.4720 -0.5304
   21CHL1  H26B 2729   1.682   4.785   4.940 -0.3337 -0.1973  0.7327
   21CHL1  H26C 2730   1.853   4.817   4.871  0.7574  1.9765  1.0182
   21CHL1   C27 2731   1.748   5.007   5.038  0.6238 -0.3116  0.5588
   21CHL1  H27A 2732   1.638   5.010   5.023  0.8348  1.0519 -0.9497
   21CHL1  H27B 2733   1.759   5.077   5.124  0.5712 -0.4781  0.7017
   21CHL1  H27C 2734   1.791   5.045   4.943  2.4220 -3.1136  0.1323
   22CHL1    C3 2735   4.918   4.670   6.540  0.5981 -0.5841 -0.6370
   22CHL1    H3 2736   5.011   4.732   6.539  0.4447 -0.3512 -0.4193
   22CHL1    O3 2737   4.899   4.618   6.666 -0.4169 -0.5877  0.2013
   22CHL1   H3' 2738   4.806   4.592   6.661 -0.6237  0.3082 -1.1900
   22CHL1    C4 2739   4.797   4.760   6.503 -0.3612  0.3406  0.5796
   22CHL1   H4A 2740   4.720   4.680   6.502  1.5519 -1.6027 -0.7860
   22CHL1   H4B 2741   4.786   4.845   6.574  0.5804  3.7496 -2.9664
   22CHL1    C5 2742   4.806   4.817   6.364  0.2318  0.3519  0.7043
   22CHL1    C6 2743   4.794   4.951   6.346  0.2545  0.2891 -0.0722
   22CHL1    H6 2744   4.774   5.022   6.428 -0.4223  1.8126 -1.4872
   22CHL1    C7 2745   4.797   5.016   6.207 -0.7087  0.4983 -0.6468
   22CHL1   H7A 2746   4.718   5.092   6.193 -2.3151 -1.3250 -2.0679
   22CHL1   H7B 2747   4.892   5.070   6.190  1.2384 -1.8206  1.9673
   22CHL1    C8 2748   4.782   4.913   6.095 -0.7251 -0.2636  0.3848
   22CHL1    H8 2749   4.677   4.878   6.093 -0.7363 -0.4522  2.3626
   22CHL1   C14 2750   4.817   4.979   5.959  0.9296 -0.3712  0.4840
   22CHL1   H14 2751   4.920   5.020   5.956  0.5975  0.4586 -1.9959
   22CHL1   C15 2752   4.737   5.097   5.913 -0.0628  0.6790  0.1458
   22CHL1  H15A 2753   4.627   5.083   5.903  0.2365 -0.1215 -3.4362
   22CHL1  H15B 2754   4.737   5.187   5.978 -0.9887  1.0352 -0.3342
   22CHL1   C16 2755   4.786   5.123   5.772  0.3244 -0.1101  0.3924
   22CHL1  H16A 2756   4.695   5.143   5.712 -1.2048 -0.9636  2.3110
   22CHL1  H16B 2757   4.858   5.207   5.771 -1.4481  1.4720 -0.4727
   22CHL1   C17 2758   4.862   4.988   5.732 -0.2214 -0.8873  0.8075
   22CHL1   H17 2759   4.969   5.015   5.740 -0.3298 -0.2690  0.2736
   22CHL1   C13 2760   4.830   4.882   5.840  0.6294 -0.0749 -0.8197
   22CHL1   C18 2761   4.679   4.830   5.810 -0.5165  0.2424 -0.0366
   22CHL1  H18A 2762   4.681   4.767   5.718  1.9548 -1.1195  0.8508
   22CHL1  H18B 2763   4.644   4.760   5.889  0.5525  0.6125  0.7920
   22CHL1  H18C 2764   4.604   4.911   5.805  0.2025  0.9403  0.3647
   22CHL1   C12 2765   4.933   4.771   5.871 -0.2625  1.1730 -0.5825
   22CHL1  H12A 2766   4.944   4.709   5.780  1.9280 -1.6857  1.4414
   22CHL1  H12B 2767   5.026   4.824   5.902  0.9440 -0.5472 -1.0815
   22CHL1   C11 2768   4.892   4.694   5.992  0.1588  0.3434 -0.4147
   22CHL1  H11A 2769   4.791   4.650   5.976 -0.1480 -0.0978  2.3175
   22CHL1  H11B 2770   4.958   4.606   6.006 -2.4736 -1.4819  1.7607
   22CHL1    C9 2771   4.875   4.794   6.114 -0.0064  0.3671  0.3375
   22CHL1    H9 2772   4.974   4.839   6.136  0.8484 -1.4114  0.3515
   22CHL1   C10 2773   4.839   4.721   6.249 -1.2374  0.3220 -0.0899
   22CHL1   C19 2774   4.720   4.627   6.220  0.3543  0.3687 -0.7668
   22CHL1  H19A 2775   4.659   4.599   6.309  0.7297 -0.5768 -0.7919
   22CHL1  H19B 2776   4.644   4.674   6.154 -0.8300 -2.8294 -1.8998
   22CHL1  H19C 2777   4.760   4.533   6.178 -0.0239  0.0724 -0.4774
   22CHL1    C1 2778   4.954   4.626   6.299  0.0085  0.1883  0.3430
   22CHL1   H1A 2779   4.957   4.541   6.227  1.5158  1.1131 -0.7242
   22CHL1   H1B 2780   5.052   4.678   6.290 -0.2678  0.5026 -1.2686
   22CHL1    C2 2781   4.940   4.563   6.440  0.0004 -0.1608  0.3424
   22CHL1   H2A 2782   5.028   4.502   6.471  1.8316  2.2108  0.0744
   22CHL1   H2B 2783   4.848   4.501   6.438 -0.4323  0.3445  2.3992
   22CHL1   C20 2784   4.853   4.951   5.581  1.0656 -0.1334  0.3070
   22CHL1   H20 2785   4.902   4.853   5.569  1.2550  0.1992 -1.9835
   22CHL1   C21 2786   4.943   5.043   5.497  0.7456  0.1615  0.0939
   22CHL1  H21A 2787   5.042   5.039   5.546  0.3404 -2.4239  0.8428
   22CHL1  H21B 2788   4.915   5.150   5.495  0.0069 -0.0205  0.2122
   22CHL1  H21C 2789   4.954   5.014   5.390  0.6760  2.7413 -0.6814
   22CHL1   C22 2790   4.706   4.945   5.517 -0.2369 -0.0031 -0.6660
   22CHL1  H22A 2791   4.622   4.917   5.584 -0.5441 -0.2055 -1.1227
   22CHL1  H22B 2792   4.691   5.049   5.482  0.9431  0.6985  0.8182
   22CHL1   C23 2793   4.689   4.851   5.397  0.7384  0.0350  0.6988
   22CHL1  H23A 2794   4.741   4.896   5.310 -0.4314 -1.6713 -0.9382
   22CHL1  H23B 2795   4.727   4.752   5.429  3.3148  0.8552  0.4343
   22CHL1   C24 2796   4.532   4.839   5.351 -0.5891  0.7341  0.4389
   22CHL1  H24A 2797   4.465   4.828   5.438 -0.0250  0.3680  0.8348
   22CHL1  H24B 2798   4.503   4.936   5.304 -1.1305 -0.4131 -1.7441
   22CHL1   C25 2799   4.495   4.727   5.256 -0.3737  0.2911 -0.2726
   22CHL1   H25 2800   4.515   4.628   5.303  1.2886  1.8606  2.5942
   22CHL1   C26 2801   4.345   4.733   5.236  0.2934  0.1861  0.1425
   22CHL1  H26A 2802   4.306   4.834   5.213 -2.7001 -1.3010 -1.8795
   22CHL1  H26B 2803   4.319   4.667   5.150  0.0870 -0.9662  1.0647
   22CHL1  H26C 2804   4.277   4.699   5.317 -1.3841 -0.3252 -1.4289
   22CHL1   C27 2805   4.569   4.737   5.117  0.2663 -0.0994  0.1299
   22CHL1  H27A 2806   4.538   4.825   5.057  2.7085  1.2070  0.6578
   22CHL1  H27B 2807   4.680   4.731   5.120  0.2320 -0.3923  1.7875
   22CHL1  H27C 2808   4.530   4.652   5.056 -2.5045  0.7257  0.5978
   23CHL1    C3 2809   0.947   5.454   6.625  1.0864  0.6181 -0.3046
   23CHL1    H3 2810   1.041   5.506   6.598  0.7447  0.8280 -1.1290
   23CHL1    O3 2811   0.960   5.433   6.767  0.3620  0.6270  0.2546
   23CHL1   H3' 2812   0.869   5.406   6.784 -0.1568  1.5931 -0.7917
   23CHL1    C4 2813   0.821   5.544   6.607  0.2552  0.2066  0.6388
   23CHL1   H4A 2814   0.726   5.494   6.637 -0.9181  0.8997 -1.6851
   23CHL1   H4B 2815   0.827   5.629   6.678 -2.7542 -0.9331  2.4640
   23CHL1    C5 2816   0.809   5.582   6.462  0.5895 -0.5545 -0.4757
   23CHL1    C6 2817   0.786   5.707   6.418  0.3205  0.4917 -0.2347
   23CHL1    H6 2818   0.782   5.779   6.501 -0.0937  0.6936 -0.4274
   23CHL1    C7 2819   0.763   5.747   6.279  0.2597 -0.4832 -0.1648
   23CHL1   H7A 2820   0.665   5.800   6.269  0.4079 -0.3957 -1.2698
   23CHL1   H7B 2821   0.845   5.815   6.247 -0.6774  0.8105  0.1050
   23CHL1    C8 2822   0.756   5.623   6.184  0.6500  0.1818 -0.0034
   23CHL1    H8 2823   0.652   5.584   6.183  0.7425 -0.1793 -2.5267
   23CHL1   C14 2824   0.785   5.666   6.047  0.2250 -0.3179  0.6868
   23CHL1   H14 2825   0.890   5.700   6.049 -0.3640  1.5794  1.3271
   23CHL1   C15 2826   0.694   5.777   5.987 -0.1793  0.7259 -1.1978
   23CHL1  H15A 2827   0.587   5.746   5.989 -0.4321  1.6226 -0.1299
   23CHL1  H15B 2828   0.704   5.868   6.049 -0.1810 -0.8662  1.2795
   23CHL1   C16 2829   0.728   5.776   5.838  0.0176 -0.3050 -0.5596
   23CHL1  H16A 2830   0.647   5.805   5.769 -1.2679 -2.4028 -0.0392
   23CHL1  H16B 2831   0.815   5.842   5.819  0.5913 -0.8442  0.1147
   23CHL1   C17 2832   0.806   5.646   5.810 -0.0472  0.1803 -0.1019
   23CHL1   H17 2833   0.914   5.668   5.800 -0.2828  1.0172 -0.9723
   23CHL1   C13 2834   0.779   5.561   5.937  0.4884  0.2579 -0.4725
   23CHL1   C18 2835   0.643   5.494   5.929 -0.8638 -0.3420  0.3368
   23CHL1  H18A 2836   0.591   5.469   6.024 -0.0551  0.1916  0.9297
   23CHL1  H18B 2837   0.582   5.564   5.867  0.2887 -0.8309 -1.4391
   23CHL1  H18C 2838   0.656   5.398   5.873  0.5228 -0.2231  0.4245
   23CHL1   C12 2839   0.892   5.460   5.970 -0.6473 -0.3419 -0.8231
   23CHL1  H12A 2840   0.884   5.374   5.900 -1.4384 -0.3522 -0.7212
   23CHL1  H12B 2841   0.992   5.508   5.960 -1.4458  1.0866 -2.4005
   23CHL1   C11 2842   0.870   5.413   6.113 -0.8561 -0.6481  0.1552
   23CHL1  H11A 2843   0.779   5.349   6.107 -0.8177 -1.0562  2.7185
   23CHL1  H11B 2844   0.937   5.328   6.139 -0.3512  0.1687  1.6124
   23CHL1    C9 2845   0.857   5.518   6.223 -0.5604 -0.0080 -0.1877
   23CHL1    H9 2846   0.955   5.569   6.231 -0.9696  0.9474 -1.0365
   23CHL1   C10 2847   0.819   5.466   6.365 -0.0033  0.3385  0.4995
   23CHL1   C19 2848   0.682   5.390   6.371 -0.3973 -0.5165  0.0955
   23CHL1  H19A 2849   0.601   5.454   6.329 -1.3278 -1.3596  0.5784
   23CHL1  H19B 2850   0.679   5.303   6.302 -0.2217 -1.0750  0.7873
   23CHL1  H19C 2851   0.644   5.366   6.472 -0.8993 -0.4130 -0.0635
   23CHL1    C1 2852   0.926   5.356   6.400  0.0257  0.2621 -0.2587
   23CHL1   H1A 2853   0.896   5.269   6.339  0.3293  0.6958 -1.0450
   23CHL1   H1B 2854   1.030   5.386   6.374 -0.0339  1.0463  0.3502
   23CHL1    C2 2855   0.938   5.324   6.553  0.1434 -0.0947  0.3722
   23CHL1   H2A 2856   1.033   5.278   6.587  0.7252 -0.4677 -1.6502
   23CHL1   H2B 2857   0.848   5.268   6.588  0.1001  0.3618  0.9998
   23CHL1   C20 2858   0.759   5.592   5.670 -0.0484 -0.3780  0.5394
   23CHL1   H20 2859   0.651   5.569   5.666  0.0764 -0.8401 -0.9410
   23CHL1   C21 2860   0.829   5.458   5.644 -0.3154  0.0667 -0.3760
   23CHL1  H21A 2861   0.937   5.466   5.668 -0.4236  1.2223 -0.2169
   23CHL1  H21B 2862   0.824   5.435   5.535  0.2290 -0.2694 -0.3317
   23CHL1  H21C 2863   0.779   5.379   5.703  1.4688 -1.2973 -0.5875
   23CHL1   C22 2864   0.790   5.698   5.565 -0.4775  1.1797 -0.4865
   23CHL1  H22A 2865   0.743   5.797   5.586 -0.8060  0.6907  1.1891
   23CHL1  H22B 2866   0.897   5.728   5.565 -0.5729  1.5251 -0.0385
   23CHL1   C23 2867   0.763   5.665   5.423 -0.1938 -0.2424  0.1794
   23CHL1  H23A 2868   0.833   5.589   5.384 -1.8551 -0.8311 -1.8378
   23CHL1  H23B 2869   0.657   5.638   5.401 -1.1788  2.6521  0.8091
   23CHL1   C24 2870   0.784   5.793   5.338 -0.5308  0.4475  0.9022
   23CHL1  H24A 2871   0.718   5.875   5.374 -1.8348 -0.9353  1.7937
   23CHL1  H24B 2872   0.888   5.827   5.357  0.4048 -0.5672 -1.8962
   23CHL1   C25 2873   0.777   5.773   5.185 -0.4660  0.1721  0.2764
   23CHL1   H25 2874   0.797   5.872   5.138 -3.2248  0.2768 -0.8519
   23CHL1   C26 2875   0.890   5.668   5.142 -0.9267 -0.9039  0.1319
   23CHL1  H26A 2876   0.893   5.674   5.031  0.4877  1.1642  0.2170
   23CHL1  H26B 2877   0.988   5.714   5.167 -0.7815 -1.1726  0.0607
   23CHL1  H26C 2878   0.878   5.565   5.182  0.2842 -2.6083 -3.4022
   23CHL1   C27 2879   0.641   5.739   5.135 -0.0699 -0.0843  0.8463
   23CHL1  H27A 2880   0.623   5.630   5.152  1.7571 -0.2347  2.0366
   23CHL1  H27B 2881   0.558   5.800   5.176 -0.8889 -0.1172 -0.6995
   23CHL1  H27C 2882   0.642   5.755   5.025  0.5013 -0.2473  0.8238
   24CHL1    C3 2883   3.431   4.495   6.445 -0.3060 -1.0057  0.2189
   24CHL1    H3 2884   3.366   4.585   6.439  0.2611 -0.4043  2.1901
   24CHL1    O3 2885   3.440   4.467   6.583 -0.0937 -0.2649 -0.1051
   24CHL1   H3' 2886   3.477   4.380   6.594 -0.8251 -0.4645  0.9968
   24CHL1    C4 2887   3.373   4.382   6.371  0.2098 -0.2909 -0.1271
   24CHL1   H4A 2888   3.434   4.290   6.389  0.7534  0.4196  1.8735
   24CHL1   H4B 2889   3.272   4.362   6.412 -0.4345  3.1166  0.2109
   24CHL1    C5 2890   3.367   4.407   6.220  0.3379 -0.6450 -0.2119
   24CHL1    C6 2891   3.247   4.413   6.157  0.0809  0.0265 -0.3989
   24CHL1    H6 2892   3.158   4.387   6.217  0.6240  2.0210  1.4139
   24CHL1    C7 2893   3.232   4.445   6.010 -0.1710  0.3303 -0.1829
   24CHL1   H7A 2894   3.144   4.395   5.963 -0.1307 -1.3123  1.3698
   24CHL1   H7B 2895   3.197   4.550   6.017  1.4606  0.8478  0.9287
   24CHL1    C8 2896   3.361   4.430   5.926 -0.0215 -0.1654 -0.0424
   24CHL1    H8 2897   3.377   4.320   5.921 -2.4315 -0.7971  3.0018
   24CHL1   C14 2898   3.343   4.486   5.794 -0.0258 -0.2826  0.1268
   24CHL1   H14 2899   3.329   4.595   5.813 -0.3449 -0.3635  0.3726
   24CHL1   C15 2900   3.216   4.459   5.711 -0.7901 -0.6330 -0.3399
   24CHL1  H15A 2901   3.189   4.353   5.727  0.2145 -0.4851  3.0969
   24CHL1  H15B 2902   3.123   4.512   5.742 -2.2204 -2.3905 -1.4603
   24CHL1   C16 2903   3.258   4.496   5.566  0.3613  0.1324 -0.9239
   24CHL1  H16A 2904   3.234   4.406   5.506  0.5776 -1.4787  1.2644
   24CHL1  H16B 2905   3.197   4.579   5.526 -0.3572 -0.9498 -2.1452
   24CHL1   C17 2906   3.410   4.535   5.571 -0.6877  0.6723  0.1031
   24CHL1   H17 2907   3.405   4.645   5.584 -0.2461  0.8588 -1.1453
   24CHL1   C13 2908   3.466   4.468   5.702  0.4901 -0.9907 -0.1639
   24CHL1   C18 2909   3.497   4.323   5.688 -0.7810  0.4681 -0.0991
   24CHL1  H18A 2910   3.411   4.273   5.639 -1.2621 -1.3980  2.4106
   24CHL1  H18B 2911   3.586   4.321   5.622  0.8594  2.4613  1.9138
   24CHL1  H18C 2912   3.527   4.261   5.776  1.7282  0.1412 -1.1152
   24CHL1   C12 2913   3.577   4.560   5.767  0.0222  0.8833  1.1168
   24CHL1  H12A 2914   3.671   4.541   5.711 -0.1546  2.1770  0.3325
   24CHL1  H12B 2915   3.546   4.667   5.762 -1.3473  0.4543 -0.6987
   24CHL1   C11 2916   3.609   4.511   5.912 -0.0922 -0.1906 -0.7862
   24CHL1  H11A 2917   3.668   4.418   5.897  1.2017  0.5333 -0.3226
   24CHL1  H11B 2918   3.675   4.591   5.952 -1.2128  1.6734 -2.4607
   24CHL1    C9 2919   3.477   4.496   5.996  0.1372  0.3882  0.0018
   24CHL1    H9 2920   3.440   4.600   6.001  1.5001  1.0216 -2.0728
   24CHL1   C10 2921   3.490   4.448   6.145  0.1989 -0.8436 -0.0180
   24CHL1   C19 2922   3.567   4.310   6.139 -0.0059 -0.7958  0.0898
   24CHL1  H19A 2923   3.660   4.328   6.081 -0.2838 -0.4963 -0.2601
   24CHL1  H19B 2924   3.602   4.265   6.235 -1.6089 -0.8193  0.6859
   24CHL1  H19C 2925   3.504   4.230   6.094  0.0116 -0.1366 -1.1276
   24CHL1    C1 2926   3.571   4.558   6.227  0.2477  0.2549 -0.9844
   24CHL1   H1A 2927   3.674   4.569   6.187  0.5993 -0.5906 -0.3376
   24CHL1   H1B 2928   3.520   4.656   6.214 -1.2184 -0.3330  0.0161
   24CHL1    C2 2929   3.573   4.527   6.384  0.1350  0.3166 -0.2156
   24CHL1   H2A 2930   3.613   4.610   6.446 -1.3351  0.1209  1.0666
   24CHL1   H2B 2931   3.629   4.435   6.411 -1.9417 -1.3828 -1.3127
   24CHL1   C20 2932   3.493   4.514   5.441  0.6732  0.1365 -0.7254
   24CHL1   H20 2933   3.506   4.404   5.428  0.7600 -0.0452  0.7771
   24CHL1   C21 2934   3.637   4.569   5.435  0.4686  0.3862 -0.2933
   24CHL1  H21A 2935   3.708   4.513   5.500  1.4684  3.0746  1.1232
   24CHL1  H21B 2936   3.626   4.677   5.462 -0.3310  0.2064  0.1481
   24CHL1  H21C 2937   3.688   4.561   5.337 -0.4063  0.0267 -0.7316
   24CHL1   C22 2938   3.417   4.572   5.311  0.4041  0.5184 -0.1350
   24CHL1  H22A 2939   3.467   4.532   5.220 -3.0880 -2.3407 -0.9886
   24CHL1  H22B 2940   3.320   4.519   5.318  0.3256  0.6592 -0.1642
   24CHL1   C23 2941   3.380   4.721   5.306  0.0513  0.2294 -0.4942
   24CHL1  H23A 2942   3.309   4.744   5.388  0.5731 -0.7978  0.2766
   24CHL1  H23B 2943   3.471   4.782   5.325 -0.5036  0.5943  1.1883
   24CHL1   C24 2944   3.320   4.775   5.169 -0.4890  0.0288  0.2988
   24CHL1  H24A 2945   3.394   4.739   5.094  0.5987 -1.5308  2.0219
   24CHL1  H24B 2946   3.222   4.729   5.145 -1.0084  1.3821 -0.2574
   24CHL1   C25 2947   3.286   4.923   5.164 -0.0998 -0.0401  0.6230
   24CHL1   H25 2948   3.218   4.947   5.248  0.1207 -2.5920  1.6177
   24CHL1   C26 2949   3.406   5.014   5.173  0.1473  0.3885  0.1934
   24CHL1  H26A 2950   3.382   5.118   5.142  2.2744  0.5207 -1.2452
   24CHL1  H26B 2951   3.442   5.016   5.278 -1.1611  1.1157  0.6502
   24CHL1  H26C 2952   3.488   4.969   5.113 -0.8360 -0.8891 -0.2468
   24CHL1   C27 2953   3.214   4.958   5.030 -0.1454 -0.0602  0.9438
   24CHL1  H27A 2954   3.148   5.047   5.043 -0.9984 -0.3768 -0.8407
   24CHL1  H27B 2955   3.292   4.978   4.953 -1.8638  1.3000 -0.5515
   24CHL1  H27C 2956   3.140   4.877   5.012 -1.3220  1.1091  0.2852
   25CHL1    C3 2957   5.019   0.937   6.506  0.2346  0.6798  0.4030
   25CHL1    H3 2958   5.042   0.841   6.455  2.1458  1.1948  0.2228
   25CHL1    O3 2959   4.939   0.895   6.615  0.2387  0.4024 -0.2257
   25CHL1   H3' 2960   5.000   0.849   6.673  1.7511  0.3912 -1.7875
   25CHL1    C4 2961   5.144   1.012   6.548 -0.4989 -0.0156  0.5209
   25CHL1   H4A 2962   5.108   1.105   6.596 -3.8897 -0.1125 -1.5314
   25CHL1   H4B 2963   5.199   0.955   6.626 -0.4983  0.6624  1.0194
   25CHL1    C5 2964   5.231   1.036   6.421  0.3810  0.1014  0.2833
   25CHL1    C6 2965   5.363   0.995   6.418  0.7693  0.4344  0.1105
   25CHL1    H6 2966   5.414   0.951   6.505  0.4318  0.4666  0.3292
   25CHL1    C7 2967   5.453   1.019   6.296 -0.1701 -0.1417  0.0745
   25CHL1   H7A 2968   5.545   1.062   6.340  0.9372  0.7218 -2.8655
   25CHL1   H7B 2969   5.480   0.919   6.255  0.4131  0.6544 -1.5835
   25CHL1    C8 2970   5.391   1.119   6.192 -0.2851  0.5999 -0.1085
   25CHL1    H8 2971   5.417   1.221   6.226  1.5002  0.1294  0.0212
   25CHL1   C14 2972   5.467   1.098   6.062 -0.2686 -0.0589 -0.1441
   25CHL1   H14 2973   5.435   1.004   6.013  0.8654 -1.1872  1.1888
   25CHL1   C15 2974   5.621   1.089   6.065  0.7210 -0.0352  0.3928
   25CHL1  H15A 2975   5.668   1.171   6.122  0.5430  1.9076 -2.0774
   25CHL1  H15B 2976   5.667   0.993   6.096  2.2583 -0.1118 -1.8647
   25CHL1   C16 2977   5.654   1.100   5.918 -0.0454  0.2796 -0.0818
   25CHL1  H16A 2978   5.739   1.172   5.918  0.6395 -0.4149 -2.9648
   25CHL1  H16B 2979   5.687   1.011   5.861  0.9993  0.4786  0.2003
   25CHL1   C17 2980   5.525   1.149   5.842  0.6833 -0.2286  0.0536
   25CHL1   H17 2981   5.481   1.058   5.798  0.3077  1.3935 -3.2434
   25CHL1   C13 2982   5.420   1.194   5.950  0.2082  0.7282  0.5948
   25CHL1   C18 2983   5.457   1.336   5.993  0.4588  0.2869 -0.5602
   25CHL1  H18A 2984   5.399   1.366   6.083  0.6842 -0.4150 -0.1708
   25CHL1  H18B 2985   5.565   1.350   6.016  0.1580 -0.3381  1.4676
   25CHL1  H18C 2986   5.426   1.413   5.920  0.9564 -0.7639 -1.9154
   25CHL1   C12 2987   5.269   1.183   5.924 -0.7296  0.0222  0.1651
   25CHL1  H12A 2988   5.241   1.274   5.867 -1.4470  0.5174  1.2547
   25CHL1  H12B 2989   5.253   1.086   5.873 -0.2785  0.1613 -0.2382
   25CHL1   C11 2990   5.193   1.191   6.055  1.2360  0.0766 -0.1185
   25CHL1  H11A 2991   5.192   1.294   6.096 -0.9811  0.7096 -1.5870
   25CHL1  H11B 2992   5.088   1.166   6.030  0.5994  2.4577 -0.0074
   25CHL1    C9 2993   5.248   1.096   6.173  0.6637 -0.0997 -0.9247
   25CHL1    H9 2994   5.233   0.990   6.142  0.6923 -0.4844  0.3148
   25CHL1   C10 2995   5.168   1.106   6.302 -0.0372  0.0672  0.2854
   25CHL1   C19 2996   5.136   1.256   6.332 -0.1096 -0.1665  0.0277
   25CHL1  H19A 2997   5.105   1.263   6.439 -0.2071 -0.9390  0.0555
   25CHL1  H19B 2998   5.234   1.309   6.333 -0.9269  1.4554 -1.1191
   25CHL1  H19C 2999   5.068   1.304   6.259  0.6469 -1.9946 -1.9563
   25CHL1    C1 3000   5.036   1.028   6.276  0.8384  0.6267  0.2600
   25CHL1   H1A 3001   4.974   1.081   6.201  0.3405 -0.7754 -0.3613
   25CHL1   H1B 3002   5.058   0.922   6.250  1.7812  0.8498  0.1337
   25CHL1    C2 3003   4.941   1.016   6.398 -0.9581  0.3059  0.1046
   25CHL1   H2A 3004   4.850   0.957   6.375 -0.9288 -1.0645  3.0601
   25CHL1   H2B 3005   4.900   1.110   6.442  0.1642  0.6941  0.3606
   25CHL1   C20 3006   5.551   1.232   5.714  0.2619  0.4468  0.5811
   25CHL1   H20 3007   5.584   1.337   5.725 -0.7119  0.9385 -0.9066
   25CHL1   C21 3008   5.419   1.247   5.634  0.1413 -0.1902 -0.4395
   25CHL1  H21A 3009   5.424   1.275   5.526 -1.1290 -1.1315 -0.7641
   25CHL1  H21B 3010   5.344   1.322   5.666  1.2102  0.4045  0.7527
   25CHL1  H21C 3011   5.370   1.148   5.636 -2.7039  1.1358  0.9421
   25CHL1   C22 3012   5.661   1.167   5.629 -0.6505 -0.2446  0.5737
   25CHL1  H22A 3013   5.756   1.174   5.687  1.1540  2.2493 -2.3118
   25CHL1  H22B 3014   5.639   1.060   5.610  1.4142 -0.4415 -1.2330
   25CHL1   C23 3015   5.695   1.253   5.505 -0.0183 -0.0578 -0.2242
   25CHL1  H23A 3016   5.617   1.252   5.426  2.1082 -2.6162 -2.5283
   25CHL1  H23B 3017   5.714   1.358   5.533  2.6167 -0.9126  1.5278
   25CHL1   C24 3018   5.817   1.201   5.429 -0.5666 -0.0628 -0.3006
   25CHL1  H24A 3019   5.902   1.198   5.501  0.2703 -0.9149 -1.2910
   25CHL1  H24B 3020   5.798   1.096   5.399 -0.0278 -0.5241  0.8964
   25CHL1   C25 3021   5.867   1.299   5.322  0.1478 -0.0204 -0.2099
   25CHL1   H25 3022   5.893   1.397   5.368 -2.6343  0.3920  0.7274
   25CHL1   C26 3023   5.998   1.254   5.271 -0.4821 -0.2353  0.2093
   25CHL1  H26A 3024   6.039   1.324   5.196  1.5498  0.1558  1.5774
   25CHL1  H26B 3025   6.075   1.243   5.351  0.9218 -2.9174 -1.3538
   25CHL1  H26C 3026   5.999   1.154   5.221  1.4772 -0.6069  0.8983
   25CHL1   C27 3027   5.769   1.323   5.215  0.3703 -0.2921 -0.1050
   25CHL1  H27A 3028   5.670   1.362   5.248  0.3135  0.5068 -1.1579
   25CHL1  H27B 3029   5.795   1.402   5.141 -0.6829 -0.8873 -1.1698
   25CHL1  H27C 3030   5.757   1.228   5.159  1.8333  0.2741 -1.4728
   26CHL1    C3 3031   5.794   4.166   7.003 -0.3636  0.6053  0.0916
   26CHL1    H3 3032   5.840   4.250   6.946  0.0163  1.5530  1.7358
   26CHL1    O3 3033   5.809   4.174   7.145  0.2663  0.2411 -0.3442
   26CHL1   H3' 3034   5.777   4.090   7.179 -1.2860  1.6166  1.8848
   26CHL1    C4 3035   5.640   4.183   6.967 -0.1628 -0.1761  0.4747
   26CHL1   H4A 3036   5.580   4.112   7.027 -1.4683 -0.3449 -0.9642
   26CHL1   H4B 3037   5.614   4.282   7.010 -0.1983 -0.8032  1.9439
   26CHL1    C5 3038   5.614   4.170   6.824 -0.5680  0.4541 -0.0515
   26CHL1    C6 3039   5.554   4.273   6.755 -0.0100  0.3397 -0.3959
   26CHL1    H6 3040   5.519   4.363   6.809  1.4414  2.0143 -2.0832
   26CHL1    C7 3041   5.516   4.276   6.609 -0.3737  0.3208  0.0840
   26CHL1   H7A 3042   5.407   4.294   6.594 -0.6218 -0.9841  0.1814
   26CHL1   H7B 3043   5.580   4.353   6.561  0.7373 -0.6252 -0.0052
   26CHL1    C8 3044   5.542   4.138   6.545 -1.0097 -1.0307  0.1622
   26CHL1    H8 3045   5.452   4.077   6.569 -0.5843 -0.1516  4.8572
   26CHL1   C14 3046   5.567   4.150   6.396 -0.2878 -0.2004  0.2860
   26CHL1   H14 3047   5.657   4.214   6.387 -0.5375  0.1435  0.2152
   26CHL1   C15 3048   5.455   4.219   6.318 -0.1298  0.0826 -0.5439
   26CHL1  H15A 3049   5.367   4.155   6.340  1.5401 -2.7504 -1.5285
   26CHL1  H15B 3050   5.432   4.326   6.339  0.3990  0.3049 -1.0702
   26CHL1   C16 3051   5.499   4.185   6.170  0.6511  0.4748 -0.2448
   26CHL1  H16A 3052   5.411   4.132   6.129  0.3540  0.7061  0.0895
   26CHL1  H16B 3053   5.523   4.273   6.106 -0.8538  2.3331  1.5907
   26CHL1   C17 3054   5.602   4.075   6.183 -0.5983  0.1611  0.8113
   26CHL1   H17 3055   5.702   4.122   6.192  0.1024 -0.0449 -3.4790
   26CHL1   C13 3056   5.591   4.019   6.326 -0.1524 -0.1020  0.2154
   26CHL1   C18 3057   5.470   3.925   6.334 -0.8326  0.1098  0.2581
   26CHL1  H18A 3058   5.437   3.915   6.439  0.1714 -1.5882  0.4426
   26CHL1  H18B 3059   5.373   3.955   6.289 -0.6349  0.9991  0.3961
   26CHL1  H18C 3060   5.488   3.825   6.289 -3.5527 -1.6282  2.7069
   26CHL1   C12 3061   5.716   3.951   6.383  0.1463 -0.3554 -0.0364
   26CHL1  H12A 3062   5.725   3.859   6.322  1.9581 -1.0631  1.2049
   26CHL1  H12B 3063   5.790   4.033   6.380 -0.7130  0.4432  0.0224
   26CHL1   C11 3064   5.694   3.934   6.529 -0.3808 -0.6338 -0.5022
   26CHL1  H11A 3065   5.626   3.851   6.559  0.3265 -1.2528 -0.6002
   26CHL1  H11B 3066   5.792   3.914   6.576 -1.4199 -1.4366  1.4493
   26CHL1    C9 3067   5.664   4.065   6.602 -0.6256 -0.5082 -0.6009
   26CHL1    H9 3068   5.756   4.125   6.591 -0.0821 -1.1692  0.2833
   26CHL1   C10 3069   5.671   4.050   6.757 -0.0347  0.3856  1.1741
   26CHL1   C19 3070   5.578   3.934   6.813  0.0069 -0.1664 -0.0026
   26CHL1  H19A 3071   5.600   3.916   6.921 -0.0460  2.0915  0.4362
   26CHL1  H19B 3072   5.468   3.949   6.808 -0.2265 -1.9299 -0.5658
   26CHL1  H19C 3073   5.600   3.834   6.770 -0.1127 -0.1193 -0.1742
   26CHL1    C1 3074   5.811   4.012   6.799  0.3148  0.9818 -0.0305
   26CHL1   H1A 3075   5.846   3.908   6.779  0.8989  0.9434  1.1160
   26CHL1   H1B 3076   5.887   4.072   6.745  1.2425 -0.4434 -0.3946
   26CHL1    C2 3077   5.841   4.033   6.949  0.6942  0.4668  0.4925
   26CHL1   H2A 3078   5.949   4.020   6.969  0.6577  2.8176  2.9129
   26CHL1   H2B 3079   5.786   3.958   7.010 -1.7133  0.0895 -1.9750
   26CHL1   C20 3080   5.601   3.989   6.055 -0.4184  0.4529 -0.1471
   26CHL1   H20 3081   5.517   3.916   6.056  0.4383 -0.5680  0.9174
   26CHL1   C21 3082   5.735   3.918   6.041 -0.0103  0.8841 -0.6566
   26CHL1  H21A 3083   5.763   3.870   6.137  2.7386  1.8854 -0.8420
   26CHL1  H21B 3084   5.821   3.986   6.021  0.2513 -0.1153 -3.3217
   26CHL1  H21C 3085   5.729   3.831   5.971 -0.2884  0.2698  0.1082
   26CHL1   C22 3086   5.584   4.075   5.926  0.1764 -0.6639  0.0599
   26CHL1  H22A 3087   5.482   4.119   5.933  0.1796 -0.8950  2.0664
   26CHL1  H22B 3088   5.656   4.160   5.935 -1.5375  0.6597  2.3433
   26CHL1   C23 3089   5.598   4.007   5.787  0.0576 -0.6351  0.1705
   26CHL1  H23A 3090   5.693   3.950   5.780  1.3501  1.0921  2.3383
   26CHL1  H23B 3091   5.512   3.938   5.771 -3.1595  2.3561  2.8631
   26CHL1   C24 3092   5.602   4.112   5.674  0.3262  0.2570 -0.4098
   26CHL1  H24A 3093   5.689   4.174   5.703  0.4309  0.1594 -0.5067
   26CHL1  H24B 3094   5.616   4.065   5.574 -0.3318  1.0017 -0.8673
   26CHL1   C25 3095   5.484   4.212   5.649  0.0197  0.5302 -0.2483
   26CHL1   H25 3096   5.469   4.248   5.753 -0.3471 -1.1754  0.3118
   26CHL1   C26 3097   5.529   4.328   5.560 -0.2690 -0.7394  0.0005
   26CHL1  H26A 3098   5.562   4.292   5.461  0.6671  0.9630 -0.3513
   26CHL1  H26B 3099   5.454   4.410   5.550  0.1615  0.0106  2.2320
   26CHL1  H26C 3100   5.626   4.369   5.595  0.7844 -2.9600 -0.1474
   26CHL1   C27 3101   5.360   4.146   5.606  0.1071  0.4277  0.5762
   26CHL1  H27A 3102   5.372   4.096   5.507 -0.7527  0.4580  0.4480
   26CHL1  H27B 3103   5.333   4.063   5.675  1.3203 -1.9184 -1.5532
   26CHL1  H27C 3104   5.276   4.219   5.606 -0.7977 -0.4419 -2.4093
   27CHL1    C3 3105   1.006   4.845   6.536  0.1190 -0.5212 -0.2764
   27CHL1    H3 3106   1.098   4.783   6.530 -1.7312 -3.4461 -0.2504
   27CHL1    O3 3107   0.959   4.845   6.670  0.1547  0.2632  0.0100
   27CHL1   H3' 3108   0.880   4.897   6.655 -0.9266 -1.1241  0.6455
   27CHL1    C4 3109   1.042   4.991   6.501 -0.8279  0.4449 -0.3241
   27CHL1   H4A 3110   0.957   5.057   6.529  0.3173  2.2047 -0.8427
   27CHL1   H4B 3111   1.129   5.017   6.565  0.3709 -0.9143 -1.3388
   27CHL1    C5 3112   1.081   4.995   6.357 -0.1563 -0.4539  0.4914
   27CHL1    C6 3113   1.200   5.051   6.319  0.1462 -0.2776  0.1687
   27CHL1    H6 3114   1.265   5.099   6.393  2.5354 -0.2615 -1.8092
   27CHL1    C7 3115   1.240   5.067   6.175  1.1416 -0.6287  0.5380
   27CHL1   H7A 3116   1.283   5.167   6.155  1.2527 -0.7307  0.2484
   27CHL1   H7B 3117   1.319   4.993   6.147 -0.7308 -2.1956 -0.9152
   27CHL1    C8 3118   1.122   5.038   6.073 -0.1340  0.6225  0.6279
   27CHL1    H8 3119   1.053   5.124   6.063 -0.8887  0.1478  1.6081
   27CHL1   C14 3120   1.183   5.014   5.936  0.9558  0.1193  0.0435
   27CHL1   H14 3121   1.253   4.928   5.936 -0.9702 -1.5265 -1.3763
   27CHL1   C15 3122   1.262   5.134   5.891 -0.4413 -0.0523  0.1179
   27CHL1  H15A 3123   1.212   5.230   5.914 -1.2554 -0.8761  2.0036
   27CHL1  H15B 3124   1.359   5.149   5.944 -1.1089  0.4840  1.2028
   27CHL1   C16 3125   1.269   5.117   5.738  0.0956  0.1450  0.0870
   27CHL1  H16A 3126   1.240   5.215   5.695  2.6328  0.8779 -0.1131
   27CHL1  H16B 3127   1.371   5.084   5.707  0.8781 -2.2216  4.3665
   27CHL1   C17 3128   1.169   5.007   5.693  0.1568 -0.2850 -0.4205
   27CHL1   H17 3129   1.225   4.911   5.698 -0.0947 -0.5243 -1.8095
   27CHL1   C13 3130   1.078   4.992   5.823 -0.1102  0.4759 -0.3134
   27CHL1   C18 3131   0.981   5.109   5.812  0.5745  0.3258 -0.0021
   27CHL1  H18A 3132   0.908   5.117   5.896 -0.6648 -0.7722 -0.9223
   27CHL1  H18B 3133   1.028   5.209   5.802 -1.0282  1.4164  2.4898
   27CHL1  H18C 3134   0.920   5.077   5.725  0.1132  0.5114  0.2476
   27CHL1   C12 3135   1.014   4.856   5.856  0.6671 -0.2749 -0.3701
   27CHL1  H12A 3136   0.932   4.855   5.781  0.8407 -1.1040 -0.5532
   27CHL1  H12B 3137   1.093   4.781   5.836  1.8894  1.1176 -1.0350
   27CHL1   C11 3138   0.949   4.855   6.000  0.6232 -0.0362 -0.0952
   27CHL1  H11A 3139   0.855   4.914   5.991  1.1744  0.7110 -1.2058
   27CHL1  H11B 3140   0.921   4.752   6.032  1.7322  0.3290  2.2675
   27CHL1    C9 3141   1.044   4.911   6.114  0.3775 -0.5391  0.3329
   27CHL1    H9 3142   1.123   4.834   6.126  1.0542  0.3907  2.2671
   27CHL1   C10 3143   0.985   4.922   6.255 -0.1916 -0.3502 -0.0913
   27CHL1   C19 3144   0.849   5.008   6.246 -0.3769  0.4811  0.1605
   27CHL1  H19A 3145   0.811   5.017   6.350 -0.0663 -1.1680  0.4535
   27CHL1  H19B 3146   0.870   5.103   6.192 -1.7920  1.1884  0.8031
   27CHL1  H19C 3147   0.769   4.956   6.190 -0.6873  0.6632  0.4355
   27CHL1    C1 3148   0.951   4.780   6.302  0.5044 -0.9061 -0.4105
   27CHL1   H1A 3149   0.882   4.736   6.227 -2.1741 -1.4380  2.1826
   27CHL1   H1B 3150   1.051   4.732   6.299  0.5016 -0.8949 -0.7062
   27CHL1    C2 3151   0.904   4.778   6.444  0.6147 -1.2844  0.1120
   27CHL1   H2A 3152   0.893   4.674   6.483  1.2315 -1.7858 -1.0033
   27CHL1   H2B 3153   0.811   4.838   6.440  1.0216 -0.6829 -0.5383
   27CHL1   C20 3154   1.115   5.020   5.551  0.1048 -0.0323  0.1222
   27CHL1   H20 3155   1.059   5.116   5.548  0.0760 -0.0719 -1.0884
   27CHL1   C21 3156   1.017   4.904   5.514  0.9676 -0.6930 -0.1367
   27CHL1  H21A 3157   1.066   4.805   5.515  0.0162 -1.2191 -1.9337
   27CHL1  H21B 3158   0.972   4.904   5.413 -0.2466 -3.7017  0.3282
   27CHL1  H21C 3159   0.934   4.900   5.588  0.2859 -1.6323 -0.9441
   27CHL1   C22 3160   1.221   5.017   5.432  0.1976 -0.5707 -0.4365
   27CHL1  H22A 3161   1.304   5.088   5.453 -0.4300  0.4828 -1.4423
   27CHL1  H22B 3162   1.269   4.919   5.411  1.1529 -0.3112  0.4167
   27CHL1   C23 3163   1.166   5.088   5.306 -0.3863  0.8228  0.3969
   27CHL1  H23A 3164   1.074   5.037   5.270 -0.2458  1.8672 -1.5791
   27CHL1  H23B 3165   1.129   5.189   5.336  1.0594  1.5086 -0.0450
   27CHL1   C24 3166   1.278   5.101   5.200  0.3166  0.4005 -0.1904
   27CHL1  H24A 3167   1.366   5.159   5.235  1.1876  0.1981 -1.9379
   27CHL1  H24B 3168   1.304   4.996   5.174  0.4853  1.0054 -2.7745
   27CHL1   C25 3169   1.224   5.184   5.076  0.1935 -0.1398  0.0561
   27CHL1   H25 3170   1.198   5.287   5.108  2.1736  1.5297 -3.1694
   27CHL1   C26 3171   1.330   5.204   4.971  0.9720  0.2105 -0.1246
   27CHL1  H26A 3172   1.353   5.106   4.923 -1.9449 -0.1672 -0.9521
   27CHL1  H26B 3173   1.290   5.281   4.902 -0.6665  1.9129  2.5305
   27CHL1  H26C 3174   1.425   5.248   5.007  0.7040  0.5568  0.1679
   27CHL1   C27 3175   1.096   5.127   5.009 -0.0288 -0.4529 -0.5613
   27CHL1  H27A 3176   1.101   5.022   4.972  0.5388  0.5078 -3.4902
   27CHL1  H27B 3177   1.063   5.184   4.920  1.9976  2.6268  0.5310
   27CHL1  H27C 3178   1.014   5.118   5.084 -0.5530 -1.1657 -1.1877
   28CHL1    C3 3179   6.144   5.146   6.901 -0.1938 -1.2174  0.0029
   28CHL1    H3 3180   6.081   5.236   6.919  1.1036 -0.2706 -0.0351
   28CHL1    O3 3181   6.213   5.138   7.027 -0.3140 -0.1594  0.3245
   28CHL1   H3' 3182   6.283   5.074   7.012  0.6502  1.2020 -1.2829
   28CHL1    C4 3183   6.069   5.020   6.874  0.3370  0.2383 -0.4859
   28CHL1   H4A 3184   6.144   4.941   6.896  1.2765  0.9699 -0.9825
   28CHL1   H4B 3185   5.989   5.012   6.950  1.1266  1.3030  0.5000
   28CHL1    C5 3186   6.017   5.005   6.733 -0.2773 -0.3152  0.1327
   28CHL1    C6 3187   5.895   4.960   6.708  0.0341  0.3575 -0.1336
   28CHL1    H6 3188   5.829   4.937   6.793  0.0325  0.3699 -0.1314
   28CHL1    C7 3189   5.843   4.935   6.572  0.1206 -0.0359  0.1615
   28CHL1   H7A 3190   5.799   4.834   6.578  0.0103 -0.2302 -2.6827
   28CHL1   H7B 3191   5.752   4.995   6.555  1.0569  1.2690 -0.4650
   28CHL1    C8 3192   5.945   4.941   6.452  0.0846 -0.1688 -0.1934
   28CHL1    H8 3193   5.983   4.838   6.439 -0.5815 -0.3977 -0.3472
   28CHL1   C14 3194   5.861   4.978   6.324  0.5973 -0.5539 -0.5197
   28CHL1   H14 3195   5.820   5.077   6.354  0.5172 -1.2543  1.8873
   28CHL1   C15 3196   5.739   4.888   6.300 -0.0129 -0.4027 -0.5728
   28CHL1  H15A 3197   5.764   4.779   6.303 -0.7910 -0.5685  0.8098
   28CHL1  H15B 3198   5.658   4.907   6.374  1.9862  1.4769  1.2567
   28CHL1   C16 3199   5.698   4.920   6.150  0.3519  0.0653  0.5106
   28CHL1  H16A 3200   5.701   4.826   6.091 -0.3647  1.5778 -2.0559
   28CHL1  H16B 3201   5.606   4.982   6.140 -0.0671 -0.7240 -0.7415
   28CHL1   C17 3202   5.816   5.001   6.092  0.4616  0.1795  0.4323
   28CHL1   H17 3203   5.785   5.107   6.105 -1.1162 -0.3529  1.2916
   28CHL1   C13 3204   5.933   4.985   6.194 -0.1407 -0.1211 -0.3140
   28CHL1   C18 3205   6.002   4.845   6.170  1.0717  0.3080  0.1307
   28CHL1  H18A 3206   6.073   4.845   6.085  0.4735 -0.2174 -0.3810
   28CHL1  H18B 3207   6.051   4.807   6.262 -0.8126  0.4377  1.2356
   28CHL1  H18C 3208   5.926   4.766   6.147  0.2647  1.3387 -0.8453
   28CHL1   C12 3209   6.051   5.088   6.215  0.8740 -0.5388  0.0667
   28CHL1  H12A 3210   6.126   5.080   6.133 -0.6356 -3.5272 -1.2041
   28CHL1  H12B 3211   6.005   5.189   6.217 -0.5564 -1.1665  0.0236
   28CHL1   C11 3212   6.131   5.083   6.349 -0.5410  0.8632  0.7634
   28CHL1  H11A 3213   6.203   5.000   6.338 -0.8967  0.7506 -0.9883
   28CHL1  H11B 3214   6.187   5.178   6.358  0.7440 -0.0005  2.3816
   28CHL1    C9 3215   6.045   5.050   6.473  0.2806 -0.0991 -0.2634
   28CHL1    H9 3216   5.987   5.142   6.499  1.8752  0.6330  0.8606
   28CHL1   C10 3217   6.111   5.045   6.617 -0.1876 -0.1643 -0.1282
   28CHL1   C19 3218   6.217   4.939   6.611 -0.9779 -1.0669  0.3877
   28CHL1  H19A 3219   6.174   4.844   6.571  0.1865 -1.3072 -0.3356
   28CHL1  H19B 3220   6.294   4.976   6.539 -2.7920  2.0368 -0.1171
   28CHL1  H19C 3221   6.260   4.912   6.710  5.4033 -2.3135 -2.2238
   28CHL1    C1 3222   6.171   5.186   6.646 -0.0490 -0.3269  0.2854
   28CHL1   H1A 3223   6.243   5.211   6.566  1.0716  1.6499  1.8321
   28CHL1   H1B 3224   6.096   5.269   6.646 -0.6012 -0.8151 -0.3752
   28CHL1    C2 3225   6.241   5.188   6.782  0.0917  0.3028  0.5860
   28CHL1   H2A 3226   6.282   5.289   6.806  0.8604  0.5395 -1.5766
   28CHL1   H2B 3227   6.324   5.115   6.778 -1.1336 -1.2235  1.6436
   28CHL1   C20 3228   5.837   4.973   5.949 -0.7002  0.4972 -0.6661
   28CHL1   H20 3229   5.873   4.870   5.933  2.9134  1.0954  2.2614
   28CHL1   C21 3230   5.955   5.052   5.890  0.8147  0.2550 -0.3035
   28CHL1  H21A 3231   5.987   5.015   5.790  0.7025 -1.1540  0.1640
   28CHL1  H21B 3232   6.040   5.027   5.957  0.2915 -2.0823 -0.4379
   28CHL1  H21C 3233   5.937   5.161   5.904 -1.2619 -0.1509  0.4924
   28CHL1   C22 3234   5.711   4.981   5.858 -0.4759  0.2158 -0.0316
   28CHL1  H22A 3235   5.666   4.881   5.876  0.1787 -0.5485 -2.3121
   28CHL1  H22B 3236   5.649   5.066   5.893  0.1201  0.1911  1.1371
   28CHL1   C23 3237   5.738   4.991   5.705 -0.0243  0.0138 -0.2458
   28CHL1  H23A 3238   5.805   5.078   5.691  0.5268 -0.4227 -0.3727
   28CHL1  H23B 3239   5.795   4.899   5.682  0.8471  0.4935 -0.0290
   28CHL1   C24 3240   5.617   4.986   5.620  0.1610  0.1904 -0.1956
   28CHL1  H24A 3241   5.542   4.921   5.669  1.2989 -0.0728  1.2804
   28CHL1  H24B 3242   5.582   5.090   5.603  0.6386  0.7458  1.9430
   28CHL1   C25 3243   5.647   4.929   5.482  0.2637 -0.1622 -0.2684
   28CHL1   H25 3244   5.751   4.956   5.455  0.3959  0.0322  0.4072
   28CHL1   C26 3245   5.647   4.777   5.494  0.4867 -1.0942  0.5913
   28CHL1  H26A 3246   5.727   4.749   5.565 -1.2424  0.4786  3.3598
   28CHL1  H26B 3247   5.552   4.738   5.538  0.3467 -2.5170 -0.8650
   28CHL1  H26C 3248   5.665   4.732   5.394 -1.6206 -2.1040  0.6073
   28CHL1   C27 3249   5.537   4.976   5.379 -0.4219 -0.2635  0.2695
   28CHL1  H27A 3250   5.529   5.087   5.385  2.2871  0.0547 -0.4620
   28CHL1  H27B 3251   5.568   4.945   5.277  1.0019  0.9884  0.2943
   28CHL1  H27C 3252   5.436   4.932   5.394 -0.6777 -0.0014 -0.6212
   29CHL1    C3 3253   2.052   4.255   6.545  0.0187  0.0918 -0.2782
   29CHL1    H3 3254   2.009   4.153   6.541  0.9506 -0.2751 -2.4529
   29CHL1    O3 3255   2.059   4.309   6.677  0.2617  0.2075 -0.0790
   29CHL1   H3' 3256   2.105   4.242   6.729 -0.9441 -0.2510  0.4244
   29CHL1    C4 3257   2.201   4.250   6.503  0.3892  0.1801  0.2986
   29CHL1   H4A 3258   2.236   4.353   6.522 -1.0771  0.5665  1.0430
   29CHL1   H4B 3259   2.245   4.173   6.570  2.2748  0.9760  0.0435
   29CHL1    C5 3260   2.221   4.222   6.355  0.3386  0.0860 -0.6198
   29CHL1    C6 3261   2.294   4.119   6.314  0.4103 -0.3401 -0.2003
   29CHL1    H6 3262   2.346   4.064   6.394 -1.3132  0.8709  1.8378
   29CHL1    C7 3263   2.323   4.089   6.169 -0.5246 -0.2761  0.4997
   29CHL1   H7A 3264   2.433   4.074   6.165 -0.7356 -1.6379 -1.7998
   29CHL1   H7B 3265   2.276   3.991   6.145  2.1357 -1.5221 -0.0184
   29CHL1    C8 3266   2.284   4.195   6.069  0.1002 -0.2573 -0.6021
   29CHL1    H8 3267   2.362   4.275   6.071 -0.0055 -0.0288 -3.1177
   29CHL1   C14 3268   2.274   4.137   5.926  0.1821 -0.8877 -0.3199
   29CHL1   H14 3269   2.194   4.061   5.945 -0.2261 -0.2650  0.5077
   29CHL1   C15 3270   2.399   4.065   5.869  0.9024  0.1372 -0.6071
   29CHL1  H15A 3271   2.487   4.133   5.875  0.9572  0.1108 -1.0800
   29CHL1  H15B 3272   2.428   3.977   5.931 -0.3269  0.9487  1.2045
   29CHL1   C16 3273   2.351   4.031   5.725  0.0399  0.2302 -0.1172
   29CHL1  H16A 3274   2.425   4.055   5.645 -0.8601  0.6158 -0.8515
   29CHL1  H16B 3275   2.324   3.924   5.712  0.2073  0.0499  0.9624
   29CHL1   C17 3276   2.230   4.128   5.694  0.9843  0.1530 -1.0648
   29CHL1   H17 3277   2.146   4.057   5.708  1.6211 -0.4131  0.0165
   29CHL1   C13 3278   2.217   4.218   5.814 -0.7569 -0.6397  0.1052
   29CHL1   C18 3279   2.307   4.335   5.789  0.0766 -0.0254  0.1134
   29CHL1  H18A 3280   2.408   4.296   5.760 -0.4000 -0.5719 -0.8902
   29CHL1  H18B 3281   2.280   4.415   5.717  0.9612  1.3534  1.2687
   29CHL1  H18C 3282   2.316   4.393   5.882  0.9874 -0.3514  0.2401
   29CHL1   C12 3283   2.087   4.282   5.863  0.1955  0.5763 -0.4376
   29CHL1  H12A 3284   2.043   4.350   5.786 -1.9378 -0.2584 -0.0375
   29CHL1  H12B 3285   2.008   4.204   5.867 -1.8977  2.5875 -0.4681
   29CHL1   C11 3286   2.075   4.348   5.998 -0.7622 -0.1164 -0.0415
   29CHL1  H11A 3287   2.123   4.447   5.983  0.5961 -0.9913 -1.7731
   29CHL1  H11B 3288   1.974   4.368   6.039  0.4497  0.8913  2.7055
   29CHL1    C9 3289   2.150   4.264   6.113  0.8213  0.4771 -0.0306
   29CHL1    H9 3290   2.081   4.177   6.117 -0.1018  1.1869 -0.2066
   29CHL1   C10 3291   2.149   4.318   6.254 -0.1990 -0.3217  0.0329
   29CHL1   C19 3292   2.195   4.470   6.244 -0.8667 -0.2251  0.1460
   29CHL1  H19A 3293   2.277   4.473   6.170 -0.6871 -0.2697  0.3422
   29CHL1  H19B 3294   2.107   4.528   6.209  0.5651  2.4163  0.6599
   29CHL1  H19C 3295   2.230   4.518   6.338  0.3318 -0.0215 -0.3827
   29CHL1    C1 3296   1.998   4.315   6.303 -0.8513 -0.0942 -0.0440
   29CHL1   H1A 3297   1.932   4.364   6.228 -0.2762 -1.6930 -1.6531
   29CHL1   H1B 3298   1.958   4.211   6.300  0.7881 -0.8363  1.6754
   29CHL1    C2 3299   1.987   4.358   6.447 -0.1959  0.4305 -0.0699
   29CHL1   H2A 3300   1.877   4.358   6.462 -0.1370 -0.1141  0.3613
   29CHL1   H2B 3301   2.015   4.466   6.457 -0.9499  0.9913 -3.0215
   29CHL1   C20 3302   2.222   4.190   5.556  0.4063  0.6937 -0.4451
   29CHL1   H20 3303   2.289   4.276   5.536 -0.6385  1.0698 -2.6984
   29CHL1   C21 3304   2.079   4.246   5.536  0.2312 -0.2603 -0.4166
   29CHL1  H21A 3305   1.998   4.189   5.587  1.3397  0.2086  2.0081
   29CHL1  H21B 3306   2.053   4.246   5.428  2.5116 -0.1121 -1.0076
   29CHL1  H21C 3307   2.074   4.350   5.574 -2.1621 -0.4641  0.0160
   29CHL1   C22 3308   2.244   4.074   5.451 -0.1096 -0.2703  0.7437
   29CHL1  H22A 3309   2.341   4.025   5.469  0.3150  1.1346  2.5661
   29CHL1  H22B 3310   2.171   3.995   5.481  0.5143 -0.8084  0.8592
   29CHL1   C23 3311   2.221   4.118   5.308 -0.7157  0.1454 -0.7046
   29CHL1  H23A 3312   2.214   4.027   5.244  2.2439 -1.9394  1.6501
   29CHL1  H23B 3313   2.131   4.177   5.279 -1.5248 -0.4856  0.4648
   29CHL1   C24 3314   2.344   4.191   5.244 -0.5580 -0.5940 -0.5969
   29CHL1  H24A 3315   2.318   4.296   5.269 -2.3246 -1.5748  2.0856
   29CHL1  H24B 3316   2.440   4.156   5.285 -1.7724 -5.2186 -1.0874
   29CHL1   C25 3317   2.347   4.190   5.087 -0.1624  0.2111 -0.0723
   29CHL1   H25 3318   2.352   4.086   5.051  1.0818  0.6805 -1.3247
   29CHL1   C26 3319   2.235   4.268   5.035  0.0808 -0.2399 -0.0677
   29CHL1  H26A 3320   2.138   4.213   5.042 -1.4121  2.0011 -1.7143
   29CHL1  H26B 3321   2.217   4.353   5.104  0.6767 -0.3775  0.2705
   29CHL1  H26C 3322   2.264   4.301   4.934 -0.1529  2.3145  0.6437
   29CHL1   C27 3323   2.480   4.247   5.038 -0.4347 -0.4841  0.1829
   29CHL1  H27A 3324   2.574   4.204   5.079 -0.6304 -0.9942  0.1109
   29CHL1  H27B 3325   2.486   4.203   4.936 -0.6571 -3.3507  1.3021
   29CHL1  H27C 3326   2.492   4.356   5.020 -1.7446 -0.3590 -0.0247
   30CHL1    C3 3327   4.226   5.776   6.750  0.0575 -0.7510 -0.1573
   30CHL1    H3 3328   4.275   5.876   6.753  0.7177 -1.0812  0.6983
   30CHL1    O3 3329   4.206   5.737   6.882 -0.9131  0.2017 -0.5001
   30CHL1   H3' 3330   4.291   5.737   6.926 -0.6438 -2.5215 -0.8422
   30CHL1    C4 3331   4.085   5.787   6.691 -0.2145 -0.0525  0.1579
   30CHL1   H4A 3332   4.027   5.695   6.709 -1.4766  0.7479  0.2816
   30CHL1   H4B 3333   4.029   5.865   6.747  1.5290  1.1922  0.2732
   30CHL1    C5 3334   4.088   5.802   6.541  0.3378 -0.0111 -0.3581
   30CHL1    C6 3335   4.029   5.911   6.497  0.6865 -0.1956  0.1630
   30CHL1    H6 3336   3.981   5.976   6.571 -1.8221 -1.9251  0.2153
   30CHL1    C7 3337   4.009   5.932   6.351  0.3484 -0.3682  0.0547
   30CHL1   H7A 3338   3.905   5.957   6.322 -0.4859 -0.2040  2.9093
   30CHL1   H7B 3339   4.069   6.022   6.325 -0.5158 -0.4169 -2.3674
   30CHL1    C8 3340   4.050   5.813   6.263  0.5977 -0.2001  0.4596
   30CHL1    H8 3341   3.972   5.734   6.265  0.2168  0.1702  0.3559
   30CHL1   C14 3342   4.064   5.852   6.116 -1.1119 -0.1474  0.1916
   30CHL1   H14 3343   4.151   5.920   6.110  0.6327 -2.3566 -1.1920
   30CHL1   C15 3344   3.947   5.914   6.048  0.4166 -0.2334  0.7265
   30CHL1  H15A 3345   3.853   5.858   6.065  1.1566 -1.2324  1.6614
   30CHL1  H15B 3346   3.928   6.022   6.067 -2.2375 -0.0533 -2.1814
   30CHL1   C16 3347   3.977   5.898   5.894  0.6817 -0.3726 -0.5669
   30CHL1  H16A 3348   3.888   5.849   5.848 -1.0407  0.7506  1.3871
   30CHL1  H16B 3349   4.013   5.990   5.844  1.3264 -0.2437  0.1065
   30CHL1   C17 3350   4.103   5.801   5.878 -0.1195 -0.2428 -0.0395
   30CHL1   H17 3351   4.195   5.859   5.856 -1.2929  0.9885 -1.9936
   30CHL1   C13 3352   4.110   5.737   6.023 -0.2216  0.0693  0.8606
   30CHL1   C18 3353   4.011   5.616   6.029 -0.1769  0.1016 -0.7325
   30CHL1  H18A 3354   4.048   5.535   5.962 -0.7112  0.0086 -0.9222
   30CHL1  H18B 3355   4.011   5.569   6.129  0.6735 -0.7269 -1.1017
   30CHL1  H18C 3356   3.910   5.644   5.991 -2.3167 -0.0378  4.1305
   30CHL1   C12 3357   4.249   5.701   6.076 -0.1665  0.7587  0.0345
   30CHL1  H12A 3358   4.302   5.624   6.016 -1.4042  1.3803 -1.9446
   30CHL1  H12B 3359   4.311   5.793   6.079  0.1892  0.5034  0.9349
   30CHL1   C11 3360   4.250   5.649   6.213  0.3930  0.3356 -0.1585
   30CHL1  H11A 3361   4.206   5.548   6.207 -0.8589  0.8955 -0.8656
   30CHL1  H11B 3362   4.355   5.628   6.245  0.6501  1.0524 -0.4992
   30CHL1    C9 3363   4.177   5.750   6.310 -0.1222 -0.1387 -0.1805
   30CHL1    H9 3364   4.244   5.838   6.323 -0.5183 -0.0210  1.3011
   30CHL1   C10 3365   4.167   5.707   6.464  0.5838  0.1031  0.0993
   30CHL1   C19 3366   4.103   5.572   6.464  0.0137  0.3017  0.3495
   30CHL1  H19A 3367   3.996   5.578   6.434  0.1144  1.9534  0.2072
   30CHL1  H19B 3368   4.149   5.488   6.408  0.4847  1.5751 -1.2942
   30CHL1  H19C 3369   4.097   5.532   6.567 -1.8879 -2.4132 -0.6970
   30CHL1    C1 3370   4.310   5.700   6.521  0.1260 -0.4679  0.5989
   30CHL1   H1A 3371   4.365   5.615   6.477  0.6390  0.4351 -0.5587
   30CHL1   H1B 3372   4.372   5.788   6.493 -2.0505  0.6519 -1.0779
   30CHL1    C2 3373   4.323   5.682   6.682 -0.7028 -0.4401 -0.1383
   30CHL1   H2A 3374   4.430   5.698   6.707 -0.6395 -0.0268 -0.6295
   30CHL1   H2B 3375   4.290   5.578   6.702 -2.4959 -0.0715 -0.9960
   30CHL1   C20 3376   4.084   5.712   5.756 -0.0605  0.2732  0.0171
   30CHL1   H20 3377   3.988   5.655   5.756  0.6524 -0.9736 -0.3600
   30CHL1   C21 3378   4.204   5.614   5.759 -0.1782  0.0741  0.0627
   30CHL1  H21A 3379   4.299   5.671   5.753 -0.2647  0.1267 -1.0471
   30CHL1  H21B 3380   4.197   5.553   5.667 -2.8454  0.1289  0.1644
   30CHL1  H21C 3381   4.213   5.541   5.843  2.3100 -2.6831 -2.3793
   30CHL1   C22 3382   4.087   5.798   5.628 -0.0469  0.8746  0.5286
   30CHL1  H22A 3383   3.989   5.847   5.612  0.5217  1.4647 -1.4454
   30CHL1  H22B 3384   4.160   5.882   5.631 -0.3138  1.1592 -0.4878
   30CHL1   C23 3385   4.100   5.705   5.506  0.3061  0.6924  0.1472
   30CHL1  H23A 3386   4.204   5.666   5.502 -0.4313 -1.3018 -0.7842
   30CHL1  H23B 3387   4.038   5.614   5.523  1.5883 -0.0345  1.0711
   30CHL1   C24 3388   4.055   5.780   5.381 -0.0419  0.2717 -0.5235
   30CHL1  H24A 3389   3.955   5.828   5.394 -0.0951 -0.3975  2.3598
   30CHL1  H24B 3390   4.137   5.846   5.348 -0.5006 -0.2774 -2.9344
   30CHL1   C25 3391   4.060   5.684   5.251 -0.8083  0.2260 -0.0486
   30CHL1   H25 3392   4.047   5.744   5.158 -1.9052 -0.8750 -0.6417
   30CHL1   C26 3393   4.201   5.619   5.235 -0.5670  0.0197 -0.4300
   30CHL1  H26A 3394   4.273   5.702   5.221  1.2651 -1.6527 -1.5292
   30CHL1  H26B 3395   4.228   5.560   5.325  1.0573  0.0162 -0.8942
   30CHL1  H26C 3396   4.210   5.555   5.145  1.9732  0.1676 -0.3533
   30CHL1   C27 3397   3.951   5.578   5.259 -0.7587 -0.0018  0.8490
   30CHL1  H27A 3398   3.975   5.510   5.344 -0.5175  0.4043  1.1131
   30CHL1  H27B 3399   3.852   5.620   5.286 -1.3256 -0.6424 -0.1834
   30CHL1  H27C 3400   3.939   5.524   5.163  2.6306 -1.1974  0.9684
   31CHL1    C3 3401   1.163   5.863   6.680  0.8466 -0.2843  0.1752
   31CHL1    H3 3402   1.166   5.757   6.645 -2.8686 -0.4772  0.0587
   31CHL1    O3 3403   1.155   5.864   6.823 -0.2887  0.4124  0.2436
   31CHL1   H3' 3404   1.168   5.956   6.847 -0.0828  0.7830 -1.1958
   31CHL1    C4 3405   1.284   5.936   6.629 -0.0684  0.2515  0.2466
   31CHL1   H4A 3406   1.296   6.034   6.681  0.9919  0.2903 -0.0608
   31CHL1   H4B 3407   1.376   5.885   6.664  0.3455  0.7065 -0.1619
   31CHL1    C5 3408   1.289   5.943   6.477  0.2349 -0.0387  0.2455
   31CHL1    C6 3409   1.391   5.898   6.407 -0.2633 -0.6341  0.2231
   31CHL1    H6 3410   1.490   5.876   6.449  0.9463  1.0573 -1.5284
   31CHL1    C7 3411   1.399   5.895   6.254 -0.7744 -0.1815 -0.3434
   31CHL1   H7A 3412   1.502   5.927   6.231 -0.3029 -2.4600 -1.6210
   31CHL1   H7B 3413   1.389   5.795   6.206 -2.1821 -0.2328 -0.0105
   31CHL1    C8 3414   1.292   5.986   6.183  0.2678  0.4247 -0.1465
   31CHL1    H8 3415   1.330   6.089   6.198 -0.0137  0.1569  3.1749
   31CHL1   C14 3416   1.287   5.945   6.039 -0.2057 -0.4598 -0.1717
   31CHL1   H14 3417   1.256   5.839   6.032  0.6147 -0.7803  0.8198
   31CHL1   C15 3418   1.421   5.938   5.965 -0.0259  0.1811  0.6369
   31CHL1  H15A 3419   1.496   6.008   6.006  0.6648 -0.5825  0.7099
   31CHL1  H15B 3420   1.471   5.839   5.973 -0.3867 -0.0121  0.5461
   31CHL1   C16 3421   1.383   5.957   5.813 -0.2540  0.3023 -0.0128
   31CHL1  H16A 3422   1.432   6.049   5.776 -1.8525  2.0823  2.0487
   31CHL1  H16B 3423   1.409   5.874   5.743 -0.2460  0.5298 -0.2827
   31CHL1   C17 3424   1.227   5.968   5.815 -0.8308  0.3008 -1.0044
   31CHL1   H17 3425   1.198   5.861   5.822  2.3703 -0.5931  0.2382
   31CHL1   C13 3426   1.196   6.027   5.957  0.3987  0.3499 -0.2029
   31CHL1   C18 3427   1.231   6.172   5.970  0.1982 -0.0757 -0.0036
   31CHL1  H18A 3428   1.338   6.191   5.947 -0.3366  2.0785 -0.9534
   31CHL1  H18B 3429   1.185   6.241   5.896  1.4458  1.8791  0.9346
   31CHL1  H18C 3430   1.234   6.213   6.073  1.8110  1.9692 -0.7812
   31CHL1   C12 3431   1.059   5.989   6.014 -0.0999 -0.4094 -0.4643
   31CHL1  H12A 3432   0.983   6.053   5.965 -0.6622 -0.7582 -0.0549
   31CHL1  H12B 3433   1.018   5.889   5.986  0.9399 -0.3817 -2.2230
   31CHL1   C11 3434   1.042   6.012   6.164  0.3464 -0.5276 -0.0558
   31CHL1  H11A 3435   1.033   6.122   6.174 -1.0689 -0.6382  0.0819
   31CHL1  H11B 3436   0.949   5.962   6.200  0.4578 -1.0346 -0.4578
   31CHL1    C9 3437   1.160   5.962   6.252  1.0536 -0.0149  0.7810
   31CHL1    H9 3438   1.144   5.852   6.252 -0.0046  0.0822 -1.2264
   31CHL1   C10 3439   1.161   5.997   6.403 -0.4664 -0.2317 -0.4286
   31CHL1   C19 3440   1.142   6.148   6.422 -0.7072 -0.5009  0.9052
   31CHL1  H19A 3441   1.045   6.183   6.383  1.0376  3.1787 -0.6196
   31CHL1  H19B 3442   1.155   6.166   6.531  2.4929  1.2676  0.3604
   31CHL1  H19C 3443   1.213   6.212   6.365  1.3163 -2.8255  0.6767
   31CHL1    C1 3444   1.040   5.921   6.464 -0.2932  0.3646 -0.0801
   31CHL1   H1A 3445   0.940   5.963   6.438 -0.8897  0.3458  2.0109
   31CHL1   H1B 3446   1.044   5.812   6.446 -0.9771  0.0582  1.4261
   31CHL1    C2 3447   1.043   5.933   6.616  0.5464  0.6201 -0.5582
   31CHL1   H2A 3448   0.945   5.897   6.654  0.4295  0.9172 -0.5805
   31CHL1   H2B 3449   1.038   6.039   6.649 -0.2297  0.5497 -0.4465
   31CHL1   C20 3450   1.170   6.036   5.691  0.3824 -0.6237  0.4907
   31CHL1   H20 3451   1.196   6.144   5.694 -1.2256 -0.2223  0.7033
   31CHL1   C21 3452   1.014   6.045   5.699  0.3851 -0.6945 -0.7189
   31CHL1  H21A 3453   0.972   6.136   5.746 -0.4270 -0.0208 -2.6879
   31CHL1  H21B 3454   0.965   5.956   5.746  1.3604  0.7875  3.5978
   31CHL1  H21C 3455   0.986   6.055   5.592 -0.2603 -0.5793 -0.5392
   31CHL1   C22 3456   1.216   5.988   5.541  0.3226 -0.1670 -0.2709
   31CHL1  H22A 3457   1.325   5.968   5.535  0.4500 -0.0281  1.2065
   31CHL1  H22B 3458   1.160   5.893   5.535  2.0973 -1.3072  0.5942
   31CHL1   C23 3459   1.183   6.084   5.429 -0.6578 -0.4632 -0.0783
   31CHL1  H23A 3460   1.094   6.147   5.450  1.2531  2.4320 -0.0728
   31CHL1  H23B 3461   1.266   6.157   5.426 -0.5497 -0.4350  1.9199
   31CHL1   C24 3462   1.179   6.005   5.297  0.7627 -0.4084 -0.6411
   31CHL1  H24A 3463   1.277   5.954   5.294  1.5685  0.8632  1.5498
   31CHL1  H24B 3464   1.098   5.929   5.306  2.1582 -1.7453  1.6311
   31CHL1   C25 3465   1.164   6.091   5.173  0.3209  0.4354 -0.0115
   31CHL1   H25 3466   1.249   6.162   5.185  0.6630 -0.1220  1.0356
   31CHL1   C26 3467   1.178   6.015   5.038  0.7111  0.9483  0.3844
   31CHL1  H26A 3468   1.140   6.078   4.955  1.8535  0.8268 -0.2449
   31CHL1  H26B 3469   1.288   6.007   5.034  0.7246 -1.1677  2.8422
   31CHL1  H26C 3470   1.120   5.921   5.045  0.8752  0.7364 -0.9276
   31CHL1   C27 3471   1.031   6.167   5.172  0.2707  0.0181 -0.1684
   31CHL1  H27A 3472   1.003   6.216   5.077 -2.5853  2.6671  1.8110
   31CHL1  H27B 3473   0.942   6.109   5.205  1.4051 -1.6633  0.0716
   31CHL1  H27C 3474   1.036   6.247   5.249 -0.6656 -1.8909  1.9910
   32CHL1    C3 3475   4.450   3.807   6.385  0.1152  0.3588 -0.0649
   32CHL1    H3 3476   4.521   3.721   6.381 -0.3545  0.0057 -1.0494
   32CHL1    O3 3477   4.420   3.850   6.520  0.8722  0.0817  0.4999
   32CHL1   H3' 3478   4.413   3.766   6.565  1.7598  0.1142  0.7185
   32CHL1    C4 3479   4.501   3.931   6.310 -0.6603 -0.0300  0.9735
   32CHL1   H4A 3480   4.429   4.015   6.314 -0.4812  0.1013  1.5015
   32CHL1   H4B 3481   4.591   3.975   6.357  0.1230  0.0778 -0.5645
   32CHL1    C5 3482   4.531   3.898   6.165 -0.3573  0.5985 -0.0359
   32CHL1    C6 3483   4.656   3.916   6.116 -0.0805  0.0242  0.1912
   32CHL1    H6 3484   4.737   3.952   6.181  0.1276 -1.1497  0.6000
   32CHL1    C7 3485   4.695   3.894   5.976 -0.0095 -0.1569  0.3244
   32CHL1   H7A 3486   4.755   3.984   5.947 -0.3930  0.3164  0.9849
   32CHL1   H7B 3487   4.756   3.801   5.980  2.3236  1.2810  0.4814
   32CHL1    C8 3488   4.564   3.876   5.888 -0.3094  0.7147  0.4141
   32CHL1    H8 3489   4.515   3.975   5.875 -2.2069  0.1959  2.7858
   32CHL1   C14 3490   4.600   3.831   5.751  0.3503  0.2542 -0.3632
   32CHL1   H14 3491   4.633   3.725   5.759 -1.4739 -0.4680 -1.5268
   32CHL1   C15 3492   4.708   3.904   5.677 -0.1632 -0.1115  0.4438
   32CHL1  H15A 3493   4.687   4.011   5.697  0.9287  0.0481  0.8058
   32CHL1  H15B 3494   4.814   3.880   5.700 -0.3567 -2.1741 -0.6251
   32CHL1   C16 3495   4.676   3.883   5.527  0.2747 -0.4459  0.2818
   32CHL1  H16A 3496   4.652   3.980   5.478  2.0936 -0.1718 -0.1418
   32CHL1  H16B 3497   4.762   3.835   5.475  0.3354 -2.5079  2.1257
   32CHL1   C17 3498   4.548   3.799   5.518  0.0897 -0.4179 -0.9201
   32CHL1   H17 3499   4.588   3.696   5.508 -0.3115 -1.1072  2.9582
   32CHL1   C13 3500   4.475   3.817   5.657  0.0699 -0.1617 -0.0004
   32CHL1   C18 3501   4.391   3.946   5.661 -0.0799  0.0631  1.0270
   32CHL1  H18A 3502   4.357   3.980   5.761  0.8760  1.8124  0.8028
   32CHL1  H18B 3503   4.450   4.031   5.620 -1.7253  1.5462  1.6192
   32CHL1  H18C 3504   4.296   3.935   5.606  0.1604  1.4076  0.2886
   32CHL1   C12 3505   4.395   3.699   5.714  0.1660 -0.5944 -0.0263
   32CHL1  H12A 3506   4.301   3.675   5.660  0.2132 -1.2630  0.1706
   32CHL1  H12B 3507   4.465   3.612   5.714  2.9753  1.4772 -1.6295
   32CHL1   C11 3508   4.354   3.729   5.857  0.2534 -0.4808 -0.2153
   32CHL1  H11A 3509   4.271   3.802   5.853  0.6122 -0.0676 -0.1549
   32CHL1  H11B 3510   4.313   3.633   5.896 -0.7896  0.1908  0.3975
   32CHL1    C9 3511   4.468   3.772   5.959  0.3131 -0.1998  1.1048
   32CHL1    H9 3512   4.534   3.689   5.992  0.7811 -1.1458 -1.9453
   32CHL1   C10 3513   4.410   3.827   6.093 -0.3807 -0.2669  0.2785
   32CHL1   C19 3514   4.310   3.946   6.070 -0.4220 -0.2367  0.4994
   32CHL1  H19A 3515   4.337   4.018   5.990 -0.6384 -1.1538 -0.4222
   32CHL1  H19B 3516   4.213   3.902   6.039  0.1326 -1.2823  0.1904
   32CHL1  H19C 3517   4.303   3.999   6.168  3.6698  0.6821  0.4929
   32CHL1    C1 3518   4.348   3.710   6.173 -0.1919  0.0557 -0.0780
   32CHL1   H1A 3519   4.262   3.663   6.120  0.0506 -0.1228 -0.3126
   32CHL1   H1B 3520   4.423   3.629   6.174 -1.3059 -1.0346 -1.1276
   32CHL1    C2 3521   4.324   3.751   6.320  0.1463 -0.2372  0.1628
   32CHL1   H2A 3522   4.271   3.675   6.381 -0.5121  0.1522  0.0869
   32CHL1   H2B 3523   4.253   3.836   6.320 -2.7983 -2.5211  1.6352
   32CHL1   C20 3524   4.462   3.834   5.395 -0.0264 -0.6654 -0.0698
   32CHL1   H20 3525   4.432   3.940   5.407 -1.8313 -1.1356 -0.1121
   32CHL1   C21 3526   4.339   3.746   5.398  0.2415  0.2841 -0.2343
   32CHL1  H21A 3527   4.292   3.740   5.298 -3.0069 -1.3954  1.2289
   32CHL1  H21B 3528   4.265   3.788   5.470  0.6830  0.5242  0.0858
   32CHL1  H21C 3529   4.365   3.646   5.438 -0.9102  1.2674  3.4343
   32CHL1   C22 3530   4.527   3.827   5.253  0.0751 -0.9079 -0.1840
   32CHL1  H22A 3531   4.454   3.845   5.171  0.0692  1.8074  0.3362
   32CHL1  H22B 3532   4.594   3.913   5.234 -0.6324 -0.2832  0.0785
   32CHL1   C23 3533   4.595   3.689   5.227  0.0839 -0.5966 -0.3940
   32CHL1  H23A 3534   4.678   3.674   5.299  1.1183  1.1661 -1.1611
   32CHL1  H23B 3535   4.520   3.607   5.238  0.5983 -1.2895 -1.8131
   32CHL1   C24 3536   4.638   3.683   5.079 -0.1604  0.0203  0.0788
   32CHL1  H24A 3537   4.549   3.677   5.013 -0.7296  0.5081  0.7829
   32CHL1  H24B 3538   4.691   3.779   5.059 -0.2745  0.2429  0.8202
   32CHL1   C25 3539   4.735   3.567   5.037  0.3140  1.2488 -0.5353
   32CHL1   H25 3540   4.826   3.566   5.100  1.7265  0.9112 -2.4613
   32CHL1   C26 3541   4.663   3.431   5.049  0.6891 -0.0359  0.2125
   32CHL1  H26A 3542   4.574   3.424   4.983  0.6251 -0.5692  0.3576
   32CHL1  H26B 3543   4.736   3.359   5.006 -0.2484  0.3790 -2.2585
   32CHL1  H26C 3544   4.642   3.390   5.150  0.7668 -0.1549  0.1795
   32CHL1   C27 3545   4.783   3.571   4.891  0.6074  0.2217 -0.2784
   32CHL1  H27A 3546   4.695   3.555   4.825  1.9489 -2.2993 -1.6054
   32CHL1  H27B 3547   4.826   3.670   4.867  0.9730  0.0297 -0.4231
   32CHL1  H27C 3548   4.861   3.494   4.875  0.8935  0.2706  0.8036
   33CHL1    C3 3549   0.198   5.429   6.449  0.2181 -0.4667  0.4049
   33CHL1    H3 3550   0.251   5.522   6.418  1.0568 -0.8896  0.5353
   33CHL1    O3 3551   0.133   5.470   6.568 -0.3501 -0.1917 -0.1349
   33CHL1   H3' 3552   0.182   5.426   6.638  0.6641 -0.5615 -1.0426
   33CHL1    C4 3553   0.090   5.380   6.350  1.0669 -0.1583 -0.5059
   33CHL1   H4A 3554   0.039   5.293   6.398 -0.5775  1.5770  1.0891
   33CHL1   H4B 3555   0.008   5.455   6.345 -0.1663 -1.4501 -0.3621
   33CHL1    C5 3556   0.148   5.337   6.217  0.3001 -0.1761  0.1914
   33CHL1    C6 3557   0.103   5.400   6.106 -0.0132  0.6926  0.0010
   33CHL1    H6 3558   0.026   5.479   6.111 -0.6828  0.0904 -0.7476
   33CHL1    C7 3559   0.164   5.358   5.974 -0.4234 -1.0261  0.0305
   33CHL1   H7A 3560   0.082   5.349   5.900  1.2547  0.7806 -2.1849
   33CHL1   H7B 3561   0.231   5.437   5.933 -0.3465 -0.5641  1.0055
   33CHL1    C8 3562   0.235   5.219   5.977  0.7402  1.2087  0.4235
   33CHL1    H8 3563   0.157   5.140   5.986  1.3650  0.7630  2.7663
   33CHL1   C14 3564   0.319   5.201   5.851  0.3591  0.5325 -0.2891
   33CHL1   H14 3565   0.400   5.277   5.855  0.9134 -0.0930  0.9022
   33CHL1   C15 3566   0.243   5.219   5.717 -0.0394  0.8694 -0.0894
   33CHL1  H15A 3567   0.149   5.161   5.723 -0.4406  1.5526  0.3548
   33CHL1  H15B 3568   0.217   5.325   5.696  1.6895  1.4016  0.2472
   33CHL1   C16 3569   0.335   5.161   5.608  0.7857  0.8146  0.2097
   33CHL1  H16A 3570   0.279   5.081   5.555 -0.5435  0.7831  1.5949
   33CHL1  H16B 3571   0.387   5.229   5.537  1.8310 -2.0167 -1.9683
   33CHL1   C17 3572   0.452   5.082   5.685 -0.2043 -0.4997 -0.1770
   33CHL1   H17 3573   0.530   5.160   5.702 -0.3324 -0.5035  0.4485
   33CHL1   C13 3574   0.392   5.068   5.832 -0.5550 -0.0770 -0.3389
   33CHL1   C18 3575   0.301   4.946   5.829  0.2612  0.1863 -0.8793
   33CHL1  H18A 3576   0.247   4.951   5.926 -0.1914  1.8781 -1.2003
   33CHL1  H18B 3577   0.224   4.945   5.748  0.6612  0.2287 -1.2598
   33CHL1  H18C 3578   0.361   4.853   5.830 -1.4837 -1.0129  0.5827
   33CHL1   C12 3579   0.499   5.074   5.946 -0.1583  0.5635  0.4659
   33CHL1  H12A 3580   0.546   4.973   5.952 -2.9643 -0.8101  0.8019
   33CHL1  H12B 3581   0.580   5.148   5.927  0.4659 -0.4260 -0.9389
   33CHL1   C11 3582   0.427   5.080   6.080 -0.5450  0.8354  0.1353
   33CHL1  H11A 3583   0.382   4.979   6.093  0.2288  0.2968 -1.2167
   33CHL1  H11B 3584   0.504   5.085   6.160 -0.0075 -1.6121 -0.1496
   33CHL1    C9 3585   0.331   5.206   6.093  0.3706 -0.3163 -0.1066
   33CHL1    H9 3586   0.404   5.289   6.091  0.5691 -0.4938 -0.2522
   33CHL1   C10 3587   0.253   5.227   6.225  0.5861 -1.0686 -0.7531
   33CHL1   C19 3588   0.182   5.098   6.274  0.2242 -0.3275  0.1443
   33CHL1  H19A 3589   0.143   5.109   6.378  0.6905 -2.3970  0.5737
   33CHL1  H19B 3590   0.103   5.075   6.200  1.8950  1.4713 -2.3561
   33CHL1  H19C 3591   0.253   5.013   6.279  0.1063 -0.4512 -0.2770
   33CHL1    C1 3592   0.355   5.267   6.340 -0.3108 -0.1086  0.2525
   33CHL1   H1A 3593   0.411   5.172   6.353 -0.6758 -0.1782  1.4235
   33CHL1   H1B 3594   0.430   5.336   6.296  0.9087 -1.9282 -0.6552
   33CHL1    C2 3595   0.306   5.319   6.472 -0.1168 -0.3475  0.3005
   33CHL1   H2A 3596   0.391   5.366   6.527 -0.3813 -0.1879  0.5761
   33CHL1   H2B 3597   0.258   5.240   6.534  0.3269 -2.5528 -2.0099
   33CHL1   C20 3598   0.516   4.958   5.617  0.7520 -0.0542 -0.5936
   33CHL1   H20 3599   0.441   4.876   5.620  0.1751  0.4829  0.3467
   33CHL1   C21 3600   0.640   4.919   5.694 -0.5607  0.0624 -0.5381
   33CHL1  H21A 3601   0.711   4.856   5.635 -0.6378 -1.9151  1.3211
   33CHL1  H21B 3602   0.615   4.860   5.785 -1.8288 -0.7559 -1.3798
   33CHL1  H21C 3603   0.686   5.012   5.734 -2.1171  1.0679 -1.0126
   33CHL1   C22 3604   0.566   4.988   5.472  0.1791 -0.3579 -0.2587
   33CHL1  H22A 3605   0.613   4.902   5.419  1.0355  1.3637 -2.4359
   33CHL1  H22B 3606   0.476   5.016   5.412  0.9626 -0.5171 -1.5517
   33CHL1   C23 3607   0.675   5.094   5.464 -0.2053 -0.2649  0.1139
   33CHL1  H23A 3608   0.641   5.188   5.511  1.7597  1.9236 -2.5004
   33CHL1  H23B 3609   0.766   5.050   5.512 -0.6684 -1.0185  0.3237
   33CHL1   C24 3610   0.709   5.133   5.315  1.0107 -0.6635 -0.7793
   33CHL1  H24A 3611   0.802   5.195   5.319 -0.7252  2.2393 -1.8167
   33CHL1  H24B 3612   0.734   5.049   5.247  0.7951 -0.1206 -1.5537
   33CHL1   C25 3613   0.589   5.206   5.245 -1.0422 -0.6724 -0.5513
   33CHL1   H25 3614   0.496   5.146   5.253 -0.5215 -1.8530 -2.5308
   33CHL1   C26 3615   0.580   5.339   5.317  0.4616  0.6399  0.3885
   33CHL1  H26A 3616   0.598   5.349   5.426 -0.5635  1.2339  0.5220
   33CHL1  H26B 3617   0.641   5.415   5.262  0.4139  0.7749  0.5217
   33CHL1  H26C 3618   0.477   5.380   5.304  1.0163  1.4322 -2.1318
   33CHL1   C27 3619   0.626   5.221   5.099  0.4141 -0.2495  0.0338
   33CHL1  H27A 3620   0.709   5.294   5.082  1.2359 -0.7971  1.5126
   33CHL1  H27B 3621   0.651   5.124   5.051  0.2869 -0.6251  0.7145
   33CHL1  H27C 3622   0.537   5.267   5.052  0.8219  0.6713  0.1303
   34CHL1    C3 3623   4.013   4.907   6.520  0.7121 -0.4791  0.6022
   34CHL1    H3 3624   4.112   4.882   6.476  0.4294 -0.6338  0.0410
   34CHL1    O3 3625   4.004   4.877   6.659 -0.5584  0.0726 -0.4190
   34CHL1   H3' 3626   4.045   4.953   6.700  0.3269 -0.7088  0.1824
   34CHL1    C4 3627   3.979   5.053   6.490  0.6369  0.8851  0.0303
   34CHL1   H4A 3628   3.890   5.082   6.551  1.1925  1.3880  0.6073
   34CHL1   H4B 3629   4.061   5.119   6.527 -0.9345  1.8189  2.1239
   34CHL1    C5 3630   3.948   5.076   6.343  0.5723  0.4892  0.0535
   34CHL1    C6 3631   4.010   5.177   6.278  0.9216  0.6788  0.2041
   34CHL1    H6 3632   4.091   5.228   6.332  0.4742  1.9482 -0.2985
   34CHL1    C7 3633   3.974   5.211   6.136  0.0395 -0.1499  0.4089
   34CHL1   H7A 3634   3.968   5.319   6.114 -0.6726  0.0023  1.2938
   34CHL1   H7B 3635   4.054   5.164   6.074 -1.3024 -2.1334  0.0575
   34CHL1    C8 3636   3.837   5.155   6.085  0.0973  0.5926  0.3774
   34CHL1    H8 3637   3.758   5.216   6.132 -0.5146  0.2700 -0.2150
   34CHL1   C14 3638   3.828   5.164   5.929  0.0536 -0.6726  0.0928
   34CHL1   H14 3639   3.890   5.086   5.880 -0.2963 -0.2428 -1.0779
   34CHL1   C15 3640   3.869   5.293   5.868  0.3562 -0.4367 -0.6322
   34CHL1  H15A 3641   3.811   5.377   5.911 -0.6439 -0.6636 -1.5026
   34CHL1  H15B 3642   3.978   5.317   5.875  0.1957  0.3661 -0.7421
   34CHL1   C16 3643   3.818   5.270   5.724 -0.2312  0.0543  0.0657
   34CHL1  H16A 3644   3.794   5.368   5.677 -1.1191  1.3516  2.9987
   34CHL1  H16B 3645   3.912   5.242   5.672 -1.2507 -0.4341 -1.5824
   34CHL1   C17 3646   3.716   5.157   5.722  0.3288 -0.6457  0.1385
   34CHL1   H17 3647   3.757   5.061   5.685  1.5363  0.5688 -1.8719
   34CHL1   C13 3648   3.688   5.134   5.874 -0.3790 -0.2976  0.5535
   34CHL1   C18 3649   3.587   5.244   5.926 -0.5224 -0.0640  0.2253
   34CHL1  H18A 3650   3.609   5.342   5.879  2.1512 -1.4789 -1.8618
   34CHL1  H18B 3651   3.485   5.213   5.894 -1.3019  0.8466  1.7394
   34CHL1  H18C 3652   3.572   5.256   6.035 -4.0101  0.4813 -0.2035
   34CHL1   C12 3653   3.651   4.994   5.915  0.1961 -0.4927  0.3969
   34CHL1  H12A 3654   3.545   4.964   5.905  0.1540 -1.0051  2.0119
   34CHL1  H12B 3655   3.715   4.927   5.854  0.3207  2.2201 -2.7204
   34CHL1   C11 3656   3.681   4.965   6.064  0.5999  0.1506  0.6736
   34CHL1  H11A 3657   3.610   5.023   6.127  3.0342  0.8257  2.9781
   34CHL1  H11B 3658   3.668   4.856   6.076 -0.0108  0.0688 -0.5404
   34CHL1    C9 3659   3.817   5.012   6.122 -0.1347  0.6163 -0.4514
   34CHL1    H9 3660   3.895   4.950   6.072  1.2307  1.1488  0.9395
   34CHL1   C10 3661   3.833   4.994   6.277 -0.1913  0.3503 -0.2286
   34CHL1   C19 3662   3.691   5.021   6.346 -1.0425 -0.7533 -0.3470
   34CHL1  H19A 3663   3.692   5.024   6.457  3.2307  3.2587 -0.1571
   34CHL1  H19B 3664   3.657   5.119   6.307  2.4792  0.2317 -1.3240
   34CHL1  H19C 3665   3.623   4.942   6.309  0.1560 -1.5621 -0.9038
   34CHL1    C1 3666   3.880   4.851   6.306 -0.1205  0.1931 -0.0184
   34CHL1   H1A 3667   3.811   4.777   6.259  2.0066 -0.9827 -1.4570
   34CHL1   H1B 3668   3.971   4.833   6.246  0.8711  0.2479  1.4318
   34CHL1    C2 3669   3.908   4.819   6.451  0.1795  0.5895  0.9153
   34CHL1   H2A 3670   3.952   4.717   6.442 -2.3525 -0.4747 -0.4080
   34CHL1   H2B 3671   3.812   4.809   6.506 -0.0470 -0.3272  0.3805
   34CHL1   C20 3672   3.601   5.190   5.629  0.2844  0.1448 -0.1097
   34CHL1   H20 3673   3.548   5.280   5.666 -2.2234 -1.0640 -0.5414
   34CHL1   C21 3674   3.490   5.083   5.629  0.6047  0.4752 -0.2891
   34CHL1  H21A 3675   3.465   5.063   5.735 -0.4874  3.3157  0.0969
   34CHL1  H21B 3676   3.527   4.987   5.586 -2.0235 -0.7800  0.0724
   34CHL1  H21C 3677   3.394   5.126   5.593  0.0782  0.5939  1.2077
   34CHL1   C22 3678   3.637   5.225   5.487  0.6965 -0.3076  0.4620
   34CHL1  H22A 3679   3.745   5.252   5.485  1.0597 -1.5842  1.6594
   34CHL1  H22B 3680   3.649   5.134   5.426  2.2263 -0.3219  0.7387
   34CHL1   C23 3681   3.543   5.316   5.410 -0.3401 -0.0360 -0.1185
   34CHL1  H23A 3682   3.443   5.268   5.415  0.5431 -1.9283  0.3253
   34CHL1  H23B 3683   3.541   5.413   5.464  0.6555  0.1172 -0.3430
   34CHL1   C24 3684   3.582   5.329   5.261  0.4762 -0.1778  0.7645
   34CHL1  H24A 3685   3.689   5.350   5.242 -0.0599 -0.9671 -4.3770
   34CHL1  H24B 3686   3.573   5.231   5.210 -0.4521  0.2341  0.1064
   34CHL1   C25 3687   3.515   5.441   5.185 -0.9918 -0.3172 -0.0692
   34CHL1   H25 3688   3.528   5.432   5.075 -2.1258 -1.5572 -0.1286
   34CHL1   C26 3689   3.361   5.422   5.191  0.1707 -0.1758  0.3115
   34CHL1  H26A 3690   3.321   5.441   5.293  0.9033 -0.7917  0.7335
   34CHL1  H26B 3691   3.314   5.497   5.124  2.9921  0.9039 -0.6189
   34CHL1  H26C 3692   3.329   5.322   5.157 -0.4907  0.4160 -0.8514
   34CHL1   C27 3693   3.561   5.580   5.230 -0.6174  0.0316 -0.4137
   34CHL1  H27A 3694   3.527   5.593   5.335  0.4242  0.2533 -0.0908
   34CHL1  H27B 3695   3.670   5.596   5.220 -0.9948  1.3891 -3.4823
   34CHL1  H27C 3696   3.525   5.656   5.157  2.5300  0.7379 -1.3760
   35CHL1    C3 3697   3.536   0.525   6.387  0.3717 -1.0404  0.0715
   35CHL1    H3 3698   3.440   0.533   6.331  0.7415  2.8662 -0.2915
   35CHL1    O3 3699   3.510   0.442   6.500 -0.2833  0.4021 -1.0415
   35CHL1   H3' 3700   3.426   0.398   6.490 -0.2208 -0.0596  0.3724
   35CHL1    C4 3701   3.637   0.453   6.293 -0.2435  0.6527 -0.1133
   35CHL1   H4A 3702   3.721   0.421   6.358  0.1851 -1.0528 -1.4535
   35CHL1   H4B 3703   3.585   0.360   6.262  0.1217 -0.0159  1.1840
   35CHL1    C5 3704   3.685   0.531   6.174  0.5469 -0.3760 -0.6250
   35CHL1    C6 3705   3.674   0.477   6.055 -0.2808  0.3204 -0.5646
   35CHL1    H6 3706   3.636   0.374   6.052  1.3715 -0.5306  2.7956
   35CHL1    C7 3707   3.721   0.543   5.926  0.1385 -0.0845  0.5200
   35CHL1   H7A 3708   3.787   0.483   5.861  2.0677  2.6828 -0.2673
   35CHL1   H7B 3709   3.636   0.570   5.861  0.1433 -0.6530  0.2703
   35CHL1    C8 3710   3.796   0.675   5.956 -0.2371  0.0943  0.1700
   35CHL1    H8 3711   3.904   0.654   5.970 -0.0560  0.5138 -0.5766
   35CHL1   C14 3712   3.793   0.759   5.829 -0.4552 -0.0061  0.0302
   35CHL1   H14 3713   3.687   0.778   5.804 -0.4672  3.5601  2.0932
   35CHL1   C15 3714   3.865   0.701   5.701  0.0381 -0.2109 -0.0920
   35CHL1  H15A 3715   3.965   0.663   5.732  0.1180  0.4778  0.5245
   35CHL1  H15B 3716   3.808   0.615   5.660 -1.2210 -0.4040  1.9069
   35CHL1   C16 3717   3.867   0.825   5.609  0.6585  0.4183  0.4119
   35CHL1  H16A 3718   3.968   0.833   5.564  1.3361 -0.3451  1.7355
   35CHL1  H16B 3719   3.787   0.817   5.532  1.0204 -2.0022  0.2287
   35CHL1   C17 3720   3.835   0.952   5.695 -0.4224  0.2956 -0.3954
   35CHL1   H17 3721   3.729   0.984   5.687  0.1318  1.6968 -4.9001
   35CHL1   C13 3722   3.854   0.902   5.839  0.4355  0.5130 -0.4458
   35CHL1   C18 3723   4.003   0.885   5.871  0.1159 -0.0730  0.4266
   35CHL1  H18A 3724   4.015   0.796   5.936 -0.6672 -1.1823 -0.8990
   35CHL1  H18B 3725   4.072   0.848   5.792  2.8332 -3.0919  3.8854
   35CHL1  H18C 3726   4.047   0.977   5.914 -1.3286 -0.3702  2.7185
   35CHL1   C12 3727   3.770   0.974   5.955 -0.4856 -0.4670 -0.1595
   35CHL1  H12A 3728   3.805   1.079   5.962  0.0337 -0.6049 -0.6159
   35CHL1  H12B 3729   3.663   0.984   5.925  0.1358  1.5926 -2.0069
   35CHL1   C11 3730   3.775   0.907   6.088 -0.1822  0.2100 -0.5642
   35CHL1  H11A 3731   3.881   0.901   6.120  0.5489  1.2369 -2.6389
   35CHL1  H11B 3732   3.714   0.957   6.166 -0.1104 -1.0018  0.3033
   35CHL1    C9 3733   3.734   0.759   6.073 -0.2281  0.7705 -0.5749
   35CHL1    H9 3734   3.626   0.761   6.046 -0.2356 -0.4896 -0.6941
   35CHL1   C10 3735   3.721   0.674   6.206  0.7202  0.3329 -0.2967
   35CHL1   C19 3736   3.857   0.671   6.270 -0.5408  0.3115  0.5864
   35CHL1  H19A 3737   3.942   0.621   6.218 -0.6658  0.8243 -0.1185
   35CHL1  H19B 3738   3.906   0.770   6.283  0.2522  0.0298 -0.1349
   35CHL1  H19C 3739   3.854   0.625   6.371  1.0597 -1.5037 -0.1472
   35CHL1    C1 3740   3.616   0.750   6.295 -0.4726  0.1754  0.5780
   35CHL1   H1A 3741   3.650   0.850   6.330  0.3048 -0.2031  0.9377
   35CHL1   H1B 3742   3.518   0.748   6.243 -0.6404 -1.3899  0.8827
   35CHL1    C2 3743   3.579   0.670   6.422 -0.6869 -0.1780  0.4434
   35CHL1   H2A 3744   3.496   0.719   6.478  0.1558 -1.7372  3.2881
   35CHL1   H2B 3745   3.676   0.673   6.476 -0.8021  0.6737  0.6173
   35CHL1   C20 3746   3.916   1.069   5.632 -0.1475 -0.3238 -0.1239
   35CHL1   H20 3747   4.025   1.047   5.625 -0.4814 -1.9934 -0.5188
   35CHL1   C21 3748   3.903   1.192   5.723  0.2623 -0.0845  0.2015
   35CHL1  H21A 3749   3.946   1.278   5.668 -0.0636 -0.2345 -0.2976
   35CHL1  H21B 3750   3.955   1.175   5.819 -0.6425  1.0989  0.9181
   35CHL1  H21C 3751   3.800   1.216   5.757 -0.2176 -1.9234  0.1807
   35CHL1   C22 3752   3.890   1.104   5.486 -0.9729 -0.1526  0.7580
   35CHL1  H22A 3753   3.963   1.182   5.456  1.3066 -2.2731  0.3807
   35CHL1  H22B 3754   3.924   1.022   5.419 -0.7290  2.9496 -3.2251
   35CHL1   C23 3755   3.744   1.129   5.455  0.5039  0.1322 -0.1171
   35CHL1  H23A 3756   3.698   1.030   5.430 -1.2019  0.8656 -0.0511
   35CHL1  H23B 3757   3.701   1.172   5.548 -0.8288 -0.4816 -0.4160
   35CHL1   C24 3758   3.716   1.223   5.343  0.1794  0.7919  0.1252
   35CHL1  H24A 3759   3.763   1.319   5.376  2.2849  0.2747 -1.1419
   35CHL1  H24B 3760   3.752   1.206   5.239  1.2095 -0.6204  0.6685
   35CHL1   C25 3761   3.561   1.252   5.321 -0.2902 -0.5895 -0.2582
   35CHL1   H25 3762   3.509   1.252   5.419  0.4734  2.2922  0.2249
   35CHL1   C26 3763   3.560   1.393   5.259 -0.6665  0.4399 -0.2673
   35CHL1  H26A 3764   3.649   1.418   5.197 -0.0412  1.6644  1.0600
   35CHL1  H26B 3765   3.472   1.397   5.192 -0.9621 -4.5835 -0.5914
   35CHL1  H26C 3766   3.549   1.473   5.335 -1.8219  0.3396 -0.3177
   35CHL1   C27 3767   3.501   1.144   5.230 -0.0429 -0.3177 -0.3049
   35CHL1  H27A 3768   3.553   1.133   5.132 -0.7994  0.4964 -0.8136
   35CHL1  H27B 3769   3.502   1.044   5.279  0.1235 -1.2891 -2.1807
   35CHL1  H27C 3770   3.398   1.172   5.199 -0.0817  1.0071  0.9041
   36CHL1    C3 3771   6.440   5.754   6.688  0.9678  0.2780  0.6525
   36CHL1    H3 3772   6.452   5.857   6.648  1.1952 -0.5234 -1.4689
   36CHL1    O3 3773   6.468   5.748   6.826 -0.1004  0.2946 -0.1433
   36CHL1   H3' 3774   6.519   5.667   6.835 -1.3936 -0.5188  0.0389
   36CHL1    C4 3775   6.304   5.696   6.674 -0.3912 -0.1712  0.0396
   36CHL1   H4A 3776   6.313   5.594   6.716  0.5013  0.4176  1.3624
   36CHL1   H4B 3777   6.224   5.737   6.741  0.7004  2.1190  0.0412
   36CHL1    C5 3778   6.254   5.702   6.532  0.0552 -0.0936 -0.1605
   36CHL1    C6 3779   6.146   5.762   6.494 -0.0059 -0.8645 -0.0812
   36CHL1    H6 3780   6.097   5.827   6.569  1.5751  0.8790 -0.4893
   36CHL1    C7 3781   6.087   5.736   6.352 -0.1823 -0.0697 -0.0696
   36CHL1   H7A 3782   5.978   5.719   6.352 -0.3415  0.8731 -0.4621
   36CHL1   H7B 3783   6.085   5.841   6.314  1.2948 -0.4669 -1.4085
   36CHL1    C8 3784   6.159   5.636   6.257 -0.2728  1.2769 -0.2986
   36CHL1    H8 3785   6.120   5.537   6.290  1.3989  1.1242  1.4192
   36CHL1   C14 3786   6.135   5.665   6.114  0.1313 -0.3901 -0.4577
   36CHL1   H14 3787   6.172   5.767   6.092 -2.9782  0.4889 -2.1356
   36CHL1   C15 3788   5.987   5.679   6.072  0.6198 -0.0525 -0.3637
   36CHL1  H15A 3789   5.927   5.599   6.118  0.6950 -0.8355 -1.5898
   36CHL1  H15B 3790   5.954   5.777   6.113 -1.1927 -0.3793 -0.9458
   36CHL1   C16 3791   5.990   5.681   5.920  0.2721 -0.3589 -0.5737
   36CHL1  H16A 3792   5.908   5.620   5.876  0.7118 -1.0860 -0.4018
   36CHL1  H16B 3793   5.981   5.784   5.879  0.1942  1.3633  3.3469
   36CHL1   C17 3794   6.135   5.632   5.882 -0.4533  0.4555  0.9775
   36CHL1   H17 3795   6.188   5.725   5.855 -0.1389 -0.1241 -0.4936
   36CHL1   C13 3796   6.199   5.573   6.012  1.5616  0.3178 -0.2929
   36CHL1   C18 3797   6.132   5.435   6.031 -0.7872  0.4046 -0.6501
   36CHL1  H18A 3798   6.024   5.432   6.004 -0.7874 -2.2050 -0.6067
   36CHL1  H18B 3799   6.177   5.349   5.977 -1.0210  0.7946 -1.4672
   36CHL1  H18C 3800   6.130   5.412   6.140 -0.4944  2.8511 -0.0671
   36CHL1   C12 3801   6.350   5.573   6.037 -0.0387 -0.2753 -0.1167
   36CHL1  H12A 3802   6.397   5.488   5.984 -0.0247 -0.9472  0.9386
   36CHL1  H12B 3803   6.394   5.666   5.996  0.9484 -0.8809 -0.4446
   36CHL1   C11 3804   6.384   5.548   6.183 -0.6285  0.8870 -0.2449
   36CHL1  H11A 3805   6.353   5.444   6.209  0.9750  0.6780  1.0188
   36CHL1  H11B 3806   6.494   5.561   6.194 -0.4185 -1.5236  1.3175
   36CHL1    C9 3807   6.310   5.637   6.289  0.0739 -0.0313 -0.6450
   36CHL1    H9 3808   6.348   5.739   6.267  1.8514  0.2161  2.7836
   36CHL1   C10 3809   6.346   5.610   6.438  0.2877 -0.3329  0.4640
   36CHL1   C19 3810   6.344   5.461   6.468 -0.3367  0.1105 -0.6479
   36CHL1  H19A 3811   6.370   5.438   6.573  2.0862 -4.3138 -1.9865
   36CHL1  H19B 3812   6.244   5.413   6.456  0.7208 -2.2011 -0.6365
   36CHL1  H19C 3813   6.423   5.404   6.415 -2.6983 -1.0496 -3.1611
   36CHL1    C1 3814   6.492   5.661   6.463 -0.0446  0.1118 -0.2300
   36CHL1   H1A 3815   6.569   5.594   6.418  0.7739  0.3222  0.8117
   36CHL1   H1B 3816   6.503   5.761   6.418 -1.2612 -0.6011 -2.2485
   36CHL1    C2 3817   6.540   5.671   6.609  0.3051 -0.1309  0.3784
   36CHL1   H2A 3818   6.640   5.716   6.621  0.6611 -0.4820 -1.0576
   36CHL1   H2B 3819   6.546   5.568   6.651 -0.7175 -0.2903  0.1716
   36CHL1   C20 3820   6.144   5.543   5.756 -0.1960 -0.3274  0.0171
   36CHL1   H20 3821   6.095   5.446   5.778 -0.7935  0.3226  1.7160
   36CHL1   C21 3822   6.289   5.523   5.705  0.3883  0.2616  0.5544
   36CHL1  H21A 3823   6.355   5.461   5.769 -1.0916 -0.8094  1.1082
   36CHL1  H21B 3824   6.346   5.615   5.678 -0.2211  0.7655  0.9458
   36CHL1  H21C 3825   6.279   5.470   5.608 -0.0984  1.9997 -0.4042
   36CHL1   C22 3826   6.057   5.597   5.634  0.3386 -0.0763 -0.0790
   36CHL1  H22A 3827   6.067   5.528   5.548 -1.9795  1.6108 -1.8169
   36CHL1  H22B 3828   5.952   5.597   5.669  0.0227 -0.7365 -0.9923
   36CHL1   C23 3829   6.087   5.735   5.584  0.3426  0.0440 -0.7501
   36CHL1  H23A 3830   6.071   5.809   5.665 -3.4616 -1.2113 -0.1488
   36CHL1  H23B 3831   6.191   5.747   5.546 -0.8307  2.2327 -3.6477
   36CHL1   C24 3832   5.990   5.779   5.472  0.1684 -0.9276  0.1474
   36CHL1  H24A 3833   5.892   5.730   5.489  0.8845 -1.9326  1.5807
   36CHL1  H24B 3834   5.975   5.888   5.487  2.1344 -0.2436 -2.1624
   36CHL1   C25 3835   6.029   5.746   5.328 -0.3889 -0.1698 -0.4785
   36CHL1   H25 3836   6.054   5.637   5.329  0.3504 -0.0374 -2.2625
   36CHL1   C26 3837   5.909   5.777   5.240 -1.0100 -0.3345  0.1024
   36CHL1  H26A 3838   5.829   5.709   5.277 -0.3968 -1.1372 -0.0065
   36CHL1  H26B 3839   5.880   5.884   5.246 -0.5476  0.0289 -2.7644
   36CHL1  H26C 3840   5.920   5.765   5.130 -0.9591  0.9824 -0.0449
   36CHL1   C27 3841   6.152   5.818   5.279 -0.3986  0.1088  0.1427
   36CHL1  H27A 3842   6.236   5.808   5.352 -0.7748 -0.5118  0.4981
   36CHL1  H27B 3843   6.191   5.772   5.186  0.7915  0.8083  0.2698
   36CHL1  H27C 3844   6.129   5.923   5.250  0.5850 -0.4040 -2.8421
   37CHL1    C3 3845   0.781   2.548   6.693  0.8006  0.4141 -0.2274
   37CHL1    H3 3846   0.675   2.575   6.673 -0.1456 -3.2385 -0.9302
   37CHL1    O3 3847   0.813   2.566   6.824 -0.1325 -0.4025  0.3373
   37CHL1   H3' 3848   0.877   2.496   6.839 -0.7972 -1.2795 -0.7641
   37CHL1    C4 3849   0.790   2.398   6.657  0.6894 -0.3640 -0.0019
   37CHL1   H4A 3850   0.897   2.368   6.662  0.3650 -1.5632  0.1472
   37CHL1   H4B 3851   0.730   2.337   6.728 -1.5802  2.6692  0.9073
   37CHL1    C5 3852   0.740   2.385   6.510 -0.3231 -0.0791  0.2535
   37CHL1    C6 3853   0.623   2.315   6.483  0.1611 -0.2791  0.4681
   37CHL1    H6 3854   0.579   2.256   6.564 -0.6624  0.9204  0.9180
   37CHL1    C7 3855   0.571   2.291   6.347 -0.3009  0.3299  0.8474
   37CHL1   H7A 3856   0.524   2.191   6.339  1.8114 -0.6499 -0.0188
   37CHL1   H7B 3857   0.490   2.365   6.331  0.4681  0.8019 -1.1241
   37CHL1    C8 3858   0.679   2.330   6.240  0.5018 -0.2067  0.3044
   37CHL1    H8 3859   0.758   2.253   6.233  1.3952  0.8099 -2.5401
   37CHL1   C14 3860   0.615   2.339   6.097  0.2828  0.0174 -0.4217
   37CHL1   H14 3861   0.536   2.416   6.108  0.4192  0.2135 -0.8206
   37CHL1   C15 3862   0.534   2.211   6.059  0.5004  0.0967  0.0879
   37CHL1  H15A 3863   0.600   2.122   6.066 -1.4518 -1.3612  0.7779
   37CHL1  H15B 3864   0.435   2.207   6.109  0.5505  2.2049  0.4422
   37CHL1   C16 3865   0.515   2.232   5.905  0.3386 -0.7075  0.2549
   37CHL1  H16A 3866   0.562   2.141   5.863  1.8198 -1.2621  2.8772
   37CHL1  H16B 3867   0.410   2.247   5.873  0.3381 -1.7573 -0.2977
   37CHL1   C17 3868   0.604   2.357   5.872  0.0593  0.4316 -0.6005
   37CHL1   H17 3869   0.541   2.447   5.885 -1.5347 -0.9520  1.9311
   37CHL1   C13 3870   0.706   2.377   5.984  0.1139 -0.1833 -0.1481
   37CHL1   C18 3871   0.823   2.279   5.964 -0.1733 -0.3339 -0.3320
   37CHL1  H18A 3872   0.876   2.275   6.061 -3.5721  2.7616  1.9315
   37CHL1  H18B 3873   0.791   2.177   5.933 -1.2395 -0.2422  0.4250
   37CHL1  H18C 3874   0.885   2.301   5.874  2.0537 -3.4968  0.2730
   37CHL1   C12 3875   0.749   2.526   6.009  0.0577  0.3873 -0.6935
   37CHL1  H12A 3876   0.822   2.548   5.928 -0.9358 -0.2859 -1.8182
   37CHL1  H12B 3877   0.656   2.587   6.007  1.1400  2.3048  1.8789
   37CHL1   C11 3878   0.817   2.539   6.152  0.0515 -0.6063  0.3352
   37CHL1  H11A 3879   0.913   2.482   6.144  0.9604  0.8841  0.3328
   37CHL1  H11B 3880   0.842   2.645   6.172  1.8604  0.0457 -4.1586
   37CHL1    C9 3881   0.739   2.473   6.275  0.0335  0.4400  0.0493
   37CHL1    H9 3882   0.649   2.538   6.289 -0.3680 -0.1382  0.1656
   37CHL1   C10 3883   0.816   2.469   6.405  0.5466  0.1901  0.5365
   37CHL1   C19 3884   0.944   2.387   6.385  0.3198 -0.3943 -0.1848
   37CHL1  H19A 3885   0.921   2.288   6.339  0.5775  0.0345 -1.2880
   37CHL1  H19B 3886   1.016   2.442   6.320 -0.4062  2.4369  1.2374
   37CHL1  H19C 3887   1.003   2.362   6.475  3.7107 -0.4300 -2.2291
   37CHL1    C1 3888   0.838   2.617   6.453  0.0533 -0.8043  0.0642
   37CHL1   H1A 3889   0.914   2.667   6.388 -0.0487 -0.4152  0.2388
   37CHL1   H1B 3890   0.740   2.668   6.444  0.1854 -0.4528  0.5029
   37CHL1    C2 3891   0.884   2.624   6.600 -0.1794  0.5288  0.2770
   37CHL1   H2A 3892   0.890   2.731   6.626 -2.7107  0.6933  0.4379
   37CHL1   H2B 3893   0.981   2.569   6.603 -1.1018 -1.3936 -1.7990
   37CHL1   C20 3894   0.659   2.367   5.724  0.3956 -0.2216 -0.0519
   37CHL1   H20 3895   0.722   2.276   5.710 -2.3223 -2.8494  2.9849
   37CHL1   C21 3896   0.739   2.494   5.707 -0.0423 -0.1394  0.1531
   37CHL1  H21A 3897   0.847   2.486   5.733  0.0686 -2.6205 -0.8128
   37CHL1  H21B 3898   0.690   2.579   5.760 -1.7799 -0.7012 -0.4993
   37CHL1  H21C 3899   0.736   2.521   5.599 -2.7976  0.2569  0.2681
   37CHL1   C22 3900   0.535   2.350   5.626  0.4776 -0.2546 -0.6940
   37CHL1  H22A 3901   0.467   2.268   5.656 -3.1297  2.9890  0.8537
   37CHL1  H22B 3902   0.479   2.445   5.635  0.6064 -0.0397 -1.9621
   37CHL1   C23 3903   0.571   2.338   5.473  0.1247 -0.1714 -0.7550
   37CHL1  H23A 3904   0.621   2.431   5.438 -0.9824  0.8552  0.2760
   37CHL1  H23B 3905   0.657   2.269   5.459  2.2118  2.0044  0.6139
   37CHL1   C24 3906   0.455   2.310   5.382  0.6548 -0.2177  0.4978
   37CHL1  H24A 3907   0.409   2.217   5.420  0.7458  0.7986  3.3761
   37CHL1  H24B 3908   0.375   2.388   5.384  0.1822 -0.5989  4.7832
   37CHL1   C25 3909   0.497   2.302   5.234  0.3000  0.4767  0.7515
   37CHL1   H25 3910   0.549   2.398   5.212  1.1271 -0.0784  0.2306
   37CHL1   C26 3911   0.587   2.181   5.210 -0.4483 -0.3702  0.2136
   37CHL1  H26A 3912   0.533   2.090   5.245 -0.0265 -0.3270  1.0076
   37CHL1  H26B 3913   0.606   2.175   5.101 -0.0159  1.6228  0.1304
   37CHL1  H26C 3914   0.687   2.188   5.258  0.7617 -4.0570 -1.4072
   37CHL1   C27 3915   0.368   2.290   5.147 -0.4718 -0.6606  0.3915
   37CHL1  H27A 3916   0.395   2.250   5.047 -0.8700 -1.9179  0.7641
   37CHL1  H27B 3917   0.305   2.223   5.210 -1.9896 -1.4504 -1.8265
   37CHL1  H27C 3918   0.312   2.386   5.143 -0.7442 -0.7979  0.7750
   38CHL1    C3 3919   2.149   3.352   6.570  0.5702 -0.0738  0.2444
   38CHL1    H3 3920   2.163   3.461   6.552  0.3798 -0.4431 -2.6725
   38CHL1    O3 3921   2.188   3.334   6.701 -0.4513 -0.6465  0.3210
   38CHL1   H3' 3922   2.182   3.240   6.718 -0.1780 -0.4299  1.7603
   38CHL1    C4 3923   2.006   3.296   6.552  0.2136 -0.2861 -0.2974
   38CHL1   H4A 3924   2.010   3.187   6.574 -0.3460 -0.2851 -0.1744
   38CHL1   H4B 3925   1.947   3.359   6.621  1.2567  2.3680 -1.7089
   38CHL1    C5 3926   1.960   3.317   6.411 -0.5883  0.1604 -0.1064
   38CHL1    C6 3927   1.849   3.380   6.376 -0.0422 -0.3663  0.0259
   38CHL1    H6 3928   1.770   3.416   6.444 -0.5234 -1.3506  0.0100
   38CHL1    C7 3929   1.799   3.397   6.235 -0.7097  0.3054 -0.1305
   38CHL1   H7A 3930   1.689   3.388   6.223 -0.8462  1.0331  0.4844
   38CHL1   H7B 3931   1.809   3.503   6.204 -2.1765  0.3988 -0.3220
   38CHL1    C8 3932   1.869   3.306   6.127  0.7470  0.2380  0.5093
   38CHL1    H8 3933   1.821   3.205   6.130 -2.2471  1.4540 -1.5053
   38CHL1   C14 3934   1.847   3.359   5.983  0.0760  0.6512 -0.0360
   38CHL1   H14 3935   1.889   3.461   5.970 -1.0422  1.0407 -0.7637
   38CHL1   C15 3936   1.703   3.361   5.924  0.5366  0.6616  1.1026
   38CHL1  H15A 3937   1.655   3.268   5.960  0.9366 -0.2993 -0.7469
   38CHL1  H15B 3938   1.640   3.445   5.962  2.2365  2.4620  0.1732
   38CHL1   C16 3939   1.718   3.371   5.770 -0.4662 -0.2722 -0.0486
   38CHL1  H16A 3940   1.655   3.300   5.713  0.5569 -1.1301 -0.1434
   38CHL1  H16B 3941   1.694   3.475   5.739  1.9957  0.2818 -0.3169
   38CHL1   C17 3942   1.873   3.352   5.746  0.6983 -0.2049  0.3596
   38CHL1   H17 3943   1.933   3.446   5.749  1.9177 -0.9649  0.5389
   38CHL1   C13 3944   1.929   3.291   5.875 -0.1464 -0.0800  0.5390
   38CHL1   C18 3945   1.906   3.141   5.869  0.2705  0.1609  0.0116
   38CHL1  H18A 3946   1.798   3.115   5.864  0.1085  0.8315 -0.1879
   38CHL1  H18B 3947   1.962   3.097   5.784  1.0204  3.9102 -1.6682
   38CHL1  H18C 3948   1.953   3.098   5.960  0.3683  1.7832  0.7745
   38CHL1   C12 3949   2.076   3.335   5.902  0.4492  0.0477  0.0828
   38CHL1  H12A 3950   2.155   3.306   5.829 -0.4892  1.0237 -1.3830
   38CHL1  H12B 3951   2.088   3.445   5.914  0.3757  0.0822 -0.1545
   38CHL1   C11 3952   2.114   3.273   6.038 -0.8951 -0.1243  0.7065
   38CHL1  H11A 3953   2.137   3.166   6.019  0.9029  0.7798 -3.1158
   38CHL1  H11B 3954   2.207   3.326   6.071  0.0642 -1.1769 -0.2225
   38CHL1    C9 3955   2.020   3.310   6.157  0.3739  0.3289 -0.5425
   38CHL1    H9 3956   2.035   3.420   6.163 -0.6658  0.4011  3.0915
   38CHL1   C10 3957   2.054   3.262   6.300  0.7843 -0.3334  0.6274
   38CHL1   C19 3958   2.053   3.114   6.311 -0.3460  0.4916 -0.6219
   38CHL1  H19A 3959   2.128   3.065   6.244  2.6345  2.7637  0.8058
   38CHL1  H19B 3960   2.082   3.079   6.412  0.4622  1.8366 -0.3646
   38CHL1  H19C 3961   1.949   3.080   6.292 -1.0021  1.8752  0.3329
   38CHL1    C1 3962   2.193   3.312   6.333  0.0832 -0.5465  0.4295
   38CHL1   H1A 3963   2.271   3.265   6.270 -1.0354 -0.3858 -1.1161
   38CHL1   H1B 3964   2.201   3.420   6.312  0.0249 -0.2869  1.6294
   38CHL1    C2 3965   2.243   3.287   6.474 -0.3155  0.2331 -0.1130
   38CHL1   H2A 3966   2.343   3.335   6.485 -0.7912  1.3379 -0.3961
   38CHL1   H2B 3967   2.258   3.180   6.497 -1.5438 -0.0849 -0.7191
   38CHL1   C20 3968   1.905   3.295   5.606 -0.3227  0.1276 -0.0624
   38CHL1   H20 3969   2.012   3.264   5.604 -0.4913 -0.5553  0.7494
   38CHL1   C21 3970   1.880   3.417   5.513  0.5216  0.2840 -0.1459
   38CHL1  H21A 3971   1.772   3.442   5.521  0.3910 -0.1107 -0.6238
   38CHL1  H21B 3972   1.905   3.379   5.412 -0.1205 -0.7274  0.0634
   38CHL1  H21C 3973   1.951   3.497   5.544  1.7876 -0.3527 -1.3173
   38CHL1   C22 3974   1.835   3.167   5.556  0.5482 -0.5864 -0.0504
   38CHL1  H22A 3975   1.801   3.101   5.639 -0.4519  0.6181  0.5381
   38CHL1  H22B 3976   1.748   3.191   5.491 -0.0705 -0.9431  0.6297
   38CHL1   C23 3977   1.931   3.082   5.477 -0.3250 -0.2980 -0.5368
   38CHL1  H23A 3978   1.974   3.152   5.402  0.5697  2.2320  2.1036
   38CHL1  H23B 3979   2.021   3.064   5.540  0.7124 -2.1347 -2.4475
   38CHL1   C24 3980   1.873   2.952   5.429  0.0854  0.4693  0.0700
   38CHL1  H24A 3981   1.852   2.883   5.515 -1.7061 -0.3853 -0.9862
   38CHL1  H24B 3982   1.770   2.969   5.391 -0.3050  1.8208  1.6081
   38CHL1   C25 3983   1.964   2.865   5.338  0.4523  0.3029 -0.2489
   38CHL1   H25 3984   2.055   2.852   5.400  1.4912  1.6002 -1.4280
   38CHL1   C26 3985   1.909   2.719   5.310  0.1288 -0.0902 -0.8879
   38CHL1  H26A 3986   1.836   2.723   5.227  1.3365  0.5788 -1.9584
   38CHL1  H26B 3987   1.996   2.656   5.281  0.1165  0.3524 -1.9090
   38CHL1  H26C 3988   1.867   2.688   5.408  2.5808 -0.7365  0.0238
   38CHL1   C27 3989   2.004   2.940   5.209  0.1420 -0.7071 -0.6859
   38CHL1  H27A 3990   1.926   2.929   5.131 -0.3575 -3.5748  0.1104
   38CHL1  H27B 3991   2.032   3.046   5.227  0.1366 -0.8675  0.3149
   38CHL1  H27C 3992   2.093   2.890   5.165 -0.9342 -0.7224 -2.9621
   39CHL1    C3 3993   3.047   2.902   6.535 -1.4120  0.8594 -0.4742
   39CHL1    H3 3994   3.047   2.791   6.541 -2.1167  0.9154  1.1478
   39CHL1    O3 3995   2.994   2.941   6.665 -0.4574  0.2869  0.0006
   39CHL1   H3' 3996   3.021   3.033   6.670 -0.5446  0.3617 -0.7672
   39CHL1    C4 3997   3.196   2.946   6.504 -0.5883  0.1888 -0.3457
   39CHL1   H4A 3998   3.196   3.057   6.513  1.7705  0.2169 -0.2380
   39CHL1   H4B 3999   3.253   2.903   6.589 -1.0495  3.9292  2.0817
   39CHL1    C5 4000   3.239   2.906   6.366 -0.6189 -0.6299  0.1448
   39CHL1    C6 4001   3.348   2.831   6.345  0.5980  0.2472 -0.1559
   39CHL1    H6 4002   3.403   2.793   6.432 -0.1553 -1.2047 -0.2895
   39CHL1    C7 4003   3.404   2.802   6.207  0.8925  0.1495  0.0929
   39CHL1   H7A 4004   3.515   2.817   6.208  0.9003  0.0951  0.6773
   39CHL1   H7B 4005   3.378   2.696   6.183 -0.9298  1.0645 -2.2978
   39CHL1    C8 4006   3.331   2.893   6.094  0.3899  0.2944  0.2479
   39CHL1    H8 4007   3.382   2.992   6.091  1.8182 -0.4156  0.0375
   39CHL1   C14 4008   3.346   2.815   5.962 -0.4699 -0.3454 -0.4683
   39CHL1   H14 4009   3.282   2.725   5.970 -1.3765  0.3695  0.4719
   39CHL1   C15 4010   3.489   2.764   5.924 -0.2625 -0.2626 -0.6201
   39CHL1  H15A 4011   3.569   2.830   5.966 -0.8793 -0.0139  0.2039
   39CHL1  H15B 4012   3.505   2.661   5.960  4.6359  0.1681 -0.9114
   39CHL1   C16 4013   3.488   2.767   5.761 -0.0332 -0.5360 -0.4922
   39CHL1  H16A 4014   3.556   2.849   5.729  0.6401 -0.5618  0.8440
   39CHL1  H16B 4015   3.519   2.671   5.714  2.2087 -1.0017  1.7326
   39CHL1   C17 4016   3.344   2.803   5.721  0.4617 -0.3909  0.0408
   39CHL1   H17 4017   3.294   2.704   5.733 -0.9719  0.3256  0.2133
   39CHL1   C13 4018   3.288   2.889   5.843 -0.5190  0.2549 -0.2384
   39CHL1   C18 4019   3.355   3.024   5.827 -0.1370  0.2857  0.6205
   39CHL1  H18A 4020   3.330   3.069   5.728 -0.5659  1.3476  1.1970
   39CHL1  H18B 4021   3.312   3.096   5.900 -1.8474 -0.0111 -0.0427
   39CHL1  H18C 4022   3.465   3.031   5.842  0.1038  4.2059 -1.5486
   39CHL1   C12 4023   3.139   2.896   5.863  0.4739 -0.8400 -0.1579
   39CHL1  H12A 4024   3.080   2.956   5.790  1.6767 -0.6074 -0.9596
   39CHL1  H12B 4025   3.095   2.793   5.871  0.8010 -0.8535  2.1748
   39CHL1   C11 4026   3.104   2.958   6.001 -0.0805 -0.0460  0.7477
   39CHL1  H11A 4027   3.141   3.063   5.999 -2.5538  0.8684 -0.7399
   39CHL1  H11B 4028   2.994   2.965   6.011 -0.1794  1.4514 -0.8796
   39CHL1    C9 4029   3.179   2.901   6.123  0.2344  0.0550  0.5513
   39CHL1    H9 4030   3.147   2.795   6.131 -2.1595  0.6433 -0.3826
   39CHL1   C10 4031   3.147   2.968   6.257 -0.0421  0.1652  0.6515
   39CHL1   C19 4032   3.156   3.123   6.244 -0.7442 -0.4296 -0.4410
   39CHL1  H19A 4033   3.077   3.167   6.179 -1.1546  1.1216  1.0236
   39CHL1  H19B 4034   3.150   3.173   6.343  1.4481 -0.3777 -0.2861
   39CHL1  H19C 4035   3.254   3.142   6.196 -0.8136  0.0039 -0.4161
   39CHL1    C1 4036   3.003   2.925   6.289  0.3140  0.0515 -0.4868
   39CHL1   H1A 4037   2.936   2.961   6.208  1.0222 -1.2780 -1.7211
   39CHL1   H1B 4038   2.994   2.815   6.271 -0.7873 -0.2700  1.7031
   39CHL1    C2 4039   2.956   2.951   6.426  0.0004  0.2833  0.3841
   39CHL1   H2A 4040   2.861   2.893   6.435  0.3352 -0.0999  1.7860
   39CHL1   H2B 4041   2.915   3.054   6.437 -1.5670 -0.4415  1.9554
   39CHL1   C20 4042   3.320   2.839   5.567 -0.7380 -1.0218  0.0945
   39CHL1   H20 4043   3.402   2.911   5.550 -2.1157  1.2065  2.1893
   39CHL1   C21 4044   3.178   2.883   5.536  0.3329  0.1194  0.9772
   39CHL1  H21A 4045   3.102   2.822   5.588  0.4076 -0.9297 -0.0905
   39CHL1  H21B 4046   3.158   2.871   5.427  3.3129 -0.6264  0.3978
   39CHL1  H21C 4047   3.161   2.988   5.568  0.4369  1.2097 -2.1772
   39CHL1   C22 4048   3.359   2.716   5.477 -0.0576 -0.1474  0.3638
   39CHL1  H22A 4049   3.444   2.655   5.514  0.6183  1.0139  0.7463
   39CHL1  H22B 4050   3.264   2.657   5.482 -1.6160  2.3314  2.7956
   39CHL1   C23 4051   3.393   2.747   5.331  0.7947  1.0928  0.1978
   39CHL1  H23A 4052   3.324   2.820   5.286 -0.3623 -0.8066 -1.2699
   39CHL1  H23B 4053   3.497   2.786   5.327  1.3066 -0.2377 -0.0719
   39CHL1   C24 4054   3.395   2.612   5.252 -0.2605 -0.4304  0.2831
   39CHL1  H24A 4055   3.464   2.545   5.307  2.4306  0.1377 -2.2001
   39CHL1  H24B 4056   3.297   2.561   5.241 -0.7109  0.8492 -2.4933
   39CHL1   C25 4057   3.452   2.627   5.106 -0.3339  0.5938 -0.2665
   39CHL1   H25 4058   3.415   2.724   5.066  0.2011  0.4292 -1.1779
   39CHL1   C26 4059   3.606   2.637   5.107  0.2256 -0.5097  0.3347
   39CHL1  H26A 4060   3.644   2.651   5.004  0.1562 -0.0042  0.3781
   39CHL1  H26B 4061   3.634   2.733   5.156  0.2909  0.8548 -2.2508
   39CHL1  H26C 4062   3.647   2.540   5.144 -0.6116 -0.5756  1.1432
   39CHL1   C27 4063   3.387   2.518   5.012  0.2612 -0.7265 -0.9493
   39CHL1  H27A 4064   3.412   2.414   5.044 -0.1489 -1.1377 -1.9392
   39CHL1  H27B 4065   3.277   2.525   5.022  0.3680  1.5339 -0.6844
   39CHL1  H27C 4066   3.417   2.542   4.908 -1.0771  1.8056 -0.8386
   40CHL1    C3 4067   3.986   6.264   6.652 -0.4462  0.1214  0.4262
   40CHL1    H3 4068   4.024   6.166   6.614 -0.3318 -0.3195  1.6401
   40CHL1    O3 4069   4.043   6.272   6.780  0.1894  0.4342 -0.2021
   40CHL1   H3' 4070   4.069   6.364   6.787 -1.1489  0.9997 -1.9326
   40CHL1    C4 4071   4.027   6.390   6.573  0.0978  0.6772  0.3996
   40CHL1   H4A 4072   3.992   6.486   6.617  0.7545  1.4573 -0.7298
   40CHL1   H4B 4073   4.138   6.401   6.574  0.0273  1.6586 -0.6744
   40CHL1    C5 4074   3.987   6.380   6.429  1.1720 -0.5317  0.4746
   40CHL1    C6 4075   4.066   6.386   6.321 -0.3697  0.2657  0.2141
   40CHL1    H6 4076   4.175   6.390   6.337 -0.1633 -0.3263 -0.9394
   40CHL1    C7 4077   4.018   6.391   6.179 -0.6742  0.1112  0.3006
   40CHL1   H7A 4078   4.062   6.474   6.120  1.6724  0.6572  2.6243
   40CHL1   H7B 4079   4.038   6.295   6.125  1.0444  0.3769  0.4167
   40CHL1    C8 4080   3.864   6.403   6.161 -0.1128  0.2573  0.5768
   40CHL1    H8 4081   3.842   6.511   6.169 -0.9254  0.0978  0.5753
   40CHL1   C14 4082   3.829   6.365   6.023  0.1499 -0.3679  0.4395
   40CHL1   H14 4083   3.853   6.257   6.012  0.8396 -0.1085 -0.7390
   40CHL1   C15 4084   3.904   6.430   5.906  0.4685  0.1922 -0.8026
   40CHL1  H15A 4085   3.910   6.540   5.914  2.9114  0.2681 -2.6966
   40CHL1  H15B 4086   4.009   6.395   5.894  0.2775 -0.1463 -1.5199
   40CHL1   C16 4087   3.819   6.403   5.781  0.0259 -0.1046 -0.2712
   40CHL1  H16A 4088   3.784   6.499   5.738 -0.4221  0.3541  1.0548
   40CHL1  H16B 4089   3.859   6.334   5.704 -0.5250 -1.4649  0.6252
   40CHL1   C17 4090   3.684   6.333   5.835 -0.7929 -0.1947 -0.4314
   40CHL1   H17 4091   3.707   6.225   5.825 -2.2084 -0.5970  0.4496
   40CHL1   C13 4092   3.681   6.374   5.987  0.2973 -0.3373  0.3485
   40CHL1   C18 4093   3.635   6.525   5.991 -0.1211  0.6812 -0.2577
   40CHL1  H18A 4094   3.697   6.586   5.922 -0.1871  0.9171 -0.1093
   40CHL1  H18B 4095   3.528   6.515   5.963 -0.3879 -0.0039  0.9186
   40CHL1  H18C 4096   3.634   6.567   6.094 -1.6381 -1.0615  0.5147
   40CHL1   C12 4097   3.603   6.287   6.095  0.3945 -0.0035 -0.3839
   40CHL1  H12A 4098   3.495   6.307   6.082  0.7712  1.1752 -2.0441
   40CHL1  H12B 4099   3.612   6.177   6.081 -1.1890 -0.2010  0.0145
   40CHL1   C11 4100   3.645   6.317   6.245  0.5088 -0.7435  0.9247
   40CHL1  H11A 4101   3.591   6.414   6.256  0.4364 -0.8708  1.7869
   40CHL1  H11B 4102   3.592   6.254   6.321 -0.8185  0.8175  1.3530
   40CHL1    C9 4103   3.795   6.324   6.270  0.6877 -0.1901  0.5850
   40CHL1    H9 4104   3.825   6.218   6.253  2.1603  0.4567 -1.1761
   40CHL1   C10 4105   3.829   6.360   6.417 -0.2230 -0.3645 -0.1726
   40CHL1   C19 4106   3.758   6.488   6.452 -0.4740 -0.3229  0.5409
   40CHL1  H19A 4107   3.648   6.468   6.445 -0.2431 -1.0025 -2.5928
   40CHL1  H19B 4108   3.803   6.529   6.544  1.0425 -0.4644 -0.1131
   40CHL1  H19C 4109   3.771   6.560   6.368 -3.9652  0.5063  0.5645
   40CHL1    C1 4110   3.774   6.246   6.517 -0.3048 -0.2213  0.0054
   40CHL1   H1A 4111   3.665   6.249   6.535 -0.0824  1.5187  1.2595
   40CHL1   H1B 4112   3.802   6.147   6.475  0.9288  0.9288 -2.0958
   40CHL1    C2 4113   3.837   6.253   6.657 -0.0378  0.1477 -0.1042
   40CHL1   H2A 4114   3.811   6.163   6.716  1.3249  0.4169  0.9550
   40CHL1   H2B 4115   3.802   6.338   6.720  3.5207  1.0321  0.8664
   40CHL1   C20 4116   3.562   6.367   5.751 -0.3533 -0.6835  0.6203
   40CHL1   H20 4117   3.534   6.473   5.763  0.4740 -0.4452  0.5164
   40CHL1   C21 4118   3.441   6.280   5.807 -0.3301  0.3975 -0.3391
   40CHL1  H21A 4119   3.485   6.182   5.833 -0.5127  0.2364 -0.6309
   40CHL1  H21B 4120   3.376   6.253   5.721  1.2491  2.3854 -2.2745
   40CHL1  H21C 4121   3.382   6.341   5.878 -0.9185 -0.4942 -0.0439
   40CHL1   C22 4122   3.593   6.341   5.601  0.4171 -0.3536  0.4382
   40CHL1  H22A 4123   3.505   6.382   5.546  0.2368  0.9636  1.6588
   40CHL1  H22B 4124   3.679   6.399   5.561 -1.6762  1.1695 -2.2272
   40CHL1   C23 4125   3.579   6.194   5.561  0.7247 -0.5503  0.2638
   40CHL1  H23A 4126   3.597   6.125   5.646  0.8662 -1.1266 -0.2280
   40CHL1  H23B 4127   3.475   6.176   5.527  0.7052 -0.6215  0.3588
   40CHL1   C24 4128   3.664   6.162   5.433  0.2267  0.1686  0.1581
   40CHL1  H24A 4129   3.661   6.052   5.414 -1.5367  0.1595  0.2871
   40CHL1  H24B 4130   3.615   6.217   5.350 -1.2704  0.0428  0.9253
   40CHL1   C25 4131   3.818   6.187   5.429  0.7124  0.3832 -0.0223
   40CHL1   H25 4132   3.833   6.293   5.458 -1.1857  0.3015  1.4413
   40CHL1   C26 4133   3.878   6.100   5.542 -0.3260 -0.5431 -0.3401
   40CHL1  H26A 4134   3.842   5.995   5.537  0.5313 -0.9423  1.3482
   40CHL1  H26B 4135   3.987   6.097   5.523  0.0473 -0.6602  1.6198
   40CHL1  H26C 4136   3.854   6.132   5.645 -2.9291 -0.2784 -0.9586
   40CHL1   C27 4137   3.879   6.156   5.297 -0.2421  0.5504  0.5294
   40CHL1  H27A 4138   3.852   6.053   5.267 -2.5659  1.8008 -2.0122
   40CHL1  H27B 4139   3.850   6.231   5.220  1.2187  0.3124 -0.2962
   40CHL1  H27C 4140   3.990   6.155   5.291 -0.3176  0.6341 -1.4847
   41CHL1    C3 4141   0.078   6.727   6.921  0.6250  0.1958  0.1425
   41CHL1    H3 4142  -0.023   6.729   6.966 -0.3715  1.2683 -2.0022
   41CHL1    O3 4143   0.164   6.753   7.029 -0.4439 -0.1235  0.0639
   41CHL1   H3' 4144   0.204   6.837   7.006  0.7425 -1.3630 -3.0404
   41CHL1    C4 4145   0.109   6.591   6.857  0.9489 -0.7566  0.6183
   41CHL1   H4A 4146   0.214   6.581   6.823  0.3356 -2.0795 -1.0422
   41CHL1   H4B 4147   0.091   6.518   6.939  0.8889 -2.0460 -0.4970
   41CHL1    C5 4148   0.021   6.568   6.732  0.2002 -0.1182 -0.3563
   41CHL1    C6 4149  -0.056   6.461   6.708 -0.0436 -0.5555  0.7326
   41CHL1    H6 4150  -0.051   6.384   6.786 -0.5029 -1.9410 -0.5730
   41CHL1    C7 4151  -0.114   6.424   6.569 -0.2086  0.0960 -0.0958
   41CHL1   H7A 4152  -0.104   6.315   6.549 -1.1969 -0.2801  1.2644
   41CHL1   H7B 4153  -0.225   6.418   6.560 -0.0026 -2.6508 -1.7978
   41CHL1    C8 4154  -0.065   6.517   6.462  0.4004 -0.6544  0.1182
   41CHL1    H8 4155   0.036   6.494   6.420 -0.0692 -0.1273 -1.3791
   41CHL1   C14 4156  -0.162   6.508   6.345  0.4148  0.1322  0.1003
   41CHL1   H14 4157  -0.262   6.534   6.385 -0.2841 -0.7709 -0.9979
   41CHL1   C15 4158  -0.186   6.364   6.289  0.0104  0.8208  0.3529
   41CHL1  H15A 4159  -0.088   6.315   6.270 -1.6042 -2.0932 -1.0364
   41CHL1  H15B 4160  -0.251   6.295   6.347 -0.2605  1.4063  0.7542
   41CHL1   C16 4161  -0.264   6.390   6.156  0.8356  0.4897 -0.4764
   41CHL1  H16A 4162  -0.206   6.336   6.079 -0.4449  0.0604 -1.1730
   41CHL1  H16B 4163  -0.369   6.355   6.164  0.9566  0.4331  1.5350
   41CHL1   C17 4164  -0.250   6.544   6.127  0.7513 -0.7627 -0.5216
   41CHL1   H17 4165  -0.342   6.591   6.168  0.7298 -0.6903 -0.6506
   41CHL1   C13 4166  -0.137   6.598   6.220 -0.3678  0.2406 -0.3030
   41CHL1   C18 4167  -0.003   6.574   6.153  0.4442 -0.0119  0.0206
   41CHL1  H18A 4168  -0.012   6.489   6.082 -0.7216  0.4728 -0.4164
   41CHL1  H18B 4169   0.014   6.661   6.087 -1.5774 -1.5146 -2.6678
   41CHL1  H18C 4170   0.080   6.559   6.226 -0.4223 -0.7743  0.8746
   41CHL1   C12 4171  -0.142   6.745   6.281  0.1164 -0.1252  0.5168
   41CHL1  H12A 4172  -0.117   6.814   6.198  0.4714  0.8764  1.4308
   41CHL1  H12B 4173  -0.244   6.769   6.318  0.8579  0.9835  1.9403
   41CHL1   C11 4174  -0.042   6.763   6.392 -0.3045  0.2459  0.0923
   41CHL1  H11A 4175   0.061   6.749   6.353  0.1913  0.3385  1.3470
   41CHL1  H11B 4176  -0.039   6.867   6.432  3.9544 -0.5509  2.4129
   41CHL1    C9 4177  -0.065   6.657   6.512  0.1634 -0.5042  0.0520
   41CHL1    H9 4178  -0.165   6.678   6.556 -0.0963 -2.0366  0.2253
   41CHL1   C10 4179   0.030   6.685   6.633 -0.8223  0.5087 -0.1688
   41CHL1   C19 4180   0.180   6.694   6.586  0.4274  0.6202  0.1903
   41CHL1  H19A 4181   0.178   6.780   6.516 -0.3622  1.0929  0.7714
   41CHL1  H19B 4182   0.254   6.728   6.661 -0.1859  0.4916  0.8738
   41CHL1  H19C 4183   0.216   6.600   6.540  0.4386  1.0446 -0.6926
   41CHL1    C1 4184  -0.010   6.820   6.701  0.2445 -0.6754  0.2618
   41CHL1   H1A 4185   0.012   6.904   6.631  2.5872 -1.4670 -0.0597
   41CHL1   H1B 4186  -0.119   6.833   6.719  0.0968 -0.7145 -0.5300
   41CHL1    C2 4187   0.079   6.850   6.826  0.3602  0.3687  0.1570
   41CHL1   H2A 4188   0.048   6.942   6.880 -3.3715 -1.5271  1.6785
   41CHL1   H2B 4189   0.180   6.875   6.789  1.5899  1.8518  3.9743
   41CHL1   C20 4190  -0.258   6.583   5.976 -0.2879  0.2104  0.2924
   41CHL1   H20 4191  -0.178   6.531   5.919  1.1366  1.2360  1.2686
   41CHL1   C21 4192  -0.240   6.736   5.961 -0.0682  0.3488  0.8135
   41CHL1  H21A 4193  -0.131   6.751   5.978  0.0750 -1.2872  1.6174
   41CHL1  H21B 4194  -0.302   6.794   6.033  2.2789  1.4895  2.0332
   41CHL1  H21C 4195  -0.265   6.768   5.858 -0.4880  0.3517  0.9145
   41CHL1   C22 4196  -0.400   6.540   5.912 -0.7874  0.3920 -0.0321
   41CHL1  H22A 4197  -0.410   6.429   5.912 -0.1738  0.3330 -0.0336
   41CHL1  H22B 4198  -0.467   6.592   5.983  0.1763 -0.0520  1.2544
   41CHL1   C23 4199  -0.421   6.583   5.765 -0.5974 -0.2776 -0.6107
   41CHL1  H23A 4200  -0.439   6.692   5.756  0.5989 -0.1459 -1.6975
   41CHL1  H23B 4201  -0.323   6.571   5.713  0.6100 -1.5585  1.7598
   41CHL1   C24 4202  -0.540   6.508   5.702  0.2931  0.6201 -0.0065
   41CHL1  H24A 4203  -0.519   6.399   5.695  0.1945  0.6964 -2.9214
   41CHL1  H24B 4204  -0.620   6.509   5.779  1.5103  0.9554  1.2817
   41CHL1   C25 4205  -0.596   6.562   5.567  0.4601  0.1112  0.0972
   41CHL1   H25 4206  -0.676   6.490   5.536  0.2429  0.0271  0.8208
   41CHL1   C26 4207  -0.662   6.698   5.590  0.0450  0.7101  0.3632
   41CHL1  H26A 4208  -0.712   6.739   5.500  2.6707 -1.3621 -2.2364
   41CHL1  H26B 4209  -0.737   6.692   5.672  0.8133 -2.1466  0.9631
   41CHL1  H26C 4210  -0.582   6.769   5.623 -0.5589  1.0231  1.1838
   41CHL1   C27 4211  -0.486   6.570   5.452 -0.1122 -0.0651  0.2087
   41CHL1  H27A 4212  -0.399   6.640   5.456  0.9339 -1.0537 -2.4744
   41CHL1  H27B 4213  -0.450   6.468   5.430  1.2195  0.2942  0.5683
   41CHL1  H27C 4214  -0.539   6.592   5.357  0.3768 -1.4626 -0.4061
   42CHL1    C3 4215   6.282   0.891   6.984  0.1361 -0.5522  0.0751
   42CHL1    H3 4216   6.188   0.842   6.951  0.4553 -1.4658  0.4746
   42CHL1    O3 4217   6.273   0.927   7.120 -0.2119 -0.3166  0.3830
   42CHL1   H3' 4218   6.366   0.945   7.137 -0.0794 -2.1765  2.0204
   42CHL1    C4 4219   6.398   0.792   6.957  0.2097 -0.3640 -0.1616
   42CHL1   H4A 4220   6.491   0.844   6.986  0.2780 -0.7163  0.2568
   42CHL1   H4B 4221   6.385   0.698   7.015  1.1470 -1.4955 -1.7053
   42CHL1    C5 4222   6.402   0.761   6.810  0.0478 -0.5138  0.5351
   42CHL1    C6 4223   6.378   0.639   6.757 -0.7393 -0.7811  0.5457
   42CHL1    H6 4224   6.356   0.561   6.831 -0.4597 -0.9723  0.4286
   42CHL1    C7 4225   6.394   0.599   6.610 -0.1972  0.0941 -0.0853
   42CHL1   H7A 4226   6.455   0.507   6.595  0.5777 -0.0530  3.2653
   42CHL1   H7B 4227   6.294   0.571   6.570  0.0968 -0.7934 -0.2193
   42CHL1    C8 4228   6.458   0.707   6.522  0.3453 -0.5874 -0.1822
   42CHL1    H8 4229   6.567   0.711   6.541  0.5417  1.1892 -1.3854
   42CHL1   C14 4230   6.434   0.685   6.374 -0.2968 -0.1237  0.2535
   42CHL1   H14 4231   6.325   0.704   6.369  0.1143  2.6285  0.2253
   42CHL1   C15 4232   6.470   0.548   6.309  0.9557 -0.2947 -0.7791
   42CHL1  H15A 4233   6.572   0.518   6.341  0.5927 -0.6895  0.0302
   42CHL1  H15B 4234   6.408   0.462   6.340  0.1318 -0.7633 -3.4391
   42CHL1   C16 4235   6.468   0.577   6.153 -0.8767  0.3190 -0.4620
   42CHL1  H16A 4236   6.565   0.543   6.112 -0.4649  1.7875 -0.7650
   42CHL1  H16B 4237   6.385   0.521   6.106  0.0250 -0.6484 -0.9523
   42CHL1   C17 4238   6.458   0.725   6.135 -0.6176  0.1264  0.4949
   42CHL1   H17 4239   6.351   0.756   6.138 -0.1347  1.8477  2.0691
   42CHL1   C13 4240   6.493   0.788   6.273 -0.2235  0.6018  0.1017
   42CHL1   C18 4241   6.647   0.795   6.291 -0.3765 -0.2303 -0.7661
   42CHL1  H18A 4242   6.700   0.879   6.242  0.8555 -0.5668 -0.0471
   42CHL1  H18B 4243   6.668   0.807   6.399  0.4828 -0.0906 -0.9479
   42CHL1  H18C 4244   6.693   0.700   6.256 -0.0559 -0.0988 -0.7015
   42CHL1   C12 4245   6.438   0.926   6.310  0.3448 -0.1834  0.1058
   42CHL1  H12A 4246   6.481   1.014   6.257  0.2167  0.1496  0.5376
   42CHL1  H12B 4247   6.329   0.922   6.288  0.6535 -0.1763 -1.5237
   42CHL1   C11 4248   6.466   0.959   6.463  0.0692  0.3671  0.1642
   42CHL1  H11A 4249   6.576   0.970   6.467  0.3261 -0.2551 -3.0203
   42CHL1  H11B 4250   6.425   1.060   6.484 -0.6352  0.0568  0.3168
   42CHL1    C9 4251   6.418   0.847   6.562 -0.6540 -0.6112 -0.3827
   42CHL1    H9 4252   6.307   0.849   6.557 -0.6520  1.2312 -0.5705
   42CHL1   C10 4253   6.436   0.884   6.723 -0.1742 -0.0052  0.6201
   42CHL1   C19 4254   6.587   0.927   6.743  0.6511  0.0279  0.3065
   42CHL1  H19A 4255   6.597   0.968   6.846 -0.5902  0.0319  0.4448
   42CHL1  H19B 4256   6.658   0.844   6.722  0.5529 -0.0718  0.3661
   42CHL1  H19C 4257   6.603   1.011   6.672 -1.2752  0.5824  0.4738
   42CHL1    C1 4258   6.340   0.999   6.762  0.2812 -0.7430 -0.5644
   42CHL1   H1A 4259   6.380   1.091   6.715 -1.3429 -0.4575 -1.4677
   42CHL1   H1B 4260   6.238   0.988   6.719  0.4761  0.3109 -1.3394
   42CHL1    C2 4261   6.316   1.023   6.908  0.2450  0.4342 -0.0889
   42CHL1   H2A 4262   6.239   1.099   6.932  0.7676  1.1226 -0.5713
   42CHL1   H2B 4263   6.404   1.066   6.961 -0.1592 -0.8947  1.7742
   42CHL1   C20 4264   6.529   0.765   6.005 -0.7405 -0.0253  0.7062
   42CHL1   H20 4265   6.636   0.737   6.003 -0.7830 -0.1745 -1.1438
   42CHL1   C21 4266   6.519   0.920   5.997 -0.4092 -0.3380  0.0724
   42CHL1  H21A 4267   6.417   0.957   6.022  0.0656  0.7225  0.5241
   42CHL1  H21B 4268   6.537   0.964   5.897 -0.2104 -1.5704 -0.4510
   42CHL1  H21C 4269   6.584   0.966   6.075 -0.1472 -0.9710  0.2316
   42CHL1   C22 4270   6.465   0.705   5.877 -0.0960  0.5125 -0.3267
   42CHL1  H22A 4271   6.456   0.595   5.883  0.3358  0.5153  0.4819
   42CHL1  H22B 4272   6.365   0.753   5.873  0.5440  2.0796  1.0437
   42CHL1   C23 4273   6.538   0.738   5.744 -1.1673  0.0835  0.0583
   42CHL1  H23A 4274   6.581   0.839   5.728 -0.9740  0.0492  0.3392
   42CHL1  H23B 4275   6.632   0.679   5.741  1.3115  3.7053 -0.1703
   42CHL1   C24 4276   6.456   0.699   5.626  0.3150  0.3890  0.0343
   42CHL1  H24A 4277   6.413   0.598   5.642  0.9580  0.2685  1.1725
   42CHL1  H24B 4278   6.373   0.772   5.617  0.9961  1.1022 -0.7392
   42CHL1   C25 4279   6.531   0.696   5.487 -0.1281 -0.2775  0.4369
   42CHL1   H25 4280   6.587   0.791   5.474  0.6217 -0.6855  0.5869
   42CHL1   C26 4281   6.644   0.593   5.494  0.3589 -0.3503  0.3341
   42CHL1  H26A 4282   6.723   0.602   5.571  0.8138 -0.2954 -0.1330
   42CHL1  H26B 4283   6.595   0.493   5.496  0.6975 -0.5101  1.5111
   42CHL1  H26C 4284   6.699   0.602   5.398  1.3733  0.7551  1.0008
   42CHL1   C27 4285   6.436   0.674   5.367  0.5249 -0.3647 -0.4382
   42CHL1  H27A 4286   6.508   0.688   5.284  0.9814 -2.2970 -0.3992
   42CHL1  H27B 4287   6.401   0.569   5.369  1.4623 -0.6774  1.2186
   42CHL1  H27C 4288   6.352   0.746   5.357  0.1101 -0.8445 -0.4597
   43CHL1    C3 4289   0.437   1.675   6.598 -0.7147 -0.8356  0.2837
   43CHL1    H3 4290   0.340   1.727   6.617 -0.0069  0.5653  0.1630
   43CHL1    O3 4291   0.494   1.637   6.716 -0.1004 -0.1934 -0.0690
   43CHL1   H3' 4292   0.579   1.601   6.692  0.7166  0.2454  1.9868
   43CHL1    C4 4293   0.414   1.555   6.511  0.0109 -0.5321 -0.3488
   43CHL1   H4A 4294   0.520   1.524   6.493  0.3767  0.3022  0.3365
   43CHL1   H4B 4295   0.359   1.478   6.569  1.1341  1.1472  3.2304
   43CHL1    C5 4296   0.365   1.597   6.372 -0.0673  0.3568  0.8633
   43CHL1    C6 4297   0.246   1.553   6.323 -0.2096 -0.0520 -0.8699
   43CHL1    H6 4298   0.181   1.482   6.377  1.0623  0.1484  1.0194
   43CHL1    C7 4299   0.200   1.587   6.179  0.1632 -0.3583 -0.0732
   43CHL1   H7A 4300   0.165   1.494   6.129  0.1564 -0.5956  0.3646
   43CHL1   H7B 4301   0.117   1.661   6.184 -0.7467 -1.3736  0.3208
   43CHL1    C8 4302   0.312   1.649   6.086  0.1501  0.2012  0.1339
   43CHL1    H8 4303   0.380   1.570   6.049  2.2362  1.6336  0.7337
   43CHL1   C14 4304   0.242   1.718   5.972  0.4231 -0.7144  0.2569
   43CHL1   H14 4305   0.189   1.805   6.017  1.4173 -0.8990  1.8766
   43CHL1   C15 4306   0.130   1.655   5.895  0.1640  0.0159  0.6739
   43CHL1  H15A 4307   0.160   1.552   5.866 -0.1499  0.0105  0.3494
   43CHL1  H15B 4308   0.042   1.645   5.962 -0.8450  1.0488 -0.4308
   43CHL1   C16 4309   0.109   1.732   5.762  0.0057 -0.6193 -0.6916
   43CHL1  H16A 4310   0.117   1.655   5.683  0.8398  0.0978 -1.3171
   43CHL1  H16B 4311   0.008   1.777   5.751 -0.1659 -1.0427 -0.8429
   43CHL1   C17 4312   0.228   1.837   5.762  0.3386 -0.1304  0.3009
   43CHL1   H17 4313   0.191   1.933   5.803  4.0932  1.6061  0.0649
   43CHL1   C13 4314   0.329   1.778   5.867  1.0593  0.4722  0.5121
   43CHL1   C18 4315   0.411   1.667   5.798 -0.8759 -0.9256 -1.0186
   43CHL1  H18A 4316   0.460   1.591   5.862 -2.0709 -0.0025  1.1034
   43CHL1  H18B 4317   0.351   1.616   5.720 -0.9051 -0.6365 -1.1866
   43CHL1  H18C 4318   0.504   1.712   5.755  0.1548 -2.5077 -0.5147
   43CHL1   C12 4319   0.412   1.880   5.946 -0.4200  0.1716  0.7988
   43CHL1  H12A 4320   0.484   1.916   5.869 -1.7374 -0.0230 -0.5541
   43CHL1  H12B 4321   0.352   1.967   5.980 -0.3882  1.1489 -1.4272
   43CHL1   C11 4322   0.493   1.816   6.063 -0.2648  0.1372  0.0628
   43CHL1  H11A 4323   0.556   1.743   6.010 -0.5747 -1.0405  1.2510
   43CHL1  H11B 4324   0.566   1.888   6.106  1.7128 -1.5377 -0.3437
   43CHL1    C9 4325   0.393   1.753   6.164 -0.2755 -0.5094  0.4673
   43CHL1    H9 4326   0.322   1.835   6.188 -2.4633 -1.8988 -0.8859
   43CHL1   C10 4327   0.451   1.698   6.295 -0.6303 -0.3840  0.6003
   43CHL1   C19 4328   0.588   1.643   6.249 -0.1074  0.4146  0.4587
   43CHL1  H19A 4329   0.571   1.567   6.170 -1.2747  2.1760 -1.0724
   43CHL1  H19B 4330   0.666   1.713   6.212  0.2197  0.1900  0.7203
   43CHL1  H19C 4331   0.626   1.586   6.336 -1.7151 -1.1953  0.1702
   43CHL1    C1 4332   0.465   1.820   6.391  0.0544  0.2072  0.0052
   43CHL1   H1A 4333   0.511   1.913   6.352 -4.7996  2.6699 -0.7343
   43CHL1   H1B 4334   0.360   1.855   6.402  0.1364  1.0099 -1.4704
   43CHL1    C2 4335   0.525   1.783   6.528  0.0055  0.3326 -0.2469
   43CHL1   H2A 4336   0.520   1.868   6.599 -1.8936 -1.5357  2.0252
   43CHL1   H2B 4337   0.629   1.743   6.529  0.2073  0.6699  2.8803
   43CHL1   C20 4338   0.283   1.875   5.620  0.1306 -0.6161 -0.5515
   43CHL1   H20 4339   0.329   1.783   5.576  0.0219 -0.6462 -0.6019
   43CHL1   C21 4340   0.396   1.972   5.641  0.4417 -0.5637  0.2581
   43CHL1  H21A 4341   0.414   2.014   5.540 -0.6069 -0.7733 -0.0278
   43CHL1  H21B 4342   0.493   1.944   5.688  0.2263 -0.7615  0.5984
   43CHL1  H21C 4343   0.356   2.056   5.702 -0.0292 -0.9091  0.4292
   43CHL1   C22 4344   0.171   1.929   5.524 -0.0108  0.6613 -0.0333
   43CHL1  H22A 4345   0.084   1.866   5.553  0.9075 -1.6590 -1.9179
   43CHL1  H22B 4346   0.145   2.037   5.533 -1.0727  0.3025  1.4279
   43CHL1   C23 4347   0.210   1.896   5.377 -0.6493 -0.0627 -0.3504
   43CHL1  H23A 4348   0.264   1.982   5.331  0.8636 -1.1087 -0.6013
   43CHL1  H23B 4349   0.280   1.810   5.375  0.3992  0.7510  0.1861
   43CHL1   C24 4350   0.088   1.850   5.295 -0.4307 -0.0026  0.2167
   43CHL1  H24A 4351   0.048   1.765   5.355 -0.9457  0.4468  0.5242
   43CHL1  H24B 4352   0.010   1.928   5.303 -0.0013  0.3296  1.4436
   43CHL1   C25 4353   0.108   1.804   5.156  0.0631  0.2271 -0.1682
   43CHL1   H25 4354   0.200   1.744   5.144 -0.5833 -0.5868 -1.3801
   43CHL1   C26 4355   0.005   1.708   5.102  0.0877 -0.0963 -0.1905
   43CHL1  H26A 4356   0.032   1.697   4.995  0.2750  1.6905 -0.3559
   43CHL1  H26B 4357   0.015   1.611   5.156 -0.2876 -0.1401 -0.1936
   43CHL1  H26C 4358  -0.102   1.739   5.107 -0.4046 -1.2708 -2.1179
   43CHL1   C27 4359   0.138   1.933   5.073  0.1014  0.7682 -0.0157
   43CHL1  H27A 4360   0.082   2.020   5.113  0.2622  1.3607 -1.0408
   43CHL1  H27B 4361   0.246   1.957   5.068  0.4341 -0.6325  0.0637
   43CHL1  H27C 4362   0.110   1.922   4.966  3.2458  1.2541 -0.9942
   44CHL1    C3 4363   5.807   5.885   6.685  0.3676  0.8383 -0.4271
   44CHL1    H3 4364   5.873   5.801   6.652 -0.5732 -0.1333  0.0923
   44CHL1    O3 4365   5.835   5.905   6.827  0.1205  0.0625  0.6001
   44CHL1   H3' 4366   5.931   5.905   6.840  0.4404  1.1722 -1.3455
   44CHL1    C4 4367   5.821   6.021   6.609  0.0752 -0.4867  0.0152
   44CHL1   H4A 4368   5.752   6.089   6.662 -0.7238 -0.8266 -0.5801
   44CHL1   H4B 4369   5.921   6.065   6.630  0.7211 -2.6262  1.8756
   44CHL1    C5 4370   5.801   6.012   6.461  1.2124  0.3474 -0.4319
   44CHL1    C6 4371   5.897   6.052   6.371  0.0206  0.0564  0.3831
   44CHL1    H6 4372   5.992   6.092   6.411  0.0984  0.7448 -0.4637
   44CHL1    C7 4373   5.879   6.055   6.227 -0.1887  0.0653 -0.9321
   44CHL1   H7A 4374   5.909   6.157   6.192  0.1580  0.6219  0.9023
   44CHL1   H7B 4375   5.942   5.981   6.173 -0.5249 -1.1259  0.2848
   44CHL1    C8 4376   5.733   6.033   6.184  0.6435 -0.1275  0.4141
   44CHL1    H8 4377   5.669   6.123   6.196 -1.9976 -1.1924 -3.6708
   44CHL1   C14 4378   5.736   5.977   6.040 -1.1274 -0.3336  0.1611
   44CHL1   H14 4379   5.780   5.875   6.034  0.1345  0.2551 -3.5748
   44CHL1   C15 4380   5.817   6.065   5.938  0.0695 -0.1602 -0.6337
   44CHL1  H15A 4381   5.795   6.172   5.958  1.7695 -0.0454  0.8287
   44CHL1  H15B 4382   5.926   6.048   5.938 -0.3077 -3.9229 -3.2528
   44CHL1   C16 4383   5.748   6.028   5.807 -0.3763 -0.4329 -0.4779
   44CHL1  H16A 4384   5.690   6.110   5.760 -0.7680 -1.3309 -1.6159
   44CHL1  H16B 4385   5.813   5.988   5.726 -2.2511  1.1890 -2.9279
   44CHL1   C17 4386   5.634   5.919   5.841  0.3037  1.1271 -0.6683
   44CHL1   H17 4387   5.678   5.817   5.834  0.9169  1.1124  2.0747
   44CHL1   C13 4388   5.591   5.953   5.988  0.1687 -0.5424  0.5468
   44CHL1   C18 4389   5.507   6.086   5.987 -0.0850 -0.2732  1.2197
   44CHL1  H18A 4390   5.563   6.160   5.925 -0.0320  0.9810  2.6965
   44CHL1  H18B 4391   5.404   6.073   5.948 -0.5161 -0.5480  2.4036
   44CHL1  H18C 4392   5.493   6.132   6.087  0.2998  0.5622  0.9018
   44CHL1   C12 4393   5.530   5.845   6.068 -0.0971 -0.3659  0.3288
   44CHL1  H12A 4394   5.430   5.809   6.035 -0.7061 -0.0959  1.8268
   44CHL1  H12B 4395   5.597   5.757   6.060  0.2615 -0.2739  1.9574
   44CHL1   C11 4396   5.522   5.898   6.218  0.0229 -0.4394  0.5875
   44CHL1  H11A 4397   5.456   5.986   6.228  1.0846  0.3498  0.8671
   44CHL1  H11B 4398   5.481   5.811   6.273 -0.9696 -1.9010 -2.2923
   44CHL1    C9 4399   5.662   5.927   6.276 -0.1922  0.1504  0.9408
   44CHL1    H9 4400   5.719   5.833   6.257 -0.5495 -0.1911  1.5062
   44CHL1   C10 4401   5.662   5.946   6.432  0.1436  0.0843  1.2699
   44CHL1   C19 4402   5.557   6.061   6.456  0.3200 -0.1560 -0.7052
   44CHL1  H19A 4403   5.578   6.154   6.400  1.2392 -1.0407 -1.8996
   44CHL1  H19B 4404   5.454   6.027   6.431  0.7628 -0.8188 -1.6962
   44CHL1  H19C 4405   5.548   6.083   6.565 -2.0761  3.2700 -1.4337
   44CHL1    C1 4406   5.625   5.817   6.513 -0.1530 -0.1249 -0.1443
   44CHL1   H1A 4407   5.529   5.763   6.497  0.0268 -0.1097 -1.3278
   44CHL1   H1B 4408   5.704   5.743   6.489  0.4419 -0.1726  1.7955
   44CHL1    C2 4409   5.663   5.833   6.662  0.9124  0.1149  0.1705
   44CHL1   H2A 4410   5.658   5.731   6.705  1.8275  0.4573  1.1306
   44CHL1   H2B 4411   5.597   5.898   6.723  2.3655  0.3856  1.5236
   44CHL1   C20 4412   5.535   5.909   5.720  0.1945  0.9479 -0.2030
   44CHL1   H20 4413   5.485   6.008   5.722 -4.4345 -1.1100 -0.6727
   44CHL1   C21 4414   5.429   5.805   5.757 -0.1454 -0.1726  0.0404
   44CHL1  H21A 4415   5.474   5.710   5.793  0.6822  1.2643  3.1007
   44CHL1  H21B 4416   5.365   5.775   5.672 -0.1117 -2.2080  0.6581
   44CHL1  H21C 4417   5.355   5.837   5.834 -0.3637 -2.9840  1.1222
   44CHL1   C22 4418   5.590   5.877   5.584 -0.2475  0.1736 -0.0369
   44CHL1  H22A 4419   5.693   5.914   5.567 -0.6622  1.3721 -0.0275
   44CHL1  H22B 4420   5.609   5.768   5.594 -1.2141 -0.1739 -1.6306
   44CHL1   C23 4421   5.504   5.923   5.465 -0.1464 -0.0907 -1.1321
   44CHL1  H23A 4422   5.397   5.915   5.491  0.1977  0.3670  0.5247
   44CHL1  H23B 4423   5.536   6.026   5.437 -0.6221  0.6423  0.8934
   44CHL1   C24 4424   5.528   5.826   5.351 -0.1236  0.1348  0.3771
   44CHL1  H24A 4425   5.632   5.789   5.343 -0.0163  0.6005 -0.5232
   44CHL1  H24B 4426   5.471   5.734   5.375  1.3000 -1.7571 -2.8628
   44CHL1   C25 4427   5.489   5.884   5.215 -0.2697  0.2993 -0.3929
   44CHL1   H25 4428   5.546   5.974   5.184 -0.7363  0.9476  0.5798
   44CHL1   C26 4429   5.523   5.783   5.105  0.5265 -0.3801  0.3915
   44CHL1  H26A 4430   5.634   5.774   5.101  0.6220 -0.2669  2.0025
   44CHL1  H26B 4431   5.481   5.681   5.123 -1.1082  0.3168  0.6470
   44CHL1  H26C 4432   5.487   5.833   5.013  2.4966 -0.4802 -0.4868
   44CHL1   C27 4433   5.339   5.925   5.201  0.0846 -0.3972 -0.3509
   44CHL1  H27A 4434   5.326   6.026   5.245  1.9215 -0.2014 -0.1689
   44CHL1  H27B 4435   5.311   5.941   5.095  0.2909 -0.6186 -0.4413
   44CHL1  H27C 4436   5.267   5.854   5.247 -0.3816  0.1770 -0.1873
   45CHL1    C3 4437   1.059   6.614   6.598 -0.4759  0.1566 -0.8060
   45CHL1    H3 4438   1.130   6.693   6.630  1.4357 -1.3469 -1.1484
   45CHL1    O3 4439   1.019   6.544   6.711 -0.1443 -0.5159  0.0398
   45CHL1   H3' 4440   0.968   6.606   6.764 -1.8011 -0.3340 -1.7032
   45CHL1    C4 4441   0.933   6.665   6.534 -0.7442 -0.1398 -0.2732
   45CHL1   H4A 4442   0.861   6.580   6.535 -1.5150  0.4848 -0.9376
   45CHL1   H4B 4443   0.882   6.742   6.595  0.0441  2.5935 -2.8422
   45CHL1    C5 4444   0.956   6.714   6.387 -0.1277 -0.0931  0.5969
   45CHL1    C6 4445   0.918   6.831   6.347 -0.0775  0.0456  1.3360
   45CHL1    H6 4446   0.865   6.887   6.426  1.1368 -1.3488  3.2233
   45CHL1    C7 4447   0.910   6.861   6.198 -0.0932 -0.1588 -0.0405
   45CHL1   H7A 4448   0.816   6.915   6.172  1.8847  3.4253 -0.3946
   45CHL1   H7B 4449   0.990   6.933   6.171  0.0364 -0.3959 -0.2843
   45CHL1    C8 4450   0.929   6.739   6.107  0.1526 -0.5043  0.3718
   45CHL1    H8 4451   0.831   6.688   6.110  0.1499 -0.4648  1.8430
   45CHL1   C14 4452   0.956   6.792   5.967 -0.2642  0.3946 -0.3865
   45CHL1   H14 4453   1.048   6.852   5.953  0.5941 -0.8699 -0.3598
   45CHL1   C15 4454   0.841   6.882   5.892 -0.4286  0.1636 -0.5599
   45CHL1  H15A 4455   0.747   6.823   5.893  0.6512 -1.6488  0.7771
   45CHL1  H15B 4456   0.825   6.982   5.937 -0.3695  0.5911 -1.4664
   45CHL1   C16 4457   0.894   6.877   5.748  0.6010  0.4982  0.0524
   45CHL1  H16A 4458   0.811   6.857   5.677  0.7910  0.5187 -0.1763
   45CHL1  H16B 4459   0.945   6.971   5.717  1.6436  0.3433  1.2391
   45CHL1   C17 4460   0.996   6.756   5.738  0.0698 -0.5296  0.4127
   45CHL1   H17 4461   1.096   6.804   5.743  0.0890 -0.4259 -0.7117
   45CHL1   C13 4462   0.981   6.676   5.864  0.2451 -0.4484 -0.7980
   45CHL1   C18 4463   0.866   6.578   5.860  0.3674  0.2058 -0.3906
   45CHL1  H18A 4464   0.883   6.480   5.811  1.3498 -1.0468  2.2570
   45CHL1  H18B 4465   0.829   6.549   5.960  1.3895  1.1698  0.2896
   45CHL1  H18C 4466   0.778   6.630   5.815 -1.7595 -1.2734  1.8206
   45CHL1   C12 4467   1.107   6.600   5.907 -0.4602 -0.1722  0.1280
   45CHL1  H12A 4468   1.127   6.529   5.824 -1.2088 -0.6802  0.3670
   45CHL1  H12B 4469   1.196   6.666   5.894 -0.3772 -0.7917 -3.6967
   45CHL1   C11 4470   1.096   6.551   6.050  0.0187  1.0827  0.3563
   45CHL1  H11A 4471   1.013   6.478   6.041  0.3909  0.7277 -0.2429
   45CHL1  H11B 4472   1.182   6.488   6.081 -1.1658 -0.6455  0.2723
   45CHL1    C9 4473   1.045   6.655   6.156 -0.5017  0.3000 -1.0966
   45CHL1    H9 4474   1.128   6.727   6.171 -0.7114  0.1889  0.8457
   45CHL1   C10 4475   1.018   6.603   6.300  0.0595  0.0521 -0.0265
   45CHL1   C19 4476   0.915   6.486   6.288  0.8216 -0.2247  0.1313
   45CHL1  H19A 4477   0.973   6.411   6.229  2.5121  1.1679 -0.0480
   45CHL1  H19B 4478   0.890   6.436   6.384 -0.9063 -1.6224 -0.9853
   45CHL1  H19C 4479   0.814   6.515   6.253  1.1851 -1.1624 -1.8362
   45CHL1    C1 4480   1.153   6.574   6.369  0.1105  0.1594  0.2716
   45CHL1   H1A 4481   1.207   6.497   6.309  1.7443  1.2228  0.3122
   45CHL1   H1B 4482   1.223   6.660   6.380  0.3856 -0.0328  0.0497
   45CHL1    C2 4483   1.136   6.509   6.513 -0.3085  0.4689  1.0487
   45CHL1   H2A 4484   1.233   6.471   6.551  0.1827 -0.5995 -1.1333
   45CHL1   H2B 4485   1.062   6.427   6.509 -2.1571  2.0499  1.2284
   45CHL1   C20 4486   1.016   6.688   5.591  0.5680  0.0491  0.0744
   45CHL1   H20 4487   1.076   6.595   5.604  2.1586  1.0273 -0.1257
   45CHL1   C21 4488   1.098   6.783   5.504 -0.0181  0.3039  0.4550
   45CHL1  H21A 4489   1.198   6.791   5.552  0.7394 -2.1127 -0.5893
   45CHL1  H21B 4490   1.063   6.887   5.484  0.7369  0.4228 -0.3145
   45CHL1  H21C 4491   1.116   6.736   5.405 -1.8981  1.1733 -0.3476
   45CHL1   C22 4492   0.882   6.658   5.523 -0.1145  0.0812 -0.7143
   45CHL1  H22A 4493   0.811   6.613   5.595 -1.0847  1.6219 -0.6636
   45CHL1  H22B 4494   0.843   6.760   5.501  0.1206  0.4275  0.4196
   45CHL1   C23 4495   0.896   6.566   5.402  0.2706 -0.5748  0.4794
   45CHL1  H23A 4496   0.943   6.624   5.319  1.3431 -0.8518  0.8779
   45CHL1  H23B 4497   0.942   6.466   5.415  1.6195 -0.8635 -4.3269
   45CHL1   C24 4498   0.759   6.520   5.344 -0.4227  0.0794 -0.3855
   45CHL1  H24A 4499   0.714   6.462   5.427  0.0779  1.8935  1.2295
   45CHL1  H24B 4500   0.695   6.610   5.326 -3.0210 -1.4091  0.7646
   45CHL1   C25 4501   0.760   6.434   5.216 -0.2375  0.6297  0.1800
   45CHL1   H25 4502   0.811   6.340   5.247 -1.7417  0.3263  1.9026
   45CHL1   C26 4503   0.615   6.387   5.179  0.2605  0.0121  0.2493
   45CHL1  H26A 4504   0.573   6.340   5.271 -1.5617 -1.8488 -1.4390
   45CHL1  H26B 4505   0.561   6.479   5.147  0.1182 -0.0035  0.4411
   45CHL1  H26C 4506   0.625   6.310   5.101 -1.1079  1.6653 -1.6812
   45CHL1   C27 4507   0.831   6.503   5.095  0.1488 -0.0320  0.5902
   45CHL1  H27A 4508   0.765   6.572   5.038  1.2415 -0.4667 -1.2709
   45CHL1  H27B 4509   0.921   6.562   5.120  0.8292 -1.2549  1.1218
   45CHL1  H27C 4510   0.864   6.421   5.029 -0.2671  0.8336 -0.7192
   46CHL1    C3 4511   2.079   6.689   6.769 -0.1198 -0.3165 -0.0168
   46CHL1    H3 4512   2.003   6.748   6.713 -0.7273 -1.5325 -0.5210
   46CHL1    O3 4513   2.076   6.712   6.910  0.5904 -0.5692 -0.4370
   46CHL1   H3' 4514   2.154   6.663   6.939  1.4481  0.2634 -1.2646
   46CHL1    C4 4515   2.064   6.533   6.733  0.0779 -0.7376 -0.9337
   46CHL1   H4A 4516   2.151   6.488   6.787  1.6529  2.1464 -0.8554
   46CHL1   H4B 4517   1.968   6.503   6.779  0.2496  1.5106  1.1672
   46CHL1    C5 4518   2.075   6.501   6.588  0.3470  0.0692  0.0192
   46CHL1    C6 4519   1.975   6.430   6.525  0.0278 -0.0743 -0.0943
   46CHL1    H6 4520   1.882   6.404   6.579 -0.4913 -0.5828 -1.2103
   46CHL1    C7 4521   1.981   6.407   6.383  1.0327 -0.6247  0.2464
   46CHL1   H7A 4522   1.938   6.311   6.348  3.6268 -1.6563 -0.3085
   46CHL1   H7B 4523   1.916   6.482   6.333  0.2296  0.7944  3.1927
   46CHL1    C8 4524   2.122   6.414   6.329  0.5415  0.0515  0.3654
   46CHL1    H8 4525   2.171   6.319   6.360  0.0868 -0.1366  0.5182
   46CHL1   C14 4526   2.114   6.428   6.179 -0.4469  1.2519 -0.1901
   46CHL1   H14 4527   2.051   6.517   6.159 -1.5527  1.3064  2.9530
   46CHL1   C15 4528   2.033   6.315   6.107 -0.4735  0.3949 -0.1318
   46CHL1  H15A 4529   2.059   6.210   6.133  2.5910  0.5109 -2.1760
   46CHL1  H15B 4530   1.924   6.329   6.125 -0.4255 -1.8471  2.5659
   46CHL1   C16 4531   2.062   6.332   5.959  0.4860 -0.3011 -0.0005
   46CHL1  H16A 4532   2.080   6.234   5.912  2.1765 -0.6741  1.3264
   46CHL1  H16B 4533   1.979   6.384   5.906  0.7824 -0.6289 -0.7956
   46CHL1   C17 4534   2.181   6.431   5.953 -0.0054 -0.8995  0.6875
   46CHL1   H17 4535   2.137   6.532   5.939  0.0085 -0.9248  0.4585
   46CHL1   C13 4536   2.244   6.433   6.097  0.0974 -0.1709  0.8756
   46CHL1   C18 4537   2.336   6.316   6.109 -0.2560 -0.0399 -0.3795
   46CHL1  H18A 4538   2.366   6.294   6.213  0.3774 -0.2257 -0.5964
   46CHL1  H18B 4539   2.285   6.224   6.072 -1.4254  0.9680 -1.3457
   46CHL1  H18C 4540   2.422   6.337   6.042 -1.3938 -0.2627 -1.9818
   46CHL1   C12 4541   2.312   6.573   6.138  0.1089  0.1896  0.2349
   46CHL1  H12A 4542   2.413   6.584   6.093  0.3055 -0.8918  0.3701
   46CHL1  H12B 4543   2.250   6.662   6.117  1.5622  1.1595 -0.0551
   46CHL1   C11 4544   2.334   6.565   6.294 -0.1868 -0.4201  0.2210
   46CHL1  H11A 4545   2.413   6.492   6.321  3.3296  2.4422 -1.5300
   46CHL1  H11B 4546   2.372   6.665   6.323  1.5558 -1.2739  1.0302
   46CHL1    C9 4547   2.198   6.543   6.371  0.0601 -0.4767  0.1461
   46CHL1    H9 4548   2.129   6.622   6.335 -1.2293 -1.8434 -0.5332
   46CHL1   C10 4549   2.207   6.555   6.522 -0.0092  0.2438 -0.8108
   46CHL1   C19 4550   2.316   6.461   6.572  0.3541  0.1961 -0.4526
   46CHL1  H19A 4551   2.408   6.477   6.511 -0.5520  2.9341 -1.2471
   46CHL1  H19B 4552   2.331   6.461   6.682 -0.2818 -0.4165 -0.3629
   46CHL1  H19C 4553   2.288   6.357   6.546 -1.1473  0.1816  1.0930
   46CHL1    C1 4554   2.231   6.707   6.569  0.2464  0.0245  0.1638
   46CHL1   H1A 4555   2.319   6.752   6.519 -0.3443  0.3520 -0.5959
   46CHL1   H1B 4556   2.147   6.765   6.527  0.6679 -0.9937 -2.2369
   46CHL1    C2 4557   2.218   6.739   6.718  0.5861 -0.0357  0.4562
   46CHL1   H2A 4558   2.229   6.845   6.749  0.1455 -0.9476  4.2237
   46CHL1   H2B 4559   2.303   6.688   6.769  0.5596  1.6005  2.2165
   46CHL1   C20 4560   2.270   6.408   5.823  0.0694 -0.2384 -0.0735
   46CHL1   H20 4561   2.323   6.312   5.841  0.5262  0.0871  0.3455
   46CHL1   C21 4562   2.361   6.536   5.801 -0.2190  0.0135 -0.0332
   46CHL1  H21A 4563   2.427   6.528   5.712  0.2788  0.0282  0.3376
   46CHL1  H21B 4564   2.429   6.535   5.888 -0.9983 -1.8895  0.6306
   46CHL1  H21C 4565   2.299   6.628   5.799  0.2105  0.2993 -0.7813
   46CHL1   C22 4566   2.198   6.377   5.689  0.2203  0.1284  0.6425
   46CHL1  H22A 4567   2.121   6.298   5.706  0.7890 -0.6819 -0.3757
   46CHL1  H22B 4568   2.147   6.471   5.660  1.2009  0.2339 -0.8446
   46CHL1   C23 4569   2.284   6.321   5.569 -0.0020  0.5421 -0.7209
   46CHL1  H23A 4570   2.358   6.401   5.548  1.5753 -1.0212 -1.3440
   46CHL1  H23B 4571   2.345   6.233   5.599 -0.3189  0.2017 -1.0713
   46CHL1   C24 4572   2.197   6.294   5.442 -0.1821  0.0773  0.4445
   46CHL1  H24A 4573   2.129   6.208   5.460  0.7294 -0.7026  0.2102
   46CHL1  H24B 4574   2.134   6.385   5.431 -0.5822 -0.1419  0.8631
   46CHL1   C25 4575   2.277   6.284   5.313  0.7834 -0.0119  0.2512
   46CHL1   H25 4576   2.329   6.186   5.320  1.8113  0.3480 -1.5992
   46CHL1   C26 4577   2.194   6.276   5.184  0.6532 -0.0590 -1.1398
   46CHL1  H26A 4578   2.115   6.355   5.189  0.9206  0.2246 -1.3800
   46CHL1  H26B 4579   2.242   6.278   5.084  1.2742  0.2052 -0.8402
   46CHL1  H26C 4580   2.161   6.170   5.185  1.5199 -0.3338  0.0723
   46CHL1   C27 4581   2.372   6.399   5.294  0.2926  0.3059  0.4848
   46CHL1  H27A 4582   2.409   6.377   5.192  1.1793 -1.9992  1.2505
   46CHL1  H27B 4583   2.339   6.505   5.307  1.5723  0.7615  0.2480
   46CHL1  H27C 4584   2.463   6.381   5.355 -0.2301 -2.9565  0.4392
   47CHL1    C3 4585   1.487   0.163   6.680 -0.0288  0.5209 -0.0250
   47CHL1    H3 4586   1.596   0.157   6.702 -0.0114  1.1271  0.0756
   47CHL1    O3 4587   1.432   0.179   6.807  0.0195 -0.9682 -0.0979
   47CHL1   H3' 4588   1.346   0.220   6.796 -1.1311 -3.0066  0.6825
   47CHL1    C4 4589   1.458   0.285   6.591  0.2235  0.1075  0.1189
   47CHL1   H4A 4590   1.349   0.300   6.606 -0.4016 -1.9318 -1.9191
   47CHL1   H4B 4591   1.508   0.373   6.637 -0.2978  0.7737 -0.5458
   47CHL1    C5 4592   1.475   0.275   6.444  0.2170 -0.5883 -0.6316
   47CHL1    C6 4593   1.558   0.363   6.383  0.2976 -0.5235  0.4665
   47CHL1    H6 4594   1.601   0.452   6.432  1.8311 -0.3360 -1.1192
   47CHL1    C7 4595   1.584   0.358   6.233  0.3527  0.2627 -0.2344
   47CHL1   H7A 4596   1.574   0.462   6.193  1.7442 -0.4849 -2.7385
   47CHL1   H7B 4597   1.689   0.322   6.230  0.4100  0.1588  1.8377
   47CHL1    C8 4598   1.497   0.259   6.159  0.0260  0.1250 -0.0752
   47CHL1    H8 4599   1.392   0.295   6.156 -0.1283 -0.3820 -1.3011
   47CHL1   C14 4600   1.549   0.235   6.020 -0.4912 -0.2186 -0.4110
   47CHL1   H14 4601   1.647   0.183   6.023  1.1403  2.6478 -0.4831
   47CHL1   C15 4602   1.566   0.361   5.933  0.1516 -0.6990  0.3209
   47CHL1  H15A 4603   1.466   0.409   5.947  0.6149  0.8123 -1.1700
   47CHL1  H15B 4604   1.642   0.435   5.964 -0.1018 -0.7108  0.9804
   47CHL1   C16 4605   1.571   0.308   5.789  0.4385 -0.5560  0.3895
   47CHL1  H16A 4606   1.485   0.356   5.737  0.6769 -0.1873  0.3402
   47CHL1  H16B 4607   1.669   0.330   5.742  0.5300  1.4103  1.4183
   47CHL1   C17 4608   1.536   0.152   5.803 -0.7977  0.2817  0.6888
   47CHL1   H17 4609   1.635   0.103   5.814  0.1526  1.5874 -1.4146
   47CHL1   C13 4610   1.467   0.137   5.939 -0.6558 -0.3418  0.2241
   47CHL1   C18 4611   1.327   0.182   5.923  0.4854  0.1783 -0.1447
   47CHL1  H18A 4612   1.277   0.200   6.021  1.3607 -0.1332  0.3731
   47CHL1  H18B 4613   1.327   0.286   5.883  1.7456  0.7118  1.1224
   47CHL1  H18C 4614   1.265   0.112   5.864  1.1829 -1.3573  0.8692
   47CHL1   C12 4615   1.473   0.006   6.013 -0.0803 -1.3869  0.0156
   47CHL1  H12A 4616   1.400  -0.060   5.961  0.0770 -0.2877 -1.6317
   47CHL1  H12B 4617   1.574  -0.039   6.000  0.6466  0.0763  0.4226
   47CHL1   C11 4618   1.435   0.009   6.159  0.8343  0.4340 -0.1701
   47CHL1  H11A 4619   1.325  -0.003   6.168  1.0958 -0.8144  2.2217
   47CHL1  H11B 4620   1.475  -0.087   6.199  1.3577 -0.7808 -3.3195
   47CHL1    C9 4621   1.491   0.136   6.238  0.1704  0.6615 -0.3160
   47CHL1    H9 4622   1.600   0.115   6.251  0.2714  1.6470  0.5689
   47CHL1   C10 4623   1.428   0.147   6.377  0.1904  0.2315  0.5227
   47CHL1   C19 4624   1.272   0.154   6.367  0.2225 -1.1221 -1.3040
   47CHL1  H19A 4625   1.246   0.246   6.310 -0.3914 -1.4494 -1.5627
   47CHL1  H19B 4626   1.221   0.076   6.306 -3.4807 -0.8039  1.0963
   47CHL1  H19C 4627   1.217   0.163   6.462  1.2750 -0.5497 -0.7322
   47CHL1    C1 4628   1.476   0.028   6.467  0.6474 -0.2748 -0.7637
   47CHL1   H1A 4629   1.435  -0.066   6.423 -2.9648  0.1696  1.2910
   47CHL1   H1B 4630   1.587   0.019   6.468  0.7537  0.5100  1.8913
   47CHL1    C2 4631   1.435   0.029   6.617 -0.3265 -0.5774  0.2748
   47CHL1   H2A 4632   1.461  -0.062   6.675 -2.2110 -1.2987  0.0536
   47CHL1   H2B 4633   1.325   0.038   6.625 -0.3171 -1.3307  1.3596
   47CHL1   C20 4634   1.478   0.089   5.670 -0.5385 -0.1032 -0.0129
   47CHL1   H20 4635   1.372   0.121   5.667 -0.4408  0.3182  0.6847
   47CHL1   C21 4636   1.490  -0.062   5.672  0.9755  0.3006  0.1549
   47CHL1  H21A 4637   1.590  -0.097   5.706  0.8151  0.4660  0.8239
   47CHL1  H21B 4638   1.481  -0.108   5.572  0.9189 -0.0617  0.3253
   47CHL1  H21C 4639   1.418  -0.108   5.743  0.0888  3.2248  1.2895
   47CHL1   C22 4640   1.561   0.130   5.540 -0.6960 -0.1672  0.2785
   47CHL1  H22A 4641   1.610   0.228   5.560 -0.6537 -0.4949  2.0209
   47CHL1  H22B 4642   1.650   0.068   5.516 -0.9150  0.7882 -3.6190
   47CHL1   C23 4643   1.476   0.133   5.416  0.5742 -0.1861 -0.2591
   47CHL1  H23A 4644   1.440   0.031   5.391 -4.1789  1.2103  0.0496
   47CHL1  H23B 4645   1.382   0.191   5.422  1.0492  0.7490 -1.4677
   47CHL1   C24 4646   1.547   0.196   5.301 -0.2692 -0.8929 -0.0314
   47CHL1  H24A 4647   1.571   0.301   5.328 -0.4270 -0.9673  0.3946
   47CHL1  H24B 4648   1.648   0.150   5.288  1.2340  2.7758 -2.9483
   47CHL1   C25 4649   1.470   0.189   5.165 -0.5770 -0.0229 -0.1863
   47CHL1   H25 4650   1.373   0.240   5.185 -1.3894 -1.1985 -1.0004
   47CHL1   C26 4651   1.546   0.266   5.059  0.1158  0.3363  0.1190
   47CHL1  H26A 4652   1.564   0.372   5.086 -0.9978  0.4002  0.6651
   47CHL1  H26B 4653   1.642   0.213   5.044  0.2976  0.6331  0.2307
   47CHL1  H26C 4654   1.501   0.257   4.958  1.5964 -2.2644 -0.4079
   47CHL1   C27 4655   1.429   0.045   5.111 -0.3857  0.6193  0.6169
   47CHL1  H27A 4656   1.334   0.024   5.164 -1.3182  2.0659 -0.3897
   47CHL1  H27B 4657   1.389   0.055   5.008  1.5815 -0.8316 -0.3533
   47CHL1  H27C 4658   1.511  -0.029   5.121  0.9341  2.1758  1.9681
   48CHL1    C3 4659   4.802   1.639   6.705 -0.1280  0.0726  0.4651
   48CHL1    H3 4660   4.896   1.698   6.703 -0.6082  0.8441  0.4780
   48CHL1    O3 4661   4.763   1.611   6.836 -0.0508 -0.5091 -0.2417
   48CHL1   H3' 4662   4.789   1.689   6.885  0.0792 -1.1210  0.6993
   48CHL1    C4 4663   4.704   1.741   6.643  0.0378 -0.3139  0.1246
   48CHL1   H4A 4664   4.600   1.705   6.655  0.2674 -0.5986  1.3661
   48CHL1   H4B 4665   4.710   1.831   6.707  1.7454 -0.0277 -0.3821
   48CHL1    C5 4666   4.737   1.767   6.499 -1.1511 -1.0164 -0.0907
   48CHL1    C6 4667   4.761   1.899   6.462  0.6305 -0.1008  0.4442
   48CHL1    H6 4668   4.746   1.978   6.537  0.0787  0.0471  0.1805
   48CHL1    C7 4669   4.780   1.927   6.314  0.1010 -0.3051  0.1042
   48CHL1   H7A 4670   4.701   2.001   6.288 -1.7598 -2.0632  0.4861
   48CHL1   H7B 4671   4.875   1.981   6.297 -1.7589  2.8490 -1.1678
   48CHL1    C8 4672   4.769   1.801   6.212  0.2342 -0.5681  0.4173
   48CHL1    H8 4673   4.661   1.783   6.198  0.4912 -2.8881  1.0805
   48CHL1   C14 4674   4.830   1.841   6.078  0.4772 -0.4659 -0.3245
   48CHL1   H14 4675   4.936   1.865   6.103 -0.5944  1.3434  3.1128
   48CHL1   C15 4676   4.770   1.961   6.001  0.0780 -0.2109 -0.2138
   48CHL1  H15A 4677   4.660   1.948   6.012  0.3675 -1.0512  2.0465
   48CHL1  H15B 4678   4.799   2.053   6.056  1.1746  0.3764 -1.7122
   48CHL1   C16 4679   4.818   1.943   5.850 -0.2484  0.1774  0.2555
   48CHL1  H16A 4680   4.727   1.955   5.786  1.4676  2.5587 -1.9664
   48CHL1  H16B 4681   4.886   2.023   5.812  0.7663  0.0861  1.8174
   48CHL1   C17 4682   4.876   1.800   5.848 -1.2467 -0.0725  0.0568
   48CHL1   H17 4683   4.986   1.810   5.861 -1.2754  0.2979  0.0350
   48CHL1   C13 4684   4.822   1.726   5.973  0.4153 -0.3633 -0.5446
   48CHL1   C18 4685   4.675   1.682   5.948  0.2875 -0.7708  0.3468
   48CHL1  H18A 4686   4.614   1.770   5.917  0.0438 -1.0035  0.1637
   48CHL1  H18B 4687   4.666   1.608   5.865 -2.7600 -1.1612  0.9327
   48CHL1  H18C 4688   4.628   1.642   6.040  2.2109  0.1937  1.8291
   48CHL1   C12 4689   4.903   1.610   6.028  0.0497 -0.5779 -0.3866
   48CHL1  H12A 4690   4.891   1.516   5.970  1.4842 -2.3125  1.9391
   48CHL1  H12B 4691   5.011   1.637   6.031 -0.2007  0.5577 -1.0361
   48CHL1   C11 4692   4.872   1.567   6.179 -0.6399  0.7152  0.6050
   48CHL1  H11A 4693   4.790   1.493   6.174  1.0338 -1.1443 -2.4797
   48CHL1  H11B 4694   4.960   1.510   6.216  0.0206  1.7016  0.6064
   48CHL1    C9 4695   4.844   1.682   6.276 -0.5079 -0.8122  0.1680
   48CHL1    H9 4696   4.944   1.722   6.305 -1.5280  0.0140  2.8874
   48CHL1   C10 4697   4.762   1.641   6.404 -0.2020  0.0948  0.0854
   48CHL1   C19 4698   4.618   1.592   6.363  0.4737 -0.7371 -0.0161
   48CHL1  H19A 4699   4.548   1.672   6.334 -1.2340 -1.7905  0.9783
   48CHL1  H19B 4700   4.612   1.519   6.280  1.3401 -0.2858 -0.4919
   48CHL1  H19C 4701   4.570   1.533   6.445  0.0120  0.9976  1.0052
   48CHL1    C1 4702   4.844   1.530   6.478  0.8162  0.3062  0.0856
   48CHL1   H1A 4703   4.835   1.434   6.423  1.4510  0.3749 -0.1444
   48CHL1   H1B 4704   4.948   1.567   6.473  0.2391  1.8626 -2.8167
   48CHL1    C2 4705   4.797   1.506   6.624  0.0786  0.4998 -0.1976
   48CHL1   H2A 4706   4.854   1.418   6.660 -1.2806 -0.6308 -0.7109
   48CHL1   H2B 4707   4.695   1.463   6.622  0.9331 -1.6782  0.5894
   48CHL1   C20 4708   4.853   1.733   5.706  0.2698 -0.1074  0.1617
   48CHL1   H20 4709   4.743   1.724   5.691  0.3380 -0.2624 -0.2696
   48CHL1   C21 4710   4.922   1.590   5.701 -0.3623  0.1797 -0.1960
   48CHL1  H21A 4711   4.943   1.547   5.601  1.4832  1.1497 -0.2862
   48CHL1  H21B 4712   5.021   1.594   5.752  0.8815 -1.6665 -2.2499
   48CHL1  H21C 4713   4.857   1.519   5.756  0.7090 -1.9233 -1.5118
   48CHL1   C22 4714   4.927   1.820   5.603 -0.8573  0.2804 -0.3032
   48CHL1  H22A 4715   4.935   1.929   5.626  0.1639  0.0322  0.5667
   48CHL1  H22B 4716   5.032   1.784   5.609 -1.8082 -2.4945  1.1193
   48CHL1   C23 4717   4.879   1.808   5.458  0.1741 -0.5772  0.3151
   48CHL1  H23A 4718   4.911   1.703   5.442  2.5789 -0.0289  1.0678
   48CHL1  H23B 4719   4.770   1.828   5.459  0.2289 -0.1390 -0.6491
   48CHL1   C24 4720   4.949   1.904   5.357 -0.1081 -0.3136 -0.2727
   48CHL1  H24A 4721   4.931   2.010   5.386  1.7089 -0.2481  0.8026
   48CHL1  H24B 4722   5.054   1.869   5.365  0.0123  0.3485  1.7153
   48CHL1   C25 4723   4.912   1.888   5.205 -0.1719  0.3625  0.1684
   48CHL1   H25 4724   4.801   1.897   5.208 -0.3545 -1.7043  2.0259
   48CHL1   C26 4725   4.954   2.010   5.124  0.4363 -0.6284  0.0174
   48CHL1  H26A 4726   4.889   2.094   5.159 -0.8813 -1.8263  0.5390
   48CHL1  H26B 4727   5.064   2.024   5.128  0.5408 -0.8997 -1.4387
   48CHL1  H26C 4728   4.919   1.990   5.021  0.1555 -1.1055  0.2042
   48CHL1   C27 4729   4.959   1.761   5.133  0.2872 -0.0163 -0.1401
   48CHL1  H27A 4730   4.934   1.672   5.195  1.4671  2.1465  3.7410
   48CHL1  H27B 4731   4.912   1.765   5.032  0.3398  1.2226 -0.1323
   48CHL1  H27C 4732   5.070   1.767   5.126  0.5175 -1.0260  2.0390
   49CHL1    C3 4733   2.672   2.764   3.652 -0.1884 -0.4731 -0.5623
   49CHL1    H3 4734   2.616   2.675   3.615 -0.0170 -1.0432  0.5070
   49CHL1    O3 4735   2.729   2.826   3.537  0.0763 -0.1529 -0.3179
   49CHL1   H3' 4736   2.772   2.758   3.484  0.4532  1.6462 -2.5061
   49CHL1    C4 4737   2.578   2.858   3.734  0.3457  0.0425  0.3609
   49CHL1   H4A 4738   2.639   2.948   3.758  1.4794  0.3617 -3.2541
   49CHL1   H4B 4739   2.495   2.885   3.665 -2.0370 -1.2521  2.5457
   49CHL1    C5 4740   2.521   2.784   3.859  0.5108 -0.4254  0.2272
   49CHL1    C6 4741   2.394   2.766   3.883  0.4851  0.5470  0.1856
   49CHL1    H6 4742   2.317   2.816   3.822 -0.0374 -1.0802 -0.5432
   49CHL1    C7 4743   2.337   2.697   3.991 -0.5699  0.8529 -0.5798
   49CHL1   H7A 4744   2.251   2.753   4.033  0.9726  3.8587 -1.1271
   49CHL1   H7B 4745   2.300   2.598   3.955  0.1517  0.6649 -0.8212
   49CHL1    C8 4746   2.439   2.677   4.104  0.2219 -0.0274 -0.2199
   49CHL1    H8 4747   2.450   2.777   4.151 -0.2628  0.3333 -0.8449
   49CHL1   C14 4748   2.386   2.586   4.210  0.7391 -0.0151 -0.5137
   49CHL1   H14 4749   2.363   2.487   4.165  0.3368 -1.7063  3.0317
   49CHL1   C15 4750   2.248   2.625   4.268 -0.0424  0.0054  0.2984
   49CHL1  H15A 4751   2.231   2.735   4.269 -0.9336 -0.1168  1.2297
   49CHL1  H15B 4752   2.164   2.588   4.205  1.7687 -0.9019 -1.6920
   49CHL1   C16 4753   2.246   2.543   4.395 -0.6065  0.1505 -0.3296
   49CHL1  H16A 4754   2.222   2.614   4.477  0.4302  1.5946 -1.2362
   49CHL1  H16B 4755   2.170   2.462   4.397  2.1743 -2.6282 -0.3654
   49CHL1   C17 4756   2.393   2.483   4.422  1.0222 -0.1460  0.1506
   49CHL1   H17 4757   2.384   2.379   4.384 -0.3026  0.2753 -0.7563
   49CHL1   C13 4758   2.482   2.569   4.327 -0.0110  0.5158 -0.7375
   49CHL1   C18 4759   2.514   2.703   4.394  0.4904  0.1928 -0.7818
   49CHL1  H18A 4760   2.517   2.707   4.505 -2.7416  1.7911 -0.6193
   49CHL1  H18B 4761   2.605   2.753   4.354 -0.4323  0.8195 -2.1814
   49CHL1  H18C 4762   2.434   2.780   4.383  1.4309  1.4213  0.4964
   49CHL1   C12 4763   2.604   2.490   4.273 -0.3572 -0.3063  0.4723
   49CHL1  H12A 4764   2.680   2.497   4.353 -1.0057  0.0567  1.0726
   49CHL1  H12B 4765   2.583   2.383   4.251  0.2295 -0.3765  0.2390
   49CHL1   C11 4766   2.667   2.563   4.151 -0.3576  0.5648  0.2022
   49CHL1  H11A 4767   2.736   2.638   4.195 -0.8031  1.5665 -0.7654
   49CHL1  H11B 4768   2.736   2.489   4.103 -0.4277 -0.8162  2.1429
   49CHL1    C9 4769   2.564   2.616   4.045 -0.5886 -0.3797  0.1169
   49CHL1    H9 4770   2.540   2.524   3.987  0.2085  0.0085 -0.8447
   49CHL1   C10 4771   2.626   2.715   3.947  0.4978  0.2287  0.6169
   49CHL1   C19 4772   2.694   2.832   4.025 -0.4440  0.2009  0.2339
   49CHL1  H19A 4773   2.635   2.875   4.109  1.7856  1.8679  1.0322
   49CHL1  H19B 4774   2.790   2.798   4.071 -0.9065 -1.1112  0.2715
   49CHL1  H19C 4775   2.723   2.916   3.959  0.9270 -0.1481  0.3468
   49CHL1    C1 4776   2.734   2.642   3.858 -0.6561 -0.5924 -0.1663
   49CHL1   H1A 4777   2.813   2.614   3.930 -0.9792  0.1673  0.4964
   49CHL1   H1B 4778   2.692   2.555   3.802 -2.8018 -0.6509  1.4074
   49CHL1    C2 4779   2.793   2.725   3.742 -0.7551  0.9151 -0.3541
   49CHL1   H2A 4780   2.876   2.676   3.687 -0.0841  0.7280  0.7965
   49CHL1   H2B 4781   2.841   2.817   3.782 -1.5987  0.6808  1.2973
   49CHL1   C20 4782   2.427   2.464   4.568 -0.0813  0.7444  0.1088
   49CHL1   H20 4783   2.409   2.561   4.618 -1.3406  0.5540  0.0624
   49CHL1   C21 4784   2.573   2.431   4.593  0.1432 -0.3944  0.2784
   49CHL1  H21A 4785   2.633   2.520   4.563  0.5991 -0.7720  0.0664
   49CHL1  H21B 4786   2.614   2.353   4.525  0.3014 -0.4697  0.4613
   49CHL1  H21C 4787   2.601   2.407   4.697  0.0263 -1.1843  0.1301
   49CHL1   C22 4788   2.349   2.354   4.644  0.2014 -0.0686  1.1984
   49CHL1  H22A 4789   2.244   2.384   4.623 -0.8922 -4.0236  0.3131
   49CHL1  H22B 4790   2.371   2.253   4.603 -1.2663 -0.4006  1.1731
   49CHL1   C23 4791   2.363   2.345   4.794  0.1780  0.1542  0.1249
   49CHL1  H23A 4792   2.290   2.265   4.820  0.6194 -0.6365 -0.9435
   49CHL1  H23B 4793   2.463   2.310   4.830  0.1805 -1.0711 -0.9944
   49CHL1   C24 4794   2.310   2.470   4.865  0.0908  0.0609 -0.2990
   49CHL1  H24A 4795   2.354   2.564   4.826 -0.5592  0.3104 -0.4483
   49CHL1  H24B 4796   2.200   2.471   4.848 -0.2974 -0.6043  1.8118
   49CHL1   C25 4797   2.320   2.455   5.021  0.6647 -0.4167  0.3863
   49CHL1   H25 4798   2.295   2.352   5.052  0.0882 -0.1525  0.8084
   49CHL1   C26 4799   2.460   2.474   5.076  0.0933  0.6387  0.4229
   49CHL1  H26A 4800   2.514   2.563   5.037  1.6174 -0.9311 -1.2389
   49CHL1  H26B 4801   2.447   2.492   5.185  0.3264 -0.3818  0.6280
   49CHL1  H26C 4802   2.525   2.390   5.045  1.3048  1.8860 -0.5263
   49CHL1   C27 4803   2.223   2.560   5.080 -0.3262 -0.3442  0.1593
   49CHL1  H27A 4804   2.234   2.590   5.187 -2.1367  0.8780  0.0521
   49CHL1  H27B 4805   2.242   2.649   5.017 -1.6179  0.5798  1.0038
   49CHL1  H27C 4806   2.120   2.540   5.044  0.2071  2.1893 -3.3307
   50CHL1    C3 4807   3.611   5.715   3.205  0.0757 -0.2728 -0.5368
   50CHL1    H3 4808   3.577   5.609   3.207  0.9869 -0.5876  1.7556
   50CHL1    O3 4809   3.581   5.771   3.078  0.4190  0.0760 -0.1603
   50CHL1   H3' 4810   3.488   5.754   3.063  0.2899 -0.8071  1.3686
   50CHL1    C4 4811   3.525   5.797   3.302  0.3175 -1.0236  0.0818
   50CHL1   H4A 4812   3.556   5.903   3.285  0.1551 -1.1128 -0.8120
   50CHL1   H4B 4813   3.421   5.784   3.268 -0.8352  1.2633  2.3317
   50CHL1    C5 4814   3.553   5.760   3.443  0.3060  0.1771 -0.1222
   50CHL1    C6 4815   3.453   5.714   3.516  0.2968  0.0759 -0.1396
   50CHL1    H6 4816   3.353   5.713   3.470 -0.1359 -0.9990  0.7844
   50CHL1    C7 4817   3.459   5.674   3.660 -0.4257 -0.0101 -0.2642
   50CHL1   H7A 4818   3.383   5.737   3.711  0.1424  0.5508 -0.0912
   50CHL1   H7B 4819   3.435   5.567   3.671  0.7488 -0.4882 -1.9489
   50CHL1    C8 4820   3.591   5.719   3.731  0.5180 -0.3368  0.1404
   50CHL1    H8 4821   3.594   5.830   3.740 -2.5756  0.0420 -1.8684
   50CHL1   C14 4822   3.613   5.638   3.855  0.4059  0.4664 -0.3219
   50CHL1   H14 4823   3.610   5.531   3.827 -1.5249  0.4985 -0.3843
   50CHL1   C15 4824   3.497   5.652   3.956 -0.5873  0.2281  0.4758
   50CHL1  H15A 4825   3.481   5.762   3.961  0.9699  0.4287  2.3140
   50CHL1  H15B 4826   3.401   5.602   3.933  0.7628 -2.0147 -0.6472
   50CHL1   C16 4827   3.568   5.603   4.086 -0.5075  0.0112 -0.6149
   50CHL1  H16A 4828   3.560   5.690   4.155 -0.3159  0.7191 -1.4689
   50CHL1  H16B 4829   3.525   5.512   4.134  1.8745 -0.0394  1.6509
   50CHL1   C17 4830   3.716   5.594   4.063 -0.5886 -0.0874  0.4117
   50CHL1   H17 4831   3.732   5.491   4.024 -1.1002 -0.0180  0.0124
   50CHL1   C13 4832   3.746   5.681   3.935  0.2349  0.1867 -0.2363
   50CHL1   C18 4833   3.749   5.832   3.971  0.6417 -0.1767 -0.1563
   50CHL1  H18A 4834   3.658   5.850   4.033 -0.0385  0.6797 -1.3645
   50CHL1  H18B 4835   3.841   5.863   4.026 -0.8168  1.8861  1.2896
   50CHL1  H18C 4836   3.734   5.904   3.888 -1.1613 -1.6038 -1.1233
   50CHL1   C12 4837   3.866   5.642   3.844  0.5284 -0.3442 -0.8205
   50CHL1  H12A 4838   3.947   5.690   3.902 -0.5039 -1.3544  1.5991
   50CHL1  H12B 4839   3.862   5.531   3.847  0.9029 -0.4100  3.6780
   50CHL1   C11 4840   3.849   5.709   3.708 -1.3091 -0.1756 -0.5248
   50CHL1  H11A 4841   3.869   5.816   3.728  3.2874 -1.1193  1.2607
   50CHL1  H11B 4842   3.932   5.674   3.642 -0.5214  0.5202  0.0779
   50CHL1    C9 4843   3.713   5.684   3.631  0.0848 -0.1051  0.0760
   50CHL1    H9 4844   3.713   5.575   3.611  0.8922  0.3899 -3.0199
   50CHL1   C10 4845   3.700   5.747   3.490  0.8514 -0.1546  0.7974
   50CHL1   C19 4846   3.750   5.893   3.503 -1.3501 -0.9404  0.2817
   50CHL1  H19A 4847   3.859   5.897   3.523 -1.0042  0.1286 -1.6482
   50CHL1  H19B 4848   3.716   5.957   3.419 -0.6296 -0.5695  0.2677
   50CHL1  H19C 4849   3.713   5.946   3.593  1.5990  1.0153  0.4525
   50CHL1    C1 4850   3.785   5.670   3.384 -0.1381 -0.7755  0.0617
   50CHL1   H1A 4851   3.891   5.691   3.411  0.0334 -1.0057 -0.4263
   50CHL1   H1B 4852   3.766   5.561   3.396  1.6992 -1.2482 -0.9385
   50CHL1    C2 4853   3.759   5.719   3.240  0.1949  0.0090 -0.6050
   50CHL1   H2A 4854   3.811   5.644   3.176  1.3136  1.3509 -1.3361
   50CHL1   H2B 4855   3.796   5.820   3.212  0.7006 -0.8667 -3.4720
   50CHL1   C20 4856   3.809   5.613   4.181  0.0389  1.1213  0.4546
   50CHL1   H20 4857   3.827   5.719   4.212 -1.1137  1.0209  1.5422
   50CHL1   C21 4858   3.946   5.560   4.150 -1.3016  0.2332 -0.2558
   50CHL1  H21A 4859   4.012   5.572   4.239 -0.5102  1.3336 -0.9604
   50CHL1  H21B 4860   4.000   5.622   4.076  1.6912 -1.5253  0.2743
   50CHL1  H21C 4861   3.954   5.452   4.127 -1.4522 -0.0614  0.9636
   50CHL1   C22 4862   3.758   5.542   4.313  0.2288  0.2324 -0.0212
   50CHL1  H22A 4863   3.651   5.567   4.330 -0.0194 -0.8560  0.1061
   50CHL1  H22B 4864   3.771   5.433   4.296  3.4272  0.6988 -1.1134
   50CHL1   C23 4865   3.824   5.589   4.439 -0.5832 -0.4834  0.0817
   50CHL1  H23A 4866   3.927   5.548   4.447 -0.4932 -0.8996 -2.4090
   50CHL1  H23B 4867   3.837   5.699   4.445  2.0640 -0.5098 -2.6630
   50CHL1   C24 4868   3.746   5.538   4.563  0.1587  0.5682  0.1073
   50CHL1  H24A 4869   3.651   5.593   4.546 -1.6902 -2.7826 -1.4715
   50CHL1  H24B 4870   3.723   5.430   4.557 -1.9142  0.9696  0.0542
   50CHL1   C25 4871   3.803   5.575   4.701  0.3507 -0.6590 -0.1718
   50CHL1   H25 4872   3.819   5.685   4.700  0.5060 -0.6365  1.6592
   50CHL1   C26 4873   3.686   5.537   4.803 -0.0849 -0.5977  1.1760
   50CHL1  H26A 4874   3.596   5.591   4.766 -0.4373 -0.7380  1.8068
   50CHL1  H26B 4875   3.647   5.433   4.797  0.3572 -0.9445  3.3674
   50CHL1  H26C 4876   3.715   5.567   4.906  0.0751 -1.9791  1.5514
   50CHL1   C27 4877   3.931   5.502   4.747  0.2938 -0.3816 -0.0962
   50CHL1  H27A 4878   3.967   5.539   4.845 -0.1841 -0.9774  0.3160
   50CHL1  H27B 4879   3.915   5.392   4.755 -0.3912 -0.3040 -0.2907
   50CHL1  H27C 4880   4.015   5.517   4.675 -0.2719  1.8461 -0.3587
   51CHL1    C3 4881   2.740   6.387   3.150 -0.0912 -0.3477 -0.2644
   51CHL1    H3 4882   2.655   6.331   3.195  1.8702 -2.4056  1.1300
   51CHL1    O3 4883   2.719   6.377   3.008 -0.1835  0.1215  0.2191
   51CHL1   H3' 4884   2.799   6.410   2.967 -0.8370  0.2771 -0.9821
   51CHL1    C4 4885   2.739   6.529   3.188 -0.1758 -0.6509 -0.4427
   51CHL1   H4A 4886   2.830   6.568   3.138 -0.7452  0.6010 -0.5330
   51CHL1   H4B 4887   2.657   6.595   3.153 -0.5329  0.0428  1.5551
   51CHL1    C5 4888   2.768   6.553   3.333  0.0221 -0.4992  0.2038
   51CHL1    C6 4889   2.681   6.618   3.412  0.3332 -0.0658 -0.3756
   51CHL1    H6 4890   2.584   6.650   3.371 -1.0447 -0.2877  2.4445
   51CHL1    C7 4891   2.688   6.616   3.562  0.2356 -0.3471 -1.0699
   51CHL1   H7A 4892   2.660   6.711   3.612  1.9954 -1.3630  2.1689
   51CHL1   H7B 4893   2.620   6.537   3.600  0.9876 -0.0275  1.0882
   51CHL1    C8 4894   2.832   6.596   3.617  1.2090  0.1517 -0.0903
   51CHL1    H8 4895   2.888   6.689   3.590  0.5665  0.2774 -1.0467
   51CHL1   C14 4896   2.826   6.562   3.761  0.0509 -0.2732  0.2550
   51CHL1   H14 4897   2.774   6.464   3.762  0.8282 -0.8018 -2.6549
   51CHL1   C15 4898   2.738   6.652   3.851  0.6892  0.2762  0.3011
   51CHL1  H15A 4899   2.741   6.755   3.811 -0.0785  0.1374 -0.1319
   51CHL1  H15B 4900   2.632   6.619   3.857  0.8581 -0.4043 -0.3259
   51CHL1   C16 4901   2.803   6.648   3.986  0.0656  0.6868 -0.3014
   51CHL1  H16A 4902   2.846   6.748   4.007 -0.1227  0.2133  2.8205
   51CHL1  H16B 4903   2.739   6.609   4.068  1.8221 -1.8161  0.0065
   51CHL1   C17 4904   2.925   6.549   3.976  0.1112  0.0510  0.2893
   51CHL1   H17 4905   2.893   6.445   3.998  0.5279 -0.4368 -1.2909
   51CHL1   C13 4906   2.963   6.550   3.823  0.5710 -0.5996  0.4825
   51CHL1   C18 4907   3.035   6.676   3.796 -0.9893 -0.7059  0.4666
   51CHL1  H18A 4908   3.058   6.685   3.687  1.3895 -0.1504  0.9571
   51CHL1  H18B 4909   2.981   6.769   3.824  0.1968 -0.7311  3.1197
   51CHL1  H18C 4910   3.132   6.671   3.849  0.4471 -1.8113 -2.0510
   51CHL1   C12 4911   3.030   6.427   3.756 -0.0213  0.3055 -0.2598
   51CHL1  H12A 4912   3.133   6.421   3.797 -0.8019 -2.1692  1.5871
   51CHL1  H12B 4913   2.977   6.338   3.797 -1.1712  0.2573 -1.7765
   51CHL1   C11 4914   3.029   6.424   3.602  0.4659  0.0607 -0.4336
   51CHL1  H11A 4915   3.103   6.503   3.575 -0.6964  0.9552 -1.0689
   51CHL1  H11B 4916   3.057   6.323   3.565  1.0105 -0.4269  1.2571
   51CHL1    C9 4917   2.896   6.474   3.544 -0.3473  0.1589 -0.1570
   51CHL1    H9 4918   2.825   6.390   3.556  0.0566  0.0392  1.6964
   51CHL1   C10 4919   2.904   6.495   3.384  0.5923 -0.3028 -0.8268
   51CHL1   C19 4920   3.033   6.568   3.347  0.4889  0.3237 -0.2424
   51CHL1  H19A 4921   3.051   6.659   3.408 -0.9372  1.3431 -1.2866
   51CHL1  H19B 4922   3.124   6.505   3.363  0.3170  0.4152  1.2098
   51CHL1  H19C 4923   3.022   6.603   3.242 -1.3860 -1.7322 -0.7929
   51CHL1    C1 4924   2.904   6.344   3.335 -0.0388  0.1651  0.6514
   51CHL1   H1A 4925   2.999   6.291   3.357 -0.0728  0.4385  1.4995
   51CHL1   H1B 4926   2.818   6.297   3.387  0.1067 -1.2620 -0.3629
   51CHL1    C2 4927   2.872   6.323   3.185 -0.7635 -0.0368  0.7738
   51CHL1   H2A 4928   2.860   6.217   3.155  0.1145  0.1149 -0.1776
   51CHL1   H2B 4929   2.950   6.371   3.121  0.0290 -0.8386  1.1175
   51CHL1   C20 4930   3.028   6.582   4.082 -0.3617 -0.0704  0.0970
   51CHL1   H20 4931   3.056   6.689   4.067  0.1523 -0.2410 -0.1641
   51CHL1   C21 4932   3.149   6.488   4.066 -0.2572 -0.9728 -0.3101
   51CHL1  H21A 4933   3.102   6.387   4.067  1.5865 -1.8676  0.0142
   51CHL1  H21B 4934   3.207   6.476   4.160 -1.4405  1.4633  0.8092
   51CHL1  H21C 4935   3.205   6.501   3.971  1.0751 -0.3178  0.5373
   51CHL1   C22 4936   2.975   6.576   4.230  0.0543 -0.0131  0.2201
   51CHL1  H22A 4937   2.875   6.626   4.227  0.8881  1.6794 -0.4799
   51CHL1  H22B 4938   2.954   6.469   4.252 -0.8790  0.4442  1.7126
   51CHL1   C23 4939   3.058   6.636   4.347  0.1070  0.4854  0.6590
   51CHL1  H23A 4940   3.154   6.581   4.359  0.4820  0.8590 -0.5060
   51CHL1  H23B 4941   3.089   6.736   4.311 -1.5841  1.6118  2.2073
   51CHL1   C24 4942   2.974   6.635   4.467  0.6856 -0.4608  0.4206
   51CHL1  H24A 4943   2.892   6.709   4.454 -1.3633 -3.0314 -2.7658
   51CHL1  H24B 4944   2.919   6.540   4.479 -0.7349 -0.3363 -3.5906
   51CHL1   C25 4945   3.029   6.674   4.603  1.0686 -0.3393  0.7575
   51CHL1   H25 4946   3.034   6.785   4.604 -2.2330 -0.0851 -0.4597
   51CHL1   C26 4947   2.938   6.625   4.708  0.1096 -0.7351  0.1138
   51CHL1  H26A 4948   2.964   6.667   4.807 -0.5615  0.5083 -0.2127
   51CHL1  H26B 4949   2.831   6.642   4.683 -0.0076 -2.0953 -0.4194
   51CHL1  H26C 4950   2.960   6.518   4.728  2.5671 -0.1687  0.7055
   51CHL1   C27 4951   3.166   6.623   4.627  0.0631  0.0974  0.2150
   51CHL1  H27A 4952   3.231   6.686   4.563  0.0219  1.8116  1.7699
   51CHL1  H27B 4953   3.197   6.648   4.731  0.8908 -1.4040  0.3606
   51CHL1  H27C 4954   3.180   6.514   4.614  2.0028  0.0149  2.2509
   52CHL1    C3 4955   2.185   1.171   3.279 -0.3463  0.1580 -0.3399
   52CHL1    H3 4956   2.288   1.132   3.264  0.6286  1.4920  2.2378
   52CHL1    O3 4957   2.124   1.198   3.156 -0.3153  0.0205  0.1257
   52CHL1   H3' 4958   2.186   1.252   3.106 -1.1432  0.9104  0.0177
   52CHL1    C4 4959   2.101   1.067   3.354 -0.1378  0.9905 -0.1910
   52CHL1   H4A 4960   1.999   1.110   3.358  0.0487  1.3697  2.3018
   52CHL1   H4B 4961   2.108   0.977   3.290  2.8154  2.6748 -2.4814
   52CHL1    C5 4962   2.152   1.036   3.497 -0.0626 -0.0558 -0.3684
   52CHL1    C6 4963   2.183   0.910   3.534 -0.2064 -0.0206 -0.0688
   52CHL1    H6 4964   2.174   0.829   3.460 -0.9657  0.6889 -0.7650
   52CHL1    C7 4965   2.226   0.875   3.675  0.3666  0.3592  0.5037
   52CHL1   H7A 4966   2.172   0.786   3.713 -0.7748 -0.6491 -3.0792
   52CHL1   H7B 4967   2.329   0.834   3.669  0.5824  0.9082  0.3613
   52CHL1    C8 4968   2.218   0.988   3.779  0.3711  0.0804  0.0403
   52CHL1    H8 4969   2.112   1.006   3.808 -0.5327  1.5253 -3.5850
   52CHL1   C14 4970   2.311   0.961   3.893  0.1721 -0.6504 -0.0391
   52CHL1   H14 4971   2.410   0.952   3.844 -0.2386 -0.4880 -0.9294
   52CHL1   C15 4972   2.282   0.837   3.974  0.2950  0.2291  0.3445
   52CHL1  H15A 4973   2.176   0.846   4.006  0.2094 -1.2948  0.5778
   52CHL1  H15B 4974   2.300   0.741   3.921 -0.8205  0.1860  0.0202
   52CHL1   C16 4975   2.361   0.853   4.104 -0.7719 -0.0228 -0.4889
   52CHL1  H16A 4976   2.302   0.819   4.192  0.8488  0.8512  0.9889
   52CHL1  H16B 4977   2.441   0.776   4.109  0.0120  0.8651  1.5745
   52CHL1   C17 4978   2.410   1.001   4.104 -0.2560 -0.0011 -0.2806
   52CHL1   H17 4979   2.516   0.995   4.072 -0.7099 -1.1053 -1.6550
   52CHL1   C13 4980   2.324   1.069   3.998  0.5711 -0.2833 -0.1770
   52CHL1   C18 4981   2.182   1.110   4.057  0.1837 -0.0665  0.1946
   52CHL1  H18A 4982   2.188   1.212   4.100  0.7811  0.1280 -0.3316
   52CHL1  H18B 4983   2.110   1.134   3.976  0.5581  0.0641 -0.1001
   52CHL1  H18C 4984   2.140   1.027   4.119 -1.4343  1.3445  1.0809
   52CHL1   C12 4985   2.386   1.194   3.930 -0.0262  0.3054 -0.4963
   52CHL1  H12A 4986   2.381   1.275   4.004  2.3340 -0.1450  0.2341
   52CHL1  H12B 4987   2.487   1.170   3.890 -0.9373 -4.0884 -0.6899
   52CHL1   C11 4988   2.290   1.237   3.814  0.0130 -0.6479 -0.1472
   52CHL1  H11A 4989   2.189   1.260   3.854 -0.2124  0.6197 -1.3707
   52CHL1  H11B 4990   2.339   1.325   3.767 -0.4059 -0.4011 -0.1251
   52CHL1    C9 4991   2.269   1.123   3.712  0.1772  0.3752  0.1058
   52CHL1    H9 4992   2.370   1.099   3.671  0.2525 -0.0585  0.5387
   52CHL1   C10 4993   2.177   1.161   3.588  0.4234  0.1465 -0.8532
   52CHL1   C19 4994   2.043   1.224   3.636  0.1532  0.4725 -0.6608
   52CHL1  H19A 4995   1.985   1.163   3.709  0.2835 -0.1390 -1.0667
   52CHL1  H19B 4996   2.060   1.323   3.685  1.0110 -0.1770  0.4042
   52CHL1  H19C 4997   1.973   1.241   3.552 -0.2458 -1.3176 -0.7398
   52CHL1    C1 4998   2.255   1.275   3.503  0.2507 -0.1117  0.2816
   52CHL1   H1A 4999   2.261   1.370   3.561  1.4243  1.9558 -2.8975
   52CHL1   H1B 5000   2.362   1.251   3.485 -0.5199 -1.4920 -3.2102
   52CHL1    C2 5001   2.193   1.302   3.363 -0.1054 -0.1839 -0.3048
   52CHL1   H2A 5002   2.255   1.383   3.318 -0.4795  0.5408  0.4378
   52CHL1   H2B 5003   2.091   1.345   3.374 -0.6553 -0.4308 -3.5767
   52CHL1   C20 5004   2.419   1.053   4.250 -0.3657  0.7512  0.3115
   52CHL1   H20 5005   2.320   1.035   4.298  0.6409 -3.3841  1.2835
   52CHL1   C21 5006   2.459   1.203   4.243 -0.3761 -0.2982 -0.5919
   52CHL1  H21A 5007   2.384   1.275   4.204  0.1674  0.4493 -0.2957
   52CHL1  H21B 5008   2.557   1.209   4.191 -1.1011  1.6296 -1.8428
   52CHL1  H21C 5009   2.463   1.233   4.350  0.1846 -0.2880 -0.6122
   52CHL1   C22 5010   2.515   0.963   4.325  0.1374  0.3404  0.5645
   52CHL1  H22A 5011   2.483   0.859   4.301  1.0286  0.2996 -0.5417
   52CHL1  H22B 5012   2.614   0.969   4.276 -1.4783  0.7979 -2.9693
   52CHL1   C23 5013   2.526   0.978   4.476  0.1177  0.6918 -0.0434
   52CHL1  H23A 5014   2.564   1.082   4.484  1.1615  0.2083  2.0670
   52CHL1  H23B 5015   2.427   0.972   4.527  0.0438 -1.0992 -0.3045
   52CHL1   C24 5016   2.636   0.882   4.540 -0.1887 -0.4952  0.5452
   52CHL1  H24A 5017   2.598   0.778   4.548  0.7318 -0.7951  1.2178
   52CHL1  H24B 5018   2.731   0.872   4.485 -0.9487 -2.7828 -0.4623
   52CHL1   C25 5019   2.684   0.925   4.681  0.3299 -0.1052 -0.0875
   52CHL1   H25 5020   2.590   0.952   4.735 -0.0008 -0.0012 -0.7004
   52CHL1   C26 5021   2.765   0.821   4.759 -0.6129  0.3569  0.0741
   52CHL1  H26A 5022   2.754   0.849   4.866  1.3225 -0.8503  0.6290
   52CHL1  H26B 5023   2.727   0.718   4.745  0.4150 -0.2096  1.2941
   52CHL1  H26C 5024   2.871   0.827   4.726 -1.1622 -0.5926 -2.0117
   52CHL1   C27 5025   2.781   1.053   4.673  0.4886  0.6301  0.2682
   52CHL1  H27A 5026   2.735   1.136   4.614  2.0004  0.8719 -0.6247
   52CHL1  H27B 5027   2.806   1.086   4.776 -1.0464 -3.4465  2.1841
   52CHL1  H27C 5028   2.870   1.013   4.619  0.2454 -0.2688  0.5190
   53CHL1    C3 5029   1.662   2.676   3.427  0.0561  0.3203 -0.2599
   53CHL1    H3 5030   1.745   2.608   3.458 -1.3774 -0.7646  1.3638
   53CHL1    O3 5031   1.694   2.718   3.292 -0.1603 -0.0975 -0.1246
   53CHL1   H3' 5032   1.613   2.729   3.241  0.0838 -1.2237 -0.7850
   53CHL1    C4 5033   1.524   2.621   3.443 -0.8128  0.2126  0.1210
   53CHL1   H4A 5034   1.459   2.701   3.402 -0.2667  0.1116 -0.9664
   53CHL1   H4B 5035   1.514   2.536   3.373  0.5530  0.4812 -0.4370
   53CHL1    C5 5036   1.491   2.592   3.589  0.2455  0.0935  0.5208
   53CHL1    C6 5037   1.466   2.467   3.634 -0.0403  0.2976 -0.1865
   53CHL1    H6 5038   1.458   2.381   3.565 -3.1604  1.5767 -1.6428
   53CHL1    C7 5039   1.434   2.440   3.775 -0.6977  0.6191 -0.5979
   53CHL1   H7A 5040   1.343   2.377   3.784  0.6287 -1.2860  0.1386
   53CHL1   H7B 5041   1.518   2.385   3.825 -0.3198  0.0907 -1.7834
   53CHL1    C8 5042   1.401   2.567   3.865 -0.2084 -0.0673 -0.2873
   53CHL1    H8 5043   1.298   2.603   3.841 -0.3286 -0.4799 -0.3937
   53CHL1   C14 5044   1.388   2.532   4.015 -0.1218 -0.3287 -0.0072
   53CHL1   H14 5045   1.487   2.493   4.049  0.8045  1.6643 -0.3000
   53CHL1   C15 5046   1.285   2.420   4.046 -0.6088  0.0156 -0.6216
   53CHL1  H15A 5047   1.195   2.441   3.984  0.1128  1.5330 -1.2033
   53CHL1  H15B 5048   1.330   2.319   4.031  2.8238  1.0694  1.5567
   53CHL1   C16 5049   1.263   2.443   4.204 -0.4951  0.4737 -0.0675
   53CHL1  H16A 5050   1.154   2.465   4.201 -0.4871  0.5611  0.2330
   53CHL1  H16B 5051   1.291   2.349   4.256 -1.2914 -1.3779 -2.8059
   53CHL1   C17 5052   1.332   2.574   4.239 -0.5793  0.3207  0.1904
   53CHL1   H17 5053   1.434   2.552   4.278 -0.0871  2.2220  0.0826
   53CHL1   C13 5054   1.360   2.648   4.102  0.1324  0.3339 -0.5890
   53CHL1   C18 5055   1.231   2.723   4.071  0.4744  0.1521 -0.3406
   53CHL1  H18A 5056   1.219   2.802   4.149  0.4724 -1.7024  1.6078
   53CHL1  H18B 5057   1.221   2.774   3.972  1.3691 -0.6300 -0.8390
   53CHL1  H18C 5058   1.143   2.656   4.086  0.9620 -0.0792  1.7379
   53CHL1   C12 5059   1.486   2.747   4.094  0.3858  0.5794  0.2259
   53CHL1  H12A 5060   1.480   2.838   4.158 -0.5576  0.9220 -0.3353
   53CHL1  H12B 5061   1.574   2.684   4.120 -0.8000 -1.3271 -0.1564
   53CHL1   C11 5062   1.504   2.794   3.946  0.8190 -0.1888  0.1457
   53CHL1  H11A 5063   1.412   2.854   3.929  0.4156 -1.1974 -1.4949
   53CHL1  H11B 5064   1.587   2.868   3.944  0.8239 -0.1995 -0.2405
   53CHL1    C9 5065   1.502   2.675   3.842 -0.2386 -0.1491 -0.3351
   53CHL1    H9 5066   1.600   2.626   3.862  0.5363  0.9857 -1.1976
   53CHL1   C10 5067   1.508   2.712   3.688 -0.9286 -0.1215 -0.5415
   53CHL1   C19 5068   1.395   2.822   3.665 -0.1290  0.7166  0.3256
   53CHL1  H19A 5069   1.295   2.778   3.686  0.4238 -1.0192 -0.4521
   53CHL1  H19B 5070   1.420   2.915   3.721  1.1328 -1.3879  3.5902
   53CHL1  H19C 5071   1.395   2.840   3.556 -1.5884 -0.9307  0.0093
   53CHL1    C1 5072   1.653   2.775   3.656  0.9022 -0.0824 -0.3635
   53CHL1   H1A 5073   1.662   2.867   3.718 -1.9310  1.2018 -1.6773
   53CHL1   H1B 5074   1.713   2.687   3.689 -0.6793 -0.5929  1.3204
   53CHL1    C2 5075   1.679   2.803   3.514  0.1277  0.3698 -0.0316
   53CHL1   H2A 5076   1.788   2.819   3.504 -0.0653  0.9828 -1.4004
   53CHL1   H2B 5077   1.615   2.875   3.457 -0.0247  0.1395 -0.1541
   53CHL1   C20 5078   1.260   2.647   4.352  0.5174  0.2766 -0.1380
   53CHL1   H20 5079   1.161   2.675   4.310  0.3951 -2.1246 -1.6389
   53CHL1   C21 5080   1.333   2.771   4.403  1.4848 -0.0842  0.0734
   53CHL1  H21A 5081   1.279   2.816   4.489  2.7692 -0.1960  0.9622
   53CHL1  H21B 5082   1.315   2.857   4.334 -1.4527 -0.8283 -0.2283
   53CHL1  H21C 5083   1.442   2.768   4.423  1.1039  0.6605  2.6371
   53CHL1   C22 5084   1.216   2.557   4.471 -0.2658  0.0177 -0.8060
   53CHL1  H22A 5085   1.156   2.623   4.537  1.0589 -0.8956  1.3928
   53CHL1  H22B 5086   1.150   2.477   4.433 -0.7597 -0.7263  1.5084
   53CHL1   C23 5087   1.327   2.496   4.550  0.6211  0.0235 -0.4938
   53CHL1  H23A 5088   1.402   2.453   4.480 -0.9654 -1.9794 -1.0672
   53CHL1  H23B 5089   1.363   2.576   4.619 -2.9772  0.5475  1.0474
   53CHL1   C24 5090   1.274   2.393   4.648 -0.1051  0.6560 -0.4927
   53CHL1  H24A 5091   1.186   2.430   4.706 -0.6733 -1.9843  0.4772
   53CHL1  H24B 5092   1.238   2.303   4.593 -0.4904  1.1896 -1.1169
   53CHL1   C25 5093   1.385   2.332   4.744 -0.6322 -0.8926 -0.5040
   53CHL1   H25 5094   1.448   2.409   4.793 -1.6245 -0.5147  0.2172
   53CHL1   C26 5095   1.316   2.257   4.855  0.0811  0.0378  0.1895
   53CHL1  H26A 5096   1.382   2.241   4.943 -0.3324 -2.0278  0.1590
   53CHL1  H26B 5097   1.232   2.319   4.894 -0.4047 -0.6722  0.2916
   53CHL1  H26C 5098   1.279   2.157   4.823  0.4700  0.3855 -1.4412
   53CHL1   C27 5099   1.474   2.231   4.664  0.2682  0.8159 -0.3047
   53CHL1  H27A 5100   1.412   2.138   4.663 -2.0740  2.2252  1.7416
   53CHL1  H27B 5101   1.498   2.272   4.564 -1.3593  2.5487 -0.0338
   53CHL1  H27C 5102   1.563   2.207   4.727 -0.2592  0.9340  0.4999
   54CHL1    C3 5103   2.608   1.527   3.123 -0.1446  0.2102 -0.1453
   54CHL1    H3 5104   2.615   1.623   3.179  1.8437  0.8361 -1.3630
   54CHL1    O3 5105   2.550   1.551   2.999  0.3708 -0.7579 -0.0805
   54CHL1   H3' 5106   2.546   1.473   2.944  0.1798 -0.3288 -0.6840
   54CHL1    C4 5107   2.754   1.478   3.118 -0.2776 -0.0583  0.0966
   54CHL1   H4A 5108   2.760   1.387   3.056  0.2496  0.0629 -0.0383
   54CHL1   H4B 5109   2.811   1.562   3.072  0.4800  0.9221  2.6670
   54CHL1    C5 5110   2.816   1.446   3.253 -0.0579 -0.4190 -0.8532
   54CHL1    C6 5111   2.927   1.502   3.297 -0.0381  0.5062 -0.1328
   54CHL1    H6 5112   2.970   1.591   3.249 -0.5614  0.7080 -0.2311
   54CHL1    C7 5113   2.986   1.463   3.427 -0.1336 -0.6275  0.0307
   54CHL1   H7A 5114   3.095   1.447   3.422  0.3317  2.3621 -1.4067
   54CHL1   H7B 5115   2.976   1.549   3.497 -0.2170  1.2818 -2.1948
   54CHL1    C8 5116   2.925   1.343   3.501 -0.3771 -0.4827  0.3065
   54CHL1    H8 5117   2.966   1.246   3.463  1.4471  0.8242 -1.2785
   54CHL1   C14 5118   2.957   1.352   3.647  0.6608 -0.3928 -0.0172
   54CHL1   H14 5119   2.898   1.441   3.677  1.3050  0.7684 -1.9988
   54CHL1   C15 5120   3.096   1.368   3.688  0.0683  0.1317  0.1420
   54CHL1  H15A 5121   3.164   1.301   3.632  1.6937  1.4198  0.4931
   54CHL1  H15B 5122   3.152   1.463   3.670  0.7084 -0.2299  0.1992
   54CHL1   C16 5123   3.088   1.322   3.837 -0.1114  0.6651  0.7505
   54CHL1  H16A 5124   3.168   1.245   3.850  0.7533  1.2784 -0.7426
   54CHL1  H16B 5125   3.103   1.418   3.891  0.5514  1.7941 -1.3318
   54CHL1   C17 5126   2.939   1.271   3.864 -0.7350 -0.0681  0.3106
   54CHL1   H17 5127   2.878   1.360   3.890 -2.3009  0.0454 -3.2477
   54CHL1   C13 5128   2.897   1.234   3.728  0.6414  0.6658 -0.0389
   54CHL1   C18 5129   2.969   1.098   3.688  0.1938  0.4058  0.1411
   54CHL1  H18A 5130   2.917   1.013   3.737  1.3666 -0.4723 -0.1116
   54CHL1  H18B 5131   2.976   1.081   3.579 -1.4746 -0.8564  0.2035
   54CHL1  H18C 5132   3.070   1.103   3.734  0.4637 -0.0575 -0.3972
   54CHL1   C12 5133   2.746   1.223   3.710  0.0130  0.9110  0.1360
   54CHL1  H12A 5134   2.721   1.121   3.746  0.7940  0.8192  0.4195
   54CHL1  H12B 5135   2.683   1.292   3.770  0.4778  0.6945  0.8869
   54CHL1   C11 5136   2.715   1.218   3.558  0.3582 -0.4403 -0.8263
   54CHL1  H11A 5137   2.747   1.122   3.512  1.2401 -0.0995 -0.9365
   54CHL1  H11B 5138   2.604   1.219   3.550  0.2825 -0.9163  0.0260
   54CHL1    C9 5139   2.775   1.340   3.478  0.6417 -0.2251  0.0291
   54CHL1    H9 5140   2.727   1.417   3.541 -1.5562  0.1619 -1.9758
   54CHL1   C10 5141   2.733   1.350   3.333  0.2689  0.3707 -0.6575
   54CHL1   C19 5142   2.750   1.215   3.269 -0.1409  0.1455 -0.3829
   54CHL1  H19A 5143   2.848   1.174   3.302  0.3008  3.0289  2.3330
   54CHL1  H19B 5144   2.667   1.147   3.297  0.8545 -0.2893  1.6973
   54CHL1  H19C 5145   2.747   1.218   3.158 -2.7457 -0.3388 -0.3721
   54CHL1    C1 5146   2.578   1.379   3.324 -0.4574  0.0248 -0.8323
   54CHL1   H1A 5147   2.518   1.301   3.375 -1.9621  0.2530 -2.1729
   54CHL1   H1B 5148   2.560   1.469   3.386  2.8981  0.7060 -0.6452
   54CHL1    C2 5149   2.523   1.419   3.188  0.4197 -0.0229  0.5225
   54CHL1   H2A 5150   2.422   1.462   3.204 -1.0047 -2.4938 -1.0931
   54CHL1   H2B 5151   2.516   1.336   3.114 -1.7362  1.2314 -0.8031
   54CHL1   C20 5152   2.924   1.175   3.990  0.2251  0.2817 -0.3720
   54CHL1   H20 5153   2.955   1.069   3.978  0.3868  0.1936  0.7540
   54CHL1   C21 5154   2.773   1.181   4.029  0.3572 -0.3440  0.0648
   54CHL1  H21A 5155   2.761   1.139   4.131  0.5371 -1.2962 -0.2917
   54CHL1  H21B 5156   2.698   1.128   3.966  0.4056  0.8503 -1.0278
   54CHL1  H21C 5157   2.744   1.286   4.045  0.7532 -0.3573  0.9254
   54CHL1   C22 5158   3.001   1.235   4.109 -0.5440  0.3484 -0.3143
   54CHL1  H22A 5159   3.097   1.281   4.075  0.3875 -0.5898  0.9092
   54CHL1  H22B 5160   2.942   1.311   4.164  1.5300 -0.2077  2.9689
   54CHL1   C23 5161   3.055   1.133   4.204 -0.4913  0.4497  0.0670
   54CHL1  H23A 5162   2.957   1.092   4.238 -0.5380  0.9802  0.5803
   54CHL1  H23B 5163   3.102   1.037   4.173  0.7596  1.5779 -1.7153
   54CHL1   C24 5164   3.128   1.195   4.325  0.6338  0.8642 -0.7702
   54CHL1  H24A 5165   3.229   1.228   4.293  0.8725 -0.0340 -0.9605
   54CHL1  H24B 5166   3.070   1.281   4.365 -1.0457 -0.1461 -0.9434
   54CHL1   C25 5167   3.159   1.102   4.450  0.4121  0.5641 -0.6089
   54CHL1   H25 5168   3.063   1.084   4.503  1.3256 -0.2674  0.8223
   54CHL1   C26 5169   3.224   0.968   4.423 -0.2070 -0.1230  0.5575
   54CHL1  H26A 5170   3.323   0.988   4.376  0.0996 -1.3355  0.6488
   54CHL1  H26B 5171   3.239   0.923   4.524 -1.5883  0.5294  1.0760
   54CHL1  H26C 5172   3.176   0.901   4.349  0.6200 -0.5826  0.4274
   54CHL1   C27 5173   3.242   1.177   4.557 -0.3078  0.2218  0.2825
   54CHL1  H27A 5174   3.193   1.272   4.586  1.1017  1.1045 -0.1588
   54CHL1  H27B 5175   3.236   1.121   4.653 -1.6998 -1.3077 -0.6362
   54CHL1  H27C 5176   3.341   1.190   4.509  0.1414 -2.0208  0.5063
   55CHL1    C3 5177   6.485   4.119   3.610  0.3880 -0.5424 -0.6002
   55CHL1    H3 5178   6.381   4.087   3.634  1.1655 -1.7775  1.3063
   55CHL1    O3 5179   6.500   4.080   3.469  0.3808  0.3562 -0.1189
   55CHL1   H3' 5180   6.585   4.111   3.438  0.8721 -0.0383  0.8166
   55CHL1    C4 5181   6.518   4.261   3.627  0.2604  0.0611 -0.4594
   55CHL1   H4A 5182   6.624   4.284   3.605  0.4065  0.0576  0.2236
   55CHL1   H4B 5183   6.453   4.325   3.563  0.9758 -0.0348 -1.2871
   55CHL1    C5 5184   6.498   4.307   3.772 -0.1448 -0.1139  0.2958
   55CHL1    C6 5185   6.415   4.408   3.810 -0.1748 -0.3791 -0.3850
   55CHL1    H6 5186   6.358   4.453   3.728 -0.4707 -0.2748 -0.1247
   55CHL1    C7 5187   6.395   4.460   3.948  0.0743  0.9031 -0.1850
   55CHL1   H7A 5188   6.404   4.570   3.953 -3.1796  1.2791 -0.4453
   55CHL1   H7B 5189   6.292   4.440   3.984  1.3083 -1.8347  2.2837
   55CHL1    C8 5190   6.479   4.393   4.062 -0.4626  0.1398 -0.2278
   55CHL1    H8 5191   6.575   4.448   4.064  0.5832 -1.5474 -1.1795
   55CHL1   C14 5192   6.421   4.393   4.208 -0.4063 -0.9262  0.3256
   55CHL1   H14 5193   6.330   4.330   4.208 -2.0731  1.2988  2.2644
   55CHL1   C15 5194   6.372   4.528   4.262  0.8185  0.1873 -0.1698
   55CHL1  H15A 5195   6.447   4.607   4.243  0.9449  0.1262  0.0780
   55CHL1  H15B 5196   6.281   4.554   4.203  1.3397 -3.1356 -2.7527
   55CHL1   C16 5197   6.361   4.502   4.417  0.4328  0.1795  0.1861
   55CHL1  H16A 5198   6.416   4.590   4.457  3.2459 -0.8495 -1.1503
   55CHL1  H16B 5199   6.260   4.499   4.463  0.6273  0.7302  0.6668
   55CHL1   C17 5200   6.435   4.366   4.448 -0.3392  0.1778  0.2179
   55CHL1   H17 5201   6.360   4.284   4.441 -1.8024  1.4380  0.6418
   55CHL1   C13 5202   6.511   4.334   4.316  0.0657  0.0328 -0.0515
   55CHL1   C18 5203   6.651   4.400   4.324  0.3110  0.8115  0.1589
   55CHL1  H18A 5204   6.707   4.401   4.228 -0.8539  3.2650 -0.5655
   55CHL1  H18B 5205   6.637   4.502   4.366 -4.2791  1.1993 -1.7426
   55CHL1  H18C 5206   6.717   4.343   4.393 -0.3532 -1.6689 -1.1142
   55CHL1   C12 5207   6.525   4.184   4.276  0.1323 -0.1443 -0.1862
   55CHL1  H12A 5208   6.584   4.119   4.344 -0.0676  2.2737  2.4613
   55CHL1  H12B 5209   6.423   4.141   4.281  0.2149 -0.1697  2.3275
   55CHL1   C11 5210   6.586   4.164   4.132  0.6938  0.1279  0.2491
   55CHL1  H11A 5211   6.697   4.176   4.136  0.7050  1.5962 -2.1520
   55CHL1  H11B 5212   6.570   4.057   4.107  0.5198  0.1201  0.3898
   55CHL1    C9 5213   6.515   4.248   4.021  0.6148 -0.6838  0.1398
   55CHL1    H9 5214   6.419   4.193   4.018 -0.0931  0.1729  3.2362
   55CHL1   C10 5215   6.580   4.226   3.875  0.1030  0.1417 -0.3792
   55CHL1   C19 5216   6.733   4.262   3.891 -0.5453  0.4194 -0.3423
   55CHL1  H19A 5217   6.791   4.183   3.943  2.3494  1.5987 -1.6166
   55CHL1  H19B 5218   6.778   4.273   3.790  1.7135 -1.0761  0.4355
   55CHL1  H19C 5219   6.742   4.362   3.938  0.0024  1.0876 -1.7976
   55CHL1    C1 5220   6.557   4.069   3.844 -0.7912  0.1546 -0.3822
   55CHL1   H1A 5221   6.623   4.004   3.905  0.3766 -0.4773 -2.2321
   55CHL1   H1B 5222   6.451   4.040   3.859 -0.7351 -1.8198 -3.1254
   55CHL1    C2 5223   6.583   4.037   3.693  0.0836  1.4093  0.6236
   55CHL1   H2A 5224   6.551   3.931   3.680  1.7870  1.0534 -1.0620
   55CHL1   H2B 5225   6.690   4.049   3.666  0.7780 -1.8187  1.5040
   55CHL1   C20 5226   6.515   4.360   4.587 -0.1561  0.2250 -0.1401
   55CHL1   H20 5227   6.618   4.397   4.575 -0.0951  0.6025  1.3215
   55CHL1   C21 5228   6.522   4.220   4.635  0.2682  0.4637  0.5113
   55CHL1  H21A 5229   6.547   4.150   4.552 -2.9473  1.1192 -1.1938
   55CHL1  H21B 5230   6.420   4.189   4.669  0.9267 -0.6389  1.5669
   55CHL1  H21C 5231   6.590   4.196   4.719 -0.9438  0.9191  1.6593
   55CHL1   C22 5232   6.448   4.443   4.703 -0.0352 -0.1029  0.0028
   55CHL1  H22A 5233   6.457   4.551   4.676  2.7550 -0.3635 -0.3933
   55CHL1  H22B 5234   6.340   4.424   4.722 -0.2752  0.5408 -0.6460
   55CHL1   C23 5235   6.520   4.437   4.843 -0.4767  0.2803  0.1009
   55CHL1  H23A 5236   6.451   4.434   4.930  1.9491  0.2373  2.1354
   55CHL1  H23B 5237   6.567   4.337   4.856 -0.4235  0.1177 -1.2392
   55CHL1   C24 5238   6.617   4.553   4.859  1.4106 -0.0910  0.2599
   55CHL1  H24A 5239   6.676   4.559   4.765 -2.1025 -0.9776 -2.1952
   55CHL1  H24B 5240   6.558   4.647   4.862  2.3186  0.5834 -1.5330
   55CHL1   C25 5241   6.691   4.553   4.990 -0.1688  0.6474  0.2102
   55CHL1   H25 5242   6.607   4.540   5.062  2.5921 -1.7697  3.3376
   55CHL1   C26 5243   6.779   4.433   4.998  0.1691  0.8475 -0.1278
   55CHL1  H26A 5244   6.837   4.416   4.905 -1.7103 -1.3328 -1.0080
   55CHL1  H26B 5245   6.845   4.428   5.087 -1.0669  0.4293  0.8007
   55CHL1  H26C 5246   6.717   4.342   5.011 -0.2613  0.7828 -2.2040
   55CHL1   C27 5247   6.777   4.680   5.016  0.5072 -0.8793 -0.0250
   55CHL1  H27A 5248   6.823   4.682   5.117 -0.1679 -1.1868  0.3012
   55CHL1  H27B 5249   6.863   4.675   4.946 -0.6370  0.7428 -1.6480
   55CHL1  H27C 5250   6.721   4.774   4.998  2.0677  0.2539  0.8324
   56CHL1    C3 5251   6.797   6.123   3.118  0.6604 -0.0937 -0.2783
   56CHL1    H3 5252   6.806   6.012   3.109  1.8987 -0.0102 -0.3528
   56CHL1    O3 5253   6.773   6.183   2.989  0.1600 -0.6102  0.6278
   56CHL1   H3' 5254   6.795   6.276   2.980 -0.0286 -0.5211  1.0882
   56CHL1    C4 5255   6.687   6.169   3.218 -0.0252  0.0817 -0.7645
   56CHL1   H4A 5256   6.704   6.279   3.218  0.1126  0.0611 -1.1843
   56CHL1   H4B 5257   6.586   6.137   3.186 -0.6950  1.1547  0.2023
   56CHL1    C5 5258   6.704   6.099   3.352 -0.1825 -0.2667 -0.4235
   56CHL1    C6 5259   6.617   6.018   3.410  0.2874 -0.0549 -0.2820
   56CHL1    H6 5260   6.514   6.016   3.372  0.5837 -1.1070 -1.0945
   56CHL1    C7 5261   6.635   5.943   3.549  0.0547  0.0762  0.4904
   56CHL1   H7A 5262   6.541   5.964   3.603  0.0870 -0.7015  0.8572
   56CHL1   H7B 5263   6.656   5.835   3.535 -0.1003  0.0353  0.5795
   56CHL1    C8 5264   6.757   6.010   3.626 -0.0280 -0.1706  0.3970
   56CHL1    H8 5265   6.720   6.111   3.655 -2.1364 -0.5646 -0.6578
   56CHL1   C14 5266   6.798   5.928   3.743  0.5288 -0.1794 -0.5658
   56CHL1   H14 5267   6.839   5.835   3.698  0.6017 -0.1017 -0.6602
   56CHL1   C15 5268   6.684   5.894   3.838  0.0643  0.9774 -0.9659
   56CHL1  H15A 5269   6.615   5.980   3.854 -1.1456 -0.2718  0.9202
   56CHL1  H15B 5270   6.626   5.810   3.795  0.8780 -1.2117  1.9037
   56CHL1   C16 5271   6.753   5.860   3.970 -0.0227  0.1904 -0.4871
   56CHL1  H16A 5272   6.717   5.908   4.063  0.2018  0.2933 -0.4525
   56CHL1  H16B 5273   6.734   5.752   3.989 -0.4032  0.4921  0.9535
   56CHL1   C17 5274   6.907   5.897   3.958 -0.0262  0.1829  0.0827
   56CHL1   H17 5275   6.958   5.802   3.929 -0.8043  0.1002 -1.0586
   56CHL1   C13 5276   6.912   5.980   3.824 -0.1789  0.0661  0.2486
   56CHL1   C18 5277   6.881   6.122   3.863  0.9291  0.3479 -0.4648
   56CHL1  H18A 5278   6.790   6.134   3.925  0.9495  2.4360 -0.7809
   56CHL1  H18B 5279   6.963   6.175   3.915 -2.3341  3.2264  2.2374
   56CHL1  H18C 5280   6.856   6.191   3.780  0.9507  0.5477 -0.3071
   56CHL1   C12 5281   7.030   5.974   3.740 -0.4379 -0.4093  0.4507
   56CHL1  H12A 5282   7.113   6.021   3.798 -0.7562  0.3058  0.3384
   56CHL1  H12B 5283   7.055   5.874   3.699 -0.2353 -0.6465  1.1320
   56CHL1   C11 5284   7.015   6.057   3.612 -0.3537 -0.2199 -0.4829
   56CHL1  H11A 5285   7.007   6.164   3.640  1.6772 -0.9358  3.6709
   56CHL1  H11B 5286   7.101   6.037   3.544 -1.0192 -2.6259 -0.7324
   56CHL1    C9 5287   6.878   6.026   3.536 -1.3391  0.2174  0.1501
   56CHL1    H9 5288   6.899   5.922   3.505 -1.5567  0.4596 -0.8443
   56CHL1   C10 5289   6.842   6.117   3.418 -0.3509  0.6739 -0.4232
   56CHL1   C19 5290   6.865   6.266   3.468  0.4562 -0.9504  0.2413
   56CHL1  H19A 5291   6.974   6.284   3.478  0.3275  1.1360 -1.3755
   56CHL1  H19B 5292   6.836   6.339   3.390  0.1675  0.2172  1.4073
   56CHL1  H19C 5293   6.803   6.287   3.558 -0.6747 -1.1689 -0.4648
   56CHL1    C1 5294   6.954   6.093   3.304 -0.8129 -0.6055  0.1589
   56CHL1   H1A 5295   7.053   6.108   3.352 -0.6037 -1.1837 -0.0838
   56CHL1   H1B 5296   6.952   5.986   3.275 -2.4825 -0.1723 -1.5604
   56CHL1    C2 5297   6.932   6.170   3.170 -0.1033 -0.4404 -0.0890
   56CHL1   H2A 5298   7.016   6.142   3.102  1.2605  0.2274  1.2517
   56CHL1   H2B 5299   6.933   6.280   3.186  2.2559 -0.5044  0.5485
   56CHL1   C20 5300   6.974   5.946   4.087  0.2415  0.4348 -0.0263
   56CHL1   H20 5301   6.915   6.033   4.121  0.3621 -1.1578  5.1507
   56CHL1   C21 5302   7.127   5.982   4.062  0.3161  0.1983  0.1925
   56CHL1  H21A 5303   7.171   5.999   4.163 -1.2639  2.2666  0.6111
   56CHL1  H21B 5304   7.133   6.072   3.998  0.4626  2.2294  2.8553
   56CHL1  H21C 5305   7.175   5.896   4.010  0.4844 -1.2755  2.6094
   56CHL1   C22 5306   6.949   5.844   4.211 -0.6599  0.0643  0.5616
   56CHL1  H22A 5307   6.841   5.818   4.213 -0.7530  0.2953 -0.7099
   56CHL1  H22B 5308   6.996   5.745   4.195 -1.2662 -0.3922  1.5152
   56CHL1   C23 5309   6.990   5.895   4.345 -0.0646  0.0478  0.6090
   56CHL1  H23A 5310   7.098   5.919   4.358  0.3000 -1.0569 -0.2474
   56CHL1  H23B 5311   6.922   5.982   4.353 -1.6823 -0.7221 -2.7937
   56CHL1   C24 5312   6.970   5.797   4.454  0.1615  0.8139  0.4578
   56CHL1  H24A 5313   6.864   5.768   4.440  0.1221  0.4950  1.3802
   56CHL1  H24B 5314   7.028   5.703   4.441 -0.7789  0.2740  0.0663
   56CHL1   C25 5315   6.980   5.842   4.598 -0.3581  0.2001 -0.2276
   56CHL1   H25 5316   6.952   5.757   4.664 -1.0456  1.2631  0.9130
   56CHL1   C26 5317   7.118   5.880   4.646  0.7486 -0.2280  0.0608
   56CHL1  H26A 5318   7.159   5.956   4.576  1.0208  0.0733  0.5407
   56CHL1  H26B 5319   7.123   5.911   4.753  0.4965  1.2532 -0.3364
   56CHL1  H26C 5320   7.186   5.793   4.630 -0.0779 -0.5614 -1.8964
   56CHL1   C27 5321   6.872   5.953   4.629  0.4137  0.0740 -0.1539
   56CHL1  H27A 5322   6.895   6.046   4.572 -0.8567  0.6706  0.2689
   56CHL1  H27B 5323   6.771   5.911   4.608  0.4705  0.0389 -0.3615
   56CHL1  H27C 5324   6.882   5.985   4.734 -3.8963  0.4350  0.3524
   57CHL1    C3 5325   5.713   5.450   3.364 -0.5629  0.7016 -0.9178
   57CHL1    H3 5326   5.612   5.493   3.376 -0.5332  0.7079 -0.6912
   57CHL1    O3 5327   5.737   5.444   3.222  0.1439 -0.0552 -0.0480
   57CHL1   H3' 5328   5.819   5.394   3.218 -0.2458 -0.6649 -0.6414
   57CHL1    C4 5329   5.812   5.556   3.425  0.9584  0.0034  0.0963
   57CHL1   H4A 5330   5.909   5.513   3.392  0.8171  0.2982 -0.7247
   57CHL1   H4B 5331   5.798   5.659   3.388  1.1396 -0.9865 -3.0242
   57CHL1    C5 5332   5.802   5.544   3.582  0.0954 -0.4177  0.3511
   57CHL1    C6 5333   5.792   5.656   3.654 -0.7134  0.0827  0.2085
   57CHL1    H6 5334   5.808   5.753   3.605 -0.1705  0.3752  0.9524
   57CHL1    C7 5335   5.793   5.660   3.800 -0.0333 -0.1387 -0.1387
   57CHL1   H7A 5336   5.875   5.726   3.834  1.0887 -1.4411 -0.2027
   57CHL1   H7B 5337   5.697   5.705   3.832 -0.4089 -0.9086 -0.1433
   57CHL1    C8 5338   5.817   5.522   3.874 -0.3754  0.5035  0.4230
   57CHL1    H8 5339   5.928   5.510   3.874 -0.5989 -3.6913 -1.9752
   57CHL1   C14 5340   5.761   5.520   4.015  0.4777 -0.5677 -0.1077
   57CHL1   H14 5341   5.651   5.533   4.006  0.0561 -0.1798  3.8058
   57CHL1   C15 5342   5.807   5.633   4.111 -0.3590  0.7832 -0.7771
   57CHL1  H15A 5343   5.917   5.648   4.100  0.1290 -1.3775  0.4800
   57CHL1  H15B 5344   5.755   5.729   4.088 -1.5327  0.9032  2.0000
   57CHL1   C16 5345   5.773   5.578   4.246  0.5366  0.4102  0.7788
   57CHL1  H16A 5346   5.857   5.575   4.319 -0.4479 -1.1996  1.9303
   57CHL1  H16B 5347   5.697   5.636   4.303  1.0848  0.0510  1.9222
   57CHL1   C17 5348   5.718   5.434   4.232  0.3478 -0.3969  0.6723
   57CHL1   H17 5349   5.613   5.451   4.201  0.9939  1.0864 -0.8784
   57CHL1   C13 5350   5.773   5.386   4.093  0.1557  0.4483  0.1956
   57CHL1   C18 5351   5.927   5.357   4.105  0.0373  0.6808  0.3727
   57CHL1  H18A 5352   5.975   5.356   4.005  0.5738  0.3963  0.6300
   57CHL1  H18B 5353   5.973   5.436   4.167  3.4980 -0.6699 -0.2431
   57CHL1  H18C 5354   5.944   5.258   4.153  3.6020  0.2429 -1.4557
   57CHL1   C12 5355   5.697   5.273   4.020  0.6076 -0.1501  0.2227
   57CHL1  H12A 5356   5.722   5.170   4.052 -2.3528 -1.3221 -0.8670
   57CHL1  H12B 5357   5.590   5.302   4.030  0.2718 -0.6797 -1.4585
   57CHL1   C11 5358   5.757   5.268   3.876 -0.1245  0.9453 -0.4339
   57CHL1  H11A 5359   5.861   5.228   3.871 -0.6128 -0.2207 -2.1026
   57CHL1  H11B 5360   5.690   5.192   3.829  0.1502  0.2129  0.3207
   57CHL1    C9 5361   5.754   5.402   3.796  0.0031 -0.4271 -0.2252
   57CHL1    H9 5362   5.645   5.425   3.794  0.2990  1.4634  1.8117
   57CHL1   C10 5363   5.802   5.400   3.649 -0.0146  0.3978 -0.5418
   57CHL1   C19 5364   5.942   5.337   3.646 -0.3443 -0.0617 -0.7164
   57CHL1  H19A 5365   5.972   5.338   3.540 -0.2849 -0.7218 -0.7067
   57CHL1  H19B 5366   6.013   5.403   3.700 -0.2694 -0.5720 -0.1832
   57CHL1  H19C 5367   5.935   5.235   3.689  1.5682 -0.4800 -1.3466
   57CHL1    C1 5368   5.697   5.317   3.572 -0.0357  0.4301  0.2169
   57CHL1   H1A 5369   5.715   5.213   3.607  2.0782  1.0484  1.1294
   57CHL1   H1B 5370   5.593   5.345   3.599 -0.8409 -1.1482 -1.0172
   57CHL1    C2 5371   5.722   5.311   3.418  0.2709  0.2127  0.5153
   57CHL1   H2A 5372   5.643   5.255   3.364 -0.0738  0.6774  0.5220
   57CHL1   H2B 5373   5.819   5.264   3.394  0.0273 -0.3378  0.5847
   57CHL1   C20 5374   5.730   5.350   4.361  0.5770 -0.0130 -0.0730
   57CHL1   H20 5375   5.832   5.307   4.369 -0.5660 -3.0978 -0.8077
   57CHL1   C21 5376   5.630   5.236   4.351 -0.3102  0.9255 -0.1654
   57CHL1  H21A 5377   5.626   5.181   4.255  0.0650  0.5652  0.0200
   57CHL1  H21B 5378   5.527   5.266   4.377 -0.6201 -2.5886  3.9670
   57CHL1  H21C 5379   5.661   5.158   4.425  0.4210 -1.0187 -2.4009
   57CHL1   C22 5380   5.698   5.430   4.492  0.3312 -0.2798  0.2566
   57CHL1  H22A 5381   5.766   5.518   4.495 -1.1030  0.8381  0.9739
   57CHL1  H22B 5382   5.596   5.469   4.472  0.8952  0.2961 -1.7229
   57CHL1   C23 5383   5.692   5.361   4.631 -0.6203  0.2951  0.5772
   57CHL1  H23A 5384   5.615   5.282   4.634  1.7516 -2.1279  3.1683
   57CHL1  H23B 5385   5.794   5.318   4.646 -1.6776 -1.6618  2.7378
   57CHL1   C24 5386   5.657   5.465   4.730  0.0342 -0.4794 -0.0304
   57CHL1  H24A 5387   5.714   5.559   4.721  0.2002 -0.5646  0.1183
   57CHL1  H24B 5388   5.549   5.489   4.727  0.4028  1.2386 -0.6484
   57CHL1   C25 5389   5.678   5.411   4.877 -0.1093 -0.0563  0.4919
   57CHL1   H25 5390   5.785   5.382   4.891 -0.4092 -1.0505  0.8311
   57CHL1   C26 5391   5.644   5.517   4.978  0.3282  0.0862  0.1024
   57CHL1  H26A 5392   5.547   5.565   4.954  0.1369  1.1525  2.6234
   57CHL1  H26B 5393   5.639   5.470   5.079 -2.0139 -0.7904 -0.3707
   57CHL1  H26C 5394   5.725   5.593   4.976  1.6742 -1.3104  0.0870
   57CHL1   C27 5395   5.592   5.284   4.903  0.1909  0.8067 -0.1061
   57CHL1  H27A 5396   5.483   5.304   4.894  0.3022  1.5584  0.1552
   57CHL1  H27B 5397   5.615   5.202   4.831 -0.5032  1.9079 -1.6406
   57CHL1  H27C 5398   5.619   5.253   5.006 -1.2766  2.4773  0.8460
   58CHL1    C3 5399   5.617   4.859   3.422  0.8278  0.0644  0.5886
   58CHL1    H3 5400   5.536   4.934   3.433  0.0838 -0.4176 -1.2421
   58CHL1    O3 5401   5.666   4.870   3.288 -0.0494 -0.3371 -0.0884
   58CHL1   H3' 5402   5.753   4.908   3.303  0.0305 -0.9960  1.3113
   58CHL1    C4 5403   5.727   4.877   3.530  0.8571  0.2248 -0.6385
   58CHL1   H4A 5404   5.819   4.818   3.510  0.5400 -0.6167  0.2968
   58CHL1   H4B 5405   5.774   4.977   3.524  1.4713 -0.1212 -1.7126
   58CHL1    C5 5406   5.676   4.858   3.670  0.0482 -0.1536  0.4593
   58CHL1    C6 5407   5.700   4.943   3.774  0.3819 -0.7229 -0.2781
   58CHL1    H6 5408   5.773   5.024   3.754 -1.3422  0.6189 -1.4706
   58CHL1    C7 5409   5.669   4.917   3.924  0.1527 -0.6023 -0.0121
   58CHL1   H7A 5410   5.757   4.931   3.991 -1.0694  0.3642  1.4716
   58CHL1   H7B 5411   5.594   4.988   3.965  0.8846  1.0316 -1.3467
   58CHL1    C8 5412   5.606   4.776   3.950 -0.2102  0.5546 -0.0287
   58CHL1    H8 5413   5.695   4.708   3.949 -0.9102 -0.4321 -2.2396
   58CHL1   C14 5414   5.532   4.759   4.078 -1.0725 -0.5606 -0.3993
   58CHL1   H14 5415   5.446   4.828   4.070 -1.0164 -0.6737 -2.1976
   58CHL1   C15 5416   5.602   4.810   4.215  0.2864  0.6521 -0.5563
   58CHL1  H15A 5417   5.708   4.777   4.209 -0.1973 -0.8288 -1.6160
   58CHL1  H15B 5418   5.588   4.918   4.235 -0.3946  0.6484 -0.9545
   58CHL1   C16 5419   5.517   4.741   4.323  0.3744 -0.5022  0.4358
   58CHL1  H16A 5420   5.579   4.682   4.394  3.5440  2.1029  0.0602
   58CHL1  H16B 5421   5.477   4.828   4.379  1.6857  0.6264 -0.3133
   58CHL1   C17 5422   5.415   4.650   4.248  0.4148  0.5006  0.0052
   58CHL1   H17 5423   5.330   4.720   4.228  0.5713  0.4347 -0.9185
   58CHL1   C13 5424   5.478   4.624   4.111 -0.1095  0.1760 -0.6605
   58CHL1   C18 5425   5.590   4.525   4.138 -0.4559  0.0489  0.2836
   58CHL1  H18A 5426   5.648   4.512   4.044 -0.0723  1.6651  0.2632
   58CHL1  H18B 5427   5.655   4.551   4.224 -1.0945 -0.8755  1.0605
   58CHL1  H18C 5428   5.534   4.431   4.155 -2.7141  1.3515  0.6075
   58CHL1   C12 5429   5.378   4.592   3.996 -0.0723  0.6107  0.1782
   58CHL1  H12A 5430   5.326   4.496   4.012 -0.2820  0.5712 -0.7229
   58CHL1  H12B 5431   5.290   4.659   3.989  0.2577  0.8928 -1.9184
   58CHL1   C11 5432   5.450   4.594   3.861  0.8250  0.0519 -0.3605
   58CHL1  H11A 5433   5.522   4.512   3.879 -1.0039 -1.5325  0.0760
   58CHL1  H11B 5434   5.365   4.568   3.794 -1.7776  1.2568  2.2272
   58CHL1    C9 5435   5.523   4.729   3.832 -0.0744  0.1610 -0.1455
   58CHL1    H9 5436   5.443   4.807   3.832 -0.0497  0.1846  0.2285
   58CHL1   C10 5437   5.596   4.732   3.693  0.3503 -0.0115  0.0045
   58CHL1   C19 5438   5.709   4.627   3.692  0.7965  0.5347 -0.4521
   58CHL1  H19A 5439   5.782   4.645   3.774 -0.8989  1.1239  0.9763
   58CHL1  H19B 5440   5.674   4.523   3.713 -0.4087  1.1957  0.9976
   58CHL1  H19C 5441   5.763   4.623   3.595 -0.6147  1.8354 -1.3349
   58CHL1    C1 5442   5.482   4.719   3.583 -0.2060  0.1899 -0.4383
   58CHL1   H1A 5443   5.440   4.617   3.584 -0.4625  0.2445  2.3046
   58CHL1   H1B 5444   5.407   4.799   3.605  1.0238  0.6238  2.6488
   58CHL1    C2 5445   5.541   4.723   3.441  0.5157  0.2991  0.2472
   58CHL1   H2A 5446   5.466   4.709   3.360  1.0008 -3.4802  0.2463
   58CHL1   H2B 5447   5.620   4.648   3.418  2.2953  1.8365  1.1446
   58CHL1   C20 5448   5.366   4.533   4.341  0.0891  0.4341  0.5541
   58CHL1   H20 5449   5.458   4.476   4.365  0.8635  1.2533 -0.3857
   58CHL1   C21 5450   5.265   4.441   4.262  0.3548 -0.0960  0.5637
   58CHL1  H21A 5451   5.226   4.362   4.330 -0.9443  0.6706  0.7418
   58CHL1  H21B 5452   5.314   4.382   4.181  1.6496 -0.7197  1.7435
   58CHL1  H21C 5453   5.181   4.507   4.234  1.0940 -0.0675 -1.8162
   58CHL1   C22 5454   5.298   4.591   4.464  0.1087  0.0910 -0.3644
   58CHL1  H22A 5455   5.359   4.666   4.520 -2.3694  2.2006 -0.2504
   58CHL1  H22B 5456   5.207   4.646   4.430 -0.5966 -0.6690  0.2290
   58CHL1   C23 5457   5.239   4.486   4.562 -1.0682 -0.3455  0.6509
   58CHL1  H23A 5458   5.146   4.439   4.522 -1.9330  1.1418  0.8481
   58CHL1  H23B 5459   5.309   4.400   4.568  0.5311  0.7417 -1.0915
   58CHL1   C24 5460   5.222   4.539   4.705  0.5605  0.2305 -0.9151
   58CHL1  H24A 5461   5.319   4.561   4.754 -0.0710 -1.1995  1.1085
   58CHL1  H24B 5462   5.163   4.632   4.692  0.8467  0.1816 -3.0941
   58CHL1   C25 5463   5.140   4.444   4.802  0.1928  0.1799  0.1434
   58CHL1   H25 5464   5.039   4.437   4.758  0.0736 -1.9095  0.6251
   58CHL1   C26 5465   5.185   4.299   4.810 -0.0053 -0.7828 -0.0296
   58CHL1  H26A 5466   5.175   4.243   4.714  2.2333 -0.4328 -0.5226
   58CHL1  H26B 5467   5.294   4.301   4.835 -0.3834 -1.9757  1.8870
   58CHL1  H26C 5468   5.134   4.248   4.894  1.7182 -2.0043  0.3429
   58CHL1   C27 5469   5.135   4.510   4.936  0.8217  0.5756  0.6610
   58CHL1  H27A 5470   5.237   4.535   4.974  0.6507  0.9784  0.8480
   58CHL1  H27B 5471   5.075   4.602   4.946  1.5682  1.3202 -1.1274
   58CHL1  H27C 5472   5.105   4.435   5.012  0.8554 -0.1484 -0.0239
   59CHL1    C3 5473   3.708   5.298   3.171  0.2893 -0.9327  0.4108
   59CHL1    H3 5474   3.736   5.403   3.196 -0.3980 -0.6747  0.1278
   59CHL1    O3 5475   3.741   5.279   3.037  0.5402  0.2474 -0.3552
   59CHL1   H3' 5476   3.782   5.192   3.032 -0.2150 -0.3787  2.3543
   59CHL1    C4 5477   3.785   5.199   3.252  0.2319  0.4538 -0.1189
   59CHL1   H4A 5478   3.781   5.096   3.210 -0.4924  0.9163 -1.2225
   59CHL1   H4B 5479   3.893   5.225   3.242  0.5859 -0.9759 -0.2634
   59CHL1    C5 5480   3.756   5.195   3.403  0.3064 -0.6943 -0.0366
   59CHL1    C6 5481   3.851   5.208   3.493  0.3228 -0.4525  0.2553
   59CHL1    H6 5482   3.956   5.210   3.461  0.5632  1.5840  1.0390
   59CHL1    C7 5483   3.833   5.210   3.641 -0.1118 -0.2982  0.2918
   59CHL1   H7A 5484   3.915   5.158   3.696  0.4384  1.3007  1.0481
   59CHL1   H7B 5485   3.837   5.314   3.679 -0.9422 -1.0244  2.5294
   59CHL1    C8 5486   3.693   5.151   3.675  0.0783 -0.6281 -0.9597
   59CHL1    H8 5487   3.710   5.042   3.678  0.7495 -0.5577  3.3479
   59CHL1   C14 5488   3.662   5.196   3.823 -0.4721 -0.2270  1.1427
   59CHL1   H14 5489   3.643   5.304   3.803 -0.8226 -0.6362 -0.8771
   59CHL1   C15 5490   3.776   5.184   3.924 -0.4434  0.4371  0.3779
   59CHL1  H15A 5491   3.837   5.092   3.912 -1.2672 -0.1043  0.2600
   59CHL1  H15B 5492   3.837   5.275   3.912 -0.2142 -0.0680 -3.2806
   59CHL1   C16 5493   3.702   5.183   4.062  0.5972 -0.0886 -0.5080
   59CHL1  H16A 5494   3.731   5.089   4.115 -1.0880  0.6372  1.9060
   59CHL1  H16B 5495   3.728   5.278   4.112 -2.6216  0.7299 -0.1678
   59CHL1   C17 5496   3.552   5.191   4.025  0.1013 -0.6400  0.4517
   59CHL1   H17 5497   3.533   5.300   4.022  0.1074 -0.5381  2.4232
   59CHL1   C13 5498   3.536   5.140   3.881 -0.0673 -0.3393 -0.0149
   59CHL1   C18 5499   3.543   4.986   3.875  0.5257 -0.9078 -0.0290
   59CHL1  H18A 5500   3.549   4.936   3.776  3.0990 -1.7394  0.4749
   59CHL1  H18B 5501   3.632   4.943   3.924 -0.9996 -4.6850 -0.2788
   59CHL1  H18C 5502   3.455   4.947   3.930 -0.4234 -0.6603 -1.3263
   59CHL1   C12 5503   3.424   5.202   3.793 -0.3891  0.5610  0.1865
   59CHL1  H12A 5504   3.319   5.175   3.817 -0.2908  0.3959  0.4299
   59CHL1  H12B 5505   3.435   5.312   3.807  2.2393  0.3586  0.1376
   59CHL1   C11 5506   3.442   5.178   3.642 -0.2391  0.6910  0.5561
   59CHL1  H11A 5507   3.410   5.074   3.622  0.8737  0.6868 -1.3658
   59CHL1  H11B 5508   3.363   5.230   3.583 -2.1282 -1.4149  1.1002
   59CHL1    C9 5509   3.584   5.207   3.584  0.5585  0.0862 -0.1318
   59CHL1    H9 5510   3.598   5.317   3.588  0.6536  0.0407  1.3852
   59CHL1   C10 5511   3.603   5.175   3.435  0.0375  0.1532 -0.2524
   59CHL1   C19 5512   3.568   5.030   3.399 -0.1447 -0.7549  0.2444
   59CHL1  H19A 5513   3.616   4.960   3.471 -2.4322 -0.3520  2.3166
   59CHL1  H19B 5514   3.460   5.008   3.416 -0.8990  1.4434 -1.3617
   59CHL1  H19C 5515   3.577   4.997   3.293 -2.5693 -1.1366  0.0983
   59CHL1    C1 5516   3.521   5.272   3.349 -0.0595 -0.0611  0.1779
   59CHL1   H1A 5517   3.414   5.250   3.364  0.1893 -0.3449  1.6558
   59CHL1   H1B 5518   3.532   5.376   3.385 -0.5859  0.8767 -2.1676
   59CHL1    C2 5519   3.565   5.278   3.194  0.1925 -1.3158 -1.2203
   59CHL1   H2A 5520   3.523   5.367   3.142 -1.0569  0.2647  2.2155
   59CHL1   H2B 5521   3.522   5.190   3.142  0.8118 -0.6163 -2.9734
   59CHL1   C20 5522   3.473   5.124   4.144 -1.0099 -0.5264  0.1155
   59CHL1   H20 5523   3.498   5.016   4.154  1.1477 -0.1225 -0.3750
   59CHL1   C21 5524   3.324   5.137   4.103 -0.3366  0.9683 -0.8403
   59CHL1  H21A 5525   3.298   5.081   4.011  2.0975 -1.4507 -0.1782
   59CHL1  H21B 5526   3.294   5.243   4.090 -1.2732  1.2451  2.5841
   59CHL1  H21C 5527   3.266   5.089   4.185  2.7841 -1.1920  0.3004
   59CHL1   C22 5528   3.494   5.198   4.279 -0.1632  0.6735 -0.0733
   59CHL1  H22A 5529   3.602   5.214   4.301  0.1420  2.4024 -2.3748
   59CHL1  H22B 5530   3.458   5.302   4.265 -2.2483  0.2052  1.4624
   59CHL1   C23 5531   3.419   5.134   4.396  0.0912  0.0073 -1.3984
   59CHL1  H23A 5532   3.308   5.143   4.387  0.0546  1.0848 -0.0901
   59CHL1  H23B 5533   3.456   5.030   4.400  0.5942  0.2006 -0.9307
   59CHL1   C24 5534   3.463   5.206   4.518 -0.2299 -0.2577 -0.5066
   59CHL1  H24A 5535   3.559   5.159   4.547 -0.7119 -0.1214  1.5100
   59CHL1  H24B 5536   3.476   5.314   4.494  0.1023 -0.6478 -2.1924
   59CHL1   C25 5537   3.362   5.191   4.643 -0.4988  0.1460 -0.3193
   59CHL1   H25 5538   3.286   5.271   4.641 -0.9454 -0.2226  0.9942
   59CHL1   C26 5539   3.290   5.055   4.645  0.1438  0.6513 -0.2771
   59CHL1  H26A 5540   3.218   5.035   4.562  1.3018 -0.9521 -0.9425
   59CHL1  H26B 5541   3.368   4.976   4.639 -0.9022 -0.4157 -0.1785
   59CHL1  H26C 5542   3.240   5.044   4.743 -1.0511  1.0174 -0.8252
   59CHL1   C27 5543   3.439   5.210   4.773  0.1338  0.5651  0.4921
   59CHL1  H27A 5544   3.521   5.136   4.785 -0.1883 -0.0071 -0.6434
   59CHL1  H27B 5545   3.492   5.307   4.762  1.4011  0.2288  3.0316
   59CHL1  H27C 5546   3.376   5.209   4.864 -1.1992 -2.3024 -0.3061
   60CHL1    C3 5547   3.752   2.363   3.719  0.1431  0.2567 -0.0619
   60CHL1    H3 5548   3.703   2.274   3.763  1.9738 -1.3587 -1.1270
   60CHL1    O3 5549   3.743   2.344   3.576  0.3480  0.0934  0.2050
   60CHL1   H3' 5550   3.805   2.412   3.549 -1.4640  1.8520  0.2413
   60CHL1    C4 5551   3.680   2.484   3.777 -0.4456 -0.9144 -0.7840
   60CHL1   H4A 5552   3.701   2.585   3.737 -2.4166  1.1551  2.8588
   60CHL1   H4B 5553   3.571   2.473   3.763 -0.5174  1.2189 -2.5004
   60CHL1    C5 5554   3.709   2.495   3.923 -0.0730 -0.6618  0.1376
   60CHL1    C6 5555   3.611   2.492   4.018  0.0822 -0.0270  0.4477
   60CHL1    H6 5556   3.504   2.497   3.993  0.4336 -0.3113 -1.2384
   60CHL1    C7 5557   3.628   2.507   4.165 -0.1141 -0.3259  0.1380
   60CHL1   H7A 5558   3.559   2.585   4.204 -0.8830 -0.2531 -1.2806
   60CHL1   H7B 5559   3.600   2.408   4.208  0.8248 -0.1762  1.1450
   60CHL1    C8 5560   3.774   2.545   4.209 -0.7904 -0.1507 -0.3435
   60CHL1    H8 5561   3.788   2.653   4.185  1.1464 -0.4281 -0.6028
   60CHL1   C14 5562   3.785   2.512   4.357  0.4747 -1.5963 -0.7836
   60CHL1   H14 5563   3.764   2.404   4.372 -0.1450 -1.2751  0.9732
   60CHL1   C15 5564   3.687   2.584   4.457  0.6928 -0.4835  0.5651
   60CHL1  H15A 5565   3.678   2.689   4.420  0.4066 -0.5065  0.5670
   60CHL1  H15B 5566   3.580   2.555   4.461 -0.2478  2.5749  0.5957
   60CHL1   C16 5567   3.759   2.577   4.590  0.4340  0.9476 -0.7227
   60CHL1  H16A 5568   3.766   2.680   4.631  0.3805  0.0234  1.7964
   60CHL1  H16B 5569   3.709   2.523   4.673  1.6727  0.5900 -0.1913
   60CHL1   C17 5570   3.897   2.512   4.568 -0.0994 -1.0631 -0.3148
   60CHL1   H17 5571   3.898   2.404   4.595  0.8612 -0.8318  0.6369
   60CHL1   C13 5572   3.919   2.539   4.419  0.0488 -0.3541  0.3205
   60CHL1   C18 5573   3.946   2.694   4.398 -0.7865 -0.3506  0.7241
   60CHL1  H18A 5574   4.051   2.705   4.431 -1.3703  1.4856  2.1037
   60CHL1  H18B 5575   3.958   2.720   4.290 -2.2275  0.1980  0.6715
   60CHL1  H18C 5576   3.878   2.757   4.460  0.4175 -1.6158  3.4813
   60CHL1   C12 5577   4.020   2.456   4.337  0.5536 -0.0361 -0.4928
   60CHL1  H12A 5578   4.126   2.482   4.359 -0.0078  1.4102  0.7519
   60CHL1  H12B 5579   4.006   2.348   4.360 -0.4102 -1.0480 -4.8986
   60CHL1   C11 5580   4.017   2.479   4.181 -0.4440 -0.0348 -1.0185
   60CHL1  H11A 5581   4.066   2.577   4.164  0.8985 -0.6289 -0.6549
   60CHL1  H11B 5582   4.080   2.400   4.136 -2.2191 -1.2429 -1.4564
   60CHL1    C9 5583   3.874   2.471   4.123  0.5589  0.2631 -0.4940
   60CHL1    H9 5584   3.846   2.364   4.137 -0.9456  0.5745 -1.0034
   60CHL1   C10 5585   3.860   2.501   3.970  0.2079  0.5387 -1.1506
   60CHL1   C19 5586   3.932   2.628   3.931  0.1371  0.7413 -0.0204
   60CHL1  H19A 5587   3.891   2.704   4.001 -4.4509 -2.0745  0.7846
   60CHL1  H19B 5588   4.042   2.621   3.940  0.5313 -0.7673 -4.0144
   60CHL1  H19C 5589   3.922   2.666   3.827  0.7081 -1.3646 -0.8981
   60CHL1    C1 5590   3.937   2.389   3.888  0.2073  0.6352 -0.7977
   60CHL1   H1A 5591   4.046   2.406   3.898  0.2207  0.7347 -1.1156
   60CHL1   H1B 5592   3.919   2.291   3.938 -0.0903  1.3290  0.5238
   60CHL1    C2 5593   3.899   2.363   3.743 -0.0744 -0.4721 -0.8289
   60CHL1   H2A 5594   3.954   2.275   3.703  1.7211  0.8576 -1.4143
   60CHL1   H2B 5595   3.949   2.449   3.693  2.9532 -0.5591  1.7227
   60CHL1   C20 5596   4.000   2.581   4.666 -0.1029  0.1726 -0.8154
   60CHL1   H20 5597   3.999   2.692   4.667 -2.0347  0.1864 -0.7233
   60CHL1   C21 5598   4.147   2.544   4.633 -0.0046 -0.7807  0.5681
   60CHL1  H21A 5599   4.221   2.585   4.704  0.7994  3.0180 -2.1429
   60CHL1  H21B 5600   4.178   2.585   4.534  2.4261 -0.8128  1.2581
   60CHL1  H21C 5601   4.159   2.434   4.622 -1.3386 -0.8832 -0.1821
   60CHL1   C22 5602   3.976   2.555   4.820 -0.1372  0.1031  0.2715
   60CHL1  H22A 5603   4.060   2.604   4.874 -1.0802  1.0128  0.9583
   60CHL1  H22B 5604   3.887   2.616   4.848  0.7399  0.6424  1.9956
   60CHL1   C23 5605   3.966   2.411   4.861 -0.3710  0.7572 -0.3895
   60CHL1  H23A 5606   3.893   2.354   4.800 -0.1575 -0.0308  0.0802
   60CHL1  H23B 5607   4.059   2.352   4.847 -2.7239 -3.2489 -0.5005
   60CHL1   C24 5608   3.897   2.392   5.002  0.3538  0.4836  0.3298
   60CHL1  H24A 5609   3.960   2.446   5.077  1.0664 -2.6686  2.2395
   60CHL1  H24B 5610   3.799   2.442   5.007 -0.2719 -0.6860  0.2052
   60CHL1   C25 5611   3.874   2.253   5.064 -0.0268 -0.1138 -0.3297
   60CHL1   H25 5612   3.974   2.205   5.080 -0.2709 -0.2961  0.7271
   60CHL1   C26 5613   3.791   2.266   5.188  0.3958 -0.2087 -0.2177
   60CHL1  H26A 5614   3.742   2.178   5.235 -1.2589  2.1527  2.8818
   60CHL1  H26B 5615   3.850   2.312   5.270 -0.0451 -1.1983  0.6854
   60CHL1  H26C 5616   3.705   2.335   5.174  1.8641  1.8109  0.3332
   60CHL1   C27 5617   3.798   2.164   4.969  0.4065  0.2178 -0.5763
   60CHL1  H27A 5618   3.710   2.207   4.916 -1.0895 -2.5046 -0.5066
   60CHL1  H27B 5619   3.859   2.115   4.891  1.0758 -3.1614  1.8304
   60CHL1  H27C 5620   3.759   2.076   5.024 -3.2812  0.9292 -1.7276
   61CHL1    C3 5621   0.143   3.811   3.502 -0.1637 -0.2872 -0.8796
   61CHL1    H3 5622   0.087   3.907   3.502 -0.7691 -0.6233 -2.2803
   61CHL1    O3 5623   0.167   3.772   3.370  0.6659  0.3683  0.4253
   61CHL1   H3' 5624   0.083   3.758   3.325  1.5669 -0.3404 -1.1216
   61CHL1    C4 5625   0.277   3.821   3.578  0.0805  0.0865  0.0933
   61CHL1   H4A 5626   0.324   3.720   3.575  0.3091  0.1593 -3.3850
   61CHL1   H4B 5627   0.344   3.900   3.538  0.8946 -1.0462 -0.8571
   61CHL1    C5 5628   0.244   3.859   3.726 -0.3622 -0.0244  0.2511
   61CHL1    C6 5629   0.295   3.968   3.786 -1.0220 -0.5328 -0.1189
   61CHL1    H6 5630   0.370   4.034   3.740 -0.4149 -0.2502  1.2489
   61CHL1    C7 5631   0.259   4.004   3.927  0.0014 -0.3560  0.4188
   61CHL1   H7A 5632   0.348   4.041   3.981  2.3441  0.2911 -3.4906
   61CHL1   H7B 5633   0.194   4.094   3.923 -0.3820 -0.6495 -3.0460
   61CHL1    C8 5634   0.190   3.895   4.016 -0.2490 -0.1030  0.4772
   61CHL1    H8 5635   0.267   3.822   4.048  1.7423  1.8311  0.3797
   61CHL1   C14 5636   0.138   3.951   4.142  0.3878 -0.1153  0.1849
   61CHL1   H14 5637   0.064   4.028   4.110  1.8010 -0.1207 -3.4903
   61CHL1   C15 5638   0.225   4.036   4.237  0.8124  0.9162  0.4254
   61CHL1  H15A 5639   0.326   3.989   4.242  1.6662  2.5303 -0.7659
   61CHL1  H15B 5640   0.241   4.142   4.211 -0.1848  0.5995 -1.6881
   61CHL1   C16 5641   0.147   4.026   4.372  0.0195  0.5932  0.3504
   61CHL1  H16A 5642   0.212   3.980   4.449 -0.5183 -1.5811 -0.4000
   61CHL1  H16B 5643   0.113   4.123   4.414 -2.7498 -0.2151  0.2173
   61CHL1   C17 5644   0.025   3.933   4.354 -0.0801 -0.2687  0.2704
   61CHL1   H17 5645  -0.058   4.002   4.328  0.2298 -0.4202 -1.1928
   61CHL1   C13 5646   0.064   3.846   4.232 -0.1620  0.6985  0.0438
   61CHL1   C18 5647   0.164   3.743   4.282 -0.9255  0.0001  0.6117
   61CHL1  H18A 5648   0.237   3.785   4.354 -0.9583 -2.6842  2.3594
   61CHL1  H18B 5649   0.104   3.668   4.338  0.2370 -2.2713 -1.0000
   61CHL1  H18C 5650   0.210   3.678   4.205  0.1571  1.7170 -0.2548
   61CHL1   C12 5651  -0.052   3.774   4.153 -1.0529 -0.2596  0.1514
   61CHL1  H12A 5652  -0.090   3.682   4.202 -3.0107  0.6007  0.3128
   61CHL1  H12B 5653  -0.137   3.843   4.138 -0.3852  0.3747 -0.8271
   61CHL1   C11 5654   0.002   3.722   4.016  0.0036 -0.0122 -0.2738
   61CHL1  H11A 5655   0.078   3.642   4.032 -0.5482 -0.2021  1.6877
   61CHL1  H11B 5656  -0.081   3.671   3.962  0.3206  0.1837 -0.9528
   61CHL1    C9 5657   0.085   3.827   3.932  0.5052 -0.0149  0.5670
   61CHL1    H9 5658   0.012   3.902   3.895  0.3836  0.8039  2.3647
   61CHL1   C10 5659   0.149   3.766   3.800  0.4241  0.1819 -0.8778
   61CHL1   C19 5660   0.241   3.638   3.830 -0.2443 -0.0855 -0.0763
   61CHL1  H19A 5661   0.327   3.659   3.898 -1.3847  1.6095  0.9129
   61CHL1  H19B 5662   0.166   3.569   3.874 -0.7494 -0.2119 -1.1028
   61CHL1  H19C 5663   0.279   3.595   3.735  3.6808 -1.0134  1.7039
   61CHL1    C1 5664   0.021   3.731   3.710  0.1842  0.1695 -0.2904
   61CHL1   H1A 5665  -0.042   3.646   3.744  0.1633  0.4663  0.4248
   61CHL1   H1B 5666  -0.053   3.814   3.710 -1.6765 -1.3319  2.5025
   61CHL1    C2 5667   0.052   3.703   3.561 -0.2749  0.5808  0.3085
   61CHL1   H2A 5668  -0.044   3.692   3.506  0.1652 -2.8010  0.0555
   61CHL1   H2B 5669   0.110   3.610   3.547  2.6865  2.5551 -1.9443
   61CHL1   C20 5670  -0.011   3.859   4.487  0.2074  0.1773  0.1544
   61CHL1   H20 5671   0.073   3.790   4.509  1.1998  1.1504 -0.4936
   61CHL1   C21 5672  -0.145   3.792   4.481  0.2189 -0.5918  0.1822
   61CHL1  H21A 5673  -0.185   3.756   4.578  1.5195 -2.0760  0.1968
   61CHL1  H21B 5674  -0.144   3.704   4.413 -0.5920  0.6544 -1.5132
   61CHL1  H21C 5675  -0.222   3.865   4.446  1.3748 -1.2483 -4.4179
   61CHL1   C22 5676  -0.008   3.966   4.605 -0.0721  0.5370  0.4357
   61CHL1  H22A 5677   0.095   4.006   4.605  0.8428 -1.5919 -1.9024
   61CHL1  H22B 5678  -0.085   4.042   4.579 -1.5725 -1.7246 -2.3270
   61CHL1   C23 5679  -0.058   3.921   4.740 -0.7022 -0.2714 -0.2195
   61CHL1  H23A 5680  -0.168   3.906   4.748 -0.6311 -0.2580  0.9110
   61CHL1  H23B 5681  -0.001   3.827   4.756  0.1040 -0.1354 -2.0869
   61CHL1   C24 5682  -0.017   4.030   4.848  0.5931  0.0367  0.0739
   61CHL1  H24A 5683   0.091   4.050   4.866  0.3312  1.8562 -0.2379
   61CHL1  H24B 5684  -0.065   4.122   4.809  1.2344 -0.5325 -2.1779
   61CHL1   C25 5685  -0.084   3.992   4.979  0.1646  0.2309  0.4087
   61CHL1   H25 5686  -0.059   3.886   5.001  1.0630  0.5057  0.7258
   61CHL1   C26 5687  -0.027   4.069   5.094 -0.1301 -0.5786 -0.5325
   61CHL1  H26A 5688  -0.076   4.035   5.189  1.0780  1.4262  0.8770
   61CHL1  H26B 5689   0.083   4.056   5.104 -0.2211 -1.2301 -0.2666
   61CHL1  H26C 5690  -0.038   4.178   5.080  0.9057 -0.7922 -3.7023
   61CHL1   C27 5691  -0.232   4.022   4.984 -0.5705 -0.5440 -0.4518
   61CHL1  H27A 5692  -0.282   3.961   4.905  1.9996 -3.1972 -0.2428
   61CHL1  H27B 5693  -0.276   4.007   5.084 -0.4658 -1.5185 -0.5416
   61CHL1  H27C 5694  -0.240   4.124   4.941 -0.7050 -1.0310 -1.6427
   62CHL1    C3 5695   1.391   6.596   3.166 -0.2872  0.5610 -0.6089
   62CHL1    H3 5696   1.352   6.492   3.165 -0.8380  0.7605 -0.2564
   62CHL1    O3 5697   1.430   6.620   3.035 -0.5350  0.1218  0.1941
   62CHL1   H3' 5698   1.443   6.715   3.035  0.2583  0.0242 -0.5378
   62CHL1    C4 5699   1.277   6.693   3.195  0.1713 -0.0264 -0.1440
   62CHL1   H4A 5700   1.310   6.797   3.173 -0.5221 -0.1216 -1.8375
   62CHL1   H4B 5701   1.194   6.672   3.124 -1.6100  3.2095  0.7759
   62CHL1    C5 5702   1.242   6.690   3.338  0.3485  0.6213  0.0723
   62CHL1    C6 5703   1.113   6.675   3.379  0.0351 -0.1409 -0.1761
   62CHL1    H6 5704   1.036   6.658   3.302  0.0114 -0.3126 -0.1141
   62CHL1    C7 5705   1.065   6.700   3.516 -0.2566  0.6767 -0.1913
   62CHL1   H7A 5706   0.977   6.768   3.512  1.2821  2.8633  1.0806
   62CHL1   H7B 5707   1.030   6.610   3.572  0.4737 -0.1534 -1.0133
   62CHL1    C8 5708   1.186   6.745   3.614  0.0330 -0.1399  0.1077
   62CHL1    H8 5709   1.193   6.855   3.604 -0.6603 -0.2115 -1.4515
   62CHL1   C14 5710   1.149   6.709   3.758  0.3646  0.3412 -0.4576
   62CHL1   H14 5711   1.155   6.598   3.764  0.6600  0.3640 -0.3261
   62CHL1   C15 5712   1.007   6.744   3.800  0.6126 -0.8377 -0.5157
   62CHL1  H15A 5713   0.978   6.842   3.756 -0.6572 -0.9638 -0.0126
   62CHL1  H15B 5714   0.933   6.667   3.768 -2.8248  0.6219  3.0331
   62CHL1   C16 5715   1.013   6.746   3.952 -0.4420 -0.1346 -0.0801
   62CHL1  H16A 5716   0.992   6.846   3.994  1.7679 -0.1067  1.1398
   62CHL1  H16B 5717   0.951   6.667   3.999 -1.2177 -0.1097 -1.0182
   62CHL1   C17 5718   1.169   6.725   3.986  0.2965  0.0155 -0.0905
   62CHL1   H17 5719   1.182   6.615   3.995  1.0450  0.0781 -0.3788
   62CHL1   C13 5720   1.247   6.766   3.858  0.2303 -0.5961  0.3420
   62CHL1   C18 5721   1.255   6.921   3.853  0.5958 -0.5544 -0.0861
   62CHL1  H18A 5722   1.300   6.961   3.760 -1.0922  0.2909 -0.5803
   62CHL1  H18B 5723   1.156   6.970   3.868 -0.3840 -1.5813 -2.7661
   62CHL1  H18C 5724   1.312   6.954   3.943 -0.0772 -1.6261  0.7653
   62CHL1   C12 5725   1.381   6.692   3.840 -0.5343  0.2840  0.7219
   62CHL1  H12A 5726   1.459   6.730   3.909 -0.1240 -1.5805  1.3323
   62CHL1  H12B 5727   1.355   6.586   3.862 -0.4198  0.0827 -0.0890
   62CHL1   C11 5728   1.429   6.697   3.697  0.7972 -0.2615 -0.0249
   62CHL1  H11A 5729   1.470   6.800   3.695 -1.5838  0.7753  0.2224
   62CHL1  H11B 5730   1.503   6.619   3.673 -0.8555 -1.6957 -0.6843
   62CHL1    C9 5731   1.314   6.676   3.589  0.2336  0.3670 -0.3230
   62CHL1    H9 5732   1.299   6.566   3.590 -1.0438  0.4882 -1.7377
   62CHL1   C10 5733   1.355   6.712   3.443  0.1307  0.7564  0.4170
   62CHL1   C19 5734   1.415   6.857   3.441 -0.7744  0.2576  0.1772
   62CHL1  H19A 5735   1.443   6.891   3.339  0.9261 -2.0051 -0.1861
   62CHL1  H19B 5736   1.349   6.927   3.495 -1.8906  0.1203 -0.9555
   62CHL1  H19C 5737   1.516   6.856   3.487 -1.9925  0.9463  3.0544
   62CHL1    C1 5738   1.461   6.610   3.401 -0.3666 -0.5663 -0.1393
   62CHL1   H1A 5739   1.556   6.613   3.458  0.1329 -1.0526 -0.9323
   62CHL1   H1B 5740   1.414   6.509   3.411  3.0609 -2.4102 -0.9728
   62CHL1    C2 5741   1.508   6.625   3.257 -0.3658 -0.6534  0.5912
   62CHL1   H2A 5742   1.597   6.559   3.247 -0.1906 -0.1537 -1.6153
   62CHL1   H2B 5743   1.533   6.733   3.242  0.3889 -1.0802 -1.5482
   62CHL1   C20 5744   1.230   6.778   4.123  1.0030  0.1152  0.2265
   62CHL1   H20 5745   1.328   6.817   4.089  0.8751 -0.4735 -0.8537
   62CHL1   C21 5746   1.239   6.657   4.221  0.3767 -0.0163  0.1326
   62CHL1  H21A 5747   1.134   6.630   4.248 -0.1849  2.4799  0.6989
   62CHL1  H21B 5748   1.283   6.680   4.320  1.6670 -2.4049  0.1721
   62CHL1  H21C 5749   1.288   6.565   4.182  0.7655  0.2124  0.0749
   62CHL1   C22 5750   1.146   6.894   4.188  0.3802  0.3825  0.0021
   62CHL1  H22A 5751   1.111   6.968   4.113 -1.5449 -0.0565  0.4209
   62CHL1  H22B 5752   1.053   6.853   4.233  0.8922 -0.4502  0.3463
   62CHL1   C23 5753   1.221   6.973   4.304 -0.2073 -0.1617  0.0382
   62CHL1  H23A 5754   1.230   6.911   4.396 -0.2703  2.2726  1.7957
   62CHL1  H23B 5755   1.323   7.005   4.276 -0.3256  1.3009  1.1405
   62CHL1   C24 5756   1.153   7.111   4.345  0.3233 -0.0230 -0.1220
   62CHL1  H24A 5757   1.060   7.107   4.407 -0.6360  0.2222 -1.5134
   62CHL1  H24B 5758   1.233   7.152   4.410  1.3110 -0.0412 -1.3052
   62CHL1   C25 5759   1.108   7.210   4.229  0.3362  0.2365  0.6136
   62CHL1   H25 5760   1.029   7.158   4.170  2.9407 -0.6394 -2.3553
   62CHL1   C26 5761   1.047   7.344   4.284  0.6982  1.0670  0.1708
   62CHL1  H26A 5762   1.105   7.382   4.370  2.5686 -0.2063 -0.4566
   62CHL1  H26B 5763   1.022   7.418   4.205  1.2351 -0.0945 -1.1320
   62CHL1  H26C 5764   0.945   7.316   4.319  1.0970  0.5211  0.9274
   62CHL1   C27 5765   1.215   7.240   4.119 -0.0419  0.2463  0.1289
   62CHL1  H27A 5766   1.311   7.273   4.165 -0.1620  2.1983 -0.8947
   62CHL1  H27B 5767   1.243   7.153   4.056 -1.6727 -0.2719  0.0871
   62CHL1  H27C 5768   1.179   7.323   4.054  0.5547 -0.3331 -0.9781
   63CHL1    C3 5769   3.287   1.910   3.521 -0.1586 -1.1030  0.1748
   63CHL1    H3 5770   3.377   1.959   3.564 -0.8803 -0.6988  1.2654
   63CHL1    O3 5771   3.303   1.909   3.377  0.0751 -0.1772  0.8750
   63CHL1   H3' 5772   3.320   2.000   3.353  4.5295 -0.2938  2.7139
   63CHL1    C4 5773   3.286   1.761   3.566 -0.1319 -0.4138  0.0847
   63CHL1   H4A 5774   3.216   1.697   3.509  0.4317 -1.4267  0.5110
   63CHL1   H4B 5775   3.385   1.729   3.526 -0.1924 -0.2511 -0.2013
   63CHL1    C5 5776   3.285   1.740   3.715 -0.4227 -0.4815 -0.0307
   63CHL1    C6 5777   3.388   1.680   3.772 -0.1015  0.3543 -0.5156
   63CHL1    H6 5778   3.476   1.651   3.712  0.2618 -1.7416  0.9151
   63CHL1    C7 5779   3.390   1.662   3.922 -0.6778 -0.7434  0.7190
   63CHL1   H7A 5780   3.410   1.554   3.940  1.0514 -0.6326 -0.3134
   63CHL1   H7B 5781   3.473   1.726   3.961  0.5728 -1.0186 -1.3450
   63CHL1    C8 5782   3.262   1.696   3.990  0.0151  0.2586  0.2140
   63CHL1    H8 5783   3.204   1.601   3.984  1.5601 -0.8952  2.1788
   63CHL1   C14 5784   3.289   1.699   4.146  0.4230  0.1463 -0.1131
   63CHL1   H14 5785   3.351   1.785   4.178 -1.0814  0.5265  2.0235
   63CHL1   C15 5786   3.352   1.577   4.214 -0.4309 -0.6679  0.1069
   63CHL1  H15A 5787   3.298   1.489   4.174 -1.7684 -0.3488  1.1396
   63CHL1  H15B 5788   3.460   1.556   4.203 -0.6643 -1.7378 -0.2058
   63CHL1   C16 5789   3.307   1.575   4.363 -0.3386  0.2790  0.3440
   63CHL1  H16A 5790   3.248   1.482   4.381  0.1240 -0.1062 -0.0913
   63CHL1  H16B 5791   3.386   1.576   4.440  0.3142 -1.8358 -0.2321
   63CHL1   C17 5792   3.211   1.698   4.372 -0.9393  0.3328  0.2621
   63CHL1   H17 5793   3.272   1.784   4.407  0.6516 -0.7646  0.2594
   63CHL1   C13 5794   3.158   1.727   4.226 -0.4145  0.5140  0.2379
   63CHL1   C18 5795   3.047   1.623   4.195 -0.6207  0.6216 -0.3659
   63CHL1  H18A 5796   3.032   1.623   4.084  0.6306  0.6505 -0.5468
   63CHL1  H18B 5797   3.091   1.529   4.234  2.6951  2.3029  0.2791
   63CHL1  H18C 5798   2.956   1.637   4.257 -0.3281 -2.6238  0.9840
   63CHL1   C12 5799   3.102   1.866   4.188  0.2763  0.0181 -0.1270
   63CHL1  H12A 5800   2.999   1.876   4.229  0.0836  0.7302 -0.7735
   63CHL1  H12B 5801   3.177   1.936   4.229  1.8097 -0.9222 -1.1949
   63CHL1   C11 5802   3.079   1.881   4.034  0.2808 -0.3872  0.2756
   63CHL1  H11A 5803   2.986   1.823   4.011  0.2991  0.3003 -1.7776
   63CHL1  H11B 5804   3.062   1.989   4.014 -1.2673 -0.6481  0.0345
   63CHL1    C9 5805   3.194   1.824   3.948  0.0650 -0.6501 -0.1710
   63CHL1    H9 5806   3.275   1.897   3.972 -1.9551  1.6278  0.1260
   63CHL1   C10 5807   3.177   1.819   3.793  0.0996  0.5979  0.6964
   63CHL1   C19 5808   3.045   1.738   3.777  0.3307  0.1787 -0.2294
   63CHL1  H19A 5809   3.039   1.654   3.849 -0.0520 -1.0704 -1.6704
   63CHL1  H19B 5810   2.962   1.807   3.806  0.5981  0.5927 -0.4368
   63CHL1  H19C 5811   3.012   1.716   3.674  0.1987  1.7235 -0.5434
   63CHL1    C1 5812   3.162   1.962   3.736  0.3111 -0.3989  0.3212
   63CHL1   H1A 5813   3.063   2.002   3.767  1.1833  1.1585  1.2524
   63CHL1   H1B 5814   3.226   2.037   3.787 -0.0798  1.6428 -1.9764
   63CHL1    C2 5815   3.164   1.972   3.581 -0.1492 -0.5821 -0.9374
   63CHL1   H2A 5816   3.163   2.082   3.564  1.1278 -0.7783 -2.5060
   63CHL1   H2B 5817   3.074   1.923   3.538 -2.0364 -0.5533  2.6025
   63CHL1   C20 5818   3.114   1.676   4.491  0.3763  0.1222  0.2983
   63CHL1   H20 5819   3.038   1.599   4.469  0.6982 -0.3299  0.7452
   63CHL1   C21 5820   3.041   1.809   4.518 -0.2419 -0.3439 -0.1770
   63CHL1  H21A 5821   2.997   1.829   4.619  1.0865 -0.1330  0.3742
   63CHL1  H21B 5822   2.953   1.819   4.451  1.2214 -1.8220 -2.4287
   63CHL1  H21C 5823   3.107   1.896   4.497 -0.7769  0.1584  0.1724
   63CHL1   C22 5824   3.189   1.637   4.631  0.3442  0.4436 -0.0010
   63CHL1  H22A 5825   3.106   1.630   4.704  1.1008 -1.3372  0.7455
   63CHL1  H22B 5826   3.220   1.531   4.625  0.2748  0.4540 -0.6128
   63CHL1   C23 5827   3.295   1.728   4.681  0.5288 -0.2537  0.8904
   63CHL1  H23A 5828   3.363   1.737   4.593  0.7139 -0.9903  0.9538
   63CHL1  H23B 5829   3.253   1.830   4.694  0.3055  0.0575 -1.6589
   63CHL1   C24 5830   3.354   1.674   4.811 -0.0950 -0.6059 -0.1425
   63CHL1  H24A 5831   3.275   1.653   4.886 -1.8962  2.1259 -1.1410
   63CHL1  H24B 5832   3.413   1.579   4.805  1.5472  0.3495  0.3049
   63CHL1   C25 5833   3.440   1.778   4.890 -1.2625 -0.4898 -0.9922
   63CHL1   H25 5834   3.375   1.866   4.908  1.4054  1.4341 -0.1464
   63CHL1   C26 5835   3.481   1.740   5.038  0.6472  0.2525 -0.7570
   63CHL1  H26A 5836   3.388   1.744   5.098  2.0931  0.2979  1.6153
   63CHL1  H26B 5837   3.530   1.641   5.045 -0.4834 -0.2682  0.1054
   63CHL1  H26C 5838   3.547   1.813   5.089 -1.5651  1.8008  0.0410
   63CHL1   C27 5839   3.570   1.821   4.822 -0.3056 -0.3025 -0.2350
   63CHL1  H27A 5840   3.551   1.872   4.725  0.2335  0.0155 -0.1794
   63CHL1  H27B 5841   3.623   1.898   4.882 -0.6194 -0.0534 -0.2738
   63CHL1  H27C 5842   3.636   1.733   4.804 -2.0047 -1.4819 -0.9600
   64CHL1    C3 5843   1.079   2.279   3.427  1.0449  0.0864 -0.0855
   64CHL1    H3 5844   1.181   2.306   3.460  0.8939  1.6894 -0.8281
   64CHL1    O3 5845   1.088   2.282   3.283  0.3238  0.3020 -0.6869
   64CHL1   H3' 5846   1.001   2.256   3.253  0.5568  0.4154 -1.4648
   64CHL1    C4 5847   1.036   2.142   3.473 -0.1379  0.6379  0.0927
   64CHL1   H4A 5848   0.934   2.123   3.432 -0.0018  1.2969 -0.5725
   64CHL1   H4B 5849   1.105   2.071   3.424 -1.0564 -0.8507  0.8613
   64CHL1    C5 5850   1.027   2.130   3.625 -0.1962 -0.0669  0.6822
   64CHL1    C6 5851   1.087   2.031   3.694 -0.5601 -0.8034 -0.3209
   64CHL1    H6 5852   1.141   1.950   3.643  1.0585 -0.4773  0.7937
   64CHL1    C7 5853   1.094   2.026   3.842 -0.0861  0.1083  0.1498
   64CHL1   H7A 5854   1.093   1.918   3.867  0.8754 -0.0727 -0.5446
   64CHL1   H7B 5855   1.189   2.071   3.878  0.2900 -1.7200  1.5342
   64CHL1    C8 5856   0.986   2.113   3.919 -0.0639  0.5846  0.3599
   64CHL1    H8 5857   0.880   2.081   3.905  0.3166 -0.8646  0.5828
   64CHL1   C14 5858   1.006   2.129   4.061  0.1376 -0.1128  0.0003
   64CHL1   H14 5859   1.103   2.181   4.073 -0.7127  1.9342 -1.4450
   64CHL1   C15 5860   1.029   1.995   4.135  0.4806 -0.7445  0.4355
   64CHL1  H15A 5861   0.951   1.921   4.105 -0.4531  0.5809 -0.5407
   64CHL1  H15B 5862   1.131   1.953   4.120  0.8897  0.2002  0.5543
   64CHL1   C16 5863   1.002   2.037   4.277 -0.3474  0.5756  0.5154
   64CHL1  H16A 5864   0.917   1.980   4.320  0.5418 -1.7637 -0.6601
   64CHL1  H16B 5865   1.085   2.018   4.348 -1.7179 -0.6500  1.8461
   64CHL1   C17 5866   0.954   2.187   4.280 -0.1785  0.2600 -0.1557
   64CHL1   H17 5867   1.046   2.245   4.298  1.3651 -1.5049 -1.8432
   64CHL1   C13 5868   0.901   2.212   4.138  0.1423  0.4863 -0.4082
   64CHL1   C18 5869   0.753   2.137   4.132 -0.1875 -0.3212  0.2325
   64CHL1  H18A 5870   0.715   2.139   4.028 -0.8586 -0.9530  0.4570
   64CHL1  H18B 5871   0.756   2.031   4.166  0.9281  0.2795  2.1898
   64CHL1  H18C 5872   0.686   2.203   4.192  0.2742 -0.3668  0.8163
   64CHL1   C12 5873   0.903   2.357   4.088 -0.2468 -0.0618 -0.6481
   64CHL1  H12A 5874   0.830   2.426   4.136  3.2761  3.8495 -0.3682
   64CHL1  H12B 5875   1.001   2.404   4.113  0.4434 -2.3861  1.3781
   64CHL1   C11 5876   0.878   2.349   3.934  0.0744  0.1686 -0.0359
   64CHL1  H11A 5877   0.769   2.327   3.930 -0.0428  0.4739  1.1484
   64CHL1  H11B 5878   0.894   2.455   3.902  3.8648  1.1360  4.1464
   64CHL1    C9 5879   0.974   2.253   3.853 -0.0684 -0.3922 -0.4282
   64CHL1    H9 5880   1.079   2.288   3.860 -0.0965  0.3392 -2.8878
   64CHL1   C10 5881   0.950   2.246   3.700  0.2244 -0.3276  0.1582
   64CHL1   C19 5882   0.799   2.224   3.664 -0.1877  0.9199 -0.6293
   64CHL1  H19A 5883   0.739   2.314   3.692 -2.5072 -1.2944  2.1458
   64CHL1  H19B 5884   0.790   2.191   3.558 -1.3838  0.3234 -0.3594
   64CHL1  H19C 5885   0.753   2.148   3.730  0.3667  1.5960  0.5500
   64CHL1    C1 5886   0.990   2.382   3.644 -0.6139 -0.2348  0.0069
   64CHL1   H1A 5887   0.941   2.468   3.694 -0.2768 -0.0270 -0.0170
   64CHL1   H1B 5888   1.099   2.393   3.664 -0.3074 -1.6804 -0.7288
   64CHL1    C2 5889   0.987   2.387   3.492  0.1255  0.0260  0.2083
   64CHL1   H2A 5890   1.009   2.486   3.446 -0.0947  0.1756  0.4253
   64CHL1   H2B 5891   0.883   2.372   3.456  0.1901  0.3082 -0.1114
   64CHL1   C20 5892   0.868   2.219   4.405 -0.0552 -0.5267 -0.0809
   64CHL1   H20 5893   0.775   2.159   4.397 -1.2929  1.5300 -2.4755
   64CHL1   C21 5894   0.836   2.366   4.413  0.8524 -0.1593  0.4223
   64CHL1  H21A 5895   0.924   2.429   4.387  0.6344 -0.6029 -1.5640
   64CHL1  H21B 5896   0.810   2.385   4.519 -1.8477  0.0608 -0.2065
   64CHL1  H21C 5897   0.747   2.393   4.352  1.5360  1.2117 -0.0325
   64CHL1   C22 5898   0.932   2.173   4.537  0.3183 -0.1479 -0.1338
   64CHL1  H22A 5899   0.969   2.069   4.529 -0.1146 -0.2597 -0.6959
   64CHL1  H22B 5900   1.012   2.242   4.572  1.3294 -1.3533 -0.0126
   64CHL1   C23 5901   0.839   2.173   4.665  0.1976 -0.4317 -0.2370
   64CHL1  H23A 5902   0.828   2.280   4.691  0.4326 -0.3804 -0.3519
   64CHL1  H23B 5903   0.748   2.120   4.629  0.5747 -0.4203 -1.2384
   64CHL1   C24 5904   0.916   2.098   4.785 -0.1442  0.2083  1.1323
   64CHL1  H24A 5905   0.912   1.987   4.771 -0.8492  0.0345  2.5694
   64CHL1  H24B 5906   1.021   2.132   4.794  1.0229 -2.9823  1.1757
   64CHL1   C25 5907   0.865   2.128   4.926 -0.0164 -0.4696  0.5930
   64CHL1   H25 5908   0.756   2.110   4.921  0.0414 -0.4660 -2.2282
   64CHL1   C26 5909   0.934   2.045   5.032 -0.0169 -0.0698  0.2475
   64CHL1  H26A 5910   0.879   2.042   5.129  0.3587 -2.2787  0.4482
   64CHL1  H26B 5911   0.943   1.941   4.994 -0.8405 -0.4056  0.9258
   64CHL1  H26C 5912   1.040   2.065   5.058 -0.2706  0.2587  1.0747
   64CHL1   C27 5913   0.887   2.277   4.969 -0.1398 -0.8619  0.0713
   64CHL1  H27A 5914   0.843   2.349   4.896 -2.2447 -0.6283  1.5015
   64CHL1  H27B 5915   0.832   2.296   5.063 -1.9160  0.9414 -1.2489
   64CHL1  H27C 5916   0.996   2.300   4.962 -0.3968  0.9000  1.3578
   65CHL1    C3 5917   1.434   5.739   3.222 -0.3207  0.3785 -0.2641
   65CHL1    H3 5918   1.501   5.824   3.197 -0.4264  0.1347 -1.4162
   65CHL1    O3 5919   1.358   5.707   3.108 -0.2655 -0.2032  0.3785
   65CHL1   H3' 5920   1.310   5.630   3.140  0.3029 -0.9522 -0.5266
   65CHL1    C4 5921   1.514   5.614   3.262  0.0299  0.3335 -0.3121
   65CHL1   H4A 5922   1.460   5.517   3.263 -0.1941  0.4576 -0.5916
   65CHL1   H4B 5923   1.583   5.608   3.175  1.1397 -0.9221  0.6016
   65CHL1    C5 5924   1.601   5.636   3.392  0.1043  0.4216  0.0809
   65CHL1    C6 5925   1.737   5.634   3.396 -0.1343 -0.5827 -0.2744
   65CHL1    H6 5926   1.794   5.606   3.307 -1.2501 -0.8788 -0.9201
   65CHL1    C7 5927   1.818   5.659   3.519  0.3213 -0.2305  1.0038
   65CHL1   H7A 5928   1.904   5.589   3.511 -0.6003 -1.2245 -1.3462
   65CHL1   H7B 5929   1.863   5.760   3.519 -0.0838 -0.0069  3.2407
   65CHL1    C8 5930   1.735   5.646   3.649 -0.6198 -0.1593  0.5105
   65CHL1    H8 5931   1.696   5.542   3.656 -0.6051 -0.2340 -0.3616
   65CHL1   C14 5932   1.819   5.698   3.768 -0.3056 -0.5813  0.0284
   65CHL1   H14 5933   1.842   5.805   3.748  2.3531 -1.3372 -1.3561
   65CHL1   C15 5934   1.948   5.624   3.794  0.2752 -0.2016  0.4054
   65CHL1  H15A 5935   1.936   5.515   3.779 -1.5447  0.0765 -0.5554
   65CHL1  H15B 5936   2.024   5.664   3.723  0.0248  2.8628  1.7211
   65CHL1   C16 5937   1.982   5.664   3.937 -0.0268  0.7179 -0.7418
   65CHL1  H16A 5938   1.992   5.567   3.989  1.8277  0.6871 -1.0945
   65CHL1  H16B 5939   2.082   5.713   3.935 -0.3631  1.3921 -1.9862
   65CHL1   C17 5940   1.858   5.736   3.998 -0.5975  0.0789  1.0641
   65CHL1   H17 5941   1.891   5.841   3.984  1.6045 -0.3443  2.5220
   65CHL1   C13 5942   1.741   5.699   3.900 -0.3956  0.1085 -0.2411
   65CHL1   C18 5943   1.693   5.561   3.935 -0.0569  0.2664 -0.6325
   65CHL1  H18A 5944   1.618   5.530   3.860  0.2059  0.1013 -0.8263
   65CHL1  H18B 5945   1.773   5.485   3.953 -2.4014 -2.2201 -0.0680
   65CHL1  H18C 5946   1.628   5.573   4.025  0.4592  1.8990 -0.4531
   65CHL1   C12 5947   1.624   5.797   3.881  0.2599  0.0902  0.0212
   65CHL1  H12A 5948   1.569   5.801   3.977 -0.2788  0.9501 -0.3183
   65CHL1  H12B 5949   1.660   5.897   3.848  0.9084 -0.5947 -1.4712
   65CHL1   C11 5950   1.526   5.757   3.764  0.0084 -0.0088  0.1161
   65CHL1  H11A 5951   1.471   5.665   3.792  1.2739 -1.1226 -0.9547
   65CHL1  H11B 5952   1.448   5.835   3.748 -1.2098 -0.8603  1.5688
   65CHL1    C9 5953   1.606   5.732   3.630 -0.8439  0.5191  0.3104
   65CHL1    H9 5954   1.643   5.828   3.589  0.0472  0.0005 -0.1306
   65CHL1   C10 5955   1.514   5.678   3.511  0.2497 -0.2499 -0.0620
   65CHL1   C19 5956   1.421   5.565   3.566 -0.6119 -0.5546 -0.3182
   65CHL1  H19A 5957   1.328   5.604   3.613 -0.0796  0.7808 -0.3310
   65CHL1  H19B 5958   1.401   5.491   3.485  1.6046 -0.5589 -0.9226
   65CHL1  H19C 5959   1.483   5.516   3.644  0.1533 -1.7163 -1.5940
   65CHL1    C1 5960   1.431   5.797   3.461 -0.5791 -0.2520  0.1074
   65CHL1   H1A 5961   1.367   5.835   3.543 -0.5769 -0.4851  0.2204
   65CHL1   H1B 5962   1.502   5.878   3.438 -2.1630  1.2337  0.2756
   65CHL1    C2 5963   1.342   5.768   3.343 -0.6336 -0.4864  0.3404
   65CHL1   H2A 5964   1.285   5.862   3.327  0.4248  0.1250 -0.0053
   65CHL1   H2B 5965   1.277   5.681   3.363  0.9051 -2.0968 -1.3215
   65CHL1   C20 5966   1.841   5.726   4.151 -0.0365 -0.0879 -0.3589
   65CHL1   H20 5967   1.785   5.632   4.174  0.4617 -0.3599 -0.2405
   65CHL1   C21 5968   1.763   5.847   4.205  0.0165 -0.1499 -0.0800
   65CHL1  H21A 5969   1.837   5.929   4.200 -0.2101  0.0776  0.3002
   65CHL1  H21B 5970   1.749   5.843   4.315  2.5423 -1.8244  0.2549
   65CHL1  H21C 5971   1.670   5.869   4.148  0.3550  1.6729  0.0264
   65CHL1   C22 5972   1.983   5.716   4.220  0.4701 -0.4465  0.3253
   65CHL1  H22A 5973   2.041   5.626   4.190  1.2254 -0.3860  1.5296
   65CHL1  H22B 5974   2.039   5.807   4.188  1.2390 -1.3770 -1.0981
   65CHL1   C23 5975   1.987   5.711   4.372 -0.7999 -0.2794 -0.2164
   65CHL1  H23A 5976   2.091   5.728   4.405 -0.3527 -0.5891 -1.4340
   65CHL1  H23B 5977   1.918   5.788   4.413  0.2252  0.5065  0.0555
   65CHL1   C24 5978   1.930   5.574   4.424 -0.5852 -0.4719  1.2782
   65CHL1  H24A 5979   1.834   5.545   4.377 -1.2841 -0.4077  2.5942
   65CHL1  H24B 5980   2.001   5.491   4.404 -0.5329 -0.1205 -0.0550
   65CHL1   C25 5981   1.898   5.562   4.577  0.5605  0.2011  0.2442
   65CHL1   H25 5982   1.837   5.649   4.608  1.6547  0.9967  0.2422
   65CHL1   C26 5983   1.821   5.428   4.608 -0.5410 -0.3866  0.1206
   65CHL1  H26A 5984   1.718   5.453   4.574  0.2027  1.9888 -0.6121
   65CHL1  H26B 5985   1.846   5.334   4.555 -2.3126 -0.1882 -1.1511
   65CHL1  H26C 5986   1.812   5.403   4.716 -2.8018 -0.4844 -0.0470
   65CHL1   C27 5987   2.014   5.565   4.664 -0.2276  0.2257 -0.1614
   65CHL1  H27A 5988   2.074   5.657   4.647 -0.9720  0.9639  1.1067
   65CHL1  H27B 5989   1.967   5.568   4.765 -1.8229 -0.4680 -0.8535
   65CHL1  H27C 5990   2.082   5.476   4.659 -0.2052  0.0067  2.5054
   66CHL1    C3 5991   4.267   3.520   3.281  1.1890  0.1167 -0.8020
   66CHL1    H3 5992   4.378   3.524   3.283  1.1684  1.0804  1.0529
   66CHL1    O3 5993   4.216   3.597   3.170  0.0408  0.2411  0.0882
   66CHL1   H3' 5994   4.125   3.567   3.166  0.3327 -0.7911  0.7462
   66CHL1    C4 5995   4.215   3.375   3.269 -0.2966 -0.2007 -0.3188
   66CHL1   H4A 5996   4.104   3.378   3.263 -0.7254 -0.2225  4.1587
   66CHL1   H4B 5997   4.259   3.336   3.175 -1.2153 -0.2254 -0.7484
   66CHL1    C5 5998   4.254   3.288   3.385 -0.0254 -0.1651  0.2568
   66CHL1    C6 5999   4.326   3.185   3.370 -0.1961  0.1204  0.4410
   66CHL1    H6 6000   4.350   3.154   3.267 -2.6860  2.2272 -0.8865
   66CHL1    C7 6001   4.390   3.096   3.482  0.0782 -0.4785  0.1832
   66CHL1   H7A 6002   4.373   2.988   3.461 -0.1108 -0.2172 -1.0565
   66CHL1   H7B 6003   4.501   3.102   3.483  0.1260  2.7712 -3.0183
   66CHL1    C8 6004   4.333   3.142   3.627  0.2333  0.7097 -0.1343
   66CHL1    H8 6005   4.239   3.084   3.641  1.6133 -1.7641 -0.5227
   66CHL1   C14 6006   4.429   3.093   3.727  0.0600 -0.3208  0.3175
   66CHL1   H14 6007   4.525   3.149   3.718 -0.4809  1.3845  3.5899
   66CHL1   C15 6008   4.472   2.943   3.725  1.0880 -0.4371 -0.1129
   66CHL1  H15A 6009   4.382   2.880   3.716  1.6278 -0.9238 -3.6185
   66CHL1  H15B 6010   4.533   2.925   3.634 -0.7579  2.3568 -2.0483
   66CHL1   C16 6011   4.539   2.933   3.861 -0.1935 -0.4196 -0.8378
   66CHL1  H16A 6012   4.499   2.842   3.911  0.2508 -0.3202 -0.2989
   66CHL1  H16B 6013   4.649   2.944   3.856 -0.2475  1.5501  0.8595
   66CHL1   C17 6014   4.490   3.053   3.954 -0.0319 -0.4302 -0.0539
   66CHL1   H17 6015   4.571   3.129   3.945  0.0385 -0.4893  0.0969
   66CHL1   C13 6016   4.372   3.115   3.870 -0.0208  0.4077  0.3688
   66CHL1   C18 6017   4.256   3.020   3.896 -0.2773  0.0088 -0.3924
   66CHL1  H18A 6018   4.205   3.041   3.993 -1.3354 -2.6646 -0.2750
   66CHL1  H18B 6019   4.176   3.022   3.819 -0.3722  1.1459 -0.2780
   66CHL1  H18C 6020   4.279   2.912   3.911 -0.3802  0.2186  1.6053
   66CHL1   C12 6021   4.347   3.262   3.894  0.4559  0.7757  0.8161
   66CHL1  H12A 6022   4.305   3.286   3.995 -1.8918  0.4277 -0.0253
   66CHL1  H12B 6023   4.451   3.301   3.882  0.7017 -0.3972 -1.1975
   66CHL1   C11 6024   4.258   3.324   3.780  0.2281  0.4624  0.2751
   66CHL1  H11A 6025   4.161   3.270   3.776  0.9942 -0.9644 -3.4306
   66CHL1  H11B 6026   4.244   3.431   3.807  0.6945 -0.0984  3.0061
   66CHL1    C9 6027   4.313   3.293   3.636  0.0759  0.0873  0.0511
   66CHL1    H9 6028   4.414   3.339   3.638  0.0742  0.0825  1.9281
   66CHL1   C10 6029   4.227   3.359   3.524  0.2727 -0.0713 -0.3665
   66CHL1   C19 6030   4.066   3.349   3.545  0.5104 -1.2586 -0.1296
   66CHL1  H19A 6031   4.037   3.241   3.547 -1.4234 -0.7732  0.9554
   66CHL1  H19B 6032   4.035   3.398   3.639 -1.1150  0.1952 -1.3572
   66CHL1  H19C 6033   4.011   3.389   3.457  2.7245 -0.4220 -1.2148
   66CHL1    C1 6034   4.260   3.508   3.527 -0.1579  0.0118 -0.0542
   66CHL1   H1A 6035   4.210   3.557   3.613 -2.9669 -1.5226 -0.7001
   66CHL1   H1B 6036   4.370   3.522   3.527 -0.1820  0.2347  0.5594
   66CHL1    C2 6037   4.205   3.586   3.404  1.1253  0.5439  0.6866
   66CHL1   H2A 6038   4.242   3.691   3.406 -0.2708  1.0461  0.8915
   66CHL1   H2B 6039   4.094   3.590   3.394  0.8666 -1.5168  2.2121
   66CHL1   C20 6040   4.470   3.015   4.102  0.5793  0.0628  0.3032
   66CHL1   H20 6041   4.380   2.950   4.107 -0.2101  1.1406  0.3077
   66CHL1   C21 6042   4.444   3.142   4.175  0.0379 -0.5405 -0.6338
   66CHL1  H21A 6043   4.523   3.220   4.177  0.9194 -1.3595 -2.0103
   66CHL1  H21B 6044   4.418   3.116   4.280 -1.4474  1.3744 -0.4645
   66CHL1  H21C 6045   4.352   3.199   4.149  0.8946  1.3245  0.1570
   66CHL1   C22 6046   4.583   2.932   4.167  0.6984 -0.4899  0.0314
   66CHL1  H22A 6047   4.585   2.827   4.128 -0.7467 -1.7160  2.9767
   66CHL1  H22B 6048   4.672   2.997   4.152 -0.8687  1.3430 -1.8149
   66CHL1   C23 6049   4.567   2.892   4.312 -0.0647 -0.0414 -0.3863
   66CHL1  H23A 6050   4.572   2.991   4.363 -1.2395  0.4721 -1.2231
   66CHL1  H23B 6051   4.465   2.850   4.318  0.3551 -0.8641  2.1326
   66CHL1   C24 6052   4.671   2.786   4.365 -0.4735  0.4969 -0.3648
   66CHL1  H24A 6053   4.648   2.694   4.307 -0.7092 -0.4592  1.1809
   66CHL1  H24B 6054   4.770   2.826   4.334 -0.0357  0.5991  1.0858
   66CHL1   C25 6055   4.663   2.761   4.512 -0.1889  0.0313  0.3256
   66CHL1   H25 6056   4.560   2.729   4.538 -0.5494  0.6309 -0.3223
   66CHL1   C26 6057   4.756   2.643   4.539 -0.1738 -0.1845  0.1433
   66CHL1  H26A 6058   4.717   2.553   4.485  4.4602 -1.0625 -2.2160
   66CHL1  H26B 6059   4.854   2.654   4.489 -0.4550 -1.8605 -0.8733
   66CHL1  H26C 6060   4.769   2.624   4.648  2.6748  0.8417  0.0476
   66CHL1   C27 6061   4.704   2.878   4.596  0.2145 -0.3887  0.2825
   66CHL1  H27A 6062   4.729   2.845   4.699  4.4465 -0.6322 -0.6038
   66CHL1  H27B 6063   4.622   2.952   4.588 -0.0194 -0.4570  1.7863
   66CHL1  H27C 6064   4.792   2.929   4.551  0.2215 -0.5483  0.1149
   67CHL1    C3 6065   4.243   4.268   3.380 -0.5032 -0.2266  0.0556
   67CHL1    H3 6066   4.347   4.307   3.381 -1.3343  2.2605 -1.4070
   67CHL1    O3 6067   4.235   4.234   3.243  0.4382 -0.1454  0.4930
   67CHL1   H3' 6068   4.142   4.240   3.220  0.5981  0.8075  0.0310
   67CHL1    C4 6069   4.244   4.140   3.463 -0.0615  0.2679 -0.8258
   67CHL1   H4A 6070   4.157   4.078   3.432  0.5346 -1.7025  1.1286
   67CHL1   H4B 6071   4.341   4.092   3.442  0.0169 -0.0126  0.1256
   67CHL1    C5 6072   4.234   4.161   3.614 -0.0505 -0.3933 -0.1602
   67CHL1    C6 6073   4.324   4.116   3.700  0.6067  0.2618 -0.3444
   67CHL1    H6 6074   4.410   4.063   3.657  1.0604  1.7846 -1.3834
   67CHL1    C7 6075   4.329   4.144   3.847  0.0452 -0.1556  0.0798
   67CHL1   H7A 6076   4.368   4.056   3.903  0.5554  1.6736  2.8161
   67CHL1   H7B 6077   4.395   4.232   3.860 -0.3159  0.3346 -1.2921
   67CHL1    C8 6078   4.189   4.177   3.901  0.2702  0.3474  0.0450
   67CHL1    H8 6079   4.117   4.093   3.899 -0.2962  0.8431 -0.8430
   67CHL1   C14 6080   4.201   4.218   4.047  0.5842  0.4048  0.5648
   67CHL1   H14 6081   4.253   4.316   4.040  0.6805  0.3942  1.0841
   67CHL1   C15 6082   4.276   4.136   4.145 -0.1299  0.0424 -0.6814
   67CHL1  H15A 6083   4.243   4.030   4.135 -0.2079  0.2264 -2.9399
   67CHL1  H15B 6084   4.386   4.125   4.133 -0.1234  0.6250 -1.2275
   67CHL1   C16 6085   4.235   4.191   4.278 -0.5635  0.1934  0.4556
   67CHL1  H16A 6086   4.218   4.095   4.331  0.3345 -0.4287 -0.3532
   67CHL1  H16B 6087   4.305   4.261   4.330 -2.4515  2.2816  0.3440
   67CHL1   C17 6088   4.116   4.284   4.249 -0.2127  0.7624  0.1791
   67CHL1   H17 6089   4.163   4.382   4.225  1.1861 -0.3789 -2.0311
   67CHL1   C13 6090   4.068   4.253   4.105  0.1238  0.3667 -0.4225
   67CHL1   C18 6091   3.952   4.141   4.120  0.2546 -0.6719  0.3162
   67CHL1  H18A 6092   3.999   4.054   4.171 -1.2661 -0.8054  1.5625
   67CHL1  H18B 6093   3.869   4.186   4.178 -0.6340 -0.7629 -0.8492
   67CHL1  H18C 6094   3.915   4.116   4.019 -1.5558  0.0089  0.7712
   67CHL1   C12 6095   4.011   4.374   4.037  0.3540 -0.0951 -0.1175
   67CHL1  H12A 6096   3.915   4.411   4.077  0.1274  0.2296 -0.9525
   67CHL1  H12B 6097   4.081   4.458   4.058  0.6537 -0.3607 -0.0407
   67CHL1   C11 6098   4.004   4.345   3.888 -0.6290  0.1017  0.2608
   67CHL1  H11A 6099   3.922   4.272   3.874 -0.8252  0.1545  1.0544
   67CHL1  H11B 6100   3.971   4.442   3.845 -0.2056 -0.1457 -0.6268
   67CHL1    C9 6101   4.137   4.290   3.817  0.3571  0.3830 -1.2074
   67CHL1    H9 6102   4.215   4.369   3.814  0.4479  0.2684 -1.9167
   67CHL1   C10 6103   4.121   4.255   3.664  0.2777 -0.0778 -0.3917
   67CHL1   C19 6104   3.995   4.159   3.639  0.1993  0.0721  0.0359
   67CHL1  H19A 6105   4.004   4.079   3.716  1.5589  1.0568  0.9610
   67CHL1  H19B 6106   3.905   4.216   3.671  0.5259 -0.1086  1.3711
   67CHL1  H19C 6107   3.986   4.113   3.539 -0.0824 -1.9415  0.9447
   67CHL1    C1 6108   4.122   4.386   3.583 -0.0241  0.3187  0.5604
   67CHL1   H1A 6109   4.025   4.438   3.598 -1.4712 -2.8398  3.6113
   67CHL1   H1B 6110   4.210   4.446   3.616 -1.2017  1.7325  1.2273
   67CHL1    C2 6111   4.132   4.359   3.428  0.1749 -0.6449  0.2935
   67CHL1   H2A 6112   4.138   4.447   3.360 -1.4793  0.0711  1.0091
   67CHL1   H2B 6113   4.034   4.314   3.401  0.8291 -1.8495 -0.1681
   67CHL1   C20 6114   4.032   4.307   4.370 -0.3202 -0.1034 -0.5178
   67CHL1   H20 6115   3.995   4.205   4.393  1.3649 -0.5732  0.2096
   67CHL1   C21 6116   3.917   4.406   4.338 -0.8091 -0.4318  0.2792
   67CHL1  H21A 6117   3.886   4.437   4.440 -1.1869 -1.3161  0.4443
   67CHL1  H21B 6118   3.830   4.363   4.284 -0.5834 -1.2119  0.5193
   67CHL1  H21C 6119   3.969   4.494   4.295 -1.0649 -1.8876 -3.4054
   67CHL1   C22 6120   4.107   4.357   4.497 -0.3623 -0.2077  0.0662
   67CHL1  H22A 6121   4.043   4.380   4.585  0.9453  2.6961  0.3649
   67CHL1  H22B 6122   4.177   4.286   4.546  0.6110 -0.2363 -1.3113
   67CHL1   C23 6123   4.173   4.494   4.476  0.6803  0.2615  0.0696
   67CHL1  H23A 6124   4.237   4.489   4.385 -1.1346 -1.8219 -1.1789
   67CHL1  H23B 6125   4.095   4.573   4.468 -0.8231 -0.9108  2.1993
   67CHL1   C24 6126   4.253   4.524   4.598 -0.2249 -0.2154 -0.2097
   67CHL1  H24A 6127   4.330   4.446   4.619  0.4321  0.8450  1.5820
   67CHL1  H24B 6128   4.305   4.621   4.588  1.8170 -1.0209  1.5434
   67CHL1   C25 6129   4.183   4.541   4.733 -0.0915 -0.2890 -0.0161
   67CHL1   H25 6130   4.132   4.444   4.748 -2.6850  0.8534 -0.8607
   67CHL1   C26 6131   4.283   4.546   4.848 -1.0334 -0.0430 -0.2921
   67CHL1  H26A 6132   4.313   4.443   4.877 -0.8244  0.3206  0.8526
   67CHL1  H26B 6133   4.371   4.608   4.819 -0.5395 -0.7159 -0.2549
   67CHL1  H26C 6134   4.239   4.576   4.946 -1.2406 -0.7188 -0.1756
   67CHL1   C27 6135   4.086   4.656   4.741  0.7041 -0.0338 -0.0781
   67CHL1  H27A 6136   4.007   4.632   4.667  0.5933  0.3181 -0.0801
   67CHL1  H27B 6137   4.042   4.668   4.843 -0.1891  1.8180 -0.6202
   67CHL1  H27C 6138   4.120   4.756   4.706  0.4671  0.0647 -0.0339
   68CHL1    C3 6139   5.581   3.364   3.310 -0.1602  0.1157  0.1327
   68CHL1    H3 6140   5.504   3.441   3.331  0.3736  0.4042  1.1308
   68CHL1    O3 6141   5.654   3.378   3.188  0.3625 -0.1838 -0.4235
   68CHL1   H3' 6142   5.621   3.320   3.119 -1.0101 -0.5979  0.5324
   68CHL1    C4 6143   5.687   3.358   3.415  0.3645  0.7822 -0.5860
   68CHL1   H4A 6144   5.767   3.283   3.396  0.4751  0.3926  1.2571
   68CHL1   H4B 6145   5.736   3.458   3.417 -1.1887  1.5676 -0.3060
   68CHL1    C5 6146   5.629   3.316   3.550  0.5944  0.3120  0.3706
   68CHL1    C6 6147   5.651   3.398   3.650  0.3719  0.1770  0.0703
   68CHL1    H6 6148   5.708   3.491   3.637 -0.2974  0.5867  0.0077
   68CHL1    C7 6149   5.596   3.372   3.791 -0.2764 -1.0420 -0.4146
   68CHL1   H7A 6150   5.673   3.394   3.867 -1.1303 -0.0820  0.2019
   68CHL1   H7B 6151   5.509   3.441   3.796  0.9579  0.4817  1.0201
   68CHL1    C8 6152   5.545   3.226   3.807  0.2349 -0.2741  0.1837
   68CHL1    H8 6153   5.634   3.159   3.803 -1.3998 -2.4947 -0.9055
   68CHL1   C14 6154   5.465   3.210   3.942  0.2712  0.2353 -0.0462
   68CHL1   H14 6155   5.379   3.279   3.927 -1.6198 -1.6207  1.5861
   68CHL1   C15 6156   5.530   3.263   4.072  0.4317 -0.3623 -0.0547
   68CHL1  H15A 6157   5.626   3.208   4.086 -0.5399 -1.7868  1.3894
   68CHL1  H15B 6158   5.545   3.373   4.072  0.8468 -0.4098 -1.0383
   68CHL1   C16 6159   5.428   3.214   4.176  0.4178 -0.0547 -0.2416
   68CHL1  H16A 6160   5.486   3.160   4.255  0.6221 -0.7070 -0.8260
   68CHL1  H16B 6161   5.373   3.300   4.220 -1.0370 -0.3797 -1.3663
   68CHL1   C17 6162   5.327   3.119   4.103 -0.6672  0.0621  0.7205
   68CHL1   H17 6163   5.237   3.179   4.078 -0.4378  1.0557  2.1458
   68CHL1   C13 6164   5.390   3.082   3.965 -0.3232  0.6232 -0.1971
   68CHL1   C18 6165   5.494   2.965   3.984  0.0612 -0.4555  0.3458
   68CHL1  H18A 6166   5.575   2.971   3.908  1.4932  1.6027  1.9212
   68CHL1  H18B 6167   5.547   2.975   4.081 -0.1680 -0.3369  0.4590
   68CHL1  H18C 6168   5.445   2.866   3.994 -2.4909  0.8773  2.0057
   68CHL1   C12 6169   5.295   3.065   3.847  0.0758  0.4480  0.1881
   68CHL1  H12A 6170   5.234   2.972   3.848  1.0391 -0.2066 -0.4515
   68CHL1  H12B 6171   5.227   3.152   3.857 -0.6331 -0.1249  0.4536
   68CHL1   C11 6172   5.370   3.062   3.707  0.7656 -0.1068  0.2544
   68CHL1  H11A 6173   5.423   2.966   3.722  1.3100  0.4209  1.8851
   68CHL1  H11B 6174   5.285   3.052   3.635  0.9909  0.5796 -0.1208
   68CHL1    C9 6175   5.456   3.193   3.687 -0.2964 -0.4164 -0.1102
   68CHL1    H9 6176   5.378   3.273   3.684  0.8852  0.7419 -1.7827
   68CHL1   C10 6177   5.535   3.197   3.556  0.4622  0.9757  0.5242
   68CHL1   C19 6178   5.632   3.065   3.549 -0.0147 -0.5019  0.1517
   68CHL1  H19A 6179   5.566   2.977   3.535 -1.0397  0.0190  1.3890
   68CHL1  H19B 6180   5.684   3.061   3.451  3.2590  0.9872  1.6677
   68CHL1  H19C 6181   5.704   3.057   3.634  0.4524 -3.5354 -0.4157
   68CHL1    C1 6182   5.437   3.188   3.437  0.2401 -0.0012 -0.4202
   68CHL1   H1A 6183   5.394   3.086   3.439 -0.5290  0.3040  2.0532
   68CHL1   H1B 6184   5.354   3.261   3.452 -1.4389 -2.0125  0.5997
   68CHL1    C2 6185   5.508   3.222   3.305 -0.4530 -0.4216  0.3375
   68CHL1   H2A 6186   5.437   3.228   3.220  1.0147 -0.3735 -0.9141
   68CHL1   H2B 6187   5.582   3.141   3.291 -0.3496 -0.0233 -1.7019
   68CHL1   C20 6188   5.270   3.007   4.198  0.0376  0.3418  0.6389
   68CHL1   H20 6189   5.352   2.935   4.221  0.6978 -0.0339 -2.3659
   68CHL1   C21 6190   5.163   2.937   4.109  0.2446  0.6734 -0.1446
   68CHL1  H21A 6191   5.098   2.868   4.167  0.7588  1.4581  1.4315
   68CHL1  H21B 6192   5.215   2.862   4.046  0.4521  0.0003  0.8178
   68CHL1  H21C 6193   5.099   3.006   4.050  0.2025  1.7766  1.1374
   68CHL1   C22 6194   5.198   3.061   4.321 -0.4696  0.2439 -0.5060
   68CHL1  H22A 6195   5.271   3.113   4.387  2.5695 -2.9040 -1.1030
   68CHL1  H22B 6196   5.129   3.140   4.285 -1.6167 -0.8174 -0.6809
   68CHL1   C23 6197   5.130   2.960   4.420 -0.2958  0.1765  0.6025
   68CHL1  H23A 6198   5.082   3.015   4.504  0.5041  0.5100  0.8453
   68CHL1  H23B 6199   5.049   2.905   4.368 -0.4052 -1.6540  2.5598
   68CHL1   C24 6200   5.231   2.871   4.495  0.1398  0.5054  0.0237
   68CHL1  H24A 6201   5.280   2.818   4.410  1.8944 -2.2186  2.5556
   68CHL1  H24B 6202   5.316   2.923   4.544 -0.2954 -0.2534  1.6346
   68CHL1   C25 6203   5.174   2.753   4.571 -0.4805 -0.7307  0.2245
   68CHL1   H25 6204   5.105   2.693   4.507 -1.0963 -1.0688  1.1861
   68CHL1   C26 6205   5.284   2.656   4.625  0.2515 -0.3490  0.2284
   68CHL1  H26A 6206   5.240   2.576   4.688 -0.3166 -2.9793 -3.2213
   68CHL1  H26B 6207   5.329   2.606   4.537 -1.1174 -0.6817 -0.3167
   68CHL1  H26C 6208   5.366   2.714   4.673  1.3879 -1.9182  0.2636
   68CHL1   C27 6209   5.088   2.810   4.690 -0.2509 -0.3913  0.4659
   68CHL1  H27A 6210   5.020   2.891   4.656 -2.7047 -1.9440  1.4600
   68CHL1  H27B 6211   5.022   2.729   4.727  1.1952 -2.1782 -0.7049
   68CHL1  H27C 6212   5.156   2.843   4.772 -1.9897  0.7868  1.4925
   69CHL1    C3 6213   4.512   0.680   3.391 -0.7260 -0.4924  0.4848
   69CHL1    H3 6214   4.452   0.774   3.398 -1.5775 -0.9882 -0.0242
   69CHL1    O3 6215   4.570   0.659   3.262  0.2644 -0.3307  0.3866
   69CHL1   H3' 6216   4.495   0.682   3.207 -0.7393 -0.9039  1.4697
   69CHL1    C4 6217   4.629   0.675   3.486  0.2941  0.1716 -0.0184
   69CHL1   H4A 6218   4.680   0.576   3.484 -0.1174 -0.0749  1.1245
   69CHL1   H4B 6219   4.707   0.742   3.445  2.0934 -2.3880 -1.0401
   69CHL1    C5 6220   4.583   0.699   3.630 -0.0487  0.5695  1.4219
   69CHL1    C6 6221   4.626   0.807   3.694  0.2842 -0.0464  0.8185
   69CHL1    H6 6222   4.691   0.880   3.646 -3.1703  3.2508  0.6692
   69CHL1    C7 6223   4.582   0.844   3.830  0.8367  0.0948 -0.0433
   69CHL1   H7A 6224   4.664   0.877   3.897  0.1013  0.0900  0.8936
   69CHL1   H7B 6225   4.510   0.929   3.829  0.3354 -0.2376 -3.3157
   69CHL1    C8 6226   4.506   0.726   3.902  0.5528  0.2087 -0.0874
   69CHL1    H8 6227   4.586   0.652   3.924 -0.7340 -1.4632 -0.7884
   69CHL1   C14 6228   4.439   0.766   4.026  0.3014 -0.1604 -0.1508
   69CHL1   H14 6229   4.353   0.831   3.999 -0.2810 -0.1988  1.4926
   69CHL1   C15 6230   4.528   0.844   4.129 -0.0788  0.5001  0.0084
   69CHL1  H15A 6231   4.626   0.793   4.147  0.0416 -0.5504 -3.0688
   69CHL1  H15B 6232   4.543   0.953   4.112  1.4653  0.5756  1.5102
   69CHL1   C16 6233   4.442   0.832   4.261 -0.5092  0.1712 -0.4957
   69CHL1  H16A 6234   4.499   0.773   4.335  0.2013 -0.9198 -1.8696
   69CHL1  H16B 6235   4.414   0.931   4.301  0.1197 -0.0157  0.4253
   69CHL1   C17 6236   4.316   0.746   4.227  0.6541 -0.4231 -0.9590
   69CHL1   H17 6237   4.239   0.816   4.188  2.0145  1.7028 -0.0569
   69CHL1   C13 6238   4.357   0.657   4.104  0.0580  0.1351  0.0656
   69CHL1   C18 6239   4.450   0.545   4.152 -0.7809  0.1553 -0.1432
   69CHL1  H18A 6240   4.512   0.498   4.073  1.4263 -1.7786  2.5257
   69CHL1  H18B 6241   4.522   0.587   4.226 -0.1799  1.9316 -1.6639
   69CHL1  H18C 6242   4.394   0.461   4.199  1.0246 -1.9599 -1.5790
   69CHL1   C12 6243   4.248   0.612   4.004  0.0826  0.9652 -0.2190
   69CHL1  H12A 6244   4.183   0.538   4.056  0.9077  0.8300  0.6542
   69CHL1  H12B 6245   4.176   0.694   3.982 -2.6408 -1.2617 -0.1258
   69CHL1   C11 6246   4.312   0.545   3.881 -0.0295 -0.3439  0.6092
   69CHL1  H11A 6247   4.370   0.452   3.902 -0.2400 -1.7317 -3.9097
   69CHL1  H11B 6248   4.229   0.514   3.814  0.3319  2.7115 -1.3867
   69CHL1    C9 6249   4.405   0.653   3.809 -0.1376  0.3576  0.4300
   69CHL1    H9 6250   4.331   0.733   3.788  0.6687  1.6142  2.1185
   69CHL1   C10 6251   4.466   0.607   3.672 -0.3197 -0.3589 -0.5943
   69CHL1   C19 6252   4.537   0.471   3.699 -0.2057  0.4079  0.1962
   69CHL1  H19A 6253   4.474   0.381   3.714  1.9126 -0.7165  3.5158
   69CHL1  H19B 6254   4.599   0.432   3.615 -1.7201  0.5673 -1.0565
   69CHL1  H19C 6255   4.604   0.470   3.788 -2.5077 -0.3231  2.0233
   69CHL1    C1 6256   4.358   0.585   3.562  0.2612 -0.1489 -0.2163
   69CHL1   H1A 6257   4.310   0.488   3.589 -1.0302  1.0437  2.0762
   69CHL1   H1B 6258   4.277   0.661   3.565 -2.6863 -3.0587 -0.3908
   69CHL1    C2 6259   4.411   0.570   3.418 -0.3187  0.7955 -0.5753
   69CHL1   H2A 6260   4.327   0.588   3.347 -0.9325  0.8262  0.1328
   69CHL1   H2B 6261   4.460   0.471   3.404 -1.2626  0.1123  0.6788
   69CHL1   C20 6262   4.251   0.686   4.356 -0.7834  0.2807  0.4455
   69CHL1   H20 6263   4.318   0.618   4.414 -0.1413 -0.6186 -1.2750
   69CHL1   C21 6264   4.140   0.584   4.316  0.3826 -0.1419  0.3224
   69CHL1  H21A 6265   4.175   0.493   4.265 -0.6432 -0.1071 -0.4776
   69CHL1  H21B 6266   4.075   0.645   4.249  1.6726  0.4222 -0.4384
   69CHL1  H21C 6267   4.074   0.565   4.403  2.0355 -0.4367  1.5496
   69CHL1   C22 6268   4.198   0.778   4.464  0.5240 -0.2739 -0.1410
   69CHL1  H22A 6269   4.278   0.848   4.494  1.1861 -0.7341 -0.7810
   69CHL1  H22B 6270   4.115   0.838   4.422  2.9189  2.2695 -1.5508
   69CHL1   C23 6271   4.180   0.715   4.601 -0.3980 -0.0164  0.7871
   69CHL1  H23A 6272   4.104   0.634   4.597 -1.0588  0.5835  0.9178
   69CHL1  H23B 6273   4.275   0.663   4.625  1.4414  3.2440  1.1071
   69CHL1   C24 6274   4.156   0.804   4.725  0.0483 -0.4498 -0.6540
   69CHL1  H24A 6275   4.204   0.904   4.718 -2.7688  0.9554 -1.6293
   69CHL1  H24B 6276   4.048   0.820   4.746  0.6993  0.5534  2.4517
   69CHL1   C25 6277   4.208   0.742   4.857 -0.4883 -0.5157  0.3480
   69CHL1   H25 6278   4.317   0.724   4.845  0.3941  3.2366  1.4646
   69CHL1   C26 6279   4.205   0.842   4.976 -0.1740  0.0784 -0.0839
   69CHL1  H26A 6280   4.119   0.912   4.966  0.1087  0.3400 -0.6669
   69CHL1  H26B 6281   4.220   0.800   5.078  2.6432  1.1861  0.0408
   69CHL1  H26C 6282   4.300   0.899   4.968 -0.1308 -0.0051 -0.1639
   69CHL1   C27 6283   4.138   0.604   4.883  0.0731 -0.2791  0.0970
   69CHL1  H27A 6284   4.195   0.533   4.820 -0.9188 -0.4042 -0.6891
   69CHL1  H27B 6285   4.144   0.576   4.991  0.4829 -0.4523  0.0310
   69CHL1  H27C 6286   4.029   0.618   4.869  0.2330  0.9351  0.0273
   70CHL1    C3 6287   1.590   6.286   3.012 -0.4169 -0.5622  0.6107
   70CHL1    H3 6288   1.548   6.387   3.032 -1.9047 -1.2484  1.1360
   70CHL1    O3 6289   1.581   6.263   2.877  0.5380 -0.2065 -0.6752
   70CHL1   H3' 6290   1.628   6.331   2.830 -1.7907  1.7503 -0.3710
   70CHL1    C4 6291   1.735   6.275   3.054 -0.1532  0.5057  0.1082
   70CHL1   H4A 6292   1.770   6.173   3.028  1.1664  1.4474 -2.0773
   70CHL1   H4B 6293   1.799   6.347   2.999  0.3820 -0.1686 -0.1610
   70CHL1    C5 6294   1.757   6.290   3.202 -0.4110 -0.1344  0.0131
   70CHL1    C6 6295   1.839   6.388   3.248  0.6586  0.8846 -0.1219
   70CHL1    H6 6296   1.893   6.454   3.179  1.2324  0.7458  0.1904
   70CHL1    C7 6297   1.869   6.410   3.396 -0.0911  0.4047 -0.0866
   70CHL1   H7A 6298   1.978   6.413   3.418  0.2934 -0.6228 -1.7002
   70CHL1   H7B 6299   1.817   6.505   3.419 -1.0600 -0.0318 -0.4150
   70CHL1    C8 6300   1.804   6.298   3.488 -0.1735 -0.4080  0.1372
   70CHL1    H8 6301   1.868   6.208   3.472  0.7815 -0.2282  2.5004
   70CHL1   C14 6302   1.798   6.336   3.634 -0.4078 -1.2461 -0.0312
   70CHL1   H14 6303   1.734   6.427   3.636 -1.7534 -2.0560 -2.3551
   70CHL1   C15 6304   1.930   6.368   3.703  0.7040  0.1969 -0.4919
   70CHL1  H15A 6305   2.015   6.302   3.677 -0.3787 -0.7728 -1.7520
   70CHL1  H15B 6306   1.953   6.474   3.681 -0.7892  1.0626  1.7781
   70CHL1   C16 6307   1.894   6.362   3.854 -0.4715  0.5591  1.1601
   70CHL1  H16A 6308   1.966   6.299   3.909 -0.3734 -0.3773  0.0011
   70CHL1  H16B 6309   1.891   6.468   3.887  0.7484  1.3465 -1.0026
   70CHL1   C17 6310   1.756   6.297   3.863 -0.5092  0.3347 -0.6982
   70CHL1   H17 6311   1.684   6.382   3.864 -0.7512  0.1768  1.8007
   70CHL1   C13 6312   1.734   6.229   3.720 -0.4435 -0.4198 -0.1329
   70CHL1   C18 6313   1.815   6.096   3.714  0.6041  0.0767  0.5782
   70CHL1  H18A 6314   1.802   6.046   3.616 -1.1355  1.4848  0.0374
   70CHL1  H18B 6315   1.925   6.101   3.733  0.5529 -2.0310  1.7875
   70CHL1  H18C 6316   1.779   6.031   3.797 -2.8657  1.8480  0.6367
   70CHL1   C12 6317   1.589   6.206   3.675  0.3491  0.3580 -0.2154
   70CHL1  H12A 6318   1.546   6.118   3.727 -1.5053  1.0871 -0.4445
   70CHL1  H12B 6319   1.521   6.288   3.705 -0.0359 -0.1596  0.3534
   70CHL1   C11 6320   1.591   6.161   3.528 -0.2002  0.2793  0.4235
   70CHL1  H11A 6321   1.637   6.061   3.532  0.0938  0.3834 -0.2239
   70CHL1  H11B 6322   1.485   6.142   3.498  0.3454 -2.3377 -0.0263
   70CHL1    C9 6323   1.669   6.255   3.432  0.1858  0.0709  0.1107
   70CHL1    H9 6324   1.609   6.348   3.429 -1.6216 -1.0085  0.7198
   70CHL1   C10 6325   1.672   6.205   3.288  0.2579  0.5411 -0.1998
   70CHL1   C19 6326   1.739   6.062   3.283  0.3570  0.1771 -0.2379
   70CHL1  H19A 6327   1.713   6.005   3.191 -3.4281  0.1522  0.6583
   70CHL1  H19B 6328   1.847   6.062   3.307  0.2955 -0.4478  0.0713
   70CHL1  H19C 6329   1.685   6.003   3.361  0.4611  0.5690  0.1311
   70CHL1    C1 6330   1.523   6.187   3.233 -0.0120 -0.0381 -0.0281
   70CHL1   H1A 6331   1.481   6.093   3.273  2.7448 -1.4144 -0.0854
   70CHL1   H1B 6332   1.474   6.281   3.267  0.8384  1.0190 -1.5605
   70CHL1    C2 6333   1.507   6.179   3.076  0.3306 -0.2763 -0.5104
   70CHL1   H2A 6334   1.399   6.183   3.049 -0.0609  2.5299  0.9907
   70CHL1   H2B 6335   1.551   6.080   3.055  2.3538 -0.0348  2.1171
   70CHL1   C20 6336   1.729   6.219   3.995 -0.4463  0.4615 -0.5519
   70CHL1   H20 6337   1.786   6.124   4.001 -1.6417 -0.2388  0.2511
   70CHL1   C21 6338   1.580   6.181   4.004  0.2396 -0.6308  0.0842
   70CHL1  H21A 6339   1.548   6.114   3.922  2.0228 -1.9377  0.3933
   70CHL1  H21B 6340   1.513   6.268   4.021 -0.4713 -1.5824  2.5520
   70CHL1  H21C 6341   1.566   6.125   4.099  1.4717 -1.3484 -0.1358
   70CHL1   C22 6342   1.762   6.302   4.117  0.0277  0.4060 -0.2709
   70CHL1  H22A 6343   1.841   6.379   4.103 -1.6436  1.9210 -2.1380
   70CHL1  H22B 6344   1.677   6.373   4.130 -0.8760 -0.3635 -1.6663
   70CHL1   C23 6345   1.783   6.215   4.239 -0.2753  0.0889  0.0332
   70CHL1  H23A 6346   1.685   6.170   4.263 -0.7458  1.1338  0.1238
   70CHL1  H23B 6347   1.870   6.147   4.226  0.9323  1.7198 -0.8039
   70CHL1   C24 6348   1.820   6.303   4.361 -0.2152 -0.1835  0.1694
   70CHL1  H24A 6349   1.912   6.361   4.337 -2.1402  3.0639  0.0020
   70CHL1  H24B 6350   1.743   6.384   4.364 -1.8650 -1.6576 -0.5556
   70CHL1   C25 6351   1.822   6.219   4.492 -0.2067  0.0091 -0.5400
   70CHL1   H25 6352   1.754   6.133   4.477  0.4234 -0.7191  0.6050
   70CHL1   C26 6353   1.965   6.165   4.518 -0.8582  0.3241 -0.1472
   70CHL1  H26A 6354   1.970   6.090   4.600  0.8873 -0.3246 -0.8007
   70CHL1  H26B 6355   1.985   6.118   4.419 -0.4429  0.4034 -0.1025
   70CHL1  H26C 6356   2.047   6.237   4.537  0.5375 -1.0274 -0.8090
   70CHL1   C27 6357   1.775   6.296   4.614 -0.4511  0.5119  0.4231
   70CHL1  H27A 6358   1.845   6.373   4.653 -0.1810  0.0054  0.9675
   70CHL1  H27B 6359   1.682   6.343   4.578 -0.6819 -1.5472 -1.9822
   70CHL1  H27C 6360   1.740   6.233   4.698  0.6882 -1.2435 -0.3487
   71CHL1    C3 6361   6.818   2.686   3.681 -0.1340 -0.5300 -0.1997
   71CHL1    H3 6362   6.840   2.789   3.645 -0.9178 -0.3109 -0.0676
   71CHL1    O3 6363   6.823   2.610   3.559  0.2834  0.5412  0.2367
   71CHL1   H3' 6364   6.857   2.672   3.494  2.0472 -0.9031 -0.3095
   71CHL1    C4 6365   6.939   2.638   3.770  0.1756  0.4586  0.3762
   71CHL1   H4A 6366   6.947   2.527   3.766 -1.0736  0.3803 -1.7379
   71CHL1   H4B 6367   7.022   2.694   3.721 -0.3346  0.8701 -0.0347
   71CHL1    C5 6368   6.915   2.672   3.910  0.5319 -0.3507 -0.1026
   71CHL1    C6 6369   7.010   2.745   3.975 -0.8821  0.3413  0.2184
   71CHL1    H6 6370   7.104   2.757   3.919 -0.7087 -0.6809  0.2694
   71CHL1    C7 6371   7.006   2.788   4.119  0.2537 -0.0833  0.5874
   71CHL1   H7A 6372   7.099   2.763   4.173  1.0931 -0.0572 -0.8079
   71CHL1   H7B 6373   6.986   2.896   4.137 -1.8151 -0.6613  2.2744
   71CHL1    C8 6374   6.903   2.699   4.188 -0.1593 -0.9051 -0.4395
   71CHL1    H8 6375   6.945   2.597   4.205  1.3534  0.1064  2.9215
   71CHL1   C14 6376   6.878   2.754   4.326  0.0625 -0.3578 -0.1674
   71CHL1   H14 6377   6.843   2.857   4.301  1.8316 -0.3091 -2.7591
   71CHL1   C15 6378   6.993   2.789   4.416 -0.3398  0.2276  0.2861
   71CHL1  H15A 6379   7.064   2.708   4.443 -1.9637 -0.3584  3.1499
   71CHL1  H15B 6380   7.052   2.877   4.380 -2.4297  1.7211  0.3188
   71CHL1   C16 6381   6.927   2.814   4.550 -0.2478 -0.4001  0.7288
   71CHL1  H16A 6382   6.979   2.759   4.631 -0.7141  0.3355  1.5360
   71CHL1  H16B 6383   6.926   2.920   4.582  0.7294  0.2364 -1.1297
   71CHL1   C17 6384   6.778   2.767   4.545 -0.2465  0.6385 -0.1096
   71CHL1   H17 6385   6.725   2.864   4.539  0.1167  0.8346 -0.2318
   71CHL1   C13 6386   6.766   2.691   4.407 -0.6236  0.0729 -0.6876
   71CHL1   C18 6387   6.806   2.537   4.430 -0.3513 -0.2437  0.6157
   71CHL1  H18A 6388   6.735   2.477   4.491 -0.3868 -2.3458 -1.3840
   71CHL1  H18B 6389   6.817   2.487   4.332  1.0590  1.9505 -0.4226
   71CHL1  H18C 6390   6.905   2.536   4.482 -0.2247 -0.3497  0.3708
   71CHL1   C12 6391   6.640   2.706   4.331 -0.4753  1.1474  0.1614
   71CHL1  H12A 6392   6.563   2.648   4.386  1.4675 -1.0543  0.7549
   71CHL1  H12B 6393   6.621   2.815   4.322 -0.1176  1.1843 -0.2028
   71CHL1   C11 6394   6.647   2.644   4.191 -0.1962 -0.1736  0.3697
   71CHL1  H11A 6395   6.650   2.533   4.195 -1.1603 -0.1997  0.6844
   71CHL1  H11B 6396   6.556   2.665   4.130 -0.0194  0.5932  0.3583
   71CHL1    C9 6397   6.772   2.693   4.108  0.3398 -0.5614 -1.0680
   71CHL1    H9 6398   6.749   2.802   4.098  0.6515 -0.5558 -1.7531
   71CHL1   C10 6399   6.775   2.643   3.967  0.3164 -0.0992  0.1528
   71CHL1   C19 6400   6.760   2.489   3.975 -0.3411 -0.1653  0.0568
   71CHL1  H19A 6401   6.658   2.468   4.014 -0.6659  0.2576 -0.5392
   71CHL1  H19B 6402   6.778   2.428   3.883 -1.6778  1.5201 -1.4029
   71CHL1  H19C 6403   6.834   2.446   4.046 -0.0621 -5.8996 -3.1070
   71CHL1    C1 6404   6.666   2.709   3.878 -0.0592  0.3865 -0.1846
   71CHL1   H1A 6405   6.561   2.693   3.909  0.3693 -1.8506  0.2905
   71CHL1   H1B 6406   6.678   2.818   3.891 -0.5894  0.2827  1.4182
   71CHL1    C2 6407   6.679   2.666   3.732  0.6010  0.5665  0.0541
   71CHL1   H2A 6408   6.599   2.716   3.673 -1.0708 -1.6233  0.3184
   71CHL1   H2B 6409   6.647   2.560   3.720 -0.4391  1.1232 -2.9807
   71CHL1   C20 6410   6.713   2.716   4.677 -0.4228  0.9153 -0.0291
   71CHL1   H20 6411   6.748   2.611   4.694 -1.3009  0.5373 -0.4678
   71CHL1   C21 6412   6.567   2.685   4.662  0.7972 -0.0947 -0.6684
   71CHL1  H21A 6413   6.509   2.772   4.627 -0.4823 -1.0437 -0.9982
   71CHL1  H21B 6414   6.521   2.652   4.757 -0.2024  2.1408 -0.3343
   71CHL1  H21C 6415   6.554   2.604   4.587  0.7984  0.3369 -1.1366
   71CHL1   C22 6416   6.745   2.811   4.797 -0.0113  0.1231 -0.7593
   71CHL1  H22A 6417   6.839   2.866   4.777  0.2037 -0.4996 -1.4945
   71CHL1  H22B 6418   6.659   2.882   4.801 -0.7672 -0.6656 -2.2942
   71CHL1   C23 6419   6.763   2.749   4.938 -0.2164 -0.1091  0.9561
   71CHL1  H23A 6420   6.669   2.695   4.961  0.1033 -1.5789 -0.9455
   71CHL1  H23B 6421   6.852   2.683   4.935  0.9749  1.4156  1.4335
   71CHL1   C24 6422   6.780   2.852   5.045 -0.5120  0.3974 -0.5546
   71CHL1  H24A 6423   6.878   2.905   5.034 -0.5321  0.1899 -1.8479
   71CHL1  H24B 6424   6.704   2.933   5.041  0.0051  0.8840 -4.1364
   71CHL1   C25 6425   6.775   2.802   5.191  0.0765  0.4209  0.3251
   71CHL1   H25 6426   6.865   2.746   5.226  0.4200  0.8628  0.1532
   71CHL1   C26 6427   6.778   2.923   5.284 -0.4031  0.1619  0.0745
   71CHL1  H26A 6428   6.876   2.976   5.292 -0.2976 -0.1635  1.1561
   71CHL1  H26B 6429   6.698   2.994   5.257 -0.9223 -0.7180 -0.7262
   71CHL1  H26C 6430   6.750   2.889   5.386 -0.8505 -0.9602 -0.4104
   71CHL1   C27 6431   6.651   2.716   5.220  0.5244 -0.2984  0.1238
   71CHL1  H27A 6432   6.623   2.638   5.146 -5.4528  1.9774 -0.5230
   71CHL1  H27B 6433   6.654   2.673   5.323  0.8504 -0.0963  0.2027
   71CHL1  H27C 6434   6.565   2.786   5.220  0.3062 -0.5289 -1.5654
   72CHL1    C3 6435   4.099   1.592   3.330 -0.3174 -0.4051  0.6760
   72CHL1    H3 6436   4.117   1.701   3.339 -0.4644 -0.4089  1.0302
   72CHL1    O3 6437   4.118   1.568   3.188 -0.4097  0.3200 -0.2668
   72CHL1   H3' 6438   4.027   1.560   3.158  0.1710 -0.9692 -1.7831
   72CHL1    C4 6439   4.197   1.509   3.416 -0.2222 -0.2358 -0.5273
   72CHL1   H4A 6440   4.187   1.400   3.395  0.3673 -0.5594  0.7839
   72CHL1   H4B 6441   4.301   1.531   3.382  0.5541 -1.1439  1.0983
   72CHL1    C5 6442   4.187   1.523   3.568  0.4814 -0.0558  0.0802
   72CHL1    C6 6443   4.298   1.529   3.646  0.1198 -0.6141 -1.2546
   72CHL1    H6 6444   4.400   1.522   3.604 -0.2873  0.4567 -2.5041
   72CHL1    C7 6445   4.293   1.544   3.793  0.0148  0.3707 -0.0393
   72CHL1   H7A 6446   4.363   1.472   3.841  0.3449  0.0414 -0.9835
   72CHL1   H7B 6447   4.337   1.644   3.809 -2.8624  1.9191 -1.1260
   72CHL1    C8 6448   4.149   1.531   3.854 -0.2863 -0.1097  0.1792
   72CHL1    H8 6449   4.117   1.426   3.871 -0.0250 -0.0488  1.1274
   72CHL1   C14 6450   4.137   1.592   3.997  0.3434  0.0273 -0.8499
   72CHL1   H14 6451   4.161   1.701   3.991 -0.4978  0.2568 -0.1324
   72CHL1   C15 6452   4.238   1.540   4.096 -0.5987 -0.2643 -1.1687
   72CHL1  H15A 6453   4.240   1.434   4.062  1.1148  0.4952 -3.7304
   72CHL1  H15B 6454   4.338   1.584   4.077 -0.8416  0.6823 -0.3383
   72CHL1   C16 6455   4.186   1.579   4.232  0.1067  0.0122 -0.4881
   72CHL1  H16A 6456   4.181   1.497   4.308 -0.5765  0.4896 -0.0060
   72CHL1  H16B 6457   4.255   1.653   4.276  0.0391  0.3158 -0.8864
   72CHL1   C17 6458   4.040   1.634   4.210 -1.0402 -0.6387  0.5263
   72CHL1   H17 6459   4.054   1.744   4.199 -0.2524 -0.7638  0.1574
   72CHL1   C13 6460   4.005   1.579   4.078  0.8414  0.3578  0.3992
   72CHL1   C18 6461   3.959   1.433   4.104 -0.0680 -1.0136  0.4436
   72CHL1  H18A 6462   4.022   1.385   4.181 -0.5083  0.3003  1.6757
   72CHL1  H18B 6463   3.855   1.432   4.144 -0.6342  0.1667 -0.8780
   72CHL1  H18C 6464   3.960   1.373   4.010  1.2102  0.4210 -0.5183
   72CHL1   C12 6465   3.906   1.647   3.979 -0.0548 -0.1907 -0.0018
   72CHL1  H12A 6466   3.804   1.642   4.022 -1.4801 -0.3495 -3.0786
   72CHL1  H12B 6467   3.935   1.754   3.982 -0.7806  0.0153 -0.1491
   72CHL1   C11 6468   3.904   1.588   3.835 -0.1328 -0.0514 -0.7200
   72CHL1  H11A 6469   3.873   1.482   3.852  1.3212 -0.0327  3.0311
   72CHL1  H11B 6470   3.837   1.642   3.765  0.7239  1.7177 -0.2377
   72CHL1    C9 6471   4.041   1.589   3.769  0.3600  0.4553  0.5821
   72CHL1    H9 6472   4.059   1.696   3.746 -1.2385  0.7176  0.4257
   72CHL1   C10 6473   4.047   1.530   3.622  0.8414  0.5155  0.0715
   72CHL1   C19 6474   3.993   1.383   3.628  0.3851 -0.5059  0.5295
   72CHL1  H19A 6475   4.046   1.325   3.706 -0.3151 -1.5907  0.2234
   72CHL1  H19B 6476   3.883   1.385   3.643  0.1380  0.1758 -1.1662
   72CHL1  H19C 6477   4.011   1.321   3.537 -5.3325 -1.2813 -0.4687
   72CHL1    C1 6478   3.949   1.599   3.524 -0.1625 -0.0730 -0.0811
   72CHL1   H1A 6479   3.845   1.580   3.558 -0.4330  0.6459 -0.4857
   72CHL1   H1B 6480   3.958   1.709   3.526 -0.5393  0.0105 -1.9083
   72CHL1    C2 6481   3.960   1.558   3.374  0.3537  0.0969 -0.1175
   72CHL1   H2A 6482   3.886   1.609   3.309  0.3307  0.9686  0.5769
   72CHL1   H2B 6483   3.950   1.449   3.358  2.2735  0.0797 -1.5843
   72CHL1   C20 6484   3.947   1.602   4.331  0.0581 -0.4134 -0.6942
   72CHL1   H20 6485   3.925   1.493   4.333  1.5156 -0.7305 -0.7747
   72CHL1   C21 6486   3.817   1.680   4.298  0.8714  0.2686  0.1844
   72CHL1  H21A 6487   3.850   1.775   4.250 -0.6039  0.2977 -0.8296
   72CHL1  H21B 6488   3.752   1.694   4.387 -0.1109 -3.1778  0.1548
   72CHL1  H21C 6489   3.751   1.629   4.224  1.9503 -1.1484  0.1754
   72CHL1   C22 6490   4.001   1.648   4.468 -0.3293 -0.7375 -0.3788
   72CHL1  H22A 6491   3.919   1.616   4.536 -0.3635 -1.6661 -0.8434
   72CHL1  H22B 6492   4.088   1.591   4.509 -0.2961 -0.4685 -0.0666
   72CHL1   C23 6493   4.035   1.798   4.491 -0.1231 -0.9304 -0.0835
   72CHL1  H23A 6494   4.130   1.809   4.435 -0.9860 -0.6150 -1.5224
   72CHL1  H23B 6495   3.945   1.853   4.457  0.5227  0.7309  0.7496
   72CHL1   C24 6496   4.057   1.849   4.637 -0.4266  0.2072  0.1321
   72CHL1  H24A 6497   3.967   1.835   4.701  0.1430  1.8867  1.3869
   72CHL1  H24B 6498   4.131   1.781   4.683 -1.0950  0.1634  1.1743
   72CHL1   C25 6499   4.083   2.002   4.638  0.0987  0.3481  0.1717
   72CHL1   H25 6500   4.161   2.018   4.561  0.0908  1.1418  0.3207
   72CHL1   C26 6501   3.954   2.077   4.614 -0.2036 -0.1813 -0.1844
   72CHL1  H26A 6502   3.959   2.185   4.642 -2.9722  0.2806 -1.1911
   72CHL1  H26B 6503   3.921   2.080   4.508  3.2411  0.0418 -1.3875
   72CHL1  H26C 6504   3.868   2.032   4.667 -0.8276 -0.5235 -1.4645
   72CHL1   C27 6505   4.141   2.048   4.776  0.0098 -0.7097  0.4886
   72CHL1  H27A 6506   4.069   2.015   4.855 -0.7248 -1.4040 -0.4495
   72CHL1  H27B 6507   4.244   2.013   4.794 -0.3755 -1.3875  1.4802
   72CHL1  H27C 6508   4.153   2.159   4.772  0.8719 -0.8027  0.3734
   73CHL1    C3 6509   3.080   4.279   3.570  0.6314 -0.1174  0.0883
   73CHL1    H3 6510   3.164   4.206   3.560  1.0317  0.6419 -3.4505
   73CHL1    O3 6511   3.063   4.329   3.437 -0.0597 -0.1827 -0.7342
   73CHL1   H3' 6512   3.071   4.249   3.384  1.2567 -1.0816  0.7553
   73CHL1    C4 6513   2.946   4.209   3.620 -0.0333  0.2794 -0.6462
   73CHL1   H4A 6514   2.858   4.276   3.613  0.1243  0.6565  0.7335
   73CHL1   H4B 6515   2.923   4.127   3.549  0.4436 -1.1515  0.7801
   73CHL1    C5 6516   2.974   4.166   3.764 -0.0393  0.2436 -0.8638
   73CHL1    C6 6517   2.968   4.036   3.794 -0.4419  0.7401  0.4329
   73CHL1    H6 6518   2.928   3.963   3.721  1.0783  0.9578 -0.6564
   73CHL1    C7 6519   2.992   3.981   3.926 -0.6578 -0.2320 -0.6639
   73CHL1   H7A 6520   2.922   3.904   3.964  0.9091 -0.5141  1.8987
   73CHL1   H7B 6521   3.087   3.924   3.925 -0.8796 -0.6960  1.3109
   73CHL1    C8 6522   2.993   4.090   4.041  0.4170  0.1784  0.5329
   73CHL1    H8 6523   2.888   4.127   4.045  0.1177 -0.3875 -1.4080
   73CHL1   C14 6524   3.043   4.032   4.175 -0.2117  0.5080 -0.1636
   73CHL1   H14 6525   3.145   3.992   4.156 -0.1020  0.7455 -0.0810
   73CHL1   C15 6526   2.972   3.908   4.225  0.2579  0.2485 -0.2032
   73CHL1  H15A 6527   2.862   3.910   4.209  0.0025 -2.0741  0.9396
   73CHL1  H15B 6528   3.016   3.824   4.168  0.7266  0.1849  0.2508
   73CHL1   C16 6529   3.010   3.908   4.377  0.7267  0.1140  0.1988
   73CHL1  H16A 6530   2.908   3.928   4.416 -0.1963 -1.1493 -1.4113
   73CHL1  H16B 6531   3.052   3.808   4.405 -1.1534 -0.9996 -0.7640
   73CHL1   C17 6532   3.093   4.036   4.400 -0.6265 -0.4623  0.0441
   73CHL1   H17 6533   3.198   4.013   4.372 -0.6091 -0.0225 -0.2722
   73CHL1   C13 6534   3.047   4.130   4.286  0.4834  0.2059 -0.3991
   73CHL1   C18 6535   2.904   4.186   4.315 -0.0782  0.3523  0.7282
   73CHL1  H18A 6536   2.913   4.269   4.388  2.2161  1.2835 -0.5149
   73CHL1  H18B 6537   2.860   4.231   4.223  1.5378  0.5695  0.0259
   73CHL1  H18C 6538   2.825   4.116   4.352 -0.3162  0.2885  0.1162
   73CHL1   C12 6539   3.152   4.233   4.250  0.0414 -0.1879  0.5611
   73CHL1  H12A 6540   3.147   4.317   4.323 -0.2524  0.2907 -0.0050
   73CHL1  H12B 6541   3.252   4.187   4.235 -0.3458 -1.0125  0.4897
   73CHL1   C11 6542   3.108   4.298   4.116 -0.0759 -0.8926  0.5540
   73CHL1  H11A 6543   3.012   4.351   4.132 -0.1099 -0.1348 -1.8477
   73CHL1  H11B 6544   3.181   4.380   4.099 -0.8244 -0.7111 -2.3357
   73CHL1    C9 6545   3.086   4.204   3.995 -0.2169  0.9041  0.3650
   73CHL1    H9 6546   3.186   4.158   3.978 -0.3644  0.5212  0.5323
   73CHL1   C10 6547   3.035   4.266   3.865 -0.0935 -0.7245 -0.3569
   73CHL1   C19 6548   2.934   4.373   3.900  0.3739 -0.4527  0.0002
   73CHL1  H19A 6549   2.878   4.417   3.814  0.2254  0.1243  0.3860
   73CHL1  H19B 6550   2.856   4.319   3.957 -0.3890  0.8796  0.2520
   73CHL1  H19C 6551   2.990   4.459   3.943  1.5856 -0.9181 -0.5939
   73CHL1    C1 6552   3.156   4.345   3.802  0.6652  0.3833  0.3016
   73CHL1   H1A 6553   3.184   4.430   3.869 -2.1775  1.0047  0.8388
   73CHL1   H1B 6554   3.234   4.267   3.794  0.6337  0.4511 -0.6978
   73CHL1    C2 6555   3.124   4.397   3.657 -0.7200 -0.0661  0.1108
   73CHL1   H2A 6556   3.223   4.434   3.620  2.1201 -1.6197  5.2365
   73CHL1   H2B 6557   3.060   4.487   3.669  1.3783  1.3585  1.2027
   73CHL1   C20 6558   3.089   4.102   4.536  0.2261 -0.2404 -0.3492
   73CHL1   H20 6559   2.991   4.154   4.543  0.4892  0.2412 -0.1536
   73CHL1   C21 6560   3.200   4.203   4.565 -0.0429  0.6014  0.2310
   73CHL1  H21A 6561   3.222   4.215   4.673 -0.4077 -0.5028  0.4421
   73CHL1  H21B 6562   3.181   4.300   4.514  1.4920  1.8827  1.9529
   73CHL1  H21C 6563   3.299   4.168   4.527 -0.7652  0.6544 -1.8454
   73CHL1   C22 6564   3.088   3.990   4.647  0.8323  0.2154  0.5699
   73CHL1  H22A 6565   3.069   4.052   4.737 -0.7015 -1.3721  1.3882
   73CHL1  H22B 6566   3.000   3.922   4.645  1.3084 -0.5002  2.3791
   73CHL1   C23 6567   3.221   3.914   4.669  0.4854 -0.5130 -0.8396
   73CHL1  H23A 6568   3.212   3.815   4.619 -0.2157 -0.8694 -0.0377
   73CHL1  H23B 6569   3.301   3.981   4.631  1.2466 -2.3135 -2.6038
   73CHL1   C24 6570   3.245   3.875   4.814  0.4593 -0.1053  0.2121
   73CHL1  H24A 6571   3.271   3.964   4.874  0.4659 -0.2927  0.4891
   73CHL1  H24B 6572   3.155   3.823   4.852  1.8355 -1.7091  1.4391
   73CHL1   C25 6573   3.372   3.783   4.828  0.7653 -0.1741  0.0492
   73CHL1   H25 6574   3.359   3.699   4.756 -0.2182  0.8414 -1.0064
   73CHL1   C26 6575   3.505   3.850   4.785  0.4097 -0.0708  0.6665
   73CHL1  H26A 6576   3.588   3.779   4.805 -0.3650 -0.1561  4.4583
   73CHL1  H26B 6577   3.494   3.897   4.685  1.6307 -0.2220  0.4466
   73CHL1  H26C 6578   3.532   3.932   4.856 -0.4291  2.4308 -1.7233
   73CHL1   C27 6579   3.389   3.727   4.964 -0.3885  0.1307  0.0858
   73CHL1  H27A 6580   3.479   3.661   4.968 -0.3439  0.0484 -1.5717
   73CHL1  H27B 6581   3.398   3.815   5.031  0.1027 -0.2628  0.5430
   73CHL1  H27C 6582   3.295   3.671   4.984  0.3267 -1.0784  0.1736
   74CHL1    C3 6583   6.755   3.172   3.423  0.2018 -0.1277 -0.3538
   74CHL1    H3 6584   6.677   3.092   3.424 -0.6241  0.6455 -0.9803
   74CHL1    O3 6585   6.800   3.202   3.295 -0.5142 -0.1123 -0.0107
   74CHL1   H3' 6586   6.761   3.286   3.267  1.3435  0.8611  0.1601
   74CHL1    C4 6587   6.713   3.300   3.494 -0.8341  0.6369  1.0692
   74CHL1   H4A 6588   6.774   3.389   3.465 -1.5266  0.1917 -2.1731
   74CHL1   H4B 6589   6.616   3.323   3.445  0.3932  1.4022 -1.1542
   74CHL1    C5 6590   6.682   3.300   3.640  0.0015 -0.4555 -0.2767
   74CHL1    C6 6591   6.573   3.359   3.693 -0.5072  0.3868  0.0140
   74CHL1    H6 6592   6.509   3.417   3.625 -0.4426  0.1970 -0.2115
   74CHL1    C7 6593   6.546   3.374   3.834  0.2490  0.0962 -0.2038
   74CHL1   H7A 6594   6.504   3.476   3.850 -1.3988 -0.3323 -1.4401
   74CHL1   H7B 6595   6.470   3.297   3.863  0.1390 -0.7140 -2.4881
   74CHL1    C8 6596   6.655   3.332   3.931 -0.9866  0.2837  0.8525
   74CHL1    H8 6597   6.735   3.408   3.933  0.0240 -0.6314 -1.3265
   74CHL1   C14 6598   6.611   3.301   4.078  0.4159  0.1205  1.0331
   74CHL1   H14 6599   6.532   3.223   4.074  0.7166 -0.1537 -0.1497
   74CHL1   C15 6600   6.555   3.425   4.146 -0.1233  0.1760 -0.0272
   74CHL1  H15A 6601   6.632   3.501   4.119  2.5491 -1.0204  3.5368
   74CHL1  H15B 6602   6.455   3.456   4.107  0.0989  2.1972  0.8642
   74CHL1   C16 6603   6.573   3.403   4.295 -0.0716  0.2071  0.6236
   74CHL1  H16A 6604   6.610   3.500   4.334 -1.6021  0.6387  1.0837
   74CHL1  H16B 6605   6.477   3.384   4.348 -1.1595  0.4460 -1.1609
   74CHL1   C17 6606   6.664   3.274   4.308 -0.0844 -0.1628  0.6425
   74CHL1   H17 6607   6.599   3.185   4.319 -0.9746  0.5062  0.9752
   74CHL1   C13 6608   6.724   3.257   4.166 -0.3294  0.0099  0.0068
   74CHL1   C18 6609   6.846   3.354   4.159 -0.0524  0.5510  0.3167
   74CHL1  H18A 6610   6.827   3.464   4.164  0.5313  0.8631 -2.5270
   74CHL1  H18B 6611   6.928   3.326   4.229 -1.0167  0.4904  1.4590
   74CHL1  H18C 6612   6.889   3.343   4.057  0.2441 -1.2154  0.6084
   74CHL1   C12 6613   6.754   3.110   4.118  0.5423  0.0998 -0.2400
   74CHL1  H12A 6614   6.828   3.061   4.185 -1.1675 -2.5409 -0.1764
   74CHL1  H12B 6615   6.660   3.052   4.118  0.1299  0.7023  1.2190
   74CHL1   C11 6616   6.807   3.117   3.973  0.7878  0.3679 -0.4407
   74CHL1  H11A 6617   6.913   3.151   3.971  0.8279  0.2691 -2.8351
   74CHL1  H11B 6618   6.819   3.013   3.935  0.7671 -0.0024  0.5304
   74CHL1    C9 6619   6.714   3.196   3.874  0.4588 -0.6289 -0.0785
   74CHL1    H9 6620   6.628   3.127   3.860  1.1782 -1.5877  0.1077
   74CHL1   C10 6621   6.777   3.225   3.733 -0.2642 -0.2042  0.6713
   74CHL1   C19 6622   6.904   3.307   3.748 -0.3274  0.4392  0.3152
   74CHL1  H19A 6623   6.940   3.333   3.646 -2.3977  1.8336 -0.1371
   74CHL1  H19B 6624   6.889   3.403   3.802  1.1097  1.2401 -0.6543
   74CHL1  H19C 6625   6.991   3.250   3.787  0.1362  0.3953 -0.7480
   74CHL1    C1 6626   6.810   3.087   3.669  0.1812 -0.6203 -0.2348
   74CHL1   H1A 6627   6.893   3.037   3.723  0.3905 -0.7124 -0.6357
   74CHL1   H1B 6628   6.722   3.019   3.666  1.3676 -2.2511  0.2128
   74CHL1    C2 6629   6.864   3.106   3.522  0.3784  0.1807  0.1276
   74CHL1   H2A 6630   6.899   3.009   3.482 -0.6080 -0.0105 -0.2855
   74CHL1   H2B 6631   6.955   3.169   3.515  1.3192 -1.3254 -2.5933
   74CHL1   C20 6632   6.748   3.277   4.438 -0.4705 -0.9685 -0.4301
   74CHL1   H20 6633   6.830   3.352   4.429 -0.9024 -0.6545 -2.1622
   74CHL1   C21 6634   6.823   3.147   4.450  0.5381 -0.1903 -0.0953
   74CHL1  H21A 6635   6.874   3.149   4.549  3.7241  2.8100 -1.5853
   74CHL1  H21B 6636   6.907   3.146   4.377  0.6060  0.1398 -0.0250
   74CHL1  H21C 6637   6.758   3.057   4.438 -1.3411  1.0915  0.0143
   74CHL1   C22 6638   6.674   3.325   4.568 -0.2496 -0.5507 -0.6681
   74CHL1  H22A 6639   6.733   3.326   4.661  0.5959  0.3318 -1.1979
   74CHL1  H22B 6640   6.656   3.435   4.568  1.7324 -0.1889 -0.5293
   74CHL1   C23 6641   6.550   3.236   4.604 -0.2955 -0.1438 -0.7005
   74CHL1  H23A 6642   6.479   3.241   4.519 -0.7162 -0.4404 -0.3727
   74CHL1  H23B 6643   6.586   3.131   4.612  1.6531  0.5765  0.7069
   74CHL1   C24 6644   6.463   3.275   4.730 -0.1052 -0.3563  0.2256
   74CHL1  H24A 6645   6.537   3.275   4.812 -0.9568 -2.4418  1.0692
   74CHL1  H24B 6646   6.427   3.380   4.725  0.7008 -0.0659  0.3866
   74CHL1   C25 6647   6.348   3.175   4.771  0.5711 -0.6203  0.3172
   74CHL1   H25 6648   6.302   3.209   4.866 -3.5486 -0.5363 -1.5089
   74CHL1   C26 6649   6.238   3.170   4.661  0.3135 -0.1566 -0.1130
   74CHL1  H26A 6650   6.285   3.116   4.577  2.2456  2.1804 -0.6497
   74CHL1  H26B 6651   6.148   3.112   4.690 -0.3037  0.4815 -0.7175
   74CHL1  H26C 6652   6.218   3.273   4.625  0.4363 -1.5897 -4.9272
   74CHL1   C27 6653   6.404   3.032   4.792 -0.0288  0.4595  0.1373
   74CHL1  H27A 6654   6.336   2.974   4.858  3.0455 -1.3360  1.9551
   74CHL1  H27B 6655   6.425   2.978   4.697  0.4151 -0.6472  0.8436
   74CHL1  H27C 6656   6.496   3.050   4.852  1.1704  0.6343 -1.6614
   75CHL1    C3 6657   1.582   2.188   3.381  0.1134 -0.2659  0.6730
   75CHL1    H3 6658   1.583   2.293   3.418  0.8255  0.0310 -0.1784
   75CHL1    O3 6659   1.561   2.198   3.238  0.0128 -0.1680 -0.5429
   75CHL1   H3' 6660   1.556   2.107   3.208 -0.7322 -0.7797  1.3054
   75CHL1    C4 6661   1.715   2.124   3.419 -0.5172  0.3291 -0.0442
   75CHL1   H4A 6662   1.709   2.026   3.367  1.1295  0.2080 -0.0568
   75CHL1   H4B 6663   1.802   2.175   3.373 -1.1117  1.2551 -0.1734
   75CHL1    C5 6664   1.724   2.095   3.565  0.1557 -0.1634 -0.0982
   75CHL1    C6 6665   1.827   2.137   3.639  0.2444  0.4419  0.2354
   75CHL1    H6 6666   1.910   2.191   3.592 -0.5398  1.1350 -0.3704
   75CHL1    C7 6667   1.856   2.089   3.782  0.6551  0.6573  0.0720
   75CHL1   H7A 6668   1.950   2.041   3.813  1.4011  2.5603  0.9548
   75CHL1   H7B 6669   1.850   2.180   3.846  1.5445  1.5029 -1.0061
   75CHL1    C8 6670   1.749   1.991   3.837  0.4020  0.1181 -0.3110
   75CHL1    H8 6671   1.772   1.884   3.817 -0.3757 -0.6037  2.2723
   75CHL1   C14 6672   1.749   1.993   3.985  0.1046  0.5497 -0.1117
   75CHL1   H14 6673   1.728   2.099   4.012  2.8686  1.3500 -0.7854
   75CHL1   C15 6674   1.885   1.966   4.059 -0.1153  0.4626  0.1687
   75CHL1  H15A 6675   1.929   1.872   4.019  1.2256  1.1826 -0.1269
   75CHL1  H15B 6676   1.961   2.047   4.047  1.4907 -1.0201 -0.1170
   75CHL1   C16 6677   1.845   1.947   4.211 -0.1722  0.6224  0.2032
   75CHL1  H16A 6678   1.892   1.856   4.254 -2.9711 -0.6299  0.8731
   75CHL1  H16B 6679   1.865   2.036   4.274  1.8095  0.7319 -0.5135
   75CHL1   C17 6680   1.691   1.925   4.199 -0.0351 -0.2746  0.0201
   75CHL1   H17 6681   1.632   2.018   4.215 -1.0342 -0.8350 -0.3319
   75CHL1   C13 6682   1.647   1.903   4.055 -0.1177  0.0848 -0.2417
   75CHL1   C18 6683   1.677   1.748   4.016  0.3318 -0.5095  0.3715
   75CHL1  H18A 6684   1.784   1.721   4.027  0.4830 -0.1864 -0.2301
   75CHL1  H18B 6685   1.622   1.677   4.081 -1.6555  0.6633  0.0639
   75CHL1  H18C 6686   1.647   1.733   3.910  0.6811  3.0598 -0.3468
   75CHL1   C12 6687   1.512   1.949   4.016 -0.7523  0.5390  0.6953
   75CHL1  H12A 6688   1.429   1.888   4.057 -0.8877  0.1452 -0.1383
   75CHL1  H12B 6689   1.496   2.056   4.039 -3.1683  0.2897  0.4125
   75CHL1   C11 6690   1.497   1.937   3.856  0.1772 -0.6077  0.0235
   75CHL1  H11A 6691   1.492   1.832   3.819 -1.1813 -0.1333 -1.2047
   75CHL1  H11B 6692   1.399   1.982   3.829  0.2212 -0.2263  0.4901
   75CHL1    C9 6693   1.613   2.014   3.779  0.3566 -0.1331  0.3856
   75CHL1    H9 6694   1.589   2.121   3.799  0.1551 -0.1238  0.0967
   75CHL1   C10 6695   1.608   2.016   3.627  0.0363 -0.5949 -0.0876
   75CHL1   C19 6696   1.623   1.872   3.577 -0.4115 -0.4623 -0.8484
   75CHL1  H19A 6697   1.715   1.826   3.619 -0.0915 -1.2768 -2.3595
   75CHL1  H19B 6698   1.528   1.816   3.592 -1.8866  1.8070 -1.1557
   75CHL1  H19C 6699   1.634   1.866   3.466 -0.7917  0.2074 -0.9280
   75CHL1    C1 6700   1.482   2.077   3.583  0.2907 -0.3684  0.5542
   75CHL1   H1A 6701   1.403   2.002   3.605 -0.4358 -0.1009 -1.0082
   75CHL1   H1B 6702   1.453   2.174   3.627 -0.7040 -0.5612  0.3557
   75CHL1    C2 6703   1.470   2.096   3.433  0.2284  0.0883 -0.4011
   75CHL1   H2A 6704   1.372   2.136   3.399  0.6315  0.2250 -1.4589
   75CHL1   H2B 6705   1.476   2.002   3.374 -1.4891 -0.6057  0.4791
   75CHL1   C20 6706   1.640   1.842   4.318  0.0067  0.0725  0.7739
   75CHL1   H20 6707   1.674   1.739   4.290 -0.9446 -0.6111  2.0376
   75CHL1   C21 6708   1.485   1.835   4.318 -0.3052  0.3501 -1.3895
   75CHL1  H21A 6709   1.447   1.783   4.227 -1.5520 -0.2775 -0.5404
   75CHL1  H21B 6710   1.442   1.938   4.316  0.9626  0.9414  0.2077
   75CHL1  H21C 6711   1.446   1.777   4.404 -0.7126  0.3928 -1.5386
   75CHL1   C22 6712   1.702   1.879   4.445 -1.0146 -0.0684  0.5913
   75CHL1  H22A 6713   1.812   1.879   4.428 -0.9128 -0.7290  1.1997
   75CHL1  H22B 6714   1.670   1.980   4.479 -1.4553  0.1066 -0.3249
   75CHL1   C23 6715   1.688   1.772   4.561 -0.2362 -0.6345 -0.2387
   75CHL1  H23A 6716   1.581   1.748   4.576 -0.2528 -0.4791 -0.0973
   75CHL1  H23B 6717   1.735   1.677   4.530  0.0569 -1.6847  2.9725
   75CHL1   C24 6718   1.747   1.819   4.698  0.3885 -0.4215 -0.2393
   75CHL1  H24A 6719   1.855   1.845   4.693 -0.1928  2.5742  1.1348
   75CHL1  H24B 6720   1.683   1.905   4.726 -0.5204 -1.5429  1.2639
   75CHL1   C25 6721   1.752   1.699   4.800  0.8343 -0.1467 -0.7636
   75CHL1   H25 6722   1.822   1.627   4.753  0.6494  0.6349 -2.2927
   75CHL1   C26 6723   1.820   1.752   4.931  0.1279  0.1959  0.0020
   75CHL1  H26A 6724   1.803   1.689   5.021 -0.2522  2.8204  1.8820
   75CHL1  H26B 6725   1.930   1.762   4.918  0.1170 -0.2622 -0.4515
   75CHL1  H26C 6726   1.773   1.845   4.970  2.6258  0.2426  3.3464
   75CHL1   C27 6727   1.619   1.640   4.828  0.4595 -0.7608  0.0269
   75CHL1  H27A 6728   1.633   1.544   4.883 -0.1124 -0.0192  1.5292
   75CHL1  H27B 6729   1.556   1.709   4.888  1.5334 -1.2712  1.8179
   75CHL1  H27C 6730   1.565   1.613   4.735 -1.6274  2.2765  0.2092
   76CHL1    C3 6731   6.224   4.753   3.741  0.5848 -0.0304  0.7059
   76CHL1    H3 6732   6.265   4.659   3.782  2.1487 -0.9382 -2.5902
   76CHL1    O3 6733   6.199   4.736   3.598 -0.0139 -0.3080 -0.2806
   76CHL1   H3' 6734   6.158   4.819   3.571 -0.6215  0.2993  2.2045
   76CHL1    C4 6735   6.084   4.775   3.799 -0.3653  0.2184  0.0157
   76CHL1   H4A 6736   6.039   4.864   3.750 -0.4163  0.0120 -0.3139
   76CHL1   H4B 6737   6.012   4.694   3.773 -0.1376 -0.1144  0.4103
   76CHL1    C5 6738   6.089   4.778   3.951  0.3438 -0.6203  0.4242
   76CHL1    C6 6739   6.022   4.691   4.028  0.1125 -0.3130  0.1408
   76CHL1    H6 6740   5.955   4.619   3.979  0.9900 -0.3173 -1.0989
   76CHL1    C7 6741   6.017   4.700   4.180  0.0804  0.8373  0.4068
   76CHL1   H7A 6742   5.912   4.698   4.215 -1.1754 -0.9218 -3.0796
   76CHL1   H7B 6743   6.055   4.606   4.226  1.4368  1.4852  0.6578
   76CHL1    C8 6744   6.083   4.826   4.241  0.0101 -0.4951  0.5447
   76CHL1    H8 6745   6.004   4.904   4.234 -2.2392 -2.5900  1.0110
   76CHL1   C14 6746   6.117   4.815   4.383  0.2664  0.2065 -0.5100
   76CHL1   H14 6747   6.197   4.737   4.385 -1.1789 -1.4008 -1.7912
   76CHL1   C15 6748   6.009   4.751   4.478 -0.5538 -0.5871 -0.4325
   76CHL1  H15A 6749   5.913   4.797   4.445 -0.9020 -1.3660 -0.5395
   76CHL1  H15B 6750   5.998   4.641   4.465  0.7404 -0.5509 -2.3127
   76CHL1   C16 6751   6.046   4.792   4.626  0.6113  0.5744  0.5872
   76CHL1  H16A 6752   5.959   4.849   4.664 -0.2520  0.4220 -1.0796
   76CHL1  H16B 6753   6.067   4.706   4.694  0.4080 -0.9257 -1.1488
   76CHL1   C17 6754   6.176   4.875   4.604  0.1952 -0.4731  0.1098
   76CHL1   H17 6755   6.256   4.798   4.592 -0.2927 -0.6170 -3.3167
   76CHL1   C13 6756   6.171   4.938   4.456  0.2098  0.1504 -0.2498
   76CHL1   C18 6757   6.069   5.052   4.453  0.4123  0.6683 -0.7393
   76CHL1  H18A 6758   6.059   5.068   4.343  2.1018  0.3535 -0.9755
   76CHL1  H18B 6759   5.970   5.028   4.497 -0.1316  0.9103 -1.7801
   76CHL1  H18C 6760   6.111   5.149   4.487 -0.3480  0.9741 -0.6517
   76CHL1   C12 6761   6.304   4.973   4.388  0.2656  0.8116 -0.3261
   76CHL1  H12A 6762   6.357   5.051   4.447 -0.6328  0.0807  1.5325
   76CHL1  H12B 6763   6.367   4.884   4.407 -0.1124  0.7655  0.7581
   76CHL1   C11 6764   6.284   4.992   4.235  0.0483  0.0860  0.4984
   76CHL1  H11A 6765   6.218   5.081   4.222  0.8793  0.5280 -0.8883
   76CHL1  H11B 6766   6.377   5.011   4.179  0.5550  3.0852  2.1221
   76CHL1    C9 6767   6.209   4.869   4.161  0.6803  0.2534  0.6344
   76CHL1    H9 6768   6.286   4.789   4.168  1.6253  0.9692 -0.9521
   76CHL1   C10 6769   6.188   4.889   4.008 -0.6039  0.4569 -0.3054
   76CHL1   C19 6770   6.109   5.018   3.987  0.7331 -0.7140 -0.4235
   76CHL1  H19A 6771   6.073   5.039   3.884 -0.7589 -1.1776 -0.0199
   76CHL1  H19B 6772   6.010   5.012   4.036  0.3566 -0.2306 -1.1009
   76CHL1  H19C 6773   6.143   5.104   4.048 -4.2503 -1.2134  3.7395
   76CHL1    C1 6774   6.321   4.893   3.925  0.0620 -0.0414  0.5098
   76CHL1   H1A 6775   6.365   4.994   3.939 -0.2974  0.2814 -0.5911
   76CHL1   H1B 6776   6.386   4.816   3.971  1.3205  0.2597 -0.6853
   76CHL1    C2 6777   6.307   4.873   3.772  0.0966  1.0544  0.0087
   76CHL1   H2A 6778   6.410   4.859   3.733  1.1004 -2.7918  3.2802
   76CHL1   H2B 6779   6.262   4.965   3.729 -1.1074  1.0942  1.2657
   76CHL1   C20 6780   6.222   4.962   4.724  0.3694  0.2552 -0.0739
   76CHL1   H20 6781   6.279   5.049   4.685 -0.5759  1.6127  1.4396
   76CHL1   C21 6782   6.304   4.866   4.814  0.0413 -0.0483  0.0476
   76CHL1  H21A 6783   6.248   4.776   4.848 -1.7666  1.0593  0.1566
   76CHL1  H21B 6784   6.334   4.925   4.903 -0.7999  0.1669  0.1968
   76CHL1  H21C 6785   6.399   4.844   4.761  0.1338  3.2275 -1.3930
   76CHL1   C22 6786   6.096   5.013   4.802 -0.1344 -0.0661 -0.0004
   76CHL1  H22A 6787   6.014   5.061   4.743 -1.1596  2.0879  2.9422
   76CHL1  H22B 6788   6.044   4.925   4.847 -0.5370  0.2569  0.1688
   76CHL1   C23 6789   6.130   5.112   4.914 -0.2167 -0.3845  0.2080
   76CHL1  H23A 6790   6.209   5.080   4.984 -1.7624 -1.8317  1.3880
   76CHL1  H23B 6791   6.187   5.202   4.882  0.4007 -0.3037  1.4935
   76CHL1   C24 6792   5.998   5.156   4.989 -0.1102 -0.4319 -0.7544
   76CHL1  H24A 6793   5.933   5.226   4.932  1.4066  1.6395 -0.0582
   76CHL1  H24B 6794   5.945   5.063   5.020 -0.0456 -0.7384 -1.5527
   76CHL1   C25 6795   6.003   5.235   5.121 -0.0211  0.2469 -0.3524
   76CHL1   H25 6796   6.097   5.215   5.177  0.1814 -0.8451 -1.0570
   76CHL1   C26 6797   6.028   5.378   5.098  0.1217  0.7226 -0.3593
   76CHL1  H26A 6798   6.115   5.390   5.031  0.3990 -1.8771 -0.5559
   76CHL1  H26B 6799   5.955   5.442   5.044  1.0856  2.8434  0.7115
   76CHL1  H26C 6800   6.042   5.427   5.197  0.1295 -0.1389  0.0786
   76CHL1   C27 6801   5.879   5.210   5.199  0.2714  0.0275  0.0738
   76CHL1  H27A 6802   5.868   5.261   5.297 -0.4595 -1.1177  0.6229
   76CHL1  H27B 6803   5.785   5.229   5.142 -1.1303  1.7003  2.7081
   76CHL1  H27C 6804   5.880   5.103   5.229 -0.0886  0.2050  0.7620
   77SOPE     N 6805   4.905   0.296   6.989 -0.1901 -0.1629 -0.1648
   77SOPE   HN1 6806   4.948   0.204   7.012 -0.8251 -0.4718 -0.1783
   77SOPE   HN2 6807   4.985   0.356   6.961  1.1008 -1.8082 -0.1987
   77SOPE   HN3 6808   4.866   0.321   7.082 -0.7784 -0.9497 -0.1807
   77SOPE   C12 6809   4.804   0.295   6.877  0.0406  0.2749  0.4904
   77SOPE  H12A 6810   4.809   0.393   6.824 -0.0245  1.0313  1.8346
   77SOPE  H12B 6811   4.708   0.281   6.930  1.0306  1.2192  2.6853
   77SOPE   C11 6812   4.829   0.178   6.778 -0.0363 -0.2829  0.3734
   77SOPE  H11A 6813   4.929   0.195   6.734 -0.3317  0.2883 -0.0796
   77SOPE  H11B 6814   4.746   0.180   6.705 -0.0658 -0.5886  0.3938
   77SOPE     P 6815   4.848  -0.077   6.742 -0.1734 -0.0040  0.1958
   77SOPE   O13 6816   4.734  -0.169   6.748 -0.6642 -0.5634 -0.3782
   77SOPE   O14 6817   4.983  -0.129   6.768 -0.6210  0.0615 -0.6378
   77SOPE   O12 6818   4.828   0.048   6.838  0.0891  0.5807  0.4481
   77SOPE   O11 6819   4.863  -0.010   6.597 -0.0554 -0.1470 -0.1885
   77SOPE    C1 6820   4.964  -0.037   6.505 -0.8019 -0.1976 -0.4350
   77SOPE    HA 6821   4.946  -0.144   6.483 -1.0599 -0.0274 -1.0719
   77SOPE    HB 6822   5.067  -0.029   6.547 -1.0750  0.8833  0.0536
   77SOPE    C2 6823   4.958   0.026   6.365  0.6859  0.5986  0.2624
   77SOPE    HS 6824   5.003   0.127   6.375  1.2811  0.4338 -0.5976
   77SOPE   O21 6825   4.822   0.026   6.303 -0.1665 -0.0760 -0.0157
   77SOPE   C21 6826   4.799   0.131   6.226  0.1961 -0.3483 -0.1197
   77SOPE   O22 6827   4.872   0.225   6.214  0.3333  0.0249  0.5500
   77SOPE   C22 6828   4.658   0.120   6.156  0.8315  0.8383 -0.0801
   77SOPE   H2R 6829   4.585   0.144   6.236 -0.2913 -2.2241 -0.0164
   77SOPE   H2S 6830   4.638   0.013   6.133 -0.1984  0.6766  1.4584
   77SOPE    C3 6831   5.053  -0.054   6.269  0.6096 -0.3948 -0.1828
   77SOPE    HX 6832   4.986  -0.140   6.248  0.2229 -0.0146 -0.5367
   77SOPE    HY 6833   5.131  -0.096   6.336  0.4433 -0.1382  0.1784
   77SOPE   O31 6834   5.100   0.008   6.149 -0.3884  0.5712 -0.7953
   77SOPE   C31 6835   5.187   0.100   6.181  0.0603  0.4019  0.1018
   77SOPE   O32 6836   5.222   0.129   6.293 -0.3314 -0.2911  0.7191
   77SOPE   C32 6837   5.244   0.175   6.056 -0.2198 -0.1411 -0.4793
   77SOPE   H2X 6838   5.278   0.095   5.987 -0.1467 -0.6314  0.1154
   77SOPE   H2Y 6839   5.328   0.238   6.094  0.3408 -0.1170 -1.7143
   77SOPE   C23 6840   4.622   0.218   6.038 -0.1356  0.1823 -0.5066
   77SOPE   H3R 6841   4.660   0.318   6.066 -1.7856  0.7632 -0.2055
   77SOPE   H3S 6842   4.511   0.221   6.025  0.0504 -0.4023 -2.6755
   77SOPE   C24 6843   4.693   0.178   5.903  0.5688 -0.1580  0.0472
   77SOPE   H4R 6844   4.801   0.155   5.912  0.6841  0.0237 -0.7914
   77SOPE   H4S 6845   4.637   0.093   5.859  0.8611 -1.1265  1.4805
   77SOPE   C25 6846   4.694   0.288   5.798  0.2732  0.2644 -1.0212
   77SOPE   H5R 6847   4.598   0.332   5.762  0.7085  1.6935 -0.5083
   77SOPE   H5S 6848   4.742   0.376   5.847 -0.6231  1.0329 -1.4794
   77SOPE   C26 6849   4.781   0.251   5.682  0.9468  0.2052  1.1472
   77SOPE   H6R 6850   4.873   0.199   5.717 -0.4424 -2.7483  0.7191
   77SOPE   H6S 6851   4.731   0.184   5.610 -0.1532  1.1908  0.9611
   77SOPE   C27 6852   4.833   0.374   5.610 -0.3112 -0.5471 -0.0877
   77SOPE   H7R 6853   4.752   0.423   5.552  1.8994  0.4428 -2.5824
   77SOPE   H7S 6854   4.862   0.450   5.685  0.3117 -2.6839  1.9734
   77SOPE   C28 6855   4.952   0.340   5.519 -0.3495  0.4706 -0.3124
   77SOPE   H8R 6856   4.998   0.435   5.484  2.4838 -0.3069  1.0248
   77SOPE   H8S 6857   5.032   0.292   5.579 -1.5450 -1.4031 -0.1185
   77SOPE   C29 6858   4.923   0.239   5.414 -0.0287  0.8221  0.6089
   77SOPE   H91 6859   4.942   0.132   5.434  1.0570  0.0738 -3.4404
   77SOPE  C210 6860   4.903   0.262   5.279  0.2300  0.7042  0.2739
   77SOPE  H101 6861   4.888   0.170   5.219 -2.8132  0.4277  1.2486
   77SOPE  C211 6862   4.887   0.395   5.217  0.5198 -0.3021 -0.1477
   77SOPE  H11R 6863   4.886   0.474   5.294  0.3379 -0.8505  0.4194
   77SOPE  H11S 6864   4.787   0.402   5.169 -0.0001 -1.0957  0.7758
   77SOPE  C212 6865   4.988   0.415   5.102  0.1153 -0.2403 -1.3560
   77SOPE  H12R 6866   4.976   0.343   5.019  0.5908 -0.4499 -1.2498
   77SOPE  H12S 6867   5.090   0.394   5.141 -0.2393 -0.7682 -0.6836
   77SOPE  C213 6868   4.981   0.567   5.054 -0.5587 -0.1578  0.7135
   77SOPE  H13R 6869   5.005   0.625   5.145 -0.0668 -0.1387  0.5760
   77SOPE  H13S 6870   4.881   0.595   5.016  0.3705  2.5880  0.0115
   77SOPE  C214 6871   5.098   0.605   4.957 -0.2457 -0.2659 -0.7589
   77SOPE  H14R 6872   5.113   0.715   4.962  0.0680 -0.3480  0.1646
   77SOPE  H14S 6873   5.075   0.575   4.852 -0.9445 -2.4598 -0.0324
   77SOPE  C215 6874   5.236   0.550   5.000 -0.5234 -0.3888 -0.4230
   77SOPE  H15R 6875   5.241   0.439   4.992  2.8587 -0.3292 -0.3197
   77SOPE  H15S 6876   5.247   0.574   5.108 -0.3669  0.4728 -0.6206
   77SOPE  C216 6877   5.351   0.601   4.912  0.3831 -0.1282  0.7604
   77SOPE  H16R 6878   5.344   0.710   4.930 -2.0107 -0.1425  0.2583
   77SOPE  H16S 6879   5.329   0.571   4.807 -2.3292  0.0193  1.2028
   77SOPE  C217 6880   5.488   0.551   4.954  0.4691  0.1782 -0.2352
   77SOPE  H17R 6881   5.503   0.445   4.983 -1.1385  0.4510  1.9219
   77SOPE  H17S 6882   5.508   0.614   5.044  0.3550  0.5199 -0.4475
   77SOPE  C218 6883   5.602   0.585   4.849 -0.4824  0.1621 -0.2497
   77SOPE  H18R 6884   5.576   0.690   4.825  0.8775  0.5465 -0.1341
   77SOPE  H18S 6885   5.579   0.519   4.763 -3.0876 -0.2924  0.6935
   77SOPE  H18T 6886   5.706   0.576   4.888 -0.0869  0.6567 -1.1453
   77SOPE   C33 6887   5.128   0.245   5.983 -0.5790  0.2102 -0.8198
   77SOPE   H3X 6888   5.085   0.322   6.049  0.3769  0.3895 -0.3894
   77SOPE   H3Y 6889   5.048   0.169   5.970 -0.2902 -0.2992  0.2816
   77SOPE   C34 6890   5.166   0.313   5.854  0.3027  0.2126  0.1795
   77SOPE   H4X 6891   5.206   0.412   5.885 -1.4610  0.9190  0.2971
   77SOPE   H4Y 6892   5.074   0.316   5.792  1.4686 -2.5493 -1.9257
   77SOPE   C35 6893   5.272   0.239   5.766 -0.3419  1.5111 -0.4028
   77SOPE   H5X 6894   5.234   0.135   5.750  1.5398  0.8777 -0.9707
   77SOPE   H5Y 6895   5.364   0.241   5.829 -0.1261 -0.4039 -0.5999
   77SOPE   C36 6896   5.314   0.311   5.638 -0.1352  0.2234 -0.1918
   77SOPE   H6X 6897   5.357   0.408   5.671 -2.6280  1.7199 -1.1052
   77SOPE   H6Y 6898   5.235   0.334   5.565  0.5126  1.0578 -0.6449
   77SOPE   C37 6899   5.431   0.248   5.555  0.4360  0.3712 -0.1543
   77SOPE   H7X 6900   5.398   0.148   5.521 -0.6919  0.3956  0.8012
   77SOPE   H7Y 6901   5.509   0.220   5.630  0.4378 -0.1739 -0.3531
   77SOPE   C38 6902   5.494   0.338   5.447  0.9082  0.0091  0.0219
   77SOPE   H8X 6903   5.574   0.275   5.401  0.9517  0.4179 -0.4704
   77SOPE   H8Y 6904   5.548   0.425   5.490 -0.0924 -0.2664  1.8971
   77SOPE   C39 6905   5.395   0.385   5.333  0.6189 -0.0566 -1.2738
   77SOPE   H9X 6906   5.444   0.462   5.270  0.8850  1.0841  0.2835
   77SOPE   H9Y 6907   5.298   0.432   5.362  2.2277  1.4011  2.2774
   77SOPE  C310 6908   5.346   0.266   5.249  0.1456 -0.0252  0.2414
   77SOPE  H10X 6909   5.265   0.306   5.186 -0.0313 -1.8720 -0.7714
   77SOPE  H10Y 6910   5.308   0.185   5.315 -1.7591 -1.3900 -2.3652
   77SOPE  C311 6911   5.458   0.210   5.165  0.4220 -0.1583 -0.1174
   77SOPE  H11X 6912   5.535   0.161   5.228 -0.2093 -1.2037 -0.1360
   77SOPE  H11Y 6913   5.502   0.288   5.099 -0.3430  1.5552  1.3137
   77SOPE  C312 6914   5.421   0.077   5.094 -0.3342  0.4523 -0.5365
   77SOPE  H12X 6915   5.358   0.115   5.011  1.5569  2.4806 -1.1256
   77SOPE  H12Y 6916   5.376   0.007   5.168  2.5836 -2.3164 -1.0951
   77SOPE  C313 6917   5.547  -0.002   5.033 -0.0595 -0.1600 -0.3432
   77SOPE  H13X 6918   5.601  -0.051   5.116 -0.4485 -0.6687 -0.3831
   77SOPE  H13Y 6919   5.612   0.076   4.988 -1.1459  1.1366  0.2686
   77SOPE  C314 6920   5.515  -0.107   4.928  0.6008  0.6642  0.0700
   77SOPE  H14X 6921   5.452  -0.070   4.845 -1.4242  0.4331  1.4244
   77SOPE  H14Y 6922   5.453  -0.189   4.971 -3.8161  1.4878 -3.8933
   77SOPE  C315 6923   5.642  -0.161   4.864  0.4471  0.3684  0.4031
   77SOPE  H15X 6924   5.704  -0.197   4.949 -0.5410 -0.9275  0.6055
   77SOPE  H15Y 6925   5.699  -0.084   4.808  0.5530  1.5173  2.0179
   77SOPE  C316 6926   5.619  -0.266   4.757 -0.0094 -0.6940 -0.3058
   77SOPE  H16X 6927   5.578  -0.209   4.670  0.0801  0.8321  0.6094
   77SOPE  H16Y 6928   5.551  -0.344   4.797 -1.3824  1.2427  1.3368
   77SOPE  C317 6929   5.747  -0.324   4.700  0.2303 -0.8129 -0.4440
   77SOPE  H17X 6930   5.802  -0.383   4.777  1.7627  2.2876  1.0176
   77SOPE  H17Y 6931   5.800  -0.237   4.655 -1.8115  1.1056  0.6553
   77SOPE  C318 6932   5.714  -0.432   4.597 -0.0423  0.9180  0.7295
   77SOPE  H18X 6933   5.811  -0.470   4.560  1.1099  1.5736  2.8964
   77SOPE  H18Y 6934   5.674  -0.384   4.505  0.5976  0.5103  0.2367
   77SOPE  H18Z 6935   5.650  -0.515   4.634  0.2798 -0.1836 -1.0857
   78SOPE     N 6936   4.292   3.935   7.065 -0.0084 -0.0035  0.0143
   78SOPE   HN1 6937   4.268   3.848   7.117 -0.2008 -0.5350 -0.9399
   78SOPE   HN2 6938   4.381   3.962   7.112  0.6428 -2.5883  0.4437
   78SOPE   HN3 6939   4.214   4.002   7.080 -0.2876  0.0207 -1.4098
   78SOPE   C12 6940   4.307   3.907   6.924 -0.3552  0.3187 -0.2033
   78SOPE  H12A 6941   4.211   3.876   6.877 -0.2562 -1.2015  0.5437
   78SOPE  H12B 6942   4.365   3.819   6.891  0.3549  0.8537 -0.4178
   78SOPE   C11 6943   4.373   4.023   6.855 -0.0713 -0.2927  0.3531
   78SOPE  H11A 6944   4.378   4.010   6.745  2.9529  2.3840  0.0199
   78SOPE  H11B 6945   4.481   4.035   6.879 -0.1978  2.1654 -0.0091
   78SOPE     P 6946   4.172   4.187   6.818 -0.2565 -0.1779  0.1921
   78SOPE   O13 6947   4.088   4.227   6.928 -0.1675  0.0862  0.1008
   78SOPE   O14 6948   4.124   4.085   6.722  0.5068 -0.6511 -0.2140
   78SOPE   O12 6949   4.306   4.141   6.885  0.2109  0.2621  0.3926
   78SOPE   O11 6950   4.213   4.320   6.745 -0.6392 -0.6377  0.3698
   78SOPE    C1 6951   4.266   4.441   6.801  0.7194 -0.9350 -0.0224
   78SOPE    HA 6952   4.369   4.461   6.764  0.2995 -0.4590 -0.9930
   78SOPE    HB 6953   4.268   4.427   6.911 -1.2490 -1.3827 -0.0174
   78SOPE    C2 6954   4.168   4.554   6.759 -0.5110 -0.6971 -0.3021
   78SOPE    HS 6955   4.070   4.549   6.812 -0.1900  0.3976  0.4273
   78SOPE   O21 6956   4.175   4.568   6.613  0.1145 -0.2048 -0.3801
   78SOPE   C21 6957   4.074   4.520   6.545  0.9929 -0.5162  0.3190
   78SOPE   O22 6958   3.960   4.509   6.586  0.0126 -0.6303 -0.3829
   78SOPE   C22 6959   4.132   4.483   6.411 -0.2212  0.0229  0.1941
   78SOPE   H2R 6960   4.174   4.380   6.416 -1.7763 -0.6228  0.3200
   78SOPE   H2S 6961   4.204   4.564   6.385 -1.9295  1.6224  0.2111
   78SOPE    C3 6962   4.225   4.682   6.826 -0.2860 -0.8635 -0.2206
   78SOPE    HX 6963   4.234   4.675   6.936 -2.0709  1.5380  0.1639
   78SOPE    HY 6964   4.150   4.763   6.815 -2.1111 -2.3143  0.9378
   78SOPE   O31 6965   4.347   4.718   6.763 -0.4030  0.1210 -0.5078
   78SOPE   C31 6966   4.404   4.827   6.813  0.4233 -0.3030  0.5419
   78SOPE   O32 6967   4.372   4.885   6.913  0.5968 -0.1039 -0.4872
   78SOPE   C32 6968   4.509   4.883   6.709  0.4827 -0.0785  0.9537
   78SOPE   H2X 6969   4.584   4.802   6.695  0.6576  0.3972 -1.3178
   78SOPE   H2Y 6970   4.540   4.974   6.764  2.3072 -1.1448  1.7872
   78SOPE   C23 6971   4.028   4.473   6.306  0.7539 -0.1098 -0.5519
   78SOPE   H3R 6972   3.962   4.563   6.301  0.4824 -0.2498  0.3440
   78SOPE   H3S 6973   3.957   4.391   6.328  1.4497 -0.3217  1.0028
   78SOPE   C24 6974   4.079   4.462   6.161  0.3604 -0.2838 -0.0991
   78SOPE   H4R 6975   4.158   4.535   6.134 -2.8126  2.5954 -2.4572
   78SOPE   H4S 6976   4.139   4.369   6.149  0.7794  0.0352 -0.4971
   78SOPE   C25 6977   3.978   4.483   6.047 -0.4085 -0.3237  0.0724
   78SOPE   H5R 6978   3.896   4.407   6.050  0.5400 -1.3447  0.8519
   78SOPE   H5S 6979   3.941   4.587   6.056  1.1803  0.2612  0.0113
   78SOPE   C26 6980   4.047   4.454   5.912  0.4965 -0.6069 -0.5629
   78SOPE   H6R 6981   4.125   4.525   5.878 -1.2218  0.9923 -1.3386
   78SOPE   H6S 6982   4.092   4.353   5.903  0.8206 -0.6058  0.8441
   78SOPE   C27 6983   3.953   4.445   5.795  0.2010  0.6191  0.4426
   78SOPE   H7R 6984   3.885   4.367   5.836 -0.0273  1.4765  1.7724
   78SOPE   H7S 6985   3.889   4.536   5.794  0.4223  0.7843 -1.7331
   78SOPE   C28 6986   4.014   4.416   5.659  0.0846 -0.7096  0.0895
   78SOPE   H8R 6987   3.953   4.458   5.576 -0.5325  3.3228  2.3053
   78SOPE   H8S 6988   4.111   4.469   5.649  0.5945 -1.9366 -2.0515
   78SOPE   C29 6989   4.056   4.264   5.640  0.0672 -0.1183 -0.0042
   78SOPE   H91 6990   4.122   4.215   5.714  1.5761 -2.6236 -2.8023
   78SOPE  C210 6991   4.013   4.181   5.544 -0.4258  0.3214  0.4269
   78SOPE  H101 6992   4.057   4.080   5.536 -2.6430 -0.7454  0.7429
   78SOPE  C211 6993   3.921   4.223   5.436 -0.0435  0.3520  0.6025
   78SOPE  H11R 6994   3.981   4.218   5.342 -1.3082 -0.4266 -0.1962
   78SOPE  H11S 6995   3.878   4.326   5.436 -0.5407  0.2471 -2.4576
   78SOPE  C212 6996   3.807   4.120   5.443  1.5987 -0.2770  0.4259
   78SOPE  H12R 6997   3.755   4.122   5.541  1.8836 -0.3930  0.5811
   78SOPE  H12S 6998   3.842   4.015   5.432 -2.5383 -2.0035  1.7339
   78SOPE  C213 6999   3.695   4.140   5.329  0.0803  0.5231 -0.1621
   78SOPE  H13R 7000   3.738   4.109   5.231  2.5456  2.0703  0.3348
   78SOPE  H13S 7001   3.667   4.247   5.326 -1.8877  0.1411  1.6614
   78SOPE  C214 7002   3.566   4.058   5.348  0.4316 -0.0716  0.2035
   78SOPE  H14R 7003   3.535   4.075   5.453  0.7643  1.4656  0.0788
   78SOPE  H14S 7004   3.586   3.949   5.345 -1.1595 -0.3792 -0.6987
   78SOPE  C215 7005   3.468   4.099   5.234 -0.2561  0.1612 -0.2164
   78SOPE  H15R 7006   3.531   4.075   5.146  2.2760 -0.5927  1.6505
   78SOPE  H15S 7007   3.454   4.209   5.248 -3.0761  0.3497 -3.3515
   78SOPE  C216 7008   3.328   4.030   5.231 -0.3535 -0.0951  0.6058
   78SOPE  H16R 7009   3.338   3.925   5.264 -0.8985 -0.7979 -1.3492
   78SOPE  H16S 7010   3.284   4.047   5.130  0.1949 -0.9079  0.2263
   78SOPE  C217 7011   3.246   4.103   5.338 -0.2935 -0.0714  0.1377
   78SOPE  H17R 7012   3.244   4.213   5.321 -0.1114 -0.2834 -1.4036
   78SOPE  H17S 7013   3.285   4.083   5.440  1.1932 -1.7406 -0.7136
   78SOPE  C218 7014   3.107   4.049   5.337  0.2442 -0.2528 -0.1979
   78SOPE  H18R 7015   3.038   4.111   5.399 -2.4254 -1.5695 -1.6924
   78SOPE  H18S 7016   3.105   3.945   5.377  2.4557 -0.1618  0.2829
   78SOPE  H18T 7017   3.048   4.055   5.243 -2.0267 -0.8075  1.1109
   78SOPE   C33 7018   4.445   4.920   6.567 -0.2188 -0.0893  0.1961
   78SOPE   H3X 7019   4.517   4.988   6.516 -2.8670  1.0888 -2.2083
   78SOPE   H3Y 7020   4.363   4.986   6.601 -0.1963 -0.0894  0.2509
   78SOPE   C34 7021   4.418   4.808   6.475 -0.1984  0.3318 -0.6493
   78SOPE   H4X 7022   4.337   4.743   6.514 -1.0504  0.0515 -2.7371
   78SOPE   H4Y 7023   4.505   4.739   6.466  0.3613  1.0653 -1.0336
   78SOPE   C35 7024   4.373   4.855   6.337 -0.4193 -0.3668  0.1872
   78SOPE   H5X 7025   4.458   4.918   6.303 -2.5962  1.8444 -1.5422
   78SOPE   H5Y 7026   4.295   4.934   6.348 -0.5259 -0.7979  3.3416
   78SOPE   C36 7027   4.340   4.741   6.241  0.5281 -0.7176 -0.1902
   78SOPE   H6X 7028   4.230   4.724   6.243  0.5653 -1.3759 -1.7060
   78SOPE   H6Y 7029   4.395   4.646   6.261 -0.4212 -1.2954 -0.2789
   78SOPE   C37 7030   4.374   4.778   6.100  0.3677 -0.2294 -0.3422
   78SOPE   H7X 7031   4.403   4.685   6.046  1.2085  0.1225 -0.5079
   78SOPE   H7Y 7032   4.457   4.852   6.104 -1.1351  1.5617 -1.0542
   78SOPE   C38 7033   4.251   4.828   6.021 -0.0738 -0.0769 -0.7106
   78SOPE   H8X 7034   4.226   4.924   6.070  0.1388 -0.5682  0.3834
   78SOPE   H8Y 7035   4.166   4.758   6.024  0.5526 -0.9326 -1.9727
   78SOPE   C39 7036   4.305   4.848   5.880  0.6847 -0.6099 -0.2706
   78SOPE   H9X 7037   4.327   4.748   5.837 -0.4342 -2.4843  3.1916
   78SOPE   H9Y 7038   4.401   4.903   5.867 -0.2338  0.7427 -1.8029
   78SOPE  C310 7039   4.196   4.917   5.793  0.0557  0.4095  0.1464
   78SOPE  H10X 7040   4.238   4.963   5.701 -1.1339 -1.0773 -1.1822
   78SOPE  H10Y 7041   4.150   4.997   5.856 -0.2863 -0.3442  0.8688
   78SOPE  C311 7042   4.085   4.815   5.745  0.3685  0.4790  0.7081
   78SOPE  H11X 7043   4.003   4.788   5.814  0.6218  0.1318  0.8703
   78SOPE  H11Y 7044   4.136   4.723   5.710  0.7159  0.5027  1.1581
   78SOPE  C312 7045   4.018   4.879   5.613 -0.5821  0.0219  0.5237
   78SOPE  H12X 7046   4.104   4.897   5.545 -1.5716  1.1361 -0.4777
   78SOPE  H12Y 7047   3.968   4.973   5.645  1.1554 -0.0621  3.9581
   78SOPE  C313 7048   3.917   4.781   5.543  0.0981 -0.0586 -0.2471
   78SOPE  H13X 7049   3.842   4.745   5.616 -1.5362  1.6740 -0.9865
   78SOPE  H13Y 7050   3.961   4.687   5.503 -0.2388 -0.7250  0.9169
   78SOPE  C314 7051   3.848   4.850   5.420 -0.5169  0.4598  0.3965
   78SOPE  H14X 7052   3.796   4.942   5.454  0.9440  1.7459 -0.7025
   78SOPE  H14Y 7053   3.766   4.780   5.395  0.8141 -0.7438 -0.7422
   78SOPE  C315 7054   3.943   4.860   5.300 -0.7029  0.8578  0.8784
   78SOPE  H15X 7055   3.999   4.767   5.277 -2.1315  0.3331 -0.7012
   78SOPE  H15Y 7056   4.012   4.944   5.323 -2.4067  3.4032 -2.4168
   78SOPE  C316 7057   3.884   4.890   5.165 -0.2184 -0.5877 -0.0024
   78SOPE  H16X 7058   3.959   4.869   5.086  1.1467 -1.1532  1.4015
   78SOPE  H16Y 7059   3.847   4.995   5.168  0.4877 -0.3436  2.2722
   78SOPE  C317 7060   3.764   4.803   5.132 -0.0725 -0.1124  0.0291
   78SOPE  H17X 7061   3.685   4.824   5.208 -1.3176 -0.5539 -1.0917
   78SOPE  H17Y 7062   3.799   4.698   5.137 -0.1658 -0.2302 -1.3380
   78SOPE  C318 7063   3.701   4.821   4.989 -0.2171 -0.0308 -0.6048
   78SOPE  H18X 7064   3.713   4.919   4.938  2.0841  0.0592  0.0102
   78SOPE  H18Y 7065   3.596   4.786   4.992 -1.3093  2.9858  1.0502
   78SOPE  H18Z 7066   3.754   4.753   4.919  1.2298  2.2090 -1.7999
   79SOPE     N 7067   5.848   3.498   7.910 -0.7302  0.1910 -0.1710
   79SOPE   HN1 7068   5.942   3.488   7.952 -0.9968  1.1768  0.7191
   79SOPE   HN2 7069   5.786   3.518   7.991 -2.3412  1.2680 -1.5872
   79SOPE   HN3 7070   5.824   3.403   7.876 -0.9243  0.0268  0.4038
   79SOPE   C12 7071   5.831   3.597   7.795  0.7815 -0.1404  0.4529
   79SOPE  H12A 7072   5.885   3.691   7.820 -1.3652  0.9018  1.3707
   79SOPE  H12B 7073   5.723   3.622   7.786  0.8205  0.0199  0.4184
   79SOPE   C11 7074   5.868   3.540   7.662 -0.2057 -0.3218  0.4111
   79SOPE  H11A 7075   5.979   3.534   7.656 -0.1496  0.9821 -0.2332
   79SOPE  H11B 7076   5.849   3.613   7.580 -0.4623 -2.2813 -1.3688
   79SOPE     P 7077   5.671   3.427   7.540  0.0183  0.0027 -0.1175
   79SOPE   O13 7078   5.593   3.544   7.574 -0.4740  0.0408 -0.4692
   79SOPE   O14 7079   5.601   3.296   7.549 -0.1093  0.1986  0.3156
   79SOPE   O12 7080   5.802   3.416   7.632 -0.4520  0.7844  0.7757
   79SOPE   O11 7081   5.733   3.458   7.393 -0.8307 -0.1178  0.4828
   79SOPE    C1 7082   5.811   3.357   7.330  0.7066 -0.6340  0.1905
   79SOPE    HA 7083   5.758   3.327   7.237  2.1483  1.5389 -1.4251
   79SOPE    HB 7084   5.824   3.265   7.390  1.7070  0.3279  1.5216
   79SOPE    C2 7085   5.956   3.405   7.284  0.1851  0.2880  0.3234
   79SOPE    HS 7086   6.001   3.447   7.377  0.5957  0.0155  0.2465
   79SOPE   O21 7087   5.936   3.502   7.179  0.0927  0.1932 -0.2562
   79SOPE   C21 7088   6.041   3.583   7.162  0.4078  0.6022 -0.4166
   79SOPE   O22 7089   6.139   3.593   7.233 -0.1005  0.3668 -0.6443
   79SOPE   C22 7090   6.020   3.677   7.040  0.1030  0.0874 -0.0351
   79SOPE   H2R 7091   5.973   3.774   7.068 -3.1834 -1.4440  0.1292
   79SOPE   H2S 7092   5.951   3.630   6.968 -0.1236  1.6267 -0.8749
   79SOPE    C3 7093   6.033   3.283   7.231  0.1085 -0.2286 -0.4702
   79SOPE    HX 7094   6.045   3.222   7.323 -2.0080  1.0475  0.7273
   79SOPE    HY 7095   6.128   3.312   7.182 -0.2346  0.2779 -0.8506
   79SOPE   O31 7096   5.948   3.199   7.142  0.3335 -0.1669 -0.1897
   79SOPE   C31 7097   5.973   3.209   7.010  0.6389  0.5818  0.1445
   79SOPE   O32 7098   6.069   3.256   6.959 -0.8472 -0.2685 -0.3024
   79SOPE   C32 7099   5.862   3.131   6.939 -0.0835  0.0115 -0.3511
   79SOPE   H2X 7100   5.769   3.182   6.972  0.9916  1.2713  0.8549
   79SOPE   H2Y 7101   5.852   3.030   6.986  0.1206  0.0850 -0.1493
   79SOPE   C23 7102   6.155   3.701   6.963  0.6420 -0.2921 -0.7294
   79SOPE   H3R 7103   6.237   3.732   7.032  1.1820  0.0104 -1.4992
   79SOPE   H3S 7104   6.148   3.783   6.889  2.2348  0.7332  0.2022
   79SOPE   C24 7105   6.193   3.575   6.883 -0.2301 -0.1261 -0.2127
   79SOPE   H4R 7106   6.232   3.498   6.952 -2.0757 -0.5857  0.3548
   79SOPE   H4S 7107   6.099   3.541   6.835  0.1443  0.8858 -1.7363
   79SOPE   C25 7108   6.303   3.602   6.781 -0.1533 -0.4162 -0.0727
   79SOPE   H5R 7109   6.276   3.686   6.713  0.5309 -0.9230 -1.0041
   79SOPE   H5S 7110   6.401   3.620   6.830  0.5941  1.0562 -1.9631
   79SOPE   C26 7111   6.324   3.487   6.681  0.8030  0.0432  0.2660
   79SOPE   H6R 7112   6.361   3.392   6.724 -2.3011 -1.0660  0.7310
   79SOPE   H6S 7113   6.229   3.454   6.634  1.6307 -4.2607  1.1938
   79SOPE   C27 7114   6.421   3.525   6.574 -0.8194  0.0163  1.1801
   79SOPE   H7R 7115   6.385   3.621   6.531  0.7077  0.3912  0.6724
   79SOPE   H7S 7116   6.516   3.551   6.626 -0.5669 -1.3329  1.4196
   79SOPE   C28 7117   6.452   3.422   6.456 -0.2796 -0.2248  0.2698
   79SOPE   H8R 7118   6.517   3.489   6.396 -1.5926 -0.1166 -1.0935
   79SOPE   H8S 7119   6.495   3.325   6.491  0.0949 -0.7571 -1.5695
   79SOPE   C29 7120   6.332   3.382   6.370 -0.3624 -0.1981 -0.0952
   79SOPE   H91 7121   6.269   3.304   6.415 -0.6734  0.5100  0.7261
   79SOPE  C210 7122   6.307   3.442   6.253 -0.3409  0.5601  0.3148
   79SOPE  H101 7123   6.215   3.418   6.197 -0.3246 -1.2687  1.0116
   79SOPE  C211 7124   6.386   3.552   6.181  0.0624 -0.3823  0.1137
   79SOPE  H11R 7125   6.438   3.622   6.249 -2.5896  0.7371  1.1534
   79SOPE  H11S 7126   6.317   3.613   6.119  2.2076  1.4708 -0.5623
   79SOPE  C212 7127   6.487   3.488   6.088 -0.7314 -0.0416 -0.3572
   79SOPE  H12R 7128   6.455   3.410   6.015 -0.0297 -1.0740  0.4286
   79SOPE  H12S 7129   6.556   3.430   6.152  1.6919  4.2059  1.2916
   79SOPE  C213 7130   6.569   3.588   6.000 -1.1884  0.2973 -0.0003
   79SOPE  H13R 7131   6.646   3.528   5.946  0.2278 -0.5180  2.7360
   79SOPE  H13S 7132   6.644   3.648   6.055  0.9907 -1.9396 -0.3670
   79SOPE  C214 7133   6.485   3.681   5.917  0.4042  0.8575  0.3513
   79SOPE  H14R 7134   6.442   3.761   5.981 -1.7785  1.6488 -1.9431
   79SOPE  H14S 7135   6.400   3.628   5.870  1.0950 -0.4381  0.5246
   79SOPE  C215 7136   6.568   3.743   5.812 -0.5663 -1.1263  1.4396
   79SOPE  H15R 7137   6.649   3.680   5.770 -0.3094  0.3710 -0.4541
   79SOPE  H15S 7138   6.633   3.824   5.849 -0.1792  1.1331 -3.3687
   79SOPE  C216 7139   6.487   3.790   5.682 -0.2947 -0.1115 -0.1297
   79SOPE  H16R 7140   6.390   3.836   5.708 -0.7771 -1.1108 -0.0932
   79SOPE  H16S 7141   6.465   3.694   5.631 -0.9664 -0.9579  1.6474
   79SOPE  C217 7142   6.560   3.903   5.596 -0.2899  0.0223  0.0032
   79SOPE  H17R 7143   6.661   3.865   5.570  0.4749  2.6061 -1.1124
   79SOPE  H17S 7144   6.576   3.978   5.676 -1.2307  1.1076 -0.7942
   79SOPE  C218 7145   6.485   3.957   5.479  0.2833 -0.1375  0.6588
   79SOPE  H18R 7146   6.395   4.011   5.517 -0.5993 -1.7159  0.9047
   79SOPE  H18S 7147   6.458   3.875   5.409  2.7964 -1.2929  0.9599
   79SOPE  H18T 7148   6.548   4.029   5.423  2.3174 -1.5430  1.0392
   79SOPE   C33 7149   5.868   3.126   6.789  0.7169  0.0230 -0.3155
   79SOPE   H3X 7150   5.949   3.068   6.740  0.0932  1.3397 -3.1086
   79SOPE   H3Y 7151   5.881   3.230   6.752 -1.2496  0.2395 -0.4953
   79SOPE   C34 7152   5.740   3.069   6.719  0.0453 -0.2769  0.8960
   79SOPE   H4X 7153   5.652   3.123   6.759 -1.1271 -1.7040  0.3633
   79SOPE   H4Y 7154   5.725   2.966   6.759  0.5427 -0.6784  0.0893
   79SOPE   C35 7155   5.757   3.074   6.564  0.3211  0.0071  0.3190
   79SOPE   H5X 7156   5.809   3.161   6.517 -0.7289 -1.3340 -3.8254
   79SOPE   H5Y 7157   5.657   3.082   6.516  0.2952  1.8152  0.5852
   79SOPE   C36 7158   5.829   2.952   6.516  0.1797 -0.0364  0.0736
   79SOPE   H6X 7159   5.759   2.865   6.524  1.1724 -0.8972 -0.3543
   79SOPE   H6Y 7160   5.915   2.938   6.585  0.6233  2.2004  0.0340
   79SOPE   C37 7161   5.884   2.967   6.371 -0.0765 -0.4398  0.3454
   79SOPE   H7X 7162   5.958   3.048   6.386  1.2511 -1.7101  0.9101
   79SOPE   H7Y 7163   5.800   3.006   6.310  0.3911  0.5305  0.3102
   79SOPE   C38 7164   5.957   2.844   6.315 -0.1723  0.4250 -0.2401
   79SOPE   H8X 7165   5.878   2.766   6.312 -0.9766  1.1049  1.8330
   79SOPE   H8Y 7166   6.036   2.805   6.383 -0.2074 -1.4224 -1.1952
   79SOPE   C39 7167   6.030   2.855   6.182 -0.0142  0.6325 -0.0976
   79SOPE   H9X 7168   5.964   2.898   6.103  0.6476  0.6887 -0.6258
   79SOPE   H9Y 7169   6.066   2.756   6.147 -2.6937 -0.5588  0.2811
   79SOPE  C310 7170   6.140   2.959   6.189  0.5513 -0.0157  0.8902
   79SOPE  H10X 7171   6.215   2.931   6.266  1.7723  0.4709 -0.0986
   79SOPE  H10Y 7172   6.101   3.056   6.226  1.3860  0.7182 -0.1087
   79SOPE  C311 7173   6.215   2.974   6.057 -0.3869  0.1324  0.5151
   79SOPE  H11X 7174   6.153   2.984   5.966  1.6363 -1.7750 -1.1924
   79SOPE  H11Y 7175   6.287   2.891   6.040 -3.1412 -2.3765  0.4030
   79SOPE  C312 7176   6.306   3.101   6.055 -0.3087 -0.2263  0.3093
   79SOPE  H12X 7177   6.360   3.113   6.152  0.1758  0.2447 -0.0181
   79SOPE  H12Y 7178   6.244   3.192   6.056  0.6154  0.4358 -0.6980
   79SOPE  C313 7179   6.422   3.100   5.948  0.2531  0.2634 -0.1369
   79SOPE  H13X 7180   6.491   3.012   5.946  0.1749  0.2150 -1.5025
   79SOPE  H13Y 7181   6.487   3.186   5.973 -1.8154  1.4106  1.6003
   79SOPE  C314 7182   6.358   3.122   5.816 -0.1648 -0.4767 -0.1277
   79SOPE  H14X 7183   6.318   3.226   5.812 -0.1612 -0.3872  1.5374
   79SOPE  H14Y 7184   6.270   3.056   5.803 -1.6320  0.8869  2.1408
   79SOPE  C315 7185   6.466   3.109   5.704  0.0861 -0.1921 -0.2481
   79SOPE  H15X 7186   6.484   3.002   5.684  0.1200 -0.2884  0.2772
   79SOPE  H15Y 7187   6.559   3.157   5.743 -0.3370  0.6455 -0.2370
   79SOPE  C316 7188   6.416   3.184   5.578  0.0752 -0.0215 -0.0678
   79SOPE  H16X 7189   6.380   3.288   5.594 -1.2790 -0.6522  1.2060
   79SOPE  H16Y 7190   6.333   3.129   5.529  0.5895  0.7892 -1.9247
   79SOPE  C317 7191   6.535   3.191   5.481  0.3870  0.3474  0.0480
   79SOPE  H17X 7192   6.590   3.094   5.488 -1.7851 -1.1366 -1.9603
   79SOPE  H17Y 7193   6.610   3.269   5.505  0.7954  0.4626 -1.5121
   79SOPE  C318 7194   6.492   3.212   5.336 -0.1471 -0.4377 -1.2278
   79SOPE  H18X 7195   6.426   3.129   5.306  0.9076 -1.2175 -1.4388
   79SOPE  H18Y 7196   6.587   3.215   5.278  1.1201 -0.3783  0.7642
   79SOPE  H18Z 7197   6.441   3.310   5.324  0.2898  0.4342  2.7102
   80SOPE     N 7198   2.034   4.347   7.219 -0.1619 -0.4313 -0.1752
   80SOPE   HN1 7199   1.951   4.286   7.227  0.6759 -1.9681 -2.3600
   80SOPE   HN2 7200   2.098   4.314   7.294 -0.9232 -0.4790  0.4716
   80SOPE   HN3 7201   2.016   4.449   7.235  0.7922 -0.2985  0.1315
   80SOPE   C12 7202   2.099   4.326   7.085 -0.1871 -0.0219  0.4582
   80SOPE  H12A 7203   2.015   4.350   7.017 -1.1693 -3.6259  0.2045
   80SOPE  H12B 7204   2.123   4.219   7.066  0.0187  0.3550 -1.5494
   80SOPE   C11 7205   2.222   4.414   7.074 -0.1485 -0.2244 -0.6929
   80SOPE  H11A 7206   2.197   4.520   7.094  0.7918  0.3203 -2.1810
   80SOPE  H11B 7207   2.259   4.400   6.970 -0.6264 -2.3034 -0.6404
   80SOPE     P 7208   2.456   4.453   7.188  0.0201 -0.0020 -0.0082
   80SOPE   O13 7209   2.547   4.442   7.074  0.3435 -0.1383  0.4705
   80SOPE   O14 7210   2.508   4.421   7.321  0.0920 -0.2314 -0.3588
   80SOPE   O12 7211   2.330   4.359   7.154 -0.3043  0.8642  0.3277
   80SOPE   O11 7212   2.398   4.602   7.193  0.4087 -0.3653 -0.6882
   80SOPE    C1 7213   2.480   4.715   7.148 -0.0514 -0.3798  0.4719
   80SOPE    HA 7214   2.589   4.700   7.159 -0.2533 -2.0496  0.4276
   80SOPE    HB 7215   2.440   4.804   7.201 -2.0950  0.4556 -2.2447
   80SOPE    C2 7216   2.461   4.735   6.996  0.6107  0.7424 -0.2553
   80SOPE    HS 7217   2.461   4.633   6.951  2.3100 -0.3687  2.0512
   80SOPE   O21 7218   2.565   4.832   6.956  0.2387 -0.0345  0.2250
   80SOPE   C21 7219   2.653   4.774   6.880 -0.7362  0.0615 -0.6799
   80SOPE   O22 7220   2.667   4.655   6.859 -0.5545  0.2651  0.3689
   80SOPE   C22 7221   2.740   4.885   6.821 -0.1676  0.9292 -0.0008
   80SOPE   H2R 7222   2.834   4.843   6.780 -1.4769 -0.7233 -1.4539
   80SOPE   H2S 7223   2.761   4.956   6.904 -0.2194  0.4892  0.3892
   80SOPE    C3 7224   2.319   4.793   6.957  0.8589 -0.0520 -0.8680
   80SOPE    HX 7225   2.303   4.866   7.039 -1.8334 -1.0372 -0.4171
   80SOPE    HY 7226   2.241   4.714   6.950  0.6680  0.1396 -0.9297
   80SOPE   O31 7227   2.328   4.852   6.824 -0.0023  0.4000 -0.0723
   80SOPE   C31 7228   2.320   4.769   6.718  0.7641  0.6309  0.6172
   80SOPE   O32 7229   2.340   4.651   6.712 -0.5262 -0.0957 -0.1650
   80SOPE   C32 7230   2.279   4.844   6.592 -0.5972  0.0827  0.5204
   80SOPE   H2X 7231   2.362   4.826   6.519 -0.4122  1.6282  0.3078
   80SOPE   H2Y 7232   2.276   4.953   6.615  1.0300 -0.1160  1.8558
   80SOPE   C23 7233   2.681   4.961   6.692  0.1009  0.2114 -0.5669
   80SOPE   H3R 7234   2.589   5.015   6.721  0.1088 -0.0023 -0.1425
   80SOPE   H3S 7235   2.636   4.888   6.621 -0.5303  0.7619 -0.7343
   80SOPE   C24 7236   2.768   5.061   6.619  0.6611  0.0687  0.4471
   80SOPE   H4R 7237   2.812   5.127   6.696 -0.2692 -1.0595  2.0021
   80SOPE   H4S 7238   2.852   5.004   6.574  0.2235 -1.6753  1.7620
   80SOPE   C25 7239   2.692   5.150   6.521  0.2394 -0.5437 -0.6249
   80SOPE   H5R 7240   2.611   5.197   6.581  1.7255  1.4763 -0.0908
   80SOPE   H5S 7241   2.766   5.219   6.476 -0.3441 -0.5756 -1.6673
   80SOPE   C26 7242   2.619   5.076   6.414 -0.4229 -0.1170  0.1418
   80SOPE   H6R 7243   2.691   5.003   6.371  1.2492  0.3755  1.9482
   80SOPE   H6S 7244   2.523   5.032   6.449 -0.2874 -0.5953 -0.0841
   80SOPE   C27 7245   2.598   5.179   6.298  0.2954 -0.2054 -0.2588
   80SOPE   H7R 7246   2.517   5.248   6.328 -0.2000 -1.4726  1.5029
   80SOPE   H7S 7247   2.689   5.240   6.277  0.6928 -0.0876  1.6507
   80SOPE   C28 7248   2.550   5.107   6.163 -0.1634 -0.7275  0.2260
   80SOPE   H8R 7249   2.472   5.030   6.182  0.5421 -1.5402 -0.0733
   80SOPE   H8S 7250   2.505   5.188   6.103 -2.5159 -1.1285  1.3328
   80SOPE   C29 7251   2.653   5.038   6.092 -0.0662  0.5557  1.0349
   80SOPE   H91 7252   2.671   4.931   6.108 -2.0216 -0.2223 -1.2704
   80SOPE  C210 7253   2.726   5.091   5.987  1.2850 -0.4248 -0.5986
   80SOPE  H101 7254   2.797   5.023   5.937  0.2907 -3.3411  1.6652
   80SOPE  C211 7255   2.734   5.234   5.948  0.1508 -0.0729 -0.1312
   80SOPE  H11R 7256   2.821   5.282   5.998 -1.9248  3.0409  0.8217
   80SOPE  H11S 7257   2.648   5.296   5.980 -0.2173  0.5948 -2.2480
   80SOPE  C212 7258   2.757   5.254   5.796  0.3158 -0.1702 -0.6360
   80SOPE  H12R 7259   2.842   5.191   5.763  1.1831  0.6304  0.0242
   80SOPE  H12S 7260   2.778   5.363   5.786 -1.4686  0.4434  1.5946
   80SOPE  C213 7261   2.627   5.227   5.722 -0.2015 -0.0123 -0.0465
   80SOPE  H13R 7262   2.546   5.273   5.783  0.9828  2.6718 -0.3780
   80SOPE  H13S 7263   2.611   5.118   5.709 -0.9712  0.0855  0.0166
   80SOPE  C214 7264   2.621   5.294   5.575 -0.2961  0.0311 -0.0922
   80SOPE  H14R 7265   2.667   5.395   5.574  1.3505 -0.6833  0.2026
   80SOPE  H14S 7266   2.512   5.299   5.557 -0.0012  0.9038 -1.7674
   80SOPE  C215 7267   2.672   5.214   5.460  0.2515 -0.2372  0.7971
   80SOPE  H15R 7268   2.648   5.106   5.474  3.3835 -1.1903 -0.3930
   80SOPE  H15S 7269   2.780   5.230   5.443 -0.0621  1.2361  0.0431
   80SOPE  C216 7270   2.595   5.259   5.337  1.1004  0.1696  0.4298
   80SOPE  H16R 7271   2.609   5.369   5.331 -1.8721  0.6443  0.6196
   80SOPE  H16S 7272   2.489   5.242   5.364  0.6888  3.2458  1.0273
   80SOPE  C217 7273   2.626   5.192   5.194  0.3706 -0.2691 -0.1444
   80SOPE  H17R 7274   2.559   5.244   5.122 -1.9060  0.0156  2.0315
   80SOPE  H17S 7275   2.619   5.082   5.193  0.6805 -0.2903 -0.3530
   80SOPE  C218 7276   2.769   5.230   5.158  0.1907 -0.9174  0.2890
   80SOPE  H18R 7277   2.778   5.341   5.161 -1.8176 -0.5891 -2.3378
   80SOPE  H18S 7278   2.786   5.203   5.052 -1.0679  2.7652 -0.9974
   80SOPE  H18T 7279   2.838   5.177   5.227  0.8302  2.4928  2.5331
   80SOPE   C33 7280   2.163   4.780   6.512  0.7096  0.3801  0.2852
   80SOPE   H3X 7281   2.074   4.783   6.579  0.2652  0.2178 -0.2901
   80SOPE   H3Y 7282   2.175   4.670   6.500  2.1648  0.6513 -1.1162
   80SOPE   C34 7283   2.127   4.860   6.385 -0.6588  0.4248  0.3304
   80SOPE   H4X 7284   2.079   4.956   6.414 -0.2471  0.4111  1.0935
   80SOPE   H4Y 7285   2.045   4.797   6.344  1.1979 -2.1845  0.3834
   80SOPE   C35 7286   2.230   4.879   6.269 -0.2266 -0.2437 -0.3984
   80SOPE   H5X 7287   2.280   4.783   6.244 -0.4645 -0.1032 -1.4482
   80SOPE   H5Y 7288   2.303   4.952   6.308  1.7622 -1.9234 -0.8228
   80SOPE   C36 7289   2.151   4.939   6.152 -0.2334  0.4565  0.0143
   80SOPE   H6X 7290   2.093   5.031   6.174  0.8550  0.3542  4.0899
   80SOPE   H6Y 7291   2.075   4.861   6.128  0.3084 -1.0206  2.6798
   80SOPE   C37 7292   2.236   4.968   6.023 -0.1570  0.3550 -0.3849
   80SOPE   H7X 7293   2.304   5.054   6.041  0.6606 -0.4686  0.5865
   80SOPE   H7Y 7294   2.164   4.997   5.944  0.1793  2.1961 -0.0570
   80SOPE   C38 7295   2.318   4.845   5.971  0.3103  0.3718  0.2817
   80SOPE   H8X 7296   2.238   4.770   5.954  0.2689  0.7849 -1.5848
   80SOPE   H8Y 7297   2.394   4.811   6.044 -1.0474  0.5762  1.8311
   80SOPE   C39 7298   2.384   4.884   5.838  0.5768  0.0765  0.5578
   80SOPE   H9X 7299   2.437   4.981   5.849  1.0308  0.2415 -2.4063
   80SOPE   H9Y 7300   2.299   4.916   5.774 -0.2153  0.3898  1.7163
   80SOPE  C310 7301   2.471   4.781   5.771 -0.5088 -0.2644  0.5530
   80SOPE  H10X 7302   2.534   4.739   5.852  0.8887 -0.1133 -0.4154
   80SOPE  H10Y 7303   2.547   4.830   5.707 -0.6728  0.0896  0.6258
   80SOPE  C311 7304   2.398   4.680   5.687  0.3871  0.3332 -0.1762
   80SOPE  H11X 7305   2.332   4.622   5.755 -0.7784  0.5177 -1.1137
   80SOPE  H11Y 7306   2.467   4.598   5.655 -0.5908 -1.5907  2.3491
   80SOPE  C312 7307   2.327   4.736   5.563 -0.1873  0.1650  0.2021
   80SOPE  H12X 7308   2.238   4.790   5.601 -1.5312 -1.9611  0.2339
   80SOPE  H12Y 7309   2.285   4.648   5.510 -1.2890 -0.7287  2.4354
   80SOPE  C313 7310   2.416   4.829   5.474 -0.0579  0.2653  0.0478
   80SOPE  H13X 7311   2.466   4.911   5.530 -1.9806  0.5143  1.5009
   80SOPE  H13Y 7312   2.343   4.885   5.411  1.4030  1.5301 -0.5955
   80SOPE  C314 7313   2.515   4.758   5.383 -0.5922  0.9074  0.0649
   80SOPE  H14X 7314   2.596   4.726   5.452  0.3773  2.0350 -0.5304
   80SOPE  H14Y 7315   2.561   4.836   5.320 -0.6541  0.0230 -1.1159
   80SOPE  C315 7316   2.451   4.667   5.277  0.1060 -0.1660  0.7555
   80SOPE  H15X 7317   2.370   4.601   5.313 -1.4032 -0.5287 -2.8581
   80SOPE  H15Y 7318   2.523   4.605   5.220 -0.0848  1.5708 -1.5275
   80SOPE  C316 7319   2.406   4.750   5.155 -0.4368 -0.6761 -0.1621
   80SOPE  H16X 7320   2.488   4.812   5.111 -1.5853 -0.5670 -2.3162
   80SOPE  H16Y 7321   2.334   4.833   5.174 -1.1394 -1.4317  0.5122
   80SOPE  C317 7322   2.335   4.659   5.049  0.3478 -0.1805 -0.2539
   80SOPE  H17X 7323   2.248   4.613   5.100 -0.0988  1.3203  0.3951
   80SOPE  H17Y 7324   2.393   4.566   5.027 -0.5311 -0.9818  0.7212
   80SOPE  C318 7325   2.300   4.725   4.919  0.6820  0.3023  0.5940
   80SOPE  H18X 7326   2.284   4.647   4.841  0.7769  1.3141 -0.4523
   80SOPE  H18Y 7327   2.379   4.796   4.889 -0.9380  1.4524 -1.1866
   80SOPE  H18Z 7328   2.212   4.787   4.948  1.8611  0.4513  4.4205
   81SOPE     N 7329   2.996   0.549   7.305  0.5048  0.1489  0.0079
   81SOPE   HN1 7330   3.005   0.557   7.408 -0.3729 -1.3263  0.2383
   81SOPE   HN2 7331   3.096   0.555   7.278  0.7327  0.5262  0.9185
   81SOPE   HN3 7332   2.938   0.630   7.275  0.2305  0.3232  0.9790
   81SOPE   C12 7333   2.929   0.426   7.243 -0.1398 -0.9049 -0.1367
   81SOPE  H12A 7334   2.840   0.395   7.303 -0.7766  0.4551 -0.3575
   81SOPE  H12B 7335   3.002   0.342   7.257  1.1398 -0.1445 -1.8788
   81SOPE   C11 7336   2.904   0.448   7.100  0.5861  0.2519 -0.1775
   81SOPE  H11A 7337   2.828   0.530   7.097  0.1676  0.1859  3.7247
   81SOPE  H11B 7338   2.856   0.354   7.065 -1.1143  1.0189 -0.0254
   81SOPE     P 7339   3.115   0.369   6.963 -0.2832  0.0706 -0.2767
   81SOPE   O13 7340   3.147   0.281   7.076  0.0825  0.1150  0.5899
   81SOPE   O14 7341   3.227   0.439   6.895 -0.1968  0.0787  0.6479
   81SOPE   O12 7342   3.024   0.483   7.028  0.4614  0.1042  0.0574
   81SOPE   O11 7343   3.017   0.298   6.865  0.4367 -0.2910  1.0112
   81SOPE    C1 7344   2.980   0.369   6.739 -0.3334 -0.7974 -0.7392
   81SOPE    HA 7345   3.003   0.477   6.744  0.7877 -1.0891  2.1824
   81SOPE    HB 7346   2.873   0.363   6.709 -0.3677 -3.6968 -0.3374
   81SOPE    C2 7347   3.068   0.324   6.616 -0.3262 -0.0660  0.0161
   81SOPE    HS 7348   3.165   0.333   6.670 -0.9955  0.9714  1.1000
   81SOPE   O21 7349   3.058   0.427   6.512 -0.1851  0.3071 -0.4537
   81SOPE   C21 7350   3.164   0.434   6.427 -0.6241  0.1718 -0.7064
   81SOPE   O22 7351   3.263   0.359   6.434  0.0582 -0.3798 -0.8493
   81SOPE   C22 7352   3.140   0.540   6.317 -0.2999 -0.4258 -0.2575
   81SOPE   H2R 7353   3.185   0.637   6.346  0.2291 -0.2359 -1.6395
   81SOPE   H2S 7354   3.031   0.560   6.312 -0.2858  0.9762  2.9865
   81SOPE    C3 7355   3.041   0.179   6.572  0.1014  0.3735 -0.1012
   81SOPE    HX 7356   3.046   0.113   6.661 -1.7201  1.0048  0.5055
   81SOPE    HY 7357   3.129   0.161   6.507 -0.3208 -0.7278 -0.3913
   81SOPE   O31 7358   2.920   0.162   6.495 -0.7081  0.8158 -0.3165
   81SOPE   C31 7359   2.807   0.122   6.555  0.1501  0.6018 -0.2235
   81SOPE   O32 7360   2.799   0.109   6.677 -0.1720  0.1916  0.1190
   81SOPE   C32 7361   2.705   0.095   6.449  0.0113  0.3053 -0.2157
   81SOPE   H2X 7362   2.667   0.191   6.407 -0.7207 -0.2131 -0.7632
   81SOPE   H2Y 7363   2.621   0.055   6.510  0.1377  2.3497  1.3935
   81SOPE   C23 7364   3.192   0.490   6.185  0.2065  0.3439  0.0612
   81SOPE   H3R 7365   3.125   0.415   6.136  0.9655 -1.2686  1.3697
   81SOPE   H3S 7366   3.294   0.446   6.189  0.5801  0.8781 -2.1940
   81SOPE   C24 7367   3.203   0.604   6.083 -0.6199  0.7014  0.1253
   81SOPE   H4R 7368   3.101   0.638   6.055 -0.6715  2.2751  1.9652
   81SOPE   H4S 7369   3.267   0.689   6.114 -0.1903  0.0000  1.2045
   81SOPE   C25 7370   3.265   0.561   5.951 -0.5784  0.1483  0.1745
   81SOPE   H5R 7371   3.360   0.505   5.966 -1.0698 -0.9720 -0.6804
   81SOPE   H5S 7372   3.197   0.482   5.912 -1.0492 -0.3715  1.9475
   81SOPE   C26 7373   3.283   0.668   5.840  0.5601 -0.4898 -0.1235
   81SOPE   H6R 7374   3.316   0.617   5.747  1.8075  0.7002 -0.3659
   81SOPE   H6S 7375   3.194   0.731   5.816  2.0258  2.4601  1.5976
   81SOPE   C27 7376   3.390   0.765   5.876  0.2384  0.7159  0.2916
   81SOPE   H7R 7377   3.368   0.803   5.978 -2.2683  1.7501 -0.5483
   81SOPE   H7S 7378   3.483   0.704   5.871  0.5221  1.2270 -2.2709
   81SOPE   C28 7379   3.407   0.878   5.781  0.3833 -0.1021 -0.2900
   81SOPE   H8R 7380   3.307   0.926   5.784 -0.0253 -0.9714  0.3491
   81SOPE   H8S 7381   3.478   0.952   5.825 -0.8052 -0.0057  1.5520
   81SOPE   C29 7382   3.449   0.840   5.636  0.0985 -0.0986 -0.6747
   81SOPE   H91 7383   3.551   0.797   5.633  0.7698  1.4403 -1.0743
   81SOPE  C210 7384   3.380   0.856   5.525 -0.6778 -0.2085  0.4175
   81SOPE  H101 7385   3.427   0.825   5.431 -0.8510  1.8209 -0.3904
   81SOPE  C211 7386   3.232   0.892   5.515  0.6825 -0.0801 -1.0182
   81SOPE  H11R 7387   3.206   0.980   5.452 -4.5190 -0.0741  0.6655
   81SOPE  H11S 7388   3.189   0.916   5.614  2.7050  2.8113 -0.7092
   81SOPE  C212 7389   3.145   0.780   5.452  0.2139 -0.4659 -0.3031
   81SOPE  H12R 7390   3.056   0.765   5.518  2.1508  0.3607  2.6818
   81SOPE  H12S 7391   3.202   0.685   5.451 -1.2679 -1.4616  1.5294
   81SOPE  C213 7392   3.092   0.811   5.308 -0.1470 -0.5480  0.0900
   81SOPE  H13R 7393   3.055   0.915   5.295  0.3625 -0.6026 -2.3451
   81SOPE  H13S 7394   3.010   0.744   5.276 -2.3244  0.8878  2.2766
   81SOPE  C214 7395   3.204   0.823   5.201 -0.0124  0.7591  0.6337
   81SOPE  H14R 7396   3.238   0.718   5.184 -0.7396  0.6388 -0.1677
   81SOPE  H14S 7397   3.286   0.882   5.246 -0.6478  1.6696  0.6057
   81SOPE  C215 7398   3.151   0.871   5.065 -0.4360  0.1465 -0.3634
   81SOPE  H15R 7399   3.068   0.809   5.025  0.8043 -0.9528 -1.3142
   81SOPE  H15S 7400   3.232   0.848   4.992 -2.3043 -1.3575 -2.0908
   81SOPE  C216 7401   3.133   1.021   5.071 -0.1727  0.3197  0.8296
   81SOPE  H16R 7402   3.225   1.050   5.125  0.7800 -1.0156 -0.0113
   81SOPE  H16S 7403   3.049   1.053   5.137  1.1875  1.8594  1.8900
   81SOPE  C217 7404   3.127   1.109   4.943  0.4484  0.0300  0.4876
   81SOPE  H17R 7405   3.048   1.064   4.878  1.7115 -1.2423 -0.2312
   81SOPE  H17S 7406   3.222   1.094   4.888  0.0308  0.0943 -0.2640
   81SOPE  C218 7407   3.119   1.257   4.981  0.6446 -0.4896 -0.4507
   81SOPE  H18R 7408   3.055   1.273   5.070 -0.2454 -0.7729 -1.0270
   81SOPE  H18S 7409   3.085   1.310   4.890  1.8576 -0.0141 -0.6498
   81SOPE  H18T 7410   3.217   1.304   5.004 -0.6202  2.8080 -1.2056
   81SOPE   C33 7411   2.752   0.003   6.330  0.3062  0.2669  0.2696
   81SOPE   H3X 7412   2.731  -0.099   6.367 -2.9488  1.9989  3.8770
   81SOPE   H3Y 7413   2.860   0.003   6.306  0.1280 -0.3166 -0.6034
   81SOPE   C34 7414   2.668   0.009   6.196  0.6809  0.3077 -0.0186
   81SOPE   H4X 7415   2.657   0.115   6.164  2.0455  1.5858  3.3147
   81SOPE   H4Y 7416   2.563  -0.022   6.215  0.6667 -0.0827 -0.6966
   81SOPE   C35 7417   2.711  -0.073   6.073 -0.7378 -0.2810 -1.2272
   81SOPE   H5X 7418   2.671  -0.176   6.077 -0.7373 -0.2748  2.2495
   81SOPE   H5Y 7419   2.822  -0.068   6.075 -0.7672  0.3157  0.1833
   81SOPE   C36 7420   2.663  -0.016   5.934  0.9298  0.1539  0.1689
   81SOPE   H6X 7421   2.684   0.092   5.950 -2.0000  0.4657  3.0944
   81SOPE   H6Y 7422   2.552  -0.018   5.924  0.9969 -1.0254 -0.5567
   81SOPE   C37 7423   2.734  -0.095   5.824  0.0319 -0.0578 -0.4403
   81SOPE   H7X 7424   2.712  -0.202   5.842  1.2268  0.0550  2.0027
   81SOPE   H7Y 7425   2.844  -0.079   5.826 -0.2405  2.4900 -1.3412
   81SOPE   C38 7426   2.699  -0.057   5.680  0.4461  0.6458 -1.0094
   81SOPE   H8X 7427   2.750   0.038   5.655  0.5798  1.3551  1.7013
   81SOPE   H8Y 7428   2.590  -0.043   5.662 -0.1283 -0.8169  1.0002
   81SOPE   C39 7429   2.747  -0.162   5.579 -0.0807 -0.2864  0.7883
   81SOPE   H9X 7430   2.681  -0.251   5.585 -0.0817 -0.6897 -2.9146
   81SOPE   H9Y 7431   2.853  -0.191   5.589  0.3241  0.4851 -0.9626
   81SOPE  C310 7432   2.728  -0.093   5.446  0.3306  0.1014  0.1217
   81SOPE  H10X 7433   2.787   0.001   5.436 -0.3003  0.5725  0.7003
   81SOPE  H10Y 7434   2.623  -0.057   5.434  0.5290  0.4736 -0.5145
   81SOPE  C311 7435   2.766  -0.182   5.325  0.1157  0.4358  0.0825
   81SOPE  H11X 7436   2.706  -0.273   5.342  1.4122 -0.6658 -0.9830
   81SOPE  H11Y 7437   2.874  -0.207   5.321 -0.2745 -1.2170 -1.3409
   81SOPE  C312 7438   2.727  -0.121   5.192  0.2321  0.1044  0.8869
   81SOPE  H12X 7439   2.622  -0.082   5.190 -0.1592 -0.6610 -2.9733
   81SOPE  H12Y 7440   2.733  -0.201   5.115  0.9024  2.1441 -1.3118
   81SOPE  C313 7441   2.826  -0.021   5.142 -0.4445  0.6306  0.1819
   81SOPE  H13X 7442   2.927  -0.069   5.150 -0.7168 -0.7008 -3.0187
   81SOPE  H13Y 7443   2.810   0.063   5.213  2.7277  0.1535  1.6380
   81SOPE  C314 7444   2.804   0.011   4.994  0.2598 -0.4221  0.1161
   81SOPE  H14X 7445   2.710   0.069   4.982  1.6564  1.4504 -3.1785
   81SOPE  H14Y 7446   2.809  -0.081   4.932 -1.5542 -1.2876  1.1760
   81SOPE  C315 7447   2.922   0.091   4.947  0.2494 -0.2661 -0.5076
   81SOPE  H15X 7448   2.906   0.110   4.839 -0.3713 -0.9017 -0.5321
   81SOPE  H15Y 7449   3.016   0.033   4.962  0.9050  1.3693  2.5679
   81SOPE  C316 7450   2.930   0.233   5.017  0.1095 -0.3475 -0.0640
   81SOPE  H16X 7451   2.955   0.223   5.124 -0.0075  0.6262  0.0702
   81SOPE  H16Y 7452   2.821   0.256   5.015 -0.0178 -0.8106  0.9693
   81SOPE  C317 7453   3.011   0.335   4.939  0.1799  0.0251 -0.2642
   81SOPE  H17X 7454   2.977   0.339   4.834  0.1710 -1.4981 -0.3363
   81SOPE  H17Y 7455   3.120   0.311   4.939 -0.1312 -1.4243 -0.4053
   81SOPE  C318 7456   2.983   0.471   4.999  0.1020 -0.1914  0.8682
   81SOPE  H18X 7457   3.051   0.495   5.083  1.8585 -1.5860 -0.0923
   81SOPE  H18Y 7458   2.879   0.478   5.036  0.1964  1.9909  0.8686
   81SOPE  H18Z 7459   2.994   0.551   4.922 -1.8544  1.7104  2.4530
   82SOPE     N 7460   1.174   0.226   7.110 -0.5927  0.1069  0.6891
   82SOPE   HN1 7461   1.141   0.189   7.018  1.2225  0.3894 -0.1245
   82SOPE   HN2 7462   1.252   0.161   7.132  0.2957  1.3163  1.1834
   82SOPE   HN3 7463   1.102   0.215   7.184  0.1441 -0.1029  1.3895
   82SOPE   C12 7464   1.211   0.378   7.114  0.5722 -0.6048  0.8908
   82SOPE  H12A 7465   1.300   0.397   7.050 -1.0043 -0.5489 -1.3963
   82SOPE  H12B 7466   1.219   0.402   7.222  0.4606  2.9899  0.2233
   82SOPE   C11 7467   1.087   0.462   7.070  0.4099  0.0720 -0.5609
   82SOPE  H11A 7468   1.072   0.452   6.961  2.3714  0.7293 -0.9275
   82SOPE  H11B 7469   1.118   0.568   7.082 -0.5318  0.1233  2.3021
   82SOPE     P 7470   0.854   0.517   7.200  0.1708  0.0775  0.5110
   82SOPE   O13 7471   0.859   0.521   7.349  0.2235  0.3817  0.2867
   82SOPE   O14 7472   0.723   0.482   7.137 -0.3052  0.4615  0.2011
   82SOPE   O12 7473   0.964   0.423   7.141 -0.2506 -0.1457 -0.0743
   82SOPE   O11 7474   0.904   0.653   7.141 -0.4523  0.4122 -0.2510
   82SOPE    C1 7475   0.804   0.742   7.082 -0.3143 -0.5911  0.4854
   82SOPE    HA 7476   0.851   0.842   7.089 -2.0536  0.4614 -1.8037
   82SOPE    HB 7477   0.709   0.760   7.137  1.1683  0.1901  2.9637
   82SOPE    C2 7478   0.781   0.715   6.929 -0.1994  0.7263  0.0313
   82SOPE    HS 7479   0.750   0.609   6.920  0.7860  0.1546  2.4695
   82SOPE   O21 7480   0.907   0.734   6.870  0.2615  0.4237  0.3462
   82SOPE   C21 7481   0.931   0.686   6.751 -0.6068 -0.1928  0.0713
   82SOPE   O22 7482   0.868   0.599   6.691  0.2658  0.2006  0.2448
   82SOPE   C22 7483   1.069   0.752   6.697  0.2691  0.2647 -0.6394
   82SOPE   H2R 7484   1.138   0.668   6.675  0.6404 -0.3999  2.6160
   82SOPE   H2S 7485   1.117   0.814   6.776  2.7023 -0.7905 -1.2028
   82SOPE    C3 7486   0.666   0.807   6.871  0.1458  0.0626  0.2094
   82SOPE    HX 7487   0.700   0.912   6.879  0.9994 -0.0723 -1.2389
   82SOPE    HY 7488   0.578   0.781   6.934 -0.3602  1.9768  0.3392
   82SOPE   O31 7489   0.639   0.786   6.729  0.1907  0.0572 -1.0755
   82SOPE   C31 7490   0.582   0.671   6.700 -1.3519  0.5338  0.1561
   82SOPE   O32 7491   0.531   0.598   6.782  0.4100 -0.0287  0.1113
   82SOPE   C32 7492   0.589   0.643   6.549  0.1675  0.2109 -0.2408
   82SOPE   H2X 7493   0.691   0.663   6.511  0.1883 -0.0638 -0.3336
   82SOPE   H2Y 7494   0.518   0.714   6.501 -1.2640 -0.9382  0.0993
   82SOPE   C23 7495   1.067   0.829   6.567 -1.1040  0.4903 -0.5408
   82SOPE   H3R 7496   1.047   0.766   6.478 -0.1329 -1.8870  0.8054
   82SOPE   H3S 7497   1.168   0.873   6.551 -1.2865  0.5408 -1.6008
   82SOPE   C24 7498   0.963   0.936   6.577 -0.0503 -0.4920  0.2871
   82SOPE   H4R 7499   0.858   0.907   6.556  0.2851 -1.5483  0.0305
   82SOPE   H4S 7500   0.972   0.986   6.676  2.1130 -0.6224  0.2203
   82SOPE   C25 7501   0.980   1.055   6.479  0.3126 -0.7451 -0.3277
   82SOPE   H5R 7502   0.903   1.125   6.517 -1.1796 -1.6139 -1.6107
   82SOPE   H5S 7503   1.078   1.106   6.482  0.3958 -0.8755 -0.8528
   82SOPE   C26 7504   0.935   1.014   6.333 -0.0798  0.5683 -0.1510
   82SOPE   H6R 7505   0.901   0.908   6.331  0.0945  0.3488  3.2482
   82SOPE   H6S 7506   0.857   1.082   6.293  0.2323  1.1412  0.1971
   82SOPE   C27 7507   1.047   1.036   6.226  0.3407  0.1491 -0.0546
   82SOPE   H7R 7508   1.047   1.146   6.209 -1.1088  0.0854 -0.5757
   82SOPE   H7S 7509   1.150   1.014   6.260  0.7449 -2.0724 -2.3751
   82SOPE   C28 7510   1.021   0.957   6.091 -0.2312 -0.1939  0.7709
   82SOPE   H8R 7511   1.112   0.980   6.033 -0.0827 -3.3369 -0.4702
   82SOPE   H8S 7512   1.025   0.846   6.100  1.8311 -0.2260 -0.0901
   82SOPE   C29 7513   0.889   0.992   6.027 -0.2325 -0.9458  0.0367
   82SOPE   H91 7514   0.807   1.025   6.092  0.9414  0.4216  0.9037
   82SOPE  C210 7515   0.870   1.004   5.898 -0.3485  0.0635  0.2192
   82SOPE  H101 7516   0.768   1.026   5.863 -0.9369 -3.4777 -0.6594
   82SOPE  C211 7517   0.970   0.947   5.797 -0.1957  0.1634 -0.8613
   82SOPE  H11R 7518   0.963   0.836   5.802  3.2618 -0.1089  0.4711
   82SOPE  H11S 7519   1.073   0.983   5.818  0.1322 -1.1645 -0.0677
   82SOPE  C212 7520   0.944   0.991   5.649 -0.2772 -0.5040 -0.2410
   82SOPE  H12R 7521   0.949   1.102   5.646  1.2344 -0.4201  2.4979
   82SOPE  H12S 7522   0.847   0.947   5.618 -1.5295  1.2161  1.0681
   82SOPE  C213 7523   1.053   0.939   5.550  0.1422  0.4044 -1.0372
   82SOPE  H13R 7524   1.054   0.828   5.556 -0.7530  0.4643  1.1772
   82SOPE  H13S 7525   1.150   0.982   5.582  1.5514 -1.3501 -2.6859
   82SOPE  C214 7526   1.022   0.982   5.414  0.6115  0.8534  0.2393
   82SOPE  H14R 7527   1.026   1.092   5.398  1.3156  0.8152  0.1027
   82SOPE  H14S 7528   0.922   0.949   5.379  0.7173 -1.2606  1.7808
   82SOPE  C215 7529   1.135   0.930   5.325  0.6479 -0.1930  0.0865
   82SOPE  H15R 7530   1.112   0.822   5.319 -1.8867  0.3162 -0.7368
   82SOPE  H15S 7531   1.233   0.967   5.364 -0.1317  1.2705  0.7485
   82SOPE  C216 7532   1.142   0.982   5.178 -0.0918  0.1249  0.2530
   82SOPE  H16R 7533   1.224   0.928   5.127 -0.5728  0.2483 -0.6772
   82SOPE  H16S 7534   1.160   1.092   5.186  0.1941  0.2061 -1.2088
   82SOPE  C217 7535   1.013   0.936   5.102 -0.2117  0.3719  0.4894
   82SOPE  H17R 7536   0.925   0.990   5.142 -0.6683 -0.6927  0.9640
   82SOPE  H17S 7537   0.990   0.830   5.124 -1.1216  0.5749  0.5615
   82SOPE  C218 7538   1.009   0.961   4.947 -0.3899 -0.1861 -0.1901
   82SOPE  H18R 7539   1.056   0.877   4.891  0.0552 -1.9885  2.6974
   82SOPE  H18S 7540   1.063   1.058   4.942 -2.5905  1.2020  0.9526
   82SOPE  H18T 7541   0.900   0.973   4.928 -0.1230  0.0156 -1.6975
   82SOPE   C33 7542   0.542   0.502   6.511  0.1900 -0.4129  0.2456
   82SOPE   H3X 7543   0.434   0.490   6.535 -0.9681  3.9875 -1.8214
   82SOPE   H3Y 7544   0.598   0.418   6.559 -0.8398 -1.9077 -1.0688
   82SOPE   C34 7545   0.559   0.460   6.365  0.0153  0.2569 -0.5134
   82SOPE   H4X 7546   0.668   0.447   6.347  0.1840  0.9407 -0.0610
   82SOPE   H4Y 7547   0.520   0.545   6.305  0.3591  1.4096  0.8364
   82SOPE   C35 7548   0.491   0.323   6.336 -0.0882 -0.1108  0.2143
   82SOPE   H5X 7549   0.383   0.347   6.334 -0.4049 -1.5255 -0.4749
   82SOPE   H5Y 7550   0.508   0.251   6.419 -0.6694  0.3867  0.7774
   82SOPE   C36 7551   0.533   0.272   6.189  0.5113 -0.2072 -0.5000
   82SOPE   H6X 7552   0.472   0.185   6.157 -1.6446  0.5834  1.2218
   82SOPE   H6Y 7553   0.638   0.238   6.201  0.8224  1.4648  2.3350
   82SOPE   C37 7554   0.528   0.387   6.083 -0.1087 -0.1841 -0.0263
   82SOPE   H7X 7555   0.602   0.463   6.114  1.1846 -0.5605 -2.0343
   82SOPE   H7Y 7556   0.422   0.422   6.077 -0.2833 -0.9414 -3.0904
   82SOPE   C38 7557   0.583   0.346   5.945  1.5528 -0.9436  0.7249
   82SOPE   H8X 7558   0.548   0.245   5.916 -0.0664 -0.1890 -0.1107
   82SOPE   H8Y 7559   0.693   0.337   5.941  1.4428 -2.2383 -2.1990
   82SOPE   C39 7560   0.548   0.446   5.829  0.3379 -0.5766  0.8340
   82SOPE   H9X 7561   0.445   0.429   5.790  0.3805 -2.2073  1.3787
   82SOPE   H9Y 7562   0.618   0.421   5.746 -1.3757 -2.4614 -0.1301
   82SOPE  C310 7563   0.566   0.603   5.854 -0.3103  0.3881  0.4490
   82SOPE  H10X 7564   0.671   0.628   5.878 -0.7327 -0.1378  3.0982
   82SOPE  H10Y 7565   0.491   0.619   5.934 -0.9853 -0.4797  0.0179
   82SOPE  C311 7566   0.528   0.680   5.727  0.0703 -0.3217 -1.2884
   82SOPE  H11X 7567   0.513   0.785   5.760 -1.4432 -1.4842  2.2289
   82SOPE  H11Y 7568   0.425   0.647   5.705 -0.4450  0.3799 -0.0207
   82SOPE  C312 7569   0.630   0.662   5.614 -0.2967  0.2667  0.4665
   82SOPE  H12X 7570   0.610   0.561   5.571 -0.6786  0.0920  1.0431
   82SOPE  H12Y 7571   0.732   0.658   5.659  0.4334 -2.0300 -1.1683
   82SOPE  C313 7572   0.621   0.755   5.494  0.5357  0.3776  0.8325
   82SOPE  H13X 7573   0.661   0.857   5.512  1.6174  0.2211 -0.4892
   82SOPE  H13Y 7574   0.516   0.771   5.462  1.0599  0.3810 -1.0001
   82SOPE  C314 7575   0.688   0.699   5.367  0.3538 -0.0927  0.3828
   82SOPE  H14X 7576   0.652   0.595   5.351  1.1417  0.0120 -2.8626
   82SOPE  H14Y 7577   0.799   0.690   5.374  0.5270  2.0074  1.0973
   82SOPE  C315 7578   0.638   0.788   5.250  0.6814 -0.7560  0.5783
   82SOPE  H15X 7579   0.671   0.892   5.269 -0.8810 -0.0638 -0.3110
   82SOPE  H15Y 7580   0.527   0.793   5.248  0.6521 -1.3794 -1.4287
   82SOPE  C316 7581   0.681   0.730   5.117  0.3056 -0.2935  0.0156
   82SOPE  H16X 7582   0.653   0.622   5.111  0.3497 -0.2850 -0.3809
   82SOPE  H16Y 7583   0.792   0.735   5.119  0.2887  1.3847 -0.9038
   82SOPE  C317 7584   0.625   0.806   4.996 -0.3733  0.2943 -0.3947
   82SOPE  H17X 7585   0.677   0.756   4.911  1.1510 -1.4285  1.4650
   82SOPE  H17Y 7586   0.649   0.913   5.017 -2.1600  0.0426  3.8055
   82SOPE  C318 7587   0.471   0.795   4.980 -0.0350  0.0756  0.5414
   82SOPE  H18X 7588   0.436   0.694   5.009 -0.5241  0.1715  0.2996
   82SOPE  H18Y 7589   0.439   0.828   4.879  1.2818  1.6956  0.6142
   82SOPE  H18Z 7590   0.416   0.860   5.051 -1.8397 -0.3368 -0.4206
   83SOPE     N 7591   1.852   2.852   2.719  0.1998  0.1519  0.3967
   83SOPE   HN1 7592   1.917   2.779   2.682  0.2009 -0.3952  1.4530
   83SOPE   HN2 7593   1.808   2.819   2.807 -0.2537  0.7325  0.3955
   83SOPE   HN3 7594   1.783   2.862   2.642  1.5711 -1.5356 -1.1428
   83SOPE   C12 7595   1.903   2.990   2.749 -0.5327 -0.0099  0.0688
   83SOPE  H12A 7596   1.943   3.040   2.658  1.3404 -0.1234  0.7951
   83SOPE  H12B 7597   1.986   2.963   2.818  0.1158 -0.5131 -0.8749
   83SOPE   C11 7598   1.795   3.079   2.819  0.2939  0.5390  0.2640
   83SOPE  H11A 7599   1.762   3.040   2.917 -2.1800  0.4064 -0.5608
   83SOPE  H11B 7600   1.712   3.073   2.745  1.5467 -2.7811 -1.0825
   83SOPE     P 7601   1.796   3.345   2.755  0.0304 -0.0441  0.1215
   83SOPE   O13 7602   1.671   3.315   2.678  0.2638  0.4241  0.3917
   83SOPE   O14 7603   1.911   3.393   2.675 -0.1112 -0.3449  0.2951
   83SOPE   O12 7604   1.841   3.209   2.833 -0.1502  0.0851 -0.0180
   83SOPE   O11 7605   1.766   3.449   2.866 -0.1832 -0.2513  0.1602
   83SOPE    C1 7606   1.674   3.408   2.969 -0.2011  0.4619  0.4557
   83SOPE    HA 7607   1.716   3.334   3.041  0.7737  1.5700  1.0700
   83SOPE    HB 7608   1.579   3.366   2.931 -0.7349  0.4100  1.7947
   83SOPE    C2 7609   1.644   3.528   3.067  0.6598  0.0390  0.3133
   83SOPE    HS 7610   1.589   3.494   3.157  0.8937  0.8520  0.7725
   83SOPE   O21 7611   1.578   3.641   2.997 -0.0948  0.0649 -0.3579
   83SOPE   C21 7612   1.489   3.698   3.078 -0.4836  0.2821 -0.2343
   83SOPE   O22 7613   1.473   3.669   3.196 -0.1595  0.4122  0.1901
   83SOPE   C22 7614   1.411   3.804   3.003 -0.0913 -0.2272 -0.1389
   83SOPE   H2R 7615   1.324   3.823   3.070 -0.6330 -1.4806 -0.4589
   83SOPE   H2S 7616   1.363   3.761   2.913 -2.3155  0.3338  0.7052
   83SOPE    C3 7617   1.780   3.582   3.122 -1.2018  0.1443  0.3060
   83SOPE    HX 7618   1.834   3.646   3.050 -2.1845 -0.7625 -1.3156
   83SOPE    HY 7619   1.847   3.497   3.146  0.0127  0.8887 -0.3905
   83SOPE   O31 7620   1.751   3.644   3.246 -0.3876 -0.4663 -0.0951
   83SOPE   C31 7621   1.788   3.772   3.263  0.3263  0.0158  0.5345
   83SOPE   O32 7622   1.838   3.843   3.174 -0.2455 -0.3853 -0.1806
   83SOPE   C32 7623   1.765   3.832   3.400  1.1026 -0.3355 -0.9124
   83SOPE   H2X 7624   1.691   3.915   3.404 -2.0237 -2.9456  2.0001
   83SOPE   H2Y 7625   1.868   3.867   3.420  0.5109  1.5108 -0.8793
   83SOPE   C23 7626   1.490   3.938   2.969 -0.5849  0.0100 -0.2607
   83SOPE   H3R 7627   1.436   3.995   2.891  1.2659  1.9598 -0.2173
   83SOPE   H3S 7628   1.591   3.915   2.928 -0.5952 -0.7218  0.1204
   83SOPE   C24 7629   1.509   4.024   3.093  0.4944 -0.1888  0.0311
   83SOPE   H4R 7630   1.416   4.080   3.117  1.4204  1.8015 -0.7510
   83SOPE   H4S 7631   1.551   3.979   3.186  0.7719 -1.2639 -0.6007
   83SOPE   C25 7632   1.601   4.144   3.064 -0.2522 -0.1076  0.4934
   83SOPE   H5R 7633   1.705   4.116   3.037  0.1405  2.4067 -0.9350
   83SOPE   H5S 7634   1.567   4.195   2.971 -0.2215 -2.6259 -0.9946
   83SOPE   C26 7635   1.599   4.242   3.184 -0.0322  0.6979  0.6084
   83SOPE   H6R 7636   1.677   4.317   3.160  1.1457 -0.6963 -0.1161
   83SOPE   H6S 7637   1.499   4.290   3.192 -0.8982 -0.0323 -3.4781
   83SOPE   C27 7638   1.639   4.178   3.324  0.3308 -0.5606  0.3595
   83SOPE   H7R 7639   1.543   4.135   3.360 -0.8777 -0.1399 -2.1268
   83SOPE   H7S 7640   1.710   4.099   3.293  1.3962  0.8208 -0.9085
   83SOPE   C28 7641   1.704   4.273   3.426 -0.0909  0.1328  0.0484
   83SOPE   H8R 7642   1.642   4.364   3.436 -0.8796  0.0021 -2.8208
   83SOPE   H8S 7643   1.698   4.221   3.525 -0.8864  0.7642  0.3397
   83SOPE   C29 7644   1.851   4.295   3.389  0.3028 -1.0739 -0.5304
   83SOPE   H91 7645   1.869   4.326   3.285 -1.9173 -1.6871 -1.1591
   83SOPE  C210 7646   1.948   4.274   3.485 -0.4699 -0.3490 -0.0663
   83SOPE  H101 7647   2.052   4.290   3.453 -0.5181 -2.3728 -1.4097
   83SOPE  C211 7648   1.923   4.239   3.629  0.7881  0.2965 -1.2653
   83SOPE  H11R 7649   1.936   4.130   3.651 -1.4358  0.0958 -0.8003
   83SOPE  H11S 7650   1.824   4.274   3.663  1.8134  1.5585  0.5400
   83SOPE  C212 7651   2.024   4.304   3.735  1.1125  0.4869 -0.1556
   83SOPE  H12R 7652   2.040   4.404   3.690 -0.5196  1.2358  0.8257
   83SOPE  H12S 7653   2.119   4.247   3.729  2.0945  2.2101 -3.4651
   83SOPE  C213 7654   1.970   4.304   3.877  0.2987  0.4150 -0.2615
   83SOPE  H13R 7655   1.958   4.198   3.910 -0.2257  0.1983 -1.1059
   83SOPE  H13S 7656   1.867   4.345   3.876  0.8913  1.9777 -0.0061
   83SOPE  C214 7657   2.056   4.379   3.988 -0.0990  0.8210 -0.4798
   83SOPE  H14R 7658   2.053   4.489   3.969  2.7505  0.8643 -1.0834
   83SOPE  H14S 7659   2.159   4.338   3.984 -0.2538  0.5459 -3.1406
   83SOPE  C215 7660   2.004   4.347   4.132 -0.5469 -0.2735  0.3295
   83SOPE  H15R 7661   1.977   4.240   4.127  1.1563 -0.7957  1.3351
   83SOPE  H15S 7662   1.911   4.407   4.140 -0.6831 -0.6991  2.7950
   83SOPE  C216 7663   2.104   4.375   4.240 -0.1583 -0.0760 -0.0489
   83SOPE  H16R 7664   2.196   4.319   4.212  0.4015  2.2936 -3.6171
   83SOPE  H16S 7665   2.065   4.328   4.333 -0.5798 -0.5759 -0.4743
   83SOPE  C217 7666   2.131   4.526   4.280 -0.0044 -0.4253  0.4021
   83SOPE  H17R 7667   2.029   4.567   4.292 -0.7162 -1.4714 -1.6594
   83SOPE  H17S 7668   2.188   4.568   4.194 -0.9548 -2.6340 -1.4061
   83SOPE  C218 7669   2.223   4.555   4.404  0.0334 -0.4249 -0.2066
   83SOPE  H18R 7670   2.323   4.509   4.389  0.2658 -0.2036  0.5759
   83SOPE  H18S 7671   2.175   4.517   4.497 -1.7734 -0.6451 -1.1890
   83SOPE  H18T 7672   2.216   4.665   4.417 -2.3299 -0.6947  1.5388
   83SOPE   C33 7673   1.726   3.724   3.509  0.2598 -0.1755  0.3277
   83SOPE   H3X 7674   1.801   3.642   3.512 -0.8333 -1.1778  1.3337
   83SOPE   H3Y 7675   1.632   3.676   3.474  0.0822 -2.6250  3.7207
   83SOPE   C34 7676   1.709   3.791   3.646  0.0787  0.7057 -0.0795
   83SOPE   H4X 7677   1.619   3.856   3.633  0.4932  1.1629 -0.7029
   83SOPE   H4Y 7678   1.799   3.854   3.658 -0.3801  1.6538 -1.3828
   83SOPE   C35 7679   1.666   3.693   3.759  1.0461 -0.0209  0.0224
   83SOPE   H5X 7680   1.743   3.618   3.784 -0.4699 -1.9209 -0.7937
   83SOPE   H5Y 7681   1.573   3.638   3.735  1.3418 -0.5138 -0.0078
   83SOPE   C36 7682   1.638   3.772   3.889 -0.1506 -0.0403  0.0803
   83SOPE   H6X 7683   1.563   3.852   3.874 -1.2599 -1.0174  0.3162
   83SOPE   H6Y 7684   1.737   3.811   3.920  0.5442 -1.3899 -0.3520
   83SOPE   C37 7685   1.582   3.685   3.999  0.6806 -0.0969 -0.4620
   83SOPE   H7X 7686   1.625   3.583   3.988 -0.5475 -0.6038 -0.6717
   83SOPE   H7Y 7687   1.472   3.671   3.995  0.3310  2.2047 -0.3005
   83SOPE   C38 7688   1.618   3.739   4.138  0.4519  0.2865 -0.1236
   83SOPE   H8X 7689   1.602   3.847   4.121 -0.6449  0.2162  0.4080
   83SOPE   H8Y 7690   1.729   3.739   4.145  0.3451  0.5225  2.5228
   83SOPE   C39 7691   1.543   3.680   4.259 -0.3472  0.1530  0.0733
   83SOPE   H9X 7692   1.434   3.669   4.242 -0.2895 -0.3792  0.0248
   83SOPE   H9Y 7693   1.548   3.755   4.341 -0.7998  0.2576  0.0074
   83SOPE  C310 7694   1.607   3.545   4.306 -0.3905 -0.0100  0.6207
   83SOPE  H10X 7695   1.717   3.552   4.318 -0.2154 -2.8763  1.4468
   83SOPE  H10Y 7696   1.593   3.473   4.222 -0.4631  0.2699  0.3925
   83SOPE  C311 7697   1.541   3.499   4.429 -0.0742 -0.2632  0.2315
   83SOPE  H11X 7698   1.432   3.510   4.442 -0.0113  0.7139  0.0031
   83SOPE  H11Y 7699   1.580   3.558   4.514 -1.0915  1.4715 -0.4595
   83SOPE  C312 7700   1.587   3.358   4.475  0.0317  0.3543 -0.7518
   83SOPE  H12X 7701   1.698   3.349   4.474  0.0251  0.2913 -0.9115
   83SOPE  H12Y 7702   1.564   3.290   4.390 -1.0834  0.9519 -0.9422
   83SOPE  C313 7703   1.528   3.318   4.611  0.5741  0.5278 -0.9058
   83SOPE  H13X 7704   1.503   3.210   4.606  2.0535  0.1162  0.0221
   83SOPE  H13Y 7705   1.427   3.363   4.628 -0.4043 -0.5227 -3.4441
   83SOPE  C314 7706   1.632   3.328   4.719  0.1547 -0.3949 -0.3404
   83SOPE  H14X 7707   1.651   3.430   4.759 -2.1057 -0.0352 -0.0163
   83SOPE  H14Y 7708   1.725   3.282   4.680 -0.8307 -1.7885 -1.1314
   83SOPE  C315 7709   1.600   3.234   4.837  0.2880 -0.7030  0.2079
   83SOPE  H15X 7710   1.591   3.130   4.797 -0.0782 -0.7082  0.3014
   83SOPE  H15Y 7711   1.510   3.265   4.894  0.7589  2.8670 -0.7443
   83SOPE  C316 7712   1.717   3.249   4.939 -0.5953 -0.0442 -0.0903
   83SOPE  H16X 7713   1.724   3.358   4.958  2.1071  0.1048 -1.4760
   83SOPE  H16Y 7714   1.811   3.213   4.893 -1.2969 -1.5962 -0.3581
   83SOPE  C317 7715   1.688   3.177   5.070 -0.0211  0.0810 -0.8423
   83SOPE  H17X 7716   1.697   3.069   5.044  1.1341  0.3318 -1.5382
   83SOPE  H17Y 7717   1.585   3.207   5.097 -0.1608 -0.5661 -0.6389
   83SOPE  C318 7718   1.785   3.217   5.187  0.1840 -0.3345 -0.0255
   83SOPE  H18X 7719   1.796   3.328   5.193 -1.1566 -0.1295 -0.8892
   83SOPE  H18Y 7720   1.889   3.179   5.173 -0.2026 -1.2182 -0.5368
   83SOPE  H18Z 7721   1.745   3.176   5.282  1.7340  1.5246  1.5288
   84SOPE     N 7722   1.803   1.822   2.622  0.3224  0.6078  0.2208
   84SOPE   HN1 7723   1.826   1.872   2.534 -0.4209  2.9898  1.2958
   84SOPE   HN2 7724   1.731   1.881   2.669  0.6882  0.8464  0.4903
   84SOPE   HN3 7725   1.890   1.820   2.679  0.0145 -0.0010  0.6840
   84SOPE   C12 7726   1.752   1.681   2.617  0.4211  0.3575 -0.0717
   84SOPE  H12A 7727   1.837   1.614   2.590 -0.4695 -1.2050  0.8432
   84SOPE  H12B 7728   1.677   1.690   2.536 -0.6533 -0.1391  0.8441
   84SOPE   C11 7729   1.671   1.644   2.745 -0.7082  0.8315  0.0728
   84SOPE  H11A 7730   1.729   1.686   2.831  0.5615  1.9096 -1.2515
   84SOPE  H11B 7731   1.661   1.534   2.754  0.7603  0.7676  1.6976
   84SOPE     P 7732   1.467   1.729   2.863  0.3723  0.0473 -0.2558
   84SOPE   O13 7733   1.327   1.722   2.827  0.1132 -0.3819  0.1761
   84SOPE   O14 7734   1.510   1.855   2.929  0.0866  0.6759  0.4513
   84SOPE   O12 7735   1.549   1.701   2.732 -0.1875  0.2832  0.3111
   84SOPE   O11 7736   1.506   1.598   2.943  0.0625 -0.5951  0.2885
   84SOPE    C1 7737   1.426   1.483   2.933  0.0507 -0.1696 -0.2840
   84SOPE    HA 7738   1.494   1.399   2.962 -0.2582  0.1422  1.4691
   84SOPE    HB 7739   1.379   1.456   2.836  0.9805 -0.8283 -0.5700
   84SOPE    C2 7740   1.309   1.476   3.036  0.5028 -0.0351  0.0534
   84SOPE    HS 7741   1.229   1.536   2.987  2.4865  2.6811 -0.0791
   84SOPE   O21 7742   1.348   1.541   3.161  0.1168 -0.5238  0.1591
   84SOPE   C21 7743   1.245   1.598   3.224 -0.2670  0.2694  0.3929
   84SOPE   O22 7744   1.129   1.591   3.187  0.2340 -0.4135  0.4920
   84SOPE   C22 7745   1.303   1.666   3.348  0.5159  0.1046 -0.5518
   84SOPE   H2R 7746   1.251   1.764   3.355 -1.2656 -0.8979  1.6454
   84SOPE   H2S 7747   1.410   1.687   3.330  0.8194  0.8080  1.7149
   84SOPE    C3 7748   1.267   1.328   3.059 -0.0540 -0.3276  0.1779
   84SOPE    HX 7749   1.351   1.277   3.110  0.8151 -0.3815 -1.2363
   84SOPE    HY 7750   1.259   1.279   2.959 -0.1799  0.1924 -0.0678
   84SOPE   O31 7751   1.150   1.307   3.138  0.2517  0.1155 -0.0067
   84SOPE   C31 7752   1.060   1.216   3.108  0.3231 -0.5055  0.1473
   84SOPE   O32 7753   1.045   1.148   3.003  0.1549 -0.0469 -0.5385
   84SOPE   C32 7754   0.969   1.213   3.231  0.7821  0.1336 -0.3956
   84SOPE   H2X 7755   0.889   1.136   3.223 -1.1938  1.9545  0.8981
   84SOPE   H2Y 7756   0.911   1.306   3.214 -0.3199 -0.8082 -2.0511
   84SOPE   C23 7757   1.286   1.587   3.482  0.0179 -0.0484 -0.3849
   84SOPE   H3R 7758   1.342   1.654   3.551 -0.7126  0.9965 -0.7744
   84SOPE   H3S 7759   1.335   1.488   3.482  0.7516  0.2834  0.9954
   84SOPE   C24 7760   1.143   1.569   3.538 -0.3412  0.2451 -0.0344
   84SOPE   H4R 7761   1.099   1.671   3.543  0.4466  0.9349 -4.0278
   84SOPE   H4S 7762   1.087   1.508   3.464  0.2822  0.4812 -0.7130
   84SOPE   C25 7763   1.144   1.495   3.677  0.6883 -0.3282  0.8320
   84SOPE   H5R 7764   1.037   1.469   3.696 -1.3679  4.7413 -1.9683
   84SOPE   H5S 7765   1.202   1.405   3.646  0.2469  0.7038 -3.8940
   84SOPE   C26 7766   1.194   1.584   3.788  0.0896  0.0919 -0.0926
   84SOPE   H6R 7767   1.295   1.626   3.768 -0.1548  0.3814 -0.7676
   84SOPE   H6S 7768   1.134   1.676   3.803 -0.5851 -0.4828  0.8280
   84SOPE   C27 7769   1.196   1.505   3.918  0.7705  0.6598 -1.4036
   84SOPE   H7R 7770   1.095   1.477   3.954  0.9675  2.7628  1.0932
   84SOPE   H7S 7771   1.262   1.416   3.901  0.3422  0.7054 -3.5244
   84SOPE   C28 7772   1.252   1.589   4.031  0.6109 -0.0752 -1.3169
   84SOPE   H8R 7773   1.342   1.638   3.991  2.0270 -1.5576 -0.1027
   84SOPE   H8S 7774   1.180   1.670   4.054  0.2036 -0.9444  0.7292
   84SOPE   C29 7775   1.289   1.511   4.154 -0.1860  0.1643 -0.4936
   84SOPE   H91 7776   1.352   1.422   4.140 -1.0249 -0.3110 -1.3352
   84SOPE  C210 7777   1.242   1.540   4.276  0.4795  0.5185 -0.7285
   84SOPE  H101 7778   1.266   1.469   4.357  1.7888  1.1672 -0.5051
   84SOPE  C211 7779   1.148   1.647   4.324  0.1826 -0.2102 -0.2191
   84SOPE  H11R 7780   1.049   1.618   4.284 -1.1798 -0.4990  3.0664
   84SOPE  H11S 7781   1.172   1.741   4.271 -0.7036 -0.4923 -1.1581
   84SOPE  C212 7782   1.108   1.679   4.470 -0.0549  0.5427 -0.1268
   84SOPE  H12R 7783   1.037   1.596   4.493 -0.0408  1.0124  1.7084
   84SOPE  H12S 7784   1.057   1.777   4.466  1.6367  1.4488 -0.5948
   84SOPE  C213 7785   1.222   1.671   4.571 -0.1254 -0.4485  0.4883
   84SOPE  H13R 7786   1.291   1.757   4.557  0.2785 -0.7299  0.7039
   84SOPE  H13S 7787   1.279   1.575   4.570  0.9438  0.1686 -0.7193
   84SOPE  C214 7788   1.160   1.699   4.708 -0.3250  0.1062  1.3185
   84SOPE  H14R 7789   1.103   1.607   4.731 -2.4785  0.6489 -1.3737
   84SOPE  H14S 7790   1.084   1.778   4.696  0.3244  0.7555  1.3969
   84SOPE  C215 7791   1.267   1.738   4.811  0.1466 -0.1874  0.6220
   84SOPE  H15R 7792   1.318   1.832   4.781 -0.0733 -0.2811 -0.0767
   84SOPE  H15S 7793   1.352   1.666   4.806 -0.5918 -1.1628  1.6218
   84SOPE  C216 7794   1.222   1.756   4.957 -0.5045  0.5501 -0.4017
   84SOPE  H16R 7795   1.230   1.657   5.006  0.2493  0.5452 -0.5177
   84SOPE  H16S 7796   1.119   1.798   4.965 -0.2353  0.9495  1.4113
   84SOPE  C217 7797   1.310   1.850   5.039  0.3494  0.1332  0.7307
   84SOPE  H17R 7798   1.304   1.946   4.984 -2.2960 -1.7560 -2.6595
   84SOPE  H17S 7799   1.417   1.820   5.042  0.2011 -0.4449  0.4161
   84SOPE  C218 7800   1.255   1.874   5.182 -0.1130  0.5255 -0.6709
   84SOPE  H18R 7801   1.150   1.909   5.171 -0.1476  0.6212 -0.0818
   84SOPE  H18S 7802   1.317   1.951   5.233 -2.2693 -0.0229  3.1978
   84SOPE  H18T 7803   1.262   1.782   5.243  2.3810 -0.0724 -1.7621
   84SOPE   C33 7804   1.041   1.214   3.364 -1.4840 -1.0606  0.6469
   84SOPE   H3X 7805   0.975   1.222   3.453 -0.6125  0.3198  1.2027
   84SOPE   H3Y 7806   1.116   1.296   3.364 -1.9446 -0.6293 -0.3626
   84SOPE   C34 7807   1.118   1.082   3.376 -0.1508  0.1449  0.0413
   84SOPE   H4X 7808   1.168   1.062   3.279 -0.0385 -0.9344  0.3032
   84SOPE   H4Y 7809   1.042   1.004   3.401 -0.0502 -1.1926 -3.3364
   84SOPE   C35 7810   1.228   1.074   3.489  0.4154  0.2206  0.4577
   84SOPE   H5X 7811   1.297   1.157   3.461 -0.8883  0.4533 -2.4974
   84SOPE   H5Y 7812   1.277   0.974   3.487 -2.4965 -1.3134  1.2913
   84SOPE   C36 7813   1.169   1.090   3.633  0.3288 -0.4979 -0.0900
   84SOPE   H6X 7814   1.095   1.008   3.635  1.1673 -1.3358 -1.3604
   84SOPE   H6Y 7815   1.129   1.191   3.654 -0.4653 -0.8492  0.0897
   84SOPE   C37 7816   1.279   1.064   3.744 -0.3169  0.4332  0.0426
   84SOPE   H7X 7817   1.348   1.151   3.753  1.9204 -1.0419 -1.7715
   84SOPE   H7Y 7818   1.334   0.976   3.706  2.0674  1.4574  0.9354
   84SOPE   C38 7819   1.208   1.023   3.878  0.1322 -0.1428 -0.2674
   84SOPE   H8X 7820   1.146   0.935   3.854 -1.9963  1.8592 -2.6333
   84SOPE   H8Y 7821   1.147   1.109   3.913 -1.6211 -0.5209 -2.2259
   84SOPE   C39 7822   1.313   1.001   3.983  0.9777 -1.1307 -0.4606
   84SOPE   H9X 7823   1.380   1.088   3.963 -2.0905  1.6408  0.3801
   84SOPE   H9Y 7824   1.365   0.906   3.960  1.0300 -0.6942 -2.3629
   84SOPE  C310 7825   1.239   1.013   4.117 -0.4793 -0.3021 -0.1964
   84SOPE  H10X 7826   1.145   0.955   4.107  0.2603 -1.2480 -2.2266
   84SOPE  H10Y 7827   1.218   1.120   4.142  1.4027  0.7041 -2.4533
   84SOPE  C311 7828   1.332   0.969   4.239 -0.0085  0.2020 -0.6426
   84SOPE  H11X 7829   1.268   0.972   4.330  0.1982  3.0384 -0.5045
   84SOPE  H11Y 7830   1.414   1.041   4.260  1.0579 -0.6056 -1.9006
   84SOPE  C312 7831   1.387   0.818   4.222  0.1572  0.1374  0.9020
   84SOPE  H12X 7832   1.484   0.829   4.168  0.4460 -0.1952  1.3442
   84SOPE  H12Y 7833   1.323   0.769   4.147  0.6467  0.1819  0.4488
   84SOPE  C313 7834   1.392   0.736   4.348 -0.1004  0.2796 -0.3504
   84SOPE  H13X 7835   1.430   0.634   4.325  1.0867  0.5373  0.3470
   84SOPE  H13Y 7836   1.287   0.722   4.379 -0.5041  1.1218 -1.2809
   84SOPE  C314 7837   1.475   0.802   4.462  0.3492  0.4065 -0.1291
   84SOPE  H14X 7838   1.447   0.909   4.469  1.1307  0.7136 -1.3062
   84SOPE  H14Y 7839   1.580   0.799   4.424  0.9192 -0.0654  1.4155
   84SOPE  C315 7840   1.454   0.737   4.598  0.0065 -0.0604 -0.1942
   84SOPE  H15X 7841   1.545   0.764   4.655 -1.0398  3.7100 -0.0523
   84SOPE  H15Y 7842   1.459   0.629   4.575  0.0659  0.2486 -1.7543
   84SOPE  C316 7843   1.338   0.789   4.692 -0.4687 -0.3947 -0.5044
   84SOPE  H16X 7844   1.241   0.761   4.645 -0.6484  1.7507 -1.5415
   84SOPE  H16Y 7845   1.340   0.900   4.697  1.9440 -0.3351 -1.1967
   84SOPE  C317 7846   1.358   0.742   4.846  0.6944  0.3753  0.1133
   84SOPE  H17X 7847   1.410   0.644   4.845  0.5453  0.2951  0.2618
   84SOPE  H17Y 7848   1.255   0.735   4.887  0.0017  2.7942 -1.0125
   84SOPE  C318 7849   1.441   0.844   4.923  0.3603  0.6272  0.0904
   84SOPE  H18X 7850   1.547   0.843   4.889  1.2670 -1.6500  2.6367
   84SOPE  H18Y 7851   1.457   0.806   5.026  1.5349  1.3008  0.1645
   84SOPE  H18Z 7852   1.399   0.946   4.923 -0.6992  0.2063 -0.0058
   85SOPE     N 7853   6.147   0.113   2.997 -0.5706  0.1961  0.7747
   85SOPE   HN1 7854   6.166   0.013   2.975 -2.9513 -0.2587  0.5762
   85SOPE   HN2 7855   6.078   0.150   2.928  1.1409 -0.7899 -1.6342
   85SOPE   HN3 7856   6.227   0.179   2.982  1.4275 -2.0365  0.9505
   85SOPE   C12 7857   6.113   0.125   3.144  0.1642  0.0742 -0.1645
   85SOPE  H12A 7858   6.188   0.082   3.213 -1.9043  0.1263  2.2402
   85SOPE  H12B 7859   6.022   0.063   3.160  1.2206 -1.2291  1.0299
   85SOPE   C11 7860   6.086   0.272   3.178 -0.6760 -0.7531  0.5091
   85SOPE  H11A 7861   6.179   0.333   3.171  0.7766 -2.5609  2.5019
   85SOPE  H11B 7862   6.064   0.270   3.287 -1.1461  1.1632  0.4872
   85SOPE     P 7863   5.958   0.482   3.104 -0.0326 -0.2039 -0.3050
   85SOPE   O13 7864   5.952   0.521   2.966  0.1708 -0.8709  0.9174
   85SOPE   O14 7865   6.043   0.550   3.200 -1.1484  0.5017  0.1664
   85SOPE   O12 7866   5.980   0.324   3.104  0.0159  0.2306 -0.0098
   85SOPE   O11 7867   5.813   0.469   3.164 -0.3509 -0.0631 -0.3376
   85SOPE    C1 7868   5.779   0.413   3.295  0.0289 -0.1139  0.4047
   85SOPE    HA 7869   5.871   0.426   3.355  1.1578 -1.3772 -0.9672
   85SOPE    HB 7870   5.751   0.305   3.292  0.3915 -0.3456  3.1381
   85SOPE    C2 7871   5.663   0.491   3.353 -0.1345  0.0254 -0.1355
   85SOPE    HS 7872   5.685   0.599   3.340 -0.0343  0.0995  0.5819
   85SOPE   O21 7873   5.651   0.456   3.492  0.3984 -0.4778 -0.8642
   85SOPE   C21 7874   5.663   0.552   3.584 -0.0755 -0.6147  0.0788
   85SOPE   O22 7875   5.658   0.672   3.561 -0.5148  0.4951  0.3810
   85SOPE   C22 7876   5.699   0.495   3.721  0.1453 -0.2128 -0.1448
   85SOPE   H2R 7877   5.792   0.538   3.762  0.1209 -0.4382  0.1517
   85SOPE   H2S 7878   5.708   0.386   3.698 -3.6796 -0.5176 -0.9401
   85SOPE    C3 7879   5.533   0.453   3.278  0.4619  0.5502  0.1288
   85SOPE    HX 7880   5.511   0.344   3.284 -0.8755  0.7477 -0.6721
   85SOPE    HY 7881   5.565   0.478   3.174  1.4798  2.0585  0.7759
   85SOPE   O31 7882   5.425   0.532   3.333  0.1232  0.0431  0.2401
   85SOPE   C31 7883   5.322   0.516   3.256 -0.0270  1.0846  0.3049
   85SOPE   O32 7884   5.310   0.424   3.176  0.5092 -0.0952 -0.2111
   85SOPE   C32 7885   5.220   0.625   3.269 -0.7007 -0.3279  0.0421
   85SOPE   H2X 7886   5.124   0.570   3.256 -1.5410  1.0186  0.3484
   85SOPE   H2Y 7887   5.237   0.705   3.194 -1.1147  3.1571  3.3116
   85SOPE   C23 7888   5.575   0.494   3.824 -0.1392  0.1750  0.0120
   85SOPE   H3R 7889   5.597   0.415   3.898 -0.1594 -1.2448 -1.4447
   85SOPE   H3S 7890   5.490   0.453   3.765  0.1987 -0.9877  0.3299
   85SOPE   C24 7891   5.537   0.632   3.872 -0.0546 -0.3909 -0.1394
   85SOPE   H4R 7892   5.614   0.694   3.923  2.5276 -0.6373 -3.3968
   85SOPE   H4S 7893   5.492   0.693   3.791  0.4911 -0.0888 -0.2214
   85SOPE   C25 7894   5.424   0.607   3.979  0.7959 -0.3435 -0.4945
   85SOPE   H5R 7895   5.334   0.570   3.925  1.9448 -2.3032 -1.1845
   85SOPE   H5S 7896   5.456   0.520   4.041  1.0123  0.2486  0.2306
   85SOPE   C26 7897   5.390   0.732   4.060 -0.2794  0.6906 -0.1837
   85SOPE   H6R 7898   5.478   0.781   4.107 -0.6677  2.3795 -1.1168
   85SOPE   H6S 7899   5.359   0.813   3.990  0.2436  0.9547 -0.1177
   85SOPE   C27 7900   5.290   0.710   4.178  0.4649 -1.2150  0.0672
   85SOPE   H7R 7901   5.266   0.814   4.208 -0.7246 -1.0885 -1.1990
   85SOPE   H7S 7902   5.199   0.656   4.145 -1.1538  0.1000  2.1365
   85SOPE   C28 7903   5.346   0.632   4.299  0.3061  0.1705 -0.3130
   85SOPE   H8R 7904   5.264   0.616   4.374 -0.8455  1.5880 -1.2215
   85SOPE   H8S 7905   5.390   0.542   4.252 -1.0240 -1.6567  1.6993
   85SOPE   C29 7906   5.452   0.717   4.366 -0.3582 -0.4848 -0.6003
   85SOPE   H91 7907   5.552   0.677   4.345  0.0195  1.4702 -2.9106
   85SOPE  C210 7908   5.420   0.813   4.454 -0.4261 -0.4479 -0.6181
   85SOPE  H101 7909   5.500   0.872   4.502 -0.2880  0.0357 -1.4374
   85SOPE  C211 7910   5.285   0.861   4.499  0.6464 -0.1917  0.1526
   85SOPE  H11R 7911   5.223   0.771   4.516  1.8789 -1.2677 -0.8944
   85SOPE  H11S 7912   5.243   0.910   4.409 -1.0555 -0.2062  0.9008
   85SOPE  C212 7913   5.277   0.949   4.623 -0.0281 -0.5588  0.4822
   85SOPE  H12R 7914   5.343   1.037   4.610  2.0728 -1.5841  3.1444
   85SOPE  H12S 7915   5.322   0.893   4.708 -2.0429 -1.0872  1.2656
   85SOPE  C213 7916   5.141   1.004   4.673  0.4702  1.0474  0.2453
   85SOPE  H13R 7917   5.081   1.061   4.599 -0.1738  4.4219  3.1397
   85SOPE  H13S 7918   5.151   1.091   4.741 -1.8974  1.2481  0.4334
   85SOPE  C214 7919   5.058   0.896   4.748 -0.2731  0.2768 -0.1316
   85SOPE  H14R 7920   5.124   0.872   4.835  1.7828 -1.3858 -2.0217
   85SOPE  H14S 7921   5.041   0.809   4.681 -3.1920  0.7568 -0.1441
   85SOPE  C215 7922   4.926   0.951   4.812  0.8934 -1.1389  0.0477
   85SOPE  H15R 7923   4.863   0.995   4.732 -3.2140  0.3376  3.6887
   85SOPE  H15S 7924   4.944   1.030   4.888  0.8971 -1.5290  0.4546
   85SOPE  C216 7925   4.832   0.853   4.871 -0.0251 -0.2434  0.1399
   85SOPE  H16R 7926   4.859   0.849   4.979  0.0618 -1.2414  0.0905
   85SOPE  H16S 7927   4.850   0.751   4.831  2.3075 -1.1731  3.1413
   85SOPE  C217 7928   4.683   0.888   4.852 -0.2306  0.1066  0.9227
   85SOPE  H17R 7929   4.631   0.812   4.915  0.5207 -0.9924  0.2421
   85SOPE  H17S 7930   4.659   0.875   4.744 -0.0885  2.5487  0.5478
   85SOPE  C218 7931   4.643   1.027   4.899  0.2802  0.3288  0.2309
   85SOPE  H18R 7932   4.532   1.025   4.909  0.1289 -1.1107 -1.3109
   85SOPE  H18S 7933   4.669   1.112   4.832 -0.4704  0.7220  0.4220
   85SOPE  H18T 7934   4.678   1.034   5.004  1.5932 -3.3551  0.1564
   85SOPE   C33 7935   5.225   0.683   3.412 -0.1460  0.3721 -0.1599
   85SOPE   H3X 7936   5.326   0.729   3.422 -0.7291  2.5358 -3.0059
   85SOPE   H3Y 7937   5.213   0.597   3.480 -0.3709 -0.2320 -0.9459
   85SOPE   C34 7938   5.107   0.777   3.445  0.0178 -0.1805  1.0564
   85SOPE   H4X 7939   5.009   0.734   3.415  0.9950 -1.1048 -0.9662
   85SOPE   H4Y 7940   5.138   0.857   3.374  1.2092 -2.1653 -0.7906
   85SOPE   C35 7941   5.102   0.830   3.583 -0.3233  0.6610 -0.7972
   85SOPE   H5X 7942   5.037   0.920   3.581  1.1564  1.7587 -0.8911
   85SOPE   H5Y 7943   5.198   0.860   3.630  0.2527 -0.4063 -1.2440
   85SOPE   C36 7944   5.030   0.733   3.684 -0.2709 -0.4449 -0.0106
   85SOPE   H6X 7945   5.106   0.659   3.716 -0.2248  0.5188  2.3414
   85SOPE   H6Y 7946   4.944   0.681   3.636 -0.1543 -1.8337  1.2045
   85SOPE   C37 7947   4.995   0.802   3.820  0.2544  0.6919 -0.4057
   85SOPE   H7X 7948   4.947   0.902   3.813  0.1488  0.8341  1.6318
   85SOPE   H7Y 7949   5.094   0.826   3.864  1.0180 -0.6500 -1.3101
   85SOPE   C38 7950   4.931   0.704   3.914  0.4853  0.5783 -0.0196
   85SOPE   H8X 7951   4.995   0.613   3.920 -0.5429 -0.3552 -2.1430
   85SOPE   H8Y 7952   4.833   0.665   3.878  1.5113 -0.8805 -1.3883
   85SOPE   C39 7953   4.899   0.753   4.062  0.1931 -0.0315 -0.8694
   85SOPE   H9X 7954   4.830   0.840   4.068 -1.1444 -1.1713  1.1751
   85SOPE   H9Y 7955   4.988   0.797   4.112 -0.4039 -1.3597  1.5233
   85SOPE  C310 7956   4.859   0.643   4.167 -0.0321  0.1079  0.0259
   85SOPE  H10X 7957   4.934   0.562   4.171  2.3028  2.1749  0.1787
   85SOPE  H10Y 7958   4.763   0.598   4.134  1.2859 -0.9543 -2.6868
   85SOPE  C311 7959   4.841   0.694   4.317 -0.0417  0.1518 -0.2998
   85SOPE  H11X 7960   4.750   0.758   4.314 -0.6036 -0.6514 -1.1004
   85SOPE  H11Y 7961   4.934   0.736   4.360 -0.1695  0.2308 -0.0957
   85SOPE  C312 7962   4.797   0.578   4.407  0.0881  0.4448  0.6067
   85SOPE  H12X 7963   4.872   0.497   4.395 -1.1017 -0.4426 -1.2785
   85SOPE  H12Y 7964   4.697   0.549   4.368  0.0227  0.7470  0.5413
   85SOPE  C313 7965   4.775   0.627   4.550  0.1842  0.6462 -0.1895
   85SOPE  H13X 7966   4.717   0.721   4.539 -1.7897 -0.7215 -2.2446
   85SOPE  H13Y 7967   4.875   0.653   4.592  0.6851  1.3316 -1.7410
   85SOPE  C314 7968   4.717   0.513   4.635  0.1160  0.0842  0.3029
   85SOPE  H14X 7969   4.704   0.554   4.738  1.7268  0.7013  0.3032
   85SOPE  H14Y 7970   4.795   0.434   4.645 -0.1704 -0.2614 -0.1874
   85SOPE  C315 7971   4.579   0.459   4.580 -0.0344  0.7354 -0.1671
   85SOPE  H15X 7972   4.600   0.397   4.490 -2.4862 -1.5988  0.7300
   85SOPE  H15Y 7973   4.521   0.549   4.554 -0.6875  1.7884  4.2037
   85SOPE  C316 7974   4.511   0.366   4.681 -0.1085 -0.1200  0.2929
   85SOPE  H16X 7975   4.497   0.417   4.779  0.0807 -2.2233  1.4764
   85SOPE  H16Y 7976   4.573   0.277   4.702  0.7489  0.6553  1.1928
   85SOPE  C317 7977   4.374   0.327   4.633  0.0704 -0.9704  0.2673
   85SOPE  H17X 7978   4.399   0.254   4.553  1.5222  0.9142 -1.0772
   85SOPE  H17Y 7979   4.329   0.410   4.575  0.4090 -0.1033  1.2231
   85SOPE  C318 7980   4.277   0.275   4.744 -0.5398  0.6753  0.0405
   85SOPE  H18X 7981   4.269   0.345   4.831  1.3394  0.5408  0.3735
   85SOPE  H18Y 7982   4.311   0.171   4.761 -1.4936  0.0423 -1.7149
   85SOPE  H18Z 7983   4.174   0.262   4.705 -0.2661 -0.3145 -0.3584
   86SOPE     N 7984   4.769   5.356   2.279 -0.4958 -0.3735  0.4615
   86SOPE   HN1 7985   4.737   5.373   2.181  0.1046 -1.3856  0.0707
   86SOPE   HN2 7986   4.863   5.400   2.289  0.3208 -1.9750  0.2334
   86SOPE   HN3 7987   4.764   5.255   2.304  0.9112 -0.5259  0.2171
   86SOPE   C12 7988   4.685   5.429   2.371  0.1899 -0.3901 -0.1037
   86SOPE  H12A 7989   4.709   5.390   2.472  0.6013  1.1905  0.4391
   86SOPE  H12B 7990   4.585   5.392   2.342  1.0790 -1.8747 -1.4336
   86SOPE   C11 7991   4.694   5.584   2.374  0.0868 -0.7402 -0.0009
   86SOPE  H11A 7992   4.672   5.639   2.280  0.5808  0.5053  0.5879
   86SOPE  H11B 7993   4.794   5.618   2.410  0.3932 -0.1760 -1.3247
   86SOPE     P 7994   4.567   5.771   2.514 -0.2448  0.1059 -0.0830
   86SOPE   O13 7995   4.429   5.784   2.559 -0.9412  0.5183 -0.3690
   86SOPE   O14 7996   4.615   5.866   2.411  0.7348 -0.1130 -0.6817
   86SOPE   O12 7997   4.599   5.621   2.476  0.0763  0.3122  0.5851
   86SOPE   O11 7998   4.658   5.792   2.646  0.3120  0.1332  0.4606
   86SOPE    C1 7999   4.693   5.677   2.725  0.1614  0.0444 -0.0460
   86SOPE    HA 8000   4.748   5.604   2.661 -0.8226 -2.7104  2.0264
   86SOPE    HB 8001   4.600   5.626   2.759 -1.9108  2.7711 -1.3063
   86SOPE    C2 8002   4.780   5.704   2.848 -0.2448 -0.1402  0.5657
   86SOPE    HS 8003   4.818   5.613   2.899 -0.6398  0.4577  1.9722
   86SOPE   O21 8004   4.706   5.785   2.939 -0.0214  0.5011  0.0614
   86SOPE   C21 8005   4.602   5.733   3.006  0.2191  0.4310  0.2300
   86SOPE   O22 8006   4.564   5.617   3.000  0.0692  0.1186 -0.3379
   86SOPE   C22 8007   4.533   5.840   3.099  0.2824  0.3443 -0.9633
   86SOPE   H2R 8008   4.435   5.866   3.053 -0.0759  1.5904  0.4450
   86SOPE   H2S 8009   4.596   5.931   3.108  0.2918  0.1657  1.4254
   86SOPE    C3 8010   4.910   5.786   2.806 -0.4763  0.1266 -0.0969
   86SOPE    HX 8011   4.882   5.890   2.778 -1.0846 -0.7027 -2.8926
   86SOPE    HY 8012   4.957   5.740   2.716  0.5815  1.4665 -0.2707
   86SOPE   O31 8013   4.996   5.784   2.917  0.6407 -0.2854 -0.2827
   86SOPE   C31 8014   5.007   5.900   2.988  0.4253  0.3738 -0.6614
   86SOPE   O32 8015   4.945   6.001   2.972 -0.4161  0.0941  0.6325
   86SOPE   C32 8016   5.113   5.876   3.095 -0.0226 -0.4785 -0.3665
   86SOPE   H2X 8017   5.212   5.861   3.046  1.0715 -0.9801  1.8841
   86SOPE   H2Y 8018   5.086   5.780   3.144 -1.3910 -0.0883 -0.3361
   86SOPE   C23 8019   4.496   5.782   3.238 -0.0314  0.7518  0.0529
   86SOPE   H3R 8020   4.466   5.675   3.236  0.5114  0.6032 -0.5558
   86SOPE   H3S 8021   4.416   5.837   3.293  1.1172 -0.0041  2.6188
   86SOPE   C24 8022   4.623   5.772   3.333 -0.4259 -0.1116  0.1653
   86SOPE   H4R 8023   4.685   5.693   3.285  0.9493 -0.3380  2.1805
   86SOPE   H4S 8024   4.676   5.869   3.326  1.3871 -0.9013  1.9606
   86SOPE   C25 8025   4.596   5.734   3.483  0.0513 -0.4775 -0.2811
   86SOPE   H5R 8026   4.532   5.812   3.531  0.5321 -1.6388  2.3957
   86SOPE   H5S 8027   4.525   5.648   3.482 -0.9038  0.2841 -0.0131
   86SOPE   C26 8028   4.722   5.725   3.567  0.0506  0.7187 -0.5768
   86SOPE   H6R 8029   4.789   5.645   3.531 -0.3602 -2.1044  4.1181
   86SOPE   H6S 8030   4.782   5.815   3.543 -1.5267  2.1923  0.6915
   86SOPE   C27 8031   4.706   5.710   3.711  0.4680  0.5863 -0.0556
   86SOPE   H7R 8032   4.648   5.799   3.744 -1.3201 -0.1359 -1.1208
   86SOPE   H7S 8033   4.643   5.619   3.721  2.0235 -0.3822  1.6038
   86SOPE   C28 8034   4.838   5.695   3.790 -0.5522 -0.5681  0.1521
   86SOPE   H8R 8035   4.904   5.784   3.783 -0.3750 -0.4346  2.7353
   86SOPE   H8S 8036   4.808   5.694   3.897  0.6846  0.4083  0.5312
   86SOPE   C29 8037   4.898   5.565   3.750  0.5248  0.2326  0.3304
   86SOPE   H91 8038   4.948   5.561   3.652  1.9129 -0.8007  1.0471
   86SOPE  C210 8039   4.917   5.464   3.833  0.0489 -0.0152  0.2415
   86SOPE  H101 8040   4.966   5.372   3.799 -1.5383 -1.1907  0.9515
   86SOPE  C211 8041   4.882   5.457   3.977  0.3494  1.2129  0.6390
   86SOPE  H11R 8042   4.783   5.502   4.001  0.2787  1.1720  0.4210
   86SOPE  H11S 8043   4.958   5.507   4.040 -0.9691  1.0719  2.4400
   86SOPE  C212 8044   4.864   5.316   4.037 -0.7155  0.8033  1.2091
   86SOPE  H12R 8045   4.961   5.262   4.045 -0.4717 -0.0353 -3.7759
   86SOPE  H12S 8046   4.795   5.256   3.974  1.4904 -1.4248  0.7577
   86SOPE  C213 8047   4.808   5.309   4.180 -0.2066  0.5680  0.2416
   86SOPE  H13R 8048   4.706   5.351   4.196 -1.3698 -2.3772  1.1063
   86SOPE  H13S 8049   4.890   5.346   4.245 -0.5178  3.6076 -0.8980
   86SOPE  C214 8050   4.799   5.164   4.230 -0.5373  0.2591  0.3602
   86SOPE  H14R 8051   4.898   5.120   4.204 -0.4155  0.3063  0.7457
   86SOPE  H14S 8052   4.725   5.115   4.163  1.4817 -1.9490 -0.3787
   86SOPE  C215 8053   4.753   5.156   4.372  0.6211 -0.2307  0.0624
   86SOPE  H15R 8054   4.746   5.051   4.406  0.0205 -0.7104 -1.4723
   86SOPE  H15S 8055   4.649   5.197   4.370  0.9883  0.7217 -2.3512
   86SOPE  C216 8056   4.833   5.235   4.481  0.1597  1.4174 -0.1155
   86SOPE  H16R 8057   4.837   5.342   4.454  0.9741  0.9493 -2.0261
   86SOPE  H16S 8058   4.937   5.196   4.482 -0.4116 -0.1623  0.4738
   86SOPE  C217 8059   4.786   5.207   4.626  0.3500 -0.6257  0.2518
   86SOPE  H17R 8060   4.767   5.097   4.627 -1.7098 -0.3040  0.4981
   86SOPE  H17S 8061   4.683   5.245   4.642  0.3908 -0.9859  1.4991
   86SOPE  C218 8062   4.882   5.255   4.733 -0.6041  0.3921  0.3814
   86SOPE  H18R 8063   4.885   5.365   4.743 -0.9672  0.2500  2.7389
   86SOPE  H18S 8064   4.985   5.224   4.704  0.7283  3.2961  1.6005
   86SOPE  H18T 8065   4.853   5.203   4.827  1.4031 -0.6653  0.4824
   86SOPE   C33 8066   5.131   5.990   3.193  0.4592  0.7716  0.0059
   86SOPE   H3X 8067   5.177   6.074   3.136  1.7797 -1.5161 -2.5297
   86SOPE   H3Y 8068   5.205   5.952   3.266  2.1948 -1.8853 -2.9007
   86SOPE   C34 8069   5.008   6.024   3.284  0.1385 -0.2379  0.7322
   86SOPE   H4X 8070   4.958   5.935   3.327 -0.5214 -1.8263 -2.9110
   86SOPE   H4Y 8071   4.931   6.066   3.216  1.2566  0.3884 -0.1964
   86SOPE   C35 8072   5.055   6.117   3.394  0.2155  0.4985 -0.1923
   86SOPE   H5X 8073   4.978   6.194   3.413 -0.6340 -0.3252 -0.2328
   86SOPE   H5Y 8074   5.153   6.159   3.360  0.3214  0.1042 -0.3916
   86SOPE   C36 8075   5.074   6.030   3.527 -0.8085 -0.0795 -0.0561
   86SOPE   H6X 8076   5.098   5.925   3.497  1.6515  0.7420 -1.2264
   86SOPE   H6Y 8077   4.975   6.026   3.577  0.0108  1.0551  1.7464
   86SOPE   C37 8078   5.172   6.085   3.630  0.3995  0.3620  0.2608
   86SOPE   H7X 8079   5.185   6.194   3.613 -0.4367  0.3476 -0.5315
   86SOPE   H7Y 8080   5.273   6.040   3.623 -0.8254 -2.5639  0.3198
   86SOPE   C38 8081   5.126   6.057   3.769 -0.0519  0.2899  0.4474
   86SOPE   H8X 8082   5.106   5.949   3.786 -0.1565 -0.1272 -2.0399
   86SOPE   H8Y 8083   5.024   6.100   3.786 -0.0526 -0.1451  1.6739
   86SOPE   C39 8084   5.215   6.110   3.888 -0.2058  0.4553  0.1741
   86SOPE   H9X 8085   5.234   6.218   3.872 -0.8338  0.4395 -0.7931
   86SOPE   H9Y 8086   5.317   6.066   3.894 -0.2081  0.6143  1.9102
   86SOPE  C310 8087   5.147   6.098   4.026 -0.4207  1.7345  0.5849
   86SOPE  H10X 8088   5.122   5.993   4.052 -0.6380  1.6348 -0.0130
   86SOPE  H10Y 8089   5.049   6.150   4.036 -0.9273  1.1752 -1.1198
   86SOPE  C311 8090   5.235   6.159   4.139  0.3901  0.6545 -0.0768
   86SOPE  H11X 8091   5.223   6.268   4.125  1.3953  0.7681 -0.1330
   86SOPE  H11Y 8092   5.339   6.120   4.133  1.0186  2.4206 -1.2504
   86SOPE  C312 8093   5.172   6.132   4.280 -0.0084  0.2009  0.2545
   86SOPE  H12X 8094   5.177   6.026   4.310  4.1143 -0.1752 -1.1977
   86SOPE  H12Y 8095   5.064   6.161   4.281  0.4064  2.5586 -3.2438
   86SOPE  C313 8096   5.247   6.212   4.386  0.6104  0.4410  0.2599
   86SOPE  H13X 8097   5.233   6.321   4.370  0.8026  0.6405  1.3950
   86SOPE  H13Y 8098   5.356   6.194   4.395  0.3008 -0.9441  1.6857
   86SOPE  C314 8099   5.181   6.171   4.529  0.3329  0.4706  0.0242
   86SOPE  H14X 8100   5.070   6.164   4.532  0.3886 -0.2317  0.7239
   86SOPE  H14Y 8101   5.201   6.259   4.594  0.4444  1.6827 -1.5850
   86SOPE  C315 8102   5.234   6.038   4.591 -0.4045 -0.9731  0.1373
   86SOPE  H15X 8103   5.344   6.050   4.602 -0.2269 -2.6323  0.4280
   86SOPE  H15Y 8104   5.206   5.968   4.509  0.7462 -0.8869 -0.3495
   86SOPE  C316 8105   5.176   5.992   4.719  0.8955  0.1828 -0.1087
   86SOPE  H16X 8106   5.229   5.902   4.758 -0.2010 -0.1396  0.6952
   86SOPE  H16Y 8107   5.072   5.956   4.699  0.9326  0.5091 -0.8964
   86SOPE  C317 8108   5.162   6.113   4.820 -0.5675  0.5789  0.7907
   86SOPE  H17X 8109   5.118   6.074   4.914  1.6530  0.7907  1.9965
   86SOPE  H17Y 8110   5.097   6.188   4.769 -1.1734 -2.0469 -2.7081
   86SOPE  C318 8111   5.294   6.174   4.858  0.0047  0.2942  1.0971
   86SOPE  H18X 8112   5.271   6.271   4.908 -2.6054 -0.6526  1.9019
   86SOPE  H18Y 8113   5.356   6.194   4.768 -0.3736 -0.7306  0.5918
   86SOPE  H18Z 8114   5.361   6.117   4.926 -1.6648 -2.2485  0.7233
   87SOPE     N 8115   6.053   3.470   2.857 -0.7025 -0.7436 -0.7517
   87SOPE   HN1 8116   6.135   3.407   2.867  1.0102  1.3624 -0.7821
   87SOPE   HN2 8117   5.989   3.467   2.939  0.1731  0.9949  0.0400
   87SOPE   HN3 8118   5.991   3.438   2.780 -1.3391  0.5228 -0.7897
   87SOPE   C12 8119   6.082   3.614   2.840 -0.2699 -0.0379 -0.3541
   87SOPE  H12A 8120   5.988   3.673   2.827 -0.0704  0.2767 -0.3705
   87SOPE  H12B 8121   6.153   3.624   2.755 -1.0610 -1.2655 -1.1951
   87SOPE   C11 8122   6.155   3.663   2.968  0.9739  0.0317  0.6278
   87SOPE  H11A 8123   6.109   3.616   3.057 -0.3896 -0.3045 -0.2291
   87SOPE  H11B 8124   6.155   3.774   2.967  2.5733  0.1556  3.3011
   87SOPE     P 8125   6.398   3.659   3.065  0.5547  0.2667  0.3460
   87SOPE   O13 8126   6.449   3.785   3.004  0.5053 -0.2855 -0.0846
   87SOPE   O14 8127   6.486   3.543   3.080 -1.3915  0.6519  0.0865
   87SOPE   O12 8128   6.284   3.609   2.966  0.6954 -0.7710 -0.3094
   87SOPE   O11 8129   6.327   3.689   3.203  0.2269  0.0471  0.2901
   87SOPE    C1 8130   6.302   3.818   3.250  0.0567  0.6254  0.3616
   87SOPE    HA 8131   6.262   3.880   3.166  1.0072  1.3396  0.4189
   87SOPE    HB 8132   6.395   3.870   3.282  0.6331  1.5671 -2.4770
   87SOPE    C2 8133   6.198   3.811   3.361  0.0939  0.6258 -0.6987
   87SOPE    HS 8134   6.180   3.920   3.378 -1.5611  0.3840 -0.7481
   87SOPE   O21 8135   6.254   3.744   3.478  0.0563 -0.6378 -0.4591
   87SOPE   C21 8136   6.226   3.804   3.596  0.3585 -0.3864  0.4862
   87SOPE   O22 8137   6.167   3.914   3.609 -0.1035  0.3014 -0.3567
   87SOPE   C22 8138   6.293   3.728   3.704  0.0898  0.8225 -0.5327
   87SOPE   H2R 8139   6.401   3.753   3.690  0.1736  0.7393 -0.0534
   87SOPE   H2S 8140   6.277   3.620   3.684 -1.5980  0.4515  2.2519
   87SOPE    C3 8141   6.055   3.731   3.331 -0.5382 -0.3803  0.2066
   87SOPE    HX 8142   6.089   3.628   3.307  2.1399  0.6649 -0.8350
   87SOPE    HY 8143   6.006   3.768   3.239  0.7495 -2.6091 -1.4532
   87SOPE   O31 8144   5.960   3.720   3.435 -0.3159  0.0012 -0.3501
   87SOPE   C31 8145   5.887   3.829   3.465  0.3741 -0.1178 -0.4388
   87SOPE   O32 8146   5.878   3.928   3.393 -0.0985  0.2269 -0.0583
   87SOPE   C32 8147   5.780   3.796   3.575  0.1475 -0.4169  0.0135
   87SOPE   H2X 8148   5.741   3.693   3.562 -1.3663 -0.0559  1.4425
   87SOPE   H2Y 8149   5.699   3.870   3.557  1.0393  0.2993 -1.2290
   87SOPE   C23 8150   6.249   3.767   3.847  0.9922 -0.7924  0.2762
   87SOPE   H3R 8151   6.174   3.692   3.881  0.6110 -0.3632  0.3874
   87SOPE   H3S 8152   6.203   3.868   3.849 -1.0866 -1.6808 -0.0827
   87SOPE   C24 8153   6.352   3.756   3.963  0.4983 -0.4229  0.5657
   87SOPE   H4R 8154   6.371   3.653   4.002 -0.3480  0.2084  2.7614
   87SOPE   H4S 8155   6.442   3.820   3.952  0.2144 -0.0853  0.2154
   87SOPE   C25 8156   6.283   3.811   4.094  0.6619 -0.0791  0.7076
   87SOPE   H5R 8157   6.371   3.800   4.160  0.3294 -2.3617  0.8567
   87SOPE   H5S 8158   6.254   3.918   4.101 -0.2116 -0.3959  2.6947
   87SOPE   C26 8159   6.174   3.724   4.147 -0.9622  0.0243 -0.6117
   87SOPE   H6R 8160   6.088   3.736   4.077 -0.4120  1.5598 -1.0518
   87SOPE   H6S 8161   6.205   3.617   4.145  1.9517  0.8003 -1.0297
   87SOPE   C27 8162   6.131   3.760   4.285 -0.0454  0.1645 -0.6687
   87SOPE   H7R 8163   6.087   3.861   4.297 -1.5017 -0.6771  1.9040
   87SOPE   H7S 8164   6.049   3.692   4.316 -0.5064  1.3821  0.9417
   87SOPE   C28 8165   6.249   3.762   4.388  0.0738  0.0191 -0.0525
   87SOPE   H8R 8166   6.326   3.832   4.349  1.9108 -2.0793 -0.4006
   87SOPE   H8S 8167   6.214   3.808   4.483 -1.2065 -1.5819  0.2897
   87SOPE   C29 8168   6.305   3.627   4.434 -0.3320 -0.2843  0.2189
   87SOPE   H91 8169   6.354   3.561   4.360 -0.8436 -0.1521 -0.2421
   87SOPE  C210 8170   6.301   3.581   4.557  0.4984  0.4216  0.3416
   87SOPE  H101 8171   6.346   3.481   4.568 -0.8830 -0.1563  1.0096
   87SOPE  C211 8172   6.233   3.631   4.683  0.3408  0.0636  0.1727
   87SOPE  H11R 8173   6.187   3.543   4.732  0.3720  0.9258  1.8381
   87SOPE  H11S 8174   6.152   3.706   4.673  0.7511  0.6812  1.2137
   87SOPE  C212 8175   6.335   3.691   4.781 -0.0563  0.0420 -0.1135
   87SOPE  H12R 8176   6.356   3.793   4.742 -3.4526  0.9285  0.0171
   87SOPE  H12S 8177   6.425   3.625   4.778  0.9353  1.2841  1.1492
   87SOPE  C213 8178   6.291   3.704   4.935 -0.5140  0.4722  0.0023
   87SOPE  H13R 8179   6.214   3.785   4.933 -0.7145  0.3765  1.9326
   87SOPE  H13S 8180   6.381   3.730   4.994 -0.3608  0.4949 -0.2391
   87SOPE  C214 8181   6.233   3.572   4.996 -0.4215  0.2870 -0.1434
   87SOPE  H14R 8182   6.298   3.484   4.977 -1.6675 -0.3738 -1.4667
   87SOPE  H14S 8183   6.129   3.553   4.963 -0.8479 -0.5062  1.4977
   87SOPE  C215 8184   6.208   3.573   5.145 -0.1211 -0.9648  0.5813
   87SOPE  H15R 8185   6.136   3.649   5.181 -1.2825 -1.0176 -1.4818
   87SOPE  H15S 8186   6.311   3.596   5.180  0.8198 -2.0091 -1.2912
   87SOPE  C216 8187   6.159   3.443   5.207 -0.0035 -0.3271  0.9757
   87SOPE  H16R 8188   6.247   3.377   5.191  1.2230  1.6581 -1.0233
   87SOPE  H16S 8189   6.085   3.392   5.142  0.8678  0.3493 -0.6120
   87SOPE  C217 8190   6.116   3.469   5.346  0.8285  0.1363  0.0493
   87SOPE  H17R 8191   6.024   3.532   5.344  0.9720  0.3207 -1.2141
   87SOPE  H17S 8192   6.186   3.538   5.398 -1.0355  0.8374  1.7823
   87SOPE  C218 8193   6.082   3.340   5.418 -0.4446 -0.1640  0.6426
   87SOPE  H18R 8194   6.012   3.281   5.355 -0.4532  1.8709 -1.3351
   87SOPE  H18S 8195   6.033   3.357   5.517 -1.2416 -0.7505  0.3629
   87SOPE  H18T 8196   6.173   3.276   5.430 -0.2149 -0.2278 -1.1698
   87SOPE   C33 8197   5.820   3.809   3.719 -0.7414 -0.3216 -0.6486
   87SOPE   H3X 8198   5.845   3.914   3.744 -2.4122 -0.6235  3.0338
   87SOPE   H3Y 8199   5.915   3.757   3.743 -0.6543 -0.4239 -1.2185
   87SOPE   C34 8200   5.725   3.755   3.821 -0.0201 -1.0846  0.1521
   87SOPE   H4X 8201   5.692   3.657   3.782 -2.1720  0.6820 -2.8609
   87SOPE   H4Y 8202   5.639   3.826   3.825 -0.6979 -1.8879 -0.0211
   87SOPE   C35 8203   5.783   3.742   3.965 -0.4440 -0.5756 -0.9048
   87SOPE   H5X 8204   5.835   3.838   3.986  0.2195 -1.4354  1.7667
   87SOPE   H5Y 8205   5.861   3.663   3.955  1.2108  0.8600  0.0604
   87SOPE   C36 8206   5.684   3.712   4.076 -0.4061  0.0631  0.4277
   87SOPE   H6X 8207   5.634   3.615   4.054 -0.2195  0.4980 -2.3491
   87SOPE   H6Y 8208   5.602   3.786   4.078 -1.9091 -1.4713 -1.3605
   87SOPE   C37 8209   5.758   3.716   4.208  0.0738  0.1177 -0.1766
   87SOPE   H7X 8210   5.775   3.823   4.233  0.7189 -0.1862  0.7272
   87SOPE   H7Y 8211   5.864   3.685   4.201  0.4109  0.9885  0.8623
   87SOPE   C38 8212   5.670   3.647   4.320 -0.1434  0.2823  0.5763
   87SOPE   H8X 8213   5.646   3.548   4.278  2.1422 -0.0614 -0.0393
   87SOPE   H8Y 8214   5.579   3.711   4.319  1.0667  2.1973 -2.5133
   87SOPE   C39 8215   5.748   3.636   4.450  0.9406 -0.2355 -0.2224
   87SOPE   H9X 8216   5.849   3.592   4.432  0.8919 -0.2807 -0.3875
   87SOPE   H9Y 8217   5.692   3.568   4.516 -0.0747  1.2550  0.5023
   87SOPE  C310 8218   5.772   3.774   4.518  0.2470  0.4418  0.2944
   87SOPE  H10X 8219   5.679   3.834   4.514  0.5982  1.0407  0.8830
   87SOPE  H10Y 8220   5.852   3.831   4.466  2.0416 -1.3103  0.9891
   87SOPE  C311 8221   5.809   3.745   4.669  0.1428 -0.2983 -0.0819
   87SOPE  H11X 8222   5.899   3.680   4.670 -0.6710 -1.4957 -0.7994
   87SOPE  H11Y 8223   5.730   3.676   4.707 -2.1713  1.6789 -0.9983
   87SOPE  C312 8224   5.839   3.860   4.770  0.6803 -0.5835  0.2140
   87SOPE  H12X 8225   5.895   3.813   4.854 -0.7343 -1.0520  0.9106
   87SOPE  H12Y 8226   5.742   3.898   4.807  0.8243 -1.1289  1.2035
   87SOPE  C313 8227   5.922   3.965   4.707 -0.8700  0.1062  0.4587
   87SOPE  H13X 8228   5.878   4.008   4.615 -0.5957 -2.3626 -0.9101
   87SOPE  H13Y 8229   6.024   3.932   4.678 -0.9576 -0.5164  0.8523
   87SOPE  C314 8230   5.946   4.088   4.791 -0.1788 -0.5641  0.1402
   87SOPE  H14X 8231   5.920   4.044   4.890 -2.3758 -0.7013 -0.4356
   87SOPE  H14Y 8232   5.868   4.168   4.790 -0.8250 -1.1744  0.7126
   87SOPE  C315 8233   6.088   4.145   4.788  0.2098  0.2422 -0.2882
   87SOPE  H15X 8234   6.095   4.178   4.682 -0.3829  2.0440  0.2053
   87SOPE  H15Y 8235   6.164   4.066   4.803  2.4037  2.0437 -1.3566
   87SOPE  C316 8236   6.106   4.251   4.894 -0.4925 -0.4134 -0.5654
   87SOPE  H16X 8237   6.214   4.278   4.887  0.3265 -2.3175  2.7069
   87SOPE  H16Y 8238   6.082   4.209   4.994  1.7494  1.2979  0.7917
   87SOPE  C317 8239   6.037   4.383   4.862 -0.5184 -0.2059  0.2009
   87SOPE  H17X 8240   5.929   4.362   4.878 -0.4983 -1.9950 -1.5793
   87SOPE  H17Y 8241   6.037   4.387   4.751 -2.6902 -1.0235  0.1209
   87SOPE  C318 8242   6.094   4.513   4.923 -0.0709  0.8484  0.7033
   87SOPE  H18X 8243   6.053   4.603   4.873  1.6199  1.6751  0.7369
   87SOPE  H18Y 8244   6.203   4.519   4.903 -0.1836 -1.0035 -0.7387
   87SOPE  H18Z 8245   6.068   4.516   5.032 -1.8660 -2.6135  0.5050
   88SOPE     N 8246   2.057   3.611   2.625 -1.0641  0.1087  0.2287
   88SOPE   HN1 8247   1.997   3.526   2.622  0.5588 -1.0467 -1.6784
   88SOPE   HN2 8248   2.037   3.657   2.534 -2.5236  1.3091  1.1072
   88SOPE   HN3 8249   2.157   3.587   2.643 -0.5258  1.3642 -0.9346
   88SOPE   C12 8250   2.006   3.697   2.738  0.0254 -0.2454  0.5227
   88SOPE  H12A 8251   1.967   3.636   2.823  3.2732  0.0735  2.3989
   88SOPE  H12B 8252   1.916   3.753   2.706 -0.1748  0.3663  2.0427
   88SOPE   C11 8253   2.112   3.801   2.769  0.2685  0.1885  0.8858
   88SOPE  H11A 8254   2.193   3.745   2.820 -1.0250  0.6651  3.6219
   88SOPE  H11B 8255   2.072   3.862   2.853 -0.3151  0.8121  0.1726
   88SOPE     P 8256   2.132   4.034   2.647  0.3417  0.2835 -0.0129
   88SOPE   O13 8257   2.094   4.070   2.510 -0.7174  0.1507 -0.6009
   88SOPE   O14 8258   2.249   4.103   2.706 -0.4783 -0.0789 -0.2309
   88SOPE   O12 8259   2.154   3.882   2.655 -0.2136  0.2527 -0.8341
   88SOPE   O11 8260   2.003   4.048   2.738  0.2051 -0.0966  0.6901
   88SOPE    C1 8261   1.959   4.178   2.774  0.2134  0.2135  0.4194
   88SOPE    HA 8262   1.857   4.154   2.810  0.3062 -1.6907 -0.4667
   88SOPE    HB 8263   1.950   4.256   2.696 -0.5280 -0.7698 -0.4989
   88SOPE    C2 8264   2.032   4.236   2.895 -0.1213 -0.6831 -1.0523
   88SOPE    HS 8265   2.134   4.275   2.875 -0.7002  2.9514  1.9476
   88SOPE   O21 8266   2.029   4.131   2.990 -0.1989 -0.4915  0.2693
   88SOPE   C21 8267   2.143   4.114   3.060 -0.2524 -0.5373 -0.7084
   88SOPE   O22 8268   2.246   4.180   3.044 -0.0061  0.0415  0.8337
   88SOPE   C22 8269   2.125   4.009   3.168  0.0855 -0.1075  0.1278
   88SOPE   H2R 8270   2.112   3.912   3.116  0.4988  1.1015 -2.3815
   88SOPE   H2S 8271   2.034   4.044   3.221 -1.1443 -0.2945 -1.7486
   88SOPE    C3 8272   1.949   4.349   2.956  0.3447  0.3354 -0.2764
   88SOPE    HX 8273   1.853   4.306   2.993  0.1293 -0.5025 -1.7210
   88SOPE    HY 8274   1.904   4.422   2.885  0.4036 -0.0401 -0.7055
   88SOPE   O31 8275   2.016   4.420   3.062 -0.2823 -0.0503  0.5359
   88SOPE   C31 8276   2.107   4.496   3.019 -0.6448  0.0064 -0.1003
   88SOPE   O32 8277   2.137   4.516   2.900  0.6971 -0.1650  0.0790
   88SOPE   C32 8278   2.181   4.558   3.139  0.1390  0.7002 -0.0199
   88SOPE   H2X 8279   2.130   4.656   3.148  2.2800  1.9019 -0.5344
   88SOPE   H2Y 8280   2.289   4.578   3.123  0.7293  0.8762  3.4228
   88SOPE   C23 8281   2.237   3.976   3.265 -0.3182 -0.2339  0.3909
   88SOPE   H3R 8282   2.341   3.981   3.225  0.4406  1.3905  2.3457
   88SOPE   H3S 8283   2.223   3.870   3.295 -0.4378 -0.2674  0.2219
   88SOPE   C24 8284   2.247   4.075   3.381  0.3040  0.4194  0.1380
   88SOPE   H4R 8285   2.256   4.184   3.360 -2.1898  0.9538  1.4215
   88SOPE   H4S 8286   2.160   4.062   3.449 -0.7651  2.7364 -0.6719
   88SOPE   C25 8287   2.375   4.054   3.459 -0.4751 -0.3520  0.1628
   88SOPE   H5R 8288   2.371   3.949   3.494  1.4464 -0.7734 -0.7133
   88SOPE   H5S 8289   2.465   4.057   3.393  0.0019 -0.7276  0.7813
   88SOPE   C26 8290   2.389   4.155   3.575  0.0526 -0.2421 -0.5247
   88SOPE   H6R 8291   2.404   4.261   3.544 -0.4416 -0.2824 -0.9164
   88SOPE   H6S 8292   2.300   4.149   3.640  1.0972  1.7843  1.2065
   88SOPE   C27 8293   2.507   4.110   3.662 -0.4328 -0.8053 -0.0632
   88SOPE   H7R 8294   2.477   4.016   3.713  1.2703 -1.8332 -0.8907
   88SOPE   H7S 8295   2.606   4.104   3.612  0.5355  1.3092  1.4387
   88SOPE   C28 8296   2.546   4.209   3.780  0.2597  0.6872  0.9354
   88SOPE   H8R 8297   2.635   4.165   3.829  0.3439  0.2008  0.3586
   88SOPE   H8S 8298   2.566   4.303   3.725 -0.6071 -0.0068 -0.6449
   88SOPE   C29 8299   2.426   4.237   3.863  0.2347  0.0207 -0.1971
   88SOPE   H91 8300   2.331   4.265   3.814  1.0031 -0.8466 -2.2749
   88SOPE  C210 8301   2.412   4.199   3.991  0.2313  0.4986  0.3252
   88SOPE  H101 8302   2.317   4.215   4.044 -0.4600  0.5575 -0.8879
   88SOPE  C211 8303   2.523   4.135   4.071 -0.5247 -0.5458 -0.1424
   88SOPE  H11R 8304   2.586   4.218   4.109 -0.0548 -1.2639  0.6697
   88SOPE  H11S 8305   2.592   4.071   4.012  1.0050  0.3355  0.6304
   88SOPE  C212 8306   2.460   4.068   4.194 -0.1697  0.2135 -0.8603
   88SOPE  H12R 8307   2.425   3.967   4.163  0.1860  0.3812 -1.8502
   88SOPE  H12S 8308   2.376   4.129   4.234  1.5904  2.3426 -0.1892
   88SOPE  C213 8309   2.549   4.043   4.319 -0.2690  0.1916  0.5152
   88SOPE  H13R 8310   2.570   4.142   4.365 -0.8669  0.7194 -0.3312
   88SOPE  H13S 8311   2.643   3.994   4.284  0.0717  0.2231  1.3595
   88SOPE  C214 8312   2.490   3.954   4.425  0.2680  0.2881  0.2569
   88SOPE  H14R 8313   2.462   3.853   4.388 -0.0822  0.9405 -1.3530
   88SOPE  H14S 8314   2.388   3.992   4.448  0.9010  2.2694 -0.0117
   88SOPE  C215 8315   2.588   3.942   4.548 -0.7390  0.1849  0.9240
   88SOPE  H15R 8316   2.639   4.039   4.566  0.5020 -0.2048 -0.3378
   88SOPE  H15S 8317   2.666   3.867   4.524 -1.6077 -0.7443  0.8962
   88SOPE  C216 8318   2.528   3.879   4.671  0.0073  0.8190  0.0114
   88SOPE  H16R 8319   2.473   3.788   4.637  1.2345  0.0567  0.0122
   88SOPE  H16S 8320   2.444   3.946   4.701  0.2943  0.4762  1.6192
   88SOPE  C217 8321   2.630   3.861   4.789 -0.7465  0.1771  0.0264
   88SOPE  H17R 8322   2.703   3.787   4.750 -1.7588  1.0783 -3.9989
   88SOPE  H17S 8323   2.582   3.814   4.877  0.8535 -0.5716  0.5398
   88SOPE  C218 8324   2.695   3.990   4.834 -0.5639 -0.1130  0.2549
   88SOPE  H18R 8325   2.618   4.039   4.898 -0.8175  0.3413 -0.3811
   88SOPE  H18S 8326   2.730   4.068   4.763 -0.3187 -0.5657 -0.1236
   88SOPE  H18T 8327   2.784   3.969   4.897 -0.5553 -1.1052 -0.0801
   88SOPE   C33 8328   2.161   4.489   3.276  0.8236  0.0749 -0.3860
   88SOPE   H3X 8329   2.199   4.385   3.273 -2.7336 -1.4230  1.4301
   88SOPE   H3Y 8330   2.054   4.474   3.297  0.8883 -0.4625 -0.4288
   88SOPE   C34 8331   2.215   4.569   3.395  0.1500 -0.3325 -0.7742
   88SOPE   H4X 8332   2.325   4.580   3.381 -0.1199  1.4773 -1.8387
   88SOPE   H4Y 8333   2.198   4.502   3.481  0.2117  0.3970 -0.1812
   88SOPE   C35 8334   2.141   4.698   3.421 -0.3177 -0.4548 -0.3373
   88SOPE   H5X 8335   2.033   4.676   3.433 -0.9922  2.2452 -0.6574
   88SOPE   H5Y 8336   2.153   4.755   3.326  2.5291 -0.9861 -0.3841
   88SOPE   C36 8337   2.188   4.789   3.536  0.1724 -0.3681  0.0290
   88SOPE   H6X 8338   2.124   4.879   3.549 -1.7298 -1.3490 -1.9236
   88SOPE   H6Y 8339   2.282   4.834   3.499 -0.2333  1.2232  0.8684
   88SOPE   C37 8340   2.202   4.712   3.664 -0.0832 -0.1649 -0.1838
   88SOPE   H7X 8341   2.301   4.660   3.665 -0.1496 -0.3108 -1.0091
   88SOPE   H7Y 8342   2.122   4.637   3.680 -0.3779 -0.4130 -2.5332
   88SOPE   C38 8343   2.193   4.818   3.778  0.0986 -0.4653 -0.3262
   88SOPE   H8X 8344   2.093   4.866   3.772 -0.2206 -1.2213 -1.8533
   88SOPE   H8Y 8345   2.270   4.895   3.760 -0.5436  0.6641  1.5269
   88SOPE   C39 8346   2.207   4.756   3.914  0.4181  1.1233  0.4649
   88SOPE   H9X 8347   2.306   4.708   3.932  0.3945  0.6726 -0.5585
   88SOPE   H9Y 8348   2.142   4.667   3.920  0.0368  1.4267  0.8697
   88SOPE  C310 8349   2.168   4.850   4.027  0.1809 -0.3927 -0.5949
   88SOPE  H10X 8350   2.190   4.790   4.118 -2.9743  1.5589  1.6946
   88SOPE  H10Y 8351   2.057   4.848   4.041  0.2754 -0.8930  0.1534
   88SOPE  C311 8352   2.237   4.987   4.022 -0.1885 -0.0627  0.6896
   88SOPE  H11X 8353   2.196   5.062   4.093 -3.4039 -0.7299 -0.3301
   88SOPE  H11Y 8354   2.210   5.028   3.923 -0.9720  0.1457  0.9885
   88SOPE  C312 8355   2.393   4.983   4.041 -0.2119  0.0473 -0.0818
   88SOPE  H12X 8356   2.446   5.080   4.029 -0.2331  0.0549 -0.1125
   88SOPE  H12Y 8357   2.424   4.924   3.952  0.3490 -1.3947  1.0106
   88SOPE  C313 8358   2.454   4.904   4.165  0.7778  0.3900 -0.0333
   88SOPE  H13X 8359   2.564   4.892   4.156  1.2590  1.6429  2.9521
   88SOPE  H13Y 8360   2.401   4.806   4.164 -0.0812  0.8117  1.1394
   88SOPE  C314 8361   2.419   4.989   4.288 -0.3993  0.4309 -0.4193
   88SOPE  H14X 8362   2.317   4.974   4.330 -0.4464  1.0820 -0.2955
   88SOPE  H14Y 8363   2.445   5.095   4.270  1.4375  0.4092  1.6513
   88SOPE  C315 8364   2.517   4.940   4.405  0.2579 -0.3309  0.0833
   88SOPE  H15X 8365   2.617   4.956   4.359  0.0295 -0.5507 -0.5125
   88SOPE  H15Y 8366   2.507   4.830   4.418 -1.2504 -0.3454 -0.8591
   88SOPE  C316 8367   2.484   4.996   4.533 -0.0853 -0.2320 -0.0317
   88SOPE  H16X 8368   2.394   4.949   4.578 -0.5448  1.0426  0.4076
   88SOPE  H16Y 8369   2.454   5.103   4.529 -1.6389 -0.5395  1.7080
   88SOPE  C317 8370   2.599   4.967   4.635  0.5074 -0.9726 -0.2105
   88SOPE  H17X 8371   2.694   5.007   4.592  1.1639 -2.5404 -0.2952
   88SOPE  H17Y 8372   2.606   4.856   4.636 -0.2692 -1.0202  0.3007
   88SOPE  C318 8373   2.573   5.017   4.777  0.1296 -0.5025  0.1920
   88SOPE  H18X 8374   2.590   5.126   4.790 -0.3555 -0.1186 -2.0176
   88SOPE  H18Y 8375   2.634   4.957   4.847  2.4736  3.7665  2.2079
   88SOPE  H18Z 8376   2.467   5.004   4.809 -0.6113 -2.4536 -2.6463
   89SAPC     N 8377   4.706   5.598   7.723 -0.4782 -0.3317  0.4560
   89SAPC   C12 8378   4.705   5.712   7.615 -0.3643 -0.3204 -0.6637
   89SAPC  H12A 8379   4.805   5.713   7.572 -0.3235 -0.9543 -0.5943
   89SAPC  H12B 8380   4.698   5.805   7.669 -0.4275 -0.0663 -1.1020
   89SAPC   C13 8381   4.825   5.616   7.809 -0.0101 -0.2144  0.0031
   89SAPC  H13A 8382   4.818   5.704   7.871  0.6973  2.1007 -2.9860
   89SAPC  H13B 8383   4.833   5.530   7.874 -2.3399 -0.0727  0.5612
   89SAPC  H13C 8384   4.914   5.622   7.748 -0.9596  1.2808 -1.3157
   89SAPC   C14 8385   4.583   5.602   7.804  0.0404 -0.0067 -1.0374
   89SAPC  H14A 8386   4.496   5.610   7.740  0.4427 -0.4825 -1.6594
   89SAPC  H14B 8387   4.582   5.516   7.870  0.8937 -1.0437 -2.3263
   89SAPC  H14C 8388   4.577   5.687   7.870 -0.2801  1.3721 -2.7815
   89SAPC   C15 8389   4.718   5.464   7.654  0.1021  0.2844 -0.6032
   89SAPC  H15A 8390   4.656   5.478   7.567  1.1962  1.9308 -1.1577
   89SAPC  H15B 8391   4.815   5.443   7.612 -0.1879 -1.5376 -0.4370
   89SAPC  H15C 8392   4.705   5.374   7.712  1.6040  1.3992  1.5979
   89SAPC   C11 8393   4.591   5.710   7.513  0.1072 -0.1303  0.0539
   89SAPC  H11A 8394   4.603   5.790   7.436  1.1354  0.3414  0.6755
   89SAPC  H11B 8395   4.505   5.738   7.578  0.6163  0.3018  0.5575
   89SAPC     P 8396   4.626   5.547   7.309  0.1507 -0.1726 -0.1675
   89SAPC   O13 8397   4.648   5.401   7.304  0.6021  0.7125 -0.9480
   89SAPC   O14 8398   4.539   5.608   7.211  0.0309  0.1194  0.3488
   89SAPC   O12 8399   4.568   5.586   7.451 -0.0949  0.0265  0.7539
   89SAPC   O11 8400   4.765   5.611   7.307 -0.1304 -0.0751 -0.5334
   89SAPC    C1 8401   4.799   5.726   7.230 -0.2994 -0.3740 -0.7208
   89SAPC    HA 8402   4.719   5.803   7.246  1.2899  1.4530 -1.2262
   89SAPC    HB 8403   4.895   5.770   7.262 -1.2350  3.4800 -2.6196
   89SAPC    C2 8404   4.830   5.689   7.080  0.0876  1.1005  0.1079
   89SAPC    HS 8405   4.734   5.660   7.032  1.2821  0.3821 -1.9959
   89SAPC   O21 8406   4.924   5.578   7.075  0.4855  0.4070 -0.1797
   89SAPC   C21 8407   4.904   5.505   6.969 -0.3407 -0.1481 -0.1811
   89SAPC   O22 8408   4.821   5.524   6.878 -0.1169 -0.0233  0.1927
   89SAPC   C22 8409   5.010   5.393   6.970  0.3122  0.4699 -0.2263
   89SAPC   H2R 8410   5.033   5.359   7.073  2.5855 -1.9579 -1.3872
   89SAPC   H2S 8411   4.961   5.300   6.934 -1.0280  0.6150  1.1528
   89SAPC    C3 8412   4.884   5.817   7.007 -0.0389 -0.0572 -0.2530
   89SAPC    HX 8413   4.986   5.841   7.042 -0.9089  2.5862  0.6984
   89SAPC    HY 8414   4.833   5.911   7.038 -0.5703  0.1638 -1.7202
   89SAPC   O31 8415   4.892   5.804   6.862  0.8522  0.1187  0.2574
   89SAPC   C31 8416   4.777   5.807   6.793 -0.1216  0.1349  0.0921
   89SAPC   O32 8417   4.666   5.837   6.842 -0.6377 -0.2429  0.2617
   89SAPC   C32 8418   4.799   5.750   6.656  0.4200  0.0288 -0.1101
   89SAPC   H2X 8419   4.855   5.655   6.670  0.5380 -0.1488 -1.5991
   89SAPC   H2Y 8420   4.875   5.820   6.613  0.4253  0.5377  0.7136
   89SAPC   C23 8421   5.142   5.430   6.890 -0.3573 -0.4499  0.2647
   89SAPC   H3R 8422   5.191   5.339   6.850  1.2255  1.4712 -2.5147
   89SAPC   H3S 8423   5.212   5.472   6.965 -1.6639  0.9543  0.7542
   89SAPC   C24 8424   5.123   5.538   6.775  0.5017 -0.6778  0.5993
   89SAPC   H4R 8425   5.091   5.635   6.817 -0.5870 -1.0977  0.7527
   89SAPC   H4S 8426   5.038   5.508   6.711  1.7398 -0.9330 -0.9742
   89SAPC   C25 8427   5.262   5.537   6.698  0.7020  0.0439  0.5978
   89SAPC   H5R 8428   5.341   5.582   6.760 -0.0569 -1.7356  3.0619
   89SAPC   C26 8429   5.288   5.480   6.579  1.0264 -0.9801 -0.5884
   89SAPC   H6R 8430   5.384   5.503   6.529  0.4791  1.7402 -0.5183
   89SAPC   C27 8431   5.185   5.399   6.494 -0.1757 -0.2827  0.0835
   89SAPC   H7R 8432   5.150   5.312   6.554 -1.6717 -0.0616 -0.4248
   89SAPC   H7S 8433   5.238   5.349   6.409 -1.2580  3.2712 -2.9701
   89SAPC   C28 8434   5.066   5.476   6.444 -0.5273 -0.4079  0.4359
   89SAPC   H8R 8435   5.023   5.561   6.500 -2.0079 -0.7962 -0.0542
   89SAPC   C29 8436   5.008   5.447   6.327  0.3198 -0.6580  0.0929
   89SAPC   H9R 8437   4.919   5.502   6.294  0.5381 -0.3899 -0.0554
   89SAPC  C210 8438   5.052   5.350   6.227 -0.0534 -0.0512  0.2746
   89SAPC  H10R 8439   5.047   5.250   6.275  0.0947 -1.6666 -2.8096
   89SAPC  H10S 8440   5.157   5.361   6.193 -0.2191  0.8591  0.0255
   89SAPC  C211 8441   4.956   5.346   6.110  0.1828  0.0326 -0.1198
   89SAPC  H11R 8442   4.881   5.265   6.116 -0.0710  0.3045  0.4569
   89SAPC  C212 8443   4.964   5.432   6.007 -0.0257  0.5622 -0.7312
   89SAPC  H12R 8444   4.890   5.424   5.926  0.1453 -3.6305 -0.6712
   89SAPC  C213 8445   5.067   5.540   5.985  1.3663 -0.5617  0.0160
   89SAPC  H13R 8446   5.086   5.605   6.073 -0.1502  2.9691 -2.0664
   89SAPC  H13S 8447   5.025   5.608   5.907  2.7561  0.3860  0.0490
   89SAPC  C214 8448   5.195   5.489   5.922 -0.1507  0.5829 -0.1916
   89SAPC  H14R 8449   5.273   5.484   6.000 -2.0299  1.9788  1.9407
   89SAPC  C215 8450   5.226   5.464   5.790  0.0863 -0.6875 -0.5972
   89SAPC  H15R 8451   5.330   5.440   5.764  1.1904  0.8931  1.9404
   89SAPC  C216 8452   5.133   5.474   5.667  0.0228 -0.2062 -0.0582
   89SAPC  H16R 8453   5.026   5.491   5.690 -0.3870 -0.0246 -2.0009
   89SAPC  H16S 8454   5.142   5.377   5.613 -1.3995 -0.8222  0.7344
   89SAPC  C217 8455   5.159   5.595   5.574  0.7056  0.0600  0.3098
   89SAPC  H17R 8456   5.260   5.602   5.528  0.9571  1.0800  0.9680
   89SAPC  H17S 8457   5.168   5.680   5.645  1.6534 -0.2976  0.6279
   89SAPC  C218 8458   5.045   5.606   5.473  0.1124  0.0218 -0.1517
   89SAPC  H18R 8459   4.949   5.620   5.526 -1.1187  1.2249 -2.5521
   89SAPC  H18S 8460   5.030   5.511   5.418 -1.3081  0.3655 -0.3867
   89SAPC  C219 8461   5.058   5.719   5.374  0.1006  0.0757  0.3596
   89SAPC  H19R 8462   5.117   5.690   5.285 -0.0923  0.6816  0.0316
   89SAPC  H19S 8463   5.131   5.788   5.421  0.4945 -0.1575  0.0948
   89SAPC  C220 8464   4.925   5.789   5.329 -0.7457 -0.4210 -0.3453
   89SAPC  H20R 8465   4.950   5.891   5.293 -0.2132 -0.6925 -0.7664
   89SAPC  H20S 8466   4.875   5.802   5.428  2.5069  3.9642  1.0120
   89SAPC  H20T 8467   4.872   5.719   5.261 -1.2985  2.5897 -3.2151
   89SAPC   C33 8468   4.669   5.731   6.583 -0.0260 -0.4338 -0.8006
   89SAPC   H3X 8469   4.599   5.817   6.590 -0.2815 -0.8175  3.2274
   89SAPC   H3Y 8470   4.625   5.640   6.628  0.6012  0.1980  1.2010
   89SAPC   C34 8471   4.689   5.689   6.437  0.4077 -0.1728 -0.8267
   89SAPC   H4X 8472   4.596   5.637   6.406  1.3751 -0.7899 -2.8489
   89SAPC   H4Y 8473   4.771   5.615   6.430 -0.0118 -0.7487  0.0934
   89SAPC   C35 8474   4.695   5.795   6.334  0.0762 -0.1464  0.1751
   89SAPC   H5X 8475   4.789   5.853   6.325  0.7010 -1.3533 -1.3599
   89SAPC   H5Y 8476   4.612   5.867   6.351  0.5379  1.2063 -2.6922
   89SAPC   C36 8477   4.698   5.742   6.190  0.5222 -0.4144  0.1708
   89SAPC   H6X 8478   4.612   5.674   6.176 -0.3850  0.6265  0.5129
   89SAPC   H6Y 8479   4.797   5.706   6.157  1.1697  2.6591 -1.6887
   89SAPC   C37 8480   4.666   5.856   6.085 -0.8290 -0.1319 -0.2344
   89SAPC   H7X 8481   4.739   5.939   6.090 -0.8025 -0.1681 -0.0474
   89SAPC   H7Y 8482   4.566   5.900   6.106 -0.9820 -0.0453 -1.0708
   89SAPC   C38 8483   4.647   5.797   5.951  0.2447  0.2771 -0.2178
   89SAPC   H8X 8484   4.594   5.699   5.956 -0.1395  0.4232 -1.1441
   89SAPC   H8Y 8485   4.745   5.779   5.903  1.0776  2.6467  0.4900
   89SAPC   C39 8486   4.566   5.889   5.855  0.0165  0.7169 -0.4285
   89SAPC   H9X 8487   4.580   5.998   5.872 -2.0629  0.9475  0.0764
   89SAPC   H9Y 8488   4.455   5.884   5.863 -0.0131 -2.6466 -1.1960
   89SAPC  C310 8489   4.616   5.863   5.714  0.1008  0.0963  0.2294
   89SAPC  H10X 8490   4.605   5.754   5.696 -0.7831  0.4509 -1.5901
   89SAPC  H10Y 8491   4.724   5.886   5.701  0.4562 -1.7649 -0.2803
   89SAPC  C311 8492   4.534   5.933   5.599 -0.8597  0.5270 -0.3731
   89SAPC  H11X 8493   4.566   6.038   5.581 -1.1063  0.5148 -0.9057
   89SAPC  H11Y 8494   4.429   5.933   5.634 -0.9822  1.2680 -0.7155
   89SAPC  C312 8495   4.550   5.864   5.462  0.4326 -0.2858  0.1363
   89SAPC  H12X 8496   4.575   5.757   5.479  4.5630  0.7562  2.0991
   89SAPC  H12Y 8497   4.643   5.901   5.413  0.7403  1.3971  1.8715
   89SAPC  C313 8498   4.426   5.889   5.378  0.2119  0.8148  0.1389
   89SAPC  H13X 8499   4.336   5.878   5.442  0.0832 -0.0695 -0.1846
   89SAPC  H13Y 8500   4.427   5.828   5.285  1.0574 -1.9746  1.8860
   89SAPC  C314 8501   4.429   6.038   5.321 -0.2377  1.0501 -0.3665
   89SAPC  H14X 8502   4.522   6.052   5.262  0.5636  0.7993  0.7952
   89SAPC  H14Y 8503   4.447   6.107   5.407 -1.0562  1.5554 -0.5911
   89SAPC  C315 8504   4.313   6.086   5.225  0.0007  0.1586  0.0230
   89SAPC  H15X 8505   4.335   6.188   5.187  1.6067  1.4468  3.9474
   89SAPC  H15Y 8506   4.217   6.088   5.282  0.5844 -1.0350  1.0933
   89SAPC  C316 8507   4.300   6.003   5.093  0.2028  0.3460 -0.0554
   89SAPC  H16X 8508   4.230   6.050   5.021  1.3880  0.2513 -1.3154
   89SAPC  H16Y 8509   4.245   5.911   5.123  3.0020 -0.2110  4.1988
   89SAPC  C317 8510   4.434   5.970   5.019 -0.1559  0.1954 -0.4360
   89SAPC  H17X 8511   4.411   5.904   4.933 -1.1523  1.0972 -0.8834
   89SAPC  H17Y 8512   4.499   5.914   5.089  1.5766  3.8607  1.1503
   89SAPC  C318 8513   4.511   6.095   4.988  0.6334 -0.3040 -0.3809
   89SAPC  H18X 8514   4.521   6.171   5.068  0.0685  3.8037 -3.8298
   89SAPC  H18Y 8515   4.472   6.147   4.898  0.6247  0.3468 -0.0043
   89SAPC  H18Z 8516   4.611   6.078   4.941  1.5825 -0.3646  1.5841
   90SAPC     N 8517   1.841   1.756   7.134  0.2454 -0.0681  0.9635
   90SAPC   C12 8518   1.758   1.647   7.205  0.5491  0.5462  0.1674
   90SAPC  H12A 8519   1.824   1.579   7.258 -0.8121  0.5194  1.9475
   90SAPC  H12B 8520   1.709   1.582   7.134  0.7559  0.7986 -0.2026
   90SAPC   C13 8521   1.929   1.830   7.236  0.2202  0.1487  0.0267
   90SAPC  H13A 8522   2.015   1.775   7.272  1.0876  1.5714  0.2236
   90SAPC  H13B 8523   1.965   1.924   7.197  0.0826  1.0360  1.9441
   90SAPC  H13C 8524   1.878   1.866   7.324 -0.7981 -1.3828  0.0940
   90SAPC   C14 8525   1.935   1.695   7.032  0.4205  0.1484 -0.5896
   90SAPC  H14A 8526   2.011   1.637   7.082 -1.4300 -1.6929  0.2750
   90SAPC  H14B 8527   1.871   1.626   6.979 -0.2519  0.6613 -0.4639
   90SAPC  H14C 8528   1.983   1.771   6.972 -2.0097  2.0519 -0.2868
   90SAPC   C15 8529   1.760   1.863   7.070  0.1308 -0.1286 -0.5864
   90SAPC  H15A 8530   1.673   1.820   7.023  1.9206 -2.6560 -1.8186
   90SAPC  H15B 8531   1.738   1.943   7.140  0.6835  0.4582 -1.0689
   90SAPC  H15C 8532   1.811   1.912   6.989 -3.1684  2.2196 -1.4339
   90SAPC   C11 8533   1.661   1.694   7.317  0.1095 -0.3861 -0.7361
   90SAPC  H11A 8534   1.708   1.773   7.378 -0.3297 -0.6729 -0.0137
   90SAPC  H11B 8535   1.629   1.609   7.382 -1.5885  1.4452  0.9575
   90SAPC     P 8536   1.420   1.781   7.343 -0.2412  0.2935 -0.0577
   90SAPC   O13 8537   1.432   1.717   7.480  0.3506 -0.3411  0.6204
   90SAPC   O14 8538   1.404   1.926   7.353 -0.4563  0.0126 -0.2802
   90SAPC   O12 8539   1.543   1.741   7.255 -0.0926  0.0278 -0.1108
   90SAPC   O11 8540   1.299   1.712   7.267  0.1639  0.1742  0.0749
   90SAPC    C1 8541   1.311   1.641   7.140  0.3149 -0.8419 -0.1968
   90SAPC    HA 8542   1.400   1.575   7.133  1.5674  0.7292  0.1890
   90SAPC    HB 8543   1.231   1.565   7.135 -1.4970  0.9733  0.2232
   90SAPC    C2 8544   1.296   1.738   7.017  0.3848  0.1446 -0.1075
   90SAPC    HS 8545   1.374   1.817   7.018  1.2302 -0.6277 -1.6775
   90SAPC   O21 8546   1.169   1.813   7.023 -0.1421  0.2518 -0.1220
   90SAPC   C21 8547   1.162   1.929   6.947 -0.0414 -0.0998  0.3859
   90SAPC   O22 8548   1.247   1.975   6.873  0.2231 -0.1759 -0.6014
   90SAPC   C22 8549   1.020   1.974   6.964 -0.1977  0.2063  0.6278
   90SAPC   H2R 8550   0.956   1.887   6.990 -1.9448  1.5722  1.0668
   90SAPC   H2S 8551   1.027   2.028   7.061  0.1481  1.2574  0.0405
   90SAPC    C3 8552   1.297   1.648   6.888  0.0580 -0.4495  0.5526
   90SAPC    HX 8553   1.227   1.563   6.898 -1.0728  0.2878 -0.7611
   90SAPC    HY 8554   1.395   1.595   6.888  0.3216  0.0384  0.6666
   90SAPC   O31 8555   1.275   1.713   6.762  0.5131 -0.1062 -0.0797
   90SAPC   C31 8556   1.375   1.774   6.713 -0.1791  0.1541  0.0540
   90SAPC   O32 8557   1.490   1.775   6.757  0.0259 -0.4008  0.0666
   90SAPC   C32 8558   1.330   1.854   6.586  0.2712 -0.0141 -0.6379
   90SAPC   H2X 8559   1.347   1.958   6.619 -3.0104  0.0631  1.2158
   90SAPC   H2Y 8560   1.223   1.840   6.562 -0.0495  1.1314  0.0574
   90SAPC   C23 8561   0.945   2.050   6.847  0.2641  0.7235  0.2871
   90SAPC   H3R 8562   1.006   2.126   6.794  1.6116 -0.0015  0.7714
   90SAPC   H3S 8563   0.851   2.102   6.876 -1.5413 -2.2739  0.2081
   90SAPC   C24 8564   0.913   1.956   6.723  0.2562  0.9617 -0.8569
   90SAPC   H4R 8565   0.879   1.858   6.763  1.1621  0.3862 -1.4370
   90SAPC   H4S 8566   1.014   1.943   6.679  1.1247 -0.1831  1.2804
   90SAPC   C25 8567   0.814   2.020   6.637  0.0301  1.0564 -0.1919
   90SAPC   H5R 8568   0.726   2.066   6.685 -0.9319  0.5710 -1.4288
   90SAPC   C26 8569   0.824   2.005   6.502  0.2976 -0.3299 -0.4129
   90SAPC   H6R 8570   0.750   2.054   6.437  1.5625  1.5506 -0.5258
   90SAPC   C27 8571   0.942   1.945   6.433  0.4645 -0.6250 -0.1108
   90SAPC   H7R 8572   0.905   1.909   6.335 -1.8922  0.2884  0.3695
   90SAPC   H7S 8573   0.991   1.860   6.485  4.1049  2.9728  2.9658
   90SAPC   C28 8574   1.050   2.044   6.402  0.4137 -0.6087  0.2456
   90SAPC   H8R 8575   1.088   2.088   6.495  1.2329 -0.4549 -0.1517
   90SAPC   C29 8576   1.104   2.079   6.283  0.2059  0.0721 -0.3638
   90SAPC   H9R 8577   1.188   2.151   6.281  1.0912 -0.9425 -0.9684
   90SAPC  C210 8578   1.058   2.028   6.152  0.1377  0.3902  1.1247
   90SAPC  H10R 8579   0.951   2.057   6.143  0.1625  0.0065 -0.8992
   90SAPC  H10S 8580   1.056   1.917   6.156  0.9842  0.3392  0.3498
   90SAPC  C211 8581   1.122   2.067   6.025  0.3727  0.6456 -0.3404
   90SAPC  H11R 8582   1.194   2.149   6.039  0.3870  0.6456 -0.4107
   90SAPC  C212 8583   1.105   2.017   5.900 -0.0024  0.0252  0.5448
   90SAPC  H12R 8584   1.170   2.057   5.821 -0.2017 -2.1253 -0.7711
   90SAPC  C213 8585   1.033   1.904   5.847 -0.0060 -0.1249  1.1401
   90SAPC  H13R 8586   1.051   1.811   5.907 -2.4985 -0.1198  2.0450
   90SAPC  H13S 8587   1.076   1.887   5.746  0.3356 -1.2633  1.4516
   90SAPC  C214 8588   0.882   1.928   5.838 -0.4963  0.7869  0.5808
   90SAPC  H14R 8589   0.845   1.942   5.940 -0.5622  0.2353  0.6330
   90SAPC  C215 8590   0.803   1.931   5.729  0.5833  0.0541 -0.5126
   90SAPC  H15R 8591   0.697   1.935   5.756  0.5669 -1.9004 -0.1517
   90SAPC  C216 8592   0.830   1.921   5.582  0.3916 -0.0251 -0.0298
   90SAPC  H16R 8593   0.937   1.938   5.560 -0.2681 -0.0673 -3.9587
   90SAPC  H16S 8594   0.778   2.009   5.538 -1.2802 -0.2110  1.4293
   90SAPC  C217 8595   0.759   1.793   5.516 -0.2462 -0.4847  0.5287
   90SAPC  H17R 8596   0.654   1.789   5.551 -1.2011  2.8728 -1.5189
   90SAPC  H17S 8597   0.818   1.702   5.540 -1.8436 -1.6904  0.0005
   90SAPC  C218 8598   0.753   1.817   5.360  0.4976 -0.4888  0.4584
   90SAPC  H18R 8599   0.856   1.825   5.319 -0.0934 -2.9373 -1.7811
   90SAPC  H18S 8600   0.707   1.914   5.330  1.6572 -0.4365 -1.2663
   90SAPC  C219 8601   0.687   1.707   5.278 -0.1198  0.1517  0.3043
   90SAPC  H19R 8602   0.731   1.608   5.302  3.6151  2.1197  2.4301
   90SAPC  H19S 8603   0.694   1.728   5.169  0.1756 -1.5552 -0.0257
   90SAPC  C220 8604   0.539   1.704   5.322  0.4731 -0.1051 -0.5907
   90SAPC  H20R 8605   0.477   1.782   5.272  1.1222  0.2424 -0.8725
   90SAPC  H20S 8606   0.518   1.711   5.430 -1.4071  0.9437 -0.9877
   90SAPC  H20T 8607   0.495   1.613   5.276 -0.9456  0.6802 -0.8479
   90SAPC   C33 8608   1.414   1.838   6.453  0.0700 -0.2132  0.3046
   90SAPC   H3X 8609   1.522   1.847   6.476 -0.1065  2.8679  0.3302
   90SAPC   H3Y 8610   1.388   1.928   6.393  0.6863  1.1360  1.9813
   90SAPC   C34 8611   1.372   1.718   6.370 -0.2873  0.1306 -0.0145
   90SAPC   H4X 8612   1.263   1.721   6.351 -0.7402 -1.4950  1.9932
   90SAPC   H4Y 8613   1.393   1.626   6.428 -1.6938  0.2031  0.6463
   90SAPC   C35 8614   1.444   1.705   6.235  0.2539  0.1280  0.0224
   90SAPC   H5X 8615   1.403   1.612   6.189  2.9974 -1.3424  0.3356
   90SAPC   H5Y 8616   1.554   1.692   6.246  0.3042  0.5214 -0.0080
   90SAPC   C36 8617   1.431   1.825   6.140 -0.3188  0.1559  0.9412
   90SAPC   H6X 8618   1.485   1.918   6.171 -0.0684  1.0469 -1.9037
   90SAPC   H6Y 8619   1.324   1.843   6.117  0.1015  1.0951 -0.3878
   90SAPC   C37 8620   1.498   1.797   6.003  0.0408  0.1687 -0.0883
   90SAPC   H7X 8621   1.591   1.737   6.017 -1.2561 -1.9223  0.0400
   90SAPC   H7Y 8622   1.528   1.891   5.953  0.2981  0.1801  0.0851
   90SAPC   C38 8623   1.396   1.718   5.917  0.5779 -0.0123  0.0844
   90SAPC   H8X 8624   1.299   1.768   5.935  0.3378 -1.1673  2.3984
   90SAPC   H8Y 8625   1.385   1.615   5.957  0.6065 -0.8022 -1.8536
   90SAPC   C39 8626   1.416   1.708   5.763  0.5968  0.8807  0.2057
   90SAPC   H9X 8627   1.366   1.620   5.719 -1.7009  2.8676 -1.3969
   90SAPC   H9Y 8628   1.523   1.694   5.738  0.3579  0.6498 -0.7198
   90SAPC  C310 8629   1.366   1.836   5.686  0.9809  0.3278  0.1261
   90SAPC  H10X 8630   1.336   1.915   5.758 -0.1966 -0.7853  0.8889
   90SAPC  H10Y 8631   1.285   1.800   5.619  0.7995  4.3061 -2.1613
   90SAPC  C311 8632   1.475   1.881   5.581 -0.1285  0.1656 -0.3734
   90SAPC  H11X 8633   1.502   1.799   5.511 -3.0771  0.9002 -2.5770
   90SAPC  H11Y 8634   1.566   1.911   5.636  0.1591 -0.8627 -0.2579
   90SAPC  C312 8635   1.427   2.009   5.508 -0.3776  0.5901  0.0205
   90SAPC  H12X 8636   1.381   2.072   5.587  0.6416  0.1334  0.9996
   90SAPC  H12Y 8637   1.357   1.987   5.424  0.8012 -0.4106 -0.7374
   90SAPC  C313 8638   1.542   2.088   5.452 -0.6214 -0.4110 -0.1162
   90SAPC  H13X 8639   1.597   2.037   5.370 -0.8472 -2.0611  0.7212
   90SAPC  H13Y 8640   1.607   2.108   5.540 -1.4525 -1.4704  0.7562
   90SAPC  C314 8641   1.495   2.218   5.386  0.4711  0.4796 -0.0207
   90SAPC  H14X 8642   1.449   2.273   5.471  0.8344 -1.6423  1.6390
   90SAPC  H14Y 8643   1.412   2.198   5.315 -0.2712 -0.2364  1.0166
   90SAPC  C315 8644   1.608   2.285   5.313 -0.3600  1.0938 -0.2489
   90SAPC  H15X 8645   1.621   2.214   5.229  1.2204  1.0824 -0.0187
   90SAPC  H15Y 8646   1.695   2.270   5.380 -1.0864 -0.8775  0.3059
   90SAPC  C316 8647   1.570   2.428   5.272  0.3025  0.4994  0.2288
   90SAPC  H16X 8648   1.655   2.468   5.213  1.1713 -1.9971 -0.3471
   90SAPC  H16Y 8649   1.557   2.490   5.364  0.5559  0.9834 -0.0618
   90SAPC  C317 8650   1.451   2.444   5.179 -0.3298  0.4532  0.4327
   90SAPC  H17X 8651   1.361   2.410   5.233 -2.1470  0.9627 -2.1107
   90SAPC  H17Y 8652   1.467   2.374   5.094 -0.1130  1.6650 -0.5520
   90SAPC  C318 8653   1.432   2.589   5.127  0.7080  0.5380 -0.8140
   90SAPC  H18X 8654   1.521   2.622   5.070  0.3613  0.6492 -1.2923
   90SAPC  H18Y 8655   1.411   2.656   5.213  2.3734 -1.2191  1.0874
   90SAPC  H18Z 8656   1.347   2.604   5.057  0.8613  1.4841 -0.8063
   91SAPC     N 8657   0.465   2.120   7.848  0.2576  0.2855 -0.4030
   91SAPC   C12 8658   0.442   2.042   7.721  0.2957 -0.5535 -0.0685
   91SAPC  H12A 8659   0.340   2.009   7.739  0.7154 -0.5054  3.0476
   91SAPC  H12B 8660   0.506   1.959   7.694  3.3639  1.7591 -0.3759
   91SAPC   C13 8661   0.603   2.175   7.856 -0.0834 -0.1373  0.1764
   91SAPC  H13A 8662   0.614   2.249   7.779  0.9471 -1.5533 -1.0989
   91SAPC  H13B 8663   0.622   2.212   7.956  0.6967  0.9365 -0.3443
   91SAPC  H13C 8664   0.677   2.099   7.837  0.2495  0.6428 -1.9170
   91SAPC   C14 8665   0.364   2.238   7.874  0.1639 -0.4797  0.2381
   91SAPC  H14A 8666   0.374   2.285   7.971  1.7420  0.6360 -0.4220
   91SAPC  H14B 8667   0.386   2.315   7.802 -0.6421  0.5777  1.0862
   91SAPC  H14C 8668   0.267   2.195   7.855  0.5004 -0.4525 -1.8253
   91SAPC   C15 8669   0.455   2.027   7.966  0.0351 -0.3930 -0.6527
   91SAPC  H15A 8670   0.355   1.989   7.974  0.1432 -0.7111 -0.7830
   91SAPC  H15B 8671   0.529   1.949   7.962 -1.1216 -1.5663  0.3153
   91SAPC  H15C 8672   0.470   2.074   8.062  1.0816 -1.7837 -0.0962
   91SAPC   C11 8673   0.449   2.138   7.597  0.2550  0.0820 -0.1066
   91SAPC  H11A 8674   0.467   2.081   7.503  0.3586  0.0605 -0.0742
   91SAPC  H11B 8675   0.542   2.199   7.608  0.5045 -0.2794 -0.1917
   91SAPC     P 8676   0.214   2.202   7.498  0.2398 -0.0075 -0.1841
   91SAPC   O13 8677   0.145   2.070   7.535 -0.6785 -0.0498 -0.1879
   91SAPC   O14 8678   0.142   2.329   7.506  0.0408 -0.8347  0.4151
   91SAPC   O12 8679   0.330   2.215   7.593 -0.0163  0.2455  0.3389
   91SAPC   O11 8680   0.295   2.192   7.368  0.6115  0.3378  0.1758
   91SAPC    C1 8681   0.259   2.099   7.265  0.1837  0.1265 -0.9473
   91SAPC    HA 8682   0.332   2.100   7.181 -0.9049  0.8610 -1.9152
   91SAPC    HB 8683   0.268   1.994   7.300  1.4157 -0.3791 -2.6508
   91SAPC    C2 8684   0.120   2.127   7.202  0.2138 -0.4141  1.3940
   91SAPC    HS 8685   0.045   2.110   7.282  0.2669 -1.1405  1.2957
   91SAPC   O21 8686   0.099   2.044   7.082 -1.0428 -0.0176 -0.3186
   91SAPC   C21 8687  -0.029   2.023   7.056 -0.3133  0.1032 -0.5345
   91SAPC   O22 8688  -0.125   2.086   7.101 -0.2989 -0.0503  0.5299
   91SAPC   C22 8689  -0.042   1.907   6.954  0.0390 -0.1726 -0.6710
   91SAPC   H2R 8690   0.053   1.881   6.904  0.2003  0.2438 -0.5774
   91SAPC   H2S 8691  -0.077   1.815   7.007  1.3325  0.5105  1.4890
   91SAPC    C3 8692   0.114   2.276   7.155 -0.0718 -0.0200 -0.4733
   91SAPC    HX 8693   0.128   2.343   7.242 -0.8805  1.7123 -1.6240
   91SAPC    HY 8694   0.014   2.308   7.119  0.6818  0.8916 -1.8492
   91SAPC   O31 8695   0.214   2.294   7.050  1.4120 -0.5304  0.0682
   91SAPC   C31 8696   0.287   2.400   7.052  0.4915 -0.6130 -0.4259
   91SAPC   O32 8697   0.299   2.481   7.141  0.0875 -0.4273 -0.4627
   91SAPC   C32 8698   0.373   2.403   6.922  0.2836  0.2082 -1.0384
   91SAPC   H2X 8699   0.300   2.378   6.842 -1.4824  2.5256 -0.2738
   91SAPC   H2Y 8700   0.450   2.328   6.949 -0.2441  0.3629  1.0175
   91SAPC   C23 8701  -0.141   1.955   6.847  0.8222  0.1715  0.0936
   91SAPC   H3R 8702  -0.114   2.054   6.804 -1.6005  0.8409 -0.0484
   91SAPC   H3S 8703  -0.243   1.970   6.887  0.9983 -1.6753  1.3349
   91SAPC   C24 8704  -0.161   1.860   6.730  0.9958  0.1844 -0.0200
   91SAPC   H4R 8705  -0.235   1.917   6.670 -1.4428 -2.7668 -0.0789
   91SAPC   H4S 8706  -0.225   1.774   6.758  0.4301  0.4405 -0.4927
   91SAPC   C25 8707  -0.045   1.813   6.650 -0.3694 -0.5425 -0.4563
   91SAPC   H5R 8708   0.038   1.787   6.717  0.5848 -1.3085 -1.8990
   91SAPC   C26 8709  -0.027   1.820   6.518  0.2836 -1.2034 -0.1068
   91SAPC   H6R 8710   0.073   1.785   6.487  0.1327 -1.6764 -0.0691
   91SAPC   C27 8711  -0.127   1.875   6.418  0.1992  0.3038  0.3611
   91SAPC   H7R 8712  -0.068   1.896   6.326 -0.3063  1.4548  0.2835
   91SAPC   H7S 8713  -0.155   1.974   6.459  0.7309  0.0829  1.3076
   91SAPC   C28 8714  -0.251   1.796   6.395  0.7667  0.8576 -0.1583
   91SAPC   H8R 8715  -0.333   1.808   6.467  0.5140  2.0585 -0.6133
   91SAPC   C29 8716  -0.282   1.717   6.290  0.2680  0.4911  0.1139
   91SAPC   H9R 8717  -0.382   1.672   6.293  1.2878 -1.9108  0.0137
   91SAPC  C210 8718  -0.194   1.684   6.169 -0.2623  0.1455  0.3941
   91SAPC  H10R 8719  -0.170   1.578   6.194  2.1179  0.8641  1.3939
   91SAPC  H10S 8720  -0.093   1.730   6.169 -0.9134  1.6275 -0.7132
   91SAPC  C211 8721  -0.243   1.702   6.027  0.1330 -0.0832 -0.3156
   91SAPC  H11R 8722  -0.210   1.793   5.975 -0.8748  0.2424 -0.4081
   91SAPC  C212 8723  -0.333   1.637   5.959  0.2030  0.0774  0.1738
   91SAPC  H12R 8724  -0.340   1.651   5.850  1.5894 -0.4237 -0.0010
   91SAPC  C213 8725  -0.404   1.514   6.018 -0.4362 -0.2141  0.3592
   91SAPC  H13R 8726  -0.339   1.459   6.089 -0.0313 -0.2308 -0.0206
   91SAPC  H13S 8727  -0.402   1.433   5.943 -0.1234  0.0575  0.0724
   91SAPC  C214 8728  -0.552   1.530   6.072  0.2261  0.1730  0.9314
   91SAPC  H14R 8729  -0.622   1.584   6.008  1.1680  1.8532  1.2506
   91SAPC  C215 8730  -0.594   1.471   6.180  0.0019 -0.8193 -0.1628
   91SAPC  H15R 8731  -0.694   1.500   6.215  0.6927  1.6968 -0.1121
   91SAPC  C216 8732  -0.518   1.398   6.292 -0.7270  0.6783  0.3222
   91SAPC  H16R 8733  -0.412   1.379   6.264 -1.6280 -2.6751 -1.3301
   91SAPC  H16S 8734  -0.575   1.304   6.308  1.3223 -1.2038 -2.4509
   91SAPC  C217 8735  -0.530   1.466   6.431  0.2760  0.3411  0.0255
   91SAPC  H17R 8736  -0.633   1.503   6.452 -1.0698 -1.6791 -2.4769
   91SAPC  H17S 8737  -0.472   1.561   6.430  1.7452 -0.5214  0.0608
   91SAPC  C218 8738  -0.486   1.379   6.551  0.1954 -0.0315 -0.1254
   91SAPC  H18R 8739  -0.382   1.408   6.574  0.3055  0.0443 -0.7136
   91SAPC  H18S 8740  -0.479   1.278   6.505  0.3440 -0.8194  1.5403
   91SAPC  C219 8741  -0.575   1.391   6.683 -0.5804  0.3020  0.4361
   91SAPC  H19R 8742  -0.603   1.499   6.685 -2.9313 -0.2490 -0.0700
   91SAPC  H19S 8743  -0.524   1.358   6.776 -1.0497  0.0064  0.5913
   91SAPC  C220 8744  -0.703   1.310   6.662 -0.1290 -0.3153 -0.5332
   91SAPC  H20R 8745  -0.691   1.201   6.644 -2.4373 -0.6776 -0.2325
   91SAPC  H20S 8746  -0.764   1.344   6.575 -0.2953  0.8713  0.0166
   91SAPC  H20T 8747  -0.761   1.327   6.756 -1.0146  1.5115 -1.3500
   91SAPC   C33 8748   0.451   2.535   6.892  0.5874  0.1251 -0.7162
   91SAPC   H3X 8749   0.545   2.525   6.834  1.5599  2.9741  0.2021
   91SAPC   H3Y 8750   0.485   2.562   6.994 -0.9366  1.1787 -0.4433
   91SAPC   C34 8751   0.386   2.646   6.818 -0.4452 -0.2757  0.1871
   91SAPC   H4X 8752   0.461   2.726   6.801  0.0871 -1.0417 -1.2106
   91SAPC   H4Y 8753   0.300   2.697   6.867  0.0433  0.0664  0.7057
   91SAPC   C35 8754   0.330   2.609   6.682  1.3617 -0.0717  0.1140
   91SAPC   H5X 8755   0.242   2.542   6.683  0.5033  1.0341  0.6502
   91SAPC   H5Y 8756   0.399   2.542   6.627 -0.6698 -2.5013  0.3475
   91SAPC   C36 8757   0.324   2.745   6.601  0.2289 -0.4067  0.3522
   91SAPC   H6X 8758   0.392   2.822   6.643  1.1387 -1.3775  0.7206
   91SAPC   H6Y 8759   0.224   2.794   6.594  1.2840  1.6460 -3.1278
   91SAPC   C37 8760   0.360   2.719   6.462 -0.0932 -0.6738 -0.2463
   91SAPC   H7X 8761   0.467   2.693   6.452  0.2345  0.0612  1.1838
   91SAPC   H7Y 8762   0.347   2.810   6.399  1.8918 -2.1686 -3.0399
   91SAPC   C38 8763   0.278   2.604   6.392 -0.0466 -0.3326 -0.1935
   91SAPC   H8X 8764   0.168   2.614   6.397 -0.0155  0.5353 -0.8313
   91SAPC   H8Y 8765   0.311   2.505   6.429  1.2631 -0.0264 -0.4642
   91SAPC   C39 8766   0.320   2.596   6.246 -0.7407 -0.4190  0.2666
   91SAPC   H9X 8767   0.278   2.505   6.197 -2.2327  0.4756 -0.1843
   91SAPC   H9Y 8768   0.431   2.597   6.247 -0.6670  1.5946 -1.6764
   91SAPC  C310 8769   0.292   2.716   6.158 -0.0196 -0.5651  0.1436
   91SAPC  H10X 8770   0.332   2.810   6.201  0.3062  0.3280 -2.0245
   91SAPC  H10Y 8771   0.184   2.734   6.143  0.7867  1.6700 -4.6360
   91SAPC  C311 8772   0.356   2.688   6.019 -0.5269  0.9437 -0.2986
   91SAPC  H11X 8773   0.327   2.591   5.973  1.6625  0.5114 -0.8460
   91SAPC  H11Y 8774   0.462   2.657   6.031 -2.0299 -4.5771  2.4351
   91SAPC  C312 8775   0.331   2.798   5.910  0.2260  0.4344  0.9378
   91SAPC  H12X 8776   0.372   2.891   5.953  0.8344  0.6607 -0.0772
   91SAPC  H12Y 8777   0.222   2.782   5.897  0.5842 -1.4013 -0.2569
   91SAPC  C313 8778   0.404   2.771   5.779  0.5388 -0.2301  0.2536
   91SAPC  H13X 8779   0.391   2.669   5.738 -2.6283 -1.3272  3.4346
   91SAPC  H13Y 8780   0.511   2.773   5.806  0.8324  0.0969 -0.8755
   91SAPC  C314 8781   0.371   2.856   5.651 -0.3179  0.4610  0.0429
   91SAPC  H14X 8782   0.407   2.960   5.666  1.3472 -0.2538  1.4439
   91SAPC  H14Y 8783   0.261   2.850   5.633 -0.3320 -4.4166  0.4992
   91SAPC  C315 8784   0.436   2.780   5.523  0.7839  0.1048 -0.3114
   91SAPC  H15X 8785   0.377   2.687   5.509  1.6270 -0.3939 -0.6146
   91SAPC  H15Y 8786   0.537   2.746   5.554  0.0608 -0.2309  1.8659
   91SAPC  C316 8787   0.432   2.867   5.403  0.6887  0.1100 -0.0483
   91SAPC  H16X 8788   0.477   2.966   5.425 -1.7163  1.1684  0.4608
   91SAPC  H16Y 8789   0.324   2.884   5.384  0.6206  2.4583  1.9008
   91SAPC  C317 8790   0.500   2.802   5.284 -0.8568 -0.3946 -0.7254
   91SAPC  H17X 8791   0.454   2.707   5.250  0.0241 -0.5654 -1.4891
   91SAPC  H17Y 8792   0.604   2.773   5.307 -0.9433 -1.2570 -1.4118
   91SAPC  C318 8793   0.497   2.897   5.166  0.2517  0.3811  0.2021
   91SAPC  H18X 8794   0.515   3.002   5.198  0.7562  0.2324  0.4115
   91SAPC  H18Y 8795   0.388   2.893   5.143  0.6184 -0.3977 -1.5566
   91SAPC  H18Z 8796   0.549   2.862   5.074 -0.5140  0.2429 -0.1892
   92SAPC     N 8797   0.158   0.390   7.844  0.1895  0.0130 -0.0525
   92SAPC   C12 8798   0.092   0.436   7.713  0.1065 -0.0693  0.0623
   92SAPC  H12A 8799   0.130   0.371   7.636 -0.3289 -0.4161  0.1351
   92SAPC  H12B 8800   0.129   0.535   7.691  0.0192 -0.1841 -0.6172
   92SAPC   C13 8801   0.097   0.252   7.873 -0.3757  0.3540  0.3023
   92SAPC  H13A 8802  -0.010   0.265   7.883 -0.1265  0.7359  3.5588
   92SAPC  H13B 8803   0.118   0.193   7.785 -0.7971  0.5054  0.0980
   92SAPC  H13C 8804   0.143   0.204   7.959 -0.2792  1.5504  0.9311
   92SAPC   C14 8805   0.310   0.370   7.827  0.2548 -0.0241  0.0924
   92SAPC  H14A 8806   0.332   0.288   7.760  2.7316  0.4056  0.2888
   92SAPC  H14B 8807   0.355   0.453   7.775 -0.4754  1.7931  2.2022
   92SAPC  H14C 8808   0.350   0.361   7.927  1.1701  0.3741 -0.2236
   92SAPC   C15 8809   0.137   0.476   7.962 -0.4846 -0.7143  0.3000
   92SAPC  H15A 8810   0.173   0.437   8.056  2.8766  1.5283  0.1448
   92SAPC  H15B 8811   0.187   0.572   7.954  2.3933 -2.0047  1.4012
   92SAPC  H15C 8812   0.036   0.508   7.980  0.4938  1.3404  2.7410
   92SAPC   C11 8813  -0.064   0.441   7.703 -0.8715 -0.2064  0.2069
   92SAPC  H11A 8814  -0.098   0.497   7.614  0.9217  0.3121 -0.1732
   92SAPC  H11B 8815  -0.108   0.493   7.792  0.9859  0.5367  0.7344
   92SAPC     P 8816  -0.101   0.224   7.563  0.0438  0.1513 -0.3933
   92SAPC   O13 8817   0.027   0.151   7.572 -0.5288 -0.4299  0.0529
   92SAPC   O14 8818  -0.225   0.143   7.532  1.0623  0.5522 -0.1120
   92SAPC   O12 8819  -0.123   0.307   7.697 -0.0402 -0.2553  0.3102
   92SAPC   O11 8820  -0.086   0.336   7.452  0.1307  0.1609  0.4434
   92SAPC    C1 8821  -0.215   0.398   7.417  0.2520 -0.1734 -0.0347
   92SAPC    HA 8822  -0.295   0.330   7.380 -3.1098  3.7918 -0.9201
   92SAPC    HB 8823  -0.260   0.456   7.500  0.7042  4.4510 -2.6269
   92SAPC    C2 8824  -0.194   0.496   7.304 -0.5061  0.1183  0.4120
   92SAPC    HS 8825  -0.287   0.553   7.281 -2.4127 -2.1992  1.8615
   92SAPC   O21 8826  -0.147   0.417   7.192  0.1647 -0.5919 -0.3460
   92SAPC   C21 8827  -0.238   0.386   7.102 -0.4603  0.3151  0.4873
   92SAPC   O22 8828  -0.345   0.439   7.089  0.7536  0.4171  0.8410
   92SAPC   C22 8829  -0.169   0.283   6.997  0.1113  0.0317 -0.2726
   92SAPC   H2R 8830  -0.058   0.288   6.999  0.0926  0.3008  0.2422
   92SAPC   H2S 8831  -0.197   0.177   7.015 -1.2184 -0.2951 -3.6971
   92SAPC    C3 8832  -0.083   0.600   7.332  0.2159  0.4128  0.2377
   92SAPC    HX 8833   0.012   0.549   7.358  0.3457  1.8429  2.8645
   92SAPC    HY 8834  -0.105   0.648   7.430  0.9511 -0.5960  0.9151
   92SAPC   O31 8835  -0.076   0.702   7.228  0.1038  0.4900 -0.1900
   92SAPC   C31 8836   0.031   0.706   7.155 -0.1966  0.3226  0.1213
   92SAPC   O32 8837   0.132   0.638   7.170  0.0990 -0.6647 -0.0540
   92SAPC   C32 8838   0.014   0.804   7.039  0.4674 -0.1825 -0.1639
   92SAPC   H2X 8839  -0.071   0.873   7.056  1.9328  1.9991 -1.2117
   92SAPC   H2Y 8840  -0.014   0.748   6.947 -1.2458 -0.7301  0.6470
   92SAPC   C23 8841  -0.206   0.331   6.856 -0.4070  0.3311 -1.0008
   92SAPC   H3R 8842  -0.317   0.335   6.849 -0.7981  0.3081  3.1157
   92SAPC   H3S 8843  -0.177   0.251   6.784 -2.8747 -0.8696 -0.7612
   92SAPC   C24 8844  -0.132   0.467   6.831  0.7273  0.4908 -0.2196
   92SAPC   H4R 8845  -0.170   0.534   6.911 -0.3463 -1.0257  0.5860
   92SAPC   H4S 8846  -0.163   0.502   6.730  2.1984  1.5724 -0.3389
   92SAPC   C25 8847   0.020   0.450   6.821 -1.0785 -0.1374 -0.8067
   92SAPC   H5R 8848   0.068   0.425   6.916 -1.1685 -1.3560 -1.0555
   92SAPC   C26 8849   0.091   0.422   6.713  1.1671  0.1780  0.0100
   92SAPC   H6R 8850   0.200   0.412   6.722  1.6638  2.8222 -1.7900
   92SAPC   C27 8851   0.032   0.402   6.572 -0.1905  0.4456  0.8723
   92SAPC   H7R 8852   0.029   0.504   6.527  0.0330  0.3126  0.5531
   92SAPC   H7S 8853  -0.072   0.365   6.587  0.2043 -2.0151 -1.6617
   92SAPC   C28 8854   0.109   0.296   6.493 -0.9630 -0.0405 -0.4732
   92SAPC   H8R 8855   0.171   0.225   6.550  1.0124  2.2170  0.3444
   92SAPC   C29 8856   0.089   0.271   6.361  0.1875 -0.8952  0.0185
   92SAPC   H9R 8857   0.144   0.192   6.308  0.5373 -0.9038  0.3875
   92SAPC  C210 8858  -0.015   0.353   6.285 -0.1541 -0.0592  0.0253
   92SAPC  H10R 8859  -0.029   0.451   6.334  3.2685 -0.6485  2.5275
   92SAPC  H10S 8860  -0.113   0.300   6.288  0.5759 -1.4470 -0.0623
   92SAPC  C211 8861   0.023   0.376   6.140  0.6086  0.1868 -0.3134
   92SAPC  H11R 8862   0.116   0.433   6.126  0.4930  0.5305  0.2833
   92SAPC  C212 8863  -0.038   0.337   6.025 -0.2863 -0.2583  0.5357
   92SAPC  H12R 8864   0.002   0.360   5.925 -1.5924 -0.2343  0.0034
   92SAPC  C213 8865  -0.157   0.249   6.026  0.2547 -0.5400 -0.0505
   92SAPC  H13R 8866  -0.230   0.265   6.107 -1.0050  0.7119 -1.3664
   92SAPC  H13S 8867  -0.122   0.148   6.054  0.0218 -0.1409  1.7578
   92SAPC  C214 8868  -0.240   0.268   5.905 -0.2046 -0.0432 -0.7412
   92SAPC  H14R 8869  -0.325   0.335   5.923  1.2363  1.2370  1.8143
   92SAPC  C215 8870  -0.212   0.218   5.782 -0.0608 -0.2384  0.1328
   92SAPC  H15R 8871  -0.287   0.245   5.707  0.9072  0.7772 -0.4949
   92SAPC  C216 8872  -0.082   0.141   5.754  0.6321  0.1958 -0.1288
   92SAPC  H16R 8873  -0.119   0.041   5.724  0.0985 -0.1314  1.4852
   92SAPC  H16S 8874  -0.021   0.120   5.845  0.5290  1.2326  0.1969
   92SAPC  C217 8875  -0.007   0.194   5.633  0.2381 -0.9126 -1.1748
   92SAPC  H17R 8876  -0.061   0.169   5.539 -1.6452 -0.3285 -0.2989
   92SAPC  H17S 8877   0.082   0.127   5.634  0.3222 -0.8007  0.4523
   92SAPC  C218 8878   0.052   0.337   5.636 -0.5937  0.4640  0.1012
   92SAPC  H18R 8879   0.116   0.341   5.727 -0.5934  0.6350  0.0927
   92SAPC  H18S 8880  -0.032   0.409   5.651 -0.9802  0.0291  0.0661
   92SAPC  C219 8881   0.145   0.370   5.519 -0.6677 -0.6019 -0.9262
   92SAPC  H19R 8882   0.076   0.389   5.434 -2.3211  0.0432  0.5020
   92SAPC  H19S 8883   0.205   0.281   5.490  2.1980  0.5821  0.9687
   92SAPC  C220 8884   0.242   0.479   5.551  0.2112  0.0996 -0.2376
   92SAPC  H20R 8885   0.334   0.437   5.596  0.3183 -1.1369 -1.5707
   92SAPC  H20S 8886   0.194   0.564   5.605  1.3374  2.5578 -2.8746
   92SAPC  H20T 8887   0.274   0.527   5.456 -2.0906  0.6065 -0.8334
   92SAPC   C33 8888   0.140   0.892   7.013  0.5543  0.2908  0.3697
   92SAPC   H3X 8889   0.211   0.883   7.097  0.4533 -0.7858  0.3598
   92SAPC   H3Y 8890   0.119   0.998   6.990 -2.2610 -0.1830  0.3739
   92SAPC   C34 8891   0.222   0.848   6.893  0.6497 -0.3361 -0.1384
   92SAPC   H4X 8892   0.224   0.739   6.913  1.4351 -0.1330  1.0077
   92SAPC   H4Y 8893   0.325   0.889   6.906  0.0468  1.0922  0.4269
   92SAPC   C35 8894   0.164   0.884   6.760  0.1400  0.2246  0.1445
   92SAPC   H5X 8895   0.173   0.994   6.744 -0.4913  0.2284 -0.2329
   92SAPC   H5Y 8896   0.055   0.863   6.757 -0.0110  0.9182  0.4831
   92SAPC   C36 8897   0.242   0.823   6.649 -0.7072 -0.2275 -0.0514
   92SAPC   H6X 8898   0.248   0.714   6.668 -0.9858 -0.1187  0.6783
   92SAPC   H6Y 8899   0.345   0.862   6.655 -0.2102 -1.1804 -1.6660
   92SAPC   C37 8900   0.190   0.853   6.508  0.8766 -0.2186 -0.2733
   92SAPC   H7X 8901   0.166   0.961   6.495 -1.7387 -0.9870 -2.9096
   92SAPC   H7Y 8902   0.089   0.805   6.504  1.5283 -1.8714  1.6293
   92SAPC   C38 8903   0.269   0.790   6.396 -0.1110  0.3620  0.2748
   92SAPC   H8X 8904   0.295   0.689   6.433  0.3693  1.2084  2.3894
   92SAPC   H8Y 8905   0.364   0.845   6.375  0.1849  0.0151  0.7006
   92SAPC   C39 8906   0.198   0.775   6.265 -0.0041 -0.3099 -1.1193
   92SAPC   H9X 8907   0.170   0.876   6.227  0.4494 -0.2232 -1.2246
   92SAPC   H9Y 8908   0.108   0.713   6.286 -2.3663  2.8583 -1.0322
   92SAPC  C310 8909   0.283   0.717   6.150 -0.2196 -0.3154  0.5982
   92SAPC  H10X 8910   0.343   0.632   6.189  0.7079 -0.2515 -0.6266
   92SAPC  H10Y 8911   0.352   0.797   6.116 -0.9674 -0.3389 -1.1005
   92SAPC  C311 8912   0.202   0.683   6.026  0.0617  0.3318 -0.1068
   92SAPC  H11X 8913   0.108   0.626   6.044  0.6570 -1.1822 -1.5853
   92SAPC  H11Y 8914   0.270   0.623   5.962  2.4820  0.2176  2.4183
   92SAPC  C312 8915   0.162   0.809   5.934  0.2148  0.4927  0.2971
   92SAPC  H12X 8916   0.258   0.865   5.928  0.5787 -0.2181 -3.3309
   92SAPC  H12Y 8917   0.094   0.880   5.985 -0.9305 -0.2014 -0.2247
   92SAPC  C313 8918   0.117   0.764   5.795 -0.4919 -0.3384 -0.5027
   92SAPC  H13X 8919   0.031   0.695   5.803  0.2659 -1.4807 -1.7196
   92SAPC  H13Y 8920   0.192   0.701   5.742 -1.0083 -1.6135  0.2175
   92SAPC  C314 8921   0.080   0.882   5.704 -0.1687  0.0522  0.0128
   92SAPC  H14X 8922   0.148   0.970   5.704 -1.4523  1.0987 -1.3880
   92SAPC  H14Y 8923  -0.023   0.915   5.732 -1.1932 -2.9935  0.2285
   92SAPC  C315 8924   0.085   0.848   5.553 -0.2696 -0.2910 -0.0744
   92SAPC  H15X 8925   0.008   0.771   5.529 -1.9977  1.4100 -0.2434
   92SAPC  H15Y 8926   0.187   0.812   5.531  1.4581  3.0251  1.6474
   92SAPC  C316 8927   0.058   0.960   5.460  0.2221  0.4625  0.0851
   92SAPC  H16X 8928   0.134   1.039   5.477 -2.2241  3.1178 -0.4440
   92SAPC  H16Y 8929  -0.038   1.011   5.482 -0.6126 -0.7442 -0.6041
   92SAPC  C317 8930   0.072   0.930   5.308  0.5819 -0.5537  1.1641
   92SAPC  H17X 8931   0.054   1.026   5.254  1.7294 -1.4698 -0.9762
   92SAPC  H17Y 8932  -0.010   0.860   5.280 -0.0178  1.0030 -1.3563
   92SAPC  C318 8933   0.206   0.876   5.246 -0.0783 -0.6190  0.4801
   92SAPC  H18X 8934   0.293   0.937   5.278 -1.7020  1.6511  0.7655
   92SAPC  H18Y 8935   0.201   0.880   5.135 -2.7478  3.0580  0.5590
   92SAPC  H18Z 8936   0.224   0.770   5.276 -1.5461 -0.9853  0.1801
   93SAPC     N 8937   2.387   2.165   7.198 -0.4266 -0.2751 -0.2387
   93SAPC   C12 8938   2.277   2.099   7.116 -0.5601 -0.1224  0.0539
   93SAPC  H12A 8939   2.198   2.169   7.092 -0.9937 -0.3160  0.8678
   93SAPC  H12B 8940   2.224   2.019   7.165 -3.8632  1.1264 -1.2036
   93SAPC   C13 8941   2.327   2.211   7.329 -0.4414  0.8382 -0.2464
   93SAPC  H13A 8942   2.301   2.129   7.393 -1.2997  1.7100  0.5390
   93SAPC  H13B 8943   2.398   2.274   7.381 -1.1248  1.3049  0.1241
   93SAPC  H13C 8944   2.236   2.266   7.310 -0.8292  0.4073  0.3550
   93SAPC   C14 8945   2.505   2.072   7.236 -0.0914 -0.0787  0.4289
   93SAPC  H14A 8946   2.527   2.007   7.152 -1.5949 -2.2029  1.5914
   93SAPC  H14B 8947   2.594   2.122   7.271  1.9511 -2.2257 -1.3544
   93SAPC  H14C 8948   2.472   1.997   7.306 -0.4390  0.8745  1.3031
   93SAPC   C15 8949   2.438   2.280   7.140 -0.0986 -0.3038  0.5701
   93SAPC  H15A 8950   2.469   2.269   7.037 -1.8417  1.6381 -0.2308
   93SAPC  H15B 8951   2.370   2.363   7.128 -0.4936 -0.8960 -2.0091
   93SAPC  H15C 8952   2.532   2.308   7.184  1.2911 -0.5023 -2.0268
   93SAPC   C11 8953   2.313   2.046   6.973 -0.1961  0.2538 -0.3623
   93SAPC  H11A 8954   2.356   2.131   6.915 -0.0181  0.7786  0.5059
   93SAPC  H11B 8955   2.214   2.029   6.926 -1.0388  1.0555  1.0354
   93SAPC     P 8956   2.316   1.802   7.027 -0.1780 -0.0723  0.0312
   93SAPC   O13 8957   2.412   1.696   7.036  0.2645  0.5812 -0.3045
   93SAPC   O14 8958   2.233   1.816   7.145  0.0380  0.0014 -0.0697
   93SAPC   O12 8959   2.399   1.937   6.988 -0.2359  0.5080  0.3821
   93SAPC   O11 8960   2.227   1.777   6.904  0.4022  0.8492 -0.2892
   93SAPC    C1 8961   2.263   1.698   6.789 -0.0147  0.1227 -0.0724
   93SAPC    HA 8962   2.315   1.605   6.820  1.6384  1.0479  0.0525
   93SAPC    HB 8963   2.172   1.661   6.737 -0.5105  1.2144 -0.0125
   93SAPC    C2 8964   2.345   1.774   6.689 -0.8432  0.4113  1.3589
   93SAPC    HS 8965   2.437   1.810   6.740  1.7327 -1.3306 -1.6875
   93SAPC   O21 8966   2.266   1.885   6.639  0.3819 -0.4794 -0.1167
   93SAPC   C21 8967   2.332   1.992   6.605 -0.8146 -0.0885  0.8993
   93SAPC   O22 8968   2.449   2.006   6.604 -0.6632 -0.1790 -0.1845
   93SAPC   C22 8969   2.232   2.107   6.578 -0.2343 -0.3983  0.0817
   93SAPC   H2R 8970   2.144   2.057   6.531 -1.8692  4.4670 -2.7139
   93SAPC   H2S 8971   2.220   2.152   6.679  0.4195  0.0997 -0.0639
   93SAPC    C3 8972   2.398   1.697   6.560  0.0792  0.6056 -0.0365
   93SAPC    HX 8973   2.467   1.618   6.597 -1.0070 -0.2149  0.3152
   93SAPC    HY 8974   2.460   1.768   6.502  1.1802 -0.6259 -0.4248
   93SAPC   O31 8975   2.301   1.620   6.490 -0.5027  0.3218  0.0017
   93SAPC   C31 8976   2.266   1.674   6.380  0.1160  0.2211  0.0732
   93SAPC   O32 8977   2.297   1.786   6.343 -0.0365  0.3640  0.5476
   93SAPC   C32 8978   2.188   1.569   6.301  1.0459 -0.6407 -0.5529
   93SAPC   H2X 8979   2.097   1.534   6.353  1.8243 -1.3602  0.3633
   93SAPC   H2Y 8980   2.247   1.475   6.302 -1.4682 -2.3690  1.9576
   93SAPC   C23 8981   2.280   2.207   6.474 -0.2826  0.4593 -0.1238
   93SAPC   H3R 8982   2.381   2.244   6.505 -0.6618  1.0859  0.3858
   93SAPC   H3S 8983   2.215   2.297   6.478 -1.1223 -0.1801  2.3540
   93SAPC   C24 8984   2.295   2.148   6.331  0.2433  0.3502  0.1854
   93SAPC   H4R 8985   2.201   2.100   6.296 -0.7677  0.9981  1.9304
   93SAPC   H4S 8986   2.372   2.068   6.342  0.6063  1.0213  3.7042
   93SAPC   C25 8987   2.340   2.247   6.216  0.9044  0.8929 -0.6103
   93SAPC   H5R 8988   2.421   2.318   6.237  1.6455 -0.2087  0.4020
   93SAPC   C26 8989   2.288   2.253   6.093 -0.3454  0.6052  0.2071
   93SAPC   H6R 8990   2.348   2.310   6.021  1.7968 -1.3491  0.3468
   93SAPC   C27 8991   2.191   2.147   6.040  0.3389 -0.1752 -0.1697
   93SAPC   H7R 8992   2.088   2.163   6.080  0.3443 -1.5078  0.4195
   93SAPC   H7S 8993   2.225   2.047   6.074 -1.8192 -1.8356 -2.5317
   93SAPC   C28 8994   2.193   2.155   5.890 -0.4086  0.4101  0.8454
   93SAPC   H8R 8995   2.125   2.226   5.842 -0.1539 -0.4509 -0.8555
   93SAPC   C29 8996   2.251   2.068   5.801 -0.1308 -0.1604  0.0236
   93SAPC   H9R 8997   2.246   2.095   5.695 -0.5500  0.9059  0.3012
   93SAPC  C210 8998   2.345   1.957   5.835 -0.3546  0.4087 -0.0409
   93SAPC  H10R 8999   2.342   1.933   5.944 -0.5733  1.8307  0.3000
   93SAPC  H10S 9000   2.449   1.995   5.830 -0.2718 -0.0274 -2.3763
   93SAPC  C211 9001   2.323   1.829   5.762  0.8146 -0.2093 -0.4019
   93SAPC  H11R 9002   2.242   1.769   5.804 -0.1335 -0.4221 -2.4064
   93SAPC  C212 9003   2.394   1.792   5.655  0.0835  0.2782  0.3751
   93SAPC  H12R 9004   2.370   1.697   5.606 -1.8049  1.6349 -1.5539
   93SAPC  C213 9005   2.509   1.868   5.588  0.1260  0.2334 -0.4549
   93SAPC  H13R 9006   2.543   1.959   5.642  1.7069  0.2155 -1.3330
   93SAPC  H13S 9007   2.488   1.895   5.482  0.5086 -0.5354 -0.7353
   93SAPC  C214 9008   2.628   1.776   5.601 -0.7014  0.0559 -0.0640
   93SAPC  H14R 9009   2.663   1.749   5.702  1.0820 -2.8345 -1.3254
   93SAPC  C215 9010   2.680   1.711   5.499  0.1488  0.0967 -0.1106
   93SAPC  H15R 9011   2.757   1.637   5.523  1.2900  1.5968  1.0521
   93SAPC  C216 9012   2.651   1.727   5.355 -0.6044 -0.6019  0.3857
   93SAPC  H16R 9013   2.752   1.732   5.311 -0.4131 -0.0183  0.8877
   93SAPC  H16S 9014   2.608   1.825   5.324  1.7343  0.3063 -0.1920
   93SAPC  C217 9015   2.582   1.603   5.300 -0.5191  0.5486 -0.1464
   93SAPC  H17R 9016   2.550   1.625   5.196  0.4359  2.7579 -0.0364
   93SAPC  H17S 9017   2.488   1.592   5.358 -0.1987  1.2889  0.5250
   93SAPC  C218 9018   2.671   1.485   5.316 -0.5558 -0.3725 -0.2926
   93SAPC  H18R 9019   2.686   1.466   5.424 -0.9492 -1.4182 -0.4169
   93SAPC  H18S 9020   2.770   1.518   5.277 -0.2666 -2.2552 -1.2930
   93SAPC  C219 9021   2.616   1.360   5.240  0.0033 -0.5844  0.0129
   93SAPC  H19R 9022   2.618   1.387   5.133  0.0716  1.5767  0.5043
   93SAPC  H19S 9023   2.512   1.326   5.263  0.2910 -0.5635  1.4338
   93SAPC  C220 9024   2.694   1.234   5.248 -0.6315  0.2301 -0.3028
   93SAPC  H20R 9025   2.646   1.162   5.178  0.8050 -0.7847 -0.2805
   93SAPC  H20S 9026   2.681   1.184   5.346  1.1394  0.0064 -0.1433
   93SAPC  H20T 9027   2.801   1.240   5.217 -0.2716 -1.6976  0.4500
   93SAPC   C33 9028   2.149   1.619   6.157  0.7934 -0.2682  0.6087
   93SAPC   H3X 9029   2.232   1.663   6.098  0.3498 -0.5997 -0.2798
   93SAPC   H3Y 9030   2.070   1.696   6.164  0.1359 -0.1860 -4.1398
   93SAPC   C34 9031   2.096   1.499   6.067 -0.2660  0.2649 -0.0151
   93SAPC   H4X 9032   2.003   1.464   6.116  0.5603  0.3648  1.6898
   93SAPC   H4Y 9033   2.173   1.421   6.082  0.5549  0.5435 -2.4290
   93SAPC   C35 9034   2.072   1.522   5.921 -0.4819 -0.3014  0.5291
   93SAPC   H5X 9035   2.169   1.563   5.887 -1.4453  2.7773  1.2297
   93SAPC   H5Y 9036   2.010   1.611   5.898  2.0762  1.1696 -1.2590
   93SAPC   C36 9037   2.020   1.400   5.840  0.1361 -0.3404  0.2162
   93SAPC   H6X 9038   1.917   1.378   5.876  0.5271 -1.4821  0.7023
   93SAPC   H6Y 9039   2.083   1.310   5.859  0.4586 -0.0520  0.5280
   93SAPC   C37 9040   2.016   1.430   5.686 -0.3680 -0.1143 -0.0597
   93SAPC   H7X 9041   2.111   1.476   5.652  0.3487 -0.8375  0.8947
   93SAPC   H7Y 9042   1.937   1.506   5.667  1.7539  1.6193 -2.7904
   93SAPC   C38 9043   1.993   1.308   5.596 -0.2590  0.4887 -0.6287
   93SAPC   H8X 9044   1.901   1.257   5.631  0.4798 -0.5189 -0.1095
   93SAPC   H8Y 9045   2.079   1.240   5.615 -0.2913  0.2223 -1.3717
   93SAPC   C39 9046   2.003   1.349   5.449  0.6736 -0.5672  0.8597
   93SAPC   H9X 9047   2.104   1.389   5.428  0.1626  0.2459 -0.1479
   93SAPC   H9Y 9048   1.927   1.425   5.421  0.9593 -0.9851 -1.2413
   93SAPC  C310 9049   1.973   1.240   5.339  0.0502 -0.2612 -0.1619
   93SAPC  H10X 9050   1.877   1.190   5.363 -0.1237 -0.8224 -1.9393
   93SAPC  H10Y 9051   2.060   1.171   5.336  0.6116  0.4705 -2.2378
   93SAPC  C311 9052   1.971   1.298   5.194 -0.2593  0.6835  0.0253
   93SAPC  H11X 9053   2.063   1.359   5.178 -0.3440  0.9158  0.4257
   93SAPC  H11Y 9054   1.883   1.365   5.190 -1.3452 -0.7494 -0.9880
   93SAPC  C312 9055   1.967   1.181   5.092  0.3853 -0.0683 -0.5459
   93SAPC  H12X 9056   1.921   1.094   5.144 -0.2064  0.2387 -0.5515
   93SAPC  H12Y 9057   2.075   1.176   5.065  0.6278 -0.5393  0.4590
   93SAPC  C313 9058   1.883   1.208   4.972 -0.1383  0.4075  0.5140
   93SAPC  H13X 9059   1.889   1.318   4.952 -0.3029  0.4439  0.6560
   93SAPC  H13Y 9060   1.777   1.213   5.008 -0.1880 -0.6598  0.5477
   93SAPC  C314 9061   1.895   1.116   4.851 -0.4327 -0.9240 -0.0858
   93SAPC  H14X 9062   1.881   1.013   4.891  1.8937 -0.5458  1.8884
   93SAPC  H14Y 9063   1.995   1.110   4.802 -1.0796 -0.0906 -1.5793
   93SAPC  C315 9064   1.803   1.162   4.740  0.1046  0.6616  0.0878
   93SAPC  H15X 9065   1.862   1.149   4.647  0.6619 -1.1016  0.6561
   93SAPC  H15Y 9066   1.773   1.269   4.740 -0.8616  0.3965 -0.2140
   93SAPC  C316 9067   1.673   1.085   4.740 -0.3562  0.0708  0.6960
   93SAPC  H16X 9068   1.620   1.122   4.830  0.8642 -0.5037  1.6828
   93SAPC  H16Y 9069   1.676   0.974   4.744 -3.1543 -0.2193 -1.8044
   93SAPC  C317 9070   1.578   1.105   4.619  0.2364  0.0846 -0.6990
   93SAPC  H17X 9071   1.501   1.045   4.671 -1.0996  0.8440 -1.7150
   93SAPC  H17Y 9072   1.624   1.060   4.529 -2.0577 -1.2476 -1.2854
   93SAPC  C318 9073   1.528   1.245   4.583  0.7940  0.4557 -0.1948
   93SAPC  H18X 9074   1.492   1.303   4.671  1.2734  0.7227 -0.1753
   93SAPC  H18Y 9075   1.447   1.243   4.507 -1.2934  0.3969  1.9207
   93SAPC  H18Z 9076   1.609   1.301   4.532  0.1290  1.2260 -0.4112
   94SAPC     N 9077   5.662   0.723   7.308  0.1058  0.4542 -0.2495
   94SAPC   C12 9078   5.626   0.662   7.175  0.7239  0.3047 -0.3382
   94SAPC  H12A 9079   5.531   0.708   7.154 -0.0142  0.2059  2.4042
   94SAPC  H12B 9080   5.607   0.556   7.186  0.3055  0.4092 -0.0250
   94SAPC   C13 9081   5.681   0.871   7.302  0.8744  0.1298  0.1765
   94SAPC  H13A 9082   5.591   0.928   7.284  0.8784 -0.0741 -0.5063
   94SAPC  H13B 9083   5.735   0.910   7.388  3.2181 -1.5207 -0.4406
   94SAPC  H13C 9084   5.738   0.898   7.215 -1.6738  0.0443 -1.6205
   94SAPC   C14 9085   5.554   0.698   7.415  0.3659  0.5890  0.1531
   94SAPC  H14A 9086   5.538   0.592   7.424  0.0133  0.5358 -0.9345
   94SAPC  H14B 9087   5.571   0.744   7.511 -2.6292  0.1895  0.9689
   94SAPC  H14C 9088   5.458   0.738   7.385 -0.2888 -0.7832  0.3412
   94SAPC   C15 9089   5.791   0.665   7.351 -0.4053  0.1264 -0.1150
   94SAPC  H15A 9090   5.784   0.557   7.346 -1.3855  0.2012 -0.4853
   94SAPC  H15B 9091   5.881   0.686   7.295 -0.8153 -0.2835 -0.9525
   94SAPC  H15C 9092   5.801   0.692   7.455 -0.9143  0.4747 -0.1537
   94SAPC   C11 9093   5.729   0.674   7.058 -0.2734 -0.6513 -0.3368
   94SAPC  H11A 9094   5.767   0.778   7.054 -0.6334 -0.5496 -1.4758
   94SAPC  H11B 9095   5.677   0.655   6.962 -0.4617 -1.8784 -0.0123
   94SAPC     P 9096   5.857   0.446   7.023  0.0836  0.1931  0.3709
   94SAPC   O13 9097   5.932   0.370   7.122  0.3259  0.0810 -1.3867
   94SAPC   O14 9098   5.712   0.397   7.016 -0.3206  0.3390  0.3628
   94SAPC   O12 9099   5.850   0.598   7.067 -0.1521 -0.7091 -0.4900
   94SAPC   O11 9100   5.924   0.448   6.881  0.5480  0.6059 -0.1440
   94SAPC    C1 9101   6.016   0.538   6.826  0.0972 -0.0638 -0.2281
   94SAPC    HA 9102   6.068   0.597   6.905 -1.4979  0.3063  0.5891
   94SAPC    HB 9103   6.094   0.481   6.772  0.9618  0.6670  0.2207
   94SAPC    C2 9104   5.939   0.619   6.726 -0.0668 -0.6041 -0.1352
   94SAPC    HS 9105   5.865   0.670   6.791  0.6528  1.9091 -1.1690
   94SAPC   O21 9106   5.876   0.537   6.624 -0.0002  0.0126 -0.4509
   94SAPC   C21 9107   5.752   0.575   6.586  0.2165 -0.0345 -0.4119
   94SAPC   O22 9108   5.690   0.673   6.628  0.1624  0.0280 -0.3878
   94SAPC   C22 9109   5.714   0.495   6.465 -0.4990  0.1835  0.1421
   94SAPC   H2R 9110   5.794   0.420   6.448 -0.2066  0.4112  0.4982
   94SAPC   H2S 9111   5.616   0.446   6.482 -1.2048  1.5984  0.3191
   94SAPC    C3 9112   6.036   0.728   6.657 -0.1538 -1.1411 -0.7946
   94SAPC    HX 9113   6.112   0.666   6.604  0.5987 -1.6448  0.8158
   94SAPC    HY 9114   6.086   0.783   6.739 -0.1379  0.8060 -2.0294
   94SAPC   O31 9115   5.978   0.811   6.554  0.6375 -0.0136 -0.2965
   94SAPC   C31 9116   5.892   0.902   6.606  0.8723 -0.6543  0.5024
   94SAPC   O32 9117   5.888   0.932   6.721 -0.2527  0.3820 -0.2405
   94SAPC   C32 9118   5.794   0.964   6.496 -0.4189 -0.0836 -0.3706
   94SAPC   H2X 9119   5.695   0.942   6.540 -0.3258 -0.9886 -0.5859
   94SAPC   H2Y 9120   5.809   0.901   6.405  0.4245 -0.9906  0.3793
   94SAPC   C23 9121   5.706   0.583   6.339  0.2060  0.3507 -0.2557
   94SAPC   H3R 9122   5.649   0.675   6.365 -1.2023 -0.9269  1.4046
   94SAPC   H3S 9123   5.661   0.529   6.253 -0.4424  0.9726 -0.3178
   94SAPC   C24 9124   5.843   0.623   6.276 -0.3735  0.3232  0.0791
   94SAPC   H4R 9125   5.911   0.675   6.347 -0.6649 -0.1883  0.7403
   94SAPC   H4S 9126   5.817   0.698   6.198 -1.8138  0.9842  1.1530
   94SAPC   C25 9127   5.928   0.505   6.231 -0.0123  0.4055 -0.4536
   94SAPC   H5R 9128   5.958   0.433   6.309  1.4155 -0.1672 -1.4858
   94SAPC   C26 9129   5.968   0.465   6.112 -0.4104  0.9407 -0.0081
   94SAPC   H6R 9130   6.029   0.373   6.107 -0.9511  0.6276 -1.2421
   94SAPC   C27 9131   5.939   0.536   5.985  0.0403 -0.1306 -0.5015
   94SAPC   H7R 9132   5.843   0.590   5.995 -0.3865 -1.1707  1.5583
   94SAPC   H7S 9133   5.925   0.464   5.902  2.9558  1.4094 -2.4945
   94SAPC   C28 9134   6.038   0.649   5.960 -0.3719  0.0010  0.1526
   94SAPC   H8R 9135   6.114   0.674   6.035 -2.1472  1.8884  1.4322
   94SAPC   C29 9136   6.029   0.730   5.850 -0.2584 -0.5788 -0.4832
   94SAPC   H9R 9137   6.090   0.821   5.846 -1.1661  0.0742  0.1127
   94SAPC  C210 9138   5.927   0.707   5.743 -0.8923  0.0275  0.5641
   94SAPC  H10R 9139   5.830   0.674   5.786 -0.9021  1.0168  1.3297
   94SAPC  H10S 9140   5.960   0.618   5.685 -1.0994 -0.3084  0.9554
   94SAPC  C211 9141   5.887   0.822   5.658  0.1795 -0.4033  0.0249
   94SAPC  H11R 9142   5.818   0.898   5.698 -1.0726 -1.2427 -0.4862
   94SAPC  C212 9143   5.941   0.838   5.536 -0.2541 -0.7832  0.0787
   94SAPC  H12R 9144   5.915   0.932   5.485  0.7467 -0.6114 -0.1273
   94SAPC  C213 9145   6.020   0.747   5.466 -0.3460 -0.6042  0.5688
   94SAPC  H13R 9146   6.103   0.710   5.530 -0.3708  0.0772  1.0061
   94SAPC  H13S 9147   6.070   0.808   5.388 -0.4022  0.3136  1.2305
   94SAPC  C214 9148   5.944   0.630   5.408  0.0546 -0.2045 -0.2169
   94SAPC  H14R 9149   5.864   0.594   5.475  1.1328 -0.4612  0.9721
   94SAPC  C215 9150   5.965   0.588   5.279  0.3118  0.1433  0.0837
   94SAPC  H15R 9151   5.902   0.506   5.242  1.0540  0.6121 -2.4385
   94SAPC  C216 9152   6.072   0.633   5.190 -0.4377  0.3214 -0.3507
   94SAPC  H16R 9153   6.113   0.550   5.130  0.6069  1.1468 -0.8274
   94SAPC  H16S 9154   6.158   0.675   5.247 -1.2541  0.6223  0.6739
   94SAPC  C217 9155   6.015   0.734   5.090  0.3523 -0.5745  0.4370
   94SAPC  H17R 9156   5.964   0.811   5.151  0.4732 -1.3079  1.4912
   94SAPC  H17S 9157   5.935   0.693   5.024  0.9549 -0.2678 -0.5046
   94SAPC  C218 9158   6.123   0.793   5.009  0.5217  0.2087  0.1450
   94SAPC  H18R 9159   6.155   0.717   4.935 -0.4275 -2.3346  2.1935
   94SAPC  H18S 9160   6.209   0.832   5.069 -0.3399  0.2360  1.4082
   94SAPC  C219 9161   6.071   0.917   4.928 -0.3132 -0.2514  0.4252
   94SAPC  H19R 9162   6.062   0.998   5.004  0.1736 -1.2055  1.5331
   94SAPC  H19S 9163   5.970   0.901   4.884  0.4470 -0.2835 -1.3807
   94SAPC  C220 9164   6.167   0.958   4.817 -0.1144  0.0549 -0.0399
   94SAPC  H20R 9165   6.270   0.965   4.858 -0.9326 -1.4369  2.4721
   94SAPC  H20S 9166   6.134   1.055   4.774  0.2460  0.7133  1.1273
   94SAPC  H20T 9167   6.160   0.876   4.742 -1.7600 -0.8539  1.0530
   94SAPC   C33 9168   5.833   1.112   6.455 -0.2276 -0.3342  0.0488
   94SAPC   H3X 9169   5.837   1.172   6.548  2.6473  1.2498 -0.9800
   94SAPC   H3Y 9170   5.755   1.148   6.385 -0.3365 -1.0258 -0.1923
   94SAPC   C34 9171   5.964   1.127   6.372 -0.9802 -0.0798 -1.1709
   94SAPC   H4X 9172   6.036   1.082   6.444 -2.1583  0.1113  0.1682
   94SAPC   H4Y 9173   5.980   1.236   6.357 -0.4686  0.1826  0.9675
   94SAPC   C35 9174   5.963   1.057   6.238 -0.4366 -0.8217 -0.2491
   94SAPC   H5X 9175   5.865   1.024   6.199  0.0393 -0.8646 -1.4729
   94SAPC   H5Y 9176   6.027   0.967   6.251  1.7566  0.7368  0.3055
   94SAPC   C36 9177   6.039   1.144   6.137 -0.1244  0.2063  0.2848
   94SAPC   H6X 9178   6.146   1.158   6.164  0.2290 -0.4592 -0.7135
   94SAPC   H6Y 9179   6.001   1.248   6.142 -0.9811 -0.0689 -0.2848
   94SAPC   C37 9180   6.043   1.074   6.007 -0.0336  0.1297  0.1437
   94SAPC   H7X 9181   5.945   1.049   5.963  0.1488 -0.7152  0.2020
   94SAPC   H7Y 9182   6.107   0.983   6.014  0.4767  0.3168 -1.5201
   94SAPC   C38 9183   6.116   1.163   5.903 -0.1337 -0.0182 -0.4929
   94SAPC   H8X 9184   6.216   1.190   5.941 -0.7377  0.8031  0.5780
   94SAPC   H8Y 9185   6.052   1.253   5.886  1.7763  1.8954  1.7409
   94SAPC   C39 9186   6.141   1.098   5.763 -0.2341  0.1988  0.0066
   94SAPC   H9X 9187   6.048   1.123   5.708  0.4016  0.2923 -1.0529
   94SAPC   H9Y 9188   6.158   0.990   5.784 -2.0875 -0.1433 -0.0855
   94SAPC  C310 9189   6.256   1.146   5.676  0.2164 -0.2617  0.3628
   94SAPC  H10X 9190   6.346   1.125   5.738 -0.3755  1.6418  2.0067
   94SAPC  H10Y 9191   6.259   1.255   5.657  4.4225 -0.7908 -3.4350
   94SAPC  C311 9192   6.265   1.080   5.538  0.4207 -0.1501  1.0619
   94SAPC  H11X 9193   6.170   1.111   5.489  1.5568  0.9453 -0.5394
   94SAPC  H11Y 9194   6.270   0.969   5.544 -1.4411 -0.4679 -1.6798
   94SAPC  C312 9195   6.390   1.115   5.455  0.8178 -0.3020  0.0725
   94SAPC  H12X 9196   6.483   1.094   5.513  0.3092 -1.5482  0.4647
   94SAPC  H12Y 9197   6.376   1.224   5.441 -0.4288 -0.5919 -1.2149
   94SAPC  C313 9198   6.401   1.050   5.319  0.6050  0.1396 -0.2818
   94SAPC  H13X 9199   6.302   1.052   5.269  0.9238  0.3553 -0.9135
   94SAPC  H13Y 9200   6.427   0.943   5.335  2.4203  0.5756 -0.1652
   94SAPC  C314 9201   6.511   1.117   5.235  0.0296 -0.3373 -0.2710
   94SAPC  H14X 9202   6.597   1.139   5.301  0.3619 -0.1791 -0.7462
   94SAPC  H14Y 9203   6.472   1.207   5.182  0.6123 -0.3102 -0.6700
   94SAPC  C315 9204   6.586   1.022   5.137 -0.3643 -0.0178 -0.0849
   94SAPC  H15X 9205   6.639   0.947   5.199 -0.0245  0.1669 -0.1529
   94SAPC  H15Y 9206   6.671   1.078   5.092 -0.3766  1.5860  1.7481
   94SAPC  C316 9207   6.499   0.969   5.022  1.3364  0.1107  0.0325
   94SAPC  H16X 9208   6.451   1.055   4.972  1.3766  1.1328  1.6589
   94SAPC  H16Y 9209   6.426   0.892   5.057 -0.4910  1.6196 -0.3254
   94SAPC  C317 9210   6.589   0.894   4.922 -0.9288  0.3285 -0.1997
   94SAPC  H17X 9211   6.609   0.799   4.975 -1.4503 -0.7594 -1.8685
   94SAPC  H17Y 9212   6.679   0.958   4.905 -0.7199 -0.2542 -1.4191
   94SAPC  C318 9213   6.528   0.864   4.778 -0.0618  0.1724 -0.3462
   94SAPC  H18X 9214   6.524   0.952   4.710 -2.3763  1.0925  0.8431
   94SAPC  H18Y 9215   6.426   0.821   4.775 -0.9822  1.7940  2.6114
   94SAPC  H18Z 9216   6.597   0.796   4.724  0.4027  0.6318 -0.3502
   95SAPC     N 9217   5.389   6.475   2.777  0.2385  0.2612  0.4347
   95SAPC   C12 9218   5.542   6.456   2.806  0.1919 -0.1208  0.3427
   95SAPC  H12A 9219   5.574   6.554   2.836  0.4168 -0.5926  1.7154
   95SAPC  H12B 9220   5.592   6.438   2.712  2.3670  0.6083  1.3092
   95SAPC   C13 9221   5.320   6.574   2.879 -0.6922  0.0958  0.4737
   95SAPC  H13A 9222   5.360   6.670   2.849  1.2539 -0.3618  1.4684
   95SAPC  H13B 9223   5.215   6.575   2.856 -0.0014  1.0836 -3.4643
   95SAPC  H13C 9224   5.331   6.539   2.980  0.5972  2.3037  1.1586
   95SAPC   C14 9225   5.374   6.534   2.640  0.1271 -0.1615 -0.1363
   95SAPC  H14A 9226   5.406   6.637   2.648 -0.0040 -0.0330 -1.1085
   95SAPC  H14B 9227   5.450   6.484   2.581  0.6753  1.0213 -0.4642
   95SAPC  H14C 9228   5.276   6.531   2.595 -1.7677 -1.6497  3.7009
   95SAPC   C15 9229   5.310   6.345   2.782 -0.3987  0.1894 -0.1524
   95SAPC  H15A 9230   5.367   6.262   2.742  0.6767 -0.7707  3.0925
   95SAPC  H15B 9231   5.282   6.326   2.884 -0.5301  1.0431 -0.0244
   95SAPC  H15C 9232   5.222   6.349   2.719  0.1324 -0.7614 -0.9965
   95SAPC   C11 9233   5.597   6.353   2.908  0.1609 -0.0638 -0.0953
   95SAPC  H11A 9234   5.517   6.349   2.985 -2.4040  1.8184 -2.4602
   95SAPC  H11B 9235   5.692   6.373   2.963 -0.7877 -1.3932  2.1563
   95SAPC     P 9236   5.719   6.177   2.759 -0.0162  0.3757 -0.0460
   95SAPC   O13 9237   5.660   6.092   2.652  0.0044 -0.0333 -0.5598
   95SAPC   O14 9238   5.799   6.299   2.716  0.3254 -0.0873  0.4397
   95SAPC   O12 9239   5.609   6.223   2.863  0.1265 -0.7424  0.2914
   95SAPC   O11 9240   5.823   6.095   2.840 -0.1393 -0.0407  0.0665
   95SAPC    C1 9241   5.792   6.048   2.969 -0.0894 -0.5031  0.4633
   95SAPC    HA 9242   5.692   6.002   2.982 -0.4594  0.3840  0.7872
   95SAPC    HB 9243   5.865   5.966   2.988 -1.2375 -1.5449  0.4927
   95SAPC    C2 9244   5.812   6.144   3.077 -0.2715 -0.2486 -0.3117
   95SAPC    HS 9245   5.732   6.222   3.077 -0.1926 -0.1016 -2.2868
   95SAPC   O21 9246   5.946   6.205   3.063  0.4773 -0.2191  0.0283
   95SAPC   C21 9247   5.962   6.330   3.120 -0.1844 -0.4154  0.1847
   95SAPC   O22 9248   5.875   6.392   3.177 -0.1175 -0.4338 -0.1377
   95SAPC   C22 9249   6.101   6.389   3.099 -0.9292 -0.3401 -0.4377
   95SAPC   H2R 9250   6.153   6.341   3.014 -1.6798 -0.0922 -1.0410
   95SAPC   H2S 9251   6.085   6.492   3.060 -0.5793 -0.0080  0.2645
   95SAPC    C3 9252   5.796   6.081   3.222 -0.7075 -0.2987  0.2630
   95SAPC    HX 9253   5.805   6.172   3.286  1.2557  0.4169 -0.9508
   95SAPC    HY 9254   5.880   6.011   3.242 -0.2312  0.6590  1.8021
   95SAPC   O31 9255   5.672   6.019   3.221 -0.4857  0.1388 -0.5219
   95SAPC   C31 9256   5.642   5.951   3.325  0.1295  0.2996 -0.4061
   95SAPC   O32 9257   5.716   5.926   3.417  0.1496 -0.1728 -0.6818
   95SAPC   C32 9258   5.512   5.875   3.311  0.0208 -0.3977  0.0185
   95SAPC   H2X 9259   5.543   5.799   3.237  0.7222  0.8921 -1.0499
   95SAPC   H2Y 9260   5.430   5.939   3.271 -1.1436 -1.2214  0.9817
   95SAPC   C23 9261   6.184   6.396   3.231 -0.4835  0.6092  0.0633
   95SAPC   H3R 9262   6.124   6.433   3.316 -0.2972 -0.4414  0.6683
   95SAPC   H3S 9263   6.263   6.472   3.215 -1.3141  1.0607 -2.4334
   95SAPC   C24 9264   6.259   6.263   3.269 -0.3781 -0.4419 -0.0703
   95SAPC   H4R 9265   6.337   6.265   3.349  0.0914 -1.4099 -0.4802
   95SAPC   H4S 9266   6.322   6.224   3.186 -1.3969  1.4354 -1.7934
   95SAPC   C25 9267   6.174   6.148   3.323  0.0597  0.5642 -0.1555
   95SAPC   H5R 9268   6.163   6.065   3.252  0.9756  1.2280 -1.1130
   95SAPC   C26 9269   6.090   6.150   3.430 -1.0684 -0.2333  0.1731
   95SAPC   H6R 9270   6.039   6.055   3.452  0.5482 -1.3046 -0.5951
   95SAPC   C27 9271   6.083   6.261   3.530  0.8902  0.2793 -0.1898
   95SAPC   H7R 9272   5.980   6.302   3.523  0.8688  0.1984 -0.3637
   95SAPC   H7S 9273   6.156   6.341   3.506  2.0317 -1.2908 -2.1988
   95SAPC   C28 9274   6.116   6.205   3.665 -1.3347  0.3326 -0.6418
   95SAPC   H8R 9275   6.224   6.203   3.685 -1.6528 -1.4479  1.2181
   95SAPC   C29 9276   6.029   6.164   3.761  0.2249  1.1356  0.2446
   95SAPC   H9R 9277   6.064   6.117   3.854 -2.4048 -3.6558 -0.8754
   95SAPC  C210 9278   5.880   6.163   3.731  0.0620 -0.3424  0.4028
   95SAPC  H10R 9279   5.859   6.158   3.622 -1.4248 -2.5537  0.7416
   95SAPC  H10S 9280   5.832   6.253   3.773  2.0566  0.4045  1.2312
   95SAPC  C211 9281   5.810   6.050   3.800 -0.6441  0.6520 -0.1214
   95SAPC  H11R 9282   5.800   5.963   3.732 -0.9951 -2.7941  3.9552
   95SAPC  C212 9283   5.774   6.034   3.930 -0.3720 -0.7301  0.1518
   95SAPC  H12R 9284   5.722   5.939   3.950 -0.9646 -0.4997 -0.2881
   95SAPC  C213 9285   5.792   6.117   4.055  0.8910 -0.2973  0.1825
   95SAPC  H13R 9286   5.824   6.218   4.020  2.3297 -1.0195 -0.7283
   95SAPC  H13S 9287   5.881   6.080   4.110 -0.1566 -1.4772  1.1442
   95SAPC  C214 9288   5.676   6.116   4.150  0.0500  1.1423 -0.2390
   95SAPC  H14R 9289   5.603   6.196   4.131 -1.4924  0.3329  1.9765
   95SAPC  C215 9290   5.641   6.027   4.248  0.2908 -0.8875  0.0118
   95SAPC  H15R 9291   5.560   6.067   4.311  0.2833 -0.6453 -0.1526
   95SAPC  C216 9292   5.720   5.915   4.300 -0.6512 -0.1784  0.4086
   95SAPC  H16R 9293   5.797   5.890   4.223 -1.6071  0.1173 -0.6855
   95SAPC  H16S 9294   5.648   5.830   4.297  1.6708 -2.2330  0.1254
   95SAPC  C217 9295   5.783   5.963   4.430 -0.4033  0.1327  0.2962
   95SAPC  H17R 9296   5.844   6.054   4.409 -1.2334  1.1543  2.0358
   95SAPC  H17S 9297   5.859   5.891   4.465 -0.2512 -1.6625 -3.2518
   95SAPC  C218 9298   5.693   6.000   4.551  0.0689 -0.2971 -0.1939
   95SAPC  H18R 9299   5.638   6.094   4.530  2.5830  0.8068 -2.5434
   95SAPC  H18S 9300   5.765   6.021   4.633  0.5267  3.2021 -1.3385
   95SAPC  C219 9301   5.600   5.888   4.605  0.5840  0.7090 -0.3527
   95SAPC  H19R 9302   5.643   5.786   4.594 -2.7596 -1.3834  3.0791
   95SAPC  H19S 9303   5.507   5.881   4.544 -0.2491 -0.7377  0.9875
   95SAPC  C220 9304   5.558   5.911   4.754  0.0280  0.3682  0.6237
   95SAPC  H20R 9305   5.510   6.011   4.755  0.3690  0.5313  1.2572
   95SAPC  H20S 9306   5.645   5.907   4.824 -0.8395  2.8761  1.9582
   95SAPC  H20T 9307   5.496   5.823   4.781 -2.8281  2.1140  0.1263
   95SAPC   C33 9308   5.461   5.803   3.433 -0.0863  0.7031  0.6677
   95SAPC   H3X 9309   5.436   5.875   3.514  1.5624  0.6257  1.2808
   95SAPC   H3Y 9310   5.547   5.741   3.464  0.9510  2.4819  1.5277
   95SAPC   C34 9311   5.336   5.716   3.400  0.4765  0.0331 -0.4200
   95SAPC   H4X 9312   5.345   5.667   3.300 -0.7502 -0.7685 -0.1594
   95SAPC   H4Y 9313   5.247   5.781   3.413 -0.7637 -1.2248 -2.0936
   95SAPC   C35 9314   5.326   5.592   3.491  0.2235  0.2384 -0.0225
   95SAPC   H5X 9315   5.410   5.529   3.456  0.8204  1.1037 -0.1626
   95SAPC   H5Y 9316   5.223   5.551   3.477 -0.2264  0.9901  0.9971
   95SAPC   C36 9317   5.353   5.622   3.641 -0.8873 -0.8300 -0.2546
   95SAPC   H6X 9318   5.452   5.673   3.646 -1.1830 -0.1679 -0.8132
   95SAPC   H6Y 9319   5.361   5.526   3.695  0.0868 -1.9089 -2.1846
   95SAPC   C37 9320   5.251   5.713   3.705  0.8178  0.2713  0.2291
   95SAPC   H7X 9321   5.151   5.671   3.682  1.7512 -0.7291 -2.3518
   95SAPC   H7Y 9322   5.264   5.815   3.662 -2.9600  0.1292 -1.6623
   95SAPC   C38 9323   5.276   5.712   3.856 -0.1229  0.4232  0.2416
   95SAPC   H8X 9324   5.263   5.608   3.891 -0.0473  0.0989 -0.6819
   95SAPC   H8Y 9325   5.199   5.781   3.899  0.9834  0.5543  2.1510
   95SAPC   C39 9326   5.407   5.771   3.913  0.0401 -0.1364 -0.2605
   95SAPC   H9X 9327   5.431   5.870   3.869 -0.0302 -0.6323 -1.4720
   95SAPC   H9Y 9328   5.482   5.699   3.874  0.0730  0.6443 -1.7123
   95SAPC  C310 9329   5.422   5.775   4.067 -0.2649 -0.3965 -0.1043
   95SAPC  H10X 9330   5.360   5.863   4.096  0.8692  0.5402 -0.4509
   95SAPC  H10Y 9331   5.528   5.805   4.084  0.1721 -1.4399 -0.8688
   95SAPC  C311 9332   5.388   5.655   4.143 -0.1521  0.3402  0.1646
   95SAPC  H11X 9333   5.474   5.585   4.132  0.3779  1.3076 -2.6282
   95SAPC  H11Y 9334   5.295   5.611   4.099 -0.1507  1.0222 -0.5423
   95SAPC  C312 9335   5.371   5.685   4.293  0.0711 -0.4865  0.1920
   95SAPC  H12X 9336   5.299   5.769   4.305 -0.1371 -0.4297 -1.2719
   95SAPC  H12Y 9337   5.469   5.706   4.341  0.6605  0.7888 -1.4744
   95SAPC  C313 9338   5.301   5.566   4.366  0.3645 -0.0327 -0.6761
   95SAPC  H13X 9339   5.377   5.486   4.354 -1.6500 -1.9725 -1.0791
   95SAPC  H13Y 9340   5.214   5.526   4.311  1.3526 -1.9238 -0.9487
   95SAPC  C314 9341   5.281   5.607   4.519 -0.0995  0.5573 -0.1216
   95SAPC  H14X 9342   5.194   5.676   4.519 -0.5576 -0.0090 -0.4321
   95SAPC  H14Y 9343   5.366   5.661   4.565  0.3670 -0.3618  0.1308
   95SAPC  C315 9344   5.248   5.484   4.610 -0.4046 -0.0842  0.2612
   95SAPC  H15X 9345   5.342   5.428   4.632 -0.6764 -0.7179 -0.1496
   95SAPC  H15Y 9346   5.194   5.420   4.537 -1.2080  0.1311  0.6525
   95SAPC  C316 9347   5.161   5.506   4.731  0.2176 -0.0241 -0.4342
   95SAPC  H16X 9348   5.132   5.406   4.768  1.0149 -0.0642  0.1022
   95SAPC  H16Y 9349   5.072   5.569   4.709  0.4674  1.3074  2.0741
   95SAPC  C317 9350   5.248   5.581   4.837 -1.0294 -0.4942  0.3484
   95SAPC  H17X 9351   5.326   5.640   4.784 -2.0213  1.7483  1.2764
   95SAPC  H17Y 9352   5.296   5.511   4.908 -1.2346 -1.4138 -0.3910
   95SAPC  C318 9353   5.153   5.647   4.931  0.1127 -0.8550  0.3812
   95SAPC  H18X 9354   5.086   5.565   4.965  3.4241 -3.3341  1.5021
   95SAPC  H18Y 9355   5.093   5.721   4.875  0.5851 -1.2947 -0.7330
   95SAPC  H18Z 9356   5.204   5.693   5.019  1.2483 -0.5122 -0.4320
   96SAPC     N 9357   6.524   0.670   2.636 -0.0057 -0.3992 -0.1249
   96SAPC   C12 9358   6.606   0.549   2.656 -0.0454 -0.1853  0.0423
   96SAPC  H12A 9359   6.709   0.578   2.641  0.3731 -1.2314  0.8010
   96SAPC  H12B 9360   6.576   0.482   2.577  1.7152  0.3833 -1.1795
   96SAPC   C13 9361   6.384   0.621   2.626  0.0578 -0.4560  0.0902
   96SAPC  H13A 9362   6.308   0.697   2.616  0.6226  0.4128  2.0599
   96SAPC  H13B 9363   6.377   0.562   2.536  1.4289 -0.1744 -0.2286
   96SAPC  H13C 9364   6.357   0.563   2.713  0.8686 -0.1991  0.5228
   96SAPC   C14 9365   6.532   0.761   2.757 -0.2176  0.6564  0.8208
   96SAPC  H14A 9366   6.517   0.698   2.843  0.7719 -0.1766  0.4051
   96SAPC  H14B 9367   6.629   0.807   2.763 -0.6603  1.9152 -0.7784
   96SAPC  H14C 9368   6.452   0.833   2.747  0.3985  1.1977 -0.4980
   96SAPC   C15 9369   6.559   0.737   2.505  0.8900 -0.5102 -0.1138
   96SAPC  H15A 9370   6.555   0.668   2.422  2.6582  0.3131 -0.9428
   96SAPC  H15B 9371   6.499   0.822   2.476  3.6623  1.9167  0.6423
   96SAPC  H15C 9372   6.658   0.782   2.504  1.8019 -2.4529 -0.5380
   96SAPC   C11 9373   6.598   0.461   2.783 -0.3449  0.0142 -0.4872
   96SAPC  H11A 9374   6.646   0.516   2.867  0.8672 -1.9317  0.1650
   96SAPC  H11B 9375   6.650   0.365   2.765  0.8262  0.5686 -0.1386
   96SAPC     P 9376   6.399   0.425   2.974 -0.0806 -0.0152  0.0784
   96SAPC   O13 9377   6.317   0.545   2.989  0.1121 -0.2376  0.7227
   96SAPC   O14 9378   6.332   0.298   2.980 -0.2652  0.6858  0.2692
   96SAPC   O12 9379   6.462   0.431   2.823 -0.6585 -0.5462 -0.0314
   96SAPC   O11 9380   6.525   0.435   3.076 -0.1717  0.4891 -0.6371
   96SAPC    C1 9381   6.513   0.421   3.223  0.3380 -0.2156 -0.3456
   96SAPC    HA 9382   6.594   0.485   3.264 -0.5270  1.8324 -1.7144
   96SAPC    HB 9383   6.415   0.451   3.265  0.9732 -0.3380  1.3099
   96SAPC    C2 9384   6.550   0.275   3.264  0.8001 -0.2712  0.6817
   96SAPC    HS 9385   6.473   0.206   3.221  0.5729  1.0686 -1.1894
   96SAPC   O21 9386   6.545   0.267   3.408  0.1994  0.2840  0.1189
   96SAPC   C21 9387   6.432   0.222   3.460  0.6343  0.1204  0.2744
   96SAPC   O22 9388   6.334   0.189   3.394  0.1017 -0.4629 -0.2137
   96SAPC   C22 9389   6.451   0.187   3.608  0.9261  0.1597 -0.0945
   96SAPC   H2R 9390   6.416   0.273   3.669 -1.3134 -0.5463 -0.2847
   96SAPC   H2S 9391   6.393   0.096   3.635  2.7222 -1.0289 -0.1356
   96SAPC    C3 9392   6.687   0.235   3.210 -0.2073  0.6638  0.8717
   96SAPC    HX 9393   6.762   0.310   3.243  1.4511 -0.5218 -0.0756
   96SAPC    HY 9394   6.688   0.244   3.100  2.5078 -2.8121  0.4324
   96SAPC   O31 9395   6.731   0.104   3.254  0.6460  1.0223  0.2447
   96SAPC   C31 9396   6.701   0.006   3.167  0.0079  0.2363 -0.2827
   96SAPC   O32 9397   6.676   0.018   3.050  0.1967 -0.1126  0.5258
   96SAPC   C32 9398   6.708  -0.130   3.236  0.1041 -0.1135 -0.3592
   96SAPC   H2X 9399   6.813  -0.137   3.269 -0.0011  0.9184  0.2446
   96SAPC   H2Y 9400   6.689  -0.209   3.160 -2.1135 -1.0452  1.0446
   96SAPC   C23 9401   6.592   0.140   3.645 -0.5927  0.5556 -0.1785
   96SAPC   H3R 9402   6.670   0.215   3.621  0.3377 -0.8203 -1.6335
   96SAPC   H3S 9403   6.626   0.055   3.581  0.8573  0.7157  0.3488
   96SAPC   C24 9404   6.597   0.112   3.801  0.1028  0.7568  0.0910
   96SAPC   H4R 9405   6.697   0.088   3.842  0.8970  2.6961 -0.6216
   96SAPC   H4S 9406   6.546   0.013   3.801  0.8105  0.3787  1.0464
   96SAPC   C25 9407   6.537   0.207   3.901 -0.2711 -0.0135  0.0218
   96SAPC   H5R 9408   6.568   0.308   3.870  2.7605 -0.8849 -0.1190
   96SAPC   C26 9409   6.439   0.197   3.989  0.2825  0.1455  0.1348
   96SAPC   H6R 9410   6.420   0.286   4.051 -0.6387 -1.2937  2.0217
   96SAPC   C27 9411   6.371   0.073   4.032  0.1571  0.0189  0.2788
   96SAPC   H7R 9412   6.395  -0.003   3.954 -0.0358 -1.9587  2.0532
   96SAPC   H7S 9413   6.261   0.092   4.028  0.3838  1.3510 -0.1587
   96SAPC   C28 9414   6.402   0.002   4.162  0.2368  0.3870  0.3152
   96SAPC   H8R 9415   6.313  -0.028   4.219  0.3066 -1.3623 -0.4243
   96SAPC   C29 9416   6.521  -0.035   4.213  0.1867 -0.3647 -0.6192
   96SAPC   H9R 9417   6.509  -0.072   4.316  3.1430 -0.0389 -0.0657
   96SAPC  C210 9418   6.661  -0.003   4.167  0.0134  0.4372 -0.1965
   96SAPC  H10R 9419   6.660   0.093   4.112 -0.3724  0.3354 -0.3671
   96SAPC  H10S 9420   6.688  -0.085   4.097 -2.1189 -0.8120  0.3391
   96SAPC  C211 9421   6.752   0.003   4.293 -0.4501  0.3548  0.6211
   96SAPC  H11R 9422   6.796  -0.091   4.328 -4.4023 -1.3743  1.4777
   96SAPC  C212 9423   6.768   0.113   4.374 -0.3489  0.4927  0.7915
   96SAPC  H12R 9424   6.826   0.100   4.467  0.7432  0.2250  0.0887
   96SAPC  C213 9425   6.703   0.247   4.355 -0.1300  0.4692  0.3992
   96SAPC  H13R 9426   6.666   0.281   4.454 -2.0241  0.6961 -0.3414
   96SAPC  H13S 9427   6.610   0.227   4.297 -0.1266  0.3221  0.4438
   96SAPC  C214 9428   6.772   0.355   4.278  0.2356  0.1089 -0.4655
   96SAPC  H14R 9429   6.741   0.356   4.172 -1.3385  0.7192 -0.0284
   96SAPC  C215 9430   6.855   0.438   4.338  1.2746 -0.6628 -0.2014
   96SAPC  H15R 9431   6.885   0.530   4.285  0.1190  1.1973  2.2082
   96SAPC  C216 9432   6.890   0.444   4.488 -0.5077  0.2195  0.2323
   96SAPC  H16R 9433   6.999   0.457   4.507 -0.4483  0.8364 -0.4582
   96SAPC  H16S 9434   6.866   0.353   4.546  1.8992 -0.6912 -0.0820
   96SAPC  C217 9435   6.821   0.568   4.547  1.1595  0.3627 -0.2208
   96SAPC  H17R 9436   6.712   0.562   4.526  0.9333 -0.6272  1.0354
   96SAPC  H17S 9437   6.840   0.672   4.513 -0.1413  2.0517  3.6150
   96SAPC  C218 9438   6.845   0.558   4.703 -0.7739 -0.2947  0.0709
   96SAPC  H18R 9439   6.847   0.452   4.737 -1.1312 -0.5735 -0.7402
   96SAPC  H18S 9440   6.756   0.602   4.752 -0.7169  0.7444 -0.7309
   96SAPC  C219 9441   6.969   0.630   4.753 -0.3944  0.3745  0.1734
   96SAPC  H19R 9442   6.974   0.737   4.725  1.6284  0.5481  1.0054
   96SAPC  H19S 9443   7.060   0.579   4.714  0.2544  0.6585  1.2834
   96SAPC  C220 9444   6.965   0.638   4.909  0.1522  0.0445  0.9306
   96SAPC  H20R 9445   7.049   0.693   4.956  1.0342  0.5614 -1.1408
   96SAPC  H20S 9446   6.951   0.532   4.941 -1.6474  0.6713  2.4148
   96SAPC  H20T 9447   6.867   0.675   4.946  0.1454  2.8629 -1.5788
   96SAPC   C33 9448   6.615  -0.151   3.360 -0.4021  0.8489  0.1797
   96SAPC   H3X 9449   6.508  -0.139   3.335 -0.1940  1.9244 -0.2252
   96SAPC   H3Y 9450   6.649  -0.073   3.432 -1.3205 -0.2500  1.8801
   96SAPC   C34 9451   6.630  -0.287   3.430  0.2627  0.2924  0.4425
   96SAPC   H4X 9452   6.735  -0.313   3.458  0.7016 -1.6575 -2.5925
   96SAPC   H4Y 9453   6.594  -0.367   3.363 -3.4719  3.6100 -1.9708
   96SAPC   C35 9454   6.551  -0.309   3.562 -0.1480  0.5403 -0.8307
   96SAPC   H5X 9455   6.447  -0.290   3.530 -0.7929 -0.6578  0.4780
   96SAPC   H5Y 9456   6.579  -0.233   3.638 -1.0028 -2.0873  2.3494
   96SAPC   C36 9457   6.578  -0.444   3.631  0.0869 -0.0135 -0.1588
   96SAPC   H6X 9458   6.683  -0.461   3.664 -0.6973 -0.4287  2.3783
   96SAPC   H6Y 9459   6.554  -0.529   3.564 -1.0052 -0.2490  0.5051
   96SAPC   C37 9460   6.482  -0.451   3.759  0.4383  0.5777 -0.1879
   96SAPC   H7X 9461   6.375  -0.464   3.732  0.2156  2.0450 -0.1307
   96SAPC   H7Y 9462   6.484  -0.350   3.806  2.8134  0.3659  0.2782
   96SAPC   C38 9463   6.538  -0.549   3.866  1.5939 -0.3737 -0.0279
   96SAPC   H8X 9464   6.646  -0.552   3.843  1.6915  0.9851  0.1954
   96SAPC   H8Y 9465   6.495  -0.650   3.849 -0.0818 -0.5947  4.2522
   96SAPC   C39 9466   6.509  -0.508   4.010 -0.1734 -0.6448 -0.7637
   96SAPC   H9X 9467   6.401  -0.529   4.026  0.1819 -2.4691 -0.4524
   96SAPC   H9Y 9468   6.531  -0.402   4.031 -0.4942 -0.3992 -1.6280
   96SAPC  C310 9469   6.603  -0.579   4.116  0.3432 -0.4295  0.0493
   96SAPC  H10X 9470   6.699  -0.533   4.084 -0.8465  1.5274 -0.9008
   96SAPC  H10Y 9471   6.570  -0.682   4.093 -2.9131  0.6710 -0.7586
   96SAPC  C311 9472   6.570  -0.545   4.260 -0.7071 -0.3744  0.3317
   96SAPC  H11X 9473   6.466  -0.576   4.284 -3.7581  2.1505 -6.7821
   96SAPC  H11Y 9474   6.560  -0.437   4.287 -0.1154  0.1396 -1.3715
   96SAPC  C312 9475   6.664  -0.597   4.372 -0.0769 -0.1084 -0.9246
   96SAPC  H12X 9476   6.765  -0.560   4.346  1.3392 -0.7787  3.0298
   96SAPC  H12Y 9477   6.660  -0.708   4.374 -1.0985 -0.0780  0.8428
   96SAPC  C313 9478   6.652  -0.534   4.520 -0.3532 -0.0826  0.3266
   96SAPC  H13X 9479   6.705  -0.599   4.593 -0.6320 -0.1275  0.4903
   96SAPC  H13Y 9480   6.542  -0.526   4.530 -0.2056  2.9879  0.4089
   96SAPC  C314 9481   6.699  -0.387   4.528  0.5094  0.2030 -0.1560
   96SAPC  H14X 9482   6.638  -0.328   4.457  0.8993 -1.7774 -2.2456
   96SAPC  H14Y 9483   6.806  -0.366   4.504  1.1943 -2.1582  0.5036
   96SAPC  C315 9484   6.655  -0.333   4.673 -0.0274  0.3473  0.2639
   96SAPC  H15X 9485   6.709  -0.387   4.753 -1.7231  2.6928  3.2221
   96SAPC  H15Y 9486   6.550  -0.360   4.701  0.1885  0.4216  1.1778
   96SAPC  C316 9487   6.694  -0.186   4.688  0.4434  0.8472  1.0161
   96SAPC  H16X 9488   6.628  -0.122   4.625  0.5205 -0.0955 -0.0529
   96SAPC  H16Y 9489   6.800  -0.183   4.655  0.3862 -1.8454  0.3059
   96SAPC  C317 9490   6.692  -0.145   4.832  0.4226  0.0699  0.2843
   96SAPC  H17X 9491   6.779  -0.189   4.884  0.0341 -0.3137  0.6289
   96SAPC  H17Y 9492   6.608  -0.203   4.878  1.6311 -3.8246 -1.9241
   96SAPC  C318 9493   6.674   0.008   4.846 -0.2121 -0.6530 -0.6219
   96SAPC  H18X 9494   6.724   0.066   4.766 -2.1594 -0.8457 -2.0646
   96SAPC  H18Y 9495   6.691   0.039   4.951 -0.5103 -1.1740 -0.4180
   96SAPC  H18Z 9496   6.570   0.036   4.819  0.1813  1.6086 -0.0243
   97SAPC     N 9497   3.418   5.183   2.780  0.6668  0.5141  0.0432
   97SAPC   C12 9498   3.350   5.199   2.910 -0.1890 -0.1639 -0.1078
   97SAPC  H12A 9499   3.384   5.282   2.970 -1.9527  0.1145  0.5588
   97SAPC  H12B 9500   3.371   5.108   2.963 -0.3767 -0.6719 -0.8856
   97SAPC   C13 9501   3.380   5.284   2.679  0.0935 -0.1356 -0.4913
   97SAPC  H13A 9502   3.274   5.302   2.677 -0.1766 -1.6261 -0.8726
   97SAPC  H13B 9503   3.427   5.377   2.708 -0.6908  0.3045 -0.6326
   97SAPC  H13C 9504   3.418   5.266   2.579  0.7961  0.5200 -0.3547
   97SAPC   C14 9505   3.573   5.175   2.794 -0.6831 -0.6054 -0.3153
   97SAPC  H14A 9506   3.606   5.094   2.857 -4.4877 -0.7021  1.8807
   97SAPC  H14B 9507   3.629   5.160   2.703 -0.5047 -1.9053 -0.0148
   97SAPC  H14C 9508   3.609   5.272   2.824 -0.8292 -0.5017 -0.4787
   97SAPC   C15 9509   3.383   5.044   2.720  0.0200 -0.3825 -0.0856
   97SAPC  H15A 9510   3.432   5.015   2.628 -1.5800 -0.5258 -0.9210
   97SAPC  H15B 9511   3.409   4.969   2.794  0.1941  0.6389  0.9203
   97SAPC  H15C 9512   3.278   5.033   2.701 -0.4506  1.0903  1.3973
   97SAPC   C11 9513   3.197   5.210   2.908 -0.2966 -0.6658  0.2221
   97SAPC  H11A 9514   3.165   5.217   3.014  1.2198 -0.4470  0.6790
   97SAPC  H11B 9515   3.164   5.109   2.873 -0.4759 -0.2334 -0.9043
   97SAPC     P 9516   2.988   5.334   2.812 -0.1042 -0.0115 -0.0471
   97SAPC   O13 9517   2.939   5.468   2.839  0.1878 -0.1849  0.8533
   97SAPC   O14 9518   2.972   5.272   2.681  0.3053  0.2753  0.8006
   97SAPC   O12 9519   3.145   5.327   2.842  0.7039 -0.2734  1.0323
   97SAPC   O11 9520   2.928   5.234   2.924 -0.3811  0.3456 -0.0580
   97SAPC    C1 9521   2.883   5.102   2.890 -0.5830  0.1949  0.7322
   97SAPC    HA 9522   2.798   5.105   2.819 -0.3198 -2.4295  0.1720
   97SAPC    HB 9523   2.961   5.040   2.840 -1.6528  0.0637 -0.8284
   97SAPC    C2 9524   2.831   5.020   3.012 -0.8585 -0.8119 -0.4024
   97SAPC    HS 9525   2.821   4.915   2.975  1.5256 -1.3625  0.3007
   97SAPC   O21 9526   2.711   5.081   3.051  0.4204 -0.1851  0.2455
   97SAPC   C21 9527   2.625   5.000   3.099 -0.6871  0.2602  0.0181
   97SAPC   O22 9528   2.645   4.887   3.134  0.5406  0.3143  0.2321
   97SAPC   C22 9529   2.488   5.063   3.105 -0.3426 -0.7737 -0.0345
   97SAPC   H2R 9530   2.450   5.118   3.016 -4.4684 -0.8986  1.4491
   97SAPC   H2S 9531   2.419   4.977   3.098 -0.2653 -0.9731  1.4689
   97SAPC    C3 9532   2.945   5.031   3.112  0.3523  0.0947 -0.4361
   97SAPC    HX 9533   2.958   5.141   3.128 -0.8596  0.0499  1.0778
   97SAPC    HY 9534   3.038   4.990   3.068  1.4348  2.1842 -0.2394
   97SAPC   O31 9535   2.902   4.978   3.237 -0.1561  0.1140 -0.1941
   97SAPC   C31 9536   2.969   4.990   3.348 -0.5431  0.5933  0.4602
   97SAPC   O32 9537   3.072   5.049   3.367  0.6470  0.1329 -0.1107
   97SAPC   C32 9538   2.900   4.904   3.455  0.4357  0.4570  0.3602
   97SAPC   H2X 9539   2.898   4.796   3.430 -2.1351  0.4634  0.2609
   97SAPC   H2Y 9540   2.796   4.943   3.460  0.0682 -0.5500  0.6526
   97SAPC   C23 9541   2.477   5.152   3.232  0.3682  0.2897 -0.0174
   97SAPC   H3R 9542   2.378   5.201   3.242  0.0975 -0.7375  4.1828
   97SAPC   H3S 9543   2.560   5.225   3.219  0.2459  0.1787 -1.7059
   97SAPC   C24 9544   2.502   5.082   3.373  0.0837  0.1062  0.7286
   97SAPC   H4R 9545   2.609   5.054   3.367  0.2430  0.8526 -0.0959
   97SAPC   H4S 9546   2.447   4.985   3.373 -0.2294  0.2143 -1.4870
   97SAPC   C25 9547   2.456   5.165   3.485 -0.2395 -0.5224 -0.3014
   97SAPC   H5R 9548   2.353   5.203   3.477 -0.7751 -1.5680  1.2219
   97SAPC   C26 9549   2.526   5.216   3.588 -0.3204 -0.1366  0.8457
   97SAPC   H6R 9550   2.478   5.282   3.662  0.7791 -0.6136  2.0257
   97SAPC   C27 9551   2.671   5.186   3.626  0.1219  0.2994  0.2401
   97SAPC   H7R 9552   2.736   5.274   3.643 -0.7022  0.8693  0.5195
   97SAPC   H7S 9553   2.725   5.133   3.545 -0.7395  0.0982 -0.2179
   97SAPC   C28 9554   2.662   5.102   3.750 -0.1365  0.6382 -0.2841
   97SAPC   H8R 9555   2.622   5.002   3.731 -0.2512  0.8020 -0.9648
   97SAPC   C29 9556   2.709   5.131   3.872  0.1344  0.1198 -0.4488
   97SAPC   H9R 9557   2.669   5.060   3.946  0.1702  0.9205  0.3542
   97SAPC  C210 9558   2.769   5.257   3.918 -0.2514 -0.3533 -0.4815
   97SAPC  H10R 9559   2.750   5.344   3.851  1.4336 -0.4683 -1.1670
   97SAPC  H10S 9560   2.880   5.254   3.921  0.1402  4.7413  0.1317
   97SAPC  C211 9561   2.720   5.297   4.060 -0.2347  0.0342 -0.4112
   97SAPC  H11R 9562   2.617   5.337   4.065 -0.1217  0.3445 -0.5451
   97SAPC  C212 9563   2.776   5.256   4.174 -0.4638 -0.1547 -0.2914
   97SAPC  H12R 9564   2.748   5.308   4.267  0.1542  2.2745 -1.3848
   97SAPC  C213 9565   2.911   5.198   4.180  0.5484 -0.1149 -0.3496
   97SAPC  H13R 9566   2.988   5.278   4.186 -0.3150  0.8019 -1.0932
   97SAPC  H13S 9567   2.932   5.145   4.084  2.5136 -1.2763  0.6582
   97SAPC  C214 9568   2.932   5.098   4.289  0.2586 -0.6627  0.5006
   97SAPC  H14R 9569   2.914   4.992   4.264 -0.8288 -0.4098  0.1588
   97SAPC  C215 9570   2.973   5.123   4.417 -0.1180  0.2428 -0.7856
   97SAPC  H15R 9571   2.993   5.040   4.486 -1.8044  0.5832  0.1778
   97SAPC  C216 9572   3.010   5.262   4.473 -0.5205 -0.1099  0.2178
   97SAPC  H16R 9573   3.016   5.341   4.395 -1.5108  0.6916  0.9199
   97SAPC  H16S 9574   3.113   5.261   4.516 -0.5575 -0.7767  0.2971
   97SAPC  C217 9575   2.904   5.314   4.574  0.2898 -0.0926  0.8239
   97SAPC  H17R 9576   2.802   5.281   4.544  1.0617 -0.8459 -1.1512
   97SAPC  H17S 9577   2.904   5.425   4.571  0.4936 -0.0073  2.6158
   97SAPC  C218 9578   2.918   5.286   4.726  0.5552  0.7762 -0.0548
   97SAPC  H18R 9579   3.026   5.273   4.749  0.3740 -1.4594 -0.2228
   97SAPC  H18S 9580   2.864   5.190   4.741 -0.1534  0.7570 -2.3901
   97SAPC  C219 9581   2.867   5.399   4.811 -0.8140  0.1281  0.8719
   97SAPC  H19R 9582   2.913   5.492   4.772  0.6314 -0.8079  0.2640
   97SAPC  H19S 9583   2.909   5.389   4.913 -0.4951  1.5809  0.8987
   97SAPC  C220 9584   2.724   5.386   4.831  0.0131 -1.0041 -0.2526
   97SAPC  H20R 9585   2.699   5.289   4.880  0.2791  0.8736  3.9839
   97SAPC  H20S 9586   2.668   5.401   4.736  0.9072  2.2634 -0.3875
   97SAPC  H20T 9587   2.689   5.468   4.897 -0.2561 -0.1513 -1.4160
   97SAPC   C33 9588   2.967   4.926   3.598  0.1410  0.2003  0.3087
   97SAPC   H3X 9589   2.888   4.883   3.662 -0.5044 -0.0427 -0.6306
   97SAPC   H3Y 9590   2.998   5.030   3.623 -0.0609  0.7172 -1.4101
   97SAPC   C34 9591   3.091   4.838   3.611 -0.0627 -0.2101 -0.9503
   97SAPC   H4X 9592   3.171   4.864   3.538 -0.2762 -0.5571 -1.3172
   97SAPC   H4Y 9593   3.062   4.731   3.604  1.3864 -0.6651 -0.3736
   97SAPC   C35 9594   3.155   4.850   3.751 -0.2749 -0.1835  0.6872
   97SAPC   H5X 9595   3.176   4.957   3.768 -0.8777  0.3398 -1.5835
   97SAPC   H5Y 9596   3.249   4.790   3.758  0.5806  0.5184 -2.9893
   97SAPC   C36 9597   3.059   4.810   3.865 -1.1839  0.0327 -0.1785
   97SAPC   H6X 9598   3.005   4.714   3.850 -0.8117 -0.0352 -1.1480
   97SAPC   H6Y 9599   2.986   4.894   3.870  0.8621  1.8724 -0.0702
   97SAPC   C37 9600   3.139   4.804   3.992 -0.1558  0.1464  0.4169
   97SAPC   H7X 9601   3.195   4.900   3.997  0.1989  0.0275 -0.8161
   97SAPC   H7Y 9602   3.220   4.729   3.979  0.0661  0.3893  0.3871
   97SAPC   C38 9603   3.051   4.769   4.108  0.6144  0.2963 -0.0088
   97SAPC   H8X 9604   2.985   4.685   4.076  1.8777 -0.5096 -0.5707
   97SAPC   H8Y 9605   2.993   4.859   4.138 -1.2168 -1.2670  1.5283
   97SAPC   C39 9606   3.126   4.710   4.227  0.2282  0.0624  0.7697
   97SAPC   H9X 9607   3.227   4.758   4.220 -0.0274  0.4077 -2.1949
   97SAPC   H9Y 9608   3.136   4.601   4.212 -1.2495  0.1321 -1.1863
   97SAPC  C310 9609   3.074   4.726   4.369  0.1805  0.1176  0.2482
   97SAPC  H10X 9610   2.973   4.680   4.380 -0.8081  1.5787 -1.9080
   97SAPC  H10Y 9611   3.067   4.835   4.391  1.6152 -0.0462  1.7257
   97SAPC  C311 9612   3.170   4.683   4.476  0.0636  0.6344 -0.2094
   97SAPC  H11X 9613   3.278   4.709   4.468  0.4778 -1.3257 -1.9328
   97SAPC  H11Y 9614   3.171   4.572   4.481  0.7513  0.6180 -0.6442
   97SAPC  C312 9615   3.129   4.723   4.624 -0.0467  0.2964  0.3115
   97SAPC  H12X 9616   3.026   4.687   4.642  0.2567 -0.5098  0.4866
   97SAPC  H12Y 9617   3.101   4.830   4.623 -3.1863 -0.4329 -0.2481
   97SAPC  C313 9618   3.233   4.689   4.732  0.4661  0.1358  0.7516
   97SAPC  H13X 9619   3.221   4.758   4.819  2.3521  2.0220 -0.3852
   97SAPC  H13Y 9620   3.332   4.726   4.699 -1.7287  4.6637 -1.5942
   97SAPC  C314 9621   3.234   4.540   4.770  0.5613 -0.0088 -0.1864
   97SAPC  H14X 9622   3.315   4.508   4.701  0.4545 -0.1595 -0.2425
   97SAPC  H14Y 9623   3.142   4.482   4.746  1.9488 -2.1598 -0.5084
   97SAPC  C315 9624   3.282   4.524   4.915 -0.1587  0.5036 -0.6278
   97SAPC  H15X 9625   3.209   4.589   4.969 -2.3049  0.3330 -3.1165
   97SAPC  H15Y 9626   3.380   4.574   4.929 -0.9850  1.6823  1.3285
   97SAPC  C316 9627   3.281   4.384   4.986 -0.0055 -0.8922 -0.5331
   97SAPC  H16X 9628   3.337   4.404   5.080 -0.9412 -1.3698  0.1362
   97SAPC  H16Y 9629   3.337   4.324   4.911  0.6239 -0.5055 -0.3865
   97SAPC  C317 9630   3.146   4.329   5.031 -0.6446 -0.0847 -0.3325
   97SAPC  H17X 9631   3.106   4.392   5.114 -2.0558 -1.2598 -0.0646
   97SAPC  H17Y 9632   3.145   4.233   5.088 -3.4875 -1.5695 -2.6183
   97SAPC  C318 9633   3.039   4.315   4.923 -1.0532  0.6015 -0.1047
   97SAPC  H18X 9634   2.951   4.259   4.962  0.5862 -1.4963  0.7936
   97SAPC  H18Y 9635   3.091   4.267   4.838  0.2622 -0.1337  1.0676
   97SAPC  H18Z 9636   2.992   4.412   4.898 -1.3970  0.9059  1.5635
   98SAPC     N 9637   1.147   0.780   2.162 -0.2225  0.1420 -0.0224
   98SAPC   C12 9638   1.079   0.808   2.295  0.2883 -0.0204 -0.1144
   98SAPC  H12A 9639   0.973   0.801   2.271  0.2546 -3.5536  0.4567
   98SAPC  H12B 9640   1.092   0.907   2.336 -0.3892 -0.0845  0.2853
   98SAPC   C13 9641   1.083   0.859   2.057  0.2577  0.2353  0.1913
   98SAPC  H13A 9642   0.975   0.856   2.056  0.2325  0.8328 -0.7908
   98SAPC  H13B 9643   1.106   0.962   2.081  2.0685 -0.0175 -0.3703
   98SAPC  H13C 9644   1.122   0.843   1.958 -2.0337  2.7434 -1.2896
   98SAPC   C14 9645   1.295   0.799   2.158 -0.3585 -0.7495  0.0160
   98SAPC  H14A 9646   1.347   0.775   2.250  1.8996  2.5403 -0.2466
   98SAPC  H14B 9647   1.337   0.745   2.075 -0.3160  0.8445 -1.0324
   98SAPC  H14C 9648   1.329   0.897   2.129  1.6205 -1.0324  1.1882
   98SAPC   C15 9649   1.137   0.635   2.129  0.5246  0.2001  0.1308
   98SAPC  H15A 9650   1.205   0.608   2.050 -1.8007 -0.2789 -1.8517
   98SAPC  H15B 9651   1.164   0.568   2.209  0.8297 -1.2944 -1.1717
   98SAPC  H15C 9652   1.034   0.620   2.099  0.1739  2.2686  0.1668
   98SAPC   C11 9653   1.100   0.700   2.403 -0.4106 -0.5281 -0.4370
   98SAPC  H11A 9654   1.055   0.604   2.372  1.1496 -0.9910 -1.3515
   98SAPC  H11B 9655   1.046   0.731   2.496  2.5281  1.2315  0.8372
   98SAPC     P 9656   1.308   0.791   2.533  0.4904  0.0733  0.2080
   98SAPC   O13 9657   1.419   0.721   2.605 -0.8098 -0.0050 -0.3468
   98SAPC   O14 9658   1.344   0.902   2.440  0.4878  0.2928  0.1350
   98SAPC   O12 9659   1.235   0.682   2.441 -0.4245 -0.2767  0.0154
   98SAPC   O11 9660   1.209   0.835   2.640  0.3263 -0.4474 -0.5577
   98SAPC    C1 9661   1.171   0.741   2.746  0.1442  0.1164  0.2197
   98SAPC    HA 9662   1.061   0.750   2.762  0.0107  0.9404 -1.0011
   98SAPC    HB 9663   1.204   0.639   2.718  2.7608  0.7124  0.8807
   98SAPC    C2 9664   1.239   0.757   2.889 -0.2344  0.3572  0.2823
   98SAPC    HS 9665   1.317   0.680   2.903 -1.9045 -1.6085 -0.7199
   98SAPC   O21 9666   1.141   0.731   2.994  0.5830  0.0731 -0.2935
   98SAPC   C21 9667   1.068   0.627   2.989  0.1163 -0.7478 -0.6230
   98SAPC   O22 9668   1.058   0.549   2.900 -0.5693  0.1965  0.1652
   98SAPC   C22 9669   0.982   0.622   3.118 -0.5156  0.4174 -0.2014
   98SAPC   H2R 9670   0.920   0.532   3.099 -0.1002  0.1450 -0.2801
   98SAPC   H2S 9671   1.051   0.617   3.205 -1.5904 -0.2827  0.6239
   98SAPC    C3 9672   1.305   0.902   2.909  0.0374 -0.0376 -0.0874
   98SAPC    HX 9673   1.224   0.974   2.881  1.9876  1.7051 -1.5824
   98SAPC    HY 9674   1.379   0.928   2.830 -0.4658  0.5956 -0.3654
   98SAPC   O31 9675   1.353   0.940   3.042 -0.4073  0.1897 -0.4122
   98SAPC   C31 9676   1.469   0.883   3.072  0.1842  0.3125 -0.4963
   98SAPC   O32 9677   1.521   0.800   3.004 -0.0720  0.7509  0.0970
   98SAPC   C32 9678   1.529   0.938   3.199 -0.1693 -0.3775 -0.5555
   98SAPC   H2X 9679   1.459   0.899   3.276  1.8269  1.0453  2.1518
   98SAPC   H2Y 9680   1.511   1.048   3.198  1.1721 -0.1360 -0.2311
   98SAPC   C23 9681   0.880   0.734   3.147  0.1526 -0.2816 -0.2349
   98SAPC   H3R 9682   0.815   0.758   3.060 -1.6217  0.3572  1.2149
   98SAPC   H3S 9683   0.934   0.827   3.177  0.7811 -1.2594  1.8238
   98SAPC   C24 9684   0.786   0.702   3.268 -1.5162 -0.3889 -0.2665
   98SAPC   H4R 9685   0.733   0.609   3.238  0.3747 -1.1418 -1.4723
   98SAPC   H4S 9686   0.711   0.784   3.277  0.7955  1.8728 -0.2635
   98SAPC   C25 9687   0.850   0.672   3.403 -0.2633 -0.7296  0.0759
   98SAPC   H5R 9688   0.952   0.630   3.399  0.0194 -0.1676  1.1495
   98SAPC   C26 9689   0.810   0.715   3.527 -0.0906 -0.8769  0.0782
   98SAPC   H6R 9690   0.869   0.692   3.617  0.1930  0.4853  0.2638
   98SAPC   C27 9691   0.696   0.804   3.577 -0.1266 -0.5173  1.2608
   98SAPC   H7R 9692   0.715   0.912   3.556 -1.7829  0.0242  2.3256
   98SAPC   H7S 9693   0.695   0.805   3.688  1.7967  1.2980  1.3243
   98SAPC   C28 9694   0.558   0.761   3.530 -0.0377 -0.2618 -0.1488
   98SAPC   H8R 9695   0.545   0.753   3.421 -1.3819  2.1888 -0.2504
   98SAPC   C29 9696   0.453   0.749   3.609  0.1610 -0.1381  0.2356
   98SAPC   H9R 9697   0.358   0.710   3.571  1.6429 -2.2422 -1.6179
   98SAPC  C210 9698   0.446   0.748   3.757  0.7265  0.7652 -0.0103
   98SAPC  H10R 9699   0.535   0.697   3.800 -0.4614  0.3390  2.0302
   98SAPC  H10S 9700   0.368   0.671   3.777  0.8696  0.8241  0.7869
   98SAPC  C211 9701   0.427   0.877   3.826  0.4975 -0.1321 -0.1241
   98SAPC  H11R 9702   0.446   0.968   3.767 -0.9676 -0.1131 -0.6156
   98SAPC  C212 9703   0.363   0.899   3.939 -0.2717 -0.1488 -0.5318
   98SAPC  H12R 9704   0.359   1.003   3.976  0.7707 -0.2426 -0.1027
   98SAPC  C213 9705   0.313   0.786   4.028 -0.3735  0.1555  0.2601
   98SAPC  H13R 9706   0.393   0.710   4.033  1.7002  2.2201 -0.1201
   98SAPC  H13S 9707   0.235   0.732   3.968 -0.0773 -0.1115  0.1103
   98SAPC  C214 9708   0.270   0.840   4.155  0.7397 -0.3890 -0.1539
   98SAPC  H14R 9709   0.226   0.940   4.144  1.2127 -0.3101 -1.5751
   98SAPC  C215 9710   0.294   0.784   4.273  0.3938  0.3393 -0.9614
   98SAPC  H15R 9711   0.257   0.838   4.361 -0.3317  0.3314 -1.2536
   98SAPC  C216 9712   0.353   0.647   4.282  0.3415  0.5906 -0.1712
   98SAPC  H16R 9713   0.438   0.621   4.216  0.9976 -1.8502  1.4953
   98SAPC  H16S 9714   0.273   0.574   4.258 -0.9077  1.3621  1.4149
   98SAPC  C217 9715   0.409   0.627   4.432 -0.4863 -1.0222 -0.0037
   98SAPC  H17R 9716   0.402   0.518   4.452 -0.4490 -1.0565 -0.1776
   98SAPC  H17S 9717   0.347   0.681   4.507  2.2550 -0.1099  1.7560
   98SAPC  C218 9718   0.554   0.680   4.445 -0.3191 -0.4026  0.4375
   98SAPC  H18R 9719   0.555   0.790   4.428  0.7534 -0.2538  1.3799
   98SAPC  H18S 9720   0.616   0.641   4.362 -1.4522 -1.1476 -0.0831
   98SAPC  C219 9721   0.614   0.649   4.585  0.1487 -0.1017 -0.0920
   98SAPC  H19R 9722   0.556   0.689   4.671  0.0918 -2.0210  0.8120
   98SAPC  H19S 9723   0.710   0.705   4.589  1.6411 -2.5694  1.6403
   98SAPC  C220 9724   0.644   0.496   4.595  0.6158  0.3573 -0.3229
   98SAPC  H20R 9725   0.703   0.466   4.684 -2.2092  1.3153  2.0266
   98SAPC  H20S 9726   0.708   0.471   4.507 -0.5130 -1.3126 -0.7210
   98SAPC  H20T 9727   0.551   0.437   4.587 -0.6250  2.3401 -1.5315
   98SAPC   C33 9728   1.672   0.913   3.235 -0.1903 -0.2403 -0.0686
   98SAPC   H3X 9729   1.730   0.962   3.154  0.5477 -1.0219 -0.0246
   98SAPC   H3Y 9730   1.686   0.803   3.235 -0.4863 -0.4361  3.9957
   98SAPC   C34 9731   1.732   0.975   3.373 -0.0656 -0.0776 -0.1751
   98SAPC   H4X 9732   1.743   1.086   3.376  0.4220 -0.1465  1.1897
   98SAPC   H4Y 9733   1.834   0.933   3.388  0.6070  1.0061 -1.3949
   98SAPC   C35 9734   1.650   0.931   3.492 -0.0444  0.3695  0.1507
   98SAPC   H5X 9735   1.618   0.824   3.487 -1.5665  0.7664  0.6540
   98SAPC   H5Y 9736   1.555   0.987   3.504 -0.8275 -0.6176 -1.0451
   98SAPC   C36 9737   1.726   0.960   3.622 -0.5247  0.3839 -0.5195
   98SAPC   H6X 9738   1.717   1.068   3.648  2.5124  0.4840  0.4919
   98SAPC   H6Y 9739   1.833   0.933   3.610 -0.4513 -0.3710  1.4837
   98SAPC   C37 9740   1.682   0.877   3.741  0.6364 -0.1356  0.3265
   98SAPC   H7X 9741   1.723   0.775   3.730  1.7081  0.4842 -2.0075
   98SAPC   H7Y 9742   1.571   0.865   3.732  0.5728 -0.7517  1.7388
   98SAPC   C38 9743   1.717   0.934   3.872 -0.2513  0.6325 -0.3859
   98SAPC   H8X 9744   1.645   1.013   3.901  0.2145  0.3626  1.6585
   98SAPC   H8Y 9745   1.813   0.990   3.862 -0.3850  0.5870 -2.3620
   98SAPC   C39 9746   1.720   0.831   3.987 -0.1915  0.0390 -0.0724
   98SAPC   H9X 9747   1.769   0.739   3.948 -1.1369  0.2569 -1.9162
   98SAPC   H9Y 9748   1.619   0.797   4.017  0.7264 -3.4075 -0.5057
   98SAPC  C310 9749   1.793   0.894   4.107 -0.3988  0.0310 -0.2863
   98SAPC  H10X 9750   1.730   0.980   4.139 -1.0639 -0.3639 -0.4958
   98SAPC  H10Y 9751   1.891   0.934   4.074  0.7498 -1.2467  1.4590
   98SAPC  C311 9752   1.815   0.799   4.227  0.0341  1.2087 -0.2696
   98SAPC  H11X 9753   1.867   0.706   4.196 -1.1525 -0.1941  1.6645
   98SAPC  H11Y 9754   1.719   0.755   4.263  0.4761 -2.0794 -2.6181
   98SAPC  C312 9755   1.894   0.863   4.333  0.0184  0.2424 -0.7562
   98SAPC  H12X 9756   1.828   0.943   4.374 -2.0959 -0.4780 -2.5486
   98SAPC  H12Y 9757   1.989   0.900   4.288  0.8234 -0.4986  0.3007
   98SAPC  C313 9758   1.912   0.766   4.449  0.1594 -0.1296  0.5892
   98SAPC  H13X 9759   1.936   0.663   4.416 -1.1428 -1.1656  2.6450
   98SAPC  H13Y 9760   1.812   0.758   4.498  0.3913  1.0627  1.2895
   98SAPC  C314 9761   2.008   0.827   4.551 -0.2452 -0.4638  0.1680
   98SAPC  H14X 9762   1.978   0.928   4.587  2.1061  0.7777 -1.0796
   98SAPC  H14Y 9763   2.107   0.830   4.501 -0.0839  2.2235  0.5001
   98SAPC  C315 9764   2.018   0.744   4.680 -0.2785  0.2510 -0.3782
   98SAPC  H15X 9765   1.929   0.758   4.745 -0.3670  0.1252 -0.4697
   98SAPC  H15Y 9766   2.105   0.794   4.728  0.7598  1.3687 -3.1932
   98SAPC  C316 9767   2.040   0.599   4.667  0.7549  0.0252  0.2979
   98SAPC  H16X 9768   1.949   0.554   4.621 -1.0120  1.2544  2.4023
   98SAPC  H16Y 9769   2.042   0.563   4.772 -2.0660  0.9036  0.7349
   98SAPC  C317 9770   2.167   0.564   4.582 -0.0804 -0.0155 -0.1815
   98SAPC  H17X 9771   2.149   0.606   4.481  0.6034  1.1478  0.1538
   98SAPC  H17Y 9772   2.173   0.453   4.572  0.2740 -0.6726  4.6629
   98SAPC  C318 9773   2.297   0.632   4.636 -0.7556  0.3308  0.7799
   98SAPC  H18X 9774   2.385   0.583   4.589 -1.0642 -1.5634  2.0505
   98SAPC  H18Y 9775   2.303   0.618   4.746  1.2592 -1.0404  0.5439
   98SAPC  H18Z 9776   2.297   0.740   4.610 -3.5457  0.0424 -0.8370
   99SAPC     N 9777   2.877   4.107   2.897 -0.6933  0.3229 -0.2797
   99SAPC   C12 9778   2.871   3.956   2.875  0.1336  0.4218  0.9358
   99SAPC  H12A 9779   2.873   3.945   2.768 -2.4225  1.6128  0.6894
   99SAPC  H12B 9780   2.767   3.940   2.896 -0.8690  3.2625 -1.1530
   99SAPC   C13 9781   2.852   4.138   3.039  0.9696  0.2062 -0.1101
   99SAPC  H13A 9782   2.942   4.111   3.092  0.6170 -0.6712  0.0593
   99SAPC  H13B 9783   2.840   4.245   3.046 -0.7983  0.0998 -1.0357
   99SAPC  H13C 9784   2.762   4.100   3.084  1.1108  1.0570  0.9409
   99SAPC   C14 9785   2.998   4.174   2.845 -0.2421  0.3983  0.0400
   99SAPC  H14A 9786   2.980   4.281   2.842  0.2871  0.4808 -0.1832
   99SAPC  H14B 9787   3.091   4.153   2.896  0.9796  0.2033 -2.1450
   99SAPC  H14C 9788   3.009   4.144   2.742 -2.3307 -1.3992  0.2528
   99SAPC   C15 9789   2.766   4.171   2.812 -0.3093 -0.2474 -0.4067
   99SAPC  H15A 9790   2.767   4.277   2.828  0.6103 -0.3920  0.6643
   99SAPC  H15B 9791   2.774   4.151   2.706 -1.7926  0.0472 -0.5947
   99SAPC  H15C 9792   2.671   4.129   2.842 -0.4834 -0.3124 -1.0474
   99SAPC   C11 9793   2.959   3.855   2.947 -0.2673 -0.2296 -0.2661
   99SAPC  H11A 9794   2.925   3.751   2.928  1.7241 -1.3376  1.7824
   99SAPC  H11B 9795   2.946   3.879   3.055  1.2998 -1.0501  0.1281
   99SAPC     P 9796   3.203   3.861   3.010 -0.1601 -0.2223  0.3508
   99SAPC   O13 9797   3.324   3.816   2.938 -0.5500  0.0190 -0.2025
   99SAPC   O14 9798   3.205   3.997   3.067 -0.2011 -0.6248  0.0858
   99SAPC   O12 9799   3.091   3.858   2.903 -0.5643  0.3224 -0.3778
   99SAPC   O11 9800   3.160   3.766   3.128  0.3103 -0.3836 -0.7817
   99SAPC    C1 9801   3.179   3.631   3.113 -0.0596  0.1291  0.0745
   99SAPC    HA 9802   3.265   3.598   3.051  0.5740 -0.4140  1.1963
   99SAPC    HB 9803   3.209   3.591   3.213 -2.7751 -1.2928  0.4065
   99SAPC    C2 9804   3.052   3.551   3.078 -0.0082 -0.2846 -0.6631
   99SAPC    HS 9805   3.000   3.597   2.992 -0.0048  0.8521 -0.0819
   99SAPC   O21 9806   2.966   3.536   3.196 -0.5215 -0.0562 -0.0975
   99SAPC   C21 9807   2.835   3.547   3.176  0.2537 -0.1604  0.5091
   99SAPC   O22 9808   2.787   3.593   3.071  0.6335  0.6399 -0.5060
   99SAPC   C22 9809   2.759   3.488   3.287 -0.0247  0.4124  0.6651
   99SAPC   H2R 9810   2.799   3.385   3.304  1.5110  1.1333  1.6623
   99SAPC   H2S 9811   2.787   3.538   3.382 -1.2269  0.1238  1.1877
   99SAPC    C3 9812   3.090   3.408   3.020 -0.0694 -0.3161  0.1364
   99SAPC    HX 9813   3.158   3.429   2.935  0.3697  1.9878  0.9712
   99SAPC    HY 9814   2.995   3.364   2.983 -1.5851  3.6491 -1.2075
   99SAPC   O31 9815   3.158   3.330   3.125 -0.0415  0.1269  0.1670
   99SAPC   C31 9816   3.081   3.254   3.193  1.3109  0.0601  0.0003
   99SAPC   O32 9817   2.959   3.239   3.171 -0.4579  0.2551 -0.2595
   99SAPC   C32 9818   3.163   3.165   3.286 -0.2587  0.1665 -0.4969
   99SAPC   H2X 9819   3.224   3.233   3.348 -0.5402  0.1073 -0.1520
   99SAPC   H2Y 9820   3.228   3.104   3.220  1.7599  0.9690  0.6870
   99SAPC   C23 9821   2.609   3.499   3.259 -1.0303 -0.5629  0.4089
   99SAPC   H3R 9822   2.584   3.452   3.161  1.0906 -0.4379 -0.2445
   99SAPC   H3S 9823   2.579   3.605   3.243 -0.2002  0.0989  2.8402
   99SAPC   C24 9824   2.547   3.456   3.391  0.7129  0.1722  0.5081
   99SAPC   H4R 9825   2.452   3.513   3.403  0.0999 -0.8631  0.6953
   99SAPC   H4S 9826   2.610   3.483   3.478  0.0109 -1.7733  1.6888
   99SAPC   C25 9827   2.526   3.307   3.389  0.7123  0.1672  0.3525
   99SAPC   H5R 9828   2.492   3.263   3.294 -2.5462 -3.2375  2.8135
   99SAPC   C26 9829   2.528   3.221   3.491 -0.1225 -0.3040 -0.1637
   99SAPC   H6R 9830   2.487   3.121   3.472 -1.0925 -0.2253  1.3208
   99SAPC   C27 9831   2.572   3.251   3.633 -0.2252 -0.4345 -0.4780
   99SAPC   H7R 9832   2.628   3.347   3.637 -0.3289 -0.4094  1.4437
   99SAPC   H7S 9833   2.631   3.166   3.671  2.8165  1.3652 -0.8369
   99SAPC   C28 9834   2.459   3.281   3.722  0.7637 -0.3571 -0.7993
   99SAPC   H8R 9835   2.369   3.304   3.663 -0.3199  0.9450  1.2631
   99SAPC   C29 9836   2.439   3.279   3.856  0.0851 -0.1422 -0.6142
   99SAPC   H9R 9837   2.344   3.312   3.900  1.0200  0.6332  0.9105
   99SAPC  C210 9838   2.542   3.223   3.952 -0.3019  0.1848 -0.3166
   99SAPC  H10R 9839   2.597   3.303   4.007  1.7777 -1.1340 -0.3712
   99SAPC  H10S 9840   2.622   3.167   3.900  0.2293  1.7896 -1.3065
   99SAPC  C211 9841   2.468   3.132   4.047 -0.1090  0.0561  0.0854
   99SAPC  H11R 9842   2.412   3.049   4.003 -0.4608 -2.5189  4.7390
   99SAPC  C212 9843   2.439   3.146   4.178  0.2128 -0.3857  0.4376
   99SAPC  H12R 9844   2.384   3.062   4.222  0.6039 -0.2679  1.1708
   99SAPC  C213 9845   2.476   3.265   4.265  0.2639  0.2581  0.2889
   99SAPC  H13R 9846   2.388   3.331   4.255  0.0169 -0.1298 -0.0928
   99SAPC  H13S 9847   2.564   3.315   4.220 -0.3766  0.2989 -0.9538
   99SAPC  C214 9848   2.493   3.236   4.408  0.5718  0.1214 -0.7102
   99SAPC  H14R 9849   2.512   3.133   4.440 -0.7061  0.6188  1.9402
   99SAPC  C215 9850   2.495   3.319   4.511  0.4640 -0.8233  0.1475
   99SAPC  H15R 9851   2.503   3.283   4.615  0.1331  3.7301  1.9972
   99SAPC  C216 9852   2.471   3.468   4.497  0.1826 -0.5613  0.2826
   99SAPC  H16R 9853   2.418   3.500   4.590 -0.1367  0.9248 -0.3830
   99SAPC  H16S 9854   2.393   3.477   4.419  1.0179 -0.9356 -0.6114
   99SAPC  C217 9855   2.594   3.546   4.458 -0.1191  0.4724 -0.4041
   99SAPC  H17R 9856   2.567   3.653   4.447  0.2243  0.7495  1.1165
   99SAPC  H17S 9857   2.619   3.509   4.356 -0.2759 -3.7044  0.8796
   99SAPC  C218 9858   2.704   3.533   4.564  0.0716  0.3745 -0.4482
   99SAPC  H18R 9859   2.721   3.425   4.584 -0.9751  0.2966  0.0636
   99SAPC  H18S 9860   2.667   3.583   4.656 -0.9938 -0.4642 -0.4041
   99SAPC  C219 9861   2.835   3.585   4.514  0.3278 -0.9905  0.0261
   99SAPC  H19R 9862   2.809   3.670   4.447 -0.6511  0.0018  1.5954
   99SAPC  H19S 9863   2.864   3.519   4.430 -0.5790  0.0195 -1.1216
   99SAPC  C220 9864   2.937   3.611   4.618  0.1599 -0.3550  0.8853
   99SAPC  H20R 9865   2.970   3.515   4.663 -1.9339 -2.2826 -1.4227
   99SAPC  H20S 9866   2.902   3.686   4.692  3.3107  2.6050 -0.3287
   99SAPC  H20T 9867   3.031   3.650   4.571 -1.0197 -1.2143 -2.4840
   99SAPC   C33 9868   3.077   3.082   3.384 -1.0040 -0.4117 -0.3503
   99SAPC   H3X 9869   3.160   3.029   3.435  0.4579  2.4479  0.4065
   99SAPC   H3Y 9870   3.013   3.003   3.339 -1.4885  0.2682 -0.8701
   99SAPC   C34 9871   3.013   3.170   3.496  0.1608  0.0567  0.5715
   99SAPC   H4X 9872   2.921   3.222   3.462 -0.5530 -0.1022  2.1513
   99SAPC   H4Y 9873   3.087   3.251   3.515 -1.9000  2.6192 -1.5543
   99SAPC   C35 9874   2.972   3.087   3.621  0.1095 -0.5129  0.8253
   99SAPC   H5X 9875   3.065   3.037   3.656 -0.0650 -1.6427 -0.2493
   99SAPC   H5Y 9876   2.901   3.006   3.591 -2.2836  1.6906  0.1610
   99SAPC   C36 9877   2.914   3.165   3.744  0.0785 -0.2246 -0.0368
   99SAPC   H6X 9878   2.871   3.086   3.810  1.0897  0.2116  1.1835
   99SAPC   H6Y 9879   2.835   3.238   3.719 -0.4914  0.7195  3.8598
   99SAPC   C37 9880   3.022   3.235   3.829  0.7422  0.0102 -0.4744
   99SAPC   H7X 9881   3.095   3.284   3.761  1.0935  0.8278  0.4754
   99SAPC   H7Y 9882   3.079   3.153   3.878  2.1537  1.9573  1.3218
   99SAPC   C38 9883   2.971   3.337   3.935 -0.4186  0.3327  0.6312
   99SAPC   H8X 9884   2.886   3.390   3.886  0.4701  2.6141  1.4223
   99SAPC   H8Y 9885   3.037   3.418   3.974 -1.8398  2.0180 -0.2904
   99SAPC   C39 9886   2.902   3.260   4.052  0.6832  0.3040  0.2125
   99SAPC   H9X 9887   2.853   3.172   4.006  1.2809  0.8269 -1.4986
   99SAPC   H9Y 9888   2.820   3.323   4.092 -0.6819 -1.3303  0.0975
   99SAPC  C310 9889   3.003   3.219   4.164 -0.4683  0.1253  0.0617
   99SAPC  H10X 9890   3.069   3.308   4.172 -0.5602  0.3464 -1.4829
   99SAPC  H10Y 9891   3.059   3.126   4.142  1.5234  1.3636 -0.3721
   99SAPC  C311 9892   2.928   3.188   4.289 -0.0300 -0.5923 -0.8380
   99SAPC  H11X 9893   2.852   3.113   4.259 -3.2936  2.2766 -0.4322
   99SAPC  H11Y 9894   2.868   3.273   4.327  0.6684  1.0571 -3.2274
   99SAPC  C312 9895   3.018   3.125   4.396 -0.1876 -0.1625  0.5184
   99SAPC  H12X 9896   3.112   3.184   4.404 -0.9997  1.3983 -0.8790
   99SAPC  H12Y 9897   3.050   3.022   4.372  1.7115  0.3738  0.6409
   99SAPC  C313 9898   2.959   3.132   4.537 -0.5371 -0.2831 -0.1806
   99SAPC  H13X 9899   2.967   3.231   4.586 -0.5529 -0.4351  0.1304
   99SAPC  H13Y 9900   3.028   3.063   4.590 -1.3846 -1.0736 -0.0675
   99SAPC  C314 9901   2.816   3.080   4.553 -0.0734 -0.3424 -0.2382
   99SAPC  H14X 9902   2.812   2.977   4.511  2.8607 -1.1166  1.1216
   99SAPC  H14Y 9903   2.749   3.154   4.504  2.8480  1.0583 -2.4090
   99SAPC  C315 9904   2.786   3.045   4.698 -0.1482 -0.0936 -0.3161
   99SAPC  H15X 9905   2.794   3.132   4.767  3.4088 -1.2884  1.0251
   99SAPC  H15Y 9906   2.853   2.964   4.733  0.2189  0.1293 -0.5049
   99SAPC  C316 9907   2.641   2.985   4.722  0.1363 -0.2114  0.6123
   99SAPC  H16X 9908   2.629   2.905   4.645  1.6800  0.5590 -0.4913
   99SAPC  H16Y 9909   2.574   3.070   4.699  0.7467  0.3298  0.7997
   99SAPC  C317 9910   2.628   2.948   4.871  0.3203  0.5540  0.2436
   99SAPC  H17X 9911   2.620   3.042   4.929 -0.0798  0.7664 -0.1434
   99SAPC  H17Y 9912   2.717   2.890   4.902  1.1109  1.6668  0.0869
   99SAPC  C318 9913   2.513   2.853   4.907 -0.6671 -0.6180  0.4327
   99SAPC  H18X 9914   2.518   2.763   4.842 -1.4078  0.2441 -0.8428
   99SAPC  H18Y 9915   2.418   2.904   4.881 -1.4075 -1.2071  1.8672
   99SAPC  H18Z 9916   2.510   2.825   5.015 -3.0307  1.4942  1.0053
  100SAPC     N 9917   2.530   2.036   2.587  0.0023 -0.5658 -0.3342
  100SAPC   C12 9918   2.396   2.088   2.652  0.4180  0.4462  0.0691
  100SAPC  H12A 9919   2.423   2.164   2.724  1.0717 -0.2087  0.5316
  100SAPC  H12B 9920   2.345   2.005   2.698 -0.8125  0.7639 -0.6565
  100SAPC   C13 9921   2.619   1.992   2.704 -0.3079 -0.0482  0.2559
  100SAPC  H13A 9922   2.659   2.075   2.760 -0.8157  0.9213 -0.7685
  100SAPC  H13B 9923   2.561   1.930   2.771 -1.6712  2.0544  1.1112
  100SAPC  H13C 9924   2.701   1.932   2.667 -1.0880 -1.2044  0.3325
  100SAPC   C14 9925   2.502   1.924   2.498 -0.2071  0.5544 -0.6944
  100SAPC  H14A 9926   2.428   1.936   2.421 -0.5327 -2.7568 -1.0607
  100SAPC  H14B 9927   2.588   1.875   2.453 -0.1141  1.4526 -1.5168
  100SAPC  H14C 9928   2.460   1.857   2.572 -0.1198  3.2005  1.9418
  100SAPC   C15 9929   2.598   2.142   2.509 -0.2866 -0.4267 -0.7371
  100SAPC  H15A 9930   2.524   2.189   2.448 -1.4955 -2.2815 -0.7876
  100SAPC  H15B 9931   2.637   2.215   2.578 -2.0484 -0.5698  0.4781
  100SAPC  H15C 9932   2.687   2.107   2.458  2.5023  3.8450  0.6427
  100SAPC   C11 9933   2.293   2.151   2.548  0.0280 -0.5413  0.3672
  100SAPC  H11A 9934   2.196   2.158   2.601  0.2736 -1.8821  1.0488
  100SAPC  H11B 9935   2.302   2.084   2.460  0.6337  1.1759 -0.9140
  100SAPC     P 9936   2.365   2.401   2.594  0.0354 -0.1293  0.2505
  100SAPC   O13 9937   2.487   2.463   2.538 -0.2685 -0.4599  0.0336
  100SAPC   O14 9938   2.251   2.493   2.595 -0.2602 -0.3827 -0.0252
  100SAPC   O12 9939   2.335   2.279   2.505 -0.4921  0.4707 -0.2004
  100SAPC   O11 9940   2.387   2.365   2.741 -0.5584  1.0510 -0.2436
  100SAPC    C1 9941   2.289   2.329   2.832 -0.1366  0.2716 -0.1937
  100SAPC    HA 9942   2.196   2.290   2.785  0.6580 -2.9287  0.6450
  100SAPC    HB 9943   2.329   2.243   2.890  3.1005  2.6113  1.3775
  100SAPC    C2 9944   2.257   2.442   2.933  0.1599 -0.1484 -0.1729
  100SAPC    HS 9945   2.239   2.534   2.874  3.0152  0.0955 -0.7769
  100SAPC   O21 9946   2.359   2.462   3.031 -0.6357 -0.5365 -0.0742
  100SAPC   C21 9947   2.346   2.582   3.086 -0.5701 -0.1301  0.4319
  100SAPC   O22 9948   2.270   2.671   3.050  0.4808  0.3846  0.0384
  100SAPC   C22 9949   2.433   2.585   3.211  0.2209 -0.0913 -0.1148
  100SAPC   H2R 9950   2.396   2.497   3.268 -0.5667  0.1215 -0.2908
  100SAPC   H2S 9951   2.541   2.569   3.187  0.4698  0.9216  0.2728
  100SAPC    C3 9952   2.118   2.408   2.998  0.0556  0.5924  0.5463
  100SAPC    HX 9953   2.053   2.407   2.908 -0.8701 -0.5561  1.2031
  100SAPC    HY 9954   2.081   2.494   3.057  0.1468  2.5952 -2.1456
  100SAPC   O31 9955   2.119   2.276   3.054  0.1972 -0.1153 -0.2843
  100SAPC   C31 9956   2.164   2.268   3.186 -0.0393  0.0908  1.1128
  100SAPC   O32 9957   2.188   2.360   3.259 -0.4945  0.4808  0.2063
  100SAPC   C32 9958   2.144   2.122   3.236  0.6775  0.2241 -0.3505
  100SAPC   H2X 9959   2.203   2.049   3.176  0.8093 -0.9198  1.1252
  100SAPC   H2Y 9960   2.039   2.086   3.222  0.7630 -0.4755  0.7051
  100SAPC   C23 9961   2.412   2.709   3.295  0.6935 -0.0254 -0.2396
  100SAPC   H3R 9962   2.405   2.802   3.235 -0.7923 -1.1235 -1.8651
  100SAPC   H3S 9963   2.508   2.717   3.351  1.8836 -1.3901 -2.0059
  100SAPC   C24 9964   2.289   2.704   3.382 -0.2126  0.3407  0.7176
  100SAPC   H4R 9965   2.196   2.679   3.326  0.6406 -2.5144  0.3871
  100SAPC   H4S 9966   2.283   2.810   3.414  0.6197  0.6048  0.0459
  100SAPC   C25 9967   2.302   2.608   3.501  0.2446 -0.2331 -0.1781
  100SAPC   H5R 9968   2.408   2.584   3.520 -0.4254 -2.5359  1.1371
  100SAPC   C26 9969   2.195   2.565   3.580  0.3056  0.4941 -0.4763
  100SAPC   H6R 9970   2.220   2.495   3.661  1.0978 -0.3923 -1.4544
  100SAPC   C27 9971   2.050   2.607   3.573 -0.2750 -0.7106 -0.2940
  100SAPC   H7R 9972   1.981   2.521   3.560 -1.5521  0.2928 -0.3514
  100SAPC   H7S 9973   2.031   2.666   3.481 -1.6455 -1.6374 -0.6367
  100SAPC   C28 9974   2.019   2.680   3.699 -0.0284  0.5992 -0.1477
  100SAPC   H8R 9975   2.019   2.789   3.686 -2.7754  0.5856 -0.8099
  100SAPC   C29 9976   1.985   2.612   3.813 -0.1208  0.6850  0.3511
  100SAPC   H9R 9977   1.946   2.676   3.894 -0.9600  2.6374 -1.4971
  100SAPC  C210 9978   1.968   2.464   3.827  0.2455 -0.1478 -0.4911
  100SAPC  H10R 9979   2.011   2.401   3.746 -2.0597 -1.4293 -0.7885
  100SAPC  H10S 9980   1.859   2.447   3.817  0.1516  1.1257 -1.8464
  100SAPC  C211 9981   2.019   2.428   3.972  0.0222 -0.1214  0.5263
  100SAPC  H11R 9982   2.127   2.422   3.993  0.4512 -1.2130 -1.6952
  100SAPC  C212 9983   1.950   2.419   4.090 -0.0549  0.2598 -0.1241
  100SAPC  H12R 9984   2.003   2.403   4.184 -0.2238  1.5945  0.2225
  100SAPC  C213 9985   1.802   2.427   4.102  0.3918  0.3594 -0.2610
  100SAPC  H13R 9986   1.757   2.397   4.005 -1.1814  0.8609  0.2793
  100SAPC  H13S 9987   1.769   2.533   4.100  2.0494  0.9408  1.0915
  100SAPC  C214 9988   1.740   2.352   4.215 -0.5712 -0.2827 -0.3924
  100SAPC  H14R 9989   1.662   2.276   4.201 -0.9255  0.0205 -0.1199
  100SAPC  C215 9990   1.751   2.396   4.347 -0.2212  0.4755 -0.4785
  100SAPC  H15R 9991   1.692   2.346   4.425 -0.2445  0.8745 -0.2401
  100SAPC  C216 9992   1.842   2.509   4.393  0.1357  0.4592 -0.2893
  100SAPC  H16R 9993   1.867   2.581   4.312  5.0164 -0.0064  0.5197
  100SAPC  H16S 9994   1.937   2.464   4.428 -0.5799  0.4174  1.7035
  100SAPC  C217 9995   1.786   2.578   4.518  0.0720  0.0731 -0.0112
  100SAPC  H17R 9996   1.693   2.628   4.485  1.0519 -0.6597 -4.5085
  100SAPC  H17S 9997   1.861   2.656   4.541  0.3058 -0.1885  0.1253
  100SAPC  C218 9998   1.776   2.485   4.644  0.3434  0.0581 -0.3691
  100SAPC  H18R 9999   1.863   2.416   4.641  0.4755  0.2121 -0.0906
  100SAPC  H18S10000   1.683   2.424   4.642  0.4446 -0.2242  1.7930
  100SAPC  C21910001   1.766   2.558   4.782  0.3531 -0.5111 -0.9828
  100SAPC  H19R10002   1.865   2.599   4.813  0.4275 -0.1796 -1.6499
  100SAPC  H19S10003   1.736   2.488   4.863 -0.9524 -0.2949 -1.2561
  100SAPC  C22010004   1.661   2.664   4.788  0.0119  0.7643  0.5408
  100SAPC  H20R10005   1.646   2.698   4.893  0.4118 -1.4518  1.3805
  100SAPC  H20S10006   1.559   2.621   4.779 -0.5236  1.7494  1.7166
  100SAPC  H20T10007   1.681   2.745   4.716  3.3362 -0.4445 -0.0915
  100SAPC   C3310008   2.180   2.100   3.389 -0.5190  0.5813 -0.4514
  100SAPC   H3X10009   2.126   2.009   3.421  1.2352 -0.0385  0.9508
  100SAPC   H3Y10010   2.141   2.187   3.445  0.0415  1.9454 -2.0692
  100SAPC   C3410011   2.328   2.086   3.418 -1.0576  0.4050  0.0420
  100SAPC   H4X10012   2.375   2.186   3.403 -2.3587  1.3631  1.8088
  100SAPC   H4Y10013   2.389   2.026   3.348 -0.0616  0.1957  1.0593
  100SAPC   C3510014   2.366   2.029   3.553  0.0294  0.9193  0.0578
  100SAPC   H5X10015   2.475   2.017   3.540  0.0837  1.2445  0.2259
  100SAPC   H5Y10016   2.318   1.928   3.559  1.3598  0.3203  1.0950
  100SAPC   C3610017   2.348   2.128   3.661  0.1145  0.5734 -0.3115
  100SAPC   H6X10018   2.242   2.159   3.654 -0.8591 -2.6876 -1.9929
  100SAPC   H6Y10019   2.417   2.215   3.654 -1.2556  1.9209  1.9231
  100SAPC   C3710020   2.363   2.059   3.800 -0.4861 -0.0056  0.5172
  100SAPC   H7X10021   2.462   2.012   3.821  0.2306  0.6886 -1.1463
  100SAPC   H7Y10022   2.290   1.975   3.802 -2.3316  1.5569  1.4373
  100SAPC   C3810023   2.312   2.147   3.908 -0.1045  0.1076  0.1275
  100SAPC   H8X10024   2.211   2.187   3.883  0.8862  1.6482 -1.6540
  100SAPC   H8Y10025   2.379   2.233   3.929 -0.8747  0.9292 -0.6610
  100SAPC   C3910026   2.293   2.066   4.031 -1.0420 -0.4921 -0.6121
  100SAPC   H9X10027   2.394   2.039   4.067 -1.0471 -0.0293 -0.2405
  100SAPC   H9Y10028   2.244   1.968   4.015 -0.8542 -0.8092  0.5946
  100SAPC  C31010029   2.225   2.144   4.145  0.1063  0.5249  0.1405
  100SAPC  H10X10030   2.128   2.180   4.106  0.3587  0.4043 -0.6131
  100SAPC  H10Y10031   2.289   2.229   4.179 -0.4701  0.9621  0.1402
  100SAPC  C31110032   2.198   2.064   4.275  0.3814  0.1493 -0.1628
  100SAPC  H11X10033   2.287   2.040   4.336  0.4007 -4.4401 -1.6269
  100SAPC  H11Y10034   2.142   1.973   4.245 -1.3051  1.2705 -0.5288
  100SAPC  C31210035   2.106   2.148   4.365 -0.4366 -0.1262  0.3947
  100SAPC  H12X10036   2.018   2.171   4.301 -0.3768  0.7516  0.6240
  100SAPC  H12Y10037   2.150   2.244   4.399 -1.1940 -0.1793  1.5789
  100SAPC  C31310038   2.072   2.080   4.494  0.8416 -0.2348 -0.1406
  100SAPC  H13X10039   2.159   2.029   4.542  3.0086  0.3969 -3.0975
  100SAPC  H13Y10040   1.999   1.999   4.476 -0.4815  0.8584  0.1592
  100SAPC  C31410041   2.015   2.181   4.601  0.7073  0.0886  0.6582
  100SAPC  H14X10042   1.906   2.168   4.581  0.9268 -0.7604 -0.0160
  100SAPC  H14Y10043   2.041   2.287   4.581 -0.6062 -0.0851 -2.6285
  100SAPC  C31510044   2.044   2.130   4.744 -0.1264 -0.2458 -0.6508
  100SAPC  H15X10045   2.153   2.133   4.765 -0.1290  0.1610 -0.6899
  100SAPC  H15Y10046   2.000   2.028   4.751 -2.2360  0.7405  3.4375
  100SAPC  C31610047   1.979   2.209   4.859  0.1936  0.1171 -0.0012
  100SAPC  H16X10048   1.869   2.202   4.848  0.3299 -1.5399 -0.6510
  100SAPC  H16Y10049   2.003   2.317   4.855  1.6630 -0.2125 -1.0045
  100SAPC  C31710050   2.007   2.161   5.003  0.4406  0.5810 -0.2520
  100SAPC  H17X10051   2.114   2.179   5.029  0.7052 -1.9000  0.6754
  100SAPC  H17Y10052   1.989   2.052   4.999  0.4865  0.5916 -0.8763
  100SAPC  C31810053   1.916   2.210   5.123  0.2560  0.6512 -0.6157
  100SAPC  H18X10054   1.809   2.203   5.096  0.2144 -1.5167 -0.0559
  100SAPC  H18Y10055   1.935   2.316   5.149 -1.3143  0.8295 -0.1392
  100SAPC  H18Z10056   1.925   2.147   5.214 -1.5355  0.3017 -0.6548
  101OSM      N10057   5.304   5.101   7.256  0.5207  0.3408 -0.4199
  101OSM    C1510058   5.180   5.105   7.336  0.9101 -0.4527 -0.3735
  101OSM   H15A10059   5.088   5.103   7.279  0.3845  0.2332  0.4282
  101OSM   H15B10060   5.174   5.191   7.401  0.3283  0.2886 -1.3695
  101OSM   H15C10061   5.174   5.022   7.405  0.6166  1.2920  1.8299
  101OSM    C1410062   5.273   5.159   7.118  0.0270  0.5096  0.1137
  101OSM   H14A10063   5.356   5.141   7.051 -1.7442 -1.7256 -1.6891
  101OSM   H14B10064   5.247   5.264   7.118  0.5805  0.6481  0.1205
  101OSM   H14C10065   5.189   5.100   7.084  0.2257 -1.1116  2.2148
  101OSM    C1310066   5.408   5.175   7.329  0.1179 -1.1144 -0.3821
  101OSM   H13A10067   5.431   5.141   7.429  0.0280  1.0829  0.4434
  101OSM   H13B10068   5.375   5.277   7.345  2.1982 -0.6280  1.1848
  101OSM   H13C10069   5.492   5.189   7.263 -0.2235  0.9956 -0.4472
  101OSM    C1210070   5.350   4.956   7.235 -0.2445  0.1090  0.4739
  101OSM   H12A10071   5.446   4.971   7.187 -0.3802 -0.2373  0.0929
  101OSM   H12B10072   5.279   4.906   7.172  1.9521 -1.0897 -1.2171
  101OSM    C1110073   5.352   4.869   7.362 -0.6876 -0.7624  0.4648
  101OSM   H11A10074   5.401   4.925   7.445  0.2224  0.8050 -1.0499
  101OSM   H11B10075   5.432   4.796   7.338  1.5848  1.3712  1.0368
  101OSM      P10076   5.176   4.677   7.370  0.0279 -0.0705 -0.0641
  101OSM    O1310077   5.257   4.571   7.439  0.1258 -0.0617  0.1343
  101OSM    O1410078   5.034   4.676   7.391  0.3151 -0.1751 -0.0031
  101OSM    O1110079   5.205   4.667   7.210 -0.4584  0.0499  0.3675
  101OSM    O1210080   5.232   4.823   7.414  0.4685  0.0223 -0.2794
  101OSM    C1S10081   5.091   4.687   7.125 -0.1276 -0.3622 -0.9655
  101OSM    H1S10082   5.034   4.774   7.161  1.7797 -0.0410  1.5809
  101OSM    H1T10083   5.030   4.595   7.136  1.2021 -1.0747  0.9961
  101OSM     NF10084   5.025   4.776   6.889  0.1103  0.6843 -0.5641
  101OSM    HNF10085   4.978   4.720   6.821  1.4919  3.0813 -3.7818
  101OSM    C2S10086   5.130   4.721   6.975 -0.3752  0.3918 -1.0278
  101OSM    H2S10087   5.208   4.798   6.995  1.6415 -2.1985  2.0658
  101OSM    C3S10088   5.201   4.596   6.924  0.1276  0.0548 -0.6605
  101OSM    H3S10089   5.133   4.508   6.924 -0.7034  0.6804 -0.1676
  101OSM     O310090   5.299   4.537   7.014 -0.1968  0.7059  0.2689
  101OSM    HO310091   5.279   4.587   7.093 -0.5911  1.4598 -0.2888
  101OSM    C4S10092   5.253   4.610   6.781 -0.3292  0.1841 -0.0181
  101OSM    H4S10093   5.174   4.587   6.709 -1.0854  0.4358  0.7152
  101OSM    C5S10094   5.376   4.630   6.744  0.2299 -0.1643  0.2321
  101OSM    H5S10095   5.456   4.632   6.819 -0.9642  3.2781  1.6101
  101OSM    C6S10096   5.419   4.643   6.599  0.5806  0.9005 -0.3326
  101OSM    H6S10097   5.520   4.597   6.602  0.8714  1.5430  1.2861
  101OSM    H6T10098   5.429   4.751   6.574 -0.1689  0.4984 -2.6140
  101OSM    C7S10099   5.336   4.578   6.477  0.1740  0.1034 -0.1882
  101OSM    H7S10100   5.238   4.623   6.450  0.6400 -0.2279 -2.7023
  101OSM    H7T10101   5.321   4.469   6.495 -0.4001 -0.0461 -1.4946
  101OSM    C8S10102   5.419   4.594   6.352  0.5156 -0.0400  0.4361
  101OSM    H8S10103   5.509   4.530   6.360 -0.3328 -1.2814  0.2950
  101OSM    H8T10104   5.464   4.695   6.342  0.9779 -0.2160  0.7363
  101OSM    C9S10105   5.345   4.567   6.220 -0.1755 -0.2504 -0.6115
  101OSM    H9S10106   5.250   4.622   6.202  1.5128  2.2917 -2.3804
  101OSM    H9T10107   5.328   4.457   6.217 -1.7511 -0.1426  1.5211
  101OSM   C10S10108   5.442   4.590   6.097  0.2376  0.5955  0.6508
  101OSM   H10S10109   5.546   4.552   6.110  1.1787  2.1929 -1.5971
  101OSM   H10T10110   5.453   4.698   6.073 -1.2707  0.4931 -0.6471
  101OSM   C11S10111   5.388   4.540   5.963  0.2736  0.1809 -0.1857
  101OSM   H11S10112   5.369   4.430   5.961 -2.5299  0.5892 -2.2616
  101OSM   H11T10113   5.472   4.547   5.890 -0.3474 -1.7872 -1.1536
  101OSM   C12S10114   5.263   4.612   5.913 -0.9088  0.2274  0.0369
  101OSM   H12S10115   5.265   4.719   5.943 -0.9790  0.4210 -0.6498
  101OSM   H12T10116   5.187   4.570   5.983 -1.0810 -0.6025 -0.6456
  101OSM   C13S10117   5.232   4.597   5.768  0.2732 -0.7029  0.0235
  101OSM   H13S10118   5.122   4.596   5.752  0.3513 -0.6105 -0.5511
  101OSM   H13T10119   5.273   4.500   5.734  2.1028  0.0730 -0.0691
  101OSM   C14S10120   5.288   4.715   5.686 -1.2649  0.2570 -0.1096
  101OSM   H14S10121   5.395   4.696   5.665 -0.6143  0.2174  2.8338
  101OSM   H14T10122   5.289   4.808   5.747  0.0163  1.4516 -1.8370
  101OSM   C15S10123   5.211   4.748   5.557  0.0316 -0.1590  0.1990
  101OSM   H15S10124   5.275   4.826   5.510 -1.0955  1.4342  1.2067
  101OSM   H15T10125   5.118   4.807   5.566 -0.4734 -0.5559 -1.8718
  101OSM   C16S10126   5.191   4.624   5.460  0.2496  1.1583 -0.0470
  101OSM   H16S10127   5.104   4.564   5.494  0.5556 -0.4320 -1.9009
  101OSM   H16T10128   5.268   4.545   5.468 -0.7476  0.2271  0.8012
  101OSM   C17S10129   5.171   4.655   5.311  0.1429 -0.0879 -0.3600
  101OSM   H17S10130   5.163   4.559   5.255 -2.0360 -0.0386 -0.1980
  101OSM   H17T10131   5.259   4.711   5.273  1.3300  0.1233  2.4646
  101OSM   C18S10132   5.040   4.736   5.295  0.4055 -0.0878  0.3921
  101OSM   H18S10133   5.056   4.846   5.288 -2.8599  0.4520 -0.5825
  101OSM   H18T10134   4.970   4.714   5.378  0.1253  1.0400  0.4691
  101OSM   H18U10135   4.989   4.719   5.197 -0.1112  0.4794  0.5538
  101OSM    C1F10136   4.980   4.900   6.918 -0.8990 -0.9298  0.4353
  101OSM     OF10137   5.030   4.965   7.009  0.2061 -0.5763  0.1610
  101OSM    C2F10138   4.860   4.950   6.847  0.2033 -0.0035  0.1977
  101OSM    H2F10139   4.782   4.968   6.923  0.6052 -2.2917  1.2650
  101OSM    H2G10140   4.811   4.873   6.784 -2.4609  0.6120  1.4084
  101OSM    C3F10141   4.885   5.073   6.749  0.0048  0.7309  0.4214
  101OSM    H3F10142   4.961   5.041   6.675 -0.7533  0.4602 -0.2596
  101OSM    H3G10143   4.919   5.161   6.807  0.1778  2.3757 -2.0132
  101OSM    C4F10144   4.767   5.136   6.673 -0.3027 -0.6561  0.5021
  101OSM    H4F10145   4.695   5.189   6.739 -0.6897  0.1082 -0.5192
  101OSM    H4G10146   4.711   5.055   6.622 -1.4245  1.2616 -1.4256
  101OSM    C5F10147   4.813   5.243   6.563 -0.1485 -0.0655 -0.0514
  101OSM    H5F10148   4.895   5.206   6.497 -0.4819  0.6451 -0.8785
  101OSM    H5G10149   4.843   5.324   6.632 -1.1226 -2.2078  3.1228
  101OSM    C6F10150   4.699   5.289   6.461  0.2448  0.5197 -0.3001
  101OSM    H6F10151   4.667   5.210   6.391  0.3008  0.1035  0.1364
  101OSM    H6G10152   4.738   5.374   6.400 -1.0198  0.2401 -1.5427
  101OSM    C7F10153   4.575   5.348   6.535 -0.1641 -0.2423  0.4312
  101OSM    H7F10154   4.593   5.445   6.585  0.2242  0.6116 -1.2796
  101OSM    H7G10155   4.545   5.272   6.610  1.4210 -2.3840 -0.9824
  101OSM    C8F10156   4.452   5.378   6.444 -0.0572  0.1666  0.7083
  101OSM    H8F10157   4.488   5.451   6.369 -0.6013 -0.2128  0.0549
  101OSM    H8G10158   4.371   5.425   6.504 -1.4541  1.0771 -1.7263
  101OSM    C9F10159   4.392   5.254   6.386 -0.1371  0.8301  0.2233
  101OSM    H9F10160   4.351   5.180   6.456  2.8979 -1.2959 -0.0620
  101OSM   C10F10161   4.378   5.221   6.249  0.3018  0.0533 -0.8358
  101OSM   H10F10162   4.315   5.135   6.220 -2.0700  0.8021  1.6826
  101OSM   C11F10163   4.426   5.291   6.131  0.4487 -0.0054  0.3111
  101OSM   H11F10164   4.537   5.295   6.130  0.5457 -0.0238 -3.7163
  101OSM   H11G10165   4.386   5.394   6.137  0.2509 -0.1649  2.4205
  101OSM   C12F10166   4.370   5.230   6.007  0.5662 -0.5430  0.1688
  101OSM   H12F10167   4.259   5.223   6.006  0.5912 -1.0261  0.3999
  101OSM   H12G10168   4.409   5.127   5.989  0.5325 -0.7743  1.3198
  101OSM   C13F10169   4.424   5.310   5.886  1.0842  0.3619  0.2303
  101OSM   H13F10170   4.535   5.305   5.883  1.1972  2.5212 -1.1463
  101OSM   H13G10171   4.393   5.417   5.886  2.0270  0.7045 -1.9640
  101OSM   C14F10172   4.364   5.250   5.755  0.1852  0.4590 -0.3581
  101OSM   H14F10173   4.253   5.256   5.756  0.2120  1.8283 -1.8053
  101OSM   H14G10174   4.404   5.146   5.752 -2.2602 -0.6218  1.3490
  101OSM   C15F10175   4.419   5.315   5.631  0.1826  0.0494 -0.2536
  101OSM   H15F10176   4.529   5.314   5.643  0.0557 -2.0127  1.2782
  101OSM   H15G10177   4.389   5.421   5.624  0.5504  0.1226 -0.7838
  101OSM   C16F10178   4.377   5.234   5.509 -0.8879  0.3564 -0.2594
  101OSM   H16F10179   4.408   5.128   5.521 -1.1904  0.2421 -0.5027
  101OSM   H16G10180   4.436   5.275   5.424 -1.1122  2.8889  0.7034
  101OSM   C17F10181   4.232   5.244   5.462 -0.2418  0.0017 -0.5394
  101OSM   H17F10182   4.203   5.349   5.439 -0.6906  0.0074  0.0374
  101OSM   H17G10183   4.174   5.204   5.548  1.2184 -2.3780 -0.5662
  101OSM   C18F10184   4.194   5.155   5.344 -0.9524  0.3565  0.2614
  101OSM   H18F10185   4.087   5.130   5.332 -0.9717 -2.2118  4.1516
  101OSM   H18G10186   4.236   5.054   5.361 -0.4363  0.3736 -0.8269
  101OSM   H18H10187   4.235   5.202   5.252 -0.7467  0.5792  0.4654
  102OSM      N10188   6.658   4.445   7.659  0.2245 -0.5146 -0.1212
  102OSM    C1510189   6.603   4.587   7.634  0.4364  0.3903 -0.3672
  102OSM   H15A10190   6.652   4.620   7.544  1.7084  1.1609  0.5863
  102OSM   H15B10191   6.621   4.658   7.713 -0.7671  0.9149 -0.5296
  102OSM   H15C10192   6.496   4.577   7.621  0.5111 -2.1347  0.5147
  102OSM    C1410193   6.810   4.452   7.663  0.5294  0.4219 -0.7632
  102OSM   H14A10194   6.847   4.526   7.593  3.1521  0.6169  0.6950
  102OSM   H14B10195   6.847   4.352   7.643 -1.8913 -0.3532 -1.8460
  102OSM   H14C10196   6.835   4.490   7.760  2.0082  1.4836 -1.5220
  102OSM    C1310197   6.608   4.390   7.784 -0.2494  0.5582 -0.1362
  102OSM   H13A10198   6.626   4.456   7.868 -1.8498  1.6368 -0.5791
  102OSM   H13B10199   6.647   4.294   7.811  0.2016  0.0994 -2.2496
  102OSM   H13C10200   6.500   4.379   7.780 -0.0601 -1.3582 -0.8586
  102OSM    C1210201   6.628   4.358   7.538 -0.0193  0.9565  0.6104
  102OSM   H12A10202   6.662   4.255   7.547  0.6561  0.8265 -2.4921
  102OSM   H12B10203   6.685   4.401   7.458  0.6888  1.5322  1.4039
  102OSM    C1110204   6.478   4.352   7.498 -0.2700 -0.1848 -0.1143
  102OSM   H11A10205   6.475   4.292   7.405  0.8345 -1.1350  0.4355
  102OSM   H11B10206   6.450   4.456   7.470  0.4830 -0.3183 -1.4378
  102OSM      P10207   6.401   4.147   7.640  0.1538 -0.1009  0.2613
  102OSM    O1310208   6.525   4.090   7.584 -0.2901 -0.1705 -0.0390
  102OSM    O1410209   6.379   4.129   7.781  0.3827  0.5307  0.4011
  102OSM    O1110210   6.275   4.073   7.567  0.0135 -0.4542 -0.3543
  102OSM    O1210211   6.389   4.306   7.606  0.2200 -0.0894  0.0306
  102OSM    C1S10212   6.158   4.143   7.511 -0.2483  0.2235  0.4614
  102OSM    H1S10213   6.129   4.223   7.582 -0.0562  0.4617  0.2714
  102OSM    H1T10214   6.076   4.068   7.510  0.8836 -1.0464  0.5463
  102OSM     NF10215   6.058   4.276   7.320  0.0743 -0.0066 -0.0300
  102OSM    HNF10216   6.003   4.254   7.240  0.1922 -0.5297  0.0321
  102OSM    C2S10217   6.178   4.202   7.368  0.1877 -0.5853  0.2861
  102OSM    H2S10218   6.255   4.282   7.358 -0.7593  0.2423 -0.6238
  102OSM    C3S10219   6.235   4.094   7.272 -0.1334 -0.5012 -0.7871
  102OSM    H3S10220   6.172   4.003   7.264  0.7754 -1.0155 -2.6833
  102OSM     O310221   6.358   4.031   7.314  0.1298  0.6172  0.1020
  102OSM    HO310222   6.368   4.056   7.406  1.2363  0.9780 -0.0959
  102OSM    C4S10223   6.257   4.169   7.139 -0.0061 -0.0576 -0.8692
  102OSM    H4S10224   6.316   4.262   7.142  3.5843 -2.0936  2.8815
  102OSM    C5S10225   6.222   4.129   7.016 -0.4492 -0.2193  0.1284
  102OSM    H5S10226   6.173   4.033   6.995  1.6547 -0.8866 -2.3664
  102OSM    C6S10227   6.256   4.217   6.895  0.0272  0.5133  0.0509
  102OSM    H6S10228   6.363   4.200   6.868 -0.5099 -3.5367 -0.0873
  102OSM    H6T10229   6.238   4.323   6.926 -2.0551 -0.2312  1.5903
  102OSM    C7S10230   6.171   4.188   6.773 -0.0403  0.7351  0.0189
  102OSM    H7S10231   6.177   4.269   6.697 -0.1930 -0.2636 -1.1031
  102OSM    H7T10232   6.061   4.171   6.781 -0.3193  1.8012 -1.2073
  102OSM    C8S10233   6.224   4.053   6.708  0.0741 -0.2288  0.0011
  102OSM    H8S10234   6.214   3.969   6.779 -0.5275  0.0616  0.2687
  102OSM    H8T10235   6.333   4.063   6.691 -0.3642  0.8633 -2.7474
  102OSM    C9S10236   6.155   4.022   6.571 -0.3635 -0.4265  0.3828
  102OSM    H9S10237   6.145   4.117   6.515  1.4496  0.7654  1.9529
  102OSM    H9T10238   6.053   3.983   6.591 -0.2591 -0.7217  0.3390
  102OSM   C10S10239   6.227   3.921   6.484 -0.3385  0.1021 -0.0547
  102OSM   H10S10240   6.266   3.849   6.559  0.2109  0.8253  0.3664
  102OSM   H10T10241   6.314   3.961   6.427 -0.1098 -0.5243 -0.1577
  102OSM   C11S10242   6.130   3.857   6.381 -0.0102  0.2259 -0.1547
  102OSM   H11S10243   6.047   3.809   6.436 -0.7070  2.5905  1.0143
  102OSM   H11T10244   6.176   3.774   6.323 -2.7350 -1.3018 -0.3261
  102OSM   C12S10245   6.065   3.947   6.273  0.2637 -0.0333  0.7348
  102OSM   H12S10246   6.051   4.054   6.301  2.5024  0.3776  0.4245
  102OSM   H12T10247   5.967   3.910   6.236 -0.1214  1.3003  0.3618
  102OSM   C13S10248   6.160   3.963   6.148 -0.5077  0.6056 -0.8703
  102OSM   H13S10249   6.155   3.879   6.076  0.2784 -0.4330  0.2468
  102OSM   H13T10250   6.260   3.971   6.195 -0.9449 -1.8109  0.6505
  102OSM   C14S10251   6.133   4.084   6.060  0.0918 -1.0905  0.2515
  102OSM   H14S10252   6.150   4.178   6.116  1.7483 -1.7593  0.9414
  102OSM   H14T10253   6.027   4.086   6.024 -0.2477 -0.3009  1.2462
  102OSM   C15S10254   6.226   4.095   5.940  0.2139 -0.0751 -0.2006
  102OSM   H15S10255   6.218   3.992   5.897  1.3323  0.0242 -0.6887
  102OSM   H15T10256   6.332   4.088   5.972  0.2204  0.2536 -0.1466
  102OSM   C16S10257   6.202   4.205   5.839  0.3604 -0.1092 -0.1148
  102OSM   H16S10258   6.214   4.306   5.883 -1.7086  0.6286 -1.0882
  102OSM   H16T10259   6.103   4.205   5.788 -1.2344  0.2183  2.7511
  102OSM   C17S10260   6.301   4.198   5.719 -0.1287  0.4200  0.0623
  102OSM   H17S10261   6.282   4.096   5.679 -0.5584 -0.2488  1.8723
  102OSM   H17T10262   6.405   4.222   5.749  0.3635 -1.7982  0.2421
  102OSM   C18S10263   6.258   4.294   5.607 -0.1749 -0.1195  0.4341
  102OSM   H18S10264   6.154   4.273   5.574 -0.5449  0.2360  1.3297
  102OSM   H18T10265   6.322   4.305   5.517 -1.3733  0.2775 -0.3931
  102OSM   H18U10266   6.261   4.398   5.647  3.0002 -1.0504  3.0161
  102OSM    C1F10267   6.007   4.383   7.373  0.1147 -0.4181 -0.1482
  102OSM     OF10268   6.048   4.424   7.484  0.8259 -0.0674 -0.0271
  102OSM    C2F10269   5.900   4.462   7.295  0.0123 -0.1771 -0.5626
  102OSM    H2F10270   5.845   4.390   7.231 -1.1566  0.4639 -0.3029
  102OSM    H2G10271   5.940   4.535   7.222 -3.0331  0.5904 -1.6239
  102OSM    C3F10272   5.781   4.537   7.369 -0.3696 -0.0484  0.3563
  102OSM    H3F10273   5.822   4.621   7.430 -2.4395  2.3680 -1.3749
  102OSM    H3G10274   5.733   4.465   7.438  3.0989 -2.1373  0.8603
  102OSM    C4F10275   5.687   4.614   7.277 -0.3496 -0.0293  0.0866
  102OSM    H4F10276   5.609   4.657   7.343 -0.4061 -1.9117  1.3335
  102OSM    H4G10277   5.646   4.536   7.211 -0.7100 -1.6513  2.1186
  102OSM    C5F10278   5.742   4.726   7.192 -0.0136  0.1665  0.5996
  102OSM    H5F10279   5.841   4.689   7.159  1.0482  1.4675  2.1930
  102OSM    H5G10280   5.770   4.813   7.254  0.8917 -0.0730  0.5386
  102OSM    C6F10281   5.658   4.742   7.067  0.1074 -0.6617 -0.0241
  102OSM    H6F10282   5.555   4.725   7.105  1.2245 -0.8512  3.2500
  102OSM    H6G10283   5.675   4.668   6.986  0.4596  0.1704 -0.7281
  102OSM    C7F10284   5.656   4.888   7.020 -0.6873  0.0152  0.5497
  102OSM    H7F10285   5.758   4.914   6.985 -0.5962  0.3345  1.0334
  102OSM    H7G10286   5.640   4.963   7.100  2.9360 -0.9357  2.3473
  102OSM    C8F10287   5.555   4.898   6.892 -0.7815  0.0232 -0.2449
  102OSM    H8F10288   5.451   4.866   6.913 -0.5232 -1.5340 -1.2287
  102OSM    H8G10289   5.601   4.841   6.809 -1.5579  2.2267 -2.2982
  102OSM    C9F10290   5.549   5.042   6.855 -0.1905 -0.0684 -1.2484
  102OSM    H9F10291   5.625   5.108   6.899  1.4715 -1.4976 -1.8726
  102OSM   C10F10292   5.453   5.111   6.782  0.3419  0.1965 -0.4939
  102OSM   H10F10293   5.440   5.220   6.786 -2.5687 -0.0913  0.4191
  102OSM   C11F10294   5.336   5.038   6.715  0.4570  0.3602 -0.1663
  102OSM   H11F10295   5.238   5.080   6.747  0.7284 -0.7306  2.3175
  102OSM   H11G10296   5.333   4.930   6.741 -0.1140  0.4343  0.1100
  102OSM   C12F10297   5.337   5.041   6.564 -0.5118  0.1859  0.6865
  102OSM   H12F10298   5.442   5.015   6.537 -1.8065 -3.2707 -1.6604
  102OSM   H12G10299   5.323   5.149   6.544 -3.5568 -0.0908  0.9543
  102OSM   C13F10300   5.239   4.948   6.500 -0.5808 -0.4506  0.3298
  102OSM   H13F10301   5.143   4.961   6.554 -1.0756 -0.6078 -0.5018
  102OSM   H13G10302   5.272   4.843   6.511 -0.0130 -0.3016  0.1085
  102OSM   C14F10303   5.228   4.989   6.352  0.1530 -0.9855 -0.5543
  102OSM   H14F10304   5.184   5.091   6.341  0.1124 -1.0636 -1.1638
  102OSM   H14G10305   5.166   4.929   6.282  0.0220 -0.3462 -1.0002
  102OSM   C15F10306   5.360   5.001   6.270 -0.2905 -0.4501 -0.4589
  102OSM   H15F10307   5.395   4.900   6.238  0.6514  0.4638 -2.5500
  102OSM   H15G10308   5.443   5.033   6.336  1.2651 -0.2739 -2.4037
  102OSM   C16F10309   5.349   5.099   6.148  0.0479  0.4466 -0.1203
  102OSM   H16F10310   5.450   5.116   6.105 -0.2519 -0.8739 -1.4199
  102OSM   H16G10311   5.302   5.198   6.167 -1.3192 -0.2410  0.2057
  102OSM   C17F10312   5.277   5.027   6.036 -0.0528 -1.3105 -0.0089
  102OSM   H17F10313   5.175   5.001   6.071  0.3919 -1.8403  0.9375
  102OSM   H17G10314   5.345   4.946   6.003 -0.6447 -1.1582 -1.7456
  102OSM   C18F10315   5.258   5.120   5.916  0.0098 -0.1381  0.0870
  102OSM   H18F10316   5.210   5.066   5.832 -0.4781 -0.2618  0.4404
  102OSM   H18G10317   5.356   5.143   5.868 -0.1640  0.0635 -0.1729
  102OSM   H18H10318   5.205   5.215   5.935 -0.9450 -0.7053  0.3221
  103OSM      N10319   4.214   4.518   7.310 -0.2175  0.7502  0.0480
  103OSM    C1510320   4.227   4.361   7.286 -0.4749 -0.9316 -0.3380
  103OSM   H15A10321   4.245   4.309   7.378  1.8419 -0.2006 -0.3210
  103OSM   H15B10322   4.309   4.335   7.221  0.3717 -0.5582  0.5666
  103OSM   H15C10323   4.134   4.329   7.242  0.4908 -1.3138 -2.2134
  103OSM    C1410324   4.178   4.574   7.183 -0.4170 -0.2804 -0.0017
  103OSM   H14A10325   4.102   4.520   7.129 -0.1974 -0.2004 -0.3992
  103OSM   H14B10326   4.254   4.567   7.107 -3.3292 -0.3529 -3.1420
  103OSM   H14C10327   4.159   4.680   7.175 -0.0999 -0.3027 -1.1812
  103OSM    C1310328   4.116   4.538   7.410  0.2777  1.0285 -1.0353
  103OSM   H13A10329   4.093   4.644   7.410 -1.0304  0.7538 -0.6473
  103OSM   H13B10330   4.143   4.509   7.511  0.5237 -0.3937 -1.4862
  103OSM   H13C10331   4.021   4.496   7.381  1.3484 -2.6478  0.1957
  103OSM    C1210332   4.352   4.574   7.360 -0.4447  0.1866 -0.2426
  103OSM   H12A10333   4.404   4.492   7.407  0.2591  0.3482 -0.7196
  103OSM   H12B10334   4.322   4.650   7.431  0.0863  0.1377  0.0348
  103OSM    C1110335   4.445   4.631   7.252 -0.1307 -0.2893  0.6467
  103OSM   H11A10336   4.525   4.676   7.315 -0.9953 -0.8006  2.1501
  103OSM   H11B10337   4.391   4.706   7.192 -0.9521  1.0004  2.8972
  103OSM      P10338   4.601   4.424   7.195 -0.5282 -0.3244 -0.0960
  103OSM    O1310339   4.698   4.478   7.296 -0.0677 -0.4841 -0.2238
  103OSM    O1410340   4.534   4.298   7.223 -0.1660  0.1300  0.3521
  103OSM    O1110341   4.683   4.413   7.059 -0.0194 -0.0290  0.1522
  103OSM    O1210342   4.496   4.529   7.158 -0.2299 -0.6819  0.7973
  103OSM    C1S10343   4.615   4.367   6.942 -0.5135 -0.7245  0.4873
  103OSM    H1S10344   4.542   4.440   6.900 -0.0175 -0.9365 -0.7619
  103OSM    H1T10345   4.551   4.279   6.965 -2.8116  0.7169 -0.0184
  103OSM     NF10346   4.658   4.316   6.705 -0.0403 -0.8855  0.4258
  103OSM    HNF10347   4.651   4.225   6.664  1.4378 -2.6679  3.7843
  103OSM    C2S10348   4.713   4.317   6.833  0.3517 -0.0630  0.4953
  103OSM    H2S10349   4.792   4.395   6.832 -0.2092  0.5095  0.2675
  103OSM    C3S10350   4.774   4.182   6.877  0.4644 -1.0056  1.4487
  103OSM    H3S10351   4.703   4.098   6.865 -2.0601  1.0902  0.6548
  103OSM     O310352   4.786   4.162   7.018  0.1681 -0.0002 -0.0229
  103OSM    HO310353   4.763   4.248   7.053  0.8688  0.7031 -1.2395
  103OSM    C4S10354   4.899   4.158   6.803  0.0971 -0.4755 -0.4986
  103OSM    H4S10355   4.889   4.078   6.729 -1.6596 -0.3353 -0.4493
  103OSM    C5S10356   5.024   4.211   6.827 -0.6965 -0.3154  0.0953
  103OSM    H5S10357   5.047   4.293   6.896  1.6947 -0.6589 -0.2153
  103OSM    C6S10358   5.147   4.177   6.747  0.2048 -0.5244 -0.3532
  103OSM    H6S10359   5.214   4.132   6.823 -2.3787  0.8186  2.9221
  103OSM    H6T10360   5.199   4.270   6.715  1.9134 -1.1787  0.3652
  103OSM    C7S10361   5.131   4.086   6.624  0.7634  0.2720 -0.8316
  103OSM    H7S10362   5.077   3.994   6.654 -3.0698  2.3661 -0.6275
  103OSM    H7T10363   5.236   4.059   6.599  0.4812  0.0068 -1.7535
  103OSM    C8S10364   5.052   4.143   6.507  0.4794 -0.0654 -0.3530
  103OSM    H8S10365   5.101   4.239   6.482 -0.5821  0.2386 -1.3538
  103OSM    H8T10366   4.950   4.161   6.548  0.8926 -1.9686  1.7176
  103OSM    C9S10367   5.044   4.053   6.385 -0.0810  0.6398 -0.1708
  103OSM    H9S10368   5.001   3.954   6.411 -1.9010  1.6360  0.8419
  103OSM    H9T10369   5.151   4.037   6.359 -0.7010 -1.4448 -1.6501
  103OSM   C10S10370   4.975   4.112   6.262 -0.5061 -0.3245  0.6599
  103OSM   H10S10371   4.866   4.121   6.286 -0.5545  1.7350 -0.1437
  103OSM   H10T10372   4.988   4.030   6.188  0.5431  1.1929 -0.8881
  103OSM   C11S10373   5.037   4.241   6.199  0.9878 -0.1555 -0.3376
  103OSM   H11S10374   5.146   4.248   6.217  0.8514  0.8795  0.1162
  103OSM   H11T10375   4.998   4.326   6.258  3.2537  0.7155 -0.0326
  103OSM   C12S10376   5.005   4.259   6.049 -0.0139  0.1616  0.2367
  103OSM   H12S10377   5.040   4.360   6.017  0.6511 -0.6284 -1.6828
  103OSM   H12T10378   4.894   4.254   6.049 -0.2203  2.4313  2.5433
  103OSM   C13S10379   5.076   4.164   5.948 -0.2789  0.5470 -0.2360
  103OSM   H13S10380   5.030   4.065   5.971  2.2437 -0.5936  0.3138
  103OSM   H13T10381   5.181   4.140   5.976 -0.8140  0.7054  2.0724
  103OSM   C14S10382   5.058   4.223   5.808  0.5023 -0.4752  0.3123
  103OSM   H14S10383   5.133   4.164   5.751  1.2841 -1.7918  2.5441
  103OSM   H14T10384   5.099   4.326   5.801  0.6182 -0.4787  0.8648
  103OSM   C15S10385   4.917   4.212   5.748 -0.2895 -0.4265 -0.6819
  103OSM   H15S10386   4.850   4.281   5.803 -0.2394 -2.1055  1.6043
  103OSM   H15T10387   4.884   4.111   5.782  1.2490 -0.9131 -0.5617
  103OSM   C16S10388   4.900   4.224   5.600 -0.3638  0.6621  0.4027
  103OSM   H16S10389   4.795   4.203   5.570  0.0481 -1.7445  0.3989
  103OSM   H16T10390   4.971   4.163   5.539 -0.5993 -0.6365  1.3816
  103OSM   C17S10391   4.933   4.364   5.546 -0.6462  0.1679  0.0080
  103OSM   H17S10392   4.917   4.376   5.437  1.0640 -0.7914 -0.3938
  103OSM   H17T10393   5.042   4.367   5.567 -0.3106 -3.0421 -0.7612
  103OSM   C18S10394   4.870   4.477   5.616 -0.0776  0.1155 -0.2827
  103OSM   H18S10395   4.892   4.575   5.569  2.5776  0.2014  0.9440
  103OSM   H18T10396   4.916   4.482   5.717  0.3667 -0.2905 -0.4608
  103OSM   H18U10397   4.759   4.474   5.615 -0.0872 -2.1450  0.9980
  103OSM    C1F10398   4.608   4.419   6.642 -0.0102 -0.8115 -0.0500
  103OSM     OF10399   4.643   4.532   6.672 -0.3252  0.1958 -1.2679
  103OSM    C2F10400   4.495   4.389   6.540 -0.8499  0.3877 -0.3863
  103OSM    H2F10401   4.433   4.481   6.533 -1.7120 -0.1251  0.2577
  103OSM    H2G10402   4.432   4.307   6.580  0.6339 -0.2589  0.7012
  103OSM    C3F10403   4.553   4.334   6.402  0.1572  0.0993  0.5659
  103OSM    H3F10404   4.600   4.236   6.426  2.2536  1.5061  2.5873
  103OSM    H3G10405   4.635   4.403   6.375 -0.3130  1.2880  2.0486
  103OSM    C4F10406   4.446   4.322   6.293  0.0937 -0.2030 -0.4839
  103OSM    H4F10407   4.390   4.417   6.305  3.9399  2.0306  1.8548
  103OSM    H4G10408   4.370   4.245   6.318  0.3006 -0.2519  0.0109
  103OSM    C5F10409   4.506   4.316   6.156  0.7202 -0.8841 -0.5643
  103OSM    H5F10410   4.542   4.211   6.145  2.6141 -0.2388 -0.9534
  103OSM    H5G10411   4.588   4.391   6.152 -0.6595  0.6535 -0.6021
  103OSM    C6F10412   4.410   4.348   6.041  0.3956  0.5522 -0.7574
  103OSM    H6F10413   4.352   4.438   6.070  0.8834  0.0556  2.0862
  103OSM    H6G10414   4.332   4.269   6.044  1.3245 -0.4299 -1.4094
  103OSM    C7F10415   4.472   4.362   5.903 -0.3680  0.5719  0.8753
  103OSM    H7F10416   4.500   4.263   5.861  3.1400  1.9760 -0.4822
  103OSM    H7G10417   4.571   4.412   5.912  0.7470 -1.6069  1.5210
  103OSM    C8F10418   4.377   4.435   5.803 -0.1762 -0.0396 -0.5886
  103OSM    H8F10419   4.324   4.512   5.862 -0.0283 -0.5161  0.1859
  103OSM    H8G10420   4.301   4.365   5.764  0.5590  0.1624 -2.4955
  103OSM    C9F10421   4.456   4.515   5.702  0.3039 -0.4194  0.4185
  103OSM    H9F10422   4.486   4.613   5.741 -3.5515  0.6713  1.0319
  103OSM   C10F10423   4.465   4.497   5.571 -0.8419 -0.4094  0.1414
  103OSM   H10F10424   4.503   4.577   5.507  0.4359 -0.4589  0.8162
  103OSM   C11F10425   4.411   4.384   5.497  0.2391  0.9420  0.0006
  103OSM   H11F10426   4.344   4.419   5.415 -1.4387  0.1156  0.9709
  103OSM   H11G10427   4.343   4.322   5.559  0.0989  2.8120  1.8403
  103OSM   C12F10428   4.508   4.290   5.417  0.7043 -0.0717 -0.1038
  103OSM   H12F10429   4.451   4.210   5.366  0.8843 -0.4060  0.2191
  103OSM   H12G10430   4.575   4.239   5.490  1.0151 -2.6848 -2.0974
  103OSM   C13F10431   4.605   4.353   5.309 -0.1009 -0.0996 -0.3365
  103OSM   H13F10432   4.669   4.425   5.365 -1.3075  0.8758 -0.1584
  103OSM   H13G10433   4.549   4.406   5.230  0.0579  1.2942  0.4567
  103OSM   C14F10434   4.699   4.256   5.245  0.4073 -0.1434  0.6718
  103OSM   H14F10435   4.629   4.170   5.243 -0.5270  0.5531  2.3399
  103OSM   H14G10436   4.783   4.232   5.314  0.3275  1.9641  1.5774
  103OSM   C15F10437   4.763   4.316   5.114 -0.0954  0.0510  0.6780
  103OSM   H15F10438   4.845   4.386   5.142  0.0892 -0.3277  1.0938
  103OSM   H15G10439   4.687   4.358   5.044 -0.7069 -1.1750  0.5787
  103OSM   C16F10440   4.847   4.209   5.038  0.0031 -0.0887 -0.2979
  103OSM   H16F10441   4.919   4.157   5.103 -1.2258  0.0462  1.2270
  103OSM   H16G10442   4.903   4.258   4.955  0.6329  1.6040  1.0685
  103OSM   C17F10443   4.761   4.108   4.957  0.2433 -0.2826  0.3422
  103OSM   H17F10444   4.693   4.164   4.889 -1.3865 -2.1754  0.3234
  103OSM   H17G10445   4.686   4.057   5.022 -0.4411 -0.0803 -0.2778
  103OSM   C18F10446   4.822   3.994   4.868  0.1466  0.7227  0.0559
  103OSM   H18F10447   4.862   3.912   4.930 -1.0116 -0.4625 -0.6888
  103OSM   H18G10448   4.890   4.033   4.789 -0.6818  0.1575 -0.9717
  103OSM   H18H10449   4.735   3.943   4.820  1.2025  0.4784 -1.6783
  104OSM      N10450   5.081   6.602   7.114  0.3527 -0.9578 -0.4297
  104OSM    C1510451   4.953   6.549   7.062  0.2073 -0.3807  0.2008
  104OSM   H15A10452   4.971   6.468   6.992  0.5829  0.4569 -0.6951
  104OSM   H15B10453   4.912   6.628   7.001  4.6252  2.2373  0.1888
  104OSM   H15C10454   4.890   6.509   7.141  0.1760  3.0900  2.1008
  104OSM    C1410455   5.041   6.712   7.204  0.8286 -0.3253 -0.1055
  104OSM   H14A10456   5.008   6.794   7.142  2.0131 -1.3071 -2.1508
  104OSM   H14B10457   5.134   6.732   7.255  1.4717 -1.0184 -0.9707
  104OSM   H14C10458   4.963   6.685   7.273 -1.3494  3.1262 -0.9530
  104OSM    C1310459   5.148   6.496   7.193 -0.0110 -0.8360  0.8925
  104OSM   H13A10460   5.072   6.440   7.246 -1.0734 -2.4112 -2.0611
  104OSM   H13B10461   5.222   6.540   7.257  0.0150  0.3764  0.0749
  104OSM   H13C10462   5.193   6.431   7.120  0.1727  0.6438 -0.3669
  104OSM    C1210463   5.179   6.651   7.006 -0.6581 -0.3827  0.2946
  104OSM   H12A10464   5.130   6.725   6.946 -0.4866 -0.1800  0.4005
  104OSM   H12B10465   5.186   6.566   6.940 -3.1112 -0.3312 -0.1064
  104OSM    C1110466   5.318   6.705   7.047 -0.1435 -0.1407 -0.0413
  104OSM   H11A10467   5.384   6.720   6.959  0.3969  0.6575  0.4897
  104OSM   H11B10468   5.370   6.636   7.116  0.1095  0.4274  0.3410
  104OSM      P10469   5.260   6.973   7.059  0.2607  0.0047 -0.3131
  104OSM    O1310470   5.115   6.981   7.062  0.3344  0.1621  0.3772
  104OSM    O1410471   5.330   7.083   7.134 -0.1591  0.0813 -0.0957
  104OSM    O1110472   5.323   6.976   6.908 -0.1062 -0.0996  0.4888
  104OSM    O1210473   5.306   6.831   7.119  0.2785  0.7411  0.5418
  104OSM    C1S10474   5.233   6.965   6.789  0.7817 -0.3185  0.2616
  104OSM    H1S10475   5.151   7.040   6.794 -0.3860 -1.5361 -0.2321
  104OSM    H1T10476   5.183   6.866   6.782  0.7705 -0.3953  1.2912
  104OSM     NF10477   5.237   7.073   6.551 -0.4226 -0.2790  0.0380
  104OSM    HNF10478   5.234   7.027   6.463  1.9554 -0.4797 -0.0112
  104OSM    C2S10479   5.318   7.007   6.659  0.6730  0.7243  0.7382
  104OSM    H2S10480   5.397   7.078   6.690  0.3623  0.7810  1.4366
  104OSM    C3S10481   5.389   6.884   6.607 -0.0890  0.6952 -0.3126
  104OSM    H3S10482   5.315   6.808   6.573  0.6275  0.0016 -0.3275
  104OSM     O310483   5.458   6.810   6.709  0.3757 -0.0720 -0.6218
  104OSM    HO310484   5.430   6.852   6.791  5.8683 -0.6962  2.0308
  104OSM    C4S10485   5.484   6.907   6.491  0.4423  0.5590  0.2051
  104OSM    H4S10486   5.427   6.921   6.398 -2.7196  0.4714  1.9982
  104OSM    C5S10487   5.625   6.916   6.494  0.9435 -0.5924  0.1475
  104OSM    H5S10488   5.682   6.894   6.585  2.5234 -2.1344 -1.1312
  104OSM    C6S10489   5.708   6.933   6.370 -0.2778 -0.3036  0.3395
  104OSM    H6S10490   5.764   6.843   6.338  1.1320  0.5095  0.4348
  104OSM    H6T10491   5.792   6.999   6.400 -0.8773  0.6575 -0.0532
  104OSM    C7S10492   5.639   6.990   6.241 -0.6243 -0.1209  0.0295
  104OSM    H7S10493   5.617   7.097   6.258  0.4807  0.3921 -1.5648
  104OSM    H7T10494   5.551   6.925   6.221  0.1665 -2.1219  2.4048
  104OSM    C8S10495   5.727   6.994   6.117  0.3542 -0.7010 -1.0748
  104OSM    H8S10496   5.790   6.903   6.118  3.1874  1.0792  1.7027
  104OSM    H8T10497   5.796   7.074   6.152 -0.1254 -1.6725  2.5203
  104OSM    C9S10498   5.655   7.038   5.993  0.5421 -0.6390  0.4004
  104OSM    H9S10499   5.594   7.129   6.013  1.3307  0.5835 -2.2219
  104OSM    H9T10500   5.584   6.957   5.965 -0.3930  0.4764 -0.6129
  104OSM   C10S10501   5.757   7.063   5.880 -0.1000  0.3417  0.2741
  104OSM   H10S10502   5.855   7.072   5.930  1.0264 -1.2138 -1.5108
  104OSM   H10T10503   5.736   7.166   5.845  2.7707  1.6609  2.0573
  104OSM   C11S10504   5.741   6.957   5.765  0.3839 -0.0989 -0.2245
  104OSM   H11S10505   5.633   6.942   5.746  1.0333 -3.8339 -1.6381
  104OSM   H11T10506   5.781   6.864   5.810 -1.1094 -0.8822 -0.4358
  104OSM   C12S10507   5.818   6.999   5.646 -0.6234  0.2854  0.6332
  104OSM   H12S10508   5.921   7.024   5.679 -1.0503  2.3241  0.5786
  104OSM   H12T10509   5.773   7.092   5.605  1.4868  0.5720 -1.2355
  104OSM   C13S10510   5.825   6.886   5.541  0.0044  0.1648  0.1317
  104OSM   H13S10511   5.718   6.876   5.513 -0.3398  1.4168  0.9439
  104OSM   H13T10512   5.881   6.796   5.576 -0.6295 -0.8924 -1.4603
  104OSM   C14S10513   5.888   6.941   5.410 -0.4105 -1.2667 -0.2844
  104OSM   H14S10514   5.997   6.952   5.424 -0.6781 -1.1087  2.0761
  104OSM   H14T10515   5.851   7.043   5.387 -1.4785 -1.9629 -1.8556
  104OSM   C15S10516   5.853   6.857   5.290 -0.1440 -0.1548  0.4444
  104OSM   H15S10517   5.743   6.840   5.293 -0.3605  1.2671  1.1027
  104OSM   H15T10518   5.911   6.762   5.282 -1.6189 -0.9793 -1.3746
  104OSM   C16S10519   5.867   6.914   5.149 -0.0993  0.3843 -0.4429
  104OSM   H16S10520   5.803   7.005   5.146 -0.1511  0.3185 -1.8171
  104OSM   H16T10521   5.822   6.841   5.079 -1.4294 -0.3032  1.0589
  104OSM   C17S10522   6.010   6.935   5.111 -0.2051  0.5520 -0.3228
  104OSM   H17S10523   6.062   6.840   5.134 -0.1703  0.6508  0.0224
  104OSM   H17T10524   6.061   7.015   5.169  1.0999 -1.1655  0.9819
  104OSM   C18S10525   6.027   6.952   4.961 -0.0521  0.5901 -0.1581
  104OSM   H18S10526   5.953   7.020   4.914  0.7763  1.6891  0.1087
  104OSM   H18T10527   6.015   6.849   4.920  0.7016  0.0596  0.8938
  104OSM   H18U10528   6.129   6.991   4.941  0.3468 -0.5188 -0.4169
  104OSM    C1F10529   5.179   7.193   6.564 -0.3973 -0.0593  0.5006
  104OSM     OF10530   5.207   7.267   6.658 -0.6053 -0.0913 -0.1522
  104OSM    C2F10531   5.080   7.232   6.457 -0.0052  0.6384  0.2519
  104OSM    H2F10532   4.983   7.214   6.508 -0.9640 -0.8226 -1.9457
  104OSM    H2G10533   5.078   7.163   6.371  0.4007  1.6883 -0.6176
  104OSM    C3F10534   5.077   7.381   6.428 -0.5198 -0.1991  0.1758
  104OSM    H3F10535   5.077   7.430   6.528  0.4284  1.3500 -0.5451
  104OSM    H3G10536   4.995   7.432   6.374 -0.4569 -0.2348  0.0446
  104OSM    C4F10537   5.206   7.433   6.346  0.0065 -0.7136 -0.3559
  104OSM    H4F10538   5.290   7.434   6.418  0.6749  0.6776 -1.1000
  104OSM    H4G10539   5.183   7.536   6.311  1.0841  0.6193  2.5586
  104OSM    C5F10540   5.241   7.345   6.230 -0.3022  0.0071  0.5880
  104OSM    H5F10541   5.152   7.324   6.167  0.1510 -1.4811  0.4010
  104OSM    H5G10542   5.272   7.250   6.277 -1.8409 -0.3514  0.9204
  104OSM    C6F10543   5.356   7.390   6.143 -0.0966 -0.0373  0.6812
  104OSM    H6F10544   5.374   7.307   6.072  0.1222  1.4425 -1.0699
  104OSM    H6G10545   5.439   7.416   6.213 -1.1590  1.1180  1.5637
  104OSM    C7F10546   5.340   7.518   6.055 -0.9371  0.6578  0.4997
  104OSM    H7F10547   5.307   7.612   6.103  0.6209  2.2907 -1.4599
  104OSM    H7G10548   5.265   7.503   5.975  0.4196  3.1684 -1.3962
  104OSM    C8F10549   5.474   7.554   5.985 -0.2298 -0.0424 -0.5704
  104OSM    H8F10550   5.537   7.604   6.062 -2.9326  1.9007  0.5491
  104OSM    H8G10551   5.450   7.641   5.920  0.6605  0.5038 -0.1940
  104OSM    C9F10552   5.536   7.449   5.900  0.5024 -0.0524 -0.1243
  104OSM    H9F10553   5.597   7.381   5.961 -0.3638  0.1896  1.0437
  104OSM   C10F10554   5.542   7.438   5.773 -0.0444 -0.3955  1.5453
  104OSM   H10F10555   5.621   7.378   5.727  0.6583  1.6382 -0.0858
  104OSM   C11F10556   5.461   7.525   5.668  0.0170 -0.2637 -0.2588
  104OSM   H11F10557   5.439   7.626   5.709  0.4585  0.1593 -1.0367
  104OSM   H11G10558   5.365   7.477   5.639 -0.6938  1.1776 -0.3474
  104OSM   C12F10559   5.539   7.542   5.540  0.0784 -0.6602  0.0904
  104OSM   H12F10560   5.590   7.452   5.499  1.2760  0.9082 -2.1041
  104OSM   H12G10561   5.629   7.604   5.561  0.1001 -0.7116  0.1494
  104OSM   C13F10562   5.460   7.605   5.425  0.0603 -0.2683 -0.2666
  104OSM   H13F10563   5.407   7.702   5.437  1.1985  0.7404 -2.7729
  104OSM   H13G10564   5.386   7.526   5.402  2.0704 -3.1170  2.2335
  104OSM   C14F10565   5.560   7.620   5.309  0.1571  0.7056 -0.1041
  104OSM   H14F10566   5.584   7.522   5.262 -1.7282  0.7483 -1.2698
  104OSM   H14G10567   5.659   7.664   5.332  1.6275 -1.4273 -1.8248
  104OSM   C15F10568   5.503   7.712   5.200  0.3664 -0.3078 -0.1044
  104OSM   H15F10569   5.479   7.810   5.247 -0.5703 -0.0381 -1.1093
  104OSM   H15G10570   5.414   7.659   5.159 -0.7858  0.5441  1.2132
  104OSM   C16F10571   5.596   7.737   5.084 -0.1343  0.3151 -0.0703
  104OSM   H16F10572   5.645   7.642   5.057  1.9951  0.6389  2.3434
  104OSM   H16G10573   5.671   7.810   5.121  0.7475 -0.6464  0.0541
  104OSM   C17F10574   5.530   7.796   4.953  0.1014 -0.5811  0.1281
  104OSM   H17F10575   5.474   7.707   4.918  0.3890 -1.7601  2.4854
  104OSM   H17G10576   5.613   7.833   4.889  0.2095  0.3901  0.8047
  104OSM   C18F10577   5.428   7.907   4.959 -0.0797  0.3414  0.0900
  104OSM   H18F10578   5.335   7.870   5.008  0.1489  0.6981  0.8164
  104OSM   H18G10579   5.402   7.934   4.855  3.1989  4.0063  0.0016
  104OSM   H18H10580   5.474   7.999   5.001  1.4979 -0.2046 -0.3773
  105OSM      N10581   6.439   5.798   7.205 -0.3184  0.4671 -0.3180
  105OSM    C1510582   6.448   5.799   7.346  0.0521 -0.4083 -0.5383
  105OSM   H15A10583   6.404   5.723   7.408 -0.8793  0.5248 -0.0220
  105OSM   H15B10584   6.390   5.883   7.381  0.7003 -0.5948  1.0473
  105OSM   H15C10585   6.549   5.821   7.379  0.0044  0.6798 -1.0446
  105OSM    C1410586   6.502   5.922   7.157  0.0306  0.1086  0.5122
  105OSM   H14A10587   6.458   6.006   7.209 -1.8636  0.7429 -1.9229
  105OSM   H14B10588   6.491   5.935   7.051 -1.1649  0.2390  0.6384
  105OSM   H14C10589   6.609   5.929   7.166  0.3655 -2.1713 -0.9820
  105OSM    C1310590   6.501   5.679   7.143  0.7031 -0.9002  0.3055
  105OSM   H13A10591   6.497   5.687   7.036 -1.3323 -0.7527  0.3655
  105OSM   H13B10592   6.439   5.592   7.160  0.2714 -0.4599  1.0515
  105OSM   H13C10593   6.603   5.660   7.175  0.9121 -0.8668 -0.3221
  105OSM    C1210594   6.291   5.797   7.171  0.1240 -0.3195 -0.5394
  105OSM   H12A10595   6.256   5.707   7.219 -1.0035 -0.0384 -0.7859
  105OSM   H12B10596   6.275   5.767   7.068  1.5185  1.1875 -1.2400
  105OSM    C1110597   6.203   5.914   7.226 -0.2558 -0.2008 -0.6223
  105OSM   H11A10598   6.219   5.930   7.335 -1.9487  0.4668 -0.4246
  105OSM   H11B10599   6.097   5.885   7.208  0.3768 -3.9521  0.7648
  105OSM      P10600   6.172   6.169   7.201 -0.0769 -0.2785  0.0238
  105OSM    O1310601   6.052   6.143   7.289  0.0069 -0.2691 -0.1887
  105OSM    O1410602   6.285   6.253   7.254 -0.3842  0.1664  0.1122
  105OSM    O1110603   6.121   6.227   7.062  0.3719  0.2575  0.3843
  105OSM    O1210604   6.228   6.029   7.151  0.0215  0.6480  0.2238
  105OSM    C1S10605   6.197   6.249   6.949  0.1721 -0.0080  0.4467
  105OSM    H1S10606   6.254   6.155   6.931 -1.2596 -0.4975 -2.0293
  105OSM    H1T10607   6.266   6.333   6.969 -2.4159  2.0821  1.1714
  105OSM     NF10608   6.182   6.266   6.704  0.0339  0.1378  0.1991
  105OSM    HNF10609   6.190   6.353   6.656  1.1668 -0.2492 -0.3355
  105OSM    C2S10610   6.104   6.271   6.827  0.3760  0.2089 -0.2415
  105OSM    H2S10611   6.043   6.179   6.823  0.2712  0.3132 -1.1085
  105OSM    C3S10612   6.011   6.400   6.846 -0.3024 -0.3995 -0.6969
  105OSM    H3S10613   6.078   6.487   6.856  0.9435 -1.5477  1.9783
  105OSM     O310614   5.935   6.397   6.965  0.0084  0.2259 -0.3889
  105OSM    HO310615   5.988   6.341   7.023 -0.0874  0.8417  0.3207
  105OSM    C4S10616   5.927   6.418   6.729  0.7060 -0.1094  0.3175
  105OSM    H4S10617   5.966   6.485   6.651 -0.5170 -0.7793 -0.9167
  105OSM    C5S10618   5.807   6.363   6.697 -0.3888  0.1943 -0.1291
  105OSM    H5S10619   5.755   6.296   6.767  2.2275  1.0265  2.8463
  105OSM    C6S10620   5.730   6.394   6.575 -0.3021 -0.0043 -0.1273
  105OSM    H6S10621   5.623   6.413   6.601 -0.5516  0.9112 -1.6963
  105OSM    H6T10622   5.731   6.300   6.517  1.5223 -0.0824 -0.0211
  105OSM    C7S10623   5.766   6.521   6.496  0.0043  0.2900  0.4136
  105OSM    H7S10624   5.865   6.516   6.446 -1.0276  1.3618 -1.8926
  105OSM    H7T10625   5.766   6.614   6.557 -2.4373  1.3152 -0.9745
  105OSM    C8S10626   5.670   6.544   6.370 -0.4333 -0.1095  0.2151
  105OSM    H8S10627   5.716   6.634   6.324 -0.2518  0.7085  1.9256
  105OSM    H8T10628   5.567   6.569   6.405 -0.5750 -1.1939  0.6099
  105OSM    C9S10629   5.656   6.424   6.275 -0.2738  0.3136 -0.0594
  105OSM    H9S10630   5.585   6.350   6.316  2.7125 -1.7247  1.8460
  105OSM    H9T10631   5.756   6.375   6.273  0.4920  1.5087  3.0851
  105OSM   C10S10632   5.605   6.449   6.131 -0.6243 -0.2816  0.3104
  105OSM   H10S10633   5.631   6.372   6.055  2.5172  1.5922 -0.7118
  105OSM   H10T10634   5.659   6.539   6.094 -0.9434  0.2738  1.1477
  105OSM   C11S10635   5.461   6.494   6.123  1.0502  0.0041  0.0195
  105OSM   H11S10636   5.447   6.590   6.177  1.7242  0.5159 -0.6969
  105OSM   H11T10637   5.396   6.427   6.184  1.4966  0.1879  0.7125
  105OSM   C12S10638   5.420   6.511   5.977 -0.8201  0.4683  0.2378
  105OSM   H12S10639   5.459   6.425   5.918  0.3837  1.0322  0.1919
  105OSM   H12T10640   5.479   6.598   5.941  0.0322 -0.9848 -2.1877
  105OSM   C13S10641   5.274   6.527   5.941 -0.0541  0.0697 -0.3753
  105OSM   H13S10642   5.223   6.606   6.002 -0.8966  0.0319 -1.0036
  105OSM   H13T10643   5.217   6.432   5.945  0.2961 -0.1608 -0.8217
  105OSM   C14S10644   5.245   6.578   5.796  0.7760 -0.6424  0.9103
  105OSM   H14S10645   5.264   6.688   5.796 -0.4489 -0.4166  0.9553
  105OSM   H14T10646   5.135   6.577   5.777  0.6545  3.4836  0.4803
  105OSM   C15S10647   5.308   6.501   5.683 -0.8925  0.2302  0.3237
  105OSM   H15S10648   5.287   6.392   5.689 -0.6837  0.0009 -2.2560
  105OSM   H15T10649   5.417   6.520   5.679 -0.4663 -1.6176  1.6573
  105OSM   C16S10650   5.242   6.546   5.544 -0.6003  0.0302 -1.3520
  105OSM   H16S10651   5.134   6.522   5.539 -0.7981  0.4167  0.4189
  105OSM   H16T10652   5.305   6.500   5.465  0.6778  0.3872 -0.5775
  105OSM   C17S10653   5.255   6.694   5.515 -0.5375  0.0713 -0.0956
  105OSM   H17S10654   5.361   6.720   5.495 -0.6013  2.5608  2.2023
  105OSM   H17T10655   5.222   6.754   5.603  0.1777 -1.0442  0.9657
  105OSM   C18S10656   5.167   6.729   5.387  0.2351  0.7520 -0.5187
  105OSM   H18S10657   5.189   6.833   5.355 -0.1000  1.6075  1.8569
  105OSM   H18T10658   5.060   6.718   5.414  0.0066  2.3310 -0.7447
  105OSM   H18U10659   5.191   6.655   5.307 -1.0617 -2.4591  1.8123
  105OSM    C1F10660   6.253   6.169   6.657  0.2195  0.1467 -0.4573
  105OSM     OF10661   6.241   6.059   6.711  0.1928  0.0533 -0.0568
  105OSM    C2F10662   6.343   6.184   6.539 -0.2842 -0.5615 -0.7418
  105OSM    H2F10663   6.450   6.187   6.571 -0.6131  0.5859  0.3317
  105OSM    H2G10664   6.331   6.282   6.489  1.4943  1.1790  1.9724
  105OSM    C3F10665   6.321   6.071   6.434 -0.8439  0.4136  0.4926
  105OSM    H3F10666   6.214   6.059   6.407 -0.9042  0.8603  0.5178
  105OSM    H3G10667   6.357   5.977   6.482  0.4615  0.3483 -0.5663
  105OSM    C4F10668   6.391   6.114   6.300  0.5811  0.0491  1.0990
  105OSM    H4F10669   6.501   6.106   6.302  0.6205 -2.2954 -2.1556
  105OSM    H4G10670   6.359   6.217   6.271 -0.8001 -0.7230 -0.2897
  105OSM    C5F10671   6.345   6.031   6.177  0.2125  1.0754 -0.0568
  105OSM    H5F10672   6.241   5.997   6.197  0.4924  0.6751  0.7865
  105OSM    H5G10673   6.419   5.950   6.155  2.1689  2.8032 -0.1270
  105OSM    C6F10674   6.338   6.118   6.049  0.4246 -0.1828  0.4080
  105OSM    H6F10675   6.441   6.153   6.026  1.1075 -1.5876  1.1451
  105OSM    H6G10676   6.261   6.196   6.068 -1.0113 -0.7965 -2.4391
  105OSM    C7F10677   6.288   6.049   5.917 -0.8123 -0.2302 -0.1612
  105OSM    H7F10678   6.187   6.008   5.939 -0.7227  0.9987  3.0962
  105OSM    H7G10679   6.354   5.965   5.888 -0.6953  0.8239 -3.2658
  105OSM    C8F10680   6.286   6.145   5.800 -0.1393 -0.6098 -0.1196
  105OSM    H8F10681   6.385   6.192   5.784  0.0813 -0.6142  1.1793
  105OSM    H8G10682   6.216   6.228   5.824 -1.6728 -2.2814  1.5329
  105OSM    C9F10683   6.237   6.071   5.681  0.6631  0.3308  0.7072
  105OSM    H9F10684   6.130   6.072   5.659  0.8849 -0.2688 -0.5272
  105OSM   C10F10685   6.319   6.012   5.591  0.4281 -0.7303  0.2376
  105OSM   H10F10686   6.256   5.965   5.514  0.1456 -1.8880  1.1507
  105OSM   C11F10687   6.466   5.995   5.592  0.3843 -1.2659  0.3514
  105OSM   H11F10688   6.487   5.886   5.597 -0.4033 -1.5350 -1.5445
  105OSM   H11G10689   6.518   6.037   5.681 -0.9921 -0.2598  0.7065
  105OSM   C12F10690   6.520   6.061   5.460 -0.8109 -0.3119  0.0936
  105OSM   H12F10691   6.534   6.169   5.483 -1.9271 -0.2571  0.5800
  105OSM   H12G10692   6.445   6.048   5.379  1.0846 -2.2606 -1.4692
  105OSM   C13F10693   6.655   6.006   5.401  0.0362  0.1405  0.2026
  105OSM   H13F10694   6.734   6.010   5.479 -0.2883  1.9463  0.4868
  105OSM   H13G10695   6.672   6.071   5.313 -0.9073 -0.7954 -0.6977
  105OSM   C14F10696   6.645   5.875   5.335 -0.2847  0.3028  0.3576
  105OSM   H14F10697   6.557   5.873   5.266 -0.8227 -0.8650  1.0324
  105OSM   H14G10698   6.641   5.789   5.405 -0.5012 -0.7806 -0.9437
  105OSM   C15F10699   6.776   5.855   5.249  0.4972  0.1349 -0.1955
  105OSM   H15F10700   6.858   5.835   5.320 -1.2358  0.2552  1.9512
  105OSM   H15G10701   6.793   5.954   5.202 -1.4251  0.5616 -0.0856
  105OSM   C16F10702   6.768   5.739   5.157  0.4400 -0.2874 -0.1879
  105OSM   H16F10703   6.681   5.751   5.088  0.6877  3.1883 -0.0761
  105OSM   H16G10704   6.741   5.650   5.218  0.2953  0.2006  0.4711
  105OSM   C17F10705   6.899   5.709   5.094 -0.3509  0.2864 -0.2742
  105OSM   H17F10706   6.971   5.672   5.170 -3.0935 -2.7760  1.0609
  105OSM   H17G10707   6.926   5.803   5.041 -1.7840  0.7681 -0.1889
  105OSM   C18F10708   6.891   5.604   4.985  0.1176 -0.4820 -0.2685
  105OSM   H18F10709   6.816   5.531   5.021  1.1572 -0.4745  2.1020
  105OSM   H18G10710   6.991   5.561   4.961  0.2958 -1.6334  2.2447
  105OSM   H18H10711   6.859   5.657   4.892  0.7551  0.3756 -0.0086
  106OSM      N10712   4.914   3.513   7.369 -0.6182  1.1537 -0.2502
  106OSM    C1510713   4.834   3.382   7.352 -0.0791 -0.2896 -0.4383
  106OSM   H15A10714   4.741   3.390   7.298  0.6356 -2.6192 -2.1749
  106OSM   H15B10715   4.824   3.340   7.451  1.6208  0.8119  0.2421
  106OSM   H15C10716   4.897   3.315   7.295 -0.3163  1.4610 -2.9032
  106OSM    C1410717   4.827   3.612   7.435  0.8366  0.6312 -0.2251
  106OSM   H14A10718   4.900   3.686   7.464  1.6789 -0.5825  0.8557
  106OSM   H14B10719   4.773   3.577   7.522  0.3519  0.6999 -0.4947
  106OSM   H14C10720   4.755   3.659   7.370 -1.9380  2.6451  3.8325
  106OSM    C1310721   5.038   3.487   7.456 -0.4516  0.2043 -0.3231
  106OSM   H13A10722   5.097   3.413   7.404  0.3368  2.1354 -2.3339
  106OSM   H13B10723   5.011   3.436   7.547  0.2190  0.9712  0.3237
  106OSM   H13C10724   5.105   3.570   7.473 -0.8226  0.1889  1.3776
  106OSM    C1210725   4.956   3.570   7.232 -0.4527 -0.3870 -0.1804
  106OSM   H12A10726   5.045   3.521   7.197 -0.4023  0.1546 -0.8268
  106OSM   H12B10727   4.965   3.675   7.255 -1.8596 -0.2969  0.0630
  106OSM    C1110728   4.852   3.566   7.116  0.2394  0.3174 -0.0339
  106OSM   H11A10729   4.842   3.458   7.095 -1.2935  1.0551 -3.8623
  106OSM   H11B10730   4.903   3.626   7.038  0.9481 -1.6775 -1.1727
  106OSM      P10731   4.666   3.752   7.095  0.3622  0.2160  0.1374
  106OSM    O1310732   4.520   3.733   7.114 -0.0082  0.0516  0.3551
  106OSM    O1410733   4.722   3.874   7.157  0.4067 -0.1086 -0.3998
  106OSM    O1110734   4.706   3.743   6.941 -0.1498  0.8220 -0.1144
  106OSM    O1210735   4.727   3.624   7.160  0.2290  0.6929 -0.2984
  106OSM    C1S10736   4.669   3.636   6.860 -0.1900 -0.5078  0.7781
  106OSM    H1S10737   4.566   3.597   6.874 -0.4211 -0.3917 -0.4344
  106OSM    H1T10738   4.733   3.545   6.866 -0.6801 -0.8919  0.3310
  106OSM     NF10739   4.631   3.543   6.641  0.2506 -0.3550  0.8452
  106OSM    HNF10740   4.710   3.491   6.610 -0.3151 -1.7131  1.5896
  106OSM    C2S10741   4.673   3.665   6.702 -0.2719 -0.1492 -0.5081
  106OSM    H2S10742   4.597   3.742   6.676  0.1747  0.1744 -0.8668
  106OSM    C3S10743   4.814   3.721   6.658  0.1188  0.5093  0.1457
  106OSM    H3S10744   4.892   3.653   6.699 -0.1554 -1.2051 -1.9694
  106OSM     O310745   4.836   3.849   6.707 -0.0367  0.4950  0.5365
  106OSM    HO310746   4.784   3.847   6.788  0.8836 -0.0517  1.1330
  106OSM    C4S10747   4.830   3.729   6.506 -0.0573 -0.0625 -0.3156
  106OSM    H4S10748   4.799   3.821   6.456  0.3313  1.2223  1.6968
  106OSM    C5S10749   4.878   3.621   6.442  0.0671 -0.3256 -0.5486
  106OSM    H5S10750   4.904   3.535   6.504  0.1951  0.0244 -0.1123
  106OSM    C6S10751   4.893   3.618   6.292 -0.3591  0.4821  0.1860
  106OSM    H6S10752   4.849   3.709   6.245  1.2064  0.2133 -1.8907
  106OSM    H6T10753   4.851   3.523   6.254  1.0497 -0.7099  1.4891
  106OSM    C7S10754   5.040   3.627   6.254 -0.3201  0.3690  0.0157
  106OSM    H7S10755   5.099   3.539   6.287 -0.0710  0.6887  0.4444
  106OSM    H7T10756   5.095   3.712   6.299 -0.3365 -0.9855  2.7975
  106OSM    C8S10757   5.060   3.628   6.100  0.2712 -0.1960 -0.0794
  106OSM    H8S10758   4.964   3.589   6.060  0.3227  2.1127 -2.7983
  106OSM    H8T10759   5.142   3.559   6.070 -1.0147 -0.8557 -2.3687
  106OSM    C9S10760   5.084   3.765   6.041 -0.1050 -0.5149 -0.9227
  106OSM    H9S10761   5.181   3.809   6.070 -0.2584  0.7221 -2.2063
  106OSM    H9T10762   5.006   3.828   6.089 -1.0802 -2.3592  0.0260
  106OSM   C10S10763   5.071   3.776   5.887 -0.6067 -0.1838 -1.2235
  106OSM   H10S10764   5.060   3.882   5.856 -0.6868  1.0529  2.6075
  106OSM   H10T10765   4.986   3.717   5.847  1.3544 -2.3445 -2.4768
  106OSM   C11S10766   5.198   3.708   5.819  0.3988  0.4112 -0.0969
  106OSM   H11S10767   5.200   3.599   5.839  0.3855  0.1522 -1.4409
  106OSM   H11T10768   5.285   3.767   5.854 -1.4771  2.0555  2.1912
  106OSM   C12S10769   5.197   3.731   5.666  0.3741  0.1177  0.5006
  106OSM   H12S10770   5.239   3.639   5.620 -0.4699  0.1270 -0.2997
  106OSM   H12T10771   5.264   3.818   5.649  1.2897 -0.4140  1.2611
  106OSM   C13S10772   5.061   3.753   5.595  0.5477  0.3992 -0.5533
  106OSM   H13S10773   5.029   3.858   5.609 -1.1502  0.1380 -2.1674
  106OSM   H13T10774   4.987   3.682   5.636  0.5783  0.8792  0.3572
  106OSM   C14S10775   5.067   3.737   5.442  0.2760  0.5234 -0.4852
  106OSM   H14S10776   4.969   3.751   5.393  0.5348  1.5325 -0.7323
  106OSM   H14T10777   5.103   3.633   5.425  1.9717  0.6770  1.7113
  106OSM   C15S10778   5.161   3.838   5.375 -0.2342  0.1799 -0.9374
  106OSM   H15S10779   5.263   3.824   5.416 -0.7356 -1.9270 -0.2614
  106OSM   H15T10780   5.127   3.942   5.394 -0.5383 -0.0701 -0.0742
  106OSM   C16S10781   5.170   3.825   5.225  0.2052  0.7150  0.4187
  106OSM   H16S10782   5.075   3.828   5.167  0.3403  1.5359  0.2265
  106OSM   H16T10783   5.220   3.730   5.195  0.6056  1.2715 -0.7226
  106OSM   C17S10784   5.273   3.920   5.162 -0.0837  0.4674  0.4495
  106OSM   H17S10785   5.341   3.866   5.092  0.2145 -1.5670  2.2010
  106OSM   H17T10786   5.342   3.952   5.243  1.3130  2.5266 -1.4339
  106OSM   C18S10787   5.208   4.046   5.101 -0.1085  0.8674  0.4750
  106OSM   H18S10788   5.284   4.097   5.037  0.4072  0.5687  0.8493
  106OSM   H18T10789   5.187   4.122   5.180  0.1605  2.1972 -0.6820
  106OSM   H18U10790   5.111   4.035   5.048  1.1770  0.8161 -2.0426
  106OSM    C1F10791   4.503   3.502   6.631 -0.1248 -0.0614 -0.6170
  106OSM     OF10792   4.412   3.583   6.658  0.0048  0.3277 -0.2969
  106OSM    C2F10793   4.470   3.362   6.589 -0.4088  0.3399  0.0661
  106OSM    H2F10794   4.360   3.351   6.580 -0.4166 -0.6259  1.1518
  106OSM    H2G10795   4.497   3.301   6.678 -1.0247 -0.7302 -0.4593
  106OSM    C3F10796   4.553   3.310   6.467  0.0093 -0.4518 -0.3622
  106OSM    H3F10797   4.510   3.210   6.446 -0.2591 -0.2439 -0.8038
  106OSM    H3G10798   4.662   3.312   6.490 -0.0658 -0.5168  0.0133
  106OSM    C4F10799   4.530   3.392   6.337  0.2641 -0.0273  0.0959
  106OSM    H4F10800   4.580   3.491   6.345 -1.7122  0.9734  0.7986
  106OSM    H4G10801   4.422   3.409   6.317 -0.0944 -1.5693  0.5826
  106OSM    C5F10802   4.592   3.318   6.216 -0.0417 -0.2993  0.6564
  106OSM    H5F10803   4.536   3.230   6.180  1.5094 -0.8821 -0.4559
  106OSM    H5G10804   4.692   3.273   6.237 -0.4497 -2.4470 -1.5663
  106OSM    C6F10805   4.610   3.414   6.093  0.1623  0.0247  0.7504
  106OSM    H6F10806   4.668   3.503   6.125 -1.3102  0.7296  1.5466
  106OSM    H6G10807   4.514   3.455   6.054 -0.7542 -3.0802 -0.6300
  106OSM    C7F10808   4.679   3.342   5.980 -0.5909  0.3728  0.6247
  106OSM    H7F10809   4.625   3.246   5.962 -1.1955  0.6911  0.7326
  106OSM    H7G10810   4.786   3.326   6.007 -0.8765  0.3266  1.7635
  106OSM    C8F10811   4.678   3.420   5.841 -0.1747  0.8991 -0.2350
  106OSM    H8F10812   4.710   3.525   5.860  1.2425  0.2595  1.1495
  106OSM    H8G10813   4.578   3.444   5.801 -0.0691 -0.4127 -1.3474
  106OSM    C9F10814   4.774   3.359   5.746 -0.4316 -0.2736  0.5535
  106OSM    H9F10815   4.866   3.324   5.794  0.4081  1.4455  0.2645
  106OSM   C10F10816   4.769   3.364   5.613 -0.6025 -0.2967  0.3410
  106OSM   H10F10817   4.849   3.308   5.564  1.5359  2.6639  0.1487
  106OSM   C11F10818   4.675   3.426   5.514 -0.2595 -0.1707 -0.3014
  106OSM   H11F10819   4.729   3.472   5.428 -0.8293 -0.3679 -0.7716
  106OSM   H11G10820   4.622   3.506   5.569 -2.6203 -1.1328 -1.0443
  106OSM   C12F10821   4.573   3.324   5.471  0.0683 -0.5196 -0.0807
  106OSM   H12F10822   4.506   3.380   5.403 -0.4031 -0.2411  0.5915
  106OSM   H12G10823   4.512   3.288   5.557  2.0833 -4.4682 -0.0667
  106OSM   C13F10824   4.629   3.204   5.396  0.0680 -0.0329  0.1599
  106OSM   H13F10825   4.691   3.146   5.467 -2.5465 -0.3498  2.3887
  106OSM   H13G10826   4.693   3.232   5.311  0.2264 -2.0900 -0.4519
  106OSM   C14F10827   4.524   3.106   5.351 -0.6783  0.2164  0.1979
  106OSM   H14F10828   4.444   3.153   5.290 -0.4688 -0.2521 -0.4413
  106OSM   H14G10829   4.476   3.052   5.436 -3.0883 -1.7875 -2.2699
  106OSM   C15F10830   4.557   2.985   5.259 -0.0276 -0.3896 -0.4706
  106OSM   H15F10831   4.467   2.918   5.263  0.1065 -0.5360  2.3968
  106OSM   H15G10832   4.632   2.933   5.322 -1.3406 -0.0476  1.4816
  106OSM   C16F10833   4.594   3.021   5.118 -0.4479 -0.3772 -0.7945
  106OSM   H16F10834   4.546   3.112   5.075  0.0800  0.0220 -0.5488
  106OSM   H16G10835   4.555   2.927   5.073  2.2586 -1.4685 -1.0144
  106OSM   C17F10836   4.747   3.033   5.089 -0.2528  0.4262  0.0801
  106OSM   H17F10837   4.795   2.944   5.136 -0.9414  1.5280  3.1070
  106OSM   H17G10838   4.789   3.128   5.128  0.6141  0.2647 -0.4299
  106OSM   C18F10839   4.776   3.029   4.944  0.1344 -0.4495 -0.1068
  106OSM   H18F10840   4.883   3.011   4.923 -0.0258 -0.9217 -0.5315
  106OSM   H18G10841   4.746   3.126   4.898 -1.6381 -1.5720 -1.4745
  106OSM   H18H10842   4.720   2.946   4.896  0.5002 -1.1882  0.7211
  107OSM      N10843   4.636   3.010   7.332  0.5048  0.1102  0.1452
  107OSM    C1510844   4.573   2.885   7.375  0.3344  0.6199  0.3925
  107OSM   H15A10845   4.505   2.849   7.299  0.6319 -3.5952  1.8416
  107OSM   H15B10846   4.517   2.897   7.467 -0.7687  0.4231 -0.2341
  107OSM   H15C10847   4.642   2.802   7.385  0.1801  0.2387 -1.4378
  107OSM    C1410848   4.729   3.051   7.439  0.3486 -0.3664 -0.5295
  107OSM   H14A10849   4.801   2.972   7.457  0.4435 -0.2231 -0.2737
  107OSM   H14B10850   4.686   3.073   7.535  0.4796  1.8048 -0.9255
  107OSM   H14C10851   4.786   3.138   7.410  0.9998 -1.2824 -2.1387
  107OSM    C1310852   4.703   2.990   7.202 -0.4672  0.5706  0.5169
  107OSM   H13A10853   4.626   2.961   7.132  0.3645 -0.5562  0.0371
  107OSM   H13B10854   4.775   2.909   7.209 -0.8813  0.0784 -0.6364
  107OSM   H13C10855   4.765   3.069   7.163  0.8606 -0.5886  0.1994
  107OSM    C1210856   4.531   3.121   7.322 -0.3046 -1.1039 -0.1022
  107OSM   H12A10857   4.582   3.215   7.309 -3.0201  0.2847 -1.6355
  107OSM   H12B10858   4.477   3.128   7.415 -0.4305 -0.1004 -0.2394
  107OSM    C1110859   4.436   3.111   7.202 -0.0491 -0.3948 -0.7397
  107OSM   H11A10860   4.344   3.166   7.231 -1.7548 -3.2183 -0.3062
  107OSM   H11B10861   4.395   3.010   7.178 -1.3946  0.1987 -1.0716
  107OSM      P10862   4.549   3.307   7.071 -0.0242  0.1405  0.3168
  107OSM    O1310863   4.467   3.382   6.974 -0.3528 -0.2056 -0.0680
  107OSM    O1410864   4.544   3.369   7.206  0.1953  0.4938 -0.2103
  107OSM    O1110865   4.701   3.291   7.019 -0.4135 -0.9724  0.0146
  107OSM    O1210866   4.500   3.161   7.088  0.0603 -0.0040 -0.1060
  107OSM    C1S10867   4.735   3.237   6.895  0.5532 -0.4363 -0.3214
  107OSM    H1S10868   4.703   3.312   6.819  2.0702 -0.9903 -1.5529
  107OSM    H1T10869   4.686   3.142   6.862 -0.6360  1.1676 -3.6366
  107OSM     NF10870   4.913   3.164   6.747  0.4503 -0.2178 -0.0913
  107OSM    HNF10871   4.917   3.064   6.749 -1.0960 -0.3315 -1.0509
  107OSM    C2S10872   4.888   3.226   6.873  0.1581  0.3756 -0.3047
  107OSM    H2S10873   4.924   3.331   6.864 -1.3956  1.0567  0.9716
  107OSM    C3S10874   4.953   3.156   6.987 -0.0113 -0.9235 -0.3170
  107OSM    H3S10875   4.913   3.053   6.983  1.2670 -1.6175  2.2221
  107OSM     O310876   4.927   3.203   7.123 -0.1691  0.3260 -0.4907
  107OSM    HO310877   4.837   3.235   7.115 -0.5023 -0.2344  0.8406
  107OSM    C4S10878   5.103   3.131   6.963 -0.7923 -0.4462 -0.4476
  107OSM    H4S10879   5.124   3.065   6.877  0.9000 -0.4387 -0.0668
  107OSM    C5S10880   5.207   3.196   7.021  0.4531 -0.3235 -0.5918
  107OSM    H5S10881   5.182   3.272   7.097  1.3670  0.1109 -0.7145
  107OSM    C6S10882   5.352   3.175   6.993 -0.4847  0.2046 -0.0445
  107OSM    H6S10883   5.408   3.133   7.080  1.0085  2.2678  0.0550
  107OSM    H6T10884   5.403   3.269   6.962 -1.0495  0.1348 -1.2074
  107OSM    C7S10885   5.375   3.080   6.868  0.3088 -0.3295 -0.6343
  107OSM    H7S10886   5.312   2.988   6.867 -0.3349  0.0120  1.7630
  107OSM    H7T10887   5.479   3.040   6.869  0.0723 -0.9538 -0.6846
  107OSM    C8S10888   5.350   3.137   6.732  0.0764 -0.6098  0.6134
  107OSM    H8S10889   5.418   3.225   6.721 -2.4676  1.5443  1.1654
  107OSM    H8T10890   5.249   3.182   6.728 -0.3660 -1.5733  0.8115
  107OSM    C9S10891   5.379   3.040   6.620  0.5416  0.2696  0.1422
  107OSM    H9S10892   5.301   2.961   6.617  0.8869 -0.0987  0.6679
  107OSM    H9T10893   5.470   2.977   6.632  0.0997 -0.9094 -2.0834
  107OSM   C10S10894   5.401   3.110   6.479  0.0281 -0.6235 -0.6839
  107OSM   H10S10895   5.481   3.183   6.501  1.4281 -1.5332 -2.4617
  107OSM   H10T10896   5.312   3.171   6.452  0.4448 -0.4968 -1.8163
  107OSM   C11S10897   5.424   3.019   6.362 -0.2204 -0.3814 -0.3057
  107OSM   H11S10898   5.327   2.966   6.356  0.3906 -2.2872  3.3696
  107OSM   H11T10899   5.504   2.944   6.385  0.6614  0.2874 -1.1281
  107OSM   C12S10900   5.465   3.097   6.236 -0.4874 -0.2089  0.0714
  107OSM   H12S10901   5.542   3.168   6.272  0.2624 -1.6207  1.4037
  107OSM   H12T10902   5.376   3.154   6.202 -0.3688 -0.5094 -0.7755
  107OSM   C13S10903   5.523   3.000   6.133 -0.3376  0.3959  0.1924
  107OSM   H13S10904   5.442   2.925   6.121  0.3955 -0.3899  0.0827
  107OSM   H13T10905   5.607   2.940   6.175  0.4987 -0.6247 -2.7328
  107OSM   C14S10906   5.567   3.066   6.006  0.2791  0.6957 -0.1115
  107OSM   H14S10907   5.652   3.138   6.017  1.4791 -0.4667 -1.4466
  107OSM   H14T10908   5.480   3.115   5.958 -0.8963 -2.5194 -1.4916
  107OSM   C15S10909   5.616   2.956   5.911 -0.3752  0.4452  0.4965
  107OSM   H15S10910   5.521   2.910   5.877 -0.5203  1.0745  0.0360
  107OSM   H15T10911   5.678   2.883   5.967 -0.4328  0.7631  0.9786
  107OSM   C16S10912   5.689   3.007   5.792 -0.3966 -0.1923 -0.8184
  107OSM   H16S10913   5.626   3.092   5.760 -2.5978 -2.2049 -2.2211
  107OSM   H16T10914   5.691   2.926   5.715  3.2880 -0.1562 -0.9399
  107OSM   C17S10915   5.836   3.046   5.813 -0.3153  0.0378  0.5650
  107OSM   H17S10916   5.856   3.077   5.918 -0.9508  2.4663  0.0293
  107OSM   H17T10917   5.861   3.138   5.757 -2.5769  0.4518  0.1404
  107OSM   C18S10918   5.934   2.937   5.770  0.3299  0.0479  0.0269
  107OSM   H18S10919   5.910   2.903   5.667 -0.4547 -1.4368  0.6577
  107OSM   H18T10920   5.917   2.849   5.836 -1.2400 -1.2199 -1.9528
  107OSM   H18U10921   6.041   2.962   5.787  0.3216 -0.8651  1.6694
  107OSM    C1F10922   4.896   3.232   6.632 -0.0006 -0.6818 -0.4719
  107OSM     OF10923   4.835   3.339   6.633 -0.2140  0.5781 -0.4002
  107OSM    C2F10924   4.990   3.184   6.529 -0.2626 -0.3770 -0.2077
  107OSM    H2F10925   4.995   3.074   6.541 -0.8106 -0.2974  1.0007
  107OSM    H2G10926   5.091   3.229   6.547 -0.6391  0.3477  0.1534
  107OSM    C3F10927   4.954   3.227   6.388  0.7416 -0.0482 -0.1823
  107OSM    H3F10928   4.946   3.338   6.386  0.4452 -0.0620  0.2416
  107OSM    H3G10929   4.859   3.182   6.352 -1.8442  2.4298  2.8719
  107OSM    C4F10930   5.058   3.180   6.283  0.1013 -0.3827  0.3004
  107OSM    H4F10931   5.070   3.070   6.280  0.7313 -0.2998 -0.6610
  107OSM    H4G10932   5.154   3.219   6.324  1.4444 -2.0460 -1.1144
  107OSM    C5F10933   5.017   3.224   6.136 -0.1100 -0.0439 -0.8807
  107OSM    H5F10934   4.997   3.332   6.148  0.1552 -0.1575  0.8916
  107OSM    H5G10935   4.926   3.172   6.101 -2.4633  3.2174 -0.0519
  107OSM    C6F10936   5.134   3.194   6.036  0.2623 -0.2179 -0.2517
  107OSM    H6F10937   5.157   3.087   6.057 -0.4462 -0.5370 -1.0600
  107OSM    H6G10938   5.218   3.261   6.065  2.2664 -2.3526 -0.7540
  107OSM    C7F10939   5.101   3.228   5.895 -0.3596 -0.3310  0.0333
  107OSM    H7F10940   5.046   3.325   5.891  1.4136  0.7726  1.0751
  107OSM    H7G10941   5.036   3.148   5.854  0.7939 -2.8269  2.6929
  107OSM    C8F10942   5.232   3.240   5.802  0.4694  0.7492  0.1078
  107OSM    H8F10943   5.265   3.135   5.787 -1.7638 -0.5032  3.0605
  107OSM    H8G10944   5.304   3.295   5.866  1.3597 -1.0873  0.7265
  107OSM    C9F10945   5.209   3.311   5.671  0.6988  1.1199 -0.1751
  107OSM    H9F10946   5.165   3.411   5.682  1.1531  1.1577  1.6049
  107OSM   C10F10947   5.233   3.270   5.550  0.5329  0.3682  0.4296
  107OSM   H10F10948   5.227   3.340   5.465 -1.2105 -0.0323  0.1907
  107OSM   C11F10949   5.292   3.138   5.509 -0.2575 -0.2690  0.3613
  107OSM   H11F10950   5.230   3.082   5.436 -1.4851 -1.1593  2.0066
  107OSM   H11G10951   5.299   3.067   5.595 -1.7334  0.2799  0.9674
  107OSM   C12F10952   5.438   3.155   5.460 -0.2536  0.2903 -0.1148
  107OSM   H12F10953   5.495   3.205   5.541  0.4682  1.3406 -1.2283
  107OSM   H12G10954   5.442   3.225   5.374 -0.0819 -0.2873 -0.5881
  107OSM   C13F10955   5.516   3.022   5.431  1.2550 -0.3438  0.3856
  107OSM   H13F10956   5.508   2.937   5.503 -1.4739 -1.6309 -1.2577
  107OSM   H13G10957   5.620   3.060   5.444  0.3465  1.5720  3.2193
  107OSM   C14F10958   5.490   2.966   5.288 -0.0810 -0.0795 -0.0520
  107OSM   H14F10959   5.382   2.970   5.265 -0.5241  0.2652  1.8997
  107OSM   H14G10960   5.520   2.860   5.297  0.5223  0.1193  0.4451
  107OSM   C15F10961   5.581   3.041   5.188  0.1074 -0.1801  0.1360
  107OSM   H15F10962   5.559   3.150   5.188  0.2035 -0.1603  0.0241
  107OSM   H15G10963   5.561   3.012   5.082  2.3182  2.0869 -0.9943
  107OSM   C16F10964   5.727   3.008   5.197  0.9741  0.8371 -0.1306
  107OSM   H16F10965   5.742   2.899   5.179  1.0732  0.2898  2.7230
  107OSM   H16G10966   5.772   3.039   5.294 -0.2791 -0.4193  0.8829
  107OSM   C17F10967   5.800   3.072   5.072  0.2671  0.4974 -0.8858
  107OSM   H17F10968   5.783   3.177   5.042  2.4410  0.4014 -2.7501
  107OSM   H17G10969   5.773   3.021   4.977  2.2501 -0.2075 -1.1271
  107OSM   C18F10970   5.953   3.053   5.088 -0.0244  0.2801 -0.5105
  107OSM   H18F10971   5.978   3.094   5.188 -0.7768 -3.3872  1.3630
  107OSM   H18G10972   6.000   3.120   5.014 -0.0538  4.4554  2.8934
  107OSM   H18H10973   5.988   2.947   5.086  1.4239  0.7459 -1.3543
  108OSM      N10974   0.950   1.747   7.441 -0.2010 -0.6168  0.5940
  108OSM    C1510975   0.866   1.817   7.544  0.2261 -0.0358 -0.4405
  108OSM   H15A10976   0.888   1.764   7.635  0.3622 -1.1121 -1.0829
  108OSM   H15B10977   0.760   1.820   7.525  0.3181 -2.2979 -1.6635
  108OSM   H15C10978   0.904   1.916   7.568  0.5228  0.2053 -1.8129
  108OSM    C1410979   0.961   1.833   7.315  0.5005 -0.0038 -0.0609
  108OSM   H14A10980   1.005   1.785   7.229  0.6573 -1.0436  0.5809
  108OSM   H14B10981   1.007   1.929   7.335  3.2986 -1.4294  0.6807
  108OSM   H14C10982   0.862   1.848   7.274  1.9323  0.2206 -3.8079
  108OSM    C1310983   1.089   1.721   7.481 -0.7138 -0.4561 -0.2569
  108OSM   H13A10984   1.142   1.814   7.497  0.0090 -0.2410 -3.2455
  108OSM   H13B10985   1.140   1.670   7.400  0.8291  0.8981 -0.2108
  108OSM   H13C10986   1.102   1.662   7.570 -0.7020  1.3487  1.0107
  108OSM    C1210987   0.877   1.621   7.395  0.3065  0.4662 -0.2356
  108OSM   H12A10988   0.870   1.541   7.467 -0.0097  1.4848  0.9039
  108OSM   H12B10989   0.934   1.572   7.318 -0.2204  0.6441 -0.7365
  108OSM    C1110990   0.738   1.640   7.335  0.0942 -0.7458 -0.5029
  108OSM   H11A10991   0.721   1.548   7.275  0.1142 -0.2559 -1.2690
  108OSM   H11B10992   0.735   1.730   7.270 -1.3977 -0.0583  0.4592
  108OSM      P10993   0.518   1.735   7.454 -0.1933 -0.3567  0.5466
  108OSM    O1310994   0.406   1.657   7.513 -0.4942  0.2013  0.0292
  108OSM    O1410995   0.566   1.848   7.533  0.3381  0.2032 -0.0749
  108OSM    O1110996   0.492   1.784   7.306 -0.1057 -0.0345  0.3199
  108OSM    O1210997   0.650   1.647   7.447 -0.7106 -0.2704  0.6204
  108OSM    C1S10998   0.447   1.683   7.203  0.6419  0.0462  0.4340
  108OSM    H1S10999   0.365   1.619   7.242 -0.1872  0.7877 -0.0733
  108OSM    H1T11000   0.527   1.616   7.164  0.3188  0.6225 -1.2634
  108OSM     NF11001   0.343   1.666   6.975 -0.1928  0.4698  0.4593
  108OSM    HNF11002   0.413   1.653   6.906  0.1070  1.0841  0.6417
  108OSM    C2S11003   0.389   1.758   7.080 -0.0626 -0.0951  0.6625
  108OSM    H2S11004   0.303   1.811   7.126  0.2310 -0.7116  1.9700
  108OSM    C3S11005   0.506   1.842   7.019  0.7974  0.0087  0.4363
  108OSM    H3S11006   0.587   1.776   6.982  1.1857  1.0632 -0.6759
  108OSM     O311007   0.564   1.933   7.108 -0.1442 -0.8360 -0.0646
  108OSM    HO311008   0.527   1.909   7.193  0.3197  0.1433  0.4324
  108OSM    C4S11009   0.468   1.911   6.895 -0.9673  0.0019  0.3046
  108OSM    H4S11010   0.499   1.852   6.808 -2.2044 -0.3119  0.0585
  108OSM    C5S11011   0.402   2.027   6.882 -0.2000 -0.4138 -0.1557
  108OSM    H5S11012   0.369   2.084   6.970  1.0441  1.4918 -0.8513
  108OSM    C6S11013   0.383   2.082   6.744  0.0965  0.1264  0.0268
  108OSM    H6S11014   0.430   2.033   6.656 -0.9026 -0.7303 -0.0552
  108OSM    H6T11015   0.430   2.183   6.747  0.0465  0.1433  1.8016
  108OSM    C7S11016   0.235   2.101   6.714 -0.5708  0.5560 -0.2978
  108OSM    H7S11017   0.193   2.150   6.805  0.0484 -0.1915  0.4147
  108OSM    H7T11018   0.166   2.015   6.701  1.1932 -0.9086 -0.3351
  108OSM    C8S11019   0.208   2.190   6.591 -0.2804  0.2870  0.2680
  108OSM    H8S11020   0.289   2.265   6.583  0.2247 -0.4209 -2.7050
  108OSM    H8T11021   0.108   2.240   6.591  0.2121  1.3327 -0.5723
  108OSM    C9S11022   0.215   2.112   6.456 -0.1458  0.4857 -0.4607
  108OSM    H9S11023   0.132   2.040   6.469  0.3815  0.2251  2.1787
  108OSM    H9T11024   0.315   2.067   6.441 -0.7181 -0.1208 -2.8906
  108OSM   C10S11025   0.189   2.211   6.343  0.5104  0.1699 -0.2662
  108OSM   H10S11026   0.275   2.280   6.328  2.6318 -2.0339  1.1232
  108OSM   H10T11027   0.094   2.263   6.371 -0.0062 -0.7249 -0.3216
  108OSM   C11S11028   0.147   2.130   6.216 -0.1618  0.5860 -0.0619
  108OSM   H11S11029   0.067   2.062   6.250 -0.6168  0.0805 -1.9989
  108OSM   H11T11030   0.237   2.075   6.183  1.2192  2.6803 -0.0170
  108OSM   C12S11031   0.094   2.215   6.107  0.2986  0.0440 -0.2243
  108OSM   H12S11032   0.177   2.276   6.065 -0.8900  1.0312 -1.1953
  108OSM   H12T11033   0.017   2.288   6.140  2.0506  1.3375  1.2126
  108OSM   C13S11034   0.049   2.130   5.992  0.6409 -0.2738 -0.1071
  108OSM   H13S11035  -0.030   2.058   6.022  2.2903 -2.1483 -0.0320
  108OSM   H13T11036   0.142   2.077   5.961  2.7137  2.6692  0.6372
  108OSM   C14S11037  -0.012   2.229   5.888  0.7009  0.5009 -0.4753
  108OSM   H14S11038  -0.076   2.298   5.948  2.0033  1.6634 -0.3744
  108OSM   H14T11039  -0.060   2.161   5.815 -0.7058  0.4736  0.4363
  108OSM   C15S11040   0.096   2.296   5.802  0.6050  0.2586 -0.3905
  108OSM   H15S11041   0.165   2.222   5.757  0.9473 -0.8637  1.8448
  108OSM   H15T11042   0.146   2.363   5.876 -1.2472  2.1779 -0.7583
  108OSM   C16S11043   0.046   2.378   5.685  1.2448 -0.3734  0.0648
  108OSM   H16S11044  -0.031   2.454   5.714  0.2072 -1.7859  1.1332
  108OSM   H16T11045  -0.005   2.312   5.612  2.2108 -1.0066 -0.0466
  108OSM   C17S11046   0.167   2.443   5.619 -0.6716 -0.2334  0.4534
  108OSM   H17S11047   0.247   2.367   5.606 -0.8872 -0.1329 -1.8099
  108OSM   H17T11048   0.207   2.529   5.677 -0.3161  0.7047 -1.1217
  108OSM   C18S11049   0.131   2.506   5.488  0.3589 -0.4896 -0.0612
  108OSM   H18S11050   0.089   2.440   5.409  0.4315 -1.7585  0.9333
  108OSM   H18T11051   0.203   2.572   5.435 -1.2940  3.0062  1.6347
  108OSM   H18U11052   0.063   2.592   5.510  1.4550  0.9056 -1.7807
  108OSM    C1F11053   0.232   1.599   6.983  0.1559 -0.0528  0.1414
  108OSM     OF11054   0.148   1.630   7.067 -0.0640 -0.2414 -0.5997
  108OSM    C2F11055   0.205   1.499   6.878  0.6945  0.4052  0.2009
  108OSM    H2F11056   0.234   1.399   6.916  0.8640  0.0574 -0.7966
  108OSM    H2G11057   0.272   1.519   6.791 -1.2125  1.0282 -1.2213
  108OSM    C3F11058   0.060   1.498   6.836  0.1370  0.6572  0.2280
  108OSM    H3F11059   0.037   1.603   6.807  0.7932  0.2685 -1.8658
  108OSM    H3G11060  -0.010   1.468   6.916  0.8740 -2.4268 -0.1627
  108OSM    C4F11061   0.038   1.411   6.713  0.2898  0.3449 -0.4327
  108OSM    H4F11062   0.036   1.304   6.742 -1.7966  0.3536 -0.3875
  108OSM    H4G11063   0.112   1.430   6.632  0.8630 -1.5668 -0.3971
  108OSM    C5F11064  -0.091   1.440   6.635  0.2845  0.8162  0.2241
  108OSM    H5F11065  -0.109   1.550   6.633  0.3520  0.8217 -0.5788
  108OSM    H5G11066  -0.181   1.397   6.682  0.1991 -0.8778 -1.3607
  108OSM    C6F11067  -0.092   1.402   6.487 -0.2959 -0.3577  0.1932
  108OSM    H6F11068  -0.025   1.466   6.426 -0.0317 -0.3971  0.4413
  108OSM    H6G11069  -0.199   1.414   6.459 -0.7868 -0.8986  1.7273
  108OSM    C7F11070  -0.053   1.257   6.460 -0.9615  0.2077 -0.2246
  108OSM    H7F11071  -0.125   1.186   6.507 -0.8624  0.7213  0.7358
  108OSM    H7G11072   0.045   1.239   6.509 -1.1489  0.0649  0.0977
  108OSM    C8F11073  -0.020   1.228   6.312 -0.5291  0.1366 -0.3113
  108OSM    H8F11074   0.011   1.122   6.312 -0.3897  0.1722  0.5891
  108OSM    H8G11075   0.058   1.296   6.272 -1.3714  1.2287 -0.1622
  108OSM    C9F11076  -0.143   1.234   6.229  0.0768 -1.4370 -0.4249
  108OSM    H9F11077  -0.237   1.246   6.286 -0.9035  1.0896 -2.3577
  108OSM   C10F11078  -0.154   1.229   6.095 -0.1809 -0.6851 -0.9447
  108OSM   H10F11079  -0.257   1.236   6.057 -0.1053 -1.1823 -1.2598
  108OSM   C11F11080  -0.046   1.205   5.992  0.2933  0.1815  0.2744
  108OSM   H11F11081  -0.052   1.105   5.944  2.3563  0.1989 -0.1008
  108OSM   H11G11082   0.052   1.206   6.043 -0.3701 -0.7454  1.6284
  108OSM   C12F11083  -0.025   1.308   5.879 -0.3201 -0.3054 -0.5327
  108OSM   H12F11084   0.084   1.305   5.856 -0.2401  2.8990 -1.0349
  108OSM   H12G11085  -0.043   1.410   5.917 -0.4365 -1.1875  1.9615
  108OSM   C13F11086  -0.104   1.278   5.752  0.2051  0.3795 -0.3841
  108OSM   H13F11087  -0.205   1.246   5.787  1.4442 -0.6512  2.5396
  108OSM   H13G11088  -0.064   1.197   5.688  3.7549 -0.4304  2.5390
  108OSM   C14F11089  -0.115   1.407   5.670  0.1121  0.3844  0.3307
  108OSM   H14F11090  -0.015   1.432   5.628  0.0807 -1.3837 -0.8964
  108OSM   H14G11091  -0.159   1.486   5.734  1.4006  1.0914  0.3835
  108OSM   C15F11092  -0.195   1.390   5.543  0.0077 -0.4228 -0.2406
  108OSM   H15F11093  -0.292   1.344   5.570 -0.9445  1.5270 -0.1139
  108OSM   H15G11094  -0.134   1.324   5.478 -0.3420  0.0809 -1.0947
  108OSM   C16F11095  -0.224   1.525   5.470 -0.2968 -0.2244 -0.3875
  108OSM   H16F11096  -0.125   1.570   5.448 -0.0506 -0.4765  0.1786
  108OSM   H16G11097  -0.276   1.598   5.536  3.9871  1.1739  1.8487
  108OSM   C17F11098  -0.312   1.505   5.352  0.6366  0.1839  0.0597
  108OSM   H17F11099  -0.384   1.423   5.366 -0.4299  1.0433 -0.2395
  108OSM   H17G11100  -0.235   1.470   5.280  2.2580  3.0326  0.2380
  108OSM   C18F11101  -0.383   1.624   5.293 -0.2955  0.0962 -0.1693
  108OSM   H18F11102  -0.481   1.632   5.344 -0.2199  0.9336 -0.1404
  108OSM   H18G11103  -0.388   1.632   5.182  1.7571 -1.4095 -0.4200
  108OSM   H18H11104  -0.324   1.713   5.324  1.4786 -1.2825  0.5952
  109OSM      N11105   3.766   3.996   7.541  0.0036 -0.0063 -0.8852
  109OSM    C1511106   3.858   4.026   7.652 -0.1799  0.0313 -0.7345
  109OSM   H15A11107   3.921   3.940   7.670 -1.3426 -0.8652 -0.8221
  109OSM   H15B11108   3.801   4.040   7.743 -1.2972 -0.1997 -1.3826
  109OSM   H15C11109   3.924   4.108   7.630  0.7527 -0.1802  1.0943
  109OSM    C1411110   3.674   3.882   7.586 -0.2888 -0.0037  0.2836
  109OSM   H14A11111   3.731   3.796   7.616  0.6379  0.4182 -0.2350
  109OSM   H14B11112   3.609   3.853   7.505  1.8939 -1.7900 -0.9212
  109OSM   H14C11113   3.613   3.926   7.664  2.2193  1.3481  1.6045
  109OSM    C1311114   3.695   4.119   7.508 -0.0596 -0.5249 -0.1968
  109OSM   H13A11115   3.619   4.100   7.434  0.4072 -1.9973 -0.3376
  109OSM   H13B11116   3.756   4.199   7.469 -3.3870  1.7939 -1.0465
  109OSM   H13C11117   3.644   4.149   7.598  0.6605 -0.1930  0.1051
  109OSM    C1211118   3.845   3.950   7.417 -0.2958  1.1835  0.7131
  109OSM   H12A11119   3.900   3.858   7.433 -0.3139  0.9654 -0.3643
  109OSM   H12B11120   3.928   4.017   7.401  0.5116 -0.0129 -0.3815
  109OSM    C1111121   3.784   3.931   7.274 -0.2662  0.6824 -0.3513
  109OSM   H11A11122   3.688   3.877   7.289 -0.3521  1.3744  1.9102
  109OSM   H11B11123   3.848   3.871   7.206 -0.8525  0.7930 -1.0183
  109OSM      P11124   3.616   4.098   7.150  0.1079  0.3596 -0.0330
  109OSM    O1311125   3.514   4.010   7.206  0.0984  0.0306  0.1667
  109OSM    O1411126   3.604   4.239   7.171  0.1206 -0.2751 -0.6486
  109OSM    O1111127   3.627   4.060   6.999  0.1809 -0.6348  0.6881
  109OSM    O1211128   3.761   4.062   7.214 -0.3960  0.4680 -0.2236
  109OSM    C1S11129   3.738   3.982   6.946 -0.6617 -0.1300 -0.5329
  109OSM    H1S11130   3.727   3.874   6.970 -1.1992 -0.4092 -1.9028
  109OSM    H1T11131   3.838   4.011   6.984 -0.4138  0.7632 -1.8089
  109OSM     NF11132   3.886   3.924   6.762 -0.3763 -0.7023  0.1506
  109OSM    HNF11133   3.972   3.973   6.750 -1.4039  0.9759 -0.6394
  109OSM    C2S11134   3.759   3.994   6.796  0.4713 -0.5076  0.0038
  109OSM    H2S11135   3.677   3.935   6.750 -1.1632 -0.8647  3.1065
  109OSM    C3S11136   3.741   4.136   6.737  0.1293 -0.4158 -0.4528
  109OSM    H3S11137   3.788   4.202   6.812 -1.5809  2.1770 -1.5056
  109OSM     O311138   3.609   4.200   6.730 -0.1862 -0.0070  0.1545
  109OSM    HO311139   3.561   4.133   6.780 -0.1795 -0.5956 -0.6045
  109OSM    C4S11140   3.809   4.159   6.608 -0.3265 -0.3332 -0.2271
  109OSM    H4S11141   3.916   4.182   6.609  0.3187 -3.0883 -0.2125
  109OSM    C5S11142   3.749   4.159   6.490  0.1426  0.4378 -0.0198
  109OSM    H5S11143   3.642   4.138   6.476 -0.1121  1.6180  0.0433
  109OSM    C6S11144   3.811   4.170   6.362 -0.6563 -0.6018  0.3776
  109OSM    H6S11145   3.920   4.181   6.385 -0.3244  2.2300 -1.9517
  109OSM    H6T11146   3.776   4.267   6.322  0.3768 -0.0823  0.6997
  109OSM    C7S11147   3.793   4.058   6.259  0.8488  0.7065 -0.0250
  109OSM    H7S11148   3.691   4.063   6.215 -0.3883  0.4081  2.6360
  109OSM    H7T11149   3.807   3.961   6.311 -1.0326  0.9392  0.9928
  109OSM    C8S11150   3.892   4.078   6.146  0.6063  0.0044  0.4592
  109OSM    H8S11151   3.994   4.051   6.179  0.1995  0.3820  2.1323
  109OSM    H8T11152   3.887   4.186   6.119  1.5960  0.5578  2.3464
  109OSM    C9S11153   3.858   3.989   6.021  0.1425 -0.3600  0.2336
  109OSM    H9S11154   3.760   4.025   5.985 -0.5551  1.1685  3.2999
  109OSM    H9T11155   3.841   3.887   6.062  1.7008 -0.2591  1.2107
  109OSM   C10S11156   3.953   4.007   5.917 -0.5901 -0.3941  0.3969
  109OSM   H10S11157   4.054   3.984   5.957 -0.0550  0.9107 -0.1661
  109OSM   H10T11158   3.967   4.110   5.880 -0.0219 -0.5630  0.1251
  109OSM   C11S11159   3.937   3.918   5.795  0.8072 -0.1233 -0.2775
  109OSM   H11S11160   4.034   3.924   5.740  0.6808  0.8203 -0.4064
  109OSM   H11T11161   3.861   3.966   5.730 -0.0474 -0.7660  0.2371
  109OSM   C12S11162   3.908   3.774   5.819 -0.1243 -0.8646  0.0356
  109OSM   H12S11163   3.805   3.773   5.860 -1.4794 -0.1606 -3.0623
  109OSM   H12T11164   3.972   3.743   5.904 -0.6102  1.5086  1.3593
  109OSM   C13S11165   3.921   3.678   5.707 -0.2553 -0.2223  0.7083
  109OSM   H13S11166   3.899   3.576   5.746  2.6521 -0.6117  1.6529
  109OSM   H13T11167   4.029   3.663   5.684 -0.4638 -2.1971  0.8218
  109OSM   C14S11168   3.826   3.698   5.591  0.3507  0.4156 -0.4595
  109OSM   H14S11169   3.855   3.793   5.540  0.2200  0.1881 -0.9680
  109OSM   H14T11170   3.719   3.704   5.619  0.3108  1.4314 -0.7891
  109OSM   C15S11171   3.835   3.584   5.489 -1.1417  0.1659  1.1752
  109OSM   H15S11172   3.817   3.486   5.537  0.3900 -1.2690 -0.9649
  109OSM   H15T11173   3.941   3.579   5.454 -1.8080 -0.9146 -0.8438
  109OSM   C16S11174   3.753   3.598   5.362 -0.1294  0.2060 -0.6321
  109OSM   H16S11175   3.759   3.696   5.310  0.7832 -0.7062 -2.3050
  109OSM   H16T11176   3.651   3.586   5.404  0.9714  0.8554  2.5518
  109OSM   C17S11177   3.783   3.489   5.261  0.0761  0.1550  0.8106
  109OSM   H17S11178   3.785   3.390   5.312  1.4941 -0.3183 -0.0815
  109OSM   H17T11179   3.876   3.511   5.204 -1.7116  3.2755 -1.1536
  109OSM   C18S11180   3.669   3.459   5.154  0.3273  0.1449 -0.2825
  109OSM   H18S11181   3.695   3.380   5.081  0.8426 -0.8703  0.9545
  109OSM   H18T11182   3.621   3.547   5.106 -2.8177 -1.1170  0.2342
  109OSM   H18U11183   3.581   3.415   5.206  1.0799  0.7582  1.5769
  109OSM    C1F11184   3.903   3.794   6.769  0.7797  0.0966  0.6177
  109OSM     OF11185   3.816   3.719   6.812  0.3178  0.0149  0.5043
  109OSM    C2F11186   4.029   3.740   6.710  0.6476  0.0554  0.5171
  109OSM    H2F11187   4.095   3.716   6.796  0.9164 -2.0280 -0.2263
  109OSM    H2G11188   4.072   3.828   6.657 -2.7590  0.7189 -1.4413
  109OSM    C3F11189   4.002   3.639   6.595 -0.0390  0.3602 -0.1465
  109OSM    H3F11190   3.935   3.557   6.628  0.5856  0.1274  0.5830
  109OSM    H3G11191   4.096   3.587   6.567 -0.1003  1.0632 -1.7828
  109OSM    C4F11192   3.953   3.702   6.461 -0.2607 -0.4819 -0.1013
  109OSM    H4F11193   4.028   3.772   6.419 -1.2734  1.3913  1.0565
  109OSM    H4G11194   3.852   3.746   6.481 -0.2105 -0.1004 -0.6858
  109OSM    C5F11195   3.949   3.595   6.358 -0.1562  0.4331  0.2997
  109OSM    H5F11196   3.898   3.503   6.395  0.5045 -1.0682 -2.2972
  109OSM    H5G11197   4.054   3.564   6.343 -0.3324 -1.3609  2.2271
  109OSM    C6F11198   3.875   3.644   6.236  0.2973 -0.3121  0.6990
  109OSM    H6F11199   3.943   3.700   6.167  0.3195  1.2570  1.9331
  109OSM    H6G11200   3.798   3.718   6.269 -0.4589  0.5087 -2.4867
  109OSM    C7F11201   3.808   3.530   6.155 -0.0101  0.6336 -0.1992
  109OSM    H7F11202   3.870   3.438   6.170 -1.6541 -0.8833 -2.1251
  109OSM    H7G11203   3.807   3.548   6.046  0.1555 -0.8108 -0.4680
  109OSM    C8F11204   3.661   3.501   6.200 -0.3648 -0.6029 -0.2232
  109OSM    H8F11205   3.657   3.519   6.309  0.9341  1.3944 -0.4577
  109OSM    H8G11206   3.635   3.395   6.179 -0.7810 -0.8156  1.2630
  109OSM    C9F11207   3.568   3.583   6.117  0.4468 -0.1870 -0.5315
  109OSM    H9F11208   3.595   3.689   6.113  3.4955 -0.6945  2.1931
  109OSM   C10F11209   3.456   3.536   6.058 -0.4620  0.0203  0.4208
  109OSM   H10F11210   3.409   3.607   5.988 -1.3999  0.4701  1.4835
  109OSM   C11F11211   3.423   3.394   6.052  0.2465  0.0069  0.4040
  109OSM   H11F11212   3.446   3.332   6.142 -0.4556 -1.8965 -0.6615
  109OSM   H11G11213   3.460   3.344   5.959  0.0791  0.9523 -0.1783
  109OSM   C12F11214   3.266   3.384   6.039 -0.1958  0.1200 -0.0380
  109OSM   H12F11215   3.222   3.425   6.132  0.9534  1.6564 -0.1353
  109OSM   H12G11216   3.253   3.273   6.035  0.5906  0.0049  0.3980
  109OSM   C13F11217   3.208   3.441   5.910  0.3405  0.0578 -0.0562
  109OSM   H13F11218   3.278   3.426   5.825 -0.2738 -0.8227 -0.4244
  109OSM   H13G11219   3.178   3.547   5.918 -1.8098 -0.4109 -1.2311
  109OSM   C14F11220   3.084   3.353   5.872 -0.0129  0.7800 -0.4437
  109OSM   H14F11221   3.009   3.364   5.953 -2.4036 -0.0054 -2.4054
  109OSM   H14G11222   3.104   3.246   5.895 -2.9001  0.5732  1.5560
  109OSM   C15F11223   3.021   3.364   5.734 -0.7705 -0.2958 -0.6190
  109OSM   H15F11224   3.101   3.326   5.667 -1.1978 -0.1525 -1.2195
  109OSM   H15G11225   2.992   3.467   5.705 -0.3710 -0.4384 -1.5561
  109OSM   C16F11226   2.895   3.274   5.713  0.0858 -0.1288  0.7091
  109OSM   H16F11227   2.816   3.305   5.784  0.6663  0.8507  0.9560
  109OSM   H16G11228   2.920   3.172   5.749  2.1653  0.4649  1.0629
  109OSM   C17F11229   2.838   3.273   5.568  0.0453  0.0593 -0.2820
  109OSM   H17F11230   2.753   3.202   5.558 -1.3915  1.6924 -0.0964
  109OSM   H17G11231   2.915   3.228   5.501 -0.0485 -0.2311 -0.1970
  109OSM   C18F11232   2.804   3.407   5.497  0.4937  0.6480 -0.8921
  109OSM   H18F11233   2.889   3.477   5.506  1.9580 -1.0644 -0.7215
  109OSM   H18G11234   2.718   3.456   5.547 -0.0778 -0.8810 -0.3251
  109OSM   H18H11235   2.782   3.393   5.389 -1.3167 -3.3827 -0.1790
  110OSM      N11236   4.595   0.390   7.331  0.1380  0.1913 -0.4423
  110OSM    C1511237   4.545   0.418   7.191  0.5177  0.3624 -0.1864
  110OSM   H15A11238   4.484   0.334   7.160 -0.1501  0.4192  0.9007
  110OSM   H15B11239   4.627   0.422   7.122  0.5214  2.1170 -0.1227
  110OSM   H15C11240   4.483   0.507   7.192  1.6508  1.2109  1.8239
  110OSM    C1411241   4.479   0.412   7.429 -0.3833  0.3735 -0.0473
  110OSM   H14A11242   4.507   0.369   7.524  1.1877 -1.7414 -1.3642
  110OSM   H14B11243   4.381   0.384   7.392 -1.1754 -0.6470  2.5506
  110OSM   H14C11244   4.460   0.517   7.444  1.8831  0.5991  1.6502
  110OSM    C1311245   4.642   0.248   7.328 -0.1545 -0.7114 -0.2057
  110OSM   H13A11246   4.557   0.189   7.300  0.1266 -0.8131 -0.8670
  110OSM   H13B11247   4.684   0.218   7.423 -0.2001  0.4614  0.2084
  110OSM   H13C11248   4.712   0.229   7.248  0.1601 -1.5762  0.2695
  110OSM    C1211249   4.701   0.492   7.382 -0.3121  0.0577  0.7237
  110OSM   H12A11250   4.728   0.465   7.483  1.5921  2.1509  0.8609
  110OSM   H12B11251   4.663   0.593   7.378 -2.2264 -0.6440 -0.9238
  110OSM    C1111252   4.843   0.489   7.297  0.1338  0.1547 -0.4787
  110OSM   H11A11253   4.888   0.390   7.319 -0.5008 -0.2100 -0.7798
  110OSM   H11B11254   4.910   0.569   7.336  0.4642  0.4593 -1.6209
  110OSM      P11255   4.808   0.627   7.085  0.0080  0.0575 -0.0069
  110OSM    O1311256   4.730   0.723   7.167 -0.2693  0.4765  0.1624
  110OSM    O1411257   4.929   0.682   7.034 -0.7936 -0.4652 -0.0167
  110OSM    O1111258   4.714   0.581   6.964  0.4829 -0.6676 -0.6113
  110OSM    O1211259   4.834   0.485   7.155  0.0927 -0.4353  0.0871
  110OSM    C1S11260   4.710   0.664   6.849  0.2537  0.6834  0.2465
  110OSM    H1S11261   4.800   0.646   6.787 -0.3990 -1.3971 -0.1640
  110OSM    H1T11262   4.696   0.773   6.864 -0.3844  0.9645 -2.0137
  110OSM     NF11263   4.609   0.683   6.623 -0.3361 -0.8733  0.7423
  110OSM    HNF11264   4.576   0.775   6.602  0.0497 -0.9613 -0.3251
  110OSM    C2S11265   4.583   0.636   6.756  0.4278  0.2720 -0.1205
  110OSM    H2S11266   4.571   0.526   6.741  0.9256  0.3751 -1.3993
  110OSM    C3S11267   4.456   0.687   6.825  0.0541 -0.8510  0.0861
  110OSM    H3S11268   4.467   0.796   6.841 -3.3072 -0.5511  0.9354
  110OSM     O311269   4.426   0.630   6.953 -0.7209  0.0224 -0.3500
  110OSM    HO311270   4.502   0.572   6.959 -0.2916  0.2930 -2.4415
  110OSM    C4S11271   4.330   0.669   6.746  0.2039 -0.5442  0.1561
  110OSM    H4S11272   4.305   0.565   6.719 -2.3086  0.2531 -0.9103
  110OSM    C5S11273   4.245   0.773   6.719 -0.4409 -0.1942 -0.2264
  110OSM    H5S11274   4.261   0.866   6.775  1.2510 -0.6979  0.1804
  110OSM    C6S11275   4.125   0.760   6.634  0.4240 -0.4477  0.2020
  110OSM    H6S11276   4.042   0.822   6.673  1.3542  1.0627 -0.1428
  110OSM    H6T11277   4.101   0.654   6.609 -0.2304 -0.2442 -0.0613
  110OSM    C7S11278   4.153   0.821   6.500  0.8207  0.4834 -0.0279
  110OSM    H7S11279   4.186   0.927   6.513  0.8661  0.4431  0.1842
  110OSM    H7T11280   4.056   0.829   6.447 -0.4342  0.6674  2.1824
  110OSM    C8S11281   4.252   0.742   6.410 -0.5926 -0.5997  0.6830
  110OSM    H8S11282   4.193   0.649   6.399 -0.3018 -0.9162  1.7137
  110OSM    H8T11283   4.340   0.720   6.473  0.2693 -0.8394 -0.5719
  110OSM    C9S11284   4.279   0.817   6.282  0.3640  0.1482  0.5012
  110OSM    H9S11285   4.364   0.888   6.293  1.5975  0.0061 -5.1150
  110OSM    H9T11286   4.196   0.873   6.235  0.8612 -0.0505 -0.6493
  110OSM   C10S11287   4.325   0.730   6.170 -0.6572  0.5298 -0.5320
  110OSM   H10S11288   4.243   0.658   6.152  1.0507 -2.1091  1.4319
  110OSM   H10T11289   4.410   0.666   6.204  0.5603  1.1358 -2.2605
  110OSM   C11S11290   4.366   0.803   6.041  0.2178  0.1419  0.2714
  110OSM   H11S11291   4.463   0.857   6.055  1.1953 -1.6033  0.4636
  110OSM   H11T11292   4.290   0.883   6.025  0.5227  0.5046  0.5919
  110OSM   C12S11293   4.380   0.710   5.925 -0.3177  0.6589  0.3188
  110OSM   H12S11294   4.279   0.693   5.883 -0.6165 -1.4001  1.7026
  110OSM   H12T11295   4.415   0.608   5.950  1.2282  1.5248  1.9312
  110OSM   C13S11296   4.476   0.773   5.824  0.0200  0.3695  0.7305
  110OSM   H13S11297   4.581   0.774   5.859  0.3171 -0.2183 -0.1152
  110OSM   H13T11298   4.441   0.876   5.801 -0.7637  0.0709  0.5290
  110OSM   C14S11299   4.480   0.692   5.693  0.3506  0.0994 -0.1367
  110OSM   H14S11300   4.379   0.647   5.680  0.6768 -0.6639 -0.1000
  110OSM   H14T11301   4.550   0.608   5.710  0.2005  0.1368  0.7171
  110OSM   C15S11302   4.527   0.763   5.575 -0.5854 -1.0350  0.9788
  110OSM   H15S11303   4.625   0.810   5.597  0.8801 -2.7461 -1.4474
  110OSM   H15T11304   4.444   0.835   5.556  1.2516  1.0174  0.3134
  110OSM   C16S11305   4.552   0.670   5.454  0.1380  0.6304  0.2753
  110OSM   H16S11306   4.467   0.601   5.435  2.8432 -2.6332 -1.1759
  110OSM   H16T11307   4.639   0.614   5.494 -0.6647  1.3498  3.2164
  110OSM   C17S11308   4.585   0.752   5.333 -0.2108 -0.1162 -0.0581
  110OSM   H17S11309   4.664   0.824   5.365 -1.9327  0.7329  2.5943
  110OSM   H17T11310   4.499   0.808   5.292  0.2317  0.8973  0.3616
  110OSM   C18S11311   4.632   0.656   5.222 -0.3709  0.0597  0.1249
  110OSM   H18S11312   4.563   0.570   5.208 -0.1615  0.0099 -0.6349
  110OSM   H18T11313   4.731   0.611   5.243  0.0420  1.2043  0.7010
  110OSM   H18U11314   4.638   0.704   5.122 -3.3241  0.4030  0.0071
  110OSM    C1F11315   4.680   0.610   6.543 -0.0517  0.1254  1.1071
  110OSM     OF11316   4.726   0.494   6.566  0.1473 -0.2026  0.2905
  110OSM    C2F11317   4.688   0.672   6.412  0.2675  0.3732  0.4991
  110OSM    H2F11318   4.782   0.727   6.395  0.0277  0.0959 -2.0115
  110OSM    H2G11319   4.604   0.743   6.396  0.6457  1.2367  2.1663
  110OSM    C3F11320   4.691   0.567   6.295 -0.0340  0.3598 -0.2861
  110OSM    H3F11321   4.600   0.505   6.288  1.6324 -2.3784  0.6163
  110OSM    H3G11322   4.777   0.500   6.318 -0.8243  0.1426  2.3792
  110OSM    C4F11323   4.718   0.628   6.154  0.4587 -0.1259 -0.1079
  110OSM    H4F11324   4.650   0.716   6.155 -0.1795 -0.6151  0.0042
  110OSM    H4G11325   4.683   0.561   6.072  1.5137  0.5150 -1.1021
  110OSM    C5F11326   4.863   0.674   6.130  0.2117  0.0680  0.3470
  110OSM    H5F11327   4.920   0.579   6.132 -1.0002 -0.6617  1.0734
  110OSM    H5G11328   4.898   0.736   6.216  2.5779  0.0620 -0.5395
  110OSM    C6F11329   4.903   0.751   5.997  0.2978  0.0766 -0.0170
  110OSM    H6F11330   5.009   0.785   5.998  1.3482 -2.8021 -1.1802
  110OSM    H6G11331   4.828   0.831   5.981  0.0111 -0.5368 -2.0014
  110OSM    C7F11332   4.890   0.654   5.878 -0.5410  0.0342 -0.1699
  110OSM    H7F11333   4.788   0.615   5.896  0.4899 -2.2746  1.0539
  110OSM    H7G11334   4.960   0.569   5.893  0.1549  0.7911  0.9508
  110OSM    C8F11335   4.897   0.729   5.737  1.0303 -0.1514 -0.5497
  110OSM    H8F11336   4.822   0.810   5.743 -0.2333 -1.2473 -1.0702
  110OSM    H8G11337   4.851   0.654   5.669  0.4468 -1.0741  0.7994
  110OSM    C9F11338   5.040   0.765   5.710 -0.2180  0.6795 -0.4171
  110OSM    H9F11339   5.106   0.772   5.798 -0.9757 -1.8156  0.4564
  110OSM   C10F11340   5.093   0.801   5.590 -0.0501  0.4537 -0.1463
  110OSM   H10F11341   5.198   0.832   5.585 -0.1008  0.5847 -0.4118
  110OSM   C11F11342   5.021   0.797   5.461 -0.5985 -0.0682 -0.5136
  110OSM   H11F11343   4.915   0.826   5.475 -0.5198 -0.9702  2.7426
  110OSM   H11G11344   5.023   0.696   5.415 -2.0247 -0.1099 -0.5051
  110OSM   C12F11345   5.079   0.899   5.358 -0.3114 -0.3351  0.3912
  110OSM   H12F11346   5.041   0.888   5.254  1.3859 -0.0138 -0.2848
  110OSM   H12G11347   5.188   0.900   5.376 -0.7488  1.7152  3.8378
  110OSM   C13F11348   5.029   1.040   5.381  0.7920 -0.2404  0.3578
  110OSM   H13F11349   5.063   1.077   5.480  2.6674 -1.8865  0.3937
  110OSM   H13G11350   4.918   1.037   5.373  0.8344  0.7136 -0.8426
  110OSM   C14F11351   5.072   1.146   5.282  0.4084 -1.2326  0.0945
  110OSM   H14F11352   4.999   1.229   5.296  1.2241 -0.3948 -0.5497
  110OSM   H14G11353   5.056   1.115   5.177 -1.2175 -0.1547 -0.0043
  110OSM   C15F11354   5.215   1.193   5.309  0.4586  0.3685 -0.7105
  110OSM   H15F11355   5.267   1.095   5.302  0.0624 -0.1830  2.2974
  110OSM   H15G11356   5.220   1.215   5.418  1.4445  0.4875 -0.7745
  110OSM   C16F11357   5.280   1.302   5.219 -0.5823  0.4704  0.1194
  110OSM   H16F11358   5.266   1.269   5.113  1.1012 -0.6572  0.2120
  110OSM   H16G11359   5.388   1.303   5.241 -0.5146 -0.7545 -0.0898
  110OSM   C17F11360   5.226   1.445   5.242 -0.8473  0.1100 -0.3966
  110OSM   H17F11361   5.229   1.473   5.350 -1.4678 -0.8879 -0.1107
  110OSM   H17G11362   5.118   1.457   5.221 -0.3651  3.0562 -1.6405
  110OSM   C18F11363   5.309   1.547   5.156  0.4554  0.3811  0.2525
  110OSM   H18F11364   5.418   1.537   5.174  0.5646  0.7805 -0.1663
  110OSM   H18G11365   5.281   1.649   5.187 -0.2193 -0.4674  2.6451
  110OSM   H18H11366   5.299   1.534   5.046  0.9661  0.5484  0.1817
  111OSM      N11367   1.031   5.745   7.362 -0.1985  0.4752 -0.2901
  111OSM    C1511368   1.131   5.824   7.442 -0.1216  0.0659  0.3669
  111OSM   H15A11369   1.230   5.797   7.408 -0.4465 -0.0673 -0.4915
  111OSM   H15B11370   1.130   5.806   7.548  0.7480  0.9763  0.5392
  111OSM   H15C11371   1.111   5.928   7.420 -1.0559  0.0513  1.0795
  111OSM    C1411372   1.067   5.599   7.370 -0.5635  0.2375  0.1996
  111OSM   H14A11373   1.011   5.527   7.313  1.1131 -0.6364 -0.3726
  111OSM   H14B11374   1.057   5.558   7.470 -0.8171 -2.2114 -0.7698
  111OSM   H14C11375   1.169   5.580   7.342 -0.1837 -1.1441  2.3169
  111OSM    C1311376   0.893   5.763   7.419 -0.3996 -0.4740 -0.3961
  111OSM   H13A11377   0.833   5.703   7.352  2.1319 -0.4475 -2.8586
  111OSM   H13B11378   0.863   5.866   7.418 -1.3171 -0.6954  0.9061
  111OSM   H13C11379   0.882   5.730   7.522  0.3874 -1.8624 -0.7332
  111OSM    C1211380   1.038   5.791   7.219  0.4465 -0.4083 -0.2958
  111OSM   H12A11381   0.995   5.719   7.150 -1.1432 -0.5783  0.8000
  111OSM   H12B11382   1.141   5.801   7.190  0.3839  0.6791 -0.1603
  111OSM    C1111383   0.969   5.935   7.187  0.2359  0.7755  0.2878
  111OSM   H11A11384   0.864   5.914   7.214  1.2692 -1.0363  3.4408
  111OSM   H11B11385   0.986   5.950   7.078 -2.8978 -1.7778 -0.7146
  111OSM      P11386   0.948   6.161   7.308 -0.0943  0.4784  0.3026
  111OSM    O1311387   0.825   6.112   7.376 -0.3985 -0.4462 -0.3037
  111OSM    O1411388   1.036   6.248   7.385 -0.1260  0.4246 -0.5115
  111OSM    O1111389   0.912   6.244   7.171  0.4694  0.3275 -0.2486
  111OSM    O1211390   1.034   6.034   7.264 -0.3162 -0.1357  0.2542
  111OSM    C1S11391   1.005   6.294   7.077 -0.2795  0.3905 -0.3700
  111OSM    H1S11392   1.106   6.257   7.102  0.5168  2.8996  0.3799
  111OSM    H1T11393   1.014   6.404   7.088  0.1273  0.2238  1.3391
  111OSM     NF11394   1.078   6.295   6.842 -0.7511  0.3904 -0.0461
  111OSM    HNF11395   1.060   6.387   6.807 -0.7601  0.7697  0.9246
  111OSM    C2S11396   0.969   6.258   6.932  0.6940  0.2303 -0.2940
  111OSM    H2S11397   0.965   6.148   6.935 -0.7488  0.2915  1.4863
  111OSM    C3S11398   0.830   6.314   6.888  0.1155 -0.1853 -0.0966
  111OSM    H3S11399   0.837   6.424   6.876  0.4364 -0.1238  0.6161
  111OSM     O311400   0.735   6.299   6.994  0.5274  0.0197  0.0445
  111OSM    HO311401   0.791   6.276   7.068  0.2984 -0.3817  0.0925
  111OSM    C4S11402   0.781   6.258   6.757  0.0380  0.2697  0.1767
  111OSM    H4S11403   0.800   6.331   6.677  0.2554 -0.3205 -0.3186
  111OSM    C5S11404   0.720   6.141   6.729  0.9953 -0.7788  0.4930
  111OSM    H5S11405   0.678   6.088   6.816 -2.8409  1.8775  0.5388
  111OSM    C6S11406   0.668   6.101   6.592  0.2017  0.1545 -0.4515
  111OSM    H6S11407   0.557   6.089   6.598  0.3688 -0.7737  2.7804
  111OSM    H6T11408   0.698   5.998   6.564  2.5302 -0.0144  2.2591
  111OSM    C7S11409   0.711   6.179   6.474  0.1496 -0.4562  0.2623
  111OSM    H7S11410   0.822   6.187   6.464  0.1122  2.2872  1.1697
  111OSM    H7T11411   0.682   6.286   6.486 -1.1082 -0.5119 -1.8715
  111OSM    C8S11412   0.656   6.121   6.348 -0.8756  0.7800  0.4321
  111OSM    H8S11413   0.546   6.137   6.349 -0.8624  0.8864  1.5902
  111OSM    H8T11414   0.687   6.016   6.331 -0.8410  0.8412  0.1091
  111OSM    C9S11415   0.696   6.212   6.229  0.1277 -0.0727 -0.2436
  111OSM    H9S11416   0.806   6.220   6.234 -0.0046  2.7739  0.0925
  111OSM    H9T11417   0.646   6.311   6.240  3.0102  1.4014  0.4116
  111OSM   C10S11418   0.672   6.151   6.092  0.8705  0.2869 -0.1980
  111OSM   H10S11419   0.566   6.124   6.077  0.6789  0.1311  1.3011
  111OSM   H10T11420   0.727   6.055   6.087 -0.6949 -0.8227  2.1933
  111OSM   C11S11421   0.703   6.240   5.971  0.8244 -0.2358  0.0507
  111OSM   H11S11422   0.810   6.268   5.962  0.7392  0.0075 -0.2106
  111OSM   H11T11423   0.643   6.333   5.968  0.3151 -0.5826 -1.0285
  111OSM   C12S11424   0.658   6.166   5.837 -0.1557  0.3981 -0.0375
  111OSM   H12S11425   0.553   6.134   5.850  0.8216 -3.0132  0.3220
  111OSM   H12T11426   0.707   6.068   5.826 -1.3942 -0.2896  0.3832
  111OSM   C13S11427   0.689   6.259   5.709  0.1659  0.2744 -0.1717
  111OSM   H13S11428   0.797   6.281   5.700  1.0080 -2.3015  2.2782
  111OSM   H13T11429   0.625   6.350   5.723  0.4622  0.3772  0.5688
  111OSM   C14S11430   0.635   6.198   5.580  0.0462  0.5153  0.0882
  111OSM   H14S11431   0.623   6.088   5.594 -0.6712  0.5843  0.0714
  111OSM   H14T11432   0.706   6.204   5.495 -0.6020  1.3292 -0.4181
  111OSM   C15S11433   0.491   6.235   5.530 -0.6073  0.1913 -1.2152
  111OSM   H15S11434   0.504   6.340   5.496  0.8410  0.9220  1.3192
  111OSM   H15T11435   0.428   6.229   5.621  2.0453 -1.3873  0.6267
  111OSM   C16S11436   0.436   6.143   5.416 -0.1930 -0.5240 -0.0915
  111OSM   H16S11437   0.436   6.039   5.453  0.3374 -0.4890  0.0146
  111OSM   H16T11438   0.515   6.134   5.338  0.3946 -1.7589  0.6177
  111OSM   C17S11439   0.304   6.186   5.361  0.1913  0.0380 -0.0524
  111OSM   H17S11440   0.279   6.282   5.410 -1.2612  0.0425 -0.7605
  111OSM   H17T11441   0.226   6.127   5.413 -1.3964  1.1916 -1.0360
  111OSM   C18S11442   0.289   6.174   5.214 -0.2412 -0.1984 -0.3991
  111OSM   H18S11443   0.317   6.069   5.194 -1.5915 -1.1836  2.2532
  111OSM   H18T11444   0.348   6.253   5.163  1.6405 -0.6975  0.9227
  111OSM   H18U11445   0.181   6.175   5.185  0.0790  1.5216 -1.6748
  111OSM    C1F11446   1.195   6.231   6.851  0.5890  0.2238  0.1067
  111OSM     OF11447   1.200   6.122   6.909 -0.0475  0.4093  0.5267
  111OSM    C2F11448   1.312   6.299   6.794  0.0153 -0.2492 -0.4376
  111OSM    H2F11449   1.318   6.409   6.813 -1.6633 -0.0949 -0.6700
  111OSM    H2G11450   1.300   6.299   6.683 -0.5982  0.8839 -0.3907
  111OSM    C3F11451   1.447   6.235   6.835 -0.2699 -0.5545 -0.7839
  111OSM    H3F11452   1.446   6.126   6.811 -0.6764 -1.0317  1.1876
  111OSM    H3G11453   1.477   6.246   6.942  0.3407  0.7511 -1.0703
  111OSM    C4F11454   1.568   6.295   6.758 -0.0192 -0.4581  0.1979
  111OSM    H4F11455   1.662   6.263   6.807 -0.3718  0.1673  1.3252
  111OSM    H4G11456   1.569   6.405   6.765  0.0025 -0.4551  0.1482
  111OSM    C5F11457   1.584   6.268   6.609  0.8946 -0.4128  0.4382
  111OSM    H5F11458   1.514   6.186   6.580 -0.3402  1.1675 -1.2708
  111OSM    H5G11459   1.686   6.229   6.588  0.6086 -0.4613 -0.9988
  111OSM    C6F11460   1.567   6.388   6.522 -0.0157  0.0822 -0.1658
  111OSM    H6F11461   1.663   6.443   6.511  0.5962 -1.1241 -1.1525
  111OSM    H6G11462   1.489   6.460   6.555 -1.6174 -1.4383 -0.4912
  111OSM    C7F11463   1.514   6.344   6.383  0.2386  0.7229  0.0687
  111OSM    H7F11464   1.408   6.318   6.405  0.1697  1.6556  0.9124
  111OSM    H7G11465   1.558   6.246   6.356 -1.3104 -0.6711  2.2369
  111OSM    C8F11466   1.514   6.437   6.258  0.6149 -0.2493  0.3067
  111OSM    H8F11467   1.435   6.512   6.281 -0.0508 -0.9234  0.2471
  111OSM    H8G11468   1.471   6.379   6.174 -1.1627  0.3378  0.7594
  111OSM    C9F11469   1.645   6.511   6.225 -0.9310  0.5055 -0.0118
  111OSM    H9F11470   1.685   6.565   6.312  0.2669  2.7046 -1.8388
  111OSM   C10F11471   1.717   6.505   6.109 -0.3396 -0.2096 -0.1708
  111OSM   H10F11472   1.809   6.566   6.105 -0.5169  0.0559 -0.1622
  111OSM   C11F11473   1.680   6.432   5.983 -0.1781 -0.1887  0.0428
  111OSM   H11F11474   1.606   6.351   6.001 -0.4919  0.2761  0.8812
  111OSM   H11G11475   1.776   6.379   5.961  0.1567  1.0255 -1.5996
  111OSM   C12F11476   1.645   6.527   5.864 -1.0466 -0.7707  0.1451
  111OSM   H12F11477   1.728   6.600   5.857  0.1385 -2.1372 -0.9064
  111OSM   H12G11478   1.562   6.587   5.905  2.1932  3.2311  1.5104
  111OSM   C13F11479   1.607   6.465   5.727  0.0518 -0.2890 -0.7724
  111OSM   H13F11480   1.681   6.384   5.706  0.7682  0.5334 -1.5160
  111OSM   H13G11481   1.609   6.527   5.635 -2.6084 -0.3999 -0.9774
  111OSM   C14F11482   1.467   6.390   5.734  0.5966  0.0142  0.0832
  111OSM   H14F11483   1.398   6.448   5.800 -2.2661 -2.4679 -0.5195
  111OSM   H14G11484   1.472   6.298   5.796 -2.1844 -0.8493 -0.8180
  111OSM   C15F11485   1.400   6.358   5.599  0.3574  0.6035  0.6023
  111OSM   H15F11486   1.294   6.328   5.608 -0.3392  1.8979 -2.1367
  111OSM   H15G11487   1.444   6.265   5.557 -1.0521 -0.2694  0.9954
  111OSM   C16F11488   1.404   6.470   5.489 -0.3507  0.5243 -0.6555
  111OSM   H16F11489   1.508   6.492   5.459 -0.5542 -1.6324 -3.4054
  111OSM   H16G11490   1.360   6.568   5.515 -2.5414  0.1043 -2.4100
  111OSM   C17F11491   1.336   6.434   5.356 -0.0140 -0.3650 -0.5095
  111OSM   H17F11492   1.228   6.418   5.376 -0.1154 -0.5180 -1.1426
  111OSM   H17G11493   1.365   6.334   5.318 -1.4393 -1.3402  0.8187
  111OSM   C18F11494   1.341   6.554   5.263 -0.4839 -0.0787 -0.2523
  111OSM   H18F11495   1.302   6.646   5.310  0.9548  0.3662  0.1293
  111OSM   H18G11496   1.281   6.548   5.170 -1.0658  1.6976 -0.0316
  111OSM   H18H11497   1.447   6.578   5.239 -0.1697 -1.2241 -0.0981
  112OSM      N11498   2.557   2.872   7.661  0.3196  0.0507 -0.1797
  112OSM    C1511499   2.436   2.912   7.735  0.0037 -0.2052 -0.6837
  112OSM   H15A11500   2.351   2.865   7.688 -0.7195  0.2572  0.1418
  112OSM   H15B11501   2.417   3.018   7.740  2.9137  0.3413  0.9466
  112OSM   H15C11502   2.437   2.874   7.836 -3.0778  0.5134 -0.2973
  112OSM    C1411503   2.666   2.950   7.725 -0.2887  0.1973 -0.7889
  112OSM   H14A11504   2.690   2.914   7.824  0.0667  0.6582 -0.7037
  112OSM   H14B11505   2.642   3.053   7.743 -1.4313 -0.2949  0.7261
  112OSM   H14C11506   2.753   2.962   7.662 -0.5947  0.5731 -1.1412
  112OSM    C1311507   2.596   2.721   7.675  0.1362 -0.1419  0.3384
  112OSM   H13A11508   2.527   2.665   7.615 -0.2154  0.5338  0.1050
  112OSM   H13B11509   2.587   2.700   7.781 -1.9602  2.4572  0.7546
  112OSM   H13C11510   2.697   2.694   7.647  0.0738  1.1100 -1.2149
  112OSM    C1211511   2.554   2.915   7.514  0.6231 -0.6297 -0.2465
  112OSM   H12A11512   2.527   3.019   7.507  0.8156 -0.6508 -1.4648
  112OSM   H12B11513   2.472   2.861   7.469 -1.5230  2.0454  0.1693
  112OSM    C1111514   2.673   2.900   7.420  0.2181  0.0505 -0.2229
  112OSM   H11A11515   2.757   2.961   7.459  0.6693 -0.2959 -0.6330
  112OSM   H11B11516   2.657   2.952   7.323  1.5287 -1.2364 -1.1841
  112OSM      P11517   2.640   2.689   7.282  0.1864  0.2529  0.0971
  112OSM    O1311518   2.708   2.558   7.283  0.0475  0.4768  0.3629
  112OSM    O1411519   2.494   2.688   7.285  0.0104 -0.6325  0.0287
  112OSM    O1111520   2.685   2.778   7.161  0.0004  0.1556 -0.0640
  112OSM    O1211521   2.700   2.764   7.401 -0.1414  0.1157  0.1830
  112OSM    C1S11522   2.778   2.734   7.064  0.0375 -0.3808  0.3084
  112OSM    H1S11523   2.792   2.624   7.065  1.7586 -0.2464  3.4632
  112OSM    H1T11524   2.875   2.782   7.090 -1.0455  1.3880  1.3061
  112OSM     NF11525   2.820   2.706   6.823 -0.0416  0.3234 -0.1543
  112OSM    HNF11526   2.910   2.746   6.806 -0.0685  0.4516  0.0017
  112OSM    C2S11527   2.743   2.777   6.923 -0.1952  0.2333  0.1915
  112OSM    H2S11528   2.635   2.753   6.911 -0.3254  0.1083  1.4728
  112OSM    C3S11529   2.746   2.931   6.910 -0.0609 -0.6826  0.2861
  112OSM    H3S11530   2.853   2.960   6.917  0.8790 -3.6576 -0.4810
  112OSM     O311531   2.686   2.993   7.017 -0.3936  0.3413 -0.4876
  112OSM    HO311532   2.653   2.918   7.067 -1.8128 -0.1373 -2.0387
  112OSM    C4S11533   2.691   2.978   6.775 -0.2302 -0.1274  0.3856
  112OSM    H4S11534   2.771   2.980   6.700 -0.2912 -0.6939  0.2996
  112OSM    C5S11535   2.570   3.032   6.746 -0.7352 -0.8633 -0.3182
  112OSM    H5S11536   2.498   3.046   6.828 -1.8232  0.4452 -1.4393
  112OSM    C6S11537   2.519   3.076   6.609  0.3018  0.6635 -0.0326
  112OSM    H6S11538   2.492   3.184   6.617  2.2896  1.1857  0.0681
  112OSM    H6T11539   2.426   3.018   6.590  0.5007 -0.3810  1.8585
  112OSM    C7S11540   2.617   3.057   6.494 -0.2042  0.5170 -0.4084
  112OSM    H7S11541   2.639   2.948   6.496  0.3022  0.6137 -0.4846
  112OSM    H7T11542   2.704   3.126   6.493 -0.7692  1.2371 -0.4647
  112OSM    C8S11543   2.554   3.083   6.353  0.5962  0.5418 -0.1116
  112OSM    H8S11544   2.497   3.179   6.343  1.6747  1.0272 -2.1164
  112OSM    H8T11545   2.490   3.000   6.316 -0.6719  1.8172 -0.8916
  112OSM    C9S11546   2.664   3.085   6.257 -0.4089  0.2728  0.6755
  112OSM    H9S11547   2.722   2.995   6.287 -2.2739 -1.9757 -1.8442
  112OSM    H9T11548   2.737   3.167   6.269  1.2388 -1.1770  0.9370
  112OSM   C10S11549   2.620   3.073   6.110 -0.5430  0.5956  0.1811
  112OSM   H10S11550   2.575   3.169   6.075 -1.2792  0.1472 -0.1158
  112OSM   H10T11551   2.544   2.993   6.105  0.4341 -0.5266  2.0860
  112OSM   C11S11552   2.732   3.041   6.008  0.3890  0.5166  0.1193
  112OSM   H11S11553   2.792   2.956   6.046  2.9133  1.4402 -1.5728
  112OSM   H11T11554   2.797   3.131   6.016 -0.3537  1.1460 -0.7267
  112OSM   C12S11555   2.670   3.004   5.873 -0.3502  0.1545 -0.2951
  112OSM   H12S11556   2.607   2.915   5.894 -0.9090  0.9271  1.4968
  112OSM   H12T11557   2.755   2.979   5.807 -0.1730  0.8218 -0.3318
  112OSM   C13S11558   2.577   3.107   5.802  0.0231 -0.7634 -0.2182
  112OSM   H13S11559   2.632   3.201   5.782 -1.4837  0.6241  1.7585
  112OSM   H13T11560   2.491   3.121   5.872 -0.4624  0.1165 -0.9718
  112OSM   C14S11561   2.522   3.050   5.671 -0.2745  0.8354 -0.3740
  112OSM   H14S11562   2.461   2.962   5.699 -1.5449  1.5326 -0.8513
  112OSM   H14T11563   2.610   3.007   5.617  0.3113  1.9552 -0.3419
  112OSM   C15S11564   2.435   3.153   5.585 -0.2950  0.9125 -0.6028
  112OSM   H15S11565   2.491   3.234   5.533  0.6223  0.5502 -0.2149
  112OSM   H15T11566   2.376   3.206   5.663 -0.3413 -1.4269  1.0647
  112OSM   C16S11567   2.347   3.084   5.485  0.6084 -0.0501  0.0743
  112OSM   H16S11568   2.287   3.170   5.448  2.8960  1.2581 -0.8141
  112OSM   H16T11569   2.284   3.011   5.540 -0.4702  0.7718 -0.0210
  112OSM   C17S11570   2.425   3.020   5.374 -0.0331  0.3537 -0.2056
  112OSM   H17S11571   2.498   2.951   5.422 -0.3731 -0.3924 -0.7272
  112OSM   H17T11572   2.489   3.084   5.310  0.7709 -1.9067 -1.8293
  112OSM   C18S11573   2.342   2.934   5.281  0.4217  0.2481  0.6660
  112OSM   H18S11574   2.404   2.877   5.208 -1.0551 -0.5927  0.0152
  112OSM   H18T11575   2.277   2.998   5.217 -1.0029 -1.8048 -0.0713
  112OSM   H18U11576   2.283   2.852   5.329 -0.2256  1.8403  2.7436
  112OSM    C1F11577   2.793   2.580   6.787  0.1172 -0.3561 -0.5592
  112OSM     OF11578   2.688   2.527   6.827  0.0567  0.0461  0.1923
  112OSM    C2F11579   2.896   2.505   6.711  0.1277 -0.1354  0.5867
  112OSM    H2F11580   2.964   2.452   6.781  0.2992  1.4123  1.6401
  112OSM    H2G11581   2.955   2.571   6.644 -2.0789  0.5645 -0.7611
  112OSM    C3F11582   2.837   2.388   6.627  0.5261 -0.2736  0.8827
  112OSM    H3F11583   2.783   2.318   6.695  0.3268 -0.3850  0.6110
  112OSM    H3G11584   2.925   2.333   6.588  0.8287  1.7974 -1.5835
  112OSM    C4F11585   2.739   2.422   6.514  0.7271 -0.9602  0.5333
  112OSM    H4F11586   2.790   2.497   6.449 -0.4875 -0.2100  0.4165
  112OSM    H4G11587   2.651   2.476   6.555  0.3190 -0.4775 -0.9002
  112OSM    C5F11588   2.675   2.307   6.436  0.8344 -0.2868 -0.0051
  112OSM    H5F11589   2.596   2.345   6.367  1.7235 -4.5629 -3.8872
  112OSM    H5G11590   2.628   2.228   6.499 -1.3558  0.6785 -0.3412
  112OSM    C6F11591   2.767   2.240   6.332  0.2386 -0.2577 -0.1562
  112OSM    H6F11592   2.852   2.191   6.385 -1.5423 -0.4189  2.7774
  112OSM    H6G11593   2.797   2.313   6.253 -1.0154  0.0362 -0.3768
  112OSM    C7F11594   2.704   2.117   6.258 -0.1978 -0.6776  0.3564
  112OSM    H7F11595   2.621   2.161   6.200 -0.7431 -0.8916  0.9644
  112OSM    H7G11596   2.653   2.057   6.336  0.8362  0.6502  2.1627
  112OSM    C8F11597   2.804   2.052   6.159 -0.6618  0.7194 -0.9952
  112OSM    H8F11598   2.879   1.992   6.214 -2.5871 -1.0884 -0.2052
  112OSM    H8G11599   2.852   2.128   6.094  1.5408 -1.5061 -2.0986
  112OSM    C9F11600   2.740   1.936   6.075 -0.4930  0.3494  0.0785
  112OSM    H9F11601   2.662   1.891   6.138 -0.5115 -0.0689 -0.2402
  112OSM   C10F11602   2.753   1.923   5.939 -0.3225  0.3012 -0.4781
  112OSM   H10F11603   2.688   1.850   5.888  2.0944  0.0771 -3.5337
  112OSM   C11F11604   2.854   1.991   5.856 -0.2505 -0.3265 -0.0568
  112OSM   H11F11605   2.925   2.057   5.912 -0.3091  1.3749 -1.8768
  112OSM   H11G11606   2.802   2.055   5.781 -1.5242 -0.4829  0.6611
  112OSM   C12F11607   2.942   1.894   5.775  0.7475 -0.5049  0.1017
  112OSM   H12F11608   2.881   1.821   5.717 -0.4620  1.1680 -0.8034
  112OSM   H12G11609   3.004   1.840   5.850  0.3589  1.1744  1.6902
  112OSM   C13F11610   3.027   1.947   5.660  0.3867 -0.2258  0.0532
  112OSM   H13F11611   3.089   2.035   5.688 -0.5555 -0.4117  3.0789
  112OSM   H13G11612   2.971   1.977   5.569  0.9078  1.5046  0.2508
  112OSM   C14F11613   3.126   1.833   5.609  0.4268 -0.0818 -0.1855
  112OSM   H14F11614   3.056   1.746   5.609 -1.2602  1.2197  0.5168
  112OSM   H14G11615   3.209   1.808   5.678  1.0427  0.4053 -0.7314
  112OSM   C15F11616   3.175   1.845   5.469 -0.1714  0.1530 -0.1588
  112OSM   H15F11617   3.095   1.870   5.395  1.9636  1.3524 -2.1842
  112OSM   H15G11618   3.203   1.740   5.444 -1.2327 -0.5954  1.6066
  112OSM   C16F11619   3.278   1.952   5.457 -0.3568  0.3207 -0.4135
  112OSM   H16F11620   3.357   1.936   5.533  0.4612  2.0518 -0.8447
  112OSM   H16G11621   3.218   2.039   5.490 -1.0414 -0.6115  0.8878
  112OSM   C17F11622   3.349   1.979   5.322 -0.4363 -0.5803 -0.0064
  112OSM   H17F11623   3.392   1.880   5.295  2.6432  0.7715 -0.4495
  112OSM   H17G11624   3.440   2.037   5.348  0.1281 -0.7474 -1.4791
  112OSM   C18F11625   3.253   2.043   5.216  0.1824  0.0650 -0.5171
  112OSM   H18F11626   3.305   2.076   5.124  1.8923 -0.1404  0.3347
  112OSM   H18G11627   3.214   2.132   5.269 -0.5603 -0.6688  0.2082
  112OSM   H18H11628   3.174   1.969   5.191  1.0581 -1.5874  1.3200
  113OSM      N11629   1.084   5.093   7.061 -0.1426  0.4245  1.1542
  113OSM    C1511630   1.122   5.189   6.944 -1.4820 -0.3307  0.1746
  113OSM   H15A11631   1.027   5.231   6.914 -0.2557  2.0883 -0.5417
  113OSM   H15B11632   1.161   5.125   6.866 -0.2225 -0.3827  0.8213
  113OSM   H15C11633   1.182   5.277   6.964  0.0432 -1.5304  1.1222
  113OSM    C1411634   1.209   5.022   7.109  0.4472 -0.0371  0.3558
  113OSM   H14A11635   1.254   4.961   7.032 -1.2548 -0.5123 -0.3210
  113OSM   H14B11636   1.189   4.949   7.186  0.3256  0.6715  1.0092
  113OSM   H14C11637   1.288   5.076   7.158  0.1867  1.1852 -0.5376
  113OSM    C1311638   1.036   5.181   7.166 -0.0088  0.0004 -0.3886
  113OSM   H13A11639   1.106   5.248   7.212 -1.4780  1.1366  0.2731
  113OSM   H13B11640   1.001   5.113   7.242 -0.4147 -1.4398 -1.7994
  113OSM   H13C11641   0.943   5.230   7.139  0.3789 -0.2811 -2.3536
  113OSM    C1211642   0.975   4.997   7.019 -0.1692  0.0909  0.0736
  113OSM   H12A11643   0.940   4.945   7.106 -0.3269 -2.7494 -1.5624
  113OSM   H12B11644   1.022   4.927   6.952  0.1814 -0.1671  0.5857
  113OSM    C1111645   0.859   5.054   6.936  0.6124 -0.0748 -0.0245
  113OSM   H11A11646   0.808   4.963   6.898  0.3238 -1.3809  3.2025
  113OSM   H11B11647   0.889   5.097   6.838  0.3836 -0.6934 -0.3696
  113OSM      P11648   0.668   5.235   6.947  0.0455 -0.2516  0.0458
  113OSM    O1311649   0.561   5.247   7.049  0.7132 -0.5178  0.5914
  113OSM    O1411650   0.734   5.357   6.898  0.3625 -0.9340  0.1045
  113OSM    O1111651   0.612   5.149   6.819 -1.0435  0.4792  0.7162
  113OSM    O1211652   0.777   5.144   7.005  0.0599  0.0819 -0.1177
  113OSM    C1S11653   0.516   5.045   6.848  0.5148 -0.0861 -0.4136
  113OSM    H1S11654   0.442   5.091   6.917  0.1747 -0.1663 -0.7213
  113OSM    H1T11655   0.567   4.964   6.903 -2.4075 -1.4018  0.5478
  113OSM     NF11656   0.342   4.911   6.758 -0.8620 -0.1509 -0.5361
  113OSM    HNF11657   0.345   4.812   6.750 -1.5852 -0.3886  1.4694
  113OSM    C2S11658   0.456   4.990   6.722  0.6932 -0.8884  0.6629
  113OSM    H2S11659   0.420   5.074   6.659 -2.7389 -1.4703  1.6609
  113OSM    C3S11660   0.566   4.919   6.637  0.2987  0.0057  0.0046
  113OSM    H3S11661   0.597   4.832   6.698  0.5499  0.6978  0.8814
  113OSM     O311662   0.680   5.001   6.617  0.0521 -0.3684 -0.4089
  113OSM    HO311663   0.676   5.073   6.681  0.4763 -0.0329 -0.7527
  113OSM    C4S11664   0.513   4.888   6.504  0.1338  0.2926  0.0477
  113OSM    H4S11665   0.444   4.959   6.455 -0.6508 -0.4773  0.0020
  113OSM    C5S11666   0.536   4.763   6.454  0.1506  0.0364 -0.1598
  113OSM    H5S11667   0.578   4.684   6.517 -1.1445 -1.0304 -0.5894
  113OSM    C6S11668   0.462   4.711   6.337  0.4108 -0.0856 -0.8005
  113OSM    H6S11669   0.371   4.771   6.315  0.9736  1.4044  0.6566
  113OSM    H6T11670   0.453   4.603   6.358  0.2939  0.3712  1.7964
  113OSM    C7S11671   0.543   4.727   6.210  0.2837 -0.8088 -0.5271
  113OSM    H7S11672   0.644   4.686   6.234 -0.1970 -0.0684  3.4507
  113OSM    H7T11673   0.561   4.836   6.194 -2.7722 -0.0797  0.4604
  113OSM    C8S11674   0.485   4.667   6.088  0.0684 -0.2851  0.2623
  113OSM    H8S11675   0.562   4.675   6.008  0.3963 -0.7898  0.5236
  113OSM    H8T11676   0.405   4.733   6.047  0.7675 -0.1320 -0.9106
  113OSM    C9S11677   0.437   4.517   6.091 -0.7551  0.3615  0.2387
  113OSM    H9S11678   0.352   4.493   6.158  1.0690 -1.5067  2.0234
  113OSM    H9T11679   0.518   4.455   6.135 -2.4576 -0.6668  2.0814
  113OSM   C10S11680   0.404   4.472   5.945 -0.6677  0.3921  0.0457
  113OSM   H10S11681   0.480   4.506   5.872  0.7353 -3.4891 -0.5384
  113OSM   H10T11682   0.306   4.514   5.913  0.2205  1.2714 -1.6690
  113OSM   C11S11683   0.390   4.316   5.922 -0.1318 -0.1250 -0.5232
  113OSM   H11S11684   0.321   4.276   6.000  0.7914  1.0417  0.9690
  113OSM   H11T11685   0.491   4.275   5.946  0.1829  1.1675  0.4841
  113OSM   C12S11686   0.337   4.270   5.790 -0.3365  0.2563 -0.0061
  113OSM   H12S11687   0.226   4.263   5.788 -0.4195  0.9779  1.0707
  113OSM   H12T11688   0.357   4.162   5.776 -3.3381 -0.3371 -0.4124
  113OSM   C13S11689   0.386   4.351   5.673 -0.0690 -0.5952  0.8806
  113OSM   H13S11690   0.496   4.356   5.658 -0.3571 -0.4214 -1.5278
  113OSM   H13T11691   0.355   4.457   5.691  0.8762  0.2717 -2.0185
  113OSM   C14S11692   0.326   4.288   5.548 -0.4345  0.6403 -0.6577
  113OSM   H14S11693   0.217   4.268   5.555 -0.0805 -1.4304 -0.3723
  113OSM   H14T11694   0.372   4.188   5.541 -1.9500 -0.0211 -1.5248
  113OSM   C15S11695   0.356   4.370   5.419 -0.2336  0.0926  0.3075
  113OSM   H15S11696   0.465   4.391   5.416 -0.2643  0.6199  2.1669
  113OSM   H15T11697   0.307   4.469   5.424  0.3552  0.7518 -3.5108
  113OSM   C16S11698   0.292   4.309   5.290 -0.8272  0.1487  0.4028
  113OSM   H16S11699   0.194   4.277   5.331  0.2235  1.0482  3.9746
  113OSM   H16T11700   0.361   4.231   5.251  0.9350  1.3749  0.9254
  113OSM   C17S11701   0.277   4.405   5.183  0.1705 -0.4652 -0.5403
  113OSM   H17S11702   0.193   4.474   5.207  0.5719 -0.2563  0.2582
  113OSM   H17T11703   0.238   4.338   5.102  2.2706 -2.9472  0.3626
  113OSM   C18S11704   0.405   4.483   5.137 -0.6273 -0.5536 -0.4333
  113OSM   H18S11705   0.493   4.427   5.100  0.8866  1.9108 -0.7888
  113OSM   H18T11706   0.434   4.529   5.234  0.2612  1.0908 -1.4308
  113OSM   H18U11707   0.383   4.575   5.079 -1.2710 -0.8077 -0.6108
  113OSM    C1F11708   0.231   4.967   6.803 -0.2840 -0.3901 -0.2380
  113OSM     OF11709   0.207   5.088   6.779 -0.5302 -0.7265 -0.0727
  113OSM    C2F11710   0.137   4.866   6.866 -0.1557  0.1888  0.1404
  113OSM    H2F11711   0.157   4.870   6.976  0.5147 -0.9742  0.0760
  113OSM    H2G11712   0.174   4.766   6.835 -0.0939  0.9442 -2.4642
  113OSM    C3F11713  -0.014   4.877   6.837  0.2371 -0.0499  0.5399
  113OSM    H3F11714  -0.048   4.970   6.888 -2.8737  0.3330 -1.9339
  113OSM    H3G11715  -0.067   4.790   6.881 -0.5128  0.2003  0.1527
  113OSM    C4F11716  -0.050   4.890   6.689 -0.4812  0.2146  0.1257
  113OSM    H4F11717  -0.006   4.986   6.655 -0.0229 -0.4000 -1.0534
  113OSM    H4G11718  -0.160   4.906   6.695 -0.5919 -0.6125  5.6314
  113OSM    C5F11719  -0.010   4.770   6.594 -0.7246  0.7691 -0.1042
  113OSM    H5F11720  -0.077   4.685   6.619 -0.1174  0.0130 -1.0369
  113OSM    H5G11721   0.091   4.735   6.624 -0.9010  0.6740  0.3932
  113OSM    C6F11722  -0.021   4.806   6.447  0.0543 -0.5641  0.0447
  113OSM    H6F11723   0.062   4.877   6.426  0.9017 -1.1874  1.1976
  113OSM    H6G11724  -0.112   4.865   6.423 -0.9771 -2.1843 -0.1945
  113OSM    C7F11725  -0.018   4.680   6.357 -0.7697  0.2713 -0.2169
  113OSM    H7F11726  -0.111   4.621   6.354 -1.5729  1.3461  1.5627
  113OSM    H7G11727   0.063   4.627   6.412  1.3131  2.9022 -0.4860
  113OSM    C8F11728   0.034   4.709   6.215 -0.2501 -0.2977  0.0908
  113OSM    H8F11729   0.072   4.617   6.165  1.6848  0.9803 -0.9127
  113OSM    H8G11730   0.122   4.777   6.216 -0.3326 -0.0751 -2.1685
  113OSM    C9F11731  -0.076   4.765   6.124  0.6655  0.1469 -0.3270
  113OSM    H9F11732  -0.107   4.866   6.153 -2.2185 -0.2250 -1.8036
  113OSM   C10F11733  -0.127   4.709   6.013 -0.1947  0.4273  0.0827
  113OSM   H10F11734  -0.198   4.768   5.953 -1.3001 -1.9228 -1.0676
  113OSM   C11F11735  -0.096   4.579   5.951 -0.9782  0.0315  0.2396
  113OSM   H11F11736  -0.177   4.528   5.894  0.9666 -0.5959 -2.1347
  113OSM   H11G11737  -0.069   4.508   6.032 -1.8958 -1.1088 -0.4278
  113OSM   C12F11738   0.021   4.603   5.853  0.1145  0.2041  0.7049
  113OSM   H12F11739   0.051   4.499   5.828  1.4703  0.3153  1.7196
  113OSM   H12G11740   0.104   4.653   5.908 -0.6292  1.8165  0.4177
  113OSM   C13F11741  -0.008   4.682   5.721 -0.4658  0.5873 -0.6290
  113OSM   H13F11742  -0.036   4.785   5.754 -2.1390  0.0262 -0.1966
  113OSM   H13G11743  -0.098   4.641   5.671 -0.1265 -0.1171 -0.6673
  113OSM   C14F11744   0.103   4.677   5.616 -0.1165 -0.1209 -0.1196
  113OSM   H14F11745   0.121   4.578   5.567  3.0574  0.9353 -1.3635
  113OSM   H14G11746   0.195   4.705   5.672  0.1314 -1.5617  0.2438
  113OSM   C15F11747   0.071   4.765   5.495 -0.3777  0.4918  0.6520
  113OSM   H15F11748   0.092   4.866   5.536  1.1215 -0.1897  1.6623
  113OSM   H15G11749  -0.032   4.751   5.455 -0.0562 -0.6111  0.1725
  113OSM   C16F11750   0.167   4.753   5.380 -0.0089  1.0597 -0.3961
  113OSM   H16F11751   0.128   4.688   5.299 -0.0171  0.4448  0.0934
  113OSM   H16G11752   0.267   4.711   5.403 -0.1170  0.5831 -0.7655
  113OSM   C17F11753   0.182   4.890   5.318  0.0729  0.3188  0.5918
  113OSM   H17F11754   0.226   4.972   5.378 -0.7694  1.2345 -0.0022
  113OSM   H17G11755   0.077   4.924   5.303  0.1136 -0.5975 -2.4682
  113OSM   C18F11756   0.251   4.885   5.179  0.5637  0.4426  0.6808
  113OSM   H18F11757   0.357   4.860   5.203  0.5128 -2.9091 -1.9286
  113OSM   H18G11758   0.242   4.984   5.129  0.9514  0.0863 -0.1212
  113OSM   H18H11759   0.214   4.801   5.117  1.8700  0.1021  0.3313
  114OSM      N11760   3.027   1.997   6.929 -0.1691 -0.1594 -0.2576
  114OSM    C1511761   3.178   2.007   6.925  0.2380  0.4827  0.1393
  114OSM   H15A11762   3.196   2.082   7.001 -3.7609 -0.3824  2.1879
  114OSM   H15B11763   3.222   2.033   6.830  1.5424  0.2703  0.6568
  114OSM   H15C11764   3.219   1.913   6.958  0.1821  0.6588  0.7340
  114OSM    C1411765   2.973   1.983   7.074 -0.4420  0.0279  0.9404
  114OSM   H14A11766   2.868   1.965   7.056  0.2336 -2.1343 -1.5637
  114OSM   H14B11767   2.976   2.078   7.123 -1.4207  0.8058 -0.4426
  114OSM   H14C11768   3.029   1.903   7.121 -1.2762  0.2078  2.2964
  114OSM    C1311769   2.968   2.122   6.871  0.3046 -0.0275  0.3140
  114OSM   H13A11770   2.865   2.099   6.847  0.4275  0.5003 -0.7664
  114OSM   H13B11771   3.008   2.146   6.774  0.5794  2.0570  0.8955
  114OSM   H13C11772   2.978   2.210   6.933  0.9663  0.9761 -1.1698
  114OSM    C1211773   2.982   1.881   6.841  0.2965 -0.3195  1.5476
  114OSM   H12A11774   3.010   1.893   6.738 -0.9898  1.6757  1.3862
  114OSM   H12B11775   2.874   1.883   6.839  0.3119  0.0420  0.4581
  114OSM    C1111776   3.023   1.744   6.890 -0.1213  0.4298  0.4353
  114OSM   H11A11777   2.980   1.665   6.826  2.3648 -0.0195 -0.7875
  114OSM   H11B11778   2.972   1.744   6.989 -3.6416  1.9119 -1.1670
  114OSM      P11779   3.248   1.630   6.998 -0.0445 -0.2874 -0.0758
  114OSM    O1311780   3.370   1.696   7.047 -0.1468  0.7694 -0.2793
  114OSM    O1411781   3.149   1.589   7.102  0.5541 -0.0624  0.0430
  114OSM    O1111782   3.284   1.510   6.905 -1.0139  0.1259 -0.1644
  114OSM    O1211783   3.169   1.724   6.894  0.1702 -0.0509 -0.5303
  114OSM    C1S11784   3.177   1.438   6.836 -0.8756 -0.0062  0.2953
  114OSM    H1S11785   3.094   1.505   6.807  1.2591  2.6203 -0.1863
  114OSM    H1T11786   3.121   1.355   6.882 -0.6111 -1.8187 -2.3917
  114OSM     NF11787   3.113   1.287   6.643 -0.1288  0.1889 -0.1861
  114OSM    HNF11788   3.113   1.191   6.672 -0.7009  0.1163 -0.4140
  114OSM    C2S11789   3.225   1.366   6.702 -0.2034  0.4096 -0.7946
  114OSM    H2S11790   3.246   1.453   6.636 -1.2604  0.8293 -0.6003
  114OSM    C3S11791   3.347   1.278   6.724 -0.2084 -0.3970 -0.8837
  114OSM    H3S11792   3.312   1.193   6.786 -0.4406  1.2122  1.3154
  114OSM     O311793   3.459   1.333   6.802  0.2168 -0.4064 -0.0646
  114OSM    HO311794   3.420   1.413   6.838 -0.1033 -1.2991  1.6702
  114OSM    C4S11795   3.402   1.221   6.595 -0.6023  0.5030 -0.2223
  114OSM    H4S11796   3.423   1.300   6.521  0.7522  0.8181  0.4727
  114OSM    C5S11797   3.416   1.098   6.550  0.6813 -0.5352 -0.7779
  114OSM    H5S11798   3.377   1.017   6.613 -0.2265  1.4275  1.3619
  114OSM    C6S11799   3.464   1.049   6.421 -0.2666 -0.0031  0.0238
  114OSM    H6S11800   3.554   0.989   6.446  1.0548  1.9764  0.1801
  114OSM    H6T11801   3.506   1.134   6.363 -2.4905  1.8657  0.9635
  114OSM    C7S11802   3.371   0.976   6.327 -0.6439  0.3107 -0.0173
  114OSM    H7S11803   3.357   0.876   6.375 -0.3684  0.2854  0.0098
  114OSM    H7T11804   3.419   0.957   6.228 -1.8731  2.4597 -1.1005
  114OSM    C8S11805   3.233   1.045   6.297  0.7179 -0.8521  0.5242
  114OSM    H8S11806   3.253   1.142   6.247  2.6467 -0.9506  1.0078
  114OSM    H8T11807   3.192   1.061   6.399 -0.5505  1.4681 -0.2580
  114OSM    C9S11808   3.138   0.957   6.207 -0.3660 -0.3278 -0.1073
  114OSM    H9S11809   3.097   0.869   6.261  1.6156 -0.9256  0.4853
  114OSM    H9T11810   3.208   0.913   6.133  2.0862  0.6940  1.4688
  114OSM   C10S11811   3.035   1.048   6.151  0.1308  0.2526  0.3722
  114OSM   H10S11812   3.087   1.121   6.085 -0.8591 -1.4357 -2.4776
  114OSM   H10T11813   2.989   1.114   6.228  1.0246  1.4032 -0.0379
  114OSM   C11S11814   2.929   0.968   6.065 -0.5644 -0.1025 -0.8213
  114OSM   H11S11815   2.844   0.936   6.129  1.5220  0.6243  2.5127
  114OSM   H11T11816   2.982   0.879   6.025 -2.0875 -1.8615  0.8675
  114OSM   C12S11817   2.867   1.048   5.950  0.0294 -0.0868  0.5732
  114OSM   H12S11818   2.851   1.156   5.972  0.6349  0.6347 -2.0976
  114OSM   H12T11819   2.768   1.004   5.926 -1.6040  3.8063 -0.7103
  114OSM   C13S11820   2.963   1.042   5.830 -0.0362 -1.0523  0.5718
  114OSM   H13S11821   2.971   0.942   5.783  2.9062 -0.7072  0.0967
  114OSM   H13T11822   3.065   1.065   5.868  0.1576  0.2773 -0.6347
  114OSM   C14S11823   2.918   1.133   5.722  0.7015 -0.6190  0.1404
  114OSM   H14S11824   2.900   1.231   5.771 -1.6240 -1.7445  1.6900
  114OSM   H14T11825   2.818   1.105   5.683 -0.9146  5.0407 -0.6201
  114OSM   C15S11826   3.019   1.145   5.613  0.6984 -0.3493 -0.3465
  114OSM   H15S11827   3.021   1.061   5.540  0.7285  0.3940 -1.2167
  114OSM   H15T11828   3.116   1.159   5.665  0.4248  1.7806 -0.3250
  114OSM   C16S11829   2.999   1.260   5.514 -0.2327  0.0386 -0.4752
  114OSM   H16S11830   3.009   1.362   5.556 -0.2254 -0.0219 -0.3288
  114OSM   H16T11831   2.908   1.255   5.452 -0.7507 -0.5904  0.3094
  114OSM   C17S11832   3.116   1.269   5.419 -0.1876 -0.2486 -0.5003
  114OSM   H17S11833   3.106   1.181   5.352 -0.0246  0.6777 -1.7845
  114OSM   H17T11834   3.217   1.255   5.462 -1.4264 -1.8068  2.1182
  114OSM   C18S11835   3.098   1.386   5.328 -0.0723 -0.7210  0.0709
  114OSM   H18S11836   3.185   1.403   5.261  0.6482  0.1754  1.1960
  114OSM   H18T11837   3.099   1.481   5.385  1.5730  0.2416 -1.4397
  114OSM   H18U11838   3.008   1.381   5.263 -0.1750 -0.3359  0.1771
  114OSM    C1F11839   2.998   1.341   6.598 -0.8443 -0.8851 -0.0609
  114OSM     OF11840   2.987   1.463   6.579 -0.4551  0.6066  0.6681
  114OSM    C2F11841   2.888   1.246   6.592 -0.0209  0.5900  0.5536
  114OSM    H2F11842   2.815   1.264   6.674 -0.5560 -1.8908  0.7134
  114OSM    H2G11843   2.924   1.140   6.591 -3.7161 -0.8256 -1.2580
  114OSM    C3F11844   2.821   1.269   6.458  0.0326 -0.1954 -0.0884
  114OSM    H3F11845   2.893   1.253   6.375 -0.6100 -0.3703 -0.6235
  114OSM    H3G11846   2.788   1.375   6.457 -0.1373 -0.2352  0.5245
  114OSM    C4F11847   2.714   1.170   6.431  0.7875  0.5567 -0.4841
  114OSM    H4F11848   2.633   1.155   6.505 -0.3039 -0.6989 -1.8572
  114OSM    H4G11849   2.762   1.070   6.425 -2.7216 -1.2234 -5.1723
  114OSM    C5F11850   2.641   1.198   6.297  0.3369 -0.2205 -0.3829
  114OSM    H5F11851   2.721   1.213   6.222  0.6664 -1.8541 -0.3782
  114OSM    H5G11852   2.585   1.294   6.301  0.4758 -0.1288 -0.6676
  114OSM    C6F11853   2.548   1.084   6.252  0.3815 -0.2891 -0.0362
  114OSM    H6F11854   2.596   0.985   6.257  0.6428 -0.1007  1.9661
  114OSM    H6G11855   2.524   1.106   6.145  0.8609 -1.7884 -0.4631
  114OSM    C7F11856   2.418   1.066   6.324  0.9612 -0.2495 -0.4073
  114OSM    H7F11857   2.377   1.169   6.334  0.8664 -0.0587 -2.3845
  114OSM    H7G11858   2.417   1.021   6.426 -2.8100  1.8390  0.6785
  114OSM    C8F11859   2.314   0.984   6.241 -0.1683  0.0449 -0.0670
  114OSM    H8F11860   2.301   1.032   6.142  1.2564  0.0661 -0.2540
  114OSM    H8G11861   2.212   0.982   6.286  0.2035  1.2524  0.8765
  114OSM    C9F11862   2.353   0.836   6.230 -0.6299 -0.9690  0.4021
  114OSM    H9F11863   2.354   0.776   6.323  0.1959 -0.5694  0.6623
  114OSM   C10F11864   2.346   0.769   6.111 -0.1111  0.3955 -0.3400
  114OSM   H10F11865   2.374   0.664   6.100  0.5545  0.4887  0.4002
  114OSM   C11F11866   2.308   0.826   5.978 -0.5281  0.3529 -0.0268
  114OSM   H11F11867   2.340   0.931   5.963  0.0919 -0.0868 -2.0879
  114OSM   H11G11868   2.197   0.818   5.974 -0.3900 -2.3444 -0.2903
  114OSM   C12F11869   2.357   0.740   5.866  0.1949 -0.1978 -0.2471
  114OSM   H12F11870   2.309   0.768   5.769 -0.4938  0.9986  0.4175
  114OSM   H12G11871   2.337   0.632   5.884 -0.3100 -0.0501  0.1189
  114OSM   C13F11872   2.502   0.752   5.832 -0.3075  0.1643  0.8554
  114OSM   H13F11873   2.571   0.707   5.907  1.5363  1.5142  0.0602
  114OSM   H13G11874   2.525   0.860   5.834  1.4189 -0.1600  2.4042
  114OSM   C14F11875   2.539   0.702   5.691 -0.2552  0.1145  0.5756
  114OSM   H14F11876   2.475   0.757   5.618 -1.6636 -1.7527  0.3169
  114OSM   H14G11877   2.503   0.598   5.673 -1.0773  0.6859 -1.3565
  114OSM   C15F11878   2.687   0.705   5.664  0.5419  0.2212  0.2232
  114OSM   H15F11879   2.739   0.637   5.735 -0.6811 -0.7651  0.2255
  114OSM   H15G11880   2.715   0.812   5.674 -2.0442  0.9038  1.0219
  114OSM   C16F11881   2.729   0.671   5.520 -0.0845 -0.0796 -0.3672
  114OSM   H16F11882   2.712   0.563   5.498 -1.7693  0.6220 -2.9865
  114OSM   H16G11883   2.838   0.690   5.512 -0.1305  0.6987  0.6426
  114OSM   C17F11884   2.658   0.759   5.420 -0.2469  0.2646  0.3036
  114OSM   H17F11885   2.659   0.864   5.455  1.4300  0.0344  1.0355
  114OSM   H17G11886   2.552   0.727   5.416 -0.7473  1.8438  0.1319
  114OSM   C18F11887   2.730   0.768   5.283  0.2031 -0.4661 -0.5982
  114OSM   H18F11888   2.651   0.786   5.207 -0.1648 -0.6117 -0.2521
  114OSM   H18G11889   2.766   0.665   5.263 -1.7636 -1.3349  0.1163
  114OSM   H18H11890   2.815   0.839   5.282  0.1747 -0.4378 -1.4389
  115OSM      N11891   4.205   5.830   7.302  0.2223  0.3341 -0.3687
  115OSM    C1511892   4.244   5.880   7.169 -0.3301  0.7159 -0.0318
  115OSM   H15A11893   4.247   5.988   7.172  0.9710  0.6781  1.5639
  115OSM   H15B11894   4.181   5.858   7.084  0.6120  2.8912 -1.3998
  115OSM   H15C11895   4.339   5.845   7.132 -1.2939 -1.5722 -0.5015
  115OSM    C1411896   4.060   5.849   7.323 -0.1241  0.2869 -0.2308
  115OSM   H14A11897   4.034   5.801   7.416  0.3752  1.4757  0.5429
  115OSM   H14B11898   4.002   5.818   7.237  1.9060 -4.7278 -0.1653
  115OSM   H14C11899   4.043   5.955   7.331 -0.6670  0.1835  0.0632
  115OSM    C1311900   4.251   5.686   7.305  0.0221  0.7717 -0.3704
  115OSM   H13A11901   4.205   5.637   7.221 -0.0674 -1.1799  0.7643
  115OSM   H13B11902   4.208   5.642   7.394 -1.0172  1.0638 -0.7158
  115OSM   H13C11903   4.358   5.679   7.298  0.0806  0.9077  0.2880
  115OSM    C1211904   4.283   5.910   7.413  0.6527 -0.2717 -0.2762
  115OSM   H12A11905   4.388   5.890   7.402  0.6825  0.2012 -0.9698
  115OSM   H12B11906   4.254   5.878   7.512  0.5566  0.5834 -0.0175
  115OSM    C1111907   4.267   6.064   7.423 -0.0369 -0.1546  0.0974
  115OSM   H11A11908   4.310   6.099   7.519  0.3234  1.9335 -0.7548
  115OSM   H11B11909   4.163   6.104   7.428  0.0136 -0.0392  0.2461
  115OSM      P11910   4.490   6.163   7.327 -0.4274 -0.3415  0.0967
  115OSM    O1311911   4.520   6.308   7.339  0.1886 -0.6284 -0.1303
  115OSM    O1411912   4.562   6.077   7.421  0.4373 -0.3298 -0.4364
  115OSM    O1111913   4.524   6.120   7.180 -0.1063  0.9091  0.2906
  115OSM    O1211914   4.336   6.128   7.316 -0.0458 -0.0009 -0.0956
  115OSM    C1S11915   4.581   6.211   7.084  0.9722 -0.5109  0.2871
  115OSM    H1S11916   4.690   6.213   7.108  0.4449  0.6980  2.9677
  115OSM    H1T11917   4.541   6.314   7.082 -0.6589 -1.0703 -2.8485
  115OSM     NF11918   4.664   6.257   6.851 -0.3140 -0.0987  0.0244
  115OSM    HNF11919   4.611   6.326   6.801 -2.5900 -0.6233  1.5530
  115OSM    C2S11920   4.570   6.171   6.934 -0.4308 -0.5775  0.6415
  115OSM    H2S11921   4.617   6.070   6.931 -0.8207 -0.7591  0.4193
  115OSM    C3S11922   4.424   6.153   6.882 -0.3490  0.0127  0.4368
  115OSM    H3S11923   4.378   6.254   6.888 -1.9060 -0.7106  1.1701
  115OSM     O311924   4.342   6.062   6.951 -0.4152  0.3387  0.1717
  115OSM    HO311925   4.395   6.045   7.029  0.2269  4.5131  0.8849
  115OSM    C4S11926   4.422   6.105   6.737 -0.3008 -0.1170  0.8702
  115OSM    H4S11927   4.483   6.017   6.712  0.5075  0.6122  0.1796
  115OSM    C5S11928   4.356   6.160   6.637  0.4313  0.0783 -0.4116
  115OSM    H5S11929   4.303   6.253   6.661  0.6697 -0.5733  3.0631
  115OSM    C6S11930   4.339   6.105   6.499  0.6860 -0.4921  0.1267
  115OSM    H6S11931   4.234   6.130   6.471  0.6531  1.9447  2.0895
  115OSM    H6T11932   4.365   5.997   6.492  0.9445 -0.3949 -0.5009
  115OSM    C7S11933   4.434   6.165   6.392 -0.1541 -0.6127 -0.8422
  115OSM    H7S11934   4.536   6.157   6.435 -0.6543  0.8752  0.7119
  115OSM    H7T11935   4.410   6.273   6.379  0.3519 -0.6188 -1.9259
  115OSM    C8S11936   4.426   6.103   6.254 -0.2553 -0.0533 -0.4355
  115OSM    H8S11937   4.417   5.992   6.252 -0.4125 -0.1059  1.3968
  115OSM    H8T11938   4.517   6.136   6.199  0.6047  4.4236  3.1421
  115OSM    C9S11939   4.316   6.165   6.163 -0.1718 -0.8084  0.6681
  115OSM    H9S11940   4.311   6.276   6.171 -3.1927 -0.7327 -0.8780
  115OSM    H9T11941   4.217   6.128   6.196 -0.0127 -2.6199 -0.7467
  115OSM   C10S11942   4.333   6.124   6.012  0.0173 -0.3956 -0.2573
  115OSM   H10S11943   4.333   6.013   6.005 -1.3654 -0.3922 -0.7088
  115OSM   H10T11944   4.432   6.159   5.975  0.5319 -0.5380  0.9429
  115OSM   C11S11945   4.222   6.187   5.935 -0.4831  0.0602  0.7252
  115OSM   H11S11946   4.212   6.291   5.973  0.4340 -0.3776  2.2252
  115OSM   H11T11947   4.133   6.132   5.972 -1.1976 -0.1062 -1.1097
  115OSM   C12S11948   4.243   6.181   5.785 -0.7221 -0.5404  0.2921
  115OSM   H12S11949   4.145   6.217   5.746 -0.5541  1.2998  1.4797
  115OSM   H12T11950   4.259   6.077   5.747  2.1164  0.5462 -1.7936
  115OSM   C13S11951   4.357   6.266   5.729 -0.2137 -0.1543 -0.7994
  115OSM   H13S11952   4.455   6.216   5.747 -0.1351  0.4889  0.6996
  115OSM   H13T11953   4.361   6.363   5.784  1.6711  0.4280 -1.8664
  115OSM   C14S11954   4.346   6.309   5.581  0.0265 -0.2422  0.2363
  115OSM   H14S11955   4.263   6.381   5.563  0.0355  0.3142  2.2299
  115OSM   H14T11956   4.321   6.217   5.523  3.8930 -0.1785 -1.8583
  115OSM   C15S11957   4.477   6.366   5.526  0.6321  0.2538 -0.5571
  115OSM   H15S11958   4.550   6.288   5.556  0.0160  0.2610  1.0775
  115OSM   H15T11959   4.507   6.453   5.588 -1.7588 -0.2272  1.4333
  115OSM   C16S11960   4.466   6.405   5.379 -0.1976 -0.7084 -0.0534
  115OSM   H16S11961   4.441   6.322   5.310  0.3691  1.4519 -3.0532
  115OSM   H16T11962   4.559   6.445   5.334 -1.2509 -1.9510 -3.6598
  115OSM   C17S11963   4.354   6.512   5.360 -0.1328 -0.0746 -0.4620
  115OSM   H17S11964   4.344   6.573   5.452 -0.9017 -1.6130  0.5072
  115OSM   H17T11965   4.251   6.470   5.356 -0.3500  0.2698  1.0993
  115OSM   C18S11966   4.374   6.602   5.233  0.8329  0.4880  0.6713
  115OSM   H18S11967   4.307   6.690   5.222 -0.5306 -0.6152  0.0190
  115OSM   H18T11968   4.357   6.538   5.144  0.2357  3.3479 -1.4433
  115OSM   H18U11969   4.477   6.643   5.216  1.0851 -1.2347 -2.8374
  115OSM    C1F11970   4.797   6.244   6.849  0.4701  0.5668  0.8150
  115OSM     OF11971   4.860   6.184   6.937  0.1335 -0.1856 -0.2030
  115OSM    C2F11972   4.868   6.318   6.743 -0.2318 -0.4266  0.5200
  115OSM    H2F11973   4.970   6.276   6.752 -0.5909 -0.9880  2.3304
  115OSM    H2G11974   4.879   6.427   6.761 -0.9960 -0.0210 -1.2691
  115OSM    C3F11975   4.794   6.284   6.613 -0.0520 -0.0423  0.4409
  115OSM    H3F11976   4.688   6.317   6.612  0.2104  0.8479  0.5557
  115OSM    H3G11977   4.795   6.174   6.602  1.9661 -0.0752  0.4221
  115OSM    C4F11978   4.867   6.345   6.482 -0.1819 -0.0244  0.0903
  115OSM    H4F11979   4.977   6.332   6.477 -0.2790 -0.8624  0.0210
  115OSM    H4G11980   4.852   6.455   6.481  0.7588  0.1233 -1.9498
  115OSM    C5F11981   4.798   6.310   6.348 -0.7607  0.8822 -0.9744
  115OSM    H5F11982   4.688   6.323   6.355 -0.6150  1.9990 -0.4910
  115OSM    H5G11983   4.819   6.203   6.330 -0.8327  0.5724  0.6032
  115OSM    C6F11984   4.856   6.391   6.231  0.6100  0.6787  0.5918
  115OSM    H6F11985   4.967   6.382   6.232  0.6356  0.3045 -1.6196
  115OSM    H6G11986   4.836   6.501   6.227 -0.8794  0.4146  0.3853
  115OSM    C7F11987   4.795   6.348   6.099 -0.1452  0.3547  0.0936
  115OSM    H7F11988   4.689   6.381   6.092  0.4720  2.1355 -1.7871
  115OSM    H7G11989   4.806   6.239   6.084  1.4794  0.8355 -2.9596
  115OSM    C8F11990   4.875   6.411   5.980  0.2695  0.3072  0.0572
  115OSM    H8F11991   4.838   6.352   5.893 -1.3590 -1.5444  1.8953
  115OSM    H8G11992   4.984   6.393   5.996  0.1052  1.4633  2.9176
  115OSM    C9F11993   4.856   6.556   5.958  0.6835 -0.5915 -0.2186
  115OSM    H9F11994   4.901   6.617   6.038  0.9248  0.7076 -1.3156
  115OSM   C10F11995   4.789   6.616   5.856  0.4017  0.4444 -0.1928
  115OSM   H10F11996   4.790   6.726   5.856  1.1346  0.4458 -0.9935
  115OSM   C11F11997   4.725   6.547   5.738  0.5751  0.0954  0.5732
  115OSM   H11F11998   4.619   6.519   5.757  0.5959 -0.0345  0.5008
  115OSM   H11G11999   4.772   6.448   5.725 -0.0376 -0.2706  1.0712
  115OSM   C12F12000   4.739   6.632   5.607 -0.0863 -0.2728  0.7226
  115OSM   H12F12001   4.722   6.559   5.526 -1.6950 -1.0797  1.7300
  115OSM   H12G12002   4.837   6.683   5.596 -0.0071  0.0672  2.6489
  115OSM   C13F12003   4.626   6.734   5.597  0.4078 -0.6010  0.6425
  115OSM   H13F12004   4.640   6.811   5.676  2.3239 -3.3301  3.2170
  115OSM   H13G12005   4.529   6.687   5.624 -1.7404  3.4799  0.8295
  115OSM   C14F12006   4.613   6.796   5.451  0.1698  0.0376 -0.4714
  115OSM   H14F12007   4.625   6.709   5.382 -0.4979 -0.8457  0.5086
  115OSM   H14G12008   4.701   6.862   5.433 -0.0649  0.3975 -0.2971
  115OSM   C15F12009   4.489   6.888   5.429 -0.0428  0.3529  0.1889
  115OSM   H15F12010   4.468   6.936   5.527 -0.0842  1.1174 -0.1905
  115OSM   H15G12011   4.396   6.834   5.401  1.7644 -1.6199 -2.5131
  115OSM   C16F12012   4.512   7.004   5.330  0.5243  0.9301  0.0302
  115OSM   H16F12013   4.609   7.060   5.331  1.0514  0.0598 -0.7970
  115OSM   H16G12014   4.435   7.082   5.345 -1.9798 -1.0294 -1.8219
  115OSM   C17F12015   4.512   6.953   5.180  0.7062 -0.1839 -0.5792
  115OSM   H17F12016   4.431   6.877   5.171  0.2618  0.2593 -0.3898
  115OSM   H17G12017   4.612   6.908   5.166  0.2532 -1.4770  0.1582
  115OSM   C18F12018   4.482   7.076   5.094  0.0858 -0.3579  0.0754
  115OSM   H18F12019   4.384   7.124   5.118  0.2861  1.2740 -2.0634
  115OSM   H18G12020   4.475   7.049   4.986  2.6330 -2.1048  0.2843
  115OSM   H18H12021   4.565   7.147   5.112  0.9649 -0.8571 -1.7709
  116OSM      N12022   1.752   3.350   7.503 -0.8694  0.1853  0.1210
  116OSM    C1512023   1.660   3.446   7.568 -0.0167  0.4686 -0.2582
  116OSM   H15A12024   1.600   3.404   7.647  1.1611 -1.5328 -0.3629
  116OSM   H15B12025   1.596   3.494   7.495 -1.4191 -1.9381 -0.7243
  116OSM   H15C12026   1.718   3.524   7.615  0.4995  0.3023 -0.6135
  116OSM    C1412027   1.876   3.415   7.458  0.3457  0.3927 -0.4301
  116OSM   H14A12028   1.952   3.343   7.434 -0.3761 -0.4659 -0.1880
  116OSM   H14B12029   1.915   3.489   7.527  0.1641  0.2676 -0.1906
  116OSM   H14C12030   1.860   3.464   7.363 -1.3613 -1.9796 -1.4559
  116OSM    C1312031   1.791   3.240   7.593  0.4318  0.0887  0.3176
  116OSM   H13A12032   1.809   3.280   7.692 -2.2974  0.1765  0.8326
  116OSM   H13B12033   1.882   3.197   7.553  0.7880  1.0297  0.1009
  116OSM   H13C12034   1.721   3.162   7.617  0.9096 -0.6636 -0.6533
  116OSM    C1212035   1.671   3.287   7.394  0.0419  0.3561 -0.6137
  116OSM   H12A12036   1.585   3.252   7.449  1.2061  0.4639  1.3631
  116OSM   H12B12037   1.731   3.202   7.364  1.1298 -0.4621  3.2349
  116OSM    C1112038   1.629   3.359   7.259  0.7414 -0.0395  0.6835
  116OSM   H11A12039   1.557   3.441   7.281 -1.1824 -1.8081  1.3313
  116OSM   H11B12040   1.573   3.287   7.196  0.3929  0.5552  0.3060
  116OSM      P12041   1.808   3.322   7.082 -0.2172 -0.1829  0.2170
  116OSM    O1312042   1.914   3.396   7.009  0.5470 -0.1678  0.0922
  116OSM    O1412043   1.847   3.194   7.153  0.1229  0.4058  0.2877
  116OSM    O1112044   1.686   3.281   6.990  0.1193 -0.5972  0.1117
  116OSM    O1212045   1.741   3.419   7.190  0.2577  0.1784  0.5297
  116OSM    C1S12046   1.608   3.372   6.912 -0.2463  0.0046 -0.2320
  116OSM    H1S12047   1.653   3.474   6.916  0.0446 -0.0913 -1.0484
  116OSM    H1T12048   1.504   3.375   6.952  0.1581  0.7484  0.8404
  116OSM     NF12049   1.532   3.414   6.682  0.0149 -1.0237 -0.2797
  116OSM    HNF12050   1.444   3.388   6.643  0.9737 -3.1370 -1.2063
  116OSM    C2S12051   1.599   3.317   6.768 -0.1215  0.2322  0.7606
  116OSM    H2S12052   1.705   3.314   6.737 -0.3191  0.4132  0.0359
  116OSM    C3S12053   1.541   3.170   6.766 -0.1220  0.0841 -0.3973
  116OSM    H3S12054   1.432   3.185   6.782  0.0643 -0.1984  1.2304
  116OSM     O312055   1.587   3.082   6.866 -0.1623 -0.0061 -0.0747
  116OSM    HO312056   1.629   3.139   6.931  1.2959 -0.8555 -0.2263
  116OSM    C4S12057   1.560   3.104   6.629  0.1151 -1.1606 -0.3972
  116OSM    H4S12058   1.506   3.155   6.548  0.6541 -0.8630 -0.5747
  116OSM    C5S12059   1.645   3.017   6.589  0.0098 -0.1612  0.0151
  116OSM    H5S12060   1.724   2.992   6.661 -0.2245  1.1136  0.7285
  116OSM    C6S12061   1.664   2.962   6.455 -0.3088 -0.5919  0.4101
  116OSM    H6S12062   1.647   2.853   6.466 -2.5452 -0.0639  3.5506
  116OSM    H6T12063   1.769   2.978   6.422 -0.5831 -0.7626 -0.6009
  116OSM    C7S12064   1.579   3.028   6.343  0.4538  0.1100  0.0746
  116OSM    H7S12065   1.595   3.138   6.339  0.1481  0.1487 -0.0950
  116OSM    H7T12066   1.470   3.022   6.362  0.2916 -0.0069 -0.8615
  116OSM    C8S12067   1.603   2.972   6.203 -0.3638 -0.3197  0.2965
  116OSM    H8S12068   1.569   2.867   6.210 -0.6493 -0.2019  0.6928
  116OSM    H8T12069   1.711   2.970   6.175  0.3046  2.5125  2.2526
  116OSM    C9S12070   1.512   3.042   6.109 -0.2330 -0.4250  0.5293
  116OSM    H9S12071   1.561   3.142   6.102  1.7913 -1.1668  2.8321
  116OSM    H9T12072   1.413   3.042   6.160 -0.2414 -0.9931  0.5201
  116OSM   C10S12073   1.500   2.999   5.959  0.4993 -0.2112 -0.4591
  116OSM   H10S12074   1.536   3.087   5.902  1.5823 -0.1796  0.2361
  116OSM   H10T12075   1.396   2.971   5.930 -0.2486  0.0494  1.7343
  116OSM   C11S12076   1.595   2.888   5.907  0.6928 -0.3479 -0.6365
  116OSM   H11S12077   1.546   2.791   5.929 -1.5291  0.5121 -1.5116
  116OSM   H11T12078   1.693   2.892   5.959  0.7942 -1.2861 -0.7462
  116OSM   C12S12079   1.615   2.891   5.757 -0.2424  0.1544 -0.1387
  116OSM   H12S12080   1.685   2.812   5.724 -1.1059 -0.4005 -0.6986
  116OSM   H12T12081   1.671   2.987   5.750 -0.0474  0.0583  0.0816
  116OSM   C13S12082   1.489   2.882   5.665 -0.4947 -0.8061  0.2155
  116OSM   H13S12083   1.416   2.956   5.703 -0.0984 -0.1544 -0.2874
  116OSM   H13T12084   1.444   2.785   5.695  0.0098 -1.0064  0.3529
  116OSM   C14S12085   1.506   2.891   5.510 -0.0822  0.2367 -0.0999
  116OSM   H14S12086   1.546   2.795   5.471  0.4063  0.4250 -0.0697
  116OSM   H14T12087   1.580   2.973   5.499  0.0937 -0.1008 -1.6157
  116OSM   C15S12088   1.380   2.917   5.430 -0.1082 -0.3264 -0.0536
  116OSM   H15S12089   1.340   3.014   5.468 -0.7593 -0.3910 -0.5616
  116OSM   H15T12090   1.323   2.822   5.439 -0.4613 -0.0715  0.4348
  116OSM   C16S12091   1.405   2.959   5.278 -0.2243 -0.0268 -0.5256
  116OSM   H16S12092   1.440   2.866   5.227 -0.4371  0.5029 -1.6562
  116OSM   H16T12093   1.488   3.032   5.272 -0.2605 -0.0926 -2.3423
  116OSM   C17S12094   1.284   2.993   5.189  0.6739 -0.2321 -0.7041
  116OSM   H17S12095   1.252   3.095   5.217  1.9084 -0.5562  2.3318
  116OSM   H17T12096   1.199   2.927   5.218  0.3341 -0.4197 -2.0690
  116OSM   C18S12097   1.314   2.981   5.038 -0.0914  0.1673  0.0269
  116OSM   H18S12098   1.213   2.972   4.993  0.2163  2.4639 -1.2729
  116OSM   H18T12099   1.372   2.894   5.001 -4.0154 -2.5174 -0.4150
  116OSM   H18U12100   1.358   3.079   5.008 -1.1095  0.8792  0.7837
  116OSM    C1F12101   1.582   3.539   6.645 -0.5993  0.5200 -0.2501
  116OSM     OF12102   1.700   3.577   6.665 -0.0469 -0.3393  0.8541
  116OSM    C2F12103   1.484   3.631   6.583 -0.2080  0.4136  0.1946
  116OSM    H2F12104   1.459   3.704   6.662  0.7168  0.7698  0.1722
  116OSM    H2G12105   1.392   3.570   6.569 -0.4218  0.7786  0.0117
  116OSM    C3F12106   1.510   3.702   6.452  0.1567 -0.7806 -0.4673
  116OSM    H3F12107   1.613   3.744   6.448  0.6258 -1.6322  1.6951
  116OSM    H3G12108   1.439   3.786   6.439  2.7151  1.4390 -0.7626
  116OSM    C4F12109   1.494   3.607   6.336 -0.0628 -0.3070 -0.1384
  116OSM    H4F12110   1.399   3.550   6.343  0.2239 -0.7808 -0.0657
  116OSM    H4G12111   1.576   3.533   6.333  0.1834 -0.0152 -1.0918
  116OSM    C5F12112   1.498   3.676   6.192  0.2685  0.1018  0.7278
  116OSM    H5F12113   1.606   3.694   6.169  0.2057  0.9646  1.0537
  116OSM    H5G12114   1.441   3.770   6.207  0.4071  0.3678 -0.3109
  116OSM    C6F12115   1.416   3.605   6.086 -0.5606 -0.8065  0.1226
  116OSM    H6F12116   1.313   3.589   6.123 -1.6454  1.0854 -1.8565
  116OSM    H6G12117   1.452   3.504   6.055 -1.0285 -0.4167 -1.8440
  116OSM    C7F12118   1.382   3.685   5.959  0.2313 -0.3505 -0.4357
  116OSM    H7F12119   1.308   3.760   5.995  1.7623 -0.4077  3.2468
  116OSM    H7G12120   1.335   3.613   5.890  0.0595 -2.3842  1.6860
  116OSM    C8F12121   1.506   3.751   5.909  0.1748 -0.4199  0.4095
  116OSM    H8F12122   1.574   3.667   5.882 -1.4024 -2.0199  1.2765
  116OSM    H8G12123   1.561   3.818   5.979  1.6071  1.1551 -2.0562
  116OSM    C9F12124   1.476   3.820   5.777  0.1563 -0.2360  0.2892
  116OSM    H9F12125   1.471   3.927   5.799  2.6279 -0.1886  0.9261
  116OSM   C10F12126   1.481   3.775   5.651 -0.1567  0.3060  0.1097
  116OSM   H10F12127   1.468   3.851   5.573  0.2023  2.2808  1.8570
  116OSM   C11F12128   1.485   3.635   5.608 -0.0907 -0.7514  0.4199
  116OSM   H11F12129   1.474   3.572   5.698  0.1105 -0.8817  0.3539
  116OSM   H11G12130   1.588   3.619   5.569  0.1517 -0.1630  0.8157
  116OSM   C12F12131   1.378   3.601   5.503 -0.5023  0.7376  0.3794
  116OSM   H12F12132   1.373   3.681   5.426  0.2436  0.0203 -0.4467
  116OSM   H12G12133   1.284   3.608   5.562 -0.9229  1.1465 -0.3237
  116OSM   C13F12134   1.400   3.464   5.440  0.8722 -0.7098 -0.0889
  116OSM   H13F12135   1.309   3.424   5.390 -0.1287  1.0358  0.2517
  116OSM   H13G12136   1.416   3.395   5.525  0.8749 -1.3943 -0.6346
  116OSM   C14F12137   1.516   3.449   5.340  0.1608 -0.2140  0.1478
  116OSM   H14F12138   1.541   3.341   5.347 -1.3701 -0.5116  2.2266
  116OSM   H14G12139   1.607   3.496   5.382 -0.6473  0.6523  0.9667
  116OSM   C15F12140   1.480   3.492   5.202  0.6747 -0.1149 -0.1063
  116OSM   H15F12141   1.396   3.436   5.156 -0.6240 -0.0836  2.1104
  116OSM   H15G12142   1.565   3.463   5.136  1.0658 -0.6496  0.6176
  116OSM   C16F12143   1.459   3.642   5.175  0.7483  0.0516  0.0247
  116OSM   H16F12144   1.519   3.696   5.251  0.6950  0.9928 -0.5906
  116OSM   H16G12145   1.356   3.676   5.202  0.1272 -1.3265 -0.5007
  116OSM   C17F12146   1.505   3.696   5.037  0.5049  0.3309  0.1635
  116OSM   H17F12147   1.464   3.643   4.949  0.4884 -0.1899  0.4787
  116OSM   H17G12148   1.613   3.671   5.042  0.7029  1.2951  1.5013
  116OSM   C18F12149   1.483   3.843   5.018 -0.3721 -0.0029 -0.4652
  116OSM   H18F12150   1.504   3.877   4.914  4.3275 -0.5719  0.0588
  116OSM   H18G12151   1.546   3.907   5.083  0.9083 -0.5423 -1.1392
  116OSM   H18H12152   1.374   3.849   5.040 -0.2728 -1.6755  0.6932
  117OSM      N12153   0.680   6.458   7.616  0.6295  0.8960 -0.0356
  117OSM    C1512154   0.675   6.394   7.754  0.9755 -0.6915  0.6346
  117OSM   H15A12155   0.708   6.472   7.820  1.0065  0.2691 -0.4964
  117OSM   H15B12156   0.726   6.299   7.761 -0.2104 -1.5265 -1.1518
  117OSM   H15C12157   0.576   6.370   7.790  0.7166  1.2405  1.2966
  117OSM    C1412158   0.569   6.567   7.611 -0.1591  0.2751 -0.2682
  117OSM   H14A12159   0.597   6.648   7.676 -2.6204 -1.3435  3.1232
  117OSM   H14B12160   0.479   6.518   7.644 -0.0402  1.4646  1.9547
  117OSM   H14C12161   0.557   6.601   7.509 -0.8987 -1.7086 -0.8872
  117OSM    C1312162   0.825   6.512   7.598  0.2486 -0.6480  0.2003
  117OSM   H13A12163   0.906   6.441   7.611  1.4069  0.5876 -0.0405
  117OSM   H13B12164   0.847   6.591   7.668  0.5660 -0.9200  0.4153
  117OSM   H13C12165   0.842   6.556   7.501 -0.3437  1.5908  1.0698
  117OSM    C1212166   0.651   6.352   7.493 -0.3505 -0.2032 -0.7619
  117OSM   H12A12167   0.561   6.299   7.519 -1.0457  1.2430 -0.0742
  117OSM   H12B12168   0.731   6.280   7.491  0.4191  0.5742  0.4961
  117OSM    C1112169   0.643   6.402   7.356  0.0275  0.3706  0.5825
  117OSM   H11A12170   0.632   6.322   7.279 -3.0143  1.8611 -0.6814
  117OSM   H11B12171   0.740   6.447   7.324 -0.4927 -0.1739 -2.0217
  117OSM      P12172   0.390   6.427   7.306  0.3241  0.2476  0.0057
  117OSM    O1312173   0.345   6.334   7.414  0.3938 -0.1797  0.7895
  117OSM    O1412174   0.287   6.531   7.284  0.5527  0.5117 -0.7593
  117OSM    O1112175   0.430   6.354   7.178 -0.3249 -0.0016  0.4120
  117OSM    O1212176   0.532   6.486   7.338  0.0019 -0.6120 -0.1449
  117OSM    C1S12177   0.337   6.297   7.081  0.2630  0.2498  0.4825
  117OSM    H1S12178   0.312   6.372   7.003  2.2931  1.1549  0.6407
  117OSM    H1T12179   0.239   6.271   7.128 -0.4517 -0.4954 -1.3323
  117OSM     NF12180   0.325   6.147   6.878  0.0079  0.2506  0.3718
  117OSM    HNF12181   0.260   6.072   6.871 -0.6588  0.9152 -0.8325
  117OSM    C2S12182   0.399   6.178   7.005 -0.1082 -0.4107 -0.0390
  117OSM    H2S12183   0.500   6.212   6.974 -0.3539 -0.2937 -0.7359
  117OSM    C3S12184   0.413   6.051   7.098 -0.2359 -0.3529  0.0063
  117OSM    H3S12185   0.319   6.004   7.133  0.5684 -3.0302 -1.1659
  117OSM     O312186   0.476   6.075   7.220 -0.5580 -0.6281  0.3382
  117OSM    HO312187   0.473   6.171   7.229  1.5945 -0.4570 -0.0314
  117OSM    C4S12188   0.471   5.932   7.020 -0.3124 -0.2034  0.9089
  117OSM    H4S12189   0.399   5.866   6.968  1.1114 -0.6297 -0.6074
  117OSM    C5S12190   0.602   5.902   7.009  0.1888 -0.2207 -0.7070
  117OSM    H5S12191   0.668   5.967   7.067 -0.7907 -0.7495  1.0855
  117OSM    C6S12192   0.656   5.773   6.933 -0.4810 -0.0253 -0.1420
  117OSM    H6S12193   0.693   5.693   7.000  0.6976  1.1884  0.7307
  117OSM    H6T12194   0.749   5.812   6.884 -0.9263 -0.7720 -1.6291
  117OSM    C7S12195   0.562   5.710   6.827 -0.0906 -0.5002 -0.3368
  117OSM    H7S12196   0.468   5.684   6.880 -0.6727  0.1357 -1.0333
  117OSM    H7T12197   0.620   5.620   6.794 -0.5082 -1.0950  0.5184
  117OSM    C8S12198   0.540   5.804   6.705  0.6472 -0.2779  0.3027
  117OSM    H8S12199   0.635   5.837   6.659  0.1527  1.4283  0.4184
  117OSM    H8T12200   0.487   5.895   6.742  1.2956  0.1605  0.1609
  117OSM    C9S12201   0.481   5.731   6.582  0.6337 -0.1930 -1.2199
  117OSM    H9S12202   0.396   5.673   6.624  1.1658  0.4586  0.8638
  117OSM    H9T12203   0.556   5.661   6.541  0.0637  0.3502 -3.3472
  117OSM   C10S12204   0.425   5.833   6.479 -0.2563 -0.0710 -0.3504
  117OSM   H10S12205   0.499   5.912   6.456  1.1635 -1.2625 -0.0140
  117OSM   H10T12206   0.332   5.881   6.517 -0.4593 -0.9988  0.3757
  117OSM   C11S12207   0.384   5.764   6.349 -0.1755  0.3883  0.4744
  117OSM   H11S12208   0.294   5.700   6.360  1.2780 -2.3624 -2.0296
  117OSM   H11T12209   0.460   5.687   6.323  0.5970  0.1901  3.0610
  117OSM   C12S12210   0.355   5.856   6.233 -0.3917  0.2567  0.7561
  117OSM   H12S12211   0.439   5.926   6.216 -0.2731 -0.1075 -0.2182
  117OSM   H12T12212   0.266   5.921   6.245 -0.2364  1.5198 -3.4271
  117OSM   C13S12213   0.337   5.757   6.117  0.8236 -0.0417  0.4325
  117OSM   H13S12214   0.253   5.684   6.126  1.3299 -1.1046 -2.3925
  117OSM   H13T12215   0.425   5.690   6.113  1.3252  0.6045  0.5217
  117OSM   C14S12216   0.318   5.840   5.987  1.0497 -0.3576  0.3469
  117OSM   H14S12217   0.411   5.900   5.980  1.1186 -0.6991 -2.3198
  117OSM   H14T12218   0.235   5.911   6.010 -0.0679 -1.9983  1.6662
  117OSM   C15S12219   0.295   5.767   5.860 -0.0599  0.5732 -0.1136
  117OSM   H15S12220   0.205   5.702   5.865 -0.5594  1.2530 -0.0582
  117OSM   H15T12221   0.381   5.699   5.844 -0.1219  1.0261 -2.9473
  117OSM   C16S12222   0.283   5.845   5.725  0.2750 -0.2613  0.2652
  117OSM   H16S12223   0.370   5.906   5.691  0.1710 -1.6409 -2.7795
  117OSM   H16T12224   0.199   5.917   5.730  0.8308  0.3546  1.0482
  117OSM   C17S12225   0.263   5.750   5.607  0.4141 -0.0944 -0.2593
  117OSM   H17S12226   0.193   5.804   5.539 -1.1211 -1.7280 -0.0393
  117OSM   H17T12227   0.222   5.652   5.639  0.1551 -0.0409 -0.4224
  117OSM   C18S12228   0.398   5.714   5.532  0.1127 -0.7623 -0.2085
  117OSM   H18S12229   0.446   5.808   5.499  2.0186 -1.1687  1.2388
  117OSM   H18T12230   0.394   5.649   5.442 -0.4136 -0.7295 -0.2122
  117OSM   H18U12231   0.471   5.681   5.609  0.7686  1.6586  0.2867
  117OSM    C1F12232   0.330   6.228   6.773 -0.0503 -0.1684 -0.0263
  117OSM     OF12233   0.398   6.331   6.770 -0.0376 -0.0710 -0.6978
  117OSM    C2F12234   0.259   6.173   6.651 -0.3777  0.5889 -0.0195
  117OSM    H2F12235   0.152   6.155   6.676 -0.2259 -0.6193 -0.2022
  117OSM    H2G12236   0.301   6.072   6.631 -1.5705  0.2503 -0.9383
  117OSM    C3F12237   0.276   6.262   6.522  0.1844  0.5926  0.5158
  117OSM    H3F12238   0.384   6.277   6.503  0.5497 -0.7710  1.3606
  117OSM    H3G12239   0.232   6.362   6.542 -1.8621 -0.1091 -0.1774
  117OSM    C4F12240   0.209   6.205   6.393  0.3452  0.1377  0.4942
  117OSM    H4F12241   0.100   6.193   6.414  0.2954  0.1019  0.2141
  117OSM    H4G12242   0.235   6.101   6.364  0.8886  0.5114 -0.3825
  117OSM    C5F12243   0.237   6.295   6.274  0.4664  0.2065  0.1928
  117OSM    H5F12244   0.343   6.327   6.282  1.0781 -1.6409 -0.1426
  117OSM    H5G12245   0.169   6.380   6.293 -0.3169 -0.3865  0.0976
  117OSM    C6F12246   0.194   6.238   6.133 -1.0414  0.0538 -0.5410
  117OSM    H6F12247   0.083   6.231   6.128 -0.9485 -1.0232 -1.4386
  117OSM    H6G12248   0.234   6.135   6.132  0.2483  0.5449 -1.3629
  117OSM    C7F12249   0.249   6.321   6.016 -0.7676 -0.3512  0.3301
  117OSM    H7F12250   0.353   6.351   6.041 -1.6210  0.8686  2.7915
  117OSM    H7G12251   0.198   6.420   6.011  0.8387  0.5612  1.3353
  117OSM    C8F12252   0.247   6.226   5.890 -0.5873 -0.3326  0.7187
  117OSM    H8F12253   0.322   6.147   5.912 -1.0473 -0.3286  2.4444
  117OSM    H8G12254   0.285   6.284   5.803  1.5524  0.9326  2.3903
  117OSM    C9F12255   0.117   6.157   5.857 -0.0520 -0.4266  0.9339
  117OSM    H9F12256   0.092   6.062   5.906 -0.4908 -0.1933  1.1715
  117OSM   C10F12257   0.031   6.202   5.768 -0.0865  0.2866  0.0416
  117OSM   H10F12258  -0.065   6.154   5.749 -1.4074  1.2598  3.5807
  117OSM   C11F12259   0.041   6.324   5.681 -0.2575  0.0081  0.3153
  117OSM   H11F12260   0.119   6.305   5.604 -0.5970 -1.4865  0.3084
  117OSM   H11G12261   0.070   6.415   5.739  0.5245 -1.9143  3.1827
  117OSM   C12F12262  -0.092   6.364   5.602 -0.4081  0.6804  0.2616
  117OSM   H12F12263  -0.173   6.365   5.678  0.2560  0.7557  0.9688
  117OSM   H12G12264  -0.108   6.291   5.520 -1.7780  1.5426 -0.2880
  117OSM   C13F12265  -0.088   6.499   5.527 -0.3191  0.5012 -0.0472
  117OSM   H13F12266  -0.085   6.593   5.586  3.1172  0.1700  0.5118
  117OSM   H13G12267  -0.178   6.502   5.461  0.1487  0.5656 -0.6946
  117OSM   C14F12268   0.036   6.495   5.430  0.3062  0.5256 -0.1878
  117OSM   H14F12269   0.040   6.395   5.381 -1.7540  0.3237 -0.0299
  117OSM   H14G12270   0.130   6.498   5.488  1.7355 -0.9291 -2.2939
  117OSM   C15F12271   0.041   6.613   5.329  0.3584  0.3018 -0.6985
  117OSM   H15F12272   0.051   6.705   5.391  1.1386  0.0033 -0.3666
  117OSM   H15G12273  -0.052   6.604   5.269  0.7600 -0.6474 -1.1931
  117OSM   C16F12274   0.160   6.607   5.228 -0.9556 -0.1763  0.6823
  117OSM   H16F12275   0.127   6.514   5.177 -1.4947  0.7768 -0.7567
  117OSM   H16G12276   0.250   6.601   5.293 -0.7809 -0.2806  0.4327
  117OSM   C17F12277   0.147   6.728   5.130  0.0884 -0.4332  0.0611
  117OSM   H17F12278   0.041   6.723   5.096 -0.4427 -1.7088  1.7821
  117OSM   H17G12279   0.209   6.711   5.039 -1.4357  0.9711 -1.3216
  117OSM   C18F12280   0.185   6.860   5.203  0.2610 -0.2957  0.2093
  117OSM   H18F12281   0.101   6.891   5.270 -0.0201  0.4649 -0.4726
  117OSM   H18G12282   0.184   6.941   5.127 -0.7686 -1.2557 -0.8523
  117OSM   H18H12283   0.282   6.836   5.251 -0.7305 -1.2968  1.8093
  118OSM      N12284   0.332   5.768   7.570 -0.1992  0.8528  0.1047
  118OSM    C1512285   0.203   5.688   7.582  0.0425 -0.2751 -0.7428
  118OSM   H15A12286   0.216   5.582   7.595  0.1928 -0.2096 -0.3272
  118OSM   H15B12287   0.147   5.701   7.491  0.6612  0.6512 -0.9981
  118OSM   H15C12288   0.145   5.726   7.665 -1.2669 -2.4267 -0.5960
  118OSM    C1412289   0.305   5.907   7.616  0.1052  0.1181  0.1448
  118OSM   H14A12290   0.270   5.918   7.717  0.8328 -1.3452  0.5893
  118OSM   H14B12291   0.246   5.949   7.536  0.5625 -0.5480 -0.5557
  118OSM   H14C12292   0.396   5.966   7.616  1.8516 -2.3828 -0.5088
  118OSM    C1312293   0.434   5.698   7.660  0.8917  0.4143  0.2265
  118OSM   H13A12294   0.396   5.662   7.755 -1.9682 -1.0952 -1.3464
  118OSM   H13B12295   0.524   5.757   7.667  0.5681  1.0608 -0.7952
  118OSM   H13C12296   0.463   5.604   7.615  4.0387  0.5295  1.7423
  118OSM    C1212297   0.379   5.761   7.426 -0.1131  0.0855  0.4758
  118OSM   H12A12298   0.414   5.661   7.404  0.2654  0.1657  0.7016
  118OSM   H12B12299   0.467   5.824   7.423 -0.5830  0.7038 -1.1921
  118OSM    C1112300   0.275   5.805   7.319  0.0920 -0.0690 -0.4038
  118OSM   H11A12301   0.329   5.816   7.223 -0.4028 -2.1140 -0.9751
  118OSM   H11B12302   0.240   5.907   7.343 -0.8286 -0.7978  1.5842
  118OSM      P12303   0.029   5.738   7.248  0.2925 -0.1865 -0.0342
  118OSM    O1312304  -0.062   5.626   7.273  0.4719 -0.4258 -0.0209
  118OSM    O1412305  -0.018   5.866   7.296 -0.6146  0.4757 -0.6055
  118OSM    O1112306   0.061   5.757   7.093  0.1590 -0.1198  0.2955
  118OSM    O1212307   0.175   5.699   7.300 -0.0333  0.0604  0.0085
  118OSM    C1S12308   0.068   5.648   7.004  0.0662 -0.7151 -0.7908
  118OSM    H1S12309  -0.005   5.571   7.038  1.1830 -0.6542  1.9718
  118OSM    H1T12310   0.167   5.597   7.005  1.0769  1.1658 -0.1009
  118OSM     NF12311  -0.014   5.578   6.784  0.3062  0.7403  0.5161
  118OSM    HNF12312   0.042   5.550   6.706  2.0898 -1.0203  2.2845
  118OSM    C2S12313   0.024   5.694   6.859  0.2000 -0.3802  0.1943
  118OSM    H2S12314  -0.067   5.757   6.868  2.3332  3.2760 -1.4521
  118OSM    C3S12315   0.135   5.792   6.809  0.3179 -0.4940  0.4884
  118OSM    H3S12316   0.223   5.725   6.798  0.3245 -0.2970 -0.8944
  118OSM     O312317   0.171   5.904   6.895  0.8776  0.2009  0.5488
  118OSM    HO312318   0.141   5.864   6.977 -2.1659 -0.6892 -0.8964
  118OSM    C4S12319   0.083   5.835   6.670 -0.2967 -0.3214 -0.6201
  118OSM    H4S12320   0.115   5.770   6.587 -1.3673  0.0033 -1.3099
  118OSM    C5S12321   0.001   5.942   6.649  0.5272 -0.5948  0.6365
  118OSM    H5S12322  -0.034   6.007   6.731  1.3923 -0.4747  0.9159
  118OSM    C6S12323  -0.063   5.980   6.519  0.6744  0.4628  0.2741
  118OSM    H6S12324  -0.030   6.084   6.495  2.7347  0.1244  1.4339
  118OSM    H6T12325  -0.175   5.982   6.521  0.5992 -1.7206  0.2728
  118OSM    C7S12326  -0.028   5.896   6.394  0.7417 -0.6577 -0.3537
  118OSM    H7S12327  -0.034   5.786   6.406  0.5033 -0.5796  0.3002
  118OSM    H7T12328   0.078   5.927   6.382 -0.0824  1.7003 -2.3681
  118OSM    C8S12329  -0.113   5.936   6.277  0.4807  0.2406 -0.0247
  118OSM    H8S12330  -0.102   6.041   6.241  2.3148  0.4445  1.0007
  118OSM    H8T12331  -0.223   5.921   6.290  0.6977 -0.1056  1.6847
  118OSM    C9S12332  -0.079   5.840   6.164 -0.9739  0.2390  0.0019
  118OSM    H9S12333  -0.109   5.736   6.189 -0.1070  0.0394  0.2389
  118OSM    H9T12334   0.031   5.857   6.163 -0.9300 -0.0069  0.3834
  118OSM   C10S12335  -0.144   5.864   6.028  0.1466 -0.3969  1.0163
  118OSM   H10S12336  -0.130   5.973   6.007 -0.2549 -0.2623  1.4282
  118OSM   H10T12337  -0.254   5.847   6.034  0.1361 -0.2717  1.1847
  118OSM   C11S12338  -0.095   5.789   5.901  0.1839  0.2077  0.5619
  118OSM   H11S12339   0.013   5.810   5.884  0.0715 -0.3357 -1.0337
  118OSM   H11T12340  -0.143   5.835   5.812 -2.7630 -0.2803  1.7803
  118OSM   C12S12341  -0.141   5.638   5.888 -0.6273 -0.3801 -0.8546
  118OSM   H12S12342  -0.252   5.645   5.884 -0.6691 -1.3447 -1.8452
  118OSM   H12T12343  -0.104   5.598   5.984 -0.8492  0.9963 -0.1662
  118OSM   C13S12344  -0.116   5.551   5.761  0.4819 -0.8363 -0.0149
  118OSM   H13S12345  -0.158   5.451   5.781 -1.4765 -0.0958 -0.1723
  118OSM   H13T12346  -0.007   5.530   5.759  0.9974  1.4975 -0.3910
  118OSM   C14S12347  -0.153   5.620   5.628 -0.1382  0.0403 -0.0563
  118OSM   H14S12348  -0.092   5.711   5.613  0.3817 -0.2136  0.4612
  118OSM   H14T12349  -0.256   5.662   5.634 -0.0519  0.1104  4.2441
  118OSM   C15S12350  -0.133   5.529   5.500 -0.0835 -0.7130 -0.0800
  118OSM   H15S12351  -0.161   5.589   5.411 -0.6868  1.2066  1.3397
  118OSM   H15T12352  -0.203   5.444   5.515 -0.9947 -0.0074 -0.2529
  118OSM   C16S12353   0.010   5.477   5.482 -0.3409  0.4628  0.1789
  118OSM   H16S12354   0.043   5.422   5.573 -0.6096 -0.6483 -0.3728
  118OSM   H16T12355   0.070   5.570   5.484  0.0144  0.2353  0.3377
  118OSM   C17S12356   0.037   5.397   5.354 -0.1946  0.0458 -0.1486
  118OSM   H17S12357  -0.010   5.467   5.281  0.3196  2.0448  1.3468
  118OSM   H17T12358  -0.007   5.296   5.351  3.3682 -1.6480 -0.1327
  118OSM   C18S12359   0.182   5.368   5.328 -0.6454 -0.1480  0.2509
  118OSM   H18S12360   0.239   5.456   5.365 -2.1805  0.9440  0.1040
  118OSM   H18T12361   0.211   5.350   5.223 -1.2598  0.2528  0.0091
  118OSM   H18U12362   0.209   5.273   5.380  1.4256  0.1335 -0.2232
  118OSM    C1F12363  -0.109   5.492   6.830 -0.2445 -0.0051 -0.2809
  118OSM     OF12364  -0.208   5.536   6.887 -0.3407  0.3120 -0.0127
  118OSM    C2F12365  -0.083   5.346   6.818  0.9154 -0.2883 -0.6899
  118OSM    H2F12366  -0.079   5.313   6.924 -3.4976 -0.0283 -0.2799
  118OSM    H2G12367   0.006   5.333   6.752  1.3918  0.2950 -0.1756
  118OSM    C3F12368  -0.199   5.278   6.747  0.2922 -0.1267 -0.0665
  118OSM    H3F12369  -0.290   5.336   6.770  0.1309 -0.2717 -0.3333
  118OSM    H3G12370  -0.207   5.173   6.783  0.4948 -0.4560 -0.9533
  118OSM    C4F12371  -0.173   5.283   6.597  0.0650  0.0754  1.1492
  118OSM    H4F12372  -0.065   5.264   6.583 -0.3926 -0.7502 -2.1795
  118OSM    H4G12373  -0.182   5.387   6.561 -2.1852  0.1276  1.7192
  118OSM    C5F12374  -0.250   5.180   6.519  0.1009 -0.0497  0.3604
  118OSM    H5F12375  -0.361   5.181   6.522 -0.0830  2.0143 -2.6645
  118OSM    H5G12376  -0.219   5.080   6.555 -0.3169 -0.4829 -0.4436
  118OSM    C6F12377  -0.218   5.188   6.369 -0.3224 -0.1441 -0.3487
  118OSM    H6F12378  -0.112   5.167   6.346 -1.2322 -0.3895 -5.4318
  118OSM    H6G12379  -0.229   5.298   6.353 -0.7224  0.5209  3.3780
  118OSM    C7F12380  -0.310   5.108   6.276 -0.0404 -0.0728  0.4004
  118OSM    H7F12381  -0.414   5.106   6.315 -1.4507 -3.3757 -2.9001
  118OSM    H7G12382  -0.282   5.001   6.287  0.8747  0.2481  1.4758
  118OSM    C8F12383  -0.326   5.152   6.130 -0.2988 -0.4591 -0.4852
  118OSM    H8F12384  -0.396   5.239   6.132  1.0033  0.5947  0.9581
  118OSM    H8G12385  -0.384   5.082   6.066  2.3826 -1.1561 -2.3403
  118OSM    C9F12386  -0.194   5.191   6.064  0.5250  0.4194  0.5387
  118OSM    H9F12387  -0.138   5.266   6.121 -0.4282 -1.1442  3.7924
  118OSM   C10F12388  -0.133   5.137   5.955  0.5933  0.9035 -0.1675
  118OSM   H10F12389  -0.037   5.181   5.925  0.5808 -0.2479 -2.0438
  118OSM   C11F12390  -0.182   5.029   5.874 -0.2969  0.4997  0.4709
  118OSM   H11F12391  -0.284   4.989   5.893 -0.3313  1.2266  2.0325
  118OSM   H11G12392  -0.109   4.947   5.891 -1.5404 -0.5939  0.7445
  118OSM   C12F12393  -0.180   5.036   5.711  0.6695  0.4007 -0.3215
  118OSM   H12F12394  -0.232   4.945   5.673 -3.6588  2.2146  0.6920
  118OSM   H12G12395  -0.071   5.039   5.689  0.5509 -0.3466 -1.0749
  118OSM   C13F12396  -0.252   5.159   5.657  0.1215 -0.2966  0.4374
  118OSM   H13F12397  -0.194   5.252   5.672  1.8025 -1.0483 -1.0092
  118OSM   H13G12398  -0.356   5.164   5.697  0.7841  0.1404  2.1748
  118OSM   C14F12399  -0.269   5.134   5.508 -0.7405 -0.3711 -0.1123
  118OSM   H14F12400  -0.314   5.034   5.495 -0.4458 -0.7136  1.3283
  118OSM   H14G12401  -0.168   5.146   5.462  0.6931 -0.2409  2.8638
  118OSM   C15F12402  -0.352   5.240   5.431 -0.3808 -0.0806 -0.5917
  118OSM   H15F12403  -0.305   5.278   5.337 -0.4116 -0.6239 -0.8339
  118OSM   H15G12404  -0.360   5.333   5.490 -2.1021 -0.0092 -0.8829
  118OSM   C16F12405  -0.491   5.196   5.389  0.2285 -0.6672 -0.5899
  118OSM   H16F12406  -0.502   5.127   5.302 -1.2075  0.9337 -1.7648
  118OSM   H16G12407  -0.549   5.282   5.349 -0.4064 -1.0843 -0.5784
  118OSM   C17F12408  -0.576   5.150   5.506 -0.0346  0.3371  0.3463
  118OSM   H17F12409  -0.589   5.221   5.589  0.1627  0.7554  0.0225
  118OSM   H17G12410  -0.523   5.060   5.543  0.7975  1.0282  0.8642
  118OSM   C18F12411  -0.718   5.095   5.465 -0.0599  0.1289 -0.4303
  118OSM   H18F12412  -0.723   5.028   5.377 -0.1314  0.1986 -0.4798
  118OSM   H18G12413  -0.785   5.181   5.443  1.4229  2.1713  2.3128
  118OSM   H18H12414  -0.763   5.043   5.553  2.1561  0.3411  0.9284
  119OSM      N12415   3.235   0.937   7.657 -0.5404  0.2700 -0.2157
  119OSM    C1512416   3.137   0.831   7.616  0.5552 -0.0794 -0.3947
  119OSM   H15A12417   3.192   0.773   7.544  0.9498  0.9886 -0.9771
  119OSM   H15B12418   3.055   0.881   7.567 -0.0537 -0.1698  0.4986
  119OSM   H15C12419   3.105   0.765   7.696 -0.9836  0.0869 -0.8374
  119OSM    C1412420   3.173   1.023   7.755  0.0671  0.0340  0.1419
  119OSM   H14A12421   3.083   1.072   7.722  0.0553 -0.0787  0.0059
  119OSM   H14B12422   3.234   1.099   7.802 -0.5748  0.1513  0.8160
  119OSM   H14C12423   3.142   0.967   7.843  1.3484  1.2534  1.4333
  119OSM    C1312424   3.364   0.874   7.707  0.3073  0.3981  0.7095
  119OSM   H13A12425   3.419   0.935   7.776  0.6162 -0.2745  1.0709
  119OSM   H13B12426   3.427   0.859   7.620 -1.0081  1.8113 -0.5525
  119OSM   H13C12427   3.356   0.777   7.754  1.6189 -0.2068 -0.2461
  119OSM    C1212428   3.257   1.027   7.539 -0.7792  0.2945  0.5579
  119OSM   H12A12429   3.356   1.071   7.544 -1.4921  2.6033 -2.5211
  119OSM   H12B12430   3.196   1.116   7.544  0.6734  1.3617  0.1355
  119OSM    C1112431   3.237   0.967   7.395 -0.9231  0.0780 -0.3782
  119OSM   H11A12432   3.290   0.869   7.402  1.5220  1.4082  1.9448
  119OSM   H11B12433   3.279   1.032   7.315  1.7400 -0.4390  0.4898
  119OSM      P12434   3.038   0.905   7.230 -0.0490 -0.2370 -0.2483
  119OSM    O1312435   2.934   0.802   7.248 -0.2266 -0.3397 -0.2294
  119OSM    O1412436   2.998   1.015   7.151 -0.1636 -0.0027 -0.3646
  119OSM    O1112437   3.155   0.836   7.146  0.1244 -0.4916  0.1595
  119OSM    O1212438   3.097   0.945   7.370  0.6102 -0.0095  1.0111
  119OSM    C1S12439   3.144   0.814   7.003  0.4154  0.5931 -0.4546
  119OSM    H1S12440   3.046   0.854   6.970 -0.3043  0.9500  1.8754
  119OSM    H1T12441   3.155   0.705   6.989  3.0609  0.9512 -1.6104
  119OSM     NF12442   3.239   0.857   6.797 -0.9149 -0.8742 -0.1128
  119OSM    HNF12443   3.304   0.790   6.762  0.5049  0.2639  0.2249
  119OSM    C2S12444   3.252   0.896   6.933  0.5907 -0.1040  0.8731
  119OSM    H2S12445   3.223   1.002   6.949 -0.1218 -0.1216 -0.1712
  119OSM    C3S12446   3.391   0.872   6.994 -0.5247  0.4067 -0.4703
  119OSM    H3S12447   3.416   0.766   7.015 -0.7089  0.7699  1.8226
  119OSM     O312448   3.399   0.931   7.125 -0.0211 -0.4904  0.1410
  119OSM    HO312449   3.309   0.914   7.153  0.1202 -0.9350  0.3295
  119OSM    C4S12450   3.504   0.920   6.905  0.7091 -0.0837 -0.1301
  119OSM    H4S12451   3.509   1.030   6.896  1.0842 -0.2216 -2.2249
  119OSM    C5S12452   3.603   0.845   6.847 -0.0106 -1.2457  0.0363
  119OSM    H5S12453   3.607   0.737   6.868  0.1828 -0.7831  2.7585
  119OSM    C6S12454   3.721   0.889   6.760 -0.5573 -0.4340 -0.5982
  119OSM    H6S12455   3.713   0.853   6.655  1.6128  0.8856 -1.2771
  119OSM    H6T12456   3.815   0.855   6.809  0.6724  2.3818 -0.7884
  119OSM    C7S12457   3.726   1.041   6.755  0.1754  0.3216 -0.2607
  119OSM    H7S12458   3.731   1.085   6.856  2.7692  0.9127 -0.5765
  119OSM    H7T12459   3.637   1.076   6.698 -0.1267  2.7194  1.5517
  119OSM    C8S12460   3.849   1.093   6.690  0.0858 -0.6198 -0.3502
  119OSM    H8S12461   3.933   1.052   6.750  1.2206  1.0361 -0.7397
  119OSM    H8T12462   3.871   1.200   6.710 -0.3138 -0.1050 -2.4148
  119OSM    C9S12463   3.862   1.089   6.540  0.4008 -0.5028 -0.5973
  119OSM    H9S12464   3.775   1.131   6.485  1.1837 -0.0976 -1.5633
  119OSM    H9T12465   3.870   0.981   6.519  1.3847 -0.2815 -1.4724
  119OSM   C10S12466   3.999   1.149   6.496 -0.4657  0.1236  0.5882
  119OSM   H10S12467   4.080   1.125   6.568 -0.3251  0.9523  0.7099
  119OSM   H10T12468   4.000   1.260   6.496  2.1181  0.1580 -0.3792
  119OSM   C11S12469   4.016   1.125   6.345  0.0340 -0.4912  0.2933
  119OSM   H11S12470   3.929   1.151   6.281 -0.3324  0.1124  1.0189
  119OSM   H11T12471   4.021   1.016   6.325  2.7524 -0.5067  0.6812
  119OSM   C12S12472   4.131   1.190   6.270 -0.5401 -0.0151 -0.5933
  119OSM   H12S12473   4.224   1.156   6.318 -1.0952 -1.5398 -0.5441
  119OSM   H12T12474   4.117   1.298   6.294  1.5217  0.2019 -0.2018
  119OSM   C13S12475   4.145   1.150   6.126  0.3815  0.8421 -0.3422
  119OSM   H13S12476   4.049   1.174   6.076 -0.5283  0.5396  1.2024
  119OSM   H13T12477   4.188   1.048   6.110  1.9793  0.9306  2.6490
  119OSM   C14S12478   4.251   1.244   6.060  0.0828 -0.2789 -0.2097
  119OSM   H14S12479   4.346   1.226   6.115  0.3532  1.6555  0.0380
  119OSM   H14T12480   4.208   1.346   6.065 -3.6727 -1.6780 -0.6377
  119OSM   C15S12481   4.293   1.208   5.915  0.1993  0.2746  0.2294
  119OSM   H15S12482   4.240   1.119   5.878 -0.2957 -0.4267  2.4555
  119OSM   H15T12483   4.399   1.175   5.902  0.3246  1.0934 -1.0170
  119OSM   C16S12484   4.272   1.320   5.814 -0.4681 -0.5391 -0.6438
  119OSM   H16S12485   4.337   1.405   5.846 -0.4711  0.1501 -2.3453
  119OSM   H16T12486   4.168   1.358   5.823  0.0338  1.1158 -1.4388
  119OSM   C17S12487   4.299   1.282   5.668 -0.4647 -0.1453 -0.4728
  119OSM   H17S12488   4.228   1.201   5.642  0.4484 -0.8435 -0.8200
  119OSM   H17T12489   4.403   1.243   5.663 -0.3965  0.0388 -0.5031
  119OSM   C18S12490   4.270   1.406   5.576 -0.2245 -0.1972  0.1684
  119OSM   H18S12491   4.291   1.387   5.469  0.5998  3.6794 -0.5089
  119OSM   H18T12492   4.328   1.497   5.606 -1.6087  1.8776 -2.9632
  119OSM   H18U12493   4.161   1.428   5.587 -0.4244  0.1315 -2.0764
  119OSM    C1F12494   3.142   0.896   6.713  0.0382  0.0575  0.3465
  119OSM     OF12495   3.075   0.999   6.736 -0.3617 -0.5890  0.5400
  119OSM    C2F12496   3.131   0.817   6.580  0.7214 -0.0987 -0.2700
  119OSM    H2F12497   3.149   0.709   6.602 -2.3384 -0.5334  0.4932
  119OSM    H2G12498   3.212   0.858   6.516  1.0056  0.1292  0.2247
  119OSM    C3F12499   2.984   0.827   6.518 -0.2289  0.2372  0.8668
  119OSM    H3F12500   2.982   0.768   6.425 -1.1799 -1.4367  1.8908
  119OSM    H3G12501   2.959   0.933   6.496  1.0099  0.5027  0.6671
  119OSM    C4F12502   2.874   0.758   6.608 -0.2456  0.3230  0.3490
  119OSM    H4F12503   2.872   0.811   6.705  0.0002  1.7981 -0.4235
  119OSM    H4G12504   2.920   0.659   6.631  0.5561  0.7862  0.7733
  119OSM    C5F12505   2.728   0.740   6.542  1.5310 -0.0928  0.7964
  119OSM    H5F12506   2.684   0.831   6.496  0.1989 -1.3992 -0.6300
  119OSM    H5G12507   2.661   0.712   6.626  0.1535  0.9912  0.0983
  119OSM    C6F12508   2.728   0.632   6.432  0.5123 -0.0087  0.5394
  119OSM    H6F12509   2.633   0.576   6.443  0.2251  0.1746 -0.8730
  119OSM    H6G12510   2.810   0.560   6.450  0.6747 -0.2932 -1.1937
  119OSM    C7F12511   2.731   0.678   6.287 -0.2656  0.4722 -0.2764
  119OSM    H7F12512   2.830   0.725   6.273  0.6437 -1.8854 -2.5916
  119OSM    H7G12513   2.661   0.763   6.268  1.0780  1.9442  1.1334
  119OSM    C8F12514   2.709   0.575   6.177  0.3941  1.2784 -0.0486
  119OSM    H8F12515   2.698   0.629   6.081 -0.1122  0.3494 -0.5220
  119OSM    H8G12516   2.610   0.526   6.186  0.9212  0.1336 -0.3870
  119OSM    C9F12517   2.809   0.459   6.171 -0.1909 -0.2510 -0.3199
  119OSM    H9F12518   2.851   0.430   6.268 -0.7008 -0.6841 -0.2232
  119OSM   C10F12519   2.854   0.393   6.058  0.7849  0.2892  0.0787
  119OSM   H10F12520   2.921   0.308   6.077 -1.7577 -1.1130  3.8139
  119OSM   C11F12521   2.783   0.415   5.921 -0.1310  0.4941 -0.4788
  119OSM   H11F12522   2.811   0.516   5.883  0.8856  0.8210  1.0281
  119OSM   H11G12523   2.673   0.408   5.937  0.1212 -0.6486  0.9830
  119OSM   C12F12524   2.821   0.326   5.797 -0.0608  0.0310 -0.4611
  119OSM   H12F12525   2.751   0.344   5.713 -0.8628 -3.2665 -0.6204
  119OSM   H12G12526   2.819   0.217   5.814  1.4923  0.2623  1.7255
  119OSM   C13F12527   2.970   0.361   5.751 -0.3443 -0.7334  0.7570
  119OSM   H13F12528   3.039   0.363   5.838  0.6982  0.9028 -0.0427
  119OSM   H13G12529   2.978   0.469   5.724 -0.5893 -1.1427 -1.1465
  119OSM   C14F12530   3.018   0.282   5.625  0.0207 -1.3736  0.4503
  119OSM   H14F12531   2.931   0.281   5.555  0.2994  0.6822 -0.0108
  119OSM   H14G12532   3.039   0.183   5.669 -1.0762 -1.1322  1.5851
  119OSM   C15F12533   3.136   0.348   5.539  0.0213 -0.0644 -0.4048
  119OSM   H15F12534   3.224   0.358   5.606  0.4572 -2.7402 -0.4989
  119OSM   H15G12535   3.103   0.452   5.517  0.7963  0.5611  1.2151
  119OSM   C16F12536   3.163   0.283   5.404 -0.1450 -0.0489  0.0348
  119OSM   H16F12537   3.228   0.335   5.330 -3.1938  1.8471 -1.5496
  119OSM   H16G12538   3.065   0.281   5.351 -0.4505  0.9035  0.5341
  119OSM   C17F12539   3.220   0.145   5.421 -0.2907  0.1860  0.2316
  119OSM   H17F12540   3.264   0.137   5.522 -0.4055  0.5896  0.3173
  119OSM   H17G12541   3.313   0.131   5.362  2.0889  1.9277  3.2720
  119OSM   C18F12542   3.119   0.039   5.390 -0.2189 -0.1053  0.2028
  119OSM   H18F12543   3.024   0.044   5.447 -0.6385  1.2835 -0.5684
  119OSM   H18G12544   3.155  -0.066   5.396 -0.3107 -0.0893  1.2055
  119OSM   H18H12545   3.092   0.067   5.286 -0.6082  0.1798  0.3791
  120OSM      N12546   2.900   6.602   7.771 -0.5635 -0.0123  0.1986
  120OSM    C1512547   2.912   6.550   7.907  0.0332  0.3994 -0.1398
  120OSM   H15A12548   2.992   6.478   7.911  0.4922  0.7511 -2.0461
  120OSM   H15B12549   2.822   6.499   7.937  0.7693  0.8473  3.2782
  120OSM   H15C12550   2.925   6.631   7.978 -1.3205  2.0332 -1.6713
  120OSM    C1412551   3.037   6.665   7.750  0.5460 -0.6011  0.1529
  120OSM   H14A12552   3.035   6.747   7.821  1.3377 -0.6325  0.2181
  120OSM   H14B12553   3.051   6.698   7.649 -0.9004  1.1571  0.4579
  120OSM   H14C12554   3.113   6.592   7.771 -2.6750 -3.8819  1.6035
  120OSM    C1312555   2.886   6.489   7.674 -0.2600  0.2834 -0.1580
  120OSM   H13A12556   2.960   6.410   7.676 -2.2979 -1.6988  1.5293
  120OSM   H13B12557   2.870   6.532   7.576  1.5088  1.1247 -0.1225
  120OSM   H13C12558   2.791   6.445   7.699 -0.5319  0.5488 -0.6908
  120OSM    C1212559   2.790   6.701   7.740 -0.1492  0.6665 -0.0457
  120OSM   H12A12560   2.800   6.782   7.810 -1.1965  0.0211  0.8958
  120OSM   H12B12561   2.692   6.663   7.765  0.5072  0.1000  1.9093
  120OSM    C1112562   2.781   6.750   7.596  0.0913 -0.4334 -0.5245
  120OSM   H11A12563   2.870   6.793   7.545  0.0633  1.0307  0.5879
  120OSM   H11B12564   2.718   6.842   7.600 -2.2789 -2.0317  0.8974
  120OSM      P12565   2.557   6.624   7.524  0.0856  0.0753 -0.0871
  120OSM    O1312566   2.526   6.486   7.471 -0.0144 -0.2863 -0.2056
  120OSM    O1412567   2.499   6.661   7.657  0.4804  0.1589 -0.8140
  120OSM    O1112568   2.517   6.737   7.412  0.3620  0.5063  0.5596
  120OSM    O1212569   2.718   6.643   7.523 -0.5666 -0.2885 -0.0939
  120OSM    C1S12570   2.605   6.753   7.300  0.0676 -0.2894 -0.2206
  120OSM    H1S12571   2.649   6.656   7.271 -0.1801 -0.8997  1.3239
  120OSM    H1T12572   2.694   6.808   7.336  1.2699 -1.4649 -1.3115
  120OSM     NF12573   2.612   6.809   7.051 -0.1244 -0.4545 -0.0555
  120OSM    HNF12574   2.673   6.884   7.027  0.9317 -1.7147 -1.5844
  120OSM    C2S12575   2.543   6.837   7.182 -0.0639 -0.4852  0.4900
  120OSM    H2S12576   2.436   6.808   7.172  0.0178 -0.6385 -0.0020
  120OSM    C3S12577   2.543   6.992   7.208 -0.1861 -0.4326 -0.3816
  120OSM    H3S12578   2.642   7.042   7.201 -0.2447  0.3751  2.9835
  120OSM     O312579   2.512   7.029   7.343  0.6514 -0.1766 -0.2076
  120OSM    HO312580   2.520   6.945   7.389  0.4059 -0.3261 -0.4316
  120OSM    C4S12581   2.460   7.061   7.101 -0.0533 -0.1260 -0.2614
  120OSM    H4S12582   2.351   7.045   7.095 -0.0507 -0.2856  0.0964
  120OSM    C5S12583   2.509   7.122   6.995  0.3432  0.0355  0.8047
  120OSM    H5S12584   2.617   7.114   6.978  0.3431 -0.2493  0.9270
  120OSM    C6S12585   2.427   7.163   6.878  0.9665  0.3211  0.3508
  120OSM    H6S12586   2.439   7.272   6.860  0.0740  0.4405  0.4157
  120OSM    H6T12587   2.317   7.156   6.896  1.0768 -1.0871  0.5970
  120OSM    C7S12588   2.457   7.078   6.759 -0.4107 -0.1440  0.7590
  120OSM    H7S12589   2.451   6.971   6.787 -0.6271  0.1988  2.0542
  120OSM    H7T12590   2.562   7.096   6.726 -0.9591 -0.9441 -1.6313
  120OSM    C8S12591   2.367   7.090   6.640  0.6560  0.0588  0.0997
  120OSM    H8S12592   2.258   7.082   6.663  0.5777 -1.5069 -0.6446
  120OSM    H8T12593   2.389   7.001   6.577  0.0016  0.2499 -0.4137
  120OSM    C9S12594   2.398   7.226   6.567 -0.7374  0.0122  0.2712
  120OSM    H9S12595   2.502   7.227   6.527 -1.6329 -0.2531 -2.2714
  120OSM    H9T12596   2.382   7.305   6.644 -2.4977  0.6537 -0.6912
  120OSM   C10S12597   2.309   7.265   6.450 -0.8616 -0.6392  1.0115
  120OSM   H10S12598   2.322   7.372   6.424 -1.2501 -0.9372 -0.5623
  120OSM   H10T12599   2.204   7.255   6.486 -0.1904  1.0766  3.7121
  120OSM   C11S12600   2.356   7.182   6.327 -0.3829 -0.3178  0.0974
  120OSM   H11S12601   2.350   7.073   6.348  0.2542 -0.3502  0.1387
  120OSM   H11T12602   2.466   7.196   6.316 -0.1671 -0.6332  1.5764
  120OSM   C12S12603   2.281   7.201   6.192 -0.3352 -0.0342  0.2159
  120OSM   H12S12604   2.280   7.309   6.163 -0.9002 -0.0853  0.0235
  120OSM   H12T12605   2.172   7.186   6.209 -0.2448  0.8506  1.7912
  120OSM   C13S12606   2.345   7.116   6.083 -0.2458 -0.2944  0.1432
  120OSM   H13S12607   2.320   7.009   6.105  2.1448 -0.8383  0.4450
  120OSM   H13T12608   2.455   7.126   6.093 -0.2297 -1.0985  0.8554
  120OSM   C14S12609   2.307   7.140   5.931  0.0681  0.2725  0.0284
  120OSM   H14S12610   2.266   7.243   5.930  0.7735  0.5623 -0.0323
  120OSM   H14T12611   2.228   7.067   5.901  2.6647 -1.5666 -2.9559
  120OSM   C15S12612   2.416   7.110   5.828 -0.3804 -0.8418  0.2956
  120OSM   H15S12613   2.465   7.018   5.867 -0.4655 -0.1668  2.0848
  120OSM   H15T12614   2.489   7.194   5.834 -0.7123 -0.6057  1.2572
  120OSM   C16S12615   2.364   7.107   5.684 -0.0636 -0.3014  0.0106
  120OSM   H16S12616   2.328   7.208   5.656  0.0832  0.0084  0.9198
  120OSM   H16T12617   2.284   7.030   5.679  0.8799 -1.2591 -1.1382
  120OSM   C17S12618   2.478   7.074   5.588 -0.6660 -0.5580 -0.2267
  120OSM   H17S12619   2.510   6.968   5.596  0.4436 -0.1047  2.5065
  120OSM   H17T12620   2.564   7.141   5.608  0.1092 -0.7162 -2.7844
  120OSM   C18S12621   2.447   7.092   5.446 -0.2885 -0.0756 -0.4537
  120OSM   H18S12622   2.358   7.035   5.414 -0.6363 -1.0850  2.0966
  120OSM   H18T12623   2.535   7.099   5.379  0.1202  5.7539  0.1841
  120OSM   H18U12624   2.411   7.197   5.438 -0.9663 -0.2235  0.5369
  120OSM    C1F12625   2.603   6.698   6.985 -0.3455  0.2801  0.0899
  120OSM     OF12626   2.542   6.605   7.035 -0.7289 -0.0225  0.0173
  120OSM    C2F12627   2.675   6.690   6.854 -0.1200 -0.1506 -0.1063
  120OSM    H2F12628   2.786   6.691   6.861  0.2475 -0.6981 -3.8292
  120OSM    H2G12629   2.646   6.788   6.810 -1.5582 -0.4533  0.0939
  120OSM    C3F12630   2.634   6.562   6.779  0.0775 -0.0316 -0.3316
  120OSM    H3F12631   2.526   6.550   6.755 -0.8847 -0.2683  3.4537
  120OSM    H3G12632   2.674   6.476   6.838 -1.0812 -0.0123  0.5082
  120OSM    C4F12633   2.700   6.550   6.642 -0.5588  0.0499 -0.1919
  120OSM    H4F12634   2.800   6.597   6.646 -1.3409  1.9681 -1.7751
  120OSM    H4G12635   2.643   6.611   6.568 -1.8478 -0.9967 -0.1234
  120OSM    C5F12636   2.700   6.405   6.586  0.2136  0.8262 -0.2678
  120OSM    H5F12637   2.599   6.360   6.594  1.2620 -1.6814  0.1032
  120OSM    H5G12638   2.764   6.332   6.641 -0.4241  1.4059  1.2990
  120OSM    C6F12639   2.727   6.406   6.433 -0.0511  0.2482  0.3439
  120OSM    H6F12640   2.831   6.445   6.433  0.1779 -0.3335 -0.3338
  120OSM    H6G12641   2.656   6.480   6.389 -1.9277 -1.7256 -0.1237
  120OSM    C7F12642   2.713   6.274   6.370  0.4625  1.3501 -0.0000
  120OSM    H7F12643   2.615   6.226   6.392  1.5133 -0.5754  0.7583
  120OSM    H7G12644   2.793   6.205   6.406 -0.5387  0.5305  0.7331
  120OSM    C8F12645   2.727   6.277   6.215  0.0311  0.1173 -0.1465
  120OSM    H8F12646   2.836   6.282   6.197 -0.6205  0.7365 -5.2079
  120OSM    H8G12647   2.682   6.376   6.194 -0.7983  0.7606  3.7612
  120OSM    C9F12648   2.667   6.156   6.142 -0.4416  0.6381  0.5158
  120OSM    H9F12649   2.563   6.166   6.109 -1.0741  0.1827  2.2635
  120OSM   C10F12650   2.738   6.036   6.113  0.4736 -0.7047 -0.2617
  120OSM   H10F12651   2.682   5.960   6.058  0.1524  1.2357 -2.8007
  120OSM   C11F12652   2.878   6.012   6.164  0.2695 -0.3003 -0.4850
  120OSM   H11F12653   2.883   5.915   6.218 -2.6753  0.1449  0.8041
  120OSM   H11G12654   2.909   6.083   6.244  0.8111 -1.4439  0.3549
  120OSM   C12F12655   2.969   6.020   6.044 -0.4625 -0.1107 -0.1613
  120OSM   H12F12656   2.944   6.104   5.976 -2.1274 -1.5889 -1.4703
  120OSM   H12G12657   2.953   5.934   5.976  0.4541  0.4655 -1.1271
  120OSM   C13F12658   3.116   6.040   6.089 -0.5657 -0.6983 -0.1989
  120OSM   H13F12659   3.147   5.944   6.136  0.2879 -0.1537  0.3692
  120OSM   H13G12660   3.114   6.103   6.180 -1.7736 -1.5077  0.3646
  120OSM   C14F12661   3.225   6.082   5.993  0.4792  0.0456  0.2312
  120OSM   H14F12662   3.323   6.100   6.043 -0.6366  0.7636  2.2824
  120OSM   H14G12663   3.195   6.182   5.958  0.2298  0.8228  2.4709
  120OSM   C15F12664   3.228   5.998   5.859  0.1982  0.4061  0.6839
  120OSM   H15F12665   3.240   5.890   5.880  3.0900  0.4777 -0.2194
  120OSM   H15G12666   3.322   6.029   5.810 -0.8964  2.0528 -0.4643
  120OSM   C16F12667   3.119   6.029   5.761  0.0500 -0.3364  0.8019
  120OSM   H16F12668   3.093   6.136   5.776 -0.0477 -0.3394  0.6517
  120OSM   H16G12669   3.027   5.968   5.775 -0.9632  0.1556 -2.7338
  120OSM   C17F12670   3.164   6.015   5.617  0.4506  0.0373  0.6385
  120OSM   H17F12671   3.271   6.042   5.602  0.2302  0.5067 -0.1318
  120OSM   H17G12672   3.115   6.092   5.553  0.5347 -0.7852 -0.4386
  120OSM   C18F12673   3.135   5.874   5.554 -1.1352  0.2491  0.3423
  120OSM   H18F12674   3.212   5.802   5.588 -1.7503  0.0747  1.3916
  120OSM   H18G12675   3.130   5.881   5.443  2.8142  1.7836  0.0979
  120OSM   H18H12676   3.039   5.835   5.594 -0.4083 -1.5188  0.4604
  121OSM      N12677   0.608   2.439   7.389  0.0673 -0.4897 -0.3210
  121OSM    C1512678   0.504   2.457   7.497  0.0417 -0.0903 -0.1674
  121OSM   H15A12679   0.554   2.483   7.588  0.2932  1.4652 -0.7270
  121OSM   H15B12680   0.445   2.371   7.524  0.0744 -0.6794 -1.8301
  121OSM   H15C12681   0.436   2.536   7.469 -1.2639 -0.9124  0.5919
  121OSM    C1412682   0.735   2.377   7.442  1.1313 -1.0881 -0.1385
  121OSM   H14A12683   0.795   2.365   7.353 -0.9381  1.4304 -2.0340
  121OSM   H14B12684   0.730   2.281   7.491  3.9473 -2.2220 -1.8490
  121OSM   H14C12685   0.793   2.449   7.496 -1.4141  0.6628  0.4228
  121OSM    C1312686   0.545   2.344   7.290 -0.0946  0.2343  0.2231
  121OSM   H13A12687   0.522   2.251   7.340  0.6134 -0.3565 -0.5213
  121OSM   H13B12688   0.617   2.328   7.212  0.8122  0.6094  0.9662
  121OSM   H13C12689   0.454   2.382   7.246 -1.3422 -0.6727  1.8874
  121OSM    C1212690   0.636   2.573   7.326  0.4987  0.2014  0.1938
  121OSM   H12A12691   0.673   2.640   7.402 -0.7860  0.3325  0.7356
  121OSM   H12B12692   0.551   2.630   7.292  0.0236 -2.3029 -3.4857
  121OSM    C1112693   0.736   2.567   7.201  0.4335  0.6180 -0.7484
  121OSM   H11A12694   0.735   2.667   7.153 -2.0549  0.8208 -0.3560
  121OSM   H11B12695   0.690   2.513   7.116 -1.1920 -0.6271  0.8352
  121OSM      P12696   0.975   2.602   7.292  0.1139 -0.1976  0.2399
  121OSM    O1312697   0.912   2.728   7.348 -0.4354  1.0488  0.2868
  121OSM    O1412698   1.057   2.515   7.374  0.1074 -0.1554  0.7950
  121OSM    O1112699   1.068   2.637   7.173  0.2152  0.0874  0.5406
  121OSM    O1212700   0.862   2.515   7.229 -0.3365  0.0031 -0.0255
  121OSM    C1S12701   1.150   2.556   7.097  0.0032 -0.1883  0.4814
  121OSM    H1S12702   1.121   2.449   7.094 -1.7748  0.2664 -1.8772
  121OSM    H1T12703   1.251   2.550   7.141 -0.0377  0.2791  0.6463
  121OSM     NF12704   1.221   2.512   6.867  0.1934  0.1796 -0.0550
  121OSM    HNF12705   1.313   2.530   6.832 -0.1754 -1.3383 -2.0264
  121OSM    C2S12706   1.148   2.606   6.948  0.0341 -0.2060 -0.0347
  121OSM    H2S12707   1.042   2.612   6.917 -0.0470  1.3862  0.4373
  121OSM    C3S12708   1.202   2.748   6.941  0.7693 -0.7810  0.5794
  121OSM    H3S12709   1.310   2.743   6.966  1.2050 -1.8839 -1.3116
  121OSM     O312710   1.143   2.840   7.035 -0.2027 -0.0327 -0.0970
  121OSM    HO312711   1.088   2.783   7.090  0.3472  0.8553  1.4277
  121OSM    C4S12712   1.173   2.791   6.797  0.0388  0.3567  0.2933
  121OSM    H4S12713   1.090   2.742   6.745  1.1245 -0.1192 -1.0413
  121OSM    C5S12714   1.271   2.859   6.731  0.2092  0.2359  0.0580
  121OSM    H5S12715   1.366   2.889   6.779  0.3863 -0.4836  0.1710
  121OSM    C6S12716   1.275   2.882   6.582  0.0282 -0.9354 -0.0039
  121OSM    H6S12717   1.378   2.856   6.552  0.4132 -1.1538  1.4543
  121OSM    H6T12718   1.253   2.989   6.557  1.0976 -0.8060 -0.4440
  121OSM    C7S12719   1.179   2.799   6.494 -0.8497 -0.3803  0.1331
  121OSM    H7S12720   1.072   2.827   6.498 -0.5462  1.4906 -2.5640
  121OSM    H7T12721   1.183   2.688   6.504 -2.1849 -0.5057 -0.5815
  121OSM    C8S12722   1.226   2.839   6.351  0.0251  0.6434  0.1017
  121OSM    H8S12723   1.331   2.804   6.343 -1.0266 -2.9713  0.0343
  121OSM    H8T12724   1.224   2.950   6.347 -2.1236  0.6824  1.0171
  121OSM    C9S12725   1.140   2.762   6.246 -0.3241 -0.3032  0.4491
  121OSM    H9S12726   1.032   2.791   6.247  0.3428  2.9535 -2.5583
  121OSM    H9T12727   1.149   2.652   6.258  1.2931 -0.6690 -3.0249
  121OSM   C10S12728   1.195   2.795   6.106  0.0906 -0.4344 -1.0722
  121OSM   H10S12729   1.304   2.812   6.114 -0.2771  1.7483  0.3509
  121OSM   H10T12730   1.156   2.894   6.072  1.8015 -0.0145 -1.9276
  121OSM   C11S12731   1.162   2.679   6.016  0.0225  0.9118  0.1676
  121OSM   H11S12732   1.051   2.674   6.023 -0.1223 -0.4718 -1.9609
  121OSM   H11T12733   1.206   2.582   6.048  0.4961  0.3860 -1.8949
  121OSM   C12S12734   1.218   2.685   5.866 -0.2033 -0.3575  0.0545
  121OSM   H12S12735   1.328   2.680   5.879 -0.2181  1.6419  1.5249
  121OSM   H12T12736   1.193   2.788   5.833  2.6097  0.3336 -0.2052
  121OSM   C13S12737   1.165   2.571   5.775  0.2524 -0.3729 -0.2753
  121OSM   H13S12738   1.069   2.606   5.732 -0.3202 -0.6274  0.7447
  121OSM   H13T12739   1.151   2.488   5.848 -2.6560  1.4252  1.3950
  121OSM   C14S12740   1.256   2.546   5.656  0.7432 -0.4137  0.5712
  121OSM   H14S12741   1.353   2.515   5.699  0.2175  0.3212  2.3985
  121OSM   H14T12742   1.270   2.643   5.604 -3.2925  1.4435  2.4397
  121OSM   C15S12743   1.196   2.444   5.564 -0.5932 -0.3712  0.2150
  121OSM   H15S12744   1.279   2.418   5.494  1.3597 -0.1647  2.3082
  121OSM   H15T12745   1.123   2.498   5.501 -1.9589  0.1110  2.1304
  121OSM   C16S12746   1.133   2.321   5.640 -0.3497 -0.3936  0.0968
  121OSM   H16S12747   1.044   2.366   5.688 -0.6295 -0.5295 -0.2914
  121OSM   H16T12748   1.200   2.276   5.717 -2.7618 -0.7924  2.0919
  121OSM   C17S12749   1.080   2.212   5.545  0.2071  0.2827  0.4571
  121OSM   H17S12750   1.058   2.123   5.608  2.0710  0.3694  1.3062
  121OSM   H17T12751   1.169   2.179   5.487 -0.4048  1.8832 -1.5150
  121OSM   C18S12752   0.963   2.253   5.447 -0.2532  0.4318  0.8385
  121OSM   H18S12753   0.913   2.169   5.394 -0.8504  0.4711  1.3247
  121OSM   H18T12754   0.995   2.338   5.383 -0.0803 -1.0848 -1.1821
  121OSM   H18U12755   0.884   2.302   5.508 -0.1113  0.5905  0.8954
  121OSM    C1F12756   1.165   2.397   6.838 -0.5769  0.3294 -0.2325
  121OSM     OF12757   1.047   2.373   6.868 -0.1636  0.2849 -0.4728
  121OSM    C2F12758   1.254   2.299   6.764 -0.0531  0.1633  0.5154
  121OSM    H2F12759   1.197   2.214   6.720 -0.3806  0.7534 -0.2171
  121OSM    H2G12760   1.324   2.256   6.839 -0.2005 -0.5207  0.2653
  121OSM    C3F12761   1.323   2.372   6.646  0.3485  0.6123 -0.3918
  121OSM    H3F12762   1.398   2.449   6.675  0.3837  0.3761  0.1589
  121OSM    H3G12763   1.241   2.426   6.593 -1.7137 -2.0683 -0.1672
  121OSM    C4F12764   1.386   2.288   6.537  0.9808  0.1162 -0.6268
  121OSM    H4F12765   1.305   2.217   6.510  0.7812  0.4144 -0.8142
  121OSM    H4G12766   1.472   2.231   6.578 -0.0325  0.9364  3.0353
  121OSM    C5F12767   1.411   2.369   6.414 -0.1614 -0.2540 -0.1636
  121OSM    H5F12768   1.476   2.451   6.452  1.1293 -1.2529 -0.1253
  121OSM    H5G12769   1.321   2.414   6.368 -0.2555 -1.1043 -0.8434
  121OSM    C6F12770   1.485   2.304   6.292 -0.3061  0.5637  0.3592
  121OSM    H6F12771   1.423   2.215   6.267 -0.5176  1.0655 -0.9725
  121OSM    H6G12772   1.592   2.291   6.320  0.5544  2.2370 -1.8854
  121OSM    C7F12773   1.484   2.408   6.179  0.1054 -0.6631 -0.3792
  121OSM    H7F12774   1.513   2.511   6.206  2.2651 -1.4552  0.5566
  121OSM    H7G12775   1.376   2.420   6.155 -0.6198 -0.8560  2.3935
  121OSM    C8F12776   1.559   2.358   6.053  0.3267 -0.3731 -0.2806
  121OSM    H8F12777   1.510   2.263   6.023 -1.4494  0.1087  0.9466
  121OSM    H8G12778   1.662   2.320   6.067  0.5294 -1.8011 -4.2285
  121OSM    C9F12779   1.549   2.444   5.932 -0.7121  0.5428 -0.0985
  121OSM    H9F12780   1.454   2.497   5.916 -0.4037  0.5438 -2.2184
  121OSM   C10F12781   1.640   2.460   5.831 -0.3930 -0.6631 -0.1149
  121OSM   H10F12782   1.623   2.535   5.752 -1.7611  2.6096  3.0179
  121OSM   C11F12783   1.766   2.379   5.813  0.4827 -0.2661 -0.3759
  121OSM   H11F12784   1.738   2.275   5.839 -2.7963  0.5976  0.0346
  121OSM   H11G12785   1.849   2.418   5.875  0.9474 -1.2691 -0.3493
  121OSM   C12F12786   1.816   2.391   5.666 -0.5525  0.1360 -0.2514
  121OSM   H12F12787   1.837   2.494   5.629  0.4483  0.0913  0.1648
  121OSM   H12G12788   1.735   2.355   5.599 -2.3364 -1.1552  2.3859
  121OSM   C13F12789   1.951   2.324   5.633  0.3114 -0.4250  0.1369
  121OSM   H13F12790   1.943   2.214   5.645 -0.5962 -0.3327  0.4383
  121OSM   H13G12791   2.027   2.358   5.706  0.3092  0.5643 -0.3155
  121OSM   C14F12792   2.019   2.370   5.509  0.1413 -0.0963  0.3082
  121OSM   H14F12793   2.040   2.478   5.528 -2.0884  0.5804 -0.7814
  121OSM   H14G12794   1.942   2.364   5.430  0.0801 -2.4316  0.4927
  121OSM   C15F12795   2.146   2.299   5.487  0.5612 -0.5776  0.6218
  121OSM   H15F12796   2.141   2.191   5.511  1.2790 -0.5301  0.9986
  121OSM   H15G12797   2.218   2.344   5.559 -0.8498 -2.0992  3.1313
  121OSM   C16F12798   2.201   2.313   5.345 -0.0564  0.1255  0.4217
  121OSM   H16F12799   2.217   2.421   5.323  1.4782  0.3472  2.3552
  121OSM   H16G12800   2.125   2.266   5.279 -0.0959 -0.2034  0.6969
  121OSM   C17F12801   2.317   2.217   5.327  0.3032 -0.3577 -0.5061
  121OSM   H17F12802   2.338   2.212   5.218 -1.6173 -1.8661 -0.8564
  121OSM   H17G12803   2.284   2.116   5.359  1.0006 -0.6912 -0.7995
  121OSM   C18F12804   2.443   2.257   5.409 -0.7149 -0.0330  0.8353
  121OSM   H18F12805   2.511   2.169   5.400  0.5956  0.5298  3.8112
  121OSM   H18G12806   2.410   2.257   5.515 -1.1113  0.7744  0.7172
  121OSM   H18H12807   2.488   2.354   5.380 -1.4040 -0.1413 -0.7056
  122OSM      N12808   4.200   6.466   7.208 -0.4207  0.0874 -0.2935
  122OSM    C1512809   4.319   6.458   7.110  0.0184 -0.1018 -0.4813
  122OSM   H15A12810   4.299   6.456   7.004 -2.4799  1.9293 -0.1373
  122OSM   H15B12811   4.382   6.374   7.138 -0.5885 -0.4432 -0.1184
  122OSM   H15C12812   4.367   6.553   7.130  2.0381 -1.0904 -0.3064
  122OSM    C1412813   4.105   6.357   7.173 -0.6658 -0.3816 -0.0186
  122OSM   H14A12814   4.169   6.271   7.164  0.6191  0.7293 -2.4183
  122OSM   H14B12815   4.064   6.372   7.074 -0.5583 -2.3660 -0.3939
  122OSM   H14C12816   4.015   6.330   7.227 -0.4272 -0.1041  0.5281
  122OSM    C1312817   4.254   6.439   7.348 -0.2194  0.7322 -0.5796
  122OSM   H13A12818   4.169   6.433   7.415  0.8566  1.7747  0.9482
  122OSM   H13B12819   4.321   6.521   7.371 -0.2175  0.8103 -0.8607
  122OSM   H13C12820   4.298   6.341   7.350  0.4186  1.0054  1.2845
  122OSM    C1212821   4.139   6.602   7.207  0.3243  0.2772  0.0309
  122OSM   H12A12822   4.068   6.600   7.288  0.8900 -0.3196  0.5133
  122OSM   H12B12823   4.087   6.602   7.111  3.8574 -0.1200 -2.0446
  122OSM    C1112824   4.232   6.722   7.216 -0.2043  0.5314 -0.2658
  122OSM   H11A12825   4.315   6.703   7.287 -1.2896 -0.1826  0.8621
  122OSM   H11B12826   4.168   6.806   7.252 -0.7202 -0.5498  1.4888
  122OSM      P12827   4.386   6.879   7.083  0.1636  0.0210  0.0013
  122OSM    O1312828   4.345   6.981   7.181  0.4418  0.3073 -0.0739
  122OSM    O1412829   4.525   6.840   7.088 -0.5437 -0.4479  0.7024
  122OSM    O1112830   4.345   6.921   6.938  0.4566  0.8939 -0.5004
  122OSM    O1212831   4.308   6.749   7.102 -0.2379 -0.1879  0.1825
  122OSM    C1S12832   4.433   6.907   6.827 -0.2199  0.1598 -0.1356
  122OSM    H1S12833   4.464   6.801   6.817 -0.5452  0.0155  0.3474
  122OSM    H1T12834   4.526   6.965   6.845 -0.4267  0.5273 -0.2277
  122OSM     NF12835   4.435   6.886   6.581 -0.4601 -0.0102 -0.0506
  122OSM    HNF12836   4.497   6.941   6.526  1.6909 -0.5044  1.7479
  122OSM    C2S12837   4.365   6.956   6.690 -0.0836 -0.3973  0.0165
  122OSM    H2S12838   4.261   6.917   6.689 -0.0830 -0.3827 -0.9403
  122OSM    C3S12839   4.352   7.112   6.690  0.1763 -0.4622 -0.3082
  122OSM    H3S12840   4.452   7.159   6.680 -1.1182  2.3583 -0.8454
  122OSM     O312841   4.318   7.164   6.821  0.2128  0.2180 -0.1656
  122OSM    HO312842   4.315   7.083   6.873 -0.9913  0.5066  0.2558
  122OSM    C4S12843   4.278   7.155   6.566 -0.2865  0.3093 -0.4528
  122OSM    H4S12844   4.348   7.152   6.481 -1.7729  0.4341 -1.7311
  122OSM    C5S12845   4.149   7.189   6.547  0.2477  0.0979  0.0766
  122OSM    H5S12846   4.082   7.171   6.632  2.4508  0.6466  2.0264
  122OSM    C6S12847   4.085   7.216   6.407  0.4168 -0.4317 -0.5513
  122OSM    H6S12848   4.039   7.317   6.402 -1.2225 -1.2077 -2.2350
  122OSM    H6T12849   4.007   7.139   6.394 -0.1709  0.2596 -1.2687
  122OSM    C7S12850   4.178   7.197   6.284  0.8299  0.2642  0.4888
  122OSM    H7S12851   4.214   7.091   6.286 -1.2795 -0.5153 -0.1835
  122OSM    H7T12852   4.267   7.262   6.294  0.2730  0.7986  2.3170
  122OSM    C8S12853   4.109   7.235   6.157 -0.6068  0.0644  0.1111
  122OSM    H8S12854   4.100   7.345   6.165 -1.4293 -0.0814  1.5300
  122OSM    H8T12855   4.007   7.192   6.148 -0.0632 -0.9234 -1.8018
  122OSM    C9S12856   4.186   7.192   6.024 -0.1684  0.1632 -0.6374
  122OSM    H9S12857   4.190   7.081   6.013 -0.3433  0.1491 -0.5616
  122OSM    H9T12858   4.291   7.226   6.037  0.0375  0.2187 -2.3090
  122OSM   C10S12859   4.126   7.248   5.897 -0.9954  0.1257 -0.3705
  122OSM   H10S12860   4.114   7.357   5.914  2.2171  0.6845 -0.9675
  122OSM   H10T12861   4.023   7.208   5.885 -0.0983 -1.8315 -2.2269
  122OSM   C11S12862   4.215   7.228   5.777 -0.2813  0.5094  0.1791
  122OSM   H11S12863   4.236   7.121   5.758  0.4183  1.1061 -3.0086
  122OSM   H11T12864   4.317   7.266   5.800  1.0808 -3.1026  0.7477
  122OSM   C12S12865   4.157   7.282   5.642 -0.2375  0.5309  0.9069
  122OSM   H12S12866   4.178   7.390   5.631 -0.3729  0.2787 -4.1848
  122OSM   H12T12867   4.048   7.264   5.640 -0.1163 -0.1723  0.3445
  122OSM   C13S12868   4.220   7.211   5.519  0.4244  0.0672  0.1952
  122OSM   H13S12869   4.191   7.104   5.511  1.4453 -0.2802  0.8848
  122OSM   H13T12870   4.330   7.216   5.539  0.3680 -1.5914  1.1853
  122OSM   C14S12871   4.196   7.271   5.377  0.3023 -0.2125  0.6448
  122OSM   H14S12872   4.259   7.212   5.308 -1.2294 -1.3218  0.1217
  122OSM   H14T12873   4.222   7.378   5.390 -0.0173 -0.2237  1.4185
  122OSM   C15S12874   4.052   7.284   5.336 -1.3315  0.5698 -0.1083
  122OSM   H15S12875   4.039   7.350   5.248 -2.4981 -1.6546 -1.6977
  122OSM   H15T12876   3.990   7.325   5.419 -1.3548 -1.0967  0.7510
  122OSM   C16S12877   3.977   7.148   5.312  0.4618  0.8374 -0.3202
  122OSM   H16S12878   3.868   7.167   5.316  0.6125  1.7860 -0.4281
  122OSM   H16T12879   4.005   7.084   5.398  0.8300 -1.0754 -1.7953
  122OSM   C17S12880   4.001   7.070   5.189 -0.5382 -0.0395  0.5794
  122OSM   H17S12881   3.946   6.974   5.198  1.0071 -0.8925  1.2365
  122OSM   H17T12882   4.105   7.033   5.177 -1.4584 -2.8080  0.4562
  122OSM   C18S12883   3.960   7.153   5.063  0.2898 -0.1992  0.2096
  122OSM   H18S12884   4.025   7.243   5.063 -0.1801  0.1899 -1.5257
  122OSM   H18T12885   3.850   7.173   5.065  0.1993 -0.5288 -0.7675
  122OSM   H18U12886   3.995   7.097   4.973  0.9424  1.3156 -0.5121
  122OSM    C1F12887   4.441   6.749   6.562  0.1947 -0.3292 -0.3002
  122OSM     OF12888   4.372   6.670   6.622 -0.0846  0.0606  0.1032
  122OSM    C2F12889   4.546   6.705   6.462  0.3155 -0.4745  0.3972
  122OSM    H2F12890   4.644   6.704   6.513  2.4541 -2.8374 -3.3252
  122OSM    H2G12891   4.557   6.779   6.381 -1.0293 -1.8791 -1.1495
  122OSM    C3F12892   4.519   6.569   6.401 -0.1900 -0.1102  0.4982
  122OSM    H3F12893   4.498   6.497   6.483 -1.5523  0.4555  0.6755
  122OSM    H3G12894   4.614   6.530   6.360 -0.3693  0.8077 -0.8679
  122OSM    C4F12895   4.408   6.562   6.294 -0.0456 -0.4855  0.9089
  122OSM    H4F12896   4.306   6.580   6.334  0.4795 -0.9230  2.5212
  122OSM    H4G12897   4.414   6.458   6.256 -1.7746 -0.0350 -0.7686
  122OSM    C5F12898   4.423   6.664   6.180 -0.9174 -0.1789 -1.0868
  122OSM    H5F12899   4.532   6.661   6.157 -0.5043  0.0627  0.7069
  122OSM    H5G12900   4.409   6.768   6.216  0.9631  0.1648 -1.2456
  122OSM    C6F12901   4.353   6.621   6.053 -0.6791 -0.2157 -0.0818
  122OSM    H6F12902   4.267   6.560   6.087 -2.1588  1.0651 -1.3970
  122OSM    H6G12903   4.424   6.552   6.002  0.1622  0.9024 -0.4708
  122OSM    C7F12904   4.314   6.742   5.966  0.0043  0.5770 -1.1785
  122OSM    H7F12905   4.400   6.812   5.968  1.0641 -0.6923 -1.3850
  122OSM    H7G12906   4.224   6.794   6.008  1.0655  1.3860  0.1750
  122OSM    C8F12907   4.290   6.697   5.822 -0.1482  0.3271 -0.0967
  122OSM    H8F12908   4.209   6.622   5.814  1.0730 -0.8455 -2.9144
  122OSM    H8G12909   4.378   6.637   5.793 -0.8926 -1.1500  0.6118
  122OSM    C9F12910   4.259   6.809   5.723  0.4978 -0.8245  0.9930
  122OSM    H9F12911   4.351   6.864   5.701  0.8709 -2.0779 -0.8772
  122OSM   C10F12912   4.152   6.833   5.648  0.1367  1.0082  0.4825
  122OSM   H10F12913   4.155   6.917   5.577  1.7031  3.2732  3.0183
  122OSM   C11F12914   4.024   6.753   5.664  0.2686 -0.8189 -0.1047
  122OSM   H11F12915   3.939   6.825   5.660 -0.6336 -1.8855 -1.1021
  122OSM   H11G12916   4.015   6.701   5.761 -0.9333  0.6423  0.6093
  122OSM   C12F12917   4.012   6.662   5.546  0.0696 -0.7908  0.1905
  122OSM   H12F12918   3.923   6.596   5.553 -0.5812  0.0688  0.0380
  122OSM   H12G12919   4.097   6.590   5.550  0.3947 -0.4894 -0.8961
  122OSM   C13F12920   4.012   6.720   5.407 -0.4955 -0.5998  1.0956
  122OSM   H13F12921   4.082   6.663   5.341 -1.2677 -0.5087  0.1871
  122OSM   H13G12922   4.053   6.823   5.409 -2.4471  0.1993  2.9912
  122OSM   C14F12923   3.869   6.717   5.341  0.4276  0.9924 -0.5755
  122OSM   H14F12924   3.831   6.613   5.344  4.4853 -0.7247 -1.6949
  122OSM   H14G12925   3.896   6.737   5.235  2.7331 -0.0482 -0.2518
  122OSM   C15F12926   3.769   6.807   5.404  0.4672 -0.2998 -0.0053
  122OSM   H15F12927   3.808   6.911   5.400  0.8469 -0.3787  1.2707
  122OSM   H15G12928   3.755   6.775   5.509 -1.0781 -0.1283 -0.1265
  122OSM   C16F12929   3.636   6.787   5.330 -0.6815 -1.0537 -0.9085
  122OSM   H16F12930   3.649   6.755   5.224 -2.6947  1.1542 -1.9272
  122OSM   H16G12931   3.580   6.883   5.328  1.8123  0.4746 -1.4250
  122OSM   C17F12932   3.545   6.680   5.389 -0.0589 -0.4045 -0.0750
  122OSM   H17F12933   3.532   6.709   5.496  1.0849  2.7153 -0.6928
  122OSM   H17G12934   3.610   6.589   5.388  1.9429  0.9654 -1.4106
  122OSM   C18F12935   3.412   6.648   5.301 -0.0730  0.2612  0.0350
  122OSM   H18F12936   3.336   6.729   5.309  1.6533  2.1203 -1.1536
  122OSM   H18G12937   3.377   6.546   5.327 -0.3428 -0.0911 -1.5926
  122OSM   H18H12938   3.441   6.645   5.194 -2.2676  1.8278 -0.6588
  123OSM      N12939   1.578   0.185   2.402 -0.2558  0.6652 -0.5105
  123OSM    C1512940   1.474   0.272   2.471  0.0177  0.6905 -0.1401
  123OSM   H15A12941   1.428   0.220   2.553  1.5615  0.9128  0.9213
  123OSM   H15B12942   1.409   0.307   2.392  1.1096 -1.8680 -2.3181
  123OSM   H15C12943   1.526   0.359   2.510  2.7350  0.1743 -2.3025
  123OSM    C1412944   1.510   0.076   2.330 -0.2021  0.3309 -0.6858
  123OSM   H14A12945   1.438   0.021   2.389 -0.9489  0.8158 -1.1215
  123OSM   H14B12946   1.579  -0.000   2.298 -0.2976 -0.4537  0.9332
  123OSM   H14C12947   1.450   0.110   2.246  0.8073 -2.7796 -2.8350
  123OSM    C1312948   1.640   0.274   2.303 -0.4965  0.0727  0.3555
  123OSM   H13A12949   1.712   0.224   2.240 -2.3213 -1.3929 -0.7053
  123OSM   H13B12950   1.676   0.367   2.345 -2.3262  0.5972  0.8650
  123OSM   H13C12951   1.570   0.313   2.230  0.1372  1.3514  0.4020
  123OSM    C1212952   1.668   0.140   2.515 -0.3730  0.8520  0.8765
  123OSM   H12A12953   1.744   0.088   2.459 -0.3586  1.0571  0.7036
  123OSM   H12B12954   1.621   0.060   2.570  1.6197 -0.1888  1.1551
  123OSM    C1112955   1.737   0.242   2.608 -0.4303 -0.3885 -0.1031
  123OSM   H11A12956   1.794   0.183   2.683 -1.4059  0.3094  1.2328
  123OSM   H11B12957   1.663   0.308   2.658  0.7755 -0.1299  1.4239
  123OSM      P12958   1.978   0.304   2.526 -0.2222 -0.2835  0.0260
  123OSM    O1312959   2.020   0.183   2.453 -0.4649 -0.4259  0.0555
  123OSM    O1412960   2.036   0.433   2.480 -0.1328 -0.2210  0.2489
  123OSM    O1112961   2.023   0.278   2.675  0.2815 -0.3612 -0.1225
  123OSM    O1212962   1.822   0.322   2.532 -0.7699 -0.1623 -0.3767
  123OSM    C1S12963   1.987   0.371   2.777  0.3952 -0.1546  0.0549
  123OSM    H1S12964   1.886   0.353   2.820  0.6086 -0.7989  0.3008
  123OSM    H1T12965   1.998   0.479   2.751  2.0578  0.1451  1.7720
  123OSM     NF12966   2.039   0.472   2.995 -0.2944 -0.8213  0.2163
  123OSM    HNF12967   2.092   0.556   2.998 -0.6123 -0.6481  2.0556
  123OSM    C2S12968   2.086   0.368   2.900  0.0676 -0.3728 -0.1993
  123OSM    H2S12969   2.063   0.270   2.947 -2.1848 -0.8889 -2.1690
  123OSM    C3S12970   2.232   0.385   2.851  0.5428  0.3494  0.1568
  123OSM    H3S12971   2.237   0.490   2.816  2.7927  0.2241 -0.0616
  123OSM     O312972   2.270   0.300   2.744 -0.6155 -0.7244  0.2254
  123OSM    HO312973   2.192   0.252   2.717 -0.2793 -1.2069  0.1019
  123OSM    C4S12974   2.331   0.371   2.966 -0.0107  0.0962  0.2041
  123OSM    H4S12975   2.374   0.469   2.991 -1.1102  0.2952  1.4344
  123OSM    C5S12976   2.369   0.257   3.028 -0.0928 -0.2254  0.4490
  123OSM    H5S12977   2.336   0.156   2.998 -0.7374  0.6350 -2.0199
  123OSM    C6S12978   2.477   0.243   3.139  0.4357  0.2221 -0.3076
  123OSM    H6S12979   2.528   0.339   3.160  0.4536 -0.1842  1.7201
  123OSM    H6T12980   2.554   0.173   3.101  0.2026 -0.0887 -0.2123
  123OSM    C7S12981   2.436   0.174   3.275 -0.1586 -0.0075  0.1811
  123OSM    H7S12982   2.523   0.173   3.344  0.0156 -1.9092 -0.0099
  123OSM    H7T12983   2.397   0.070   3.266 -0.8779  0.3355 -0.8794
  123OSM    C8S12984   2.318   0.255   3.342  0.1247  0.4752 -0.4751
  123OSM    H8S12985   2.221   0.243   3.289 -0.0666  2.6686 -0.7468
  123OSM    H8T12986   2.349   0.361   3.355  2.2067 -0.4404  4.4379
  123OSM    C9S12987   2.283   0.205   3.485  0.2743 -0.2196  0.1828
  123OSM    H9S12988   2.228   0.109   3.475  0.1038 -0.1060  0.0314
  123OSM    H9T12989   2.214   0.272   3.542 -0.3466 -2.2140  1.9165
  123OSM   C10S12990   2.406   0.172   3.574 -0.1677 -0.2307  0.2845
  123OSM   H10S12991   2.482   0.250   3.550 -0.6764  0.2827  0.3363
  123OSM   H10T12992   2.464   0.080   3.549  0.3543  0.3966 -0.9103
  123OSM   C11S12993   2.376   0.179   3.725 -0.3626  0.4419 -0.2570
  123OSM   H11S12994   2.297   0.108   3.757  1.0743 -0.5154  1.2848
  123OSM   H11T12995   2.346   0.283   3.751 -0.6675  0.5923 -1.1695
  123OSM   C12S12996   2.495   0.144   3.816  0.0833  0.1212  0.2211
  123OSM   H12S12997   2.576   0.216   3.794 -2.5437  3.0625 -0.6551
  123OSM   H12T12998   2.535   0.042   3.795 -1.9664 -0.8045  0.5486
  123OSM   C13S12999   2.452   0.147   3.959 -0.1818 -0.5575  0.2491
  123OSM   H13S13000   2.348   0.108   3.954 -0.1620 -0.6852  0.7905
  123OSM   H13T13001   2.426   0.250   3.992 -0.9212 -0.7846  0.4045
  123OSM   C14S13002   2.526   0.059   4.058 -0.4676  0.0471 -0.7245
  123OSM   H14S13003   2.635   0.067   4.039 -0.6685  1.6751 -1.3433
  123OSM   H14T13004   2.497  -0.045   4.030 -1.0818  0.1802 -0.6109
  123OSM   C15S13005   2.484   0.084   4.199 -0.7800 -0.3609 -0.1685
  123OSM   H15S13006   2.374   0.070   4.201 -0.7289 -1.0429 -1.1776
  123OSM   H15T13007   2.503   0.189   4.231  0.2200 -0.4335 -0.4916
  123OSM   C16S13008   2.543   0.002   4.313 -0.2311  0.5316  0.6247
  123OSM   H16S13009   2.653   0.016   4.305 -0.1511 -0.6672 -0.8873
  123OSM   H16T13010   2.536  -0.106   4.287 -0.8764  0.2423  1.8949
  123OSM   C17S13011   2.484   0.013   4.452 -0.3145  0.2979 -0.4762
  123OSM   H17S13012   2.381  -0.030   4.451 -0.7440  1.1964  0.9970
  123OSM   H17T13013   2.474   0.122   4.473 -2.7845  0.0136  0.2256
  123OSM   C18S13014   2.562  -0.057   4.560  0.2277 -0.1168 -0.2135
  123OSM   H18S13015   2.660  -0.008   4.542  0.4043 -0.5773 -0.5188
  123OSM   H18T13016   2.567  -0.167   4.552  0.3760  0.0070 -2.8779
  123OSM   H18U13017   2.529  -0.022   4.660 -0.0790 -1.2254  0.0799
  123OSM    C1F13018   1.929   0.473   3.057  0.2058  0.1254  0.0828
  123OSM     OF13019   1.864   0.371   3.063  0.3649  0.1461 -1.0401
  123OSM    C2F13020   1.883   0.596   3.127  0.0709 -0.2266  0.7663
  123OSM    H2F13021   1.775   0.618   3.111 -0.1397  1.5890  3.8244
  123OSM    H2G13022   1.938   0.684   3.087  1.7203 -1.5054  0.0998
  123OSM    C3F13023   1.892   0.582   3.280 -0.0846 -0.0473 -0.7342
  123OSM    H3F13024   1.821   0.507   3.321 -0.4817  0.7081  0.0010
  123OSM    H3G13025   1.850   0.674   3.327 -0.0534  0.5483 -1.8450
  123OSM    C4F13026   2.033   0.558   3.336  0.0534  0.1485  0.5273
  123OSM    H4F13027   2.091   0.639   3.289 -0.8780  0.1785 -0.6075
  123OSM    H4G13028   2.084   0.468   3.295 -0.6818  0.5273 -1.2878
  123OSM    C5F13029   2.057   0.565   3.488  0.1050 -0.1677 -0.7125
  123OSM    H5F13030   2.043   0.668   3.528 -0.8269 -0.0071 -1.4309
  123OSM    H5G13031   2.157   0.526   3.519 -1.2265 -3.5818 -0.2973
  123OSM    C6F13032   1.970   0.474   3.574 -0.5969 -0.0490  0.8961
  123OSM    H6F13033   2.001   0.368   3.565 -0.6710  0.1233 -4.5114
  123OSM    H6G13034   1.867   0.477   3.534 -0.6724  0.1732  1.1028
  123OSM    C7F13035   1.954   0.514   3.718 -0.6036 -0.0067 -0.5592
  123OSM    H7F13036   1.862   0.459   3.748  0.6518 -0.9587  1.8659
  123OSM    H7G13037   1.928   0.621   3.733  2.4645  0.6085  1.4088
  123OSM    C8F13038   2.064   0.475   3.824 -0.2578 -0.1183  0.1274
  123OSM    H8F13039   2.163   0.495   3.778 -0.3043  4.3494  1.5526
  123OSM    H8G13040   2.059   0.365   3.837 -2.2279 -0.2840 -1.5335
  123OSM    C9F13041   2.042   0.561   3.953  0.8460 -0.3139 -0.6076
  123OSM    H9F13042   2.016   0.664   3.924 -2.8645 -1.2397 -1.0443
  123OSM   C10F13043   2.066   0.522   4.085  0.0896 -0.2991 -0.6281
  123OSM   H10F13044   2.057   0.595   4.166 -0.4688 -0.2908 -0.6951
  123OSM   C11F13045   2.102   0.385   4.124 -0.3586  0.0206  0.2037
  123OSM   H11F13046   2.210   0.377   4.148 -0.3370 -0.7261 -0.1123
  123OSM   H11G13047   2.076   0.306   4.051  3.3507 -0.4565 -0.8010
  123OSM   C12F13048   2.043   0.348   4.266 -0.4670  0.8732  1.0958
  123OSM   H12F13049   1.939   0.313   4.250 -0.5127  1.4521  0.0309
  123OSM   H12G13050   2.035   0.437   4.332 -2.3134  0.1095  1.9668
  123OSM   C13F13051   2.126   0.246   4.334 -0.2770 -0.1632 -0.4128
  123OSM   H13F13052   2.223   0.297   4.350  0.1387 -1.1183  0.2289
  123OSM   H13G13053   2.153   0.164   4.264 -0.9225 -0.4989 -0.2792
  123OSM   C14F13054   2.062   0.187   4.461 -0.4859  1.1985 -0.4633
  123OSM   H14F13055   1.956   0.160   4.446 -0.4113 -1.1150  2.2979
  123OSM   H14G13056   2.060   0.264   4.541 -0.6016  1.2960 -0.5603
  123OSM   C15F13057   2.133   0.070   4.530  0.0348  0.3034  0.0123
  123OSM   H15F13058   2.232   0.102   4.569 -1.0378  0.8824  2.4280
  123OSM   H15G13059   2.143  -0.018   4.462  1.8244  1.2853 -1.0907
  123OSM   C16F13060   2.043   0.014   4.645 -0.3176  0.0625 -0.6228
  123OSM   H16F13061   2.037  -0.093   4.619  0.1562  0.4894 -2.6783
  123OSM   H16G13062   1.940   0.057   4.649 -0.4075 -0.2292  1.0302
  123OSM   C17F13063   2.104   0.037   4.790 -0.3219 -0.2162 -0.3041
  123OSM   H17F13064   2.145   0.139   4.806  1.4672 -0.9114 -0.2753
  123OSM   H17G13065   2.192  -0.029   4.803  0.7267  1.2522  0.4058
  123OSM   C18F13066   2.005  -0.010   4.905 -0.7254 -0.7618  0.0009
  123OSM   H18F13067   1.967  -0.110   4.875  0.5180 -0.9053 -1.1880
  123OSM   H18G13068   1.921   0.062   4.915 -1.4873 -1.2062 -2.3757
  123OSM   H18H13069   2.062  -0.005   5.000  2.4037 -0.2036 -1.7553
  124OSM      N13070   1.790   0.797   2.613 -0.0827 -0.1374 -0.3306
  124OSM    C1513071   1.766   0.655   2.579 -0.0770 -0.6470  0.2035
  124OSM   H15A13072   1.853   0.594   2.562  1.9042  2.1509 -0.3580
  124OSM   H15B13073   1.710   0.657   2.486 -0.2397 -1.1005  0.2914
  124OSM   H15C13074   1.707   0.614   2.660  2.3982 -2.4852  1.1879
  124OSM    C1413075   1.861   0.793   2.742 -0.1303 -0.2029 -0.4269
  124OSM   H14A13076   1.874   0.897   2.767 -0.0313  0.1798 -1.9618
  124OSM   H14B13077   1.952   0.735   2.739  0.1528  0.1049  1.2404
  124OSM   H14C13078   1.798   0.744   2.815 -3.4129  1.3166 -2.0090
  124OSM    C1313079   1.883   0.859   2.515 -0.6159  0.1776  0.1346
  124OSM   H13A13080   1.839   0.890   2.421 -3.1056 -1.7125  0.5776
  124OSM   H13B13081   1.960   0.786   2.495  0.1393  0.4370  1.9470
  124OSM   H13C13082   1.943   0.933   2.565 -0.8829 -1.0982  2.4532
  124OSM    C1213083   1.655   0.872   2.635 -0.0643  0.2836 -0.3021
  124OSM   H12A13084   1.583   0.816   2.693  0.3377 -0.4343 -0.4748
  124OSM   H12B13085   1.608   0.874   2.538 -0.0587 -0.8296 -0.3412
  124OSM    C1113086   1.656   1.015   2.695  0.4284 -0.1374 -0.1307
  124OSM   H11A13087   1.734   1.026   2.773  2.2262  1.1727 -2.0337
  124OSM   H11B13088   1.557   1.033   2.743  0.8991  0.3679  0.6528
  124OSM      P13089   1.686   1.266   2.626  0.3342 -0.4906 -0.4191
  124OSM    O1313090   1.792   1.331   2.540  0.7828  0.6063 -0.2467
  124OSM    O1413091   1.550   1.326   2.623  0.0402  0.4285 -0.4233
  124OSM    O1113092   1.729   1.248   2.778 -0.1932  0.1194  0.0132
  124OSM    O1213093   1.676   1.108   2.587  0.0290 -0.1926 -0.5921
  124OSM    C1S13094   1.839   1.316   2.836  1.0117 -0.0331 -0.4368
  124OSM    H1S13095   1.864   1.409   2.781 -0.2900  1.3233  1.1783
  124OSM    H1T13096   1.925   1.246   2.848 -0.0854 -1.1981  0.9704
  124OSM     NF13097   1.945   1.417   3.040  0.4640 -0.5359  0.1412
  124OSM    HNF13098   1.999   1.350   3.091 -0.0854 -1.6404 -0.6751
  124OSM    C2S13099   1.820   1.366   2.985  0.4800  0.2711 -0.4200
  124OSM    H2S13100   1.744   1.446   2.975 -2.1566 -1.9707  0.5098
  124OSM    C3S13101   1.764   1.252   3.081  0.1563  0.2050  0.1300
  124OSM    H3S13102   1.843   1.174   3.095 -0.0146 -0.5139 -2.3781
  124OSM     O313103   1.643   1.193   3.027  0.1161 -0.1398  0.6196
  124OSM    HO313104   1.639   1.223   2.936  0.2547  0.0174  0.6634
  124OSM    C4S13105   1.742   1.324   3.213 -0.5569  0.0697  0.6751
  124OSM    H4S13106   1.832   1.334   3.275 -0.8539 -0.3641  1.1842
  124OSM    C5S13107   1.631   1.389   3.261 -1.0564 -0.1023  0.0237
  124OSM    H5S13108   1.539   1.391   3.201 -0.8762 -0.6829 -0.2821
  124OSM    C6S13109   1.633   1.478   3.387  0.1820  0.9147 -0.4646
  124OSM    H6S13110   1.529   1.504   3.418  0.3575  0.8334  0.2067
  124OSM    H6T13111   1.678   1.578   3.368 -2.2395  1.6620 -2.9052
  124OSM    C7S13112   1.686   1.425   3.525  0.6753  0.1489 -0.1668
  124OSM    H7S13113   1.725   1.516   3.574  3.4263  0.5292 -2.7177
  124OSM    H7T13114   1.774   1.360   3.503  2.0436  2.8434 -3.5517
  124OSM    C8S13115   1.589   1.347   3.620 -0.3915  0.1323 -0.2336
  124OSM    H8S13116   1.556   1.254   3.569 -0.7537 -0.9086  1.7614
  124OSM    H8T13117   1.494   1.403   3.631 -0.5887  0.1685 -1.8829
  124OSM    C9S13118   1.629   1.308   3.762 -0.9987 -0.8615 -0.0855
  124OSM    H9S13119   1.737   1.298   3.783 -0.1044  3.2159 -1.7604
  124OSM    H9T13120   1.573   1.214   3.782 -2.3230 -0.5370 -2.0020
  124OSM   C10S13121   1.581   1.411   3.871  0.5182  0.7611  0.3657
  124OSM   H10S13122   1.472   1.418   3.851  0.2590 -1.9937  0.4067
  124OSM   H10T13123   1.640   1.502   3.848  2.1594 -1.0150 -3.2838
  124OSM   C11S13124   1.601   1.369   4.014 -1.0683  0.6420  0.1190
  124OSM   H11S13125   1.561   1.268   4.034  0.7223 -0.9801 -3.5993
  124OSM   H11T13126   1.567   1.443   4.090  2.3650  1.1676  1.3455
  124OSM   C12S13127   1.758   1.353   4.046 -0.1247 -0.2322 -0.5740
  124OSM   H12S13128   1.799   1.454   4.026 -0.4675  0.3561  1.4462
  124OSM   H12T13129   1.794   1.271   3.980  0.7500 -0.5472  0.2685
  124OSM   C13S13130   1.785   1.321   4.195 -0.4356  0.4143  0.6011
  124OSM   H13S13131   1.722   1.236   4.229 -1.0646 -0.5560 -2.6770
  124OSM   H13T13132   1.759   1.405   4.263  2.5216  0.9636  1.1807
  124OSM   C14S13133   1.924   1.283   4.227 -0.2684 -0.0246  0.1711
  124OSM   H14S13134   1.999   1.357   4.189 -0.7810  1.1494  1.3985
  124OSM   H14T13135   1.950   1.188   4.175 -1.8030  0.0278 -0.7485
  124OSM   C15S13136   1.952   1.268   4.379 -0.2388 -0.1501  0.7256
  124OSM   H15S13137   1.882   1.187   4.407 -0.0545 -0.4948  0.2090
  124OSM   H15T13138   1.935   1.361   4.437  5.3648  2.2525 -0.8506
  124OSM   C16S13139   2.092   1.224   4.416 -0.5025  0.3721 -0.4255
  124OSM   H16S13140   2.169   1.269   4.349  1.4512 -0.6648  1.0213
  124OSM   H16T13141   2.106   1.114   4.412  0.4262  0.4576 -0.0420
  124OSM   C17S13142   2.138   1.274   4.559 -0.1530 -0.2694 -0.0442
  124OSM   H17S13143   2.054   1.251   4.628 -0.7259  2.0912  0.1448
  124OSM   H17T13144   2.148   1.383   4.543 -0.6573 -0.5427 -2.8952
  124OSM   C18S13145   2.273   1.219   4.613 -0.2197  0.6435  0.1906
  124OSM   H18S13146   2.317   1.271   4.701  1.1847  1.3090 -0.8688
  124OSM   H18T13147   2.348   1.204   4.533 -0.0901 -0.3496  0.4819
  124OSM   H18U13148   2.243   1.118   4.648  0.1937  0.5506  0.2789
  124OSM    C1F13149   2.004   1.529   2.997 -0.8734  0.5598 -0.3455
  124OSM     OF13150   1.936   1.606   2.935  0.1137  0.3683 -0.0888
  124OSM    C2F13151   2.150   1.551   3.012  0.2152 -0.0105  0.7177
  124OSM    H2F13152   2.209   1.530   2.921 -0.6387  2.1306 -0.3945
  124OSM    H2G13153   2.178   1.479   3.093 -0.5623 -1.0292  0.1096
  124OSM    C3F13154   2.199   1.689   3.071 -0.1383  0.4592  0.8198
  124OSM    H3F13155   2.190   1.761   2.987 -0.9833 -0.0540  0.4638
  124OSM    H3G13156   2.309   1.681   3.089  0.1282 -0.7694 -1.0652
  124OSM    C4F13157   2.125   1.738   3.197 -0.3717 -0.0194  0.1746
  124OSM    H4F13158   2.022   1.765   3.164 -0.7761  2.1017  2.8220
  124OSM    H4G13159   2.178   1.830   3.229 -0.7805  0.3420 -0.1759
  124OSM    C5F13160   2.133   1.640   3.307  0.3970 -0.0182 -0.0076
  124OSM    H5F13161   2.237   1.603   3.309  0.6531  0.4231 -2.2793
  124OSM    H5G13162   2.066   1.552   3.295  0.7855 -0.0225 -2.6172
  124OSM    C6F13163   2.069   1.708   3.432 -0.2022  0.1221 -0.1148
  124OSM    H6F13164   1.972   1.748   3.396 -0.5053  0.8431  1.4079
  124OSM    H6G13165   2.139   1.785   3.472  0.6340 -0.0675 -1.1686
  124OSM    C7F13166   2.045   1.614   3.544  0.3707 -0.1771 -0.4131
  124OSM    H7F13167   2.138   1.567   3.580 -0.0740 -1.3956 -0.7992
  124OSM    H7G13168   1.966   1.539   3.521 -0.2945 -1.1680  4.1504
  124OSM    C8F13169   2.007   1.690   3.670 -0.6489  0.6260 -0.1730
  124OSM    H8F13170   1.926   1.764   3.653  0.5569  1.7616 -1.2406
  124OSM    H8G13171   2.091   1.755   3.703 -1.0505  0.8790  0.3773
  124OSM    C9F13172   1.969   1.588   3.772  0.3377  0.1928 -0.2296
  124OSM    H9F13173   1.868   1.543   3.768  0.6049 -0.6986  1.6906
  124OSM   C10F13174   2.049   1.536   3.868 -0.0361 -0.1415 -0.2073
  124OSM   H10F13175   2.005   1.461   3.935 -0.5294 -0.6437 -1.0735
  124OSM   C11F13176   2.193   1.578   3.894  0.2098 -0.3676  0.3495
  124OSM   H11F13177   2.245   1.632   3.812 -1.2553  0.0001 -0.3794
  124OSM   H11G13178   2.255   1.487   3.910 -0.1557 -0.9363 -1.2910
  124OSM   C12F13179   2.198   1.664   4.017  1.0194  0.6461 -0.0490
  124OSM   H12F13180   2.128   1.750   4.006  0.3085 -0.1259 -1.9939
  124OSM   H12G13181   2.297   1.714   4.020  1.7672 -0.7674 -0.3381
  124OSM   C13F13182   2.164   1.597   4.153 -0.0941 -0.3711  0.2109
  124OSM   H13F13183   2.235   1.513   4.168 -0.9530 -1.2406 -0.4846
  124OSM   H13G13184   2.061   1.555   4.157 -1.4623  2.7241  0.5519
  124OSM   C14F13185   2.179   1.701   4.264 -0.1080  0.2479 -0.0517
  124OSM   H14F13186   2.102   1.781   4.252  1.3834  1.6006 -1.0261
  124OSM   H14G13187   2.278   1.750   4.258  0.1258 -0.2487 -0.2944
  124OSM   C15F13188   2.170   1.627   4.406  0.1238 -0.3285  0.7464
  124OSM   H15F13189   2.256   1.557   4.413  0.8802  0.4980  0.0174
  124OSM   H15G13190   2.082   1.561   4.416  3.2691 -4.8339  1.7499
  124OSM   C16F13191   2.168   1.726   4.522  0.3810 -0.1092  0.1623
  124OSM   H16F13192   2.065   1.765   4.516  0.6610  0.6061 -0.0616
  124OSM   H16G13193   2.243   1.804   4.499 -1.7345  1.9445 -0.0589
  124OSM   C17F13194   2.187   1.659   4.653 -0.2921  0.4888 -0.0602
  124OSM   H17F13195   2.283   1.603   4.646  0.1075  0.9742  1.3078
  124OSM   H17G13196   2.101   1.588   4.659  0.0146  0.1191  0.0101
  124OSM   C18F13197   2.195   1.745   4.780  0.1648  0.4070  0.2750
  124OSM   H18F13198   2.116   1.819   4.805  0.2321  0.3502  0.6722
  124OSM   H18G13199   2.283   1.812   4.770 -0.3993  1.1666  0.3375
  124OSM   H18H13200   2.214   1.685   4.872 -2.1647 -0.7437  0.0687
  125OSM      N13201   2.901   6.728   2.467  0.0341  0.4766 -0.5727
  125OSM    C1513202   2.821   6.705   2.594 -0.4799 -0.3358  0.9029
  125OSM   H15A13203   2.850   6.786   2.659  1.3848 -1.3346  1.3640
  125OSM   H15B13204   2.836   6.605   2.632  0.3593 -0.8079 -0.6124
  125OSM   H15C13205   2.716   6.716   2.567 -0.0841 -0.2497 -0.7292
  125OSM    C1413206   2.864   6.627   2.370 -0.0862 -0.0718  0.1360
  125OSM   H14A13207   2.880   6.527   2.405  0.9373  0.0907  0.1661
  125OSM   H14B13208   2.917   6.636   2.276  0.7101 -1.7568  0.3957
  125OSM   H14C13209   2.759   6.633   2.348  0.0381  0.3504 -0.3586
  125OSM    C1313210   2.868   6.867   2.411 -0.1997 -0.8709  0.6905
  125OSM   H13A13211   2.763   6.884   2.393  0.5535  0.5277 -3.4433
  125OSM   H13B13212   2.927   6.878   2.321  1.2259 -0.8545  1.5882
  125OSM   H13C13213   2.914   6.933   2.483 -1.1397  1.1104 -0.4601
  125OSM    C1213214   3.048   6.703   2.507 -0.3850 -0.0790 -0.1142
  125OSM   H12A13215   3.084   6.779   2.574  1.7968  0.4300 -1.7573
  125OSM   H12B13216   3.107   6.722   2.419 -0.2074  1.1030  0.2478
  125OSM    C1113217   3.093   6.561   2.560  0.8620  1.0363  0.1229
  125OSM   H11A13218   3.203   6.569   2.565  0.8533  1.0948  0.2450
  125OSM   H11B13219   3.071   6.473   2.497  2.0305  0.2413  0.7863
  125OSM      P13220   3.011   6.409   2.760 -0.1998 -0.1344 -0.0068
  125OSM    O1313221   2.957   6.423   2.892 -0.5647 -0.2876  0.4176
  125OSM    O1413222   2.920   6.325   2.680 -0.1494  0.2244  0.4788
  125OSM    O1113223   3.148   6.343   2.776 -0.3113  0.3622  0.2269
  125OSM    O1213224   3.045   6.546   2.695 -0.1527 -0.4986  0.1947
  125OSM    C1S13225   3.266   6.397   2.835 -0.6222  0.3072  0.3004
  125OSM    H1S13226   3.279   6.504   2.808  3.3780 -0.4479 -1.5661
  125OSM    H1T13227   3.356   6.347   2.793 -1.0747  1.1068 -1.7434
  125OSM     NF13228   3.381   6.476   3.039  0.3183 -0.4241  0.4069
  125OSM    HNF13229   3.474   6.444   3.054  0.8552  1.3575  1.0802
  125OSM    C2S13230   3.272   6.387   2.995 -0.1079 -0.2799  0.0580
  125OSM    H2S13231   3.176   6.416   3.043 -0.0229 -1.6055  1.0937
  125OSM    C3S13232   3.290   6.239   3.045 -0.1911 -0.0094  0.6151
  125OSM    H3S13233   3.383   6.204   2.997 -0.6679 -1.5220  0.7396
  125OSM     O313234   3.191   6.150   2.991  0.1010  0.1589 -0.5418
  125OSM    HO313235   3.129   6.196   2.934 -2.6857  1.3960  3.0675
  125OSM    C4S13236   3.296   6.224   3.196 -0.4521  0.0419  0.4779
  125OSM    H4S13237   3.212   6.268   3.251 -1.0525 -0.8683  0.2934
  125OSM    C5S13238   3.391   6.153   3.263  0.1488 -1.2127  1.3040
  125OSM    H5S13239   3.452   6.088   3.199 -0.0964 -0.1380 -0.0766
  125OSM    C6S13240   3.390   6.135   3.406  0.0028 -0.6252  0.4406
  125OSM    H6S13241   3.393   6.027   3.432  0.9313 -0.8396 -0.4486
  125OSM    H6T13242   3.305   6.182   3.460  0.6441  0.4760  0.5275
  125OSM    C7S13243   3.523   6.179   3.467  0.1467 -0.4886  0.7245
  125OSM    H7S13244   3.540   6.288   3.454  2.2244 -1.1130 -4.5787
  125OSM    H7T13245   3.607   6.136   3.409  0.1009  0.6112 -0.2108
  125OSM    C8S13246   3.526   6.155   3.617 -0.2900 -1.1045 -0.8390
  125OSM    H8S13247   3.632   6.167   3.650  0.0020 -1.4503 -1.6331
  125OSM    H8T13248   3.501   6.047   3.624 -0.5614 -1.1716 -2.4747
  125OSM    C9S13249   3.438   6.254   3.699 -0.1763  0.2305  0.1548
  125OSM    H9S13250   3.340   6.205   3.716  0.3154 -1.6697 -1.9738
  125OSM    H9T13251   3.426   6.349   3.643 -0.7423  0.4685  0.6614
  125OSM   C10S13252   3.502   6.293   3.829 -0.2808 -0.1821  0.4528
  125OSM   H10S13253   3.432   6.366   3.874 -0.9218 -2.1936  2.9473
  125OSM   H10T13254   3.594   6.350   3.804 -0.6235  0.2180  0.0914
  125OSM   C11S13255   3.513   6.170   3.912 -0.3481 -0.5348 -0.0775
  125OSM   H11S13256   3.603   6.116   3.877 -0.4599 -0.8170  0.0716
  125OSM   H11T13257   3.425   6.107   3.886 -0.8404  0.6347 -1.3858
  125OSM   C12S13258   3.532   6.195   4.059 -0.1409 -0.9536 -0.7318
  125OSM   H12S13259   3.437   6.233   4.103 -0.1113  1.7140 -2.7460
  125OSM   H12T13260   3.591   6.286   4.081 -3.5477  1.1443  0.4394
  125OSM   C13S13261   3.604   6.081   4.128  0.7552 -0.7015  0.5380
  125OSM   H13S13262   3.705   6.069   4.083 -0.4940  0.2939 -2.8910
  125OSM   H13T13263   3.537   5.994   4.116  2.4342 -1.9688  0.0032
  125OSM   C14S13264   3.618   6.099   4.280  0.3284 -0.2824 -0.2102
  125OSM   H14S13265   3.514   6.119   4.315 -0.3849  1.4210 -2.9343
  125OSM   H14T13266   3.675   6.192   4.301 -0.0711 -0.5667  2.3837
  125OSM   C15S13267   3.694   5.984   4.339 -0.2346  0.5027 -0.0197
  125OSM   H15S13268   3.796   5.981   4.296 -0.8778  1.4088 -1.7257
  125OSM   H15T13269   3.647   5.886   4.317  0.7189  0.1225 -0.4002
  125OSM   C16S13270   3.706   5.996   4.492  0.3285  0.0284 -0.0378
  125OSM   H16S13271   3.738   5.900   4.536 -0.8210 -0.6731 -0.6803
  125OSM   H16T13272   3.603   6.010   4.533  0.2020  1.4267 -0.7731
  125OSM   C17S13273   3.806   6.112   4.535  0.0787  0.3520 -0.5538
  125OSM   H17S13274   3.825   6.082   4.641  0.0443 -3.0851 -1.3831
  125OSM   H17T13275   3.751   6.208   4.539 -2.8147 -1.1971 -0.5606
  125OSM   C18S13276   3.941   6.125   4.467  0.6256  0.9678  0.9651
  125OSM   H18S13277   3.928   6.149   4.359 -0.8361  1.1673  1.1685
  125OSM   H18T13278   3.985   6.024   4.478 -1.2156  0.0133  0.0734
  125OSM   H18U13279   4.008   6.193   4.524  0.1084  1.0786  1.4500
  125OSM    C1F13280   3.360   6.608   3.044  0.6779  0.1451  0.4112
  125OSM     OF13281   3.245   6.652   3.027 -1.0595  0.1026  0.1504
  125OSM    C2F13282   3.474   6.697   3.079  0.3096  0.1337  0.4456
  125OSM    H2F13283   3.435   6.801   3.067  1.6969  0.6034 -0.2699
  125OSM    H2G13284   3.549   6.677   2.999 -0.2705  0.1641 -0.1096
  125OSM    C3F13285   3.529   6.669   3.216 -0.0144  0.1295 -0.2628
  125OSM    H3F13286   3.531   6.560   3.239  0.7731  0.3082  0.5986
  125OSM    H3G13287   3.471   6.711   3.301 -0.5909  0.5664 -0.8658
  125OSM    C4F13288   3.672   6.722   3.252 -0.5382  0.0538  0.1345
  125OSM    H4F13289   3.684   6.832   3.249 -0.7888  0.2289  2.9571
  125OSM    H4G13290   3.737   6.669   3.179 -0.2084  0.2271  0.3045
  125OSM    C5F13291   3.711   6.688   3.399 -0.4565  0.3635  0.0865
  125OSM    H5F13292   3.656   6.749   3.474 -1.3694  0.2504 -0.4710
  125OSM    H5G13293   3.817   6.716   3.412 -0.2331 -0.1602 -0.5679
  125OSM    C6F13294   3.691   6.536   3.430 -0.2273 -0.2819  0.2823
  125OSM    H6F13295   3.742   6.478   3.350  3.5117 -0.2137  2.3734
  125OSM    H6G13296   3.581   6.524   3.442 -0.4106  0.5504 -0.4186
  125OSM    C7F13297   3.744   6.490   3.570  0.2540  0.5101  0.5414
  125OSM    H7F13298   3.701   6.388   3.583  2.6671 -0.3383  2.4805
  125OSM    H7G13299   3.718   6.565   3.648 -2.0352  2.4444 -1.8499
  125OSM    C8F13300   3.896   6.472   3.567 -0.7283  0.2872 -0.0313
  125OSM    H8F13301   3.925   6.579   3.556 -1.5330  0.8347  2.5101
  125OSM    H8G13302   3.922   6.405   3.482 -2.5807  0.2989 -0.6592
  125OSM    C9F13303   3.948   6.416   3.697  0.2451  0.1895  0.1369
  125OSM    H9F13304   3.936   6.311   3.728  0.8030  0.3586  0.9775
  125OSM   C10F13305   4.009   6.486   3.798 -0.4809 -0.4034  0.6038
  125OSM   H10F13306   4.026   6.440   3.897 -0.3059 -0.0108  0.7605
  125OSM   C11F13307   4.037   6.637   3.802  0.9027 -0.1010 -0.1130
  125OSM   H11F13308   4.025   6.675   3.699 -1.2220 -0.8379 -0.1915
  125OSM   H11G13309   4.133   6.668   3.849  0.2946  0.2805  0.9092
  125OSM   C12F13310   3.928   6.708   3.877 -0.1130  0.7508 -0.1958
  125OSM   H12F13311   3.827   6.688   3.834 -0.6497  0.0243  1.3136
  125OSM   H12G13312   3.945   6.817   3.861  1.1324  0.4878 -0.7667
  125OSM   C13F13313   3.927   6.687   4.029  0.5799 -0.1849  0.1556
  125OSM   H13F13314   3.942   6.580   4.053 -1.0829 -0.3800  0.4265
  125OSM   H13G13315   3.823   6.717   4.054 -0.1258 -2.3197 -0.0271
  125OSM   C14F13316   4.034   6.774   4.100 -0.3772 -0.3864  0.7429
  125OSM   H14F13317   4.020   6.877   4.060  0.7369 -1.4294 -2.6503
  125OSM   H14G13318   4.130   6.738   4.056 -1.1054 -0.6337 -0.7118
  125OSM   C15F13319   4.034   6.760   4.248  0.2946 -0.4473  0.6787
  125OSM   H15F13320   4.065   6.656   4.271  3.3142 -0.1803 -1.5717
  125OSM   H15G13321   3.928   6.771   4.279  0.0098 -0.3148 -0.3180
  125OSM   C16F13322   4.120   6.862   4.325  0.0347  0.4480 -0.0279
  125OSM   H16F13323   4.089   6.965   4.298  0.8100  0.7908  0.3558
  125OSM   H16G13324   4.230   6.860   4.306  0.1060  0.7983  0.3462
  125OSM   C17F13325   4.099   6.849   4.478  0.2256  0.2177  0.3842
  125OSM   H17F13326   3.991   6.860   4.503  0.2060 -0.9158  0.8412
  125OSM   H17G13327   4.149   6.936   4.525 -2.8665  2.1927  0.3112
  125OSM   C18F13328   4.161   6.719   4.523 -0.0641 -0.4772 -0.4798
  125OSM   H18F13329   4.268   6.708   4.495  0.6235  1.1158  1.2811
  125OSM   H18G13330   4.104   6.628   4.494 -1.1178 -0.5010  1.4881
  125OSM   H18H13331   4.154   6.719   4.634 -0.9785 -1.6529 -0.5231
  126OSM      N13332   0.973   4.238   2.611  0.0244 -0.1455  0.6953
  126OSM    C1513333   0.830   4.196   2.635 -0.3764  0.0403  0.4488
  126OSM   H15A13334   0.822   4.112   2.703 -1.2586  1.8051  2.6750
  126OSM   H15B13335   0.768   4.180   2.548  0.7664 -2.2492 -0.0028
  126OSM   H15C13336   0.773   4.269   2.691 -0.8957  0.4543 -0.6078
  126OSM    C1413337   1.062   4.224   2.734 -0.0434 -0.0830  0.9089
  126OSM   H14A13338   1.021   4.295   2.805  0.2565  1.3686 -0.3246
  126OSM   H14B13339   1.160   4.265   2.717 -1.1485  1.9366 -1.1509
  126OSM   H14C13340   1.076   4.122   2.766  1.5525  0.6469  2.7579
  126OSM    C1313341   1.018   4.129   2.513  0.2684 -0.3199 -0.4057
  126OSM   H13A13342   0.946   4.122   2.433  0.4060 -0.6217 -0.5048
  126OSM   H13B13343   1.017   4.036   2.568 -0.0616  0.0687  0.2561
  126OSM   H13C13344   1.116   4.149   2.473 -0.1043  3.3697  0.1833
  126OSM    C1213345   0.969   4.379   2.561  0.3140  0.6447  0.7955
  126OSM   H12A13346   0.914   4.449   2.621  0.8577  2.1624 -0.4101
  126OSM   H12B13347   0.920   4.380   2.465  0.1132 -1.0298  0.8411
  126OSM    C1113348   1.099   4.442   2.533  0.1161 -0.6859  0.3847
  126OSM   H11A13349   1.162   4.396   2.454 -1.2930 -1.1324 -0.5342
  126OSM   H11B13350   1.167   4.442   2.621  0.3437 -1.1230  0.2134
  126OSM      P13351   1.163   4.700   2.537 -0.0474  0.1367  0.1528
  126OSM    O1313352   1.299   4.662   2.493  0.5504  0.0017 -0.2884
  126OSM    O1413353   1.102   4.824   2.495  0.0074 -0.2303 -0.0662
  126OSM    O1113354   1.166   4.708   2.695  0.5256  0.3296  0.2886
  126OSM    O1213355   1.063   4.583   2.510  0.5125 -0.2480  0.0908
  126OSM    C1S13356   1.039   4.674   2.756  0.2673  0.0258 -0.2418
  126OSM    H1S13357   1.010   4.567   2.746 -0.0870  0.1691 -0.8174
  126OSM    H1T13358   0.955   4.720   2.699 -0.1432 -1.0629 -0.5506
  126OSM     NF13359   0.922   4.667   2.968  0.4273  0.1260  0.4420
  126OSM    HNF13360   0.869   4.741   3.008 -2.5036 -2.3500  1.5159
  126OSM    C2S13361   1.042   4.708   2.908 -0.5107 -0.3173 -0.1540
  126OSM    H2S13362   1.118   4.640   2.952 -0.6842 -0.2472  0.2585
  126OSM    C3S13363   1.091   4.857   2.933  0.4084 -0.8982  0.2496
  126OSM    H3S13364   1.009   4.919   2.890 -0.4666 -1.5173  0.9693
  126OSM     O313365   1.207   4.894   2.863 -0.1534  0.3466  0.5777
  126OSM    HO313366   1.203   4.820   2.801  0.6196  0.6077  0.1980
  126OSM    C4S13367   1.089   4.899   3.078  0.0064  0.0661 -0.3939
  126OSM    H4S13368   0.991   4.906   3.126  1.2341  0.5125  2.1964
  126OSM    C5S13369   1.194   4.902   3.163  0.4622  0.7368  0.6047
  126OSM    H5S13370   1.291   4.864   3.128  0.2822 -1.2342  2.1113
  126OSM    C6S13371   1.191   4.940   3.302 -0.2173 -0.1016 -0.6576
  126OSM    H6S13372   1.090   4.977   3.330 -0.9337 -0.5196 -2.5351
  126OSM    H6T13373   1.253   5.032   3.307 -0.1474 -0.2074  0.8540
  126OSM    C7S13374   1.245   4.837   3.401  0.0334  0.3159  0.4962
  126OSM    H7S13375   1.334   4.792   3.350  0.5225  2.6693 -0.8829
  126OSM    H7T13376   1.170   4.755   3.408  0.1702  0.1778  0.3522
  126OSM    C8S13377   1.260   4.880   3.545 -0.6879 -0.0843 -0.0119
  126OSM    H8S13378   1.177   4.952   3.562 -0.5971 -0.2963  1.4405
  126OSM    H8T13379   1.363   4.918   3.560  0.4126 -3.4060  1.7864
  126OSM    C9S13380   1.246   4.769   3.650  0.1488 -0.7363 -0.2987
  126OSM    H9S13381   1.299   4.682   3.604  0.1612  0.0764 -1.8924
  126OSM    H9T13382   1.139   4.737   3.656 -0.2336  0.6325  0.6073
  126OSM   C10S13383   1.302   4.807   3.784  0.1206  0.2759 -0.2252
  126OSM   H10S13384   1.273   4.912   3.805  1.1210  0.6742 -0.7713
  126OSM   H10T13385   1.412   4.796   3.767 -0.3948 -4.4266 -2.0123
  126OSM   C11S13386   1.267   4.706   3.895 -0.2922 -0.6940  0.0463
  126OSM   H11S13387   1.304   4.739   3.995 -0.5995 -1.2966  0.3568
  126OSM   H11T13388   1.307   4.606   3.867 -0.6616 -1.5929  2.4708
  126OSM   C12S13389   1.114   4.689   3.900  0.5577 -0.1597  0.0904
  126OSM   H12S13390   1.078   4.614   3.827 -0.6141 -0.3286  0.8196
  126OSM   H12T13391   1.071   4.786   3.868  0.0142  0.0874  1.4903
  126OSM   C13S13392   1.050   4.653   4.038  0.0742  0.8028 -0.4498
  126OSM   H13S13393   0.940   4.666   4.033 -0.1045  1.1160  2.6180
  126OSM   H13T13394   1.082   4.731   4.110 -0.6905 -0.3755  1.2652
  126OSM   C14S13395   1.076   4.507   4.094 -0.6369 -0.2667 -0.0817
  126OSM   H14S13396   1.183   4.480   4.102 -0.6427 -0.6733 -1.2755
  126OSM   H14T13397   1.036   4.427   4.029 -3.5667  0.7022  0.3739
  126OSM   C15S13398   1.028   4.495   4.240 -0.3526  0.2237  0.3100
  126OSM   H15S13399   0.917   4.496   4.227 -0.1720 -0.8365 -1.7627
  126OSM   H15T13400   1.051   4.587   4.299  1.3116  1.3118 -1.9182
  126OSM   C16S13401   1.057   4.366   4.315 -0.1518  0.3108  0.6155
  126OSM   H16S13402   1.030   4.277   4.254 -1.4644  0.2060  1.3119
  126OSM   H16T13403   0.988   4.351   4.401  0.4863 -2.1461  0.7573
  126OSM   C17S13404   1.192   4.352   4.365 -0.3077  0.0394 -0.6678
  126OSM   H17S13405   1.266   4.364   4.283  1.4974 -1.4410  0.6463
  126OSM   H17T13406   1.203   4.250   4.407  0.2709 -0.4895 -2.0530
  126OSM   C18S13407   1.221   4.451   4.480 -0.2439 -0.0940 -0.2966
  126OSM   H18S13408   1.162   4.411   4.565  1.6788  1.3324  1.8540
  126OSM   H18T13409   1.190   4.553   4.450 -1.9197 -1.0060 -1.8647
  126OSM   H18U13410   1.331   4.444   4.499  0.2900  1.1449 -2.5980
  126OSM    C1F13411   0.884   4.545   2.996 -0.1977  0.7086  0.0127
  126OSM     OF13412   0.944   4.449   2.950  0.2252 -0.0436  0.7787
  126OSM    C2F13413   0.765   4.526   3.091 -0.3256  0.4035  0.2783
  126OSM    H2F13414   0.696   4.451   3.048 -0.5065 -0.6506  2.3024
  126OSM    H2G13415   0.720   4.627   3.100  0.8160  0.9168  0.4287
  126OSM    C3F13416   0.800   4.488   3.243  0.4279  0.2750  1.0067
  126OSM    H3F13417   0.900   4.533   3.259  1.1483 -1.7328  2.5449
  126OSM    H3G13418   0.813   4.380   3.261  1.4019  0.7127  3.2583
  126OSM    C4F13419   0.710   4.552   3.352  0.7010  0.5252  0.5102
  126OSM    H4F13420   0.618   4.491   3.368 -0.5024  1.5459 -2.0106
  126OSM    H4G13421   0.694   4.655   3.314 -2.2214  0.3444  0.9672
  126OSM    C5F13422   0.787   4.561   3.482 -0.2598  0.9159 -0.5799
  126OSM    H5F13423   0.880   4.619   3.465  0.6766  0.5055  2.4249
  126OSM    H5G13424   0.817   4.458   3.511  2.2498  1.6465 -0.4145
  126OSM    C6F13425   0.700   4.604   3.606 -0.4164 -0.2403  0.9052
  126OSM    H6F13426   0.606   4.545   3.595 -0.8916  0.3101  1.9267
  126OSM    H6G13427   0.680   4.712   3.595 -1.5528 -0.5903 -0.9684
  126OSM    C7F13428   0.770   4.582   3.734  0.0868 -0.5595 -1.2480
  126OSM    H7F13429   0.861   4.645   3.735 -0.2272 -0.0199 -2.9478
  126OSM    H7G13430   0.795   4.474   3.737  0.0555 -0.6219  2.4939
  126OSM    C8F13431   0.676   4.583   3.856 -0.0497 -0.1200  0.0342
  126OSM    H8F13432   0.734   4.542   3.941  1.6616  2.4990  0.2714
  126OSM    H8G13433   0.595   4.510   3.841  0.1328 -1.0176  2.8901
  126OSM    C9F13434   0.608   4.715   3.881 -0.1503  0.8854  0.0077
  126OSM    H9F13435   0.553   4.772   3.805 -0.6136  1.4865  0.7728
  126OSM   C10F13436   0.607   4.782   4.001  0.6110  0.4951 -0.2892
  126OSM   H10F13437   0.534   4.863   4.010 -0.6531 -0.7368  1.1045
  126OSM   C11F13438   0.667   4.742   4.133 -0.6481  0.0508 -0.9931
  126OSM   H11F13439   0.729   4.651   4.118  0.0593  0.0893  1.2967
  126OSM   H11G13440   0.579   4.717   4.197 -0.2832 -1.7053 -1.1360
  126OSM   C12F13441   0.733   4.852   4.216  0.8835  0.2978  0.3243
  126OSM   H12F13442   0.657   4.931   4.235 -0.5929 -1.4234  1.9268
  126OSM   H12G13443   0.815   4.892   4.152 -0.1722  2.5739  0.2577
  126OSM   C13F13444   0.785   4.804   4.351 -0.0973 -0.0049 -0.2817
  126OSM   H13F13445   0.786   4.693   4.357  0.2834  0.0108 -0.0398
  126OSM   H13G13446   0.709   4.844   4.422  0.5426  1.3882 -0.3702
  126OSM   C14F13447   0.930   4.856   4.376 -0.4707 -0.5691 -0.3554
  126OSM   H14F13448   0.985   4.821   4.286 -0.0798 -1.3811  0.1906
  126OSM   H14G13449   0.967   4.817   4.473 -2.0742  1.0903  1.0097
  126OSM   C15F13450   0.926   5.015   4.403 -0.1985  0.2106  0.7520
  126OSM   H15F13451   0.860   5.065   4.328  0.2695 -0.9866 -0.5100
  126OSM   H15G13452   1.023   5.061   4.376 -0.6690 -0.3765 -2.2942
  126OSM   C16F13453   0.869   5.062   4.539 -0.2488  0.4000 -0.2200
  126OSM   H16F13454   0.903   4.991   4.617 -1.6339  1.4123  1.3685
  126OSM   H16G13455   0.759   5.045   4.534 -0.2464  0.5103 -0.7643
  126OSM   C17F13456   0.894   5.203   4.570  0.4709  0.0667  0.0812
  126OSM   H17F13457   0.887   5.266   4.480  3.2028 -1.1624 -1.1334
  126OSM   H17G13458   1.001   5.206   4.603  1.0291 -0.6041 -1.5471
  126OSM   C18F13459   0.799   5.265   4.681  0.2637  0.9699  0.2233
  126OSM   H18F13460   0.814   5.372   4.703 -4.3040  1.3716  2.5215
  126OSM   H18G13461   0.816   5.208   4.775  1.8902  1.8778  0.5074
  126OSM   H18H13462   0.693   5.259   4.647  0.9368  0.7485 -2.0003
  127OSM      N13463   0.778   1.470   2.672 -0.2554 -0.8220 -0.4789
  127OSM    C1513464   0.799   1.317   2.672 -0.1064  0.7915 -0.3710
  127OSM   H15A13465   0.810   1.262   2.580  2.2614  0.0146  0.2949
  127OSM   H15B13466   0.720   1.273   2.731  0.2331  0.4394 -0.1689
  127OSM   H15C13467   0.890   1.293   2.725 -0.4759 -1.9425 -0.8404
  127OSM    C1413468   0.777   1.508   2.828 -0.0942  0.3148  1.0643
  127OSM   H14A13469   0.733   1.604   2.853 -0.5886  0.5036 -0.4389
  127OSM   H14B13470   0.872   1.487   2.876 -0.2743 -0.1503  1.2210
  127OSM   H14C13471   0.708   1.448   2.885 -0.6465 -0.7616 -0.6768
  127OSM    C1313472   0.897   1.550   2.618  0.5600  0.1401 -0.1266
  127OSM   H13A13473   0.918   1.507   2.521 -1.4890 -0.9389 -0.1427
  127OSM   H13B13474   0.985   1.548   2.681  0.4803 -2.0812 -0.0024
  127OSM   H13C13475   0.868   1.654   2.609 -0.3011 -0.1958 -1.4261
  127OSM    C1213476   0.654   1.516   2.602  0.1614  0.6184 -0.0426
  127OSM   H12A13477   0.572   1.451   2.629  1.5651 -1.5133 -0.6598
  127OSM   H12B13478   0.664   1.509   2.494 -1.4880 -0.6366 -0.1624
  127OSM    C1113479   0.610   1.660   2.633  0.0216 -0.6963  0.4607
  127OSM   H11A13480   0.541   1.686   2.551  1.8552 -1.6380 -1.4624
  127OSM   H11B13481   0.702   1.722   2.640 -0.2499 -0.3204  0.7603
  127OSM      P13482   0.528   1.810   2.819  0.1538 -0.1609  0.2353
  127OSM    O1313483   0.649   1.890   2.807  0.0533  0.0337  0.3214
  127OSM    O1413484   0.405   1.868   2.770  0.2225  0.2066 -0.4050
  127OSM    O1113485   0.500   1.765   2.966 -0.2248 -0.0085 -0.4099
  127OSM    O1213486   0.539   1.673   2.753  0.0707  0.0506  0.6032
  127OSM    C1S13487   0.478   1.628   2.999 -0.0870  0.5300  0.1511
  127OSM    H1S13488   0.573   1.575   2.977 -0.1095  0.0778  1.0939
  127OSM    H1T13489   0.400   1.581   2.936  0.9271 -0.1287 -0.6580
  127OSM     NF13490   0.476   1.463   3.192  0.5516 -0.2702  0.0032
  127OSM    HNF13491   0.394   1.406   3.193  0.4133 -0.0771 -0.4968
  127OSM    C2S13492   0.450   1.606   3.152 -0.5001 -0.0961 -0.5439
  127OSM    H2S13493   0.521   1.665   3.213 -0.5711 -0.9712  0.4158
  127OSM    C3S13494   0.310   1.660   3.200 -0.0081  0.5712  0.3119
  127OSM    H3S13495   0.237   1.591   3.154  1.7946 -0.3124 -1.3533
  127OSM     O313496   0.275   1.789   3.149  0.2878 -0.1887  0.0246
  127OSM    HO313497   0.343   1.802   3.082  0.6003 -3.1996 -0.3617
  127OSM    C4S13498   0.298   1.642   3.343  0.6137 -0.1912 -0.7267
  127OSM    H4S13499   0.253   1.547   3.373  0.8654  0.0913  0.6240
  127OSM    C5S13500   0.316   1.734   3.436 -0.2375 -1.0023  0.4102
  127OSM    H5S13501   0.351   1.833   3.403  1.0694 -1.3817  0.6021
  127OSM    C6S13502   0.290   1.714   3.583 -0.5392 -0.4427 -0.5969
  127OSM    H6S13503   0.191   1.763   3.596 -0.1462 -0.1688  1.9462
  127OSM    H6T13504   0.364   1.778   3.634 -0.6970 -0.5643 -0.2072
  127OSM    C7S13505   0.285   1.583   3.664 -0.5503 -0.0188 -0.8230
  127OSM    H7S13506   0.382   1.533   3.641  0.6086  1.5644  0.3789
  127OSM    H7T13507   0.204   1.519   3.624 -1.0000  0.7165 -1.0971
  127OSM    C8S13508   0.286   1.592   3.813 -0.5612 -0.0806 -0.2753
  127OSM    H8S13509   0.185   1.612   3.853 -0.5072  0.1236 -0.2434
  127OSM    H8T13510   0.349   1.678   3.843  0.0410 -1.2465  2.0290
  127OSM    C9S13511   0.351   1.471   3.894  0.2063  0.6146  0.0439
  127OSM    H9S13512   0.457   1.466   3.863  0.6065  1.3371  1.2181
  127OSM    H9T13513   0.307   1.377   3.855 -1.7925  1.2634  0.5859
  127OSM   C10S13514   0.340   1.457   4.047  0.0837 -0.2643  0.3250
  127OSM   H10S13515   0.235   1.468   4.082  0.9541  2.6780  2.3607
  127OSM   H10T13516   0.383   1.545   4.099 -2.0690  0.6641  0.6109
  127OSM   C11S13517   0.410   1.334   4.092 -0.3931  0.2771 -0.2536
  127OSM   H11S13518   0.521   1.344   4.084 -0.4442  0.5581 -0.6613
  127OSM   H11T13519   0.371   1.259   4.020  0.4254  0.4889 -0.9330
  127OSM   C12S13520   0.377   1.307   4.243  0.0823 -0.1969  0.4605
  127OSM   H12S13521   0.266   1.297   4.242  0.1587 -2.7618  3.5207
  127OSM   H12T13522   0.385   1.404   4.296 -2.4543 -0.2417  1.0478
  127OSM   C13S13523   0.460   1.196   4.297 -0.8220  0.4474  0.5810
  127OSM   H13S13524   0.559   1.230   4.333 -0.5322 -0.6709  0.8912
  127OSM   H13T13525   0.466   1.126   4.211 -0.5041 -0.4309  1.2978
  127OSM   C14S13526   0.398   1.131   4.418  0.3233 -0.5006 -0.0554
  127OSM   H14S13527   0.436   1.028   4.434 -1.8356 -1.3596 -0.1101
  127OSM   H14T13528   0.288   1.130   4.398  0.3751  0.5983 -0.5064
  127OSM   C15S13529   0.423   1.204   4.553  0.5108  0.0026  0.0720
  127OSM   H15S13530   0.359   1.294   4.565  0.2867 -0.1729  0.2001
  127OSM   H15T13531   0.532   1.225   4.558  0.8704 -1.7416  0.3014
  127OSM   C16S13532   0.386   1.119   4.677  0.7656  0.3718 -0.0157
  127OSM   H16S13533   0.434   1.165   4.767  3.7186  0.4232 -1.5044
  127OSM   H16T13534   0.430   1.018   4.669  2.9265  1.1265  1.3200
  127OSM   C17S13535   0.236   1.113   4.697 -0.2228 -1.3456  0.1930
  127OSM   H17S13536   0.182   1.081   4.605  1.5410 -0.7391 -1.1128
  127OSM   H17T13537   0.214   1.220   4.719 -0.8424 -1.5825  0.7795
  127OSM   C18S13538   0.190   1.028   4.811  0.7954 -0.0928  0.2830
  127OSM   H18S13539   0.080   1.029   4.825  0.8105 -1.3030  0.6630
  127OSM   H18T13540   0.251   1.060   4.898  1.6774  1.1486 -0.7573
  127OSM   H18U13541   0.206   0.918   4.800  0.0850 -0.6674  3.6436
  127OSM    C1F13542   0.594   1.426   3.238  0.0170  0.2312 -0.0038
  127OSM     OF13543   0.686   1.503   3.213 -0.5383  0.3367 -0.6333
  127OSM    C2F13544   0.599   1.304   3.322  0.5287 -0.6899 -0.2199
  127OSM    H2F13545   0.668   1.231   3.275  3.3477  0.9931  1.0648
  127OSM    H2G13546   0.499   1.258   3.335  1.2347 -1.5081  3.2019
  127OSM    C3F13547   0.661   1.330   3.462 -0.2869 -0.0329 -0.6434
  127OSM    H3F13548   0.610   1.419   3.505  0.3413  0.2388 -0.4484
  127OSM    H3G13549   0.770   1.343   3.451 -0.0110 -0.7907  0.9755
  127OSM    C4F13550   0.655   1.201   3.559 -0.1780 -0.1861  0.3892
  127OSM    H4F13551   0.727   1.124   3.525  2.0318  1.6088  0.7135
  127OSM    H4G13552   0.555   1.163   3.531 -0.0297  0.2510 -0.7898
  127OSM    C5F13553   0.677   1.238   3.706  0.5107  0.7077 -0.2459
  127OSM    H5F13554   0.604   1.184   3.770 -0.7977  1.7751 -0.7740
  127OSM    H5G13555   0.656   1.347   3.700 -0.3646  0.4690 -3.8460
  127OSM    C6F13556   0.821   1.224   3.752  0.0567  0.2562 -0.1561
  127OSM    H6F13557   0.891   1.276   3.683  1.2132 -0.6982  0.2751
  127OSM    H6G13558   0.857   1.120   3.743 -0.2961  0.3272 -4.0068
  127OSM    C7F13559   0.848   1.290   3.891 -0.2486  0.6265  0.2513
  127OSM    H7F13560   0.765   1.356   3.922 -1.9851 -1.3660  0.0450
  127OSM    H7G13561   0.945   1.342   3.909  0.0650 -0.2504  1.2171
  127OSM    C8F13562   0.856   1.184   4.012  0.4781  0.2278  0.0803
  127OSM    H8F13563   0.875   1.241   4.106 -0.5340 -2.0797  1.7710
  127OSM    H8G13564   0.951   1.129   4.001  1.1360  1.7020 -2.6574
  127OSM    C9F13565   0.733   1.106   4.024  0.2601  0.6238  0.0306
  127OSM    H9F13566   0.645   1.162   3.989  0.0267 -0.0307 -0.4438
  127OSM   C10F13567   0.731   0.969   4.044  0.0478 -0.2267  0.0945
  127OSM   H10F13568   0.631   0.926   4.056 -0.5355  0.1044 -2.9128
  127OSM   C11F13569   0.845   0.882   4.095  0.7635  0.8394 -0.3839
  127OSM   H11F13570   0.934   0.906   4.033 -0.0481  0.1530 -1.8627
  127OSM   H11G13571   0.818   0.777   4.070  0.2270  0.3561  1.9504
  127OSM   C12F13572   0.873   0.894   4.247 -0.4038 -0.1983  0.7622
  127OSM   H12F13573   0.965   0.834   4.265 -1.2165 -1.5165  0.7221
  127OSM   H12G13574   0.793   0.835   4.298 -0.4777 -1.5956 -0.8586
  127OSM   C13F13575   0.900   1.032   4.306 -0.3369 -0.3511 -0.1975
  127OSM   H13F13576   0.807   1.092   4.314 -0.0219 -0.0252  1.2780
  127OSM   H13G13577   0.972   1.083   4.239 -0.6565 -0.0670 -0.3315
  127OSM   C14F13578   0.946   1.033   4.450 -0.0808 -0.2988 -0.0466
  127OSM   H14F13579   1.021   0.953   4.462  0.1157 -0.5894 -2.7767
  127OSM   H14G13580   0.860   1.012   4.518 -0.4477  1.5899  0.1306
  127OSM   C15F13581   1.009   1.166   4.485 -0.0532  0.5651  0.0007
  127OSM   H15F13582   0.937   1.248   4.466 -1.1478 -0.4089 -0.1506
  127OSM   H15G13583   1.092   1.193   4.417 -0.5885 -0.6242 -1.1650
  127OSM   C16F13584   1.044   1.170   4.637 -0.8029  0.6337  0.1328
  127OSM   H16F13585   1.133   1.105   4.650 -0.9051  0.7596  1.6057
  127OSM   H16G13586   0.976   1.119   4.708 -0.8350  0.2738 -0.1546
  127OSM   C17F13587   1.070   1.309   4.695  0.5053  0.1243  0.3220
  127OSM   H17F13588   0.981   1.335   4.756  0.1401  0.6542 -0.4214
  127OSM   H17G13589   1.060   1.383   4.613  2.0655 -1.8436 -1.7577
  127OSM   C18F13590   1.191   1.328   4.784 -0.3245  0.5270 -0.3434
  127OSM   H18F13591   1.185   1.265   4.875  2.4754  0.3244 -0.2085
  127OSM   H18G13592   1.188   1.432   4.823  0.0737  0.5197 -0.2933
  127OSM   H18H13593   1.288   1.318   4.730 -0.7655 -0.0540 -1.0549
  128OSM      N13594   2.187   6.422   2.619 -0.0267 -0.0902 -0.1282
  128OSM    C1513595   2.077   6.348   2.550  0.0925  0.1046  0.0365
  128OSM   H15A13596   2.023   6.406   2.476 -1.6397 -1.4792 -0.0158
  128OSM   H15B13597   2.004   6.325   2.625  0.3296 -0.0175  0.2308
  128OSM   H15C13598   2.121   6.260   2.507  0.3216 -0.7160  1.8813
  128OSM    C1413599   2.277   6.324   2.680 -0.1933 -0.6256  0.6303
  128OSM   H14A13600   2.342   6.366   2.756 -0.6424  0.1779  0.5759
  128OSM   H14B13601   2.330   6.275   2.599 -1.7336 -0.2360 -0.6688
  128OSM   H14C13602   2.235   6.238   2.731  1.1774 -2.3414 -0.9794
  128OSM    C1313603   2.265   6.488   2.509  0.2805 -0.5919 -0.5164
  128OSM   H13A13604   2.350   6.538   2.552  0.1308 -0.5659 -0.2503
  128OSM   H13B13605   2.210   6.576   2.475  0.1175 -1.0367 -1.4418
  128OSM   H13C13606   2.298   6.421   2.431 -0.2307 -0.1370 -1.1358
  128OSM    C1213607   2.128   6.521   2.725  0.7890 -0.0985 -0.5768
  128OSM   H12A13608   2.070   6.596   2.674  1.3502  3.5304  3.5790
  128OSM   H12B13609   2.210   6.578   2.766 -0.2148  2.6361 -2.0851
  128OSM    C1113610   2.039   6.461   2.840  0.2571 -0.9532 -0.6904
  128OSM   H11A13611   2.037   6.534   2.923  0.6326 -1.2670 -0.4036
  128OSM   H11B13612   2.086   6.371   2.886  3.7558  1.3425  0.6219
  128OSM      P13613   1.805   6.542   2.766 -0.0689 -0.0800  0.1327
  128OSM    O1313614   1.848   6.634   2.659 -0.1900  0.1477 -0.5422
  128OSM    O1413615   1.674   6.474   2.740  0.0343 -0.5980 -0.5690
  128OSM    O1113616   1.795   6.628   2.901  0.1549  0.3448 -0.3709
  128OSM    O1213617   1.904   6.419   2.793  0.0334 -0.1657  0.0903
  128OSM    C1S13618   1.743   6.763   2.893  1.1968 -0.1845 -0.0804
  128OSM    H1S13619   1.635   6.761   2.865  0.7576 -0.0736  1.5077
  128OSM    H1T13620   1.792   6.820   2.811  1.3489 -0.5106 -0.2138
  128OSM     NF13621   1.690   6.968   3.017 -0.6169 -0.3189  0.0064
  128OSM    HNF13622   1.746   7.051   3.018 -0.9534  0.0256 -2.4097
  128OSM    C2S13623   1.762   6.842   3.023  0.0696  0.2066  0.4332
  128OSM    H2S13624   1.724   6.783   3.109 -0.6431  0.0120 -0.0090
  128OSM    C3S13625   1.916   6.858   3.050 -0.1796 -0.7008 -0.0569
  128OSM    H3S13626   1.953   6.927   2.971 -1.9356 -0.8066 -1.0088
  128OSM     O313627   1.996   6.744   3.033  0.3059 -0.1925 -0.0925
  128OSM    HO313628   1.946   6.689   2.973  1.4198  1.6674 -2.9449
  128OSM    C4S13629   1.945   6.918   3.191 -0.0362  0.3701 -0.5357
  128OSM    H4S13630   1.977   7.023   3.191 -1.7314  0.9421 -2.1138
  128OSM    C5S13631   1.934   6.849   3.304 -0.8598 -0.3400 -0.3105
  128OSM    H5S13632   1.895   6.746   3.296 -0.7626 -0.3573 -0.5693
  128OSM    C6S13633   1.964   6.876   3.452 -0.1003 -0.6048  0.8273
  128OSM    H6S13634   2.003   6.979   3.443 -0.5990 -0.5135 -0.5885
  128OSM    H6T13635   2.045   6.806   3.484 -0.1830 -1.8362 -1.4146
  128OSM    C7S13636   1.850   6.873   3.555 -0.5858 -0.5234  0.1003
  128OSM    H7S13637   1.825   6.765   3.541  2.6840 -1.6421  1.8539
  128OSM    H7T13638   1.765   6.939   3.527  1.4313  0.8958 -3.4500
  128OSM    C8S13639   1.907   6.897   3.693  0.1951  0.0587 -0.3963
  128OSM    H8S13640   1.949   6.999   3.706  1.1616 -0.2990 -0.6758
  128OSM    H8T13641   1.989   6.827   3.716  2.9617  3.7817  2.2655
  128OSM    C9S13642   1.811   6.879   3.814  0.4772  0.3574 -0.3497
  128OSM    H9S13643   1.768   6.777   3.818  0.1908  0.5106  1.4573
  128OSM    H9T13644   1.726   6.949   3.800 -0.1491 -0.6979 -2.1552
  128OSM   C10S13645   1.873   6.903   3.952 -0.1324  0.0849 -0.3317
  128OSM   H10S13646   1.873   7.012   3.976 -2.3902 -0.2866  1.7538
  128OSM   H10T13647   1.981   6.878   3.967 -0.2268  0.1736  0.5642
  128OSM   C11S13648   1.806   6.812   4.061  0.1467  0.6906  0.0866
  128OSM   H11S13649   1.821   6.704   4.041 -2.1085  0.0332  1.5643
  128OSM   H11T13650   1.696   6.822   4.051  0.0361 -0.5240 -0.1434
  128OSM   C12S13651   1.864   6.842   4.204 -0.3453 -0.3871  0.3596
  128OSM   H12S13652   1.882   6.951   4.205 -0.6369 -0.2585 -2.0674
  128OSM   H12T13653   1.963   6.794   4.219 -0.8972 -1.0821  2.1251
  128OSM   C13S13654   1.763   6.813   4.311  1.0066 -0.3659  0.2724
  128OSM   H13S13655   1.659   6.842   4.287  2.2010  3.3029 -1.1505
  128OSM   H13T13656   1.782   6.880   4.397 -1.1246  1.1869 -0.3738
  128OSM   C14S13657   1.762   6.664   4.362 -0.2778 -0.2431 -0.2516
  128OSM   H14S13658   1.865   6.641   4.397  0.1113  0.0988 -1.1255
  128OSM   H14T13659   1.740   6.601   4.273 -2.1293  1.9600 -1.5009
  128OSM   C15S13660   1.655   6.636   4.465 -0.3791  0.5008 -0.6941
  128OSM   H15S13661   1.677   6.534   4.504  0.4125  0.4999 -1.1191
  128OSM   H15T13662   1.559   6.645   4.411 -1.1806  1.7121  0.8622
  128OSM   C16S13663   1.647   6.733   4.582 -0.0182 -0.2147 -0.3412
  128OSM   H16S13664   1.625   6.833   4.538  0.9594 -0.2284 -0.9037
  128OSM   H16T13665   1.735   6.747   4.648 -1.3470 -2.4335  2.0852
  128OSM   C17S13666   1.530   6.680   4.663  0.5177 -0.5709 -0.5279
  128OSM   H17S13667   1.546   6.577   4.701 -0.3624  0.6762  3.8743
  128OSM   H17T13668   1.431   6.693   4.614  1.8855 -0.2786 -3.4173
  128OSM   C18S13669   1.516   6.771   4.788  0.3688  0.2484 -0.4670
  128OSM   H18S13670   1.424   6.753   4.848 -0.0416  2.6607 -0.2519
  128OSM   H18T13671   1.503   6.871   4.742  1.6006 -0.1498 -1.7247
  128OSM   H18U13672   1.605   6.762   4.854  0.0772  1.0026  0.0562
  128OSM    C1F13673   1.561   6.984   3.010 -0.6171 -0.3126  0.0869
  128OSM     OF13674   1.483   6.892   2.995 -0.4198 -0.4362  0.5094
  128OSM    C2F13675   1.511   7.121   3.011 -0.0164 -0.2806  0.0949
  128OSM    H2F13676   1.402   7.107   2.990 -0.0676 -1.5317  1.0556
  128OSM    H2G13677   1.566   7.185   2.939  2.3078  0.9229  2.7841
  128OSM    C3F13678   1.525   7.186   3.147 -0.4145 -0.3189 -0.4043
  128OSM    H3F13679   1.632   7.180   3.175 -0.7361  0.9245  1.2669
  128OSM    H3G13680   1.480   7.121   3.226  3.5777 -0.2081  2.2238
  128OSM    C4F13681   1.466   7.325   3.153 -0.2917 -0.5160  0.1003
  128OSM    H4F13682   1.363   7.329   3.112 -0.4092 -2.2556  0.1709
  128OSM    H4G13683   1.526   7.390   3.086 -0.2976  1.8294  2.2196
  128OSM    C5F13684   1.472   7.390   3.290  0.2820  0.1680  0.8027
  128OSM    H5F13685   1.538   7.480   3.292 -1.1818  1.2939  2.3695
  128OSM    H5G13686   1.520   7.314   3.355  1.4993 -0.1729 -0.4736
  128OSM    C6F13687   1.337   7.437   3.346 -0.4670  0.1391  0.0972
  128OSM    H6F13688   1.254   7.365   3.330 -1.1094  0.9349 -0.2320
  128OSM    H6G13689   1.308   7.527   3.286  0.6503  0.6986  0.3637
  128OSM    C7F13690   1.332   7.487   3.496 -0.8837  0.6529 -0.1145
  128OSM    H7F13691   1.226   7.518   3.512 -0.7177  0.6203  1.1693
  128OSM    H7G13692   1.394   7.578   3.504  0.6833 -0.4424  0.5940
  128OSM    C8F13693   1.374   7.376   3.591  0.5393 -0.1100 -0.0725
  128OSM    H8F13694   1.483   7.358   3.587  0.6223 -0.9674  3.0889
  128OSM    H8G13695   1.325   7.278   3.573  1.5129 -0.6703  0.2801
  128OSM    C9F13696   1.333   7.396   3.741 -0.0352  0.5221  0.1212
  128OSM    H9F13697   1.227   7.416   3.764 -0.2990 -1.3721  0.6839
  128OSM   C10F13698   1.413   7.384   3.843 -0.5675 -0.0461 -0.8834
  128OSM   H10F13699   1.374   7.403   3.943 -0.4843 -0.6675 -0.7294
  128OSM   C11F13700   1.561   7.332   3.838  0.2026 -1.3450  0.2506
  128OSM   H11F13701   1.627   7.421   3.827  0.0848 -1.3184 -0.2529
  128OSM   H11G13702   1.566   7.273   3.745  0.3739  0.2747 -0.8125
  128OSM   C12F13703   1.599   7.230   3.947 -0.3801  0.7295 -0.2420
  128OSM   H12F13704   1.676   7.161   3.904  0.9702  1.7406  0.4967
  128OSM   H12G13705   1.513   7.163   3.971  1.6816 -1.6896  0.9295
  128OSM   C13F13706   1.624   7.300   4.081 -0.2709 -0.3202  0.5123
  128OSM   H13F13707   1.534   7.366   4.088 -1.1160 -1.0338 -2.1919
  128OSM   H13G13708   1.716   7.361   4.077  0.5315 -1.4683  1.2172
  128OSM   C14F13709   1.624   7.211   4.208  0.3704  0.5403  0.5686
  128OSM   H14F13710   1.682   7.120   4.181 -0.3017  0.5539 -1.0308
  128OSM   H14G13711   1.524   7.169   4.236  0.7779 -2.2241 -1.6195
  128OSM   C15F13712   1.681   7.278   4.336  0.6372  0.0577  0.0090
  128OSM   H15F13713   1.600   7.346   4.370  1.6397  1.1200  0.3288
  128OSM   H15G13714   1.775   7.332   4.311  0.1522  0.5060 -0.8986
  128OSM   C16F13715   1.728   7.183   4.441  0.3798 -0.4929 -0.5089
  128OSM   H16F13716   1.820   7.231   4.482  0.7117 -0.2763 -1.4844
  128OSM   H16G13717   1.761   7.085   4.401 -1.0112 -0.4095 -1.9398
  128OSM   C17F13718   1.638   7.157   4.561  0.3770  0.2367  0.2252
  128OSM   H17F13719   1.550   7.100   4.524  0.8499 -1.1130  1.0935
  128OSM   H17G13720   1.596   7.253   4.600 -1.0139  0.0140 -0.6566
  128OSM   C18F13721   1.700   7.079   4.668  0.6638 -0.3747 -0.1173
  128OSM   H18F13722   1.739   6.979   4.641 -0.2928 -1.2237  1.4313
  128OSM   H18G13723   1.626   7.054   4.747 -1.5580  1.8213 -1.3511
  128OSM   H18H13724   1.771   7.148   4.718 -0.9191  1.5050 -0.3449
  129OSM      N13725   5.510   0.423   2.831  0.2996 -0.1470 -0.6589
  129OSM    C1513726   5.524   0.353   2.702  0.2340  0.0573 -0.2654
  129OSM   H15A13727   5.549   0.422   2.623  2.1578  1.5233  1.5090
  129OSM   H15B13728   5.429   0.315   2.669 -0.3226  2.2210 -1.3185
  129OSM   H15C13729   5.598   0.274   2.712  1.3067  1.1155  0.4355
  129OSM    C1413730   5.637   0.492   2.870  0.1660 -0.1544 -0.0774
  129OSM   H14A13731   5.626   0.538   2.967  0.0322  0.0077 -0.1692
  129OSM   H14B13732   5.660   0.568   2.796 -0.2299 -0.2611 -0.3091
  129OSM   H14C13733   5.722   0.426   2.878  0.8786  0.8639  1.1170
  129OSM    C1313734   5.407   0.530   2.810  0.9010 -0.4989 -0.7609
  129OSM   H13A13735   5.394   0.609   2.883 -2.8929 -1.9976  0.4627
  129OSM   H13B13736   5.315   0.473   2.802 -1.0135  2.4327 -1.1010
  129OSM   H13C13737   5.410   0.572   2.711  0.8211 -2.3499 -1.6007
  129OSM    C1213738   5.479   0.328   2.950 -0.0543 -0.5012  0.2616
  129OSM   H12A13739   5.389   0.270   2.934  0.2147 -0.5643 -1.1711
  129OSM   H12B13740   5.442   0.376   3.039 -0.0459 -1.6441  0.8980
  129OSM    C1113741   5.589   0.233   3.012  0.0923  0.1088 -0.1762
  129OSM   H11A13742   5.548   0.183   3.102 -0.5363 -0.9478 -1.0399
  129OSM   H11B13743   5.671   0.300   3.046  1.0521 -1.2715  0.3072
  129OSM      P13744   5.549   0.015   2.885  0.2460 -0.0624  0.0179
  129OSM    O1313745   5.412   0.046   2.842  0.2780  0.0197  0.2153
  129OSM    O1413746   5.627  -0.075   2.802 -0.3284  0.2943  0.1892
  129OSM    O1113747   5.536  -0.056   3.028 -0.0235 -0.6995  0.2442
  129OSM    O1213748   5.633   0.146   2.911  0.2926  0.0154 -0.0973
  129OSM    C1S13749   5.650  -0.080   3.113  0.2001 -0.2781  0.5419
  129OSM    H1S13750   5.714   0.010   3.128  0.4884 -0.8493  3.2155
  129OSM    H1T13751   5.718  -0.154   3.065 -0.4267 -0.8838  0.5781
  129OSM     NF13752   5.746  -0.192   3.309 -0.0211 -0.2674  0.0033
  129OSM    HNF13753   5.766  -0.290   3.305 -0.5977 -0.7204  3.8129
  129OSM    C2S13754   5.621  -0.149   3.248 -0.6330  0.0387 -0.0940
  129OSM    H2S13755   5.569  -0.077   3.315  0.7778  1.4559 -0.4618
  129OSM    C3S13756   5.524  -0.273   3.231 -0.1315  0.4779  0.1307
  129OSM    H3S13757   5.561  -0.338   3.149 -0.9197  0.9357 -0.6067
  129OSM     O313758   5.405  -0.241   3.165 -0.4357  0.2783 -0.5592
  129OSM    HO313759   5.431  -0.162   3.118  1.4261  0.3421  0.4744
  129OSM    C4S13760   5.501  -0.349   3.358  0.0955  1.3317 -1.0855
  129OSM    H4S13761   5.454  -0.282   3.431 -1.6204 -0.2983 -0.6294
  129OSM    C5S13762   5.484  -0.482   3.376 -0.1385  0.5650  0.4389
  129OSM    H5S13763   5.479  -0.545   3.286  0.0433  2.5120 -0.9966
  129OSM    C6S13764   5.452  -0.547   3.501 -0.4336 -0.0258  0.1184
  129OSM    H6S13765   5.501  -0.647   3.509  0.2188  0.3796  1.5859
  129OSM    H6T13766   5.344  -0.562   3.484 -0.1302  1.2541 -3.8113
  129OSM    C7S13767   5.459  -0.464   3.638  0.0131  0.3942  0.1769
  129OSM    H7S13768   5.394  -0.511   3.715  1.8358  0.6810  1.9971
  129OSM    H7T13769   5.429  -0.358   3.621  1.8058  0.6141 -2.0207
  129OSM    C8S13770   5.599  -0.451   3.708 -0.3308  0.0160  0.2031
  129OSM    H8S13771   5.665  -0.436   3.620 -2.6270 -1.4111 -1.9241
  129OSM    H8T13772   5.628  -0.550   3.748 -1.1845  0.0272  0.8706
  129OSM    C9S13773   5.619  -0.333   3.807 -0.2335 -0.1448  0.7463
  129OSM    H9S13774   5.565  -0.239   3.781  1.4061  1.0048  1.3440
  129OSM    H9T13775   5.727  -0.309   3.816 -0.0196 -0.4352 -0.8176
  129OSM   C10S13776   5.570  -0.366   3.943  0.4430  0.1174  0.5029
  129OSM   H10S13777   5.639  -0.416   4.015  0.8212  1.6282  1.2310
  129OSM   H10T13778   5.491  -0.444   3.934  2.3185 -1.5962 -4.2693
  129OSM   C11S13779   5.494  -0.250   3.997  0.6649  0.7197 -1.0816
  129OSM   H11S13780   5.401  -0.249   3.937  0.4667  0.1065 -0.7905
  129OSM   H11T13781   5.542  -0.151   3.981 -0.8033  1.2829 -2.1925
  129OSM   C12S13782   5.453  -0.269   4.143  0.0891 -0.6083 -0.8482
  129OSM   H12S13783   5.543  -0.263   4.207 -1.3063  0.6490  1.1201
  129OSM   H12T13784   5.401  -0.366   4.162  3.0808 -1.8160  2.0821
  129OSM   C13S13785   5.360  -0.152   4.183 -0.0621  0.2838  0.2639
  129OSM   H13S13786   5.285  -0.146   4.101 -0.0758  0.8714  0.3177
  129OSM   H13T13787   5.416  -0.056   4.187 -0.2209  0.6154 -3.0344
  129OSM   C14S13788   5.293  -0.178   4.318  0.7762  0.1055  0.3210
  129OSM   H14S13789   5.248  -0.280   4.319  0.6446  0.1593  0.0462
  129OSM   H14T13790   5.207  -0.108   4.327  1.7487  1.4560 -0.4990
  129OSM   C15S13791   5.380  -0.160   4.438  0.1861 -0.0461  0.2869
  129OSM   H15S13792   5.438  -0.065   4.436  1.2699 -0.6180  1.9722
  129OSM   H15T13793   5.461  -0.237   4.435 -1.4544 -1.9516  1.7587
  129OSM   C16S13794   5.293  -0.160   4.565  0.7047  0.6080  0.0093
  129OSM   H16S13795   5.222  -0.076   4.552  1.4201  1.6598  2.3465
  129OSM   H16T13796   5.351  -0.128   4.654  2.9193  0.3885 -1.2837
  129OSM   C17S13797   5.220  -0.300   4.595 -0.1595 -0.5869 -0.5254
  129OSM   H17S13798   5.301  -0.375   4.585 -0.5640 -1.3030  1.2346
  129OSM   H17T13799   5.150  -0.321   4.511  0.2625 -2.7706 -0.3820
  129OSM   C18S13800   5.153  -0.320   4.725 -0.0728 -0.2206  0.5750
  129OSM   H18S13801   5.069  -0.393   4.734 -1.5714  1.5800  2.0118
  129OSM   H18T13802   5.108  -0.221   4.744 -0.6529 -0.2416 -0.5786
  129OSM   H18U13803   5.224  -0.354   4.803 -1.0137 -0.7306  1.2382
  129OSM    C1F13804   5.839  -0.112   3.358 -0.1365 -0.4166  0.5072
  129OSM     OF13805   5.811   0.003   3.381 -0.2193 -0.2406  0.3834
  129OSM    C2F13806   5.979  -0.166   3.388 -0.8247 -0.0099 -0.3812
  129OSM    H2F13807   6.051  -0.130   3.311  0.3382 -0.5142  0.4275
  129OSM    H2G13808   5.975  -0.277   3.392  0.9724 -0.1009  2.9616
  129OSM    C3F13809   6.020  -0.137   3.534 -0.1904 -0.0223  0.0651
  129OSM    H3F13810   5.958  -0.183   3.614 -0.8335 -2.1025 -1.5377
  129OSM    H3G13811   6.002  -0.027   3.541  0.1423  0.1742 -1.6573
  129OSM    C4F13812   6.168  -0.169   3.568  0.3762  0.1722 -0.1278
  129OSM    H4F13813   6.240  -0.113   3.505  1.0156  2.3410  2.3618
  129OSM    H4G13814   6.175  -0.279   3.552  1.2217  0.5881 -3.1843
  129OSM    C5F13815   6.197  -0.139   3.722  0.5593 -0.1194  0.0043
  129OSM    H5F13816   6.160  -0.044   3.765 -3.7086 -0.4952 -2.2699
  129OSM    H5G13817   6.306  -0.148   3.744  0.2120 -2.4112  1.0948
  129OSM    C6F13818   6.133  -0.243   3.817 -0.3527  0.4342  0.5999
  129OSM    H6F13819   6.140  -0.335   3.756 -3.5600  1.7691 -2.1389
  129OSM    H6G13820   6.026  -0.219   3.838 -0.6267  1.0271 -1.2782
  129OSM    C7F13821   6.193  -0.249   3.950 -0.6948 -0.3570  0.0794
  129OSM    H7F13822   6.152  -0.159   4.001 -1.5854  0.1594 -1.4826
  129OSM    H7G13823   6.303  -0.241   3.937 -0.8345  1.8856 -0.1974
  129OSM    C8F13824   6.163  -0.373   4.035 -0.2651 -0.0204 -0.6513
  129OSM    H8F13825   6.233  -0.369   4.121  1.8487 -0.3310 -2.2578
  129OSM    H8G13826   6.196  -0.468   3.987 -0.1252 -0.1771 -0.2529
  129OSM    C9F13827   6.014  -0.378   4.056 -0.3389 -0.8250 -0.4394
  129OSM    H9F13828   5.953  -0.363   3.965  2.2768  3.7301 -1.7451
  129OSM   C10F13829   5.958  -0.411   4.172  0.6630  0.4256  0.3737
  129OSM   H10F13830   5.848  -0.409   4.167  0.6666 -1.3035 -1.9690
  129OSM   C11F13831   6.021  -0.441   4.310 -0.4431  0.6449 -0.3984
  129OSM   H11F13832   6.126  -0.475   4.300  0.0580  1.0867  2.5602
  129OSM   H11G13833   5.970  -0.528   4.358  0.2939 -0.4369 -1.4969
  129OSM   C12F13834   6.035  -0.320   4.404  0.2168  0.1554  0.0631
  129OSM   H12F13835   5.936  -0.271   4.416 -0.5475 -0.6871 -2.3064
  129OSM   H12G13836   6.097  -0.235   4.367 -0.3811  1.0347  1.0294
  129OSM   C13F13837   6.093  -0.366   4.542 -0.2597  0.3259  0.3026
  129OSM   H13F13838   6.175  -0.433   4.509  0.2565  1.3568 -0.5590
  129OSM   H13G13839   6.022  -0.424   4.605  0.5843 -1.2002 -0.0912
  129OSM   C14F13840   6.138  -0.246   4.613 -0.3045 -0.2501 -0.0280
  129OSM   H14F13841   6.056  -0.175   4.639  0.1600  0.8071 -1.3006
  129OSM   H14G13842   6.201  -0.198   4.535  0.4366 -2.0355 -0.5811
  129OSM   C15F13843   6.227  -0.282   4.720 -0.2621  0.0498  0.3629
  129OSM   H15F13844   6.313  -0.326   4.666 -1.2206 -0.5329 -0.7445
  129OSM   H15G13845   6.180  -0.362   4.781 -2.1793 -0.1268 -1.2571
  129OSM   C16F13846   6.254  -0.168   4.817 -0.1268 -0.9084  0.4420
  129OSM   H16F13847   6.165  -0.104   4.838  0.5137  0.1983 -0.1110
  129OSM   H16G13848   6.328  -0.098   4.772 -1.3449 -0.1527 -0.4542
  129OSM   C17F13849   6.313  -0.226   4.943  0.1518  0.2366  0.6688
  129OSM   H17F13850   6.408  -0.271   4.909  0.1897 -1.5727  2.9830
  129OSM   H17G13851   6.247  -0.303   4.989 -0.6049 -1.4802 -2.8773
  129OSM   C18F13852   6.349  -0.119   5.052  0.7641 -0.2690  1.0810
  129OSM   H18F13853   6.418  -0.047   5.002 -0.2077 -1.2403 -1.9045
  129OSM   H18G13854   6.397  -0.168   5.139 -0.7509 -2.3526  0.8210
  129OSM   H18H13855   6.264  -0.051   5.074  0.5509  0.0906 -0.6614
  130OSM      N13856   3.336   1.889   2.789 -0.4210 -0.2388 -0.2266
  130OSM    C1513857   3.235   1.807   2.710 -0.6451  0.0883 -0.0911
  130OSM   H15A13858   3.160   1.761   2.773 -3.7164  1.0791 -2.7746
  130OSM   H15B13859   3.273   1.720   2.659  1.3686  0.1965  1.1065
  130OSM   H15C13860   3.179   1.880   2.654 -0.9492 -0.2925 -0.2924
  130OSM    C1413861   3.465   1.908   2.710 -0.3588  0.3949 -0.3886
  130OSM   H14A13862   3.451   1.993   2.644 -0.0229 -1.4033 -2.9417
  130OSM   H14B13863   3.474   1.826   2.640  0.0374  0.2109 -0.1254
  130OSM   H14C13864   3.549   1.932   2.774 -0.7532  0.1852  0.2152
  130OSM    C1313865   3.281   2.020   2.812  0.7167  0.2777  0.6163
  130OSM   H13A13866   3.195   1.999   2.873  0.9519 -0.3642  0.7303
  130OSM   H13B13867   3.243   2.062   2.720  0.5431 -2.0210 -0.4061
  130OSM   H13C13868   3.351   2.092   2.855  1.9907 -0.3928 -0.2770
  130OSM    C1213869   3.374   1.812   2.910 -0.3674  0.1511  1.2470
  130OSM   H12A13870   3.388   1.708   2.886  2.4061  0.1781  2.3654
  130OSM   H12B13871   3.287   1.814   2.975 -0.0479  0.7008  1.6668
  130OSM    C1113872   3.493   1.854   2.997 -0.5361  0.2087 -0.2425
  130OSM   H11A13873   3.495   1.795   3.092  0.9997  1.1784  0.3737
  130OSM   H11B13874   3.477   1.960   3.025  3.7261  0.5263  1.8678
  130OSM      P13875   3.745   1.911   2.974  0.0189  0.0926  0.1452
  130OSM    O1313876   3.862   1.819   2.951  0.2957 -0.5617  0.4468
  130OSM    O1413877   3.743   2.042   2.902  0.4714  1.1319 -0.1969
  130OSM    O1113878   3.723   1.936   3.125 -0.3597  0.1170  0.0045
  130OSM    O1213879   3.616   1.827   2.925 -0.1396 -0.0951 -0.3779
  130OSM    C1S13880   3.678   2.060   3.188 -0.5718 -0.0806  0.4192
  130OSM    H1S13881   3.595   2.102   3.127  0.6416  2.6262  0.4969
  130OSM    H1T13882   3.752   2.141   3.173  0.6062 -1.4269 -1.4339
  130OSM     NF13883   3.590   2.193   3.374  0.4476 -0.2562  0.2335
  130OSM    HNF13884   3.643   2.263   3.420  0.2219  0.0961 -0.0342
  130OSM    C2S13885   3.647   2.061   3.341 -0.4261 -0.3189 -0.5223
  130OSM    H2S13886   3.573   1.978   3.350 -1.7369  0.8455 -0.2967
  130OSM    C3S13887   3.778   2.013   3.421 -0.5331 -0.5241  0.5712
  130OSM    H3S13888   3.851   2.094   3.396  0.9676 -1.5082  1.6541
  130OSM     O313889   3.854   1.901   3.369  0.1030  0.7931 -0.5341
  130OSM    HO313890   3.817   1.880   3.283  0.6090  2.3643 -1.1629
  130OSM    C4S13891   3.745   2.016   3.568  0.1936 -0.8380  0.6177
  130OSM    H4S13892   3.744   2.113   3.620  0.2578 -1.6537  2.2346
  130OSM    C5S13893   3.696   1.911   3.629 -0.1712 -0.4790 -0.1049
  130OSM    H5S13894   3.672   1.822   3.570 -1.2107  0.5261 -1.2738
  130OSM    C6S13895   3.647   1.912   3.782  0.0962  0.8651  0.6870
  130OSM    H6S13896   3.642   1.810   3.825 -0.8530  0.6502  0.1035
  130OSM    H6T13897   3.541   1.944   3.787 -0.0846  0.2312  0.9349
  130OSM    C7S13898   3.741   1.989   3.876 -0.5095  0.4571  0.2792
  130OSM    H7S13899   3.771   2.088   3.835 -0.8055  0.3863 -0.1206
  130OSM    H7T13900   3.839   1.939   3.860 -0.4744  0.7008 -0.3192
  130OSM    C8S13901   3.703   1.985   4.022 -1.3575 -0.4770 -0.6088
  130OSM    H8S13902   3.794   2.018   4.076 -0.4590 -3.8735  0.2202
  130OSM    H8T13903   3.693   1.879   4.053 -1.4591 -0.4030 -0.3860
  130OSM    C9S13904   3.580   2.065   4.059  0.7367  0.0811  0.4664
  130OSM    H9S13905   3.492   2.017   4.012  0.9015 -1.6257  1.7642
  130OSM    H9T13906   3.578   2.171   4.026 -0.7791  0.8033  2.6372
  130OSM   C10S13907   3.551   2.075   4.215 -0.0182  0.7526  0.2539
  130OSM   H10S13908   3.469   2.002   4.232 -0.3940  1.5404  2.0619
  130OSM   H10T13909   3.503   2.175   4.224 -1.8250  0.1449 -1.7820
  130OSM   C11S13910   3.666   2.073   4.318  0.1167  0.2359 -0.4755
  130OSM   H11S13911   3.727   2.166   4.312  1.0455 -0.2751  0.6709
  130OSM   H11T13912   3.734   1.988   4.297  0.9975  0.0343  2.6700
  130OSM   C12S13913   3.607   2.062   4.458 -0.6183  0.0741  0.4271
  130OSM   H12S13914   3.680   2.026   4.533  0.4244 -0.6411 -0.9058
  130OSM   H12T13915   3.534   1.978   4.456  0.8234 -1.2212  0.4865
  130OSM   C13S13916   3.542   2.195   4.506 -0.8502 -0.4360 -0.7053
  130OSM   H13S13917   3.553   2.280   4.436  0.0603  0.0415 -0.0045
  130OSM   H13T13918   3.598   2.225   4.597 -1.2991 -1.7335  0.0277
  130OSM   C14S13919   3.391   2.176   4.545 -0.3648  0.0285  0.3023
  130OSM   H14S13920   3.379   2.069   4.573  0.9636 -0.1194  0.3727
  130OSM   H14T13921   3.328   2.203   4.458 -1.2426  0.7320  1.1246
  130OSM   C15S13922   3.338   2.268   4.657 -0.6194  0.4982 -0.0443
  130OSM   H15S13923   3.333   2.373   4.621 -1.5918  0.2012 -0.7944
  130OSM   H15T13924   3.421   2.246   4.727 -0.7230 -3.9467 -0.9899
  130OSM   C16S13925   3.209   2.220   4.716 -0.5338 -0.3678  0.2800
  130OSM   H16S13926   3.210   2.109   4.719  1.3150 -0.3569  1.6753
  130OSM   H16T13927   3.129   2.259   4.650 -0.7418  0.6467  1.1092
  130OSM   C17S13928   3.177   2.276   4.857  0.7105  0.1388 -0.2591
  130OSM   H17S13929   3.175   2.387   4.865  1.4906  0.0402  2.1579
  130OSM   H17T13930   3.255   2.253   4.932  0.2527  0.0091  0.1852
  130OSM   C18S13931   3.050   2.199   4.920  0.2843  0.0525 -0.4598
  130OSM   H18S13932   2.979   2.187   4.836 -1.1748  0.5087  0.6788
  130OSM   H18T13933   3.011   2.260   5.004  2.0688  0.9061 -0.1939
  130OSM   H18U13934   3.081   2.105   4.970 -1.2639  0.2486  0.9753
  130OSM    C1F13935   3.467   2.225   3.340 -0.1557 -0.7691  0.0698
  130OSM     OF13936   3.390   2.149   3.276  0.3583 -0.4944 -0.6317
  130OSM    C2F13937   3.423   2.367   3.376  0.2028  0.4536  0.2402
  130OSM    H2F13938   3.382   2.415   3.285  0.9246  0.7478  0.0621
  130OSM    H2G13939   3.502   2.430   3.422  0.9597 -0.2849 -0.0009
  130OSM    C3F13940   3.307   2.365   3.479  0.5061 -0.2302  0.3840
  130OSM    H3F13941   3.213   2.308   3.458 -0.0520 -0.5865  3.3092
  130OSM    H3G13942   3.273   2.470   3.495  3.6143  1.0860 -1.0049
  130OSM    C4F13943   3.328   2.317   3.627  0.0521 -0.4183 -0.0305
  130OSM    H4F13944   3.424   2.368   3.652 -0.5769  1.1220 -0.6802
  130OSM    H4G13945   3.340   2.206   3.624  0.6787 -0.3375 -2.9769
  130OSM    C5F13946   3.224   2.352   3.731 -0.7360  0.6750 -0.2811
  130OSM    H5F13947   3.120   2.319   3.717 -0.4981 -1.1729  1.7526
  130OSM    H5G13948   3.201   2.460   3.718 -2.5818  0.3087 -0.2314
  130OSM    C6F13949   3.271   2.342   3.880  0.4064  0.1898  0.0564
  130OSM    H6F13950   3.313   2.439   3.912  0.6464  0.5852 -1.3838
  130OSM    H6G13951   3.353   2.268   3.875 -0.4432 -0.7877  0.1922
  130OSM    C7F13952   3.164   2.278   3.971  0.3956 -0.5787 -0.0662
  130OSM    H7F13953   3.147   2.177   3.928  1.3634 -1.8942  2.3900
  130OSM    H7G13954   3.075   2.343   3.957 -0.7317 -2.0269  0.1422
  130OSM    C8F13955   3.214   2.275   4.117 -0.6627  0.4820  0.1353
  130OSM    H8F13956   3.279   2.361   4.145 -0.0930  0.4324 -0.9659
  130OSM    H8G13957   3.281   2.188   4.129 -2.0849 -0.9162 -1.5120
  130OSM    C9F13958   3.102   2.269   4.213 -0.5460  0.1042 -0.7126
  130OSM    H9F13959   3.067   2.168   4.238 -2.6642  1.0418  0.3912
  130OSM   C10F13960   3.036   2.375   4.276 -0.3231  0.1686 -0.1309
  130OSM   H10F13961   2.948   2.363   4.340 -0.4827 -0.9048 -0.5481
  130OSM   C11F13962   3.058   2.525   4.255  0.1651 -1.2055 -0.7874
  130OSM   H11F13963   2.981   2.576   4.193  0.3017  1.5587  1.1212
  130OSM   H11G13964   3.154   2.540   4.202  0.2486  0.0320 -0.3122
  130OSM   C12F13965   3.065   2.606   4.393  1.0998 -0.3185 -0.4915
  130OSM   H12F13966   3.118   2.703   4.378 -0.6658  0.6783 -0.4443
  130OSM   H12G13967   3.125   2.559   4.474 -0.6989 -0.1306  1.0124
  130OSM   C13F13968   2.930   2.626   4.465 -0.0248 -0.0224  0.5533
  130OSM   H13F13969   2.887   2.530   4.500 -3.7514  1.0642 -0.6248
  130OSM   H13G13970   2.852   2.666   4.397  0.1570 -3.0637 -1.6434
  130OSM   C14F13971   2.944   2.711   4.592 -0.7190  0.3519  0.5822
  130OSM   H14F13972   2.843   2.742   4.625 -1.8678 -0.0289 -2.3553
  130OSM   H14G13973   2.987   2.810   4.566 -1.6811 -0.1396 -3.4728
  130OSM   C15F13974   3.031   2.640   4.700  0.1811  0.1751 -0.0886
  130OSM   H15F13975   3.139   2.641   4.676  0.0135  1.3142 -0.8936
  130OSM   H15G13976   3.016   2.531   4.683 -1.5266  0.8883 -4.3120
  130OSM   C16F13977   3.009   2.693   4.841 -0.7022 -0.5120 -0.6089
  130OSM   H16F13978   3.034   2.615   4.917  0.0019  1.5214  1.3390
  130OSM   H16G13979   2.901   2.715   4.854 -0.4968  3.3330 -3.8090
  130OSM   C17F13980   3.074   2.832   4.866  0.3945  0.3680 -0.3776
  130OSM   H17F13981   3.022   2.868   4.958 -2.0528 -0.6233 -1.2987
  130OSM   H17G13982   3.055   2.898   4.779 -0.1388  1.2217  0.3669
  130OSM   C18F13983   3.226   2.812   4.876  0.4970  1.3876 -0.5931
  130OSM   H18F13984   3.277   2.834   4.780 -1.6015  1.8875 -1.6521
  130OSM   H18G13985   3.249   2.708   4.908 -1.6598  1.2387  0.6927
  130OSM   H18H13986   3.255   2.882   4.957 -0.7555  1.3458 -0.0891
  131OSM      N13987   1.825   5.639   2.457  0.1938 -0.1998 -0.4894
  131OSM    C1513988   1.836   5.758   2.369 -0.1742  0.3141  0.2582
  131OSM   H15A13989   1.747   5.782   2.312 -0.0294 -0.9195 -0.5172
  131OSM   H15B13990   1.917   5.748   2.298  0.9451  1.7607  1.2721
  131OSM   H15C13991   1.866   5.847   2.422  1.3607 -0.1515  0.2176
  131OSM    C1413992   1.963   5.611   2.519  0.7079 -0.2004  0.1573
  131OSM   H14A13993   1.996   5.694   2.580  0.6836  0.7488 -1.0823
  131OSM   H14B13994   2.034   5.595   2.439 -0.6136 -3.1840 -0.5474
  131OSM   H14C13995   1.958   5.529   2.589 -1.3323  0.8519  1.3396
  131OSM    C1313996   1.726   5.682   2.557 -0.3156  0.4043  0.0669
  131OSM   H13A13997   1.773   5.761   2.614  2.8740 -0.3264 -1.3146
  131OSM   H13B13998   1.699   5.604   2.627  2.2925  0.2002  0.9698
  131OSM   H13C13999   1.633   5.715   2.514  0.2771  0.6437 -1.0550
  131OSM    C1214000   1.771   5.522   2.382  0.6139  0.4235 -0.3867
  131OSM   H12A14001   1.836   5.506   2.297  1.2682 -0.5908  0.2743
  131OSM   H12B14002   1.679   5.546   2.331 -0.0730 -0.5397  0.3550
  131OSM    C1114003   1.754   5.388   2.458  0.0498 -0.3163 -0.9244
  131OSM   H11A14004   1.687   5.322   2.399 -3.3742  1.9576  0.1233
  131OSM   H11B14005   1.707   5.422   2.552  2.0487  2.6621 -0.8891
  131OSM      P14006   1.908   5.188   2.510 -0.4689 -0.0140 -0.1303
  131OSM    O1314007   1.800   5.103   2.456 -0.0410  0.1223 -0.5081
  131OSM    O1414008   2.046   5.166   2.457 -0.3979  0.0873  0.2886
  131OSM    O1114009   1.929   5.180   2.669 -0.2570  0.5017  0.6615
  131OSM    O1214010   1.883   5.333   2.485  0.1980  0.1237  0.2570
  131OSM    C1S14011   1.834   5.257   2.752  0.5136  0.3964 -0.4141
  131OSM    H1S14012   1.729   5.238   2.720  0.5062 -1.6385  0.7070
  131OSM    H1T14013   1.840   5.367   2.736 -0.9010  0.4276 -0.8178
  131OSM     NF14014   1.746   5.284   2.977 -0.1006  0.1488 -0.5097
  131OSM    HNF14015   1.762   5.379   3.002 -1.5485  0.4789 -0.8065
  131OSM    C2S14016   1.854   5.220   2.901  0.2484  0.0941 -0.2953
  131OSM    H2S14017   1.848   5.109   2.891  0.3146  0.2872 -3.3190
  131OSM    C3S14018   1.993   5.260   2.954 -0.2734 -0.4384  0.5563
  131OSM    H3S14019   2.002   5.370   2.945 -3.9670  0.0391  1.3841
  131OSM     O314020   2.098   5.212   2.867  0.5682  0.5042  0.2839
  131OSM    HO314021   2.050   5.191   2.787  1.5472 -0.5718 -0.0611
  131OSM    C4S14022   2.016   5.230   3.102 -0.2792  0.4230  0.0987
  131OSM    H4S14023   1.983   5.315   3.164  1.0024 -0.8361  2.6154
  131OSM    C5S14024   2.067   5.116   3.160  0.2591 -0.2261  0.1883
  131OSM    H5S14025   2.095   5.027   3.102  0.6720  0.1027 -0.1286
  131OSM    C6S14026   2.084   5.093   3.308 -0.1005 -0.4693 -0.5270
  131OSM    H6S14027   2.181   5.046   3.336 -0.7422 -0.3665  2.2208
  131OSM    H6T14028   2.006   5.018   3.333  0.7535 -0.5677  2.1881
  131OSM    C7S14029   2.063   5.216   3.393  1.3811  0.1138 -0.6131
  131OSM    H7S14030   1.960   5.256   3.381  0.7537 -1.2002  0.2019
  131OSM    H7T14031   2.135   5.292   3.356 -0.4801  2.2914 -0.0615
  131OSM    C8S14032   2.079   5.198   3.542 -0.2988 -0.4225  0.2205
  131OSM    H8S14033   2.160   5.124   3.557  0.4157  0.2573 -0.2241
  131OSM    H8T14034   1.981   5.177   3.589 -1.1774  1.6915 -0.5578
  131OSM    C9S14035   2.134   5.323   3.614  0.0566 -0.0590  0.0116
  131OSM    H9S14036   2.066   5.409   3.596  0.2092 -0.3984 -2.6868
  131OSM    H9T14037   2.239   5.345   3.584  0.2223 -0.4690  0.2820
  131OSM   C10S14038   2.145   5.295   3.762 -0.4394  0.5183 -0.4512
  131OSM   H10S14039   2.198   5.198   3.766  2.2148  1.8964  2.0912
  131OSM   H10T14040   2.045   5.279   3.806  0.2061  1.1757  1.3196
  131OSM   C11S14041   2.227   5.399   3.830 -0.0225  0.4314  0.1678
  131OSM   H11S14042   2.169   5.494   3.829 -0.9979 -0.0878  2.1845
  131OSM   H11T14043   2.320   5.425   3.777  0.1658 -2.3955 -1.0718
  131OSM   C12S14044   2.257   5.353   3.972 -0.2571 -0.0961 -0.4317
  131OSM   H12S14045   2.331   5.270   3.963  0.3897  0.4284  0.0192
  131OSM   H12T14046   2.173   5.305   4.026  1.3051 -0.1481  2.1395
  131OSM   C13S14047   2.322   5.458   4.064 -0.4045  0.1333 -0.0764
  131OSM   H13S14048   2.275   5.559   4.067  0.5941  0.5832  1.6908
  131OSM   H13T14049   2.428   5.476   4.037  0.1008 -2.6421 -0.1979
  131OSM   C14S14050   2.312   5.404   4.211 -0.4859 -0.1779  0.7133
  131OSM   H14S14051   2.363   5.307   4.227 -0.1097 -0.0764  0.1230
  131OSM   H14T14052   2.203   5.391   4.231 -0.6846 -1.3222 -0.9510
  131OSM   C15S14053   2.367   5.502   4.315  0.3453  0.5046 -0.3813
  131OSM   H15S14054   2.303   5.590   4.295 -0.4236 -0.2195 -1.1896
  131OSM   H15T14055   2.474   5.530   4.305  0.3355  0.0577 -2.0235
  131OSM   C16S14056   2.330   5.455   4.461 -0.0884  0.4539  0.0773
  131OSM   H16S14057   2.386   5.361   4.476  1.3556  1.2525 -0.1436
  131OSM   H16T14058   2.220   5.450   4.478 -0.0967  2.5173  0.9492
  131OSM   C17S14059   2.386   5.539   4.577  0.4266 -0.0212 -0.0335
  131OSM   H17S14060   2.327   5.632   4.590 -1.1379 -0.8746 -0.7192
  131OSM   H17T14061   2.492   5.566   4.556  0.6745  0.1534  1.3513
  131OSM   C18S14062   2.391   5.460   4.709  0.1695  0.0679 -0.0164
  131OSM   H18S14063   2.426   5.520   4.797  2.3818 -1.4771  0.2511
  131OSM   H18T14064   2.463   5.375   4.709 -3.1552 -2.9718 -1.5603
  131OSM   H18U14065   2.295   5.408   4.724 -0.0404  0.1681 -0.9639
  131OSM    C1F14066   1.627   5.231   2.983  0.1849 -0.1335 -0.2032
  131OSM     OF14067   1.602   5.120   2.929 -0.8099  0.1305  0.8610
  131OSM    C2F14068   1.526   5.305   3.063  0.0804  0.4498 -0.0572
  131OSM    H2F14069   1.440   5.316   2.994  2.0552  1.9359 -2.4735
  131OSM    H2G14070   1.546   5.410   3.095  0.6268 -0.5158  3.1763
  131OSM    C3F14071   1.493   5.227   3.191  0.8970 -0.3270  0.2949
  131OSM    H3F14072   1.447   5.131   3.158  0.3800 -0.1942  0.6192
  131OSM    H3G14073   1.411   5.283   3.241  0.0738 -2.2635  1.1855
  131OSM    C4F14074   1.614   5.206   3.283 -0.4698  0.5225  0.6755
  131OSM    H4F14075   1.675   5.299   3.273  0.4438 -0.1539 -0.2866
  131OSM    H4G14076   1.684   5.122   3.264  0.0959  0.7710  1.6152
  131OSM    C5F14077   1.565   5.193   3.429 -0.1508 -0.6496  0.8147
  131OSM    H5F14078   1.522   5.092   3.448 -1.7612  0.4962  4.1281
  131OSM    H5G14079   1.488   5.271   3.445  0.1628  0.4312 -2.2726
  131OSM    C6F14080   1.687   5.226   3.523 -0.3380  0.1676  0.7416
  131OSM    H6F14081   1.746   5.315   3.492  1.8074 -0.8035  1.8018
  131OSM    H6G14082   1.764   5.147   3.512 -1.1360 -0.4038 -1.0306
  131OSM    C7F14083   1.638   5.245   3.668 -0.1444  0.7178 -0.0374
  131OSM    H7F14084   1.538   5.293   3.672  0.8824  2.9138  0.9658
  131OSM    H7G14085   1.711   5.317   3.713 -1.0023  0.2710  2.2303
  131OSM    C8F14086   1.637   5.121   3.758  0.4774  0.2090 -0.1763
  131OSM    H8F14087   1.568   5.054   3.701  2.1013 -1.5047 -0.2321
  131OSM    H8G14088   1.577   5.140   3.850  2.6771  0.3280  1.3078
  131OSM    C9F14089   1.763   5.049   3.797  0.4193 -1.0215 -0.2775
  131OSM    H9F14090   1.792   4.959   3.742  0.5624 -0.3254 -1.3675
  131OSM   C10F14091   1.836   5.086   3.907  0.9950 -0.0125  0.5023
  131OSM   H10F14092   1.915   5.027   3.955  0.5051  1.2115  2.9883
  131OSM   C11F14093   1.792   5.195   3.999 -0.0035 -0.6103  1.2850
  131OSM   H11F14094   1.682   5.199   4.012 -0.0619 -2.2676  1.4668
  131OSM   H11G14095   1.830   5.286   3.946  1.0134 -1.5403  0.3655
  131OSM   C12F14096   1.857   5.172   4.139  0.2915  0.2851 -0.0158
  131OSM   H12F14097   1.844   5.264   4.199  0.3240  1.0242 -1.1210
  131OSM   H12G14098   1.966   5.156   4.127  0.0027 -0.6590 -1.6169
  131OSM   C13F14099   1.813   5.046   4.218  0.1223  0.1264 -0.4817
  131OSM   H13F14100   1.843   4.955   4.162  0.8754 -0.5290  0.9228
  131OSM   H13G14101   1.702   5.046   4.224  0.1812  1.8363  2.7367
  131OSM   C14F14102   1.870   5.042   4.365  0.4193 -0.1025 -0.3880
  131OSM   H14F14103   1.807   4.964   4.412  0.3762  0.0363 -0.2149
  131OSM   H14G14104   1.846   5.143   4.406  0.6805  0.4481 -1.5388
  131OSM   C15F14105   2.015   5.004   4.368  0.6194  0.0702 -0.0674
  131OSM   H15F14106   2.069   5.087   4.317 -1.4782  0.6747 -1.3981
  131OSM   H15G14107   2.045   4.910   4.317 -1.0279 -1.3063  1.3639
  131OSM   C16F14108   2.081   5.007   4.503  0.4900  0.0455 -0.0315
  131OSM   H16F14109   2.084   5.110   4.543  0.1648  0.0121  0.0812
  131OSM   H16G14110   2.181   4.959   4.505  0.6861  0.4348 -0.4545
  131OSM   C17F14111   2.006   4.927   4.617 -0.1769  0.0752  0.1104
  131OSM   H17F14112   2.003   4.819   4.592 -3.6018 -0.1030  0.8205
  131OSM   H17G14113   1.899   4.954   4.612 -0.3954 -0.8906 -0.5819
  131OSM   C18F14114   2.078   4.944   4.749 -0.1911  0.4333 -0.1592
  131OSM   H18F14115   2.040   4.870   4.822 -0.8520  0.1988 -0.7280
  131OSM   H18G14116   2.085   5.051   4.781  1.0679  0.8682 -1.7906
  131OSM   H18H14117   2.187   4.941   4.726 -0.2414 -1.4653 -0.2408
  132OSM      N14118   1.244   6.165   2.572 -0.1287  0.9360  0.1649
  132OSM    C1514119   1.314   6.085   2.462  0.3759  0.6165  0.5138
  132OSM   H15A14120   1.239   6.060   2.389  0.1575  1.9358  0.2672
  132OSM   H15B14121   1.351   5.988   2.491  1.7981  0.0618 -2.6940
  132OSM   H15C14122   1.381   6.136   2.394 -0.4286 -0.5473 -1.2206
  132OSM    C1414123   1.122   6.086   2.605 -0.1046 -0.5170  0.7428
  132OSM   H14A14124   1.070   6.131   2.688 -2.6219 -1.0548 -0.4566
  132OSM   H14B14125   1.129   5.982   2.632 -1.7173 -0.3983  1.7792
  132OSM   H14C14126   1.054   6.086   2.522 -1.5598 -0.0513  1.8904
  132OSM    C1314127   1.322   6.181   2.704 -0.3332  0.1452  0.4833
  132OSM   H13A14128   1.272   6.244   2.776 -1.9671 -1.0080  0.4308
  132OSM   H13B14129   1.409   6.238   2.676 -0.5730 -0.7420 -2.4655
  132OSM   H13C14130   1.369   6.094   2.747 -2.2431 -1.9949 -1.4849
  132OSM    C1214131   1.211   6.300   2.516 -0.0295  0.5051  0.2000
  132OSM   H12A14132   1.301   6.360   2.512 -0.9702  1.8809 -1.5473
  132OSM   H12B14133   1.143   6.348   2.584 -2.6775 -1.0244 -1.2311
  132OSM    C1114134   1.138   6.308   2.380  0.9093  1.0864  0.0633
  132OSM   H11A14135   1.192   6.245   2.306  0.8885  0.0062  0.9348
  132OSM   H11B14136   1.142   6.412   2.342  0.2305  0.9216 -0.4813
  132OSM      P14137   0.894   6.374   2.441  0.0749  0.2259  0.0243
  132OSM    O1314138   0.858   6.466   2.330  0.0923 -0.4823 -0.4052
  132OSM    O1414139   0.775   6.301   2.500  0.0678  0.5403 -0.2330
  132OSM    O1114140   0.974   6.453   2.551 -0.5068  0.0277  0.3238
  132OSM    O1214141   1.001   6.267   2.399  0.0015 -0.1337 -0.2791
  132OSM    C1S14142   0.936   6.434   2.687  0.4175 -0.7458 -0.1218
  132OSM    H1S14143   0.963   6.331   2.719 -2.9173 -1.2660  1.4368
  132OSM    H1T14144   0.827   6.452   2.689  0.5680  0.4898 -1.5237
  132OSM     NF14145   0.981   6.495   2.925 -0.5608 -0.2908 -1.0243
  132OSM    HNF14146   0.944   6.568   2.981 -1.9336 -2.3502  0.8902
  132OSM    C2S14147   1.014   6.528   2.785 -0.2408 -1.1812  0.2048
  132OSM    H2S14148   1.121   6.503   2.766  0.3531  0.7579  0.7606
  132OSM    C3S14149   0.998   6.683   2.740  0.2108 -0.2669 -0.1941
  132OSM    H3S14150   0.893   6.714   2.755  0.3211  0.3311 -0.5951
  132OSM     O314151   1.016   6.723   2.607 -0.1847 -0.0073  0.0377
  132OSM    HO314152   1.001   6.652   2.545 -1.2857  2.0587 -2.2206
  132OSM    C4S14153   1.078   6.763   2.833 -0.2469 -0.6833 -0.2292
  132OSM    H4S14154   1.183   6.730   2.833 -0.6131 -1.8880 -0.4757
  132OSM    C5S14155   1.041   6.874   2.892  0.6636 -0.5752 -1.0820
  132OSM    H5S14156   0.948   6.928   2.870  2.1262  2.8923  0.5075
  132OSM    C6S14157   1.142   6.956   2.965 -0.5170  0.1364 -0.1813
  132OSM    H6S14158   1.154   7.048   2.903  0.9551 -0.3132 -0.5924
  132OSM    H6T14159   1.233   6.894   2.981 -0.0053  0.3878 -1.9142
  132OSM    C7S14160   1.082   6.995   3.103 -0.0492 -0.5572 -0.3201
  132OSM    H7S14161   1.049   6.905   3.159  0.8896 -1.0716 -0.5679
  132OSM    H7T14162   0.992   7.058   3.087 -0.4760 -1.4083 -1.3234
  132OSM    C8S14163   1.173   7.059   3.214 -0.4243 -0.6085  0.2131
  132OSM    H8S14164   1.200   7.166   3.199 -0.9798 -0.4690  0.1856
  132OSM    H8T14165   1.270   7.005   3.227 -0.4354 -0.5593  0.5269
  132OSM    C9S14166   1.107   7.068   3.352 -0.2294  0.0996 -0.2168
  132OSM    H9S14167   1.191   7.099   3.418 -0.5913  0.5573  0.0375
  132OSM    H9T14168   1.077   6.967   3.385 -1.5579  0.9286  1.2479
  132OSM   C10S14169   0.980   7.150   3.354  0.1350 -0.4385 -0.5376
  132OSM   H10S14170   0.914   7.105   3.278 -0.0782  0.5355 -0.9436
  132OSM   H10T14171   1.002   7.253   3.319 -2.4740  1.8761  3.6677
  132OSM   C11S14172   0.914   7.161   3.491  0.5204  0.9952  0.3347
  132OSM   H11S14173   0.893   7.055   3.516  0.0507  1.3586  1.5426
  132OSM   H11T14174   0.823   7.224   3.482  0.5865  0.9308 -1.0012
  132OSM   C12S14175   1.003   7.233   3.594  0.1753 -0.3276 -0.1577
  132OSM   H12S14176   1.047   7.329   3.559 -0.8221  0.4865  0.7628
  132OSM   H12T14177   1.088   7.171   3.631  0.0237 -0.6302 -0.3062
  132OSM   C13S14178   0.926   7.264   3.722  0.0718  0.4938  0.2631
  132OSM   H13S14179   0.835   7.309   3.678  2.2455  1.6994 -3.4145
  132OSM   H13T14180   0.988   7.335   3.780  0.3451  0.6404 -0.1990
  132OSM   C14S14181   0.893   7.140   3.815 -0.2215 -0.1448  0.3021
  132OSM   H14S14182   0.941   7.147   3.914 -1.2393  1.2180  0.7261
  132OSM   H14T14183   0.927   7.051   3.758  1.2562 -0.0213  0.9692
  132OSM   C15S14184   0.742   7.129   3.852 -0.3149 -0.4269  0.2910
  132OSM   H15S14185   0.721   7.028   3.892 -1.3682 -0.2967  0.1105
  132OSM   H15T14186   0.685   7.123   3.756 -1.3775 -2.2970  0.9914
  132OSM   C16S14187   0.687   7.246   3.936  0.1179 -0.4702 -0.3853
  132OSM   H16S14188   0.577   7.255   3.933  0.2288  2.0338  0.3938
  132OSM   H16T14189   0.731   7.338   3.892 -1.3604  0.0690 -0.7976
  132OSM   C17S14190   0.722   7.245   4.086 -0.1599  0.2965 -0.4020
  132OSM   H17S14191   0.690   7.339   4.137 -3.9606 -0.8018 -0.4831
  132OSM   H17T14192   0.833   7.242   4.095 -0.1272  0.3576 -0.8032
  132OSM   C18S14193   0.670   7.126   4.163  0.4770  0.1356 -0.6812
  132OSM   H18S14194   0.718   7.124   4.264 -0.2380  1.8757 -0.2667
  132OSM   H18T14195   0.687   7.026   4.117  1.8764 -0.0241  0.1106
  132OSM   H18U14196   0.560   7.133   4.172  0.5018 -0.4445  0.2194
  132OSM    C1F14197   1.037   6.377   2.980 -0.5459 -0.5444  0.8835
  132OSM     OF14198   1.108   6.298   2.908  0.0460 -0.0797  0.1998
  132OSM    C2F14199   0.998   6.342   3.119  0.0568 -0.4473  0.4292
  132OSM    H2F14200   0.917   6.267   3.112 -0.7068 -0.0170  3.3437
  132OSM    H2G14201   0.958   6.432   3.172  1.8763  0.5274  0.2493
  132OSM    C3F14202   1.105   6.264   3.194  0.3606  0.2623  0.4557
  132OSM    H3F14203   1.199   6.323   3.200  0.2872  0.5334 -0.7993
  132OSM    H3G14204   1.127   6.169   3.142 -1.2893 -1.0423  2.0098
  132OSM    C4F14205   1.077   6.217   3.328  0.8325  0.1160 -0.0905
  132OSM    H4F14206   0.999   6.138   3.337 -1.6900  2.5147  0.6172
  132OSM    H4G14207   1.048   6.313   3.376  4.5972  1.0787  0.5772
  132OSM    C5F14208   1.202   6.166   3.395  0.2789  0.0166  0.2994
  132OSM    H5F14209   1.284   6.238   3.415  3.2862 -2.9543 -0.4720
  132OSM    H5G14210   1.249   6.098   3.321  1.2981  1.0177  0.0160
  132OSM    C6F14211   1.167   6.088   3.522  0.2466  0.2545 -0.0640
  132OSM    H6F14212   1.254   6.019   3.514 -0.6768 -0.9802  0.0782
  132OSM    H6G14213   1.066   6.043   3.508  0.4931 -1.2718  2.4530
  132OSM    C7F14214   1.199   6.167   3.648  0.6380  0.7477  0.2510
  132OSM    H7F14215   1.303   6.195   3.625  0.5014  1.8249  0.8749
  132OSM    H7G14216   1.200   6.093   3.731  2.1300 -1.5791 -1.7273
  132OSM    C8F14217   1.110   6.288   3.682 -0.4030  0.2534 -0.3780
  132OSM    H8F14218   1.109   6.366   3.603  0.0148 -0.3898 -1.0214
  132OSM    H8G14219   1.177   6.336   3.756  2.6832 -0.2071 -2.6667
  132OSM    C9F14220   0.966   6.257   3.722 -0.5487  0.0167  0.1711
  132OSM    H9F14221   0.906   6.203   3.647 -0.7365 -1.9924  1.6959
  132OSM   C10F14222   0.918   6.275   3.841  0.0588 -0.0465 -1.0016
  132OSM   H10F14223   0.813   6.248   3.856  0.5288 -1.7514 -0.5315
  132OSM   C11F14224   0.992   6.331   3.964 -0.1384 -0.4111  0.5124
  132OSM   H11F14225   0.954   6.433   3.987 -0.2268 -1.0768  3.7639
  132OSM   H11G14226   1.098   6.359   3.949 -0.5606  1.1008  0.1772
  132OSM   C12F14227   0.973   6.249   4.089 -0.4947  0.2917  0.0576
  132OSM   H12F14228   1.002   6.144   4.066 -2.2759 -0.3518  0.5696
  132OSM   H12G14229   0.867   6.257   4.122 -0.4700  1.6644 -0.1418
  132OSM   C13F14230   1.074   6.297   4.199 -0.0908 -0.5648  0.3057
  132OSM   H13F14231   1.042   6.397   4.237 -2.5990 -1.3915  0.5718
  132OSM   H13G14232   1.178   6.307   4.160 -0.3966 -0.9473 -0.6353
  132OSM   C14F14233   1.068   6.200   4.320  0.0719  0.7899  0.6220
  132OSM   H14F14234   1.095   6.101   4.276 -2.0599  0.3339  0.2292
  132OSM   H14G14235   0.966   6.180   4.358  1.0295 -3.5928  1.5088
  132OSM   C15F14236   1.160   6.220   4.428 -0.0520 -0.5512  0.7208
  132OSM   H15F14237   1.247   6.274   4.387 -0.2889 -1.8341 -1.6531
  132OSM   H15G14238   1.193   6.122   4.469  2.2841 -0.8712 -1.6835
  132OSM   C16F14239   1.100   6.307   4.536 -0.0684 -0.5397 -0.1573
  132OSM   H16F14240   1.017   6.254   4.588 -0.6355 -0.1544 -0.6486
  132OSM   H16G14241   1.054   6.398   4.491  0.2339 -1.8358 -3.2963
  132OSM   C17F14242   1.201   6.363   4.646  0.2433  0.9234 -0.0610
  132OSM   H17F14243   1.240   6.461   4.609  2.4149  0.6146  1.2134
  132OSM   H17G14244   1.290   6.296   4.648 -1.3322 -1.2435  1.3557
  132OSM   C18F14245   1.140   6.382   4.789  0.0799  1.0331  0.1611
  132OSM   H18F14246   1.218   6.422   4.857  1.0359 -0.4603 -0.0068
  132OSM   H18G14247   1.110   6.279   4.818 -1.6331  0.8844 -1.8812
  132OSM   H18H14248   1.046   6.442   4.786 -1.3492 -0.4379  5.2133
  133OSM      N14249   5.381   1.246   2.676  0.5201 -1.0586  0.3506
  133OSM    C1514250   5.352   1.379   2.737  0.7253 -0.0373  0.1348
  133OSM   H15A14251   5.328   1.459   2.669  0.6432  0.4518  0.7319
  133OSM   H15B14252   5.437   1.411   2.794 -1.7307  1.7065  3.1414
  133OSM   H15C14253   5.269   1.364   2.805  1.9186 -1.1000  1.4091
  133OSM    C1414254   5.262   1.197   2.601  0.0917 -0.3085 -0.2434
  133OSM   H14A14255   5.170   1.210   2.657 -0.2392  1.5913 -1.1168
  133OSM   H14B14256   5.272   1.092   2.578 -0.3970 -0.3818 -0.1502
  133OSM   H14C14257   5.234   1.250   2.511 -0.5637  1.6223  1.0088
  133OSM    C1314258   5.504   1.249   2.590  0.2372  0.3044  0.4743
  133OSM   H13A14259   5.591   1.288   2.640  1.2594 -0.9271 -0.3041
  133OSM   H13B14260   5.470   1.295   2.498  3.1701 -0.0171 -0.8690
  133OSM   H13C14261   5.520   1.151   2.547 -2.3381  1.2581 -3.2103
  133OSM    C1214262   5.392   1.148   2.789  0.3638 -0.4365  0.9182
  133OSM   H12A14263   5.292   1.124   2.822 -0.2512 -0.3982 -0.8644
  133OSM   H12B14264   5.440   1.195   2.874 -1.7118  1.9882  0.8564
  133OSM    C1114265   5.471   1.006   2.774  0.1698 -0.4572 -0.0447
  133OSM   H11A14266   5.425   0.947   2.692 -1.4367  1.6445 -0.7197
  133OSM   H11B14267   5.455   0.952   2.870  3.4004  0.3120  1.0666
  133OSM      P14268   5.705   0.909   2.739  0.2797 -0.4857 -0.1871
  133OSM    O1314269   5.652   0.840   2.618  0.8882 -0.6179 -0.4023
  133OSM    O1414270   5.841   0.965   2.717 -0.4285  0.3229  0.0127
  133OSM    O1114271   5.699   0.822   2.877  0.4741 -0.4730 -0.3770
  133OSM    O1214272   5.611   1.029   2.767 -0.5237 -0.1294  0.0337
  133OSM    C1S14273   5.784   0.859   2.984 -0.3946  0.5227  0.0462
  133OSM    H1S14274   5.873   0.920   2.957 -0.4662 -0.0792 -1.7238
  133OSM    H1T14275   5.825   0.771   3.038  0.5001  1.4449  0.9090
  133OSM     NF14276   5.800   0.989   3.192  0.3655  0.0446  0.5580
  133OSM    HNF14277   5.807   0.934   3.275 -0.4351  0.4159  0.8847
  133OSM    C2S14278   5.706   0.936   3.090  0.4019 -0.0222  0.1289
  133OSM    H2S14279   5.659   1.016   3.028 -0.7048 -2.9355 -3.1621
  133OSM    C3S14280   5.593   0.844   3.141  0.0748  0.1228  0.3780
  133OSM    H3S14281   5.644   0.764   3.198 -1.1626 -1.7515 -1.0052
  133OSM     O314282   5.525   0.759   3.044 -0.1788 -0.4840  0.3448
  133OSM    HO314283   5.570   0.775   2.961  0.6947  0.3152  0.9479
  133OSM    C4S14284   5.501   0.913   3.233 -0.3166 -0.8750 -0.5017
  133OSM    H4S14285   5.536   0.913   3.338  1.1133 -4.8238 -0.7905
  133OSM    C5S14286   5.393   0.997   3.202  0.0862  0.1393 -0.6081
  133OSM    H5S14287   5.362   1.006   3.097  1.2224 -0.5036 -1.0157
  133OSM    C6S14288   5.312   1.085   3.298 -0.3686 -0.2071 -0.3274
  133OSM    H6S14289   5.202   1.079   3.287 -0.3599  0.5362 -0.8489
  133OSM    H6T14290   5.325   1.190   3.264 -1.6223  0.5147  1.2449
  133OSM    C7S14291   5.346   1.068   3.446  0.3753 -0.2886  0.0977
  133OSM    H7S14292   5.338   0.958   3.464 -1.2198  0.1640  2.5083
  133OSM    H7T14293   5.260   1.099   3.509 -0.7672 -2.2109 -0.4246
  133OSM    C8S14294   5.481   1.129   3.490 -0.2562 -0.8861  0.3628
  133OSM    H8S14295   5.469   1.238   3.508 -0.4639 -1.4025  4.1875
  133OSM    H8T14296   5.550   1.119   3.404  0.5413  1.0816  0.7171
  133OSM    C9S14297   5.542   1.064   3.615  0.0686 -0.5267 -0.0444
  133OSM    H9S14298   5.549   0.956   3.589  0.1640 -0.6310  0.4049
  133OSM    H9T14299   5.461   1.070   3.690 -1.9061  0.1482 -2.1196
  133OSM   C10S14300   5.670   1.139   3.650 -0.3781  0.3230  0.2635
  133OSM   H10S14301   5.667   1.250   3.652  1.3314  0.4860 -2.0004
  133OSM   H10T14302   5.740   1.110   3.569  0.0275  1.4931  0.1771
  133OSM   C11S14303   5.742   1.067   3.769  0.1309  0.2251  0.2405
  133OSM   H11S14304   5.851   1.056   3.752 -0.2464 -0.6319 -1.9632
  133OSM   H11T14305   5.688   0.972   3.791 -0.2693  0.1273 -1.0541
  133OSM   C12S14306   5.725   1.147   3.889  0.0983  0.0972 -0.2998
  133OSM   H12S14307   5.618   1.164   3.912 -0.1103  0.8947 -1.7782
  133OSM   H12T14308   5.776   1.244   3.871 -1.0675  0.5786 -1.1728
  133OSM   C13S14309   5.787   1.075   4.004  0.1998  0.8568  0.1306
  133OSM   H13S14310   5.881   1.040   3.958  0.3406  0.3500  0.7862
  133OSM   H13T14311   5.720   0.992   4.039  1.6527  1.0523  3.9131
  133OSM   C14S14312   5.805   1.164   4.129 -0.1173 -0.0397  0.3487
  133OSM   H14S14313   5.713   1.227   4.135  0.7819  1.5402 -1.2942
  133OSM   H14T14314   5.891   1.233   4.116 -0.9230  0.8378 -0.5405
  133OSM   C15S14315   5.821   1.079   4.258 -1.1306 -0.3851  0.3622
  133OSM   H15S14316   5.897   0.998   4.252 -1.9081 -1.2474  1.5114
  133OSM   H15T14317   5.728   1.027   4.290 -0.7989 -1.3757 -0.2485
  133OSM   C16S14318   5.855   1.174   4.371 -0.0596  0.2605 -0.3180
  133OSM   H16S14319   5.784   1.259   4.382 -1.9291 -0.9881 -1.8622
  133OSM   H16T14320   5.951   1.223   4.345 -0.7260  2.3895  0.9837
  133OSM   C17S14321   5.869   1.102   4.512 -0.2069 -0.3380 -0.0918
  133OSM   H17S14322   5.949   1.153   4.570 -0.2540 -1.0395  0.6056
  133OSM   H17T14323   5.915   1.006   4.482  0.6736  0.5608 -1.8035
  133OSM   C18S14324   5.745   1.103   4.589  0.4114 -0.0700 -0.5494
  133OSM   H18S14325   5.712   1.203   4.625 -0.7120 -1.1239  1.5393
  133OSM   H18T14326   5.745   1.056   4.690  0.6638  2.0275  0.4810
  133OSM   H18U14327   5.664   1.058   4.528  0.6358 -0.4071 -0.5983
  133OSM    C1F14328   5.871   1.101   3.169  0.0123  0.4469  0.5077
  133OSM     OF14329   5.860   1.173   3.070  0.2173 -0.4240  0.7061
  133OSM    C2F14330   5.975   1.129   3.272  0.6484 -0.2208 -0.5163
  133OSM    H2F14331   6.081   1.119   3.241  0.9937  0.1702  0.5145
  133OSM    H2G14332   5.958   1.051   3.349  0.3183  0.8709  0.5466
  133OSM    C3F14333   5.950   1.268   3.339  0.0844  0.5631  0.0669
  133OSM    H3F14334   5.841   1.284   3.352 -0.3026 -1.4496 -0.4548
  133OSM    H3G14335   6.000   1.349   3.282  0.9310  1.1394  1.5861
  133OSM    C4F14336   6.010   1.258   3.478 -0.2313 -0.7566  0.1195
  133OSM    H4F14337   6.121   1.253   3.472 -0.3336 -1.8806 -1.1320
  133OSM    H4G14338   5.978   1.164   3.527  0.0448 -0.4140  0.9801
  133OSM    C5F14339   5.967   1.388   3.560  0.0825  0.0851  0.7139
  133OSM    H5F14340   5.859   1.378   3.584 -0.9570  1.1267 -2.7809
  133OSM    H5G14341   5.966   1.476   3.492  1.4399  1.1681  2.0355
  133OSM    C6F14342   6.056   1.416   3.682  0.0977  0.2083 -0.4262
  133OSM    H6F14343   6.157   1.454   3.658 -0.8197  3.5368  0.4555
  133OSM    H6G14344   6.065   1.322   3.740  1.2017  0.6929  0.2087
  133OSM    C7F14345   5.994   1.518   3.776 -0.3056 -0.3832  0.2869
  133OSM    H7F14346   5.919   1.472   3.844 -0.9383  0.4989  0.1963
  133OSM    H7G14347   5.948   1.595   3.711  1.3672  0.3012 -0.1589
  133OSM    C8F14348   6.102   1.590   3.860  0.7334  0.6140 -0.4100
  133OSM    H8F14349   6.049   1.671   3.915  2.4502  0.2734  1.8911
  133OSM    H8G14350   6.188   1.624   3.799  3.4125 -1.4062  1.9623
  133OSM    C9F14351   6.158   1.474   3.942  0.2577 -0.3235 -0.2215
  133OSM    H9F14352   6.215   1.401   3.882 -1.0259 -1.0407 -0.6043
  133OSM   C10F14353   6.130   1.462   4.074  0.0184 -0.2178  0.9894
  133OSM   H10F14354   6.197   1.386   4.117  1.5708 -0.9518 -2.3646
  133OSM   C11F14355   6.061   1.555   4.168 -0.0453  0.3272  0.5048
  133OSM   H11F14356   5.954   1.523   4.165 -0.2248  0.9954 -2.3448
  133OSM   H11G14357   6.064   1.665   4.154 -3.6617  0.6759  1.4344
  133OSM   C12F14358   6.120   1.525   4.310  0.3254 -0.3223  0.1449
  133OSM   H12F14359   6.229   1.544   4.294 -0.0454  1.5010 -0.4768
  133OSM   H12G14360   6.095   1.418   4.323 -0.2597 -0.1465  0.5120
  133OSM   C13F14361   6.064   1.621   4.415  0.3468  0.7138  0.7237
  133OSM   H13F14362   5.957   1.591   4.414  1.0387 -2.2492 -2.2547
  133OSM   H13G14363   6.068   1.722   4.370  1.4396 -0.7107 -2.6498
  133OSM   C14F14364   6.130   1.622   4.553 -0.1666 -0.4720 -0.5229
  133OSM   H14F14365   6.072   1.693   4.615  0.3508  0.5491 -1.1820
  133OSM   H14G14366   6.237   1.648   4.563 -0.3191 -0.0675  0.1078
  133OSM   C15F14367   6.114   1.482   4.618 -0.1419 -0.1429 -0.3064
  133OSM   H15F14368   6.179   1.412   4.561  2.5639  2.0642 -0.1502
  133OSM   H15G14369   6.008   1.451   4.624 -0.9283  2.0771 -1.4467
  133OSM   C16F14370   6.183   1.476   4.761  0.0868 -0.3106 -0.1363
  133OSM   H16F14371   6.124   1.542   4.829 -1.6978 -0.8746 -1.0627
  133OSM   H16G14372   6.289   1.508   4.752  0.4694 -1.5831 -0.3304
  133OSM   C17F14373   6.186   1.331   4.814 -0.0341  0.2628  0.1290
  133OSM   H17F14374   6.248   1.277   4.738  1.1979  0.3332  1.0600
  133OSM   H17G14375   6.082   1.291   4.808  0.1652 -0.0847 -1.7931
  133OSM   C18F14376   6.246   1.309   4.951 -0.3725 -0.0793  0.3760
  133OSM   H18F14377   6.196   1.363   5.034 -0.9715  0.3069 -0.2349
  133OSM   H18G14378   6.354   1.336   4.953 -0.4031  0.1908 -0.9211
  133OSM   H18H14379   6.234   1.202   4.979 -0.8602 -0.0999  0.0931
  134OSM      N14380   3.931   6.666   2.531 -0.2861 -0.2539  1.2301
  134OSM    C1514381   3.835   6.776   2.527  0.2955  0.1026 -0.1945
  134OSM   H15A14382   3.776   6.789   2.616 -0.8416 -1.7507 -0.6123
  134OSM   H15B14383   3.765   6.759   2.446 -1.3264  3.1143  0.4298
  134OSM   H15C14384   3.882   6.872   2.511 -1.2053  0.8635 -0.3007
  134OSM    C1414385   3.870   6.528   2.553 -0.3840  0.3571 -0.1097
  134OSM   H14A14386   3.949   6.454   2.555  2.6967  3.3609 -0.9244
  134OSM   H14B14387   3.807   6.495   2.472 -2.7849 -2.0548  2.5080
  134OSM   H14C14388   3.816   6.520   2.646 -2.1104  1.1346 -1.0063
  134OSM    C1314389   3.999   6.658   2.392 -0.1940 -0.7834  0.0565
  134OSM   H13A14390   4.039   6.752   2.356  0.5011 -1.1569 -0.1576
  134OSM   H13B14391   3.937   6.612   2.316 -1.1806 -1.4787  1.2402
  134OSM   H13C14392   4.085   6.594   2.408  1.6343  2.0882  2.7086
  134OSM    C1214393   4.032   6.696   2.638 -0.5275 -0.0729  0.2911
  134OSM   H12A14394   3.979   6.701   2.732 -1.9126  0.9952 -0.4932
  134OSM   H12B14395   4.072   6.796   2.630 -2.7053  0.9844  1.5273
  134OSM    C1114396   4.141   6.586   2.673  0.3391  0.3663 -0.3199
  134OSM   H11A14397   4.088   6.494   2.706 -0.4269  0.0471 -2.3247
  134OSM   H11B14398   4.189   6.619   2.768  0.4454 -0.5978 -0.0206
  134OSM      P14399   4.349   6.651   2.513 -0.0642 -0.1681 -0.2895
  134OSM    O1314400   4.361   6.631   2.371 -0.0101  0.2219 -0.4330
  134OSM    O1414401   4.323   6.787   2.560  0.2420  0.4166  0.4918
  134OSM    O1114402   4.476   6.589   2.585  0.8524 -0.2599  0.4411
  134OSM    O1214403   4.232   6.559   2.565  0.1234  0.4980  0.2109
  134OSM    C1S14404   4.537   6.648   2.700 -0.2274 -0.4116 -0.0721
  134OSM    H1S14405   4.521   6.758   2.709 -1.6643 -0.5340 -0.8491
  134OSM    H1T14406   4.648   6.648   2.697 -0.2077  0.7324  0.2110
  134OSM     NF14407   4.562   6.651   2.948  0.6039  0.2371 -0.8018
  134OSM    HNF14408   4.632   6.595   2.992 -1.3848 -2.5980 -1.0253
  134OSM    C2S14409   4.487   6.584   2.835  0.1686  0.3741 -0.3103
  134OSM    H2S14410   4.382   6.613   2.852 -0.1238  0.2085 -1.6696
  134OSM    C3S14411   4.497   6.430   2.838 -0.1205  0.4038  0.2822
  134OSM    H3S14412   4.596   6.399   2.799 -0.8353  0.2370 -1.5393
  134OSM     O314413   4.417   6.368   2.743 -0.2123 -0.3727  0.5336
  134OSM    HO314414   4.368   6.441   2.704  0.5497 -0.1459 -0.0213
  134OSM    C4S14415   4.459   6.378   2.968 -0.5793 -0.1201  0.6170
  134OSM    H4S14416   4.358   6.410   2.996 -0.5084 -0.0059  0.7406
  134OSM    C5S14417   4.527   6.296   3.047  0.3247 -0.2366  0.2677
  134OSM    H5S14418   4.621   6.251   3.011  0.5836  0.7247 -0.2895
  134OSM    C6S14419   4.498   6.232   3.176 -0.1846 -0.9030  0.3660
  134OSM    H6S14420   4.494   6.121   3.170 -0.5762 -0.8764  0.0880
  134OSM    H6T14421   4.411   6.271   3.234  0.8563 -2.1298  2.8976
  134OSM    C7S14422   4.616   6.258   3.276 -0.3392 -0.0756  0.2792
  134OSM    H7S14423   4.647   6.364   3.285  0.6123 -0.3078 -0.1071
  134OSM    H7T14424   4.696   6.197   3.229 -0.6409 -1.4810  1.5059
  134OSM    C8S14425   4.581   6.199   3.409 -0.1898 -0.5005 -0.9593
  134OSM    H8S14426   4.521   6.105   3.402  1.2318 -1.7324  1.6944
  134OSM    H8T14427   4.498   6.257   3.456  2.7699  2.9389  0.4806
  134OSM    C9S14428   4.694   6.177   3.514 -0.0060 -0.4844  0.2020
  134OSM    H9S14429   4.752   6.272   3.525  1.2033 -0.6907 -3.1078
  134OSM    H9T14430   4.772   6.107   3.478  0.0524 -0.0851 -0.4692
  134OSM   C10S14431   4.634   6.130   3.644  0.2038 -0.4062 -1.1350
  134OSM   H10S14432   4.575   6.037   3.639 -0.2445 -0.1812 -0.2113
  134OSM   H10T14433   4.561   6.205   3.683  0.8018 -1.1931  1.7228
  134OSM   C11S14434   4.735   6.120   3.762  0.6121  0.2424  0.4508
  134OSM   H11S14435   4.781   6.221   3.767  1.2466 -0.0151 -0.0539
  134OSM   H11T14436   4.829   6.061   3.765  0.1154 -0.5227  1.8460
  134OSM   C12S14437   4.658   6.106   3.899 -0.2702 -0.3171  0.5311
  134OSM   H12S14438   4.600   6.012   3.898 -0.4508 -0.2821 -2.7096
  134OSM   H12T14439   4.582   6.187   3.900 -1.0137 -0.9617 -1.1573
  134OSM   C13S14440   4.749   6.109   4.019  0.0148 -0.5514  0.3509
  134OSM   H13S14441   4.798   6.209   4.023 -0.7143 -0.2082  1.0788
  134OSM   H13T14442   4.824   6.027   4.019 -0.8040 -1.3107 -0.0102
  134OSM   C14S14443   4.680   6.090   4.157 -0.0823  0.2741  0.2217
  134OSM   H14S14444   4.581   6.139   4.147  0.4326  1.1325 -0.9089
  134OSM   H14T14445   4.741   6.133   4.239  0.9115  0.3566 -0.5317
  134OSM   C15S14446   4.665   5.934   4.188  0.7333 -0.0975  0.0147
  134OSM   H15S14447   4.599   5.893   4.109 -1.0444 -0.6028  1.6817
  134OSM   H15T14448   4.605   5.916   4.280 -0.6014  0.3976 -0.7340
  134OSM   C16S14449   4.789   5.850   4.204  0.9200 -0.3778  0.3621
  134OSM   H16S14450   4.843   5.842   4.108  0.2215  2.3876 -0.3353
  134OSM   H16T14451   4.762   5.747   4.237 -0.5635  0.0320  0.4978
  134OSM   C17S14452   4.883   5.892   4.307  0.7869 -0.2035 -0.1881
  134OSM   H17S14453   4.818   5.915   4.394 -0.1304  0.2932 -0.9883
  134OSM   H17T14454   4.934   5.985   4.275 -0.4335 -0.0159 -1.6607
  134OSM   C18S14455   4.988   5.786   4.329  0.3957 -0.1485  0.0502
  134OSM   H18S14456   5.051   5.757   4.243  0.5177 -0.7578  0.3359
  134OSM   H18T14457   4.940   5.701   4.382 -1.4222  3.2246  4.4407
  134OSM   H18U14458   5.051   5.820   4.413  2.7572 -1.5865 -1.0460
  134OSM    C1F14459   4.548   6.780   2.983 -0.2247  1.0183  0.0553
  134OSM     OF14460   4.473   6.852   2.918 -0.0022 -0.4357 -0.3402
  134OSM    C2F14461   4.643   6.822   3.090  0.0569 -0.3369  1.0468
  134OSM    H2F14462   4.726   6.875   3.039  0.0095 -1.3894 -0.1931
  134OSM    H2G14463   4.683   6.727   3.132  0.8661  0.1246  1.3338
  134OSM    C3F14464   4.568   6.902   3.201  0.0445 -0.0031  0.5797
  134OSM    H3F14465   4.481   6.842   3.233 -0.2424  1.1940  2.1581
  134OSM    H3G14466   4.533   6.997   3.154 -1.3643 -2.3423 -3.6840
  134OSM    C4F14467   4.656   6.921   3.325 -0.0490 -0.8976  0.6085
  134OSM    H4F14468   4.696   6.818   3.343 -0.2209 -0.8634  1.2215
  134OSM    H4G14469   4.584   6.963   3.398 -0.1777  2.4583 -1.2840
  134OSM    C5F14470   4.773   7.018   3.312  0.0116  0.3515 -0.2996
  134OSM    H5F14471   4.735   7.122   3.307 -0.0712  0.4136  1.3474
  134OSM    H5G14472   4.840   6.985   3.229 -0.9846 -0.0435 -0.9702
  134OSM    C6F14473   4.862   7.012   3.436 -0.4929 -0.0025  0.0214
  134OSM    H6F14474   4.925   6.923   3.455  1.1280  1.4022  1.5882
  134OSM    H6G14475   4.804   7.029   3.529 -0.0127 -1.3942  0.5875
  134OSM    C7F14476   4.971   7.131   3.425  0.0545  0.3803 -0.0683
  134OSM    H7F14477   4.922   7.231   3.414  1.6174  0.9314 -2.7726
  134OSM    H7G14478   5.030   7.122   3.332  0.2485  1.3396 -0.0530
  134OSM    C8F14479   5.067   7.138   3.540 -0.2487  0.2523 -0.6016
  134OSM    H8F14480   5.161   7.193   3.518  1.5108 -0.3634  4.3018
  134OSM    H8G14481   5.098   7.032   3.547  0.4041  0.4992  0.4091
  134OSM    C9F14482   5.020   7.196   3.672  0.1625  0.4821  0.5734
  134OSM    H9F14483   4.968   7.293   3.664  1.8429  1.2883 -2.6131
  134OSM   C10F14484   5.040   7.145   3.793 -0.3450 -0.0469  0.5699
  134OSM   H10F14485   4.994   7.191   3.881 -1.9164 -2.1860  0.9316
  134OSM   C11F14486   5.122   7.024   3.831  0.4631 -0.7300 -0.0671
  134OSM   H11F14487   5.175   6.984   3.742 -1.2244 -0.9466 -1.0312
  134OSM   H11G14488   5.053   6.949   3.875 -0.5979  0.9620  1.2764
  134OSM   C12F14489   5.222   7.066   3.942 -0.1323  0.2813 -0.1233
  134OSM   H12F14490   5.303   7.124   3.893  0.4511 -2.0103 -2.1120
  134OSM   H12G14491   5.272   6.974   3.979  0.9302  1.1025  0.5384
  134OSM   C13F14492   5.155   7.120   4.067 -0.0052  0.4038  0.0135
  134OSM   H13F14493   5.065   7.056   4.084  0.2136  0.3807  1.1332
  134OSM   H13G14494   5.115   7.222   4.049 -0.3197 -0.0043 -1.8869
  134OSM   C14F14495   5.230   7.115   4.200  0.4535 -0.6408  0.0122
  134OSM   H14F14496   5.313   7.188   4.189 -0.6014  0.3375 -1.8757
  134OSM   H14G14497   5.296   7.025   4.194  1.0263 -0.1508 -1.7492
  134OSM   C15F14498   5.145   7.153   4.321 -0.1782 -0.1683 -0.0785
  134OSM   H15F14499   5.046   7.103   4.324 -0.8636  0.6036 -4.0307
  134OSM   H15G14500   5.128   7.263   4.321  0.8675  0.0775 -2.6156
  134OSM   C16F14501   5.226   7.101   4.444 -0.4742 -0.1867 -0.7462
  134OSM   H16F14502   5.329   7.137   4.422  0.5892 -2.9127 -0.5608
  134OSM   H16G14503   5.231   6.990   4.438 -0.5099 -0.4267  2.1978
  134OSM   C17F14504   5.173   7.154   4.588 -0.2055  0.1465  0.4506
  134OSM   H17F14505   5.077   7.099   4.599 -0.6213  0.0855 -2.6980
  134OSM   H17G14506   5.159   7.264   4.585 -0.6584  0.1624  1.9515
  134OSM   C18F14507   5.265   7.097   4.700 -0.3988 -0.5101 -0.3620
  134OSM   H18F14508   5.231   7.148   4.793 -0.9905 -0.6023 -0.5174
  134OSM   H18G14509   5.370   7.128   4.684  0.2931 -2.0557  0.9659
  134OSM   H18H14510   5.248   6.989   4.716 -0.2263 -0.5312 -0.3229
  135OSM      N14511   1.125   2.198   2.905 -0.0757 -0.7019 -0.2125
  135OSM    C1514512   1.215   2.152   3.019 -0.2116  0.2954 -0.0328
  135OSM   H15A14513   1.173   2.159   3.118  0.8524  1.4969  0.3634
  135OSM   H15B14514   1.309   2.205   3.017 -0.6244  1.0647  0.5880
  135OSM   H15C14515   1.239   2.048   3.005  0.2350  0.3487  0.3375
  135OSM    C1414516   1.182   2.141   2.779 -0.0650 -0.0329  0.8980
  135OSM   H14A14517   1.288   2.158   2.769 -0.1743 -0.2594 -0.7541
  135OSM   H14B14518   1.131   2.175   2.690  2.1142 -0.8323 -0.7406
  135OSM   H14C14519   1.179   2.034   2.784 -0.0292 -0.1511 -1.0033
  135OSM    C1314520   0.988   2.160   2.932 -0.0138  0.3995  0.0844
  135OSM   H13A14521   0.958   2.176   3.035 -0.4978 -0.8916  0.1605
  135OSM   H13B14522   0.974   2.058   2.900  1.7386  0.8308 -2.2760
  135OSM   H13C14523   0.917   2.206   2.866 -0.6299 -1.1215 -0.3605
  135OSM    C1214524   1.131   2.351   2.913 -0.0543 -0.6607 -0.1454
  135OSM   H12A14525   1.236   2.378   2.922 -0.5207  0.9322  1.0017
  135OSM   H12B14526   1.088   2.393   3.002 -0.7048 -2.6048  0.5074
  135OSM    C1114527   1.080   2.438   2.789 -0.0510  0.6510 -0.1303
  135OSM   H11A14528   1.124   2.388   2.700  0.0798  0.8588 -0.1836
  135OSM   H11B14529   1.119   2.542   2.794  1.3853  0.0888  1.0121
  135OSM      P14530   0.859   2.568   2.817  0.6515  0.1312  0.0445
  135OSM    O1314531   0.936   2.695   2.789 -0.2641  0.3395  0.0287
  135OSM    O1414532   0.727   2.564   2.751  0.2239  0.0397  0.3968
  135OSM    O1114533   0.841   2.562   2.979  0.2071 -0.0745  0.5883
  135OSM    O1214534   0.942   2.442   2.771 -0.2235 -0.3965 -0.0656
  135OSM    C1S14535   0.736   2.477   3.024 -0.2125  0.3020  0.3300
  135OSM    H1S14536   0.755   2.370   3.001 -2.5534 -0.3975  1.3791
  135OSM    H1T14537   0.634   2.490   2.981 -0.9665 -1.6518  1.3925
  135OSM     NF14538   0.660   2.357   3.229  0.1941  0.3818 -0.3014
  135OSM    HNF14539   0.562   2.362   3.249 -0.3327 -0.6215 -2.3005
  135OSM    C2S14540   0.724   2.480   3.176 -0.0338  0.2630  0.2338
  135OSM    H2S14541   0.830   2.490   3.207 -0.1124  4.0754 -0.1940
  135OSM    C3S14542   0.662   2.608   3.221 -0.0769  0.0014  0.1474
  135OSM    H3S14543   0.570   2.625   3.162  1.6048  0.2126 -2.6083
  135OSM     O314544   0.748   2.718   3.189 -0.0710 -0.1806  0.1182
  135OSM    HO314545   0.808   2.686   3.121 -2.3372 -2.4711 -0.9666
  135OSM    C4S14546   0.639   2.609   3.371 -0.5377 -0.4529  0.1278
  135OSM    H4S14547   0.695   2.527   3.420  0.1883 -0.1863 -0.2371
  135OSM    C5S14548   0.552   2.678   3.441 -0.4566 -0.4197  0.6993
  135OSM    H5S14549   0.491   2.761   3.401 -0.4960 -1.1432 -0.7855
  135OSM    C6S14550   0.540   2.679   3.592  0.2454 -0.8018 -0.4323
  135OSM    H6S14551   0.432   2.665   3.611 -0.1998  2.2749 -0.2995
  135OSM    H6T14552   0.557   2.780   3.633 -0.5584 -1.2359  1.0317
  135OSM    C7S14553   0.606   2.574   3.682 -0.4148 -0.1422 -0.2014
  135OSM    H7S14554   0.716   2.584   3.668 -0.6320 -0.1032 -2.1997
  135OSM    H7T14555   0.584   2.470   3.648  1.5949 -0.7341  0.2072
  135OSM    C8S14556   0.575   2.580   3.828 -0.2335 -0.2421  0.2719
  135OSM    H8S14557   0.559   2.685   3.861  0.5559 -0.3251  0.9776
  135OSM    H8T14558   0.669   2.552   3.881 -0.3977  0.6857  1.1032
  135OSM    C9S14559   0.476   2.482   3.890  1.0194 -0.2380 -0.0049
  135OSM    H9S14560   0.507   2.378   3.867 -2.0233 -1.2569  0.0587
  135OSM    H9T14561   0.378   2.491   3.839  1.3994 -1.6569 -1.0422
  135OSM   C10S14562   0.465   2.499   4.044  0.9562 -0.0224 -0.1404
  135OSM   H10S14563   0.440   2.603   4.071  0.9513 -0.4095  1.4860
  135OSM   H10T14564   0.561   2.469   4.091  0.1233 -1.0147  0.9930
  135OSM   C11S14565   0.358   2.406   4.112 -0.4938  0.7780  0.9019
  135OSM   H11S14566   0.331   2.324   4.042  0.5866  1.1492  0.0237
  135OSM   H11T14567   0.271   2.473   4.117 -2.1832 -1.2654  0.3068
  135OSM   C12S14568   0.389   2.345   4.249 -0.4998  0.3803 -0.1769
  135OSM   H12S14569   0.488   2.295   4.241 -0.0975  1.0271  0.6051
  135OSM   H12T14570   0.322   2.257   4.262 -1.9189  0.9231 -3.0713
  135OSM   C13S14571   0.375   2.449   4.364  0.0348 -0.2178  0.0456
  135OSM   H13S14572   0.265   2.469   4.359  0.2537  1.9017  2.2559
  135OSM   H13T14573   0.432   2.542   4.343  0.5800 -0.8649 -1.5414
  135OSM   C14S14574   0.428   2.388   4.489 -0.5286 -0.4276 -0.1249
  135OSM   H14S14575   0.534   2.363   4.469 -0.2183  1.9023 -1.7954
  135OSM   H14T14576   0.374   2.293   4.510 -0.6814  0.0101  1.6532
  135OSM   C15S14577   0.406   2.486   4.603 -0.0289  0.9919 -0.1936
  135OSM   H15S14578   0.305   2.531   4.601 -0.3573  0.2447 -2.0476
  135OSM   H15T14579   0.468   2.575   4.580  0.2957  1.0806  0.9659
  135OSM   C16S14580   0.440   2.422   4.741 -0.8109  0.7022 -0.3516
  135OSM   H16S14581   0.538   2.370   4.742 -1.0145  0.3042  1.2238
  135OSM   H16T14582   0.367   2.339   4.749  1.2239 -1.6194 -3.4314
  135OSM   C17S14583   0.425   2.521   4.857  0.4054  0.5541 -0.4039
  135OSM   H17S14584   0.495   2.607   4.852  0.0165  0.8194 -3.8857
  135OSM   H17T14585   0.442   2.464   4.951 -0.4207 -0.1768 -0.6782
  135OSM   C18S14586   0.292   2.588   4.856  0.4159  0.4194 -0.1418
  135OSM   H18S14587   0.266   2.638   4.760  1.3591 -2.7651 -2.2085
  135OSM   H18T14588   0.273   2.657   4.941 -0.4564  2.4853 -1.9137
  135OSM   H18U14589   0.215   2.510   4.871  2.7126 -1.5829  2.2518
  135OSM    C1F14590   0.725   2.249   3.240 -0.4137  0.2650 -0.4048
  135OSM     OF14591   0.846   2.230   3.214  0.0290 -0.0037  0.2591
  135OSM    C2F14592   0.657   2.133   3.306 -0.0583 -0.5027  0.1782
  135OSM    H2F14593   0.550   2.134   3.277  0.1922 -3.1664 -1.1911
  135OSM    H2G14594   0.670   2.155   3.414  0.7724 -0.3374  0.0543
  135OSM    C3F14595   0.721   1.997   3.267 -0.7195 -0.0156  0.6111
  135OSM    H3F14596   0.832   2.002   3.267 -0.6592  0.4487 -2.1982
  135OSM    H3G14597   0.687   1.961   3.167 -1.3684  0.9784  0.4576
  135OSM    C4F14598   0.673   1.889   3.364 -0.2138 -0.1851 -0.5128
  135OSM    H4F14599   0.685   1.791   3.313  1.3784 -0.6770  0.7252
  135OSM    H4G14600   0.570   1.921   3.390  0.4643  1.8713 -0.1163
  135OSM    C5F14601   0.762   1.888   3.479 -0.0148 -0.1232  0.5708
  135OSM    H5F14602   0.773   1.982   3.537 -1.0523  1.2344 -1.3000
  135OSM    H5G14603   0.863   1.858   3.442 -0.9340 -0.1097 -2.1728
  135OSM    C6F14604   0.713   1.785   3.582  0.3129  0.4500  0.4646
  135OSM    H6F14605   0.651   1.711   3.527 -1.5438  1.4765  1.0732
  135OSM    H6G14606   0.656   1.836   3.663 -0.0274 -0.6700  0.9497
  135OSM    C7F14607   0.828   1.707   3.649 -0.1815  0.0643  1.1949
  135OSM    H7F14608   0.885   1.787   3.703 -1.2585  0.9692  1.0282
  135OSM    H7G14609   0.889   1.680   3.560  0.6742  2.3803  1.0084
  135OSM    C8F14610   0.787   1.598   3.746  0.0469 -0.1656  0.3008
  135OSM    H8F14611   0.881   1.559   3.790  0.8824  1.2442 -0.1911
  135OSM    H8G14612   0.732   1.516   3.694 -0.4818 -0.4681  1.3017
  135OSM    C9F14613   0.697   1.658   3.854  0.2803  0.1241  0.2505
  135OSM    H9F14614   0.599   1.691   3.816  0.2822  1.4943  1.3660
  135OSM   C10F14615   0.708   1.677   3.992 -0.6619  0.0019  0.2993
  135OSM   H10F14616   0.632   1.728   4.053  1.0379  1.1039  1.6005
  135OSM   C11F14617   0.829   1.635   4.077 -0.3936  0.2402 -0.1558
  135OSM   H11F14618   0.873   1.720   4.132  0.5909 -1.6659  2.1690
  135OSM   H11G14619   0.910   1.606   4.006 -2.4020 -0.8696 -2.1355
  135OSM   C12F14620   0.799   1.516   4.175 -0.2600  0.5127 -0.2437
  135OSM   H12F14621   0.894   1.461   4.187 -0.8378 -0.7102 -1.0693
  135OSM   H12G14622   0.728   1.438   4.140  3.1440 -2.8824 -0.2365
  135OSM   C13F14623   0.756   1.588   4.311  0.0470  0.6781  0.0284
  135OSM   H13F14624   0.663   1.645   4.289 -1.1897 -1.3111 -0.1780
  135OSM   H13G14625   0.832   1.664   4.336  0.1029  0.9014 -0.7869
  135OSM   C14F14626   0.729   1.480   4.418  0.4009 -0.1464  0.1431
  135OSM   H14F14627   0.827   1.450   4.461  1.4712  3.4194  0.5291
  135OSM   H14G14628   0.691   1.391   4.364  1.1978 -0.6862  0.4485
  135OSM   C15F14629   0.625   1.526   4.517  0.0271  0.8166  0.8685
  135OSM   H15F14630   0.585   1.446   4.582 -0.2521  0.4154  0.2116
  135OSM   H15G14631   0.537   1.572   4.467 -2.5682 -1.6365  2.8440
  135OSM   C16F14632   0.684   1.640   4.602  0.5868  0.0854 -0.1383
  135OSM   H16F14633   0.601   1.686   4.659  2.2107  3.4733 -0.2615
  135OSM   H16G14634   0.715   1.724   4.536 -1.9009 -0.0450 -1.6020
  135OSM   C17F14635   0.792   1.600   4.696 -0.0528 -0.2715 -0.2825
  135OSM   H17F14636   0.886   1.602   4.637 -0.4707  0.2061 -0.9462
  135OSM   H17G14637   0.769   1.499   4.736 -1.5045  0.4021  0.6295
  135OSM   C18F14638   0.811   1.697   4.820 -0.6366 -0.6290  0.0935
  135OSM   H18F14639   0.758   1.648   4.904 -0.9034 -2.5843 -1.1403
  135OSM   H18G14640   0.781   1.799   4.788 -0.1621 -0.6209 -0.3303
  135OSM   H18H14641   0.919   1.693   4.844 -0.5182 -3.5389 -0.4443
  136OSM      N14642   4.762   4.283   2.204 -0.7544 -0.4037  0.1205
  136OSM    C1514643   4.885   4.204   2.193 -0.6320  0.6073  0.0146
  136OSM   H15A14644   4.966   4.258   2.239 -0.6638  0.7556 -0.1010
  136OSM   H15B14645   4.911   4.189   2.090  1.8217 -0.3483  0.7015
  136OSM   H15C14646   4.873   4.109   2.243 -0.7473  1.1462  1.0457
  136OSM    C1414647   4.772   4.414   2.130 -0.2244 -0.2557  0.0408
  136OSM   H14A14648   4.694   4.483   2.157 -1.1527 -1.0616 -0.5328
  136OSM   H14B14649   4.781   4.407   2.023 -0.2366  1.3628 -0.0865
  136OSM   H14C14650   4.867   4.455   2.161 -1.0306  0.4571  1.7086
  136OSM    C1314651   4.651   4.204   2.146 -0.9171 -0.7015  0.3760
  136OSM   H13A14652   4.553   4.247   2.150 -0.8754 -0.2695 -1.8736
  136OSM   H13B14653   4.659   4.104   2.187  0.9045 -1.0378 -0.6878
  136OSM   H13C14654   4.667   4.202   2.039  0.2876 -2.2592  0.5515
  136OSM    C1214655   4.728   4.314   2.342 -0.1995  0.4014 -0.4021
  136OSM   H12A14656   4.632   4.362   2.349 -1.1900 -1.4738 -0.3126
  136OSM   H12B14657   4.804   4.379   2.381 -0.1490  1.1075 -1.6322
  136OSM    C1114658   4.706   4.199   2.447  0.4315 -0.8401  0.3417
  136OSM   H11A14659   4.726   4.239   2.548  0.2364  2.6344 -0.8633
  136OSM   H11B14660   4.783   4.119   2.435  0.3820 -0.7381 -0.8335
  136OSM      P14661   4.450   4.186   2.505 -0.0688  0.2080 -0.5993
  136OSM    O1314662   4.426   4.328   2.480 -0.1045  0.0794 -0.0546
  136OSM    O1414663   4.338   4.093   2.474  0.0060  0.0286 -0.7889
  136OSM    O1114664   4.497   4.165   2.656 -0.0301 -0.1397 -0.4466
  136OSM    O1214665   4.584   4.139   2.429  0.5746 -0.7060  0.2073
  136OSM    C1S14666   4.449   4.256   2.764  0.6870  0.7021 -0.3030
  136OSM    H1S14667   4.414   4.352   2.720  2.5941  0.4352 -2.6555
  136OSM    H1T14668   4.531   4.274   2.837 -0.3981 -0.9765  1.4383
  136OSM     NF14669   4.288   4.286   2.950 -0.0394  0.0587  0.7410
  136OSM    HNF14670   4.317   4.274   3.044  1.2402 -2.0528  0.1575
  136OSM    C2S14671   4.338   4.196   2.847 -0.4792  0.2441 -0.3327
  136OSM    H2S14672   4.251   4.180   2.779 -0.9012 -2.1041  0.6427
  136OSM    C3S14673   4.376   4.051   2.891  0.1962 -0.5280  0.5066
  136OSM    H3S14674   4.428   3.982   2.820 -1.3870 -0.0892 -1.1340
  136OSM     O314675   4.255   3.980   2.911  0.1169 -0.0147  0.3319
  136OSM    HO314676   4.182   4.039   2.891  0.1920  0.4349  1.3522
  136OSM    C4S14677   4.438   4.052   3.027 -0.2323  0.5868 -0.9273
  136OSM    H4S14678   4.372   4.077   3.111  1.4026  1.6231  0.1169
  136OSM    C5S14679   4.572   4.036   3.056  0.0841 -0.2067  0.6507
  136OSM    H5S14680   4.641   4.025   2.971 -0.5387 -0.8530  0.2156
  136OSM    C6S14681   4.634   4.029   3.191 -0.2331 -0.4330 -0.1892
  136OSM    H6S14682   4.637   4.128   3.242 -1.4094 -0.4319 -0.0876
  136OSM    H6T14683   4.740   3.997   3.190  0.2395  0.6688  2.8871
  136OSM    C7S14684   4.560   3.939   3.294  0.5652 -1.1951  0.0865
  136OSM    H7S14685   4.562   3.832   3.263  0.7427 -1.5445  1.2427
  136OSM    H7T14686   4.455   3.973   3.306  0.0306 -2.4230 -0.9269
  136OSM    C8S14687   4.633   3.923   3.424 -0.1019  0.6954  0.0224
  136OSM    H8S14688   4.656   4.024   3.464  0.6656  0.2017  0.8729
  136OSM    H8T14689   4.729   3.868   3.418  1.0258  2.4138  1.3271
  136OSM    C9S14690   4.547   3.847   3.530  0.3385 -0.2868 -0.5913
  136OSM    H9S14691   4.531   3.740   3.504 -2.5280  0.2885 -1.5435
  136OSM    H9T14692   4.445   3.890   3.535 -0.3058 -1.4049 -2.8449
  136OSM   C10S14693   4.607   3.846   3.669 -0.0912  0.3721 -0.1453
  136OSM   H10S14694   4.618   3.953   3.695 -1.3781  1.2231 -2.7099
  136OSM   H10T14695   4.706   3.796   3.665 -0.2810  0.0431 -2.0377
  136OSM   C11S14696   4.522   3.764   3.774  0.6374 -0.6195 -0.1054
  136OSM   H11S14697   4.500   3.662   3.734 -2.7312 -0.0940  0.1450
  136OSM   H11T14698   4.424   3.816   3.779  2.6898  3.8041 -1.1975
  136OSM   C12S14699   4.583   3.767   3.914 -0.2220 -0.3209 -0.5305
  136OSM   H12S14700   4.638   3.862   3.933  0.8564 -1.1901  0.8613
  136OSM   H12T14701   4.661   3.688   3.922 -1.7242 -1.6355  2.8565
  136OSM   C13S14702   4.479   3.739   4.021 -0.0505  0.3101 -0.4584
  136OSM   H13S14703   4.436   3.637   4.008 -2.9975  1.6021 -1.8758
  136OSM   H13T14704   4.395   3.811   4.012  0.3952  0.9245  0.2497
  136OSM   C14S14705   4.523   3.751   4.170 -0.2452  0.1019 -0.0431
  136OSM   H14S14706   4.524   3.858   4.200 -3.0346 -0.2891  1.8202
  136OSM   H14T14707   4.614   3.691   4.190 -0.2376 -0.4675 -1.6186
  136OSM   C15S14708   4.418   3.693   4.266  0.0230  0.4288  0.2078
  136OSM   H15S14709   4.438   3.585   4.282 -0.5559  0.2800 -0.0694
  136OSM   H15T14710   4.328   3.706   4.203  0.0409 -1.8038 -0.3505
  136OSM   C16S14711   4.408   3.767   4.395  0.3394 -0.1983 -0.7320
  136OSM   H16S14712   4.377   3.874   4.382  2.2230  0.9660  3.1298
  136OSM   H16T14713   4.507   3.770   4.444  0.1939 -0.0466 -0.4425
  136OSM   C17S14714   4.302   3.716   4.491 -0.0046  0.3925  0.4092
  136OSM   H17S14715   4.198   3.726   4.453 -0.1300 -1.1605  0.2578
  136OSM   H17T14716   4.288   3.778   4.582 -2.9334  0.4482 -0.0070
  136OSM   C18S14717   4.327   3.569   4.535  0.3218 -0.1564  0.2940
  136OSM   H18S14718   4.295   3.545   4.639 -0.0286 -2.4162 -0.2721
  136OSM   H18T14719   4.433   3.540   4.519 -0.0522 -0.4679 -2.0772
  136OSM   H18U14720   4.269   3.494   4.476  0.3280 -2.1585  2.6577
  136OSM    C1F14721   4.222   4.398   2.914 -0.0226 -0.4399 -0.4074
  136OSM     OF14722   4.162   4.413   2.808  0.3566  0.0020 -0.5422
  136OSM    C2F14723   4.205   4.505   3.022 -0.7940  0.2487 -0.0626
  136OSM    H2F14724   4.290   4.493   3.093 -1.3952  0.9938  0.7890
  136OSM    H2G14725   4.118   4.488   3.089 -1.7050  0.2996 -1.1957
  136OSM    C3F14726   4.211   4.650   2.962  1.0420  0.3201 -0.2173
  136OSM    H3F14727   4.123   4.656   2.895  0.3147 -2.8867  0.2843
  136OSM    H3G14728   4.301   4.657   2.898 -0.0902  2.4565 -1.6847
  136OSM    C4F14729   4.211   4.763   3.063 -0.0695 -0.7679 -0.4900
  136OSM    H4F14730   4.213   4.859   3.007 -0.0944 -0.2677  0.3500
  136OSM    H4G14731   4.307   4.769   3.119  0.7098  0.7810 -1.9041
  136OSM    C5F14732   4.088   4.747   3.161  0.2967  0.1341 -0.0771
  136OSM    H5F14733   4.075   4.653   3.218 -0.3653 -0.3457 -1.0025
  136OSM    H5G14734   3.995   4.763   3.102  0.6264 -2.0415 -1.3165
  136OSM    C6F14735   4.092   4.855   3.276  0.5139 -0.5946 -0.1940
  136OSM    H6F14736   4.099   4.958   3.237 -1.1317  0.4657  2.1066
  136OSM    H6G14737   4.193   4.854   3.323  0.4280  0.8830  0.0731
  136OSM    C7F14738   3.976   4.861   3.378  0.3654 -0.1971 -0.2208
  136OSM    H7F14739   3.883   4.868   3.317  0.3471 -1.3802 -0.3682
  136OSM    H7G14740   3.997   4.958   3.428  0.4901  0.6981 -1.9429
  136OSM    C8F14741   3.961   4.746   3.486 -0.1072  0.3761  0.1474
  136OSM    H8F14742   3.941   4.652   3.429 -1.3573  0.9545 -0.4149
  136OSM    H8G14743   3.871   4.770   3.547 -1.1128 -0.6804 -0.8703
  136OSM    C9F14744   4.091   4.726   3.571  0.8971 -0.2479  0.2270
  136OSM    H9F14745   4.175   4.682   3.517 -0.4200 -0.8970 -1.3824
  136OSM   C10F14746   4.100   4.775   3.695 -0.4941 -0.4957  0.2025
  136OSM   H10F14747   4.200   4.767   3.740 -0.2481  0.9199 -0.0305
  136OSM   C11F14748   3.994   4.844   3.782 -0.2432  0.2774  0.1888
  136OSM   H11F14749   3.893   4.831   3.738 -0.6135 -0.2210  1.1501
  136OSM   H11G14750   4.020   4.951   3.792  2.6887 -0.0223 -2.5005
  136OSM   C12F14751   4.013   4.787   3.925 -0.0127  0.5460  0.0109
  136OSM   H12F14752   4.119   4.798   3.957 -0.2080  0.9897  0.5275
  136OSM   H12G14753   3.994   4.679   3.937 -0.3815  0.6606  0.4717
  136OSM   C13F14754   3.930   4.853   4.033  0.3140  0.6422 -0.1329
  136OSM   H13F14755   3.828   4.875   3.995 -0.8290 -0.5755  2.0061
  136OSM   H13G14756   3.967   4.951   4.071 -1.0884  0.9871  0.4038
  136OSM   C14F14757   3.909   4.752   4.156 -0.0681  0.2414  0.8672
  136OSM   H14F14758   4.007   4.726   4.202  0.7927 -2.7732 -2.2508
  136OSM   H14G14759   3.865   4.659   4.115 -0.3120  0.7587 -0.0736
  136OSM   C15F14760   3.814   4.816   4.257 -0.1632 -0.4659 -0.1002
  136OSM   H15F14761   3.715   4.820   4.205  0.4960 -3.7989 -1.8559
  136OSM   H15G14762   3.849   4.921   4.271  0.5512 -0.5143 -1.4428
  136OSM   C16F14763   3.799   4.748   4.391 -0.3427  0.2412 -0.1957
  136OSM   H16F14764   3.898   4.738   4.440 -0.6119  0.7345  0.4485
  136OSM   H16G14765   3.751   4.651   4.366 -2.1098  0.3486  2.4807
  136OSM   C17F14766   3.695   4.823   4.475 -0.1706 -0.1082 -0.1310
  136OSM   H17F14767   3.598   4.805   4.424  0.1335 -1.5427 -0.2372
  136OSM   H17G14768   3.725   4.930   4.486  1.0573 -0.1483 -2.5473
  136OSM   C18F14769   3.690   4.764   4.615 -0.6313  0.4196  0.7325
  136OSM   H18F14770   3.594   4.797   4.661 -0.7568  1.8548 -0.4869
  136OSM   H18G14771   3.777   4.794   4.677 -1.4263  2.3450  1.0042
  136OSM   H18H14772   3.685   4.653   4.615  0.6389  0.2641 -2.4058
  137OSM      N14773   0.471   2.855   2.831 -0.6168  0.5604  0.8736
  137OSM    C1514774   0.611   2.867   2.775 -0.4689  0.0136  0.0585
  137OSM   H15A14775   0.681   2.895   2.852  1.8170 -0.4959 -1.7453
  137OSM   H15B14776   0.616   2.949   2.705  0.4293  0.8117  1.0337
  137OSM   H15C14777   0.645   2.779   2.723  0.0138 -0.0522  0.4812
  137OSM    C1414778   0.436   2.981   2.896 -0.4408 -0.1930  0.4207
  137OSM   H14A14779   0.445   3.066   2.829 -0.6347  0.7453  1.5605
  137OSM   H14B14780   0.495   3.008   2.982 -0.1898 -2.2673  0.9556
  137OSM   H14C14781   0.334   2.985   2.930 -0.5023 -1.7884  0.5072
  137OSM    C1314782   0.378   2.819   2.719  0.0809  0.1382  0.1101
  137OSM   H13A14783   0.360   2.901   2.651  2.2956 -0.3604 -1.2103
  137OSM   H13B14784   0.282   2.797   2.762 -0.0890  2.3100  0.9757
  137OSM   H13C14785   0.414   2.734   2.663 -3.3529 -0.1929 -1.8442
  137OSM    C1214786   0.476   2.747   2.933  0.2893  0.0565 -0.2521
  137OSM   H12A14787   0.546   2.780   3.009 -0.6069  1.4290  0.0102
  137OSM   H12B14788   0.508   2.658   2.882 -0.1794  0.1092 -0.6404
  137OSM    C1114789   0.346   2.705   3.009  0.5080  0.0814 -0.3407
  137OSM   H11A14790   0.316   2.799   3.060 -0.6332 -0.4429 -0.0277
  137OSM   H11B14791   0.360   2.634   3.092 -3.4952  1.7321  2.0482
  137OSM      P14792   0.211   2.516   2.904  0.1192  0.0818  0.2259
  137OSM    O1314793   0.074   2.492   2.853  0.2581 -0.5829 -0.1744
  137OSM    O1414794   0.320   2.453   2.829 -0.0793 -0.7152  0.2709
  137OSM    O1114795   0.223   2.452   3.045  0.1354  0.3267 -0.0951
  137OSM    O1214796   0.234   2.671   2.931  0.5032  0.7172  0.4671
  137OSM    C1S14797   0.112   2.491   3.134 -0.4538  0.1776  0.0226
  137OSM    H1S14798   0.013   2.477   3.087 -0.4302 -1.1591  0.3173
  137OSM    H1T14799   0.116   2.596   3.170  1.9173  0.1147  0.0994
  137OSM     NF14800  -0.000   2.406   3.341 -0.5616 -0.2976 -0.3492
  137OSM    HNF14801   0.010   2.444   3.433  0.9283 -0.1967 -0.5358
  137OSM    C2S14802   0.118   2.396   3.259  0.7946 -0.2362  0.4211
  137OSM    H2S14803   0.118   2.290   3.223  0.9791 -0.5476  1.3104
  137OSM    C3S14804   0.260   2.421   3.327  0.3016 -0.1818 -0.0684
  137OSM    H3S14805   0.256   2.521   3.374 -0.4437 -1.1665  2.0560
  137OSM     O314806   0.384   2.404   3.248  0.1673 -0.0172  0.2113
  137OSM    HO314807   0.347   2.394   3.161 -2.4736 -0.6137  1.2964
  137OSM    C4S14808   0.268   2.317   3.436  0.5783  0.0608 -0.1000
  137OSM    H4S14809   0.253   2.215   3.399 -0.3620  0.3080 -0.4399
  137OSM    C5S14810   0.270   2.336   3.572  0.5502 -0.4884  0.7134
  137OSM    H5S14811   0.284   2.436   3.615 -0.9320 -0.1611  0.4941
  137OSM    C6S14812   0.252   2.217   3.667 -0.8616  0.1638 -0.4602
  137OSM    H6S14813   0.172   2.143   3.643  1.7334 -3.2359  0.5223
  137OSM    H6T14814   0.237   2.265   3.766  0.7734  2.3491 -1.1809
  137OSM    C7S14815   0.383   2.136   3.675 -0.1650  0.5509 -0.0346
  137OSM    H7S14816   0.468   2.207   3.684  0.1387  0.4429 -1.7212
  137OSM    H7T14817   0.399   2.085   3.578  1.3623  0.3074  0.3194
  137OSM    C8S14818   0.386   2.026   3.778  0.6233  0.4134  0.4120
  137OSM    H8S14819   0.477   1.968   3.753  2.4256  3.4990 -0.8694
  137OSM    H8T14820   0.302   1.959   3.749  2.3528 -1.2260 -0.9955
  137OSM    C9S14821   0.381   2.072   3.923 -0.2805  0.6567  0.1110
  137OSM    H9S14822   0.279   2.093   3.959 -0.2133 -0.0704  0.7505
  137OSM    H9T14823   0.453   2.156   3.936  1.2913 -0.8576  1.8031
  137OSM   C10S14824   0.420   1.951   4.018  0.3664  0.0146 -0.4572
  137OSM   H10S14825   0.524   1.928   3.986  0.4851 -0.5066  0.2847
  137OSM   H10T14826   0.349   1.868   3.999 -0.8569  0.1775  2.7649
  137OSM   C11S14827   0.426   1.988   4.169 -0.6678  0.3045  0.4842
  137OSM   H11S14828   0.326   2.030   4.195  0.3907  2.2646  1.5696
  137OSM   H11T14829   0.495   2.074   4.182 -0.0138 -0.3447  1.3319
  137OSM   C12S14830   0.466   1.877   4.260 -0.4063  0.1727 -0.1795
  137OSM   H12S14831   0.576   1.865   4.247 -0.4863  0.0909 -0.8172
  137OSM   H12T14832   0.413   1.783   4.235 -1.1075  0.0960  1.4934
  137OSM   C13S14833   0.407   1.906   4.407  0.3886 -0.3929 -0.2793
  137OSM   H13S14834   0.432   1.813   4.462 -0.8603 -0.2155  0.6407
  137OSM   H13T14835   0.296   1.914   4.405  0.4889  1.3676 -1.8772
  137OSM   C14S14836   0.474   2.028   4.476  0.6770  0.5380  0.3477
  137OSM   H14S14837   0.458   2.123   4.420 -1.4709 -1.5404 -2.9579
  137OSM   H14T14838   0.580   1.996   4.479  0.7215  0.4377 -1.3444
  137OSM   C15S14839   0.433   2.047   4.623 -0.0974 -0.2737 -0.4135
  137OSM   H15S14840   0.323   2.046   4.634  0.0227 -4.2879  3.0844
  137OSM   H15T14841   0.470   2.148   4.650  2.7520 -0.6093 -2.5566
  137OSM   C16S14842   0.488   1.940   4.720 -0.1215  0.4029  0.0195
  137OSM   H16S14843   0.597   1.929   4.700  0.3831  1.6963  1.8415
  137OSM   H16T14844   0.437   1.844   4.696  1.1937 -0.4034  0.3383
  137OSM   C17S14845   0.457   1.969   4.865  0.4351 -0.0907 -1.0084
  137OSM   H17S14846   0.347   1.977   4.877  0.1496 -0.2070 -3.0849
  137OSM   H17T14847   0.498   2.071   4.883 -0.0662  0.3086 -2.0650
  137OSM   C18S14848   0.529   1.881   4.965  0.3118 -0.1465  0.8031
  137OSM   H18S14849   0.508   1.919   5.067  0.7964  0.5821  0.6418
  137OSM   H18T14850   0.640   1.886   4.958  0.5904 -1.1288  3.3927
  137OSM   H18U14851   0.497   1.775   4.949  3.0356 -1.2255  1.9519
  137OSM    C1F14852  -0.125   2.373   3.298  0.1954 -0.3870 -0.1730
  137OSM     OF14853  -0.148   2.300   3.199 -0.0182 -0.0210 -0.3801
  137OSM    C2F14854  -0.243   2.428   3.381  0.3139  0.7695  0.2650
  137OSM    H2F14855  -0.267   2.521   3.325  1.1402  1.1880  0.5903
  137OSM    H2G14856  -0.208   2.444   3.485 -0.7071 -0.9367  0.9019
  137OSM    C3F14857  -0.370   2.339   3.364  0.2987 -0.3251  0.2415
  137OSM    H3F14858  -0.345   2.245   3.418 -0.2074 -1.8703 -2.0336
  137OSM    H3G14859  -0.382   2.305   3.258  1.2996 -1.6862  0.5327
  137OSM    C4F14860  -0.499   2.403   3.430 -0.4079  0.1320  0.0573
  137OSM    H4F14861  -0.584   2.335   3.407  0.5755 -1.2878  0.4153
  137OSM    H4G14862  -0.530   2.500   3.385 -1.3315 -0.6069 -0.9620
  137OSM    C5F14863  -0.487   2.413   3.588  0.0157 -0.0695  0.4067
  137OSM    H5F14864  -0.404   2.482   3.613 -0.3795  0.8279 -0.6555
  137OSM    H5G14865  -0.464   2.314   3.632  0.3596  0.1307  0.6752
  137OSM    C6F14866  -0.616   2.458   3.660 -0.3185 -0.3411  0.2873
  137OSM    H6F14867  -0.676   2.367   3.681 -0.4625 -0.0360  1.2562
  137OSM    H6G14868  -0.675   2.521   3.591  0.6322 -0.3936 -0.5996
  137OSM    C7F14869  -0.597   2.545   3.785 -0.4858  0.8482 -0.2737
  137OSM    H7F14870  -0.698   2.582   3.812 -1.5156 -1.8186 -0.1899
  137OSM    H7G14871  -0.524   2.624   3.755  4.7914 -2.4857  2.2570
  137OSM    C8F14872  -0.520   2.475   3.901 -0.3659  0.1718  0.2872
  137OSM    H8F14873  -0.456   2.551   3.950  3.1265 -2.3649 -0.0110
  137OSM    H8G14874  -0.455   2.400   3.851  0.0755  1.1430 -0.6235
  137OSM    C9F14875  -0.620   2.403   3.987 -0.4626  0.3031  0.0978
  137OSM    H9F14876  -0.698   2.355   3.927 -2.3849 -0.2831  2.8722
  137OSM   C10F14877  -0.609   2.376   4.120 -0.2302 -0.2109 -0.0338
  137OSM   H10F14878  -0.692   2.323   4.170 -1.6586  2.6387  0.8579
  137OSM   C11F14879  -0.499   2.430   4.207 -0.2989 -0.5577 -0.9161
  137OSM   H11F14880  -0.543   2.520   4.256 -1.8722 -1.8977  0.2370
  137OSM   H11G14881  -0.418   2.465   4.140 -1.2358  1.3709 -1.1113
  137OSM   C12F14882  -0.456   2.316   4.307 -0.7328  1.0811 -0.2649
  137OSM   H12F14883  -0.346   2.321   4.325 -0.6290  0.3325 -0.6591
  137OSM   H12G14884  -0.458   2.216   4.259 -0.7300  1.5951 -1.3587
  137OSM   C13F14885  -0.516   2.320   4.445 -0.3586  0.3613 -0.5089
  137OSM   H13F14886  -0.620   2.282   4.447 -0.0260 -0.6311 -1.1805
  137OSM   H13G14887  -0.514   2.427   4.472 -0.4296 -0.0176  1.1212
  137OSM   C14F14888  -0.431   2.236   4.552  0.7893  0.3047 -0.3567
  137OSM   H14F14889  -0.325   2.264   4.537  0.3020  1.6168 -1.6668
  137OSM   H14G14890  -0.457   2.131   4.528 -2.1718  0.4793  1.5454
  137OSM   C15F14891  -0.486   2.240   4.696  0.1439 -1.0481  0.1250
  137OSM   H15F14892  -0.502   2.346   4.725 -0.0637 -1.0069 -0.1355
  137OSM   H15G14893  -0.407   2.195   4.759  0.3853 -3.4725 -1.7697
  137OSM   C16F14894  -0.623   2.182   4.729 -0.2941  0.5884  0.0294
  137OSM   H16F14895  -0.613   2.072   4.720 -0.4931  0.6678 -1.3577
  137OSM   H16G14896  -0.693   2.217   4.650  0.0048 -1.8512 -1.4322
  137OSM   C17F14897  -0.665   2.210   4.879 -0.3307 -0.3000  0.7867
  137OSM   H17F14898  -0.760   2.155   4.898 -0.5758 -0.1734 -0.0484
  137OSM   H17G14899  -0.670   2.318   4.902 -0.2011 -0.4581  1.6120
  137OSM   C18F14900  -0.562   2.174   4.991 -0.8445  0.1760 -0.4391
  137OSM   H18F14901  -0.606   2.187   5.093  2.1024 -0.5019  1.0357
  137OSM   H18G14902  -0.468   2.232   4.993 -0.2281 -0.7904  1.2149
  137OSM   H18H14903  -0.535   2.066   4.988 -1.8076 -0.1904  1.7272
  138OSM      N14904   5.705   4.019   2.282  0.2425 -0.6434 -0.5774
  138OSM    C1514905   5.846   3.974   2.278 -0.0254  0.7701 -0.0313
  138OSM   H15A14906   5.906   4.000   2.193  0.3037 -0.2978 -0.1409
  138OSM   H15B14907   5.861   3.868   2.288 -0.7430  0.6814  0.1532
  138OSM   H15C14908   5.903   4.019   2.357  2.4704  1.2632 -2.0022
  138OSM    C1414909   5.708   4.159   2.245  0.4773 -0.5204 -0.0755
  138OSM   H14A14910   5.755   4.168   2.148 -1.8207 -0.6129 -1.2687
  138OSM   H14B14911   5.767   4.223   2.309  0.9681  2.1430 -2.8975
  138OSM   H14C14912   5.615   4.211   2.227  0.4109 -0.8925 -0.8660
  138OSM    C1314913   5.642   3.940   2.171  0.0074  0.3722  0.0051
  138OSM   H13A14914   5.674   3.838   2.186 -1.5101 -0.2155 -0.5493
  138OSM   H13B14915   5.687   3.962   2.075  0.3380  1.3263  0.3644
  138OSM   H13C14916   5.534   3.939   2.169  0.0005  0.4969  0.2504
  138OSM    C1214917   5.640   3.991   2.421 -0.2717 -0.2195 -0.0730
  138OSM   H12A14918   5.648   3.884   2.428  1.0121 -0.0636  1.0619
  138OSM   H12B14919   5.533   4.006   2.411 -0.3781  0.1266  1.3754
  138OSM    C1114920   5.707   4.056   2.554  0.0893  0.7186  0.1846
  138OSM   H11A14921   5.647   4.034   2.644 -1.8569  0.2961 -1.1488
  138OSM   H11B14922   5.711   4.162   2.520 -0.3304  0.1252 -1.9045
  138OSM      P14923   5.866   3.858   2.616  0.1680  0.2985  0.2428
  138OSM    O1314924   5.771   3.773   2.547  0.8072 -0.6105 -0.1075
  138OSM    O1414925   6.009   3.819   2.613  0.0713 -0.2850  0.0122
  138OSM    O1114926   5.811   3.865   2.760  0.0714 -0.4466  0.1275
  138OSM    O1214927   5.845   4.007   2.565  0.4937  0.0344  0.4228
  138OSM    C1S14928   5.848   3.965   2.854 -0.1059  0.2444 -0.5676
  138OSM    H1S14929   5.838   4.068   2.814 -0.1650  1.0016  1.2739
  138OSM    H1T14930   5.953   3.948   2.886 -0.6899  0.8797  1.9878
  138OSM     NF14931   5.798   4.076   3.070  0.8111  0.2109 -0.1823
  138OSM    HNF14932   5.870   4.052   3.134  0.1419 -2.7832 -0.4068
  138OSM    C2S14933   5.755   3.970   2.978  0.4887 -0.2430 -0.0610
  138OSM    H2S14934   5.650   3.989   2.949  0.0401  1.8250  2.5423
  138OSM    C3S14935   5.758   3.839   3.050 -0.6967 -0.1017  0.0357
  138OSM    H3S14936   5.855   3.836   3.105 -0.6060  1.0307 -0.0541
  138OSM     O314937   5.772   3.718   2.968  0.1747 -0.4418 -0.0263
  138OSM    HO314938   5.777   3.766   2.885 -1.5439 -0.5425 -0.2213
  138OSM    C4S14939   5.650   3.823   3.157 -0.8495  0.7716  0.4593
  138OSM    H4S14940   5.683   3.844   3.260  0.4040 -1.4288  0.5698
  138OSM    C5S14941   5.518   3.797   3.141  0.4469  0.0554  0.0726
  138OSM    H5S14942   5.487   3.781   3.036 -0.0092 -2.4055  0.5219
  138OSM    C6S14943   5.409   3.785   3.249  0.8462  0.6273 -0.1295
  138OSM    H6S14944   5.357   3.691   3.220 -1.7006  1.1079  2.4314
  138OSM    H6T14945   5.328   3.861   3.257  0.2784  0.1627 -1.2556
  138OSM    C7S14946   5.464   3.783   3.396 -0.5455  0.0963  0.1661
  138OSM    H7S14947   5.504   3.878   3.439  1.4419  0.1612 -1.6666
  138OSM    H7T14948   5.537   3.700   3.400 -2.0976 -1.4610 -1.8986
  138OSM    C8S14949   5.357   3.734   3.494 -0.3767  0.6273  0.0594
  138OSM    H8S14950   5.302   3.643   3.461 -0.8734  1.3610 -1.2076
  138OSM    H8T14951   5.274   3.808   3.493  0.8948  2.0824 -0.3628
  138OSM    C9S14952   5.420   3.712   3.629  0.0754  0.0492 -0.1562
  138OSM    H9S14953   5.489   3.797   3.642 -0.1178  0.7700 -3.1402
  138OSM    H9T14954   5.475   3.615   3.628 -0.2535 -0.1370 -0.5569
  138OSM   C10S14955   5.311   3.704   3.735  0.0499  0.2540  0.4153
  138OSM   H10S14956   5.244   3.616   3.723 -0.9320  1.1679 -1.0589
  138OSM   H10T14957   5.239   3.787   3.723  0.3256  0.1860 -2.2999
  138OSM   C11S14958   5.376   3.703   3.876  0.0193 -0.0945  0.3631
  138OSM   H11S14959   5.399   3.809   3.901 -2.5388  0.3978  0.8821
  138OSM   H11T14960   5.475   3.653   3.885  0.5518  0.5662 -1.3671
  138OSM   C12S14961   5.271   3.658   3.984 -0.3144 -0.0984  0.8284
  138OSM   H12S14962   5.257   3.550   3.964 -3.3645  0.5029 -0.8212
  138OSM   H12T14963   5.179   3.716   3.962 -0.1378 -0.6619 -1.7334
  138OSM   C13S14964   5.322   3.662   4.126 -0.6122 -0.1060  0.2700
  138OSM   H13S14965   5.331   3.767   4.161  2.6662 -0.5599  1.2092
  138OSM   H13T14966   5.427   3.625   4.126 -0.6111 -0.1620 -1.4408
  138OSM   C14S14967   5.235   3.571   4.216 -0.1226 -0.1971 -0.6321
  138OSM   H14S14968   5.232   3.471   4.167  4.2182 -0.8775  0.1106
  138OSM   H14T14969   5.130   3.608   4.220  1.2032  3.8006  1.2410
  138OSM   C15S14970   5.284   3.550   4.360  0.1479 -0.1912 -0.1288
  138OSM   H15S14971   5.263   3.644   4.416  0.3500 -0.8410  1.0829
  138OSM   H15T14972   5.393   3.530   4.357 -0.0499 -1.2952 -0.5621
  138OSM   C16S14973   5.219   3.436   4.430  0.1313  0.9683 -0.1059
  138OSM   H16S14974   5.220   3.346   4.366 -0.5002  2.5603 -2.4624
  138OSM   H16T14975   5.114   3.457   4.461 -1.1362 -0.4851 -3.0591
  138OSM   C17S14976   5.299   3.391   4.555  0.1992 -0.1867  0.5036
  138OSM   H17S14977   5.333   3.480   4.613  0.3195  1.6688 -2.1920
  138OSM   H17T14978   5.383   3.324   4.527  0.0963 -0.2598  0.3662
  138OSM   C18S14979   5.214   3.303   4.647 -0.0508 -0.6635 -0.4273
  138OSM   H18S14980   5.140   3.368   4.697 -1.0377 -1.4580 -0.8223
  138OSM   H18T14981   5.284   3.265   4.724  1.5510 -0.9033 -1.9118
  138OSM   H18U14982   5.162   3.213   4.607 -2.0134  0.0264  0.4688
  138OSM    C1F14983   5.743   4.196   3.063 -0.3242 -0.5451 -0.4035
  138OSM     OF14984   5.646   4.215   2.995  1.3547 -0.0503  0.5177
  138OSM    C2F14985   5.812   4.308   3.144  0.4226 -0.5043  0.7685
  138OSM    H2F14986   5.890   4.356   3.081  0.4625  1.0841  1.9746
  138OSM    H2G14987   5.848   4.261   3.238  1.9919 -0.5663  0.1694
  138OSM    C3F14988   5.716   4.419   3.170 -0.1877  0.4831 -0.9354
  138OSM    H3F14989   5.669   4.469   3.083 -1.6058  0.2139 -0.3603
  138OSM    H3G14990   5.774   4.500   3.219  0.2286 -1.6027  2.3377
  138OSM    C4F14991   5.602   4.380   3.269 -0.3742  0.3472  0.2351
  138OSM    H4F14992   5.541   4.294   3.236  0.1222 -0.0641  0.3749
  138OSM    H4G14993   5.538   4.468   3.289 -2.6370 -1.3383  0.8267
  138OSM    C5F14994   5.658   4.345   3.410 -0.6315 -0.3324  0.3264
  138OSM    H5F14995   5.726   4.424   3.447  0.3337 -1.9067  2.0280
  138OSM    H5G14996   5.726   4.257   3.412 -0.2179  0.0004  0.9198
  138OSM    C6F14997   5.555   4.314   3.513 -0.1881  0.2573  0.2449
  138OSM    H6F14998   5.499   4.408   3.534  2.4570  1.7583  1.0145
  138OSM    H6G14999   5.616   4.282   3.600  1.6590  1.0711 -0.6968
  138OSM    C7F15000   5.464   4.199   3.470 -0.2271  0.3899 -0.1105
  138OSM    H7F15001   5.525   4.120   3.423 -0.5587 -0.1799  0.3912
  138OSM    H7G15002   5.407   4.234   3.381 -1.7288 -0.4627  0.4742
  138OSM    C8F15003   5.373   4.146   3.580  0.4315 -1.1245 -0.4391
  138OSM    H8F15004   5.417   4.066   3.643 -0.7389 -0.5662  1.1433
  138OSM    H8G15005   5.286   4.103   3.525  0.0418  1.2394 -1.7859
  138OSM    C9F15006   5.309   4.261   3.656 -0.8566 -0.0424  0.1877
  138OSM    H9F15007   5.255   4.331   3.589  2.1183  1.8482 -0.4453
  138OSM   C10F15008   5.303   4.268   3.785  0.2071  0.7416 -0.0753
  138OSM   H10F15009   5.256   4.359   3.827 -2.7894 -0.7432  0.0297
  138OSM   C11F15010   5.356   4.170   3.887 -0.2211 -0.8984 -0.4651
  138OSM   H11F15011   5.348   4.063   3.859  0.8555 -1.5476  1.4823
  138OSM   H11G15012   5.284   4.173   3.972 -1.4247 -2.4272 -1.3838
  138OSM   C12F15013   5.501   4.206   3.932  1.0400 -0.3150  0.2194
  138OSM   H12F15014   5.505   4.310   3.971  1.1704  0.0528 -0.7418
  138OSM   H12G15015   5.550   4.183   3.835 -2.4532 -0.1931 -1.7611
  138OSM   C13F15016   5.554   4.117   4.039 -0.9887  0.6206 -0.0234
  138OSM   H13F15017   5.665   4.120   4.037 -0.7938 -2.2483  1.1397
  138OSM   H13G15018   5.528   4.014   4.005 -2.8653  0.5897  1.3717
  138OSM   C14F15019   5.513   4.145   4.182 -0.7030  0.1600 -0.2576
  138OSM   H14F15020   5.416   4.199   4.174 -0.8223 -0.1644 -1.1969
  138OSM   H14G15021   5.589   4.209   4.232 -1.7010  2.2634 -1.2898
  138OSM   C15F15022   5.507   4.017   4.271 -0.0446  0.2276  0.6384
  138OSM   H15F15023   5.597   3.954   4.256 -1.9461 -2.0857 -2.2265
  138OSM   H15G15024   5.424   3.949   4.243  0.6515 -1.9406  3.3480
  138OSM   C16F15025   5.475   4.036   4.422  0.2127 -0.0423  0.9325
  138OSM   H16F15026   5.443   3.943   4.473  2.2983  0.1664  2.7710
  138OSM   H16G15027   5.385   4.100   4.429  0.1474 -0.1665  1.2479
  138OSM   C17F15028   5.574   4.113   4.503 -0.0429  0.4725  0.1689
  138OSM   H17F15029   5.574   4.220   4.476 -1.8451  0.1654 -1.2395
  138OSM   H17G15030   5.675   4.078   4.474 -1.3666 -2.3202 -1.5448
  138OSM   C18F15031   5.552   4.104   4.653  0.2068  0.1154 -0.5338
  138OSM   H18F15032   5.457   4.153   4.684  0.4307  0.0780  0.2393
  138OSM   H18G15033   5.636   4.148   4.710 -1.5326  2.5351  0.3364
  138OSM   H18H15034   5.530   4.001   4.689  0.7368 -0.1025 -0.8214
  139OSM      N15035   6.549   1.554   2.699  0.5602 -0.3107  0.4954
  139OSM    C1515036   6.465   1.437   2.676 -0.3226  0.7814 -0.0880
  139OSM   H15A15037   6.368   1.440   2.724 -1.5191  1.6170 -2.4008
  139OSM   H15B15038   6.517   1.352   2.717  0.8098  0.0886 -2.7332
  139OSM   H15C15039   6.475   1.416   2.571  0.3362 -0.7128  0.2419
  139OSM    C1415040   6.484   1.671   2.626 -0.0833  0.2218  0.6681
  139OSM   H14A15041   6.474   1.642   2.522 -0.1517 -1.4236  1.1066
  139OSM   H14B15042   6.541   1.761   2.644  1.9308 -0.7318 -0.5276
  139OSM   H14C15043   6.383   1.676   2.665 -0.7705 -0.4308 -0.9139
  139OSM    C1315044   6.551   1.588   2.847 -0.1757  0.0780 -0.0975
  139OSM   H13A15045   6.619   1.671   2.861 -1.2342  1.0650 -0.5893
  139OSM   H13B15046   6.560   1.496   2.903 -1.0122 -1.1443 -1.8605
  139OSM   H13C15047   6.455   1.634   2.865 -0.9152 -1.0364 -1.0281
  139OSM    C1215048   6.693   1.528   2.652 -0.4369  0.2624  0.3681
  139OSM   H12A15049   6.755   1.610   2.685 -2.5989  2.9420 -1.7119
  139OSM   H12B15050   6.697   1.527   2.544 -0.3406  1.4105  0.3494
  139OSM    C1115051   6.757   1.392   2.691 -0.1109  0.4076  0.3651
  139OSM   H11A15052   6.853   1.379   2.636  0.5253  0.5237  1.4215
  139OSM   H11B15053   6.695   1.309   2.652 -1.1642  1.6957 -0.8091
  139OSM      P15054   6.894   1.446   2.922 -0.1550 -0.2003 -0.0115
  139OSM    O1315055   7.005   1.356   2.954 -0.0583 -0.6569 -0.3334
  139OSM    O1415056   6.928   1.579   2.865 -0.3463 -0.3366 -0.4016
  139OSM    O1115057   6.813   1.478   3.044  0.0845  0.7587 -0.2287
  139OSM    O1215058   6.785   1.376   2.834 -0.2174  0.3371 -0.2792
  139OSM    C1S15059   6.708   1.389   3.090  0.3947  0.2056 -0.5168
  139OSM    H1S15060   6.725   1.283   3.062  0.4114  0.1941 -0.4643
  139OSM    H1T15061   6.617   1.414   3.032  0.6375 -0.5439 -1.2418
  139OSM     NF15062   6.607   1.278   3.286  0.5695  0.5079  0.0454
  139OSM    HNF15063   6.511   1.301   3.298 -0.1549 -2.1007 -0.2055
  139OSM    C2S15064   6.695   1.387   3.245 -0.8876  0.0714 -0.4924
  139OSM    H2S15065   6.796   1.377   3.289 -1.4972 -0.4288  0.8561
  139OSM    C3S15066   6.648   1.530   3.289 -0.0724 -0.3523  0.4589
  139OSM    H3S15067   6.561   1.564   3.229 -0.2555  0.2866  1.0866
  139OSM     O315068   6.744   1.636   3.258  0.1948  0.1229 -0.1902
  139OSM    HO315069   6.796   1.617   3.180  1.6884 -0.9897  1.0157
  139OSM    C4S15070   6.621   1.541   3.437 -0.1668  0.3502  0.8058
  139OSM    H4S15071   6.709   1.537   3.503  0.6327 -1.7530 -0.3223
  139OSM    C5S15072   6.495   1.553   3.487 -0.0913 -0.0605  0.4529
  139OSM    H5S15073   6.413   1.556   3.414  0.8416 -0.3392 -0.6246
  139OSM    C6S15074   6.463   1.554   3.634  0.1120  0.2124  0.0362
  139OSM    H6S15075   6.400   1.465   3.656 -1.0800  0.8441 -0.7217
  139OSM    H6T15076   6.393   1.640   3.645  0.8115  0.8737 -0.5832
  139OSM    C7S15077   6.584   1.580   3.727 -0.2642  0.0428 -0.7926
  139OSM    H7S15078   6.618   1.683   3.705  1.8029 -0.6352 -1.0242
  139OSM    H7T15079   6.673   1.516   3.709 -0.9335 -0.8861 -0.8539
  139OSM    C8S15080   6.562   1.564   3.880 -0.3694  0.4824  0.2190
  139OSM    H8S15081   6.538   1.457   3.896  0.4728  0.3167  0.4518
  139OSM    H8T15082   6.481   1.620   3.931 -0.2296 -0.4629  1.5293
  139OSM    C9S15083   6.700   1.592   3.957 -0.2725  0.1152  0.3897
  139OSM    H9S15084   6.699   1.701   3.978  0.9832  0.3266 -0.5665
  139OSM    H9T15085   6.798   1.567   3.912 -0.0341  1.6093 -0.0034
  139OSM   C10S15086   6.697   1.528   4.100  0.3368 -0.0274  0.4348
  139OSM   H10S15087   6.693   1.419   4.081 -1.0811  0.3727 -2.0739
  139OSM   H10T15088   6.606   1.562   4.154  0.7116 -0.6981  1.5109
  139OSM   C11S15089   6.819   1.569   4.186 -0.5916  0.1997 -0.2784
  139OSM   H11S15090   6.798   1.673   4.219  1.1449 -0.0325  1.7905
  139OSM   H11T15091   6.908   1.570   4.121 -0.6058 -1.3828 -0.3657
  139OSM   C12S15092   6.842   1.511   4.328  0.3426  0.0291  0.3475
  139OSM   H12S15093   6.883   1.409   4.319  1.0381  0.3444 -0.1426
  139OSM   H12T15094   6.746   1.506   4.384  0.8161  1.0472  1.3085
  139OSM   C13S15095   6.937   1.601   4.410 -0.5828 -0.3911  0.2681
  139OSM   H13S15096   6.905   1.707   4.404 -2.0730 -0.7688  0.9121
  139OSM   H13T15097   7.035   1.581   4.363  0.7688 -3.1229  3.7743
  139OSM   C14S15098   6.941   1.559   4.553 -0.2490  0.1321 -0.8401
  139OSM   H14S15099   6.961   1.450   4.562  0.2140  0.3240  0.7026
  139OSM   H14T15100   6.841   1.581   4.596 -0.6646  1.1457 -2.2309
  139OSM   C15S15101   7.036   1.645   4.633 -0.1928 -0.0866 -0.1209
  139OSM   H15S15102   7.002   1.750   4.622  1.6149  0.6359  0.6883
  139OSM   H15T15103   7.137   1.628   4.590  0.4751 -0.8654  1.6500
  139OSM   C16S15104   7.057   1.606   4.781 -0.0873  0.2106  0.0791
  139OSM   H16S15105   6.960   1.577   4.827  0.9573 -0.5840  1.9158
  139OSM   H16T15106   7.094   1.701   4.826  0.1100  0.4710 -0.6168
  139OSM   C17S15107   7.157   1.498   4.823 -0.1166 -0.2921  0.0314
  139OSM   H17S15108   7.253   1.514   4.770 -0.4291 -2.0926 -1.1614
  139OSM   H17T15109   7.125   1.397   4.789  0.1218 -0.7636  1.1457
  139OSM   C18S15110   7.177   1.488   4.974  0.2781  0.4800 -0.5663
  139OSM   H18S15111   7.243   1.409   5.017 -1.3227 -0.2302  0.7053
  139OSM   H18T15112   7.084   1.454   5.024  0.1823 -0.5445 -1.3966
  139OSM   H18U15113   7.221   1.584   5.009 -0.8645  0.1024  2.1557
  139OSM    C1F15114   6.639   1.144   3.282 -0.4131 -0.3230  0.4498
  139OSM     OF15115   6.757   1.104   3.259 -0.0674 -0.7941 -0.1205
  139OSM    C2F15116   6.516   1.056   3.303  0.2208 -0.0143 -0.1373
  139OSM    H2F15117   6.523   0.973   3.229  1.7640  0.2417 -0.3215
  139OSM    H2G15118   6.427   1.119   3.284  0.2301  0.1057  0.2055
  139OSM    C3F15119   6.501   1.000   3.445  0.3925  0.2766  0.5727
  139OSM    H3F15120   6.592   0.951   3.486  0.2600 -1.0605 -0.6608
  139OSM    H3G15121   6.428   0.917   3.438  0.7129 -0.2537  2.7912
  139OSM    C4F15122   6.441   1.092   3.554  0.8877  0.3996  0.5002
  139OSM    H4F15123   6.350   1.136   3.507  1.3441  0.8742  0.0359
  139OSM    H4G15124   6.505   1.182   3.569 -0.4050  1.0146  2.6068
  139OSM    C5F15125   6.431   1.027   3.690  0.5239 -0.2008  0.3489
  139OSM    H5F15126   6.534   1.029   3.733  0.6081  0.6732  0.1355
  139OSM    H5G15127   6.400   0.922   3.672 -0.1124 -0.0309  0.4108
  139OSM    C6F15128   6.323   1.093   3.783 -0.5109 -0.1837 -0.6026
  139OSM    H6F15129   6.223   1.106   3.735  0.3747  3.9507 -1.6529
  139OSM    H6G15130   6.360   1.197   3.789  0.0767 -0.3545 -1.1822
  139OSM    C7F15131   6.310   1.025   3.925 -0.8979  0.4167  0.8342
  139OSM    H7F15132   6.414   1.001   3.957 -0.1472  0.0809 -1.5976
  139OSM    H7G15133   6.256   0.929   3.910 -3.2424  1.8591 -0.6228
  139OSM    C8F15134   6.234   1.122   4.011 -0.4132  0.8405  0.0277
  139OSM    H8F15135   6.148   1.161   3.952 -1.3869  0.8808  1.4153
  139OSM    H8G15136   6.292   1.215   4.028  3.5091 -1.6047  1.4288
  139OSM    C9F15137   6.187   1.059   4.143  0.4167  0.0689 -0.4478
  139OSM    H9F15138   6.108   0.985   4.123  0.1098  0.0300  0.8369
  139OSM   C10F15139   6.218   1.085   4.271 -0.0642  0.1115 -0.1070
  139OSM   H10F15140   6.173   1.030   4.355  0.5060 -1.6343 -0.9038
  139OSM   C11F15141   6.314   1.192   4.308 -0.5406 -0.4486 -1.0027
  139OSM   H11F15142   6.257   1.284   4.328  1.7993  0.6318  1.2282
  139OSM   H11G15143   6.378   1.215   4.219  1.7542 -1.1928  0.3668
  139OSM   C12F15144   6.393   1.169   4.440  0.5321  0.1932 -0.4037
  139OSM   H12F15145   6.460   1.081   4.434  0.1847 -0.4248  2.9585
  139OSM   H12G15146   6.331   1.154   4.530  1.5721  1.0464  0.4804
  139OSM   C13F15147   6.471   1.293   4.472 -0.2173  0.4734 -0.0246
  139OSM   H13F15148   6.403   1.381   4.470 -0.6621  0.1572  0.7313
  139OSM   H13G15149   6.550   1.283   4.395 -0.6484 -0.9942 -0.3047
  139OSM   C14F15150   6.536   1.289   4.610 -0.3152  0.0149  0.3687
  139OSM   H14F15151   6.601   1.202   4.635  0.5756  0.9170  1.2891
  139OSM   H14G15152   6.456   1.294   4.686 -1.0664 -0.8358 -0.3439
  139OSM   C15F15153   6.625   1.412   4.630  0.4409  0.2181  0.1153
  139OSM   H15F15154   6.568   1.496   4.585 -1.7504 -1.9462 -1.3638
  139OSM   H15G15155   6.713   1.409   4.561  0.0132 -0.9562 -0.3938
  139OSM   C16F15156   6.660   1.441   4.780 -0.2504  0.7522  0.0490
  139OSM   H16F15157   6.568   1.456   4.840 -0.7552  0.4858 -0.6507
  139OSM   H16G15158   6.732   1.526   4.785  0.4873  0.0991  0.8490
  139OSM   C17F15159   6.734   1.328   4.843 -0.0898 -0.1565 -1.3570
  139OSM   H17F15160   6.822   1.289   4.788 -0.0955 -1.5133 -0.4495
  139OSM   H17G15161   6.663   1.242   4.847  0.2506 -0.4147  0.7880
  139OSM   C18F15162   6.779   1.363   4.987  0.2650  0.0271  0.0855
  139OSM   H18F15163   6.855   1.443   4.976  1.0889 -0.7628 -0.0646
  139OSM   H18G15164   6.843   1.284   5.032 -0.1412  0.1583  0.9056
  139OSM   H18H15165   6.693   1.392   5.051  0.5527 -0.4727  0.7143
  140OSM      N15166   5.969   4.703   2.691 -0.1731  0.7380 -0.0762
  140OSM    C1515167   5.990   4.825   2.602  0.0844  0.8725 -0.1510
  140OSM   H15A15168   5.943   4.804   2.507 -1.7310 -0.4817  1.0004
  140OSM   H15B15169   6.096   4.843   2.585 -0.3087  1.4693 -2.2768
  140OSM   H15C15170   5.944   4.906   2.656  2.5885  0.0192  3.7170
  140OSM    C1415171   5.819   4.679   2.688 -0.7939 -1.1347  0.4039
  140OSM   H14A15172   5.771   4.762   2.737  1.4174 -1.0586  2.6842
  140OSM   H14B15173   5.798   4.587   2.741  0.6607 -2.1663 -0.7255
  140OSM   H14C15174   5.784   4.666   2.586 -3.0531 -0.5163  1.0442
  140OSM    C1315175   6.042   4.589   2.612  0.2976 -0.1705 -0.0311
  140OSM   H13A15176   6.033   4.493   2.659  2.6768 -1.5856 -2.1875
  140OSM   H13B15177   6.148   4.613   2.613  0.8210 -2.0963  2.9218
  140OSM   H13C15178   6.004   4.585   2.511 -0.3919 -0.2346  0.2269
  140OSM    C1215179   6.015   4.729   2.837 -0.0779 -0.7141 -0.0879
  140OSM   H12A15180   5.979   4.822   2.881  1.5901  0.6375 -1.4379
  140OSM   H12B15181   6.121   4.741   2.819 -0.4311 -0.1011 -2.0073
  140OSM    C1115182   5.999   4.611   2.935  0.7782 -0.0434 -0.4821
  140OSM   H11A15183   5.892   4.583   2.938  0.5690  0.7902  0.1712
  140OSM   H11B15184   6.021   4.659   3.033  1.1148  1.5052 -1.2893
  140OSM      P15185   6.236   4.488   2.961 -0.0481  0.2918 -0.2216
  140OSM    O1315186   6.262   4.350   3.003 -0.1945  0.0270  0.0876
  140OSM    O1415187   6.322   4.542   2.853 -0.4921  0.0892 -0.5172
  140OSM    O1115188   6.254   4.581   3.085 -0.4323 -0.5630 -0.0002
  140OSM    O1215189   6.083   4.497   2.908 -0.1257 -0.1104  0.8027
  140OSM    C1S15190   6.192   4.564   3.210 -0.6199  0.4152  0.4348
  140OSM    H1S15191   6.127   4.474   3.212  2.0369 -1.6330  0.4174
  140OSM    H1T15192   6.119   4.646   3.226 -1.2573 -0.3625  1.6682
  140OSM     NF15193   6.236   4.510   3.453 -0.5223  0.2590 -0.2181
  140OSM    HNF15194   6.206   4.583   3.515 -1.5643 -0.6654  0.4299
  140OSM    C2S15195   6.295   4.542   3.324 -0.3568 -0.1262  0.1949
  140OSM    H2S15196   6.362   4.458   3.296 -0.5199 -0.9807  2.2236
  140OSM    C3S15197   6.391   4.672   3.340  0.1797  0.3030  0.3203
  140OSM    H3S15198   6.334   4.768   3.347  1.7328  1.2913 -0.0195
  140OSM     O315199   6.466   4.693   3.220  0.5040 -1.1264 -0.4717
  140OSM    HO315200   6.404   4.677   3.148  0.5206  1.5958 -1.1878
  140OSM    C4S15201   6.487   4.666   3.457  0.1163  0.3956 -0.6867
  140OSM    H4S15202   6.448   4.709   3.550 -0.7857  1.1301 -1.3834
  140OSM    C5S15203   6.618   4.627   3.463  0.3140 -0.1979  0.5528
  140OSM    H5S15204   6.669   4.588   3.374  0.6131  1.3614  0.0108
  140OSM    C6S15205   6.697   4.631   3.594 -0.0269 -0.2382  0.3429
  140OSM    H6S15206   6.797   4.670   3.567 -0.6709  1.8401  0.7811
  140OSM    H6T15207   6.721   4.529   3.631 -0.2498 -0.9546 -1.4028
  140OSM    C7S15208   6.639   4.709   3.719 -0.2025  0.1925  0.6127
  140OSM    H7S15209   6.542   4.658   3.738  0.1940 -0.8314 -0.0142
  140OSM    H7T15210   6.627   4.818   3.700 -0.0496  0.5812  2.4816
  140OSM    C8S15211   6.719   4.701   3.854 -1.2840 -0.3271 -0.6819
  140OSM    H8S15212   6.827   4.691   3.829 -0.4189  3.8076  0.6574
  140OSM    H8T15213   6.682   4.609   3.904 -2.2881  0.0218 -0.7717
  140OSM    C9S15214   6.700   4.831   3.943  0.1506  0.3863  0.1523
  140OSM    H9S15215   6.595   4.868   3.939 -0.0100 -0.0601  0.1778
  140OSM    H9T15216   6.754   4.915   3.895  1.0740 -0.3359 -0.0952
  140OSM   C10S15217   6.739   4.809   4.086  0.5001  0.6164 -0.4552
  140OSM   H10S15218   6.850   4.806   4.090  0.5586 -2.7438 -1.3204
  140OSM   H10T15219   6.715   4.706   4.121  2.1446  0.7268  1.1335
  140OSM   C11S15220   6.683   4.908   4.190  0.3609  0.8950  0.2658
  140OSM   H11S15221   6.572   4.903   4.192  0.4042 -1.6095  0.4783
  140OSM   H11T15222   6.705   5.013   4.164  0.9148  1.2711  2.1149
  140OSM   C12S15223   6.716   4.890   4.335  0.3105 -0.3837  0.2535
  140OSM   H12S15224   6.821   4.861   4.358  0.2370 -0.3569  0.6375
  140OSM   H12T15225   6.658   4.799   4.363 -1.8448  0.4920 -1.1273
  140OSM   C13S15226   6.696   5.004   4.426  0.1626 -0.4656  0.1047
  140OSM   H13S15227   6.593   5.042   4.410  0.2059 -0.4974 -0.2588
  140OSM   H13T15228   6.768   5.085   4.403  1.7970 -1.3666  1.7189
  140OSM   C14S15229   6.734   4.968   4.575  0.6170 -0.4078  0.2535
  140OSM   H14S15230   6.845   4.963   4.580  0.7266 -4.6078 -1.4719
  140OSM   H14T15231   6.688   4.872   4.607 -1.7348  0.6052  0.1297
  140OSM   C15S15232   6.667   5.072   4.676 -0.1961 -1.0652  0.2206
  140OSM   H15S15233   6.557   5.082   4.661 -0.2592 -0.5381  0.9603
  140OSM   H15T15234   6.720   5.169   4.668  1.1037 -1.5209  2.4497
  140OSM   C16S15235   6.694   5.013   4.820  0.5850  0.2490  0.0142
  140OSM   H16S15236   6.798   4.975   4.818  0.8417  0.8794  0.8193
  140OSM   H16T15237   6.626   4.925   4.819 -2.2686  2.2802 -3.0259
  140OSM   C17S15238   6.674   5.115   4.936 -0.3228  0.2077  0.0501
  140OSM   H17S15239   6.577   5.169   4.925 -2.1368 -2.8994 -0.4325
  140OSM   H17T15240   6.758   5.186   4.923 -0.8662  1.1274  1.3682
  140OSM   C18S15241   6.683   5.071   5.085  0.2761  0.1955  0.8140
  140OSM   H18S15242   6.770   5.005   5.103 -1.0927 -1.9356  0.0976
  140OSM   H18T15243   6.587   5.020   5.111 -1.0589  3.0507  1.9560
  140OSM   H18U15244   6.688   5.167   5.141 -2.6733  0.2867  1.0770
  140OSM    C1F15245   6.170   4.392   3.464 -0.3717  0.4334 -0.5227
  140OSM     OF15246   6.168   4.306   3.373  0.0068  0.1089 -0.0552
  140OSM    C2F15247   6.090   4.374   3.593 -0.4037 -0.1990  0.2250
  140OSM    H2F15248   6.032   4.467   3.605  0.3596  0.0039  2.9268
  140OSM    H2G15249   6.167   4.367   3.673  1.3428 -1.0079 -1.4187
  140OSM    C3F15250   6.002   4.253   3.569  0.6593  0.1556 -0.9457
  140OSM    H3F15251   6.069   4.165   3.569 -0.5785 -0.8724  1.3144
  140OSM    H3G15252   5.939   4.240   3.479 -1.3095 -1.1773  0.5302
  140OSM    C4F15253   5.908   4.224   3.690  0.2069  0.1435 -0.4652
  140OSM    H4F15254   5.875   4.119   3.674  1.0725 -0.0830 -0.8655
  140OSM    H4G15255   5.818   4.287   3.675  1.0879  2.4789  2.9872
  140OSM    C5F15256   5.953   4.229   3.835  0.0635 -0.2643 -0.0087
  140OSM    H5F15257   5.872   4.180   3.894 -0.2709 -0.2143 -0.4235
  140OSM    H5G15258   5.956   4.336   3.865  0.1217 -0.1303 -0.4919
  140OSM    C6F15259   6.080   4.163   3.884 -0.0197  0.2397  0.2414
  140OSM    H6F15260   6.165   4.230   3.857 -1.5699  2.2339  0.1420
  140OSM    H6G15261   6.094   4.063   3.836 -0.7600 -0.0196  0.5547
  140OSM    C7F15262   6.078   4.138   4.032 -0.5545 -0.1910  0.1027
  140OSM    H7F15263   6.179   4.112   4.071 -0.8495 -0.0683  0.9702
  140OSM    H7G15264   6.008   4.055   4.055  0.3868 -0.9513  0.3343
  140OSM    C8F15265   6.036   4.263   4.114 -0.6397 -0.0326  0.1146
  140OSM    H8F15266   5.934   4.299   4.090 -0.0305  0.5139 -1.7930
  140OSM    H8G15267   6.103   4.348   4.090  0.1186 -0.6222  0.0727
  140OSM    C9F15268   6.069   4.226   4.259  0.7373  0.0691  0.4641
  140OSM    H9F15269   6.147   4.150   4.272  0.4029 -0.8051 -2.0844
  140OSM   C10F15270   5.999   4.263   4.365  0.3833  0.0444 -0.6090
  140OSM   H10F15271   6.013   4.211   4.461 -5.6881 -1.0326  0.0782
  140OSM   C11F15272   5.888   4.360   4.368  0.9840  0.5322  0.2699
  140OSM   H11F15273   5.806   4.319   4.305  1.6180  0.8705 -0.7956
  140OSM   H11G15274   5.912   4.454   4.313 -0.1690  0.7587  0.1329
  140OSM   C12F15275   5.838   4.374   4.510  0.6849 -0.2349 -0.4756
  140OSM   H12F15276   5.917   4.412   4.578 -0.9179  3.0448 -0.2017
  140OSM   H12G15277   5.797   4.284   4.559  2.4590 -0.5821  0.4553
  140OSM   C13F15278   5.734   4.492   4.514  0.6874  0.4592 -0.1980
  140OSM   H13F15279   5.632   4.456   4.488 -0.0872 -1.4129  4.3774
  140OSM   H13G15280   5.771   4.570   4.445 -2.7107  2.3441 -0.0729
  140OSM   C14F15281   5.727   4.562   4.649  0.5169  0.3595  0.4488
  140OSM   H14F15282   5.667   4.655   4.649  1.0176  0.6896  0.7278
  140OSM   H14G15283   5.830   4.584   4.684  0.3673 -1.0051  1.9115
  140OSM   C15F15284   5.676   4.465   4.759  0.9162  0.4610  0.2228
  140OSM   H15F15285   5.760   4.396   4.783  0.4204 -0.6055 -0.9707
  140OSM   H15G15286   5.597   4.398   4.717  0.5487 -0.0599  1.6766
  140OSM   C16F15287   5.628   4.524   4.892  0.2761  1.0171 -0.6909
  140OSM   H16F15288   5.546   4.596   4.875 -2.7285 -1.7281  1.0637
  140OSM   H16G15289   5.712   4.588   4.926  4.0286 -2.8347 -1.8345
  140OSM   C17F15290   5.590   4.411   4.996  0.2402  0.3974  0.1578
  140OSM   H17F15291   5.665   4.330   4.986 -1.8161 -1.4960 -0.7513
  140OSM   H17G15292   5.493   4.362   4.972 -1.0098  2.5579  0.5665
  140OSM   C18F15293   5.589   4.445   5.144 -0.1033  0.1993 -0.9708
  140OSM   H18F15294   5.689   4.487   5.168 -1.2412  1.3605  2.3333
  140OSM   H18G15295   5.573   4.359   5.212  0.6487 -0.1386 -1.2159
  140OSM   H18H15296   5.519   4.527   5.170  0.9577  0.3906  1.6158
  141OSM      N15297   2.350   3.287   2.359 -0.1253  0.2507 -0.2266
  141OSM    C1515298   2.491   3.316   2.383 -0.3364  0.8695  0.4931
  141OSM   H15A15299   2.554   3.228   2.391 -0.7771  0.4662 -0.3554
  141OSM   H15B15300   2.503   3.372   2.475 -1.7562 -0.4433  1.5189
  141OSM   H15C15301   2.528   3.381   2.305  0.3493 -0.2139 -0.1048
  141OSM    C1415302   2.266   3.410   2.347  0.0284  0.4209  0.0227
  141OSM   H14A15303   2.283   3.447   2.246  0.1999  2.2348  0.6770
  141OSM   H14B15304   2.294   3.483   2.421  1.7378  0.2188 -0.3794
  141OSM   H14C15305   2.160   3.391   2.352  0.3455 -1.5556 -0.1007
  141OSM    C1315306   2.318   3.190   2.244  0.4168 -0.1636  0.1729
  141OSM   H13A15307   2.341   3.234   2.148  1.4571 -1.6348 -0.2911
  141OSM   H13B15308   2.215   3.157   2.252  0.7918 -0.9985  2.2114
  141OSM   H13C15309   2.375   3.098   2.251  1.3750  0.1751 -2.1905
  141OSM    C1215310   2.300   3.201   2.474  0.3570  0.5273 -0.2243
  141OSM   H12A15311   2.374   3.124   2.492 -0.8972 -0.7063 -0.2127
  141OSM   H12B15312   2.213   3.148   2.439 -0.6193  1.5585  0.5772
  141OSM    C1115313   2.266   3.276   2.607 -0.9029 -0.0542 -0.6894
  141OSM   H11A15314   2.212   3.221   2.688 -1.8463  3.0743  0.9870
  141OSM   H11B15315   2.185   3.348   2.582 -1.9105 -1.4334 -1.5409
  141OSM      P15316   2.395   3.479   2.726 -0.6527  0.1877 -0.4445
  141OSM    O1315317   2.535   3.506   2.780 -0.8321  0.0018 -0.3268
  141OSM    O1415318   2.323   3.578   2.641 -0.5475 -0.0042 -0.4197
  141OSM    O1115319   2.303   3.471   2.854  0.0963 -0.0452 -0.1695
  141OSM    O1215320   2.390   3.333   2.663  0.4260  0.5481  0.3729
  141OSM    C1S15321   2.258   3.355   2.912  0.1264 -0.5613 -0.0767
  141OSM    H1S15322   2.326   3.267   2.905  0.9240  0.1114 -1.0611
  141OSM    H1T15323   2.162   3.324   2.866 -0.2934  0.9314 -0.2561
  141OSM     NF15324   2.188   3.249   3.123 -0.2436 -0.2836 -0.4566
  141OSM    HNF15325   2.090   3.246   3.142 -0.6389  0.1297 -2.1976
  141OSM    C2S15326   2.239   3.372   3.066 -0.5682  0.4277 -0.1265
  141OSM    H2S15327   2.342   3.384   3.107 -0.6729 -0.7013  0.5007
  141OSM    C3S15328   2.150   3.488   3.103  0.5680  0.4713 -0.1304
  141OSM    H3S15329   2.047   3.478   3.063  0.0895  1.9494  0.6794
  141OSM     O315330   2.189   3.614   3.053 -0.3864 -0.1433 -0.2841
  141OSM    HO315331   2.205   3.599   2.960  1.4296 -0.9270  0.1175
  141OSM    C4S15332   2.151   3.504   3.248 -0.5107  0.0897  0.0992
  141OSM    H4S15333   2.248   3.534   3.292 -0.5960  0.0074  0.3491
  141OSM    C5S15334   2.061   3.478   3.343 -0.4156  0.5022 -0.3502
  141OSM    H5S15335   1.965   3.434   3.315 -1.0766  1.4705  0.3289
  141OSM    C6S15336   2.081   3.507   3.491 -0.3144  0.0366 -0.5664
  141OSM    H6S15337   2.166   3.449   3.531 -1.9897 -2.6944 -0.6594
  141OSM    H6T15338   1.992   3.474   3.548  0.1399  0.2661  0.2858
  141OSM    C7S15339   2.091   3.659   3.515 -0.1405  0.5396 -0.4731
  141OSM    H7S15340   2.028   3.718   3.446  1.1119  0.4503 -1.7466
  141OSM    H7T15341   2.190   3.697   3.480 -0.7926  3.4919  0.5978
  141OSM    C8S15342   2.063   3.700   3.661  0.1053  1.1215 -0.2107
  141OSM    H8S15343   2.140   3.646   3.720 -0.1510  0.4444 -0.4819
  141OSM    H8T15344   1.963   3.669   3.698  1.2886 -2.0595  0.6665
  141OSM    C9S15345   2.093   3.852   3.666  0.3979 -0.5676  0.4026
  141OSM    H9S15346   2.024   3.900   3.594  1.3177  0.4975  0.1989
  141OSM    H9T15347   2.198   3.860   3.632  0.1407 -1.8800 -0.7351
  141OSM   C10S15348   2.074   3.909   3.807 -0.0280  0.1983 -0.5527
  141OSM   H10S15349   1.978   3.874   3.848  0.6218  1.6559  2.5198
  141OSM   H10T15350   2.066   4.019   3.792 -1.0879 -0.0448 -1.9867
  141OSM   C11S15351   2.181   3.876   3.905 -0.3942 -0.0097  0.3022
  141OSM   H11S15352   2.276   3.926   3.879 -1.7423  0.7125 -3.9524
  141OSM   H11T15353   2.199   3.766   3.905  2.6532  0.3882 -0.5173
  141OSM   C12S15354   2.152   3.915   4.053  0.3295  0.6390 -0.5311
  141OSM   H12S15355   2.166   4.025   4.067  1.7342  0.2847  1.1651
  141OSM   H12T15356   2.215   3.844   4.110  0.0870 -1.7912 -3.0557
  141OSM   C13S15357   2.014   3.886   4.105  0.6519  0.5245 -0.2486
  141OSM   H13S15358   1.998   3.777   4.090 -0.3494  0.3492  1.6716
  141OSM   H13T15359   1.930   3.936   4.051  0.7016  1.3097  0.3818
  141OSM   C14S15360   2.001   3.931   4.250  0.8350  0.0284  0.2297
  141OSM   H14S15361   2.006   4.042   4.254  1.2640  0.0308 -0.2932
  141OSM   H14T15362   2.090   3.894   4.306  0.9641  0.7414  0.5190
  141OSM   C15S15363   1.874   3.886   4.320  0.8378  0.4063  0.0390
  141OSM   H15S15364   1.865   3.776   4.326  1.0738  0.2311 -2.2563
  141OSM   H15T15365   1.786   3.921   4.262  0.3303 -2.9269 -1.3891
  141OSM   C16S15366   1.870   3.905   4.470 -0.1298  0.7368 -0.6193
  141OSM   H16S15367   1.876   4.014   4.487 -0.7006  0.7372 -0.4066
  141OSM   H16T15368   1.959   3.852   4.511 -0.5503 -1.7558 -2.6600
  141OSM   C17S15369   1.747   3.844   4.538  0.3480  0.7334  1.0711
  141OSM   H17S15370   1.740   3.736   4.515 -1.1195  0.8966  0.6519
  141OSM   H17T15371   1.658   3.880   4.482  0.7689 -0.4397 -0.4077
  141OSM   C18S15372   1.731   3.877   4.687 -0.1926  0.3764 -0.2200
  141OSM   H18S15373   1.757   3.983   4.708  2.3220  0.1486 -1.8291
  141OSM   H18T15374   1.799   3.811   4.745 -0.3742  3.1468  3.4955
  141OSM   H18U15375   1.629   3.846   4.718  0.1778  0.2567  0.8942
  141OSM    C1F15376   2.255   3.136   3.131  1.0121  0.2608  0.6086
  141OSM     OF15377   2.375   3.124   3.101 -0.2389 -0.2085  0.4052
  141OSM    C2F15378   2.171   3.018   3.177  0.0318 -0.1594 -0.2631
  141OSM    H2F15379   2.238   2.934   3.203 -0.4778 -0.1543  1.1497
  141OSM    H2G15380   2.106   2.991   3.091 -1.2056  0.2289  0.5279
  141OSM    C3F15381   2.097   3.046   3.315  0.0799  0.6288  0.1999
  141OSM    H3F15382   2.047   2.950   3.338  1.5292 -0.9876 -2.8565
  141OSM    H3G15383   2.020   3.126   3.310 -1.2244 -0.5764  0.4282
  141OSM    C4F15384   2.188   3.083   3.434 -0.2073  0.7764 -0.2835
  141OSM    H4F15385   2.220   3.187   3.415 -3.1431  1.7102 -0.6403
  141OSM    H4G15386   2.286   3.033   3.416 -1.3129 -1.2428 -1.0479
  141OSM    C5F15387   2.135   3.055   3.581 -0.3409  0.1962 -0.0504
  141OSM    H5F15388   2.198   3.115   3.651 -0.0626  2.1605 -1.8618
  141OSM    H5G15389   2.151   2.950   3.613  2.0295 -0.1089 -1.9495
  141OSM    C6F15390   1.982   3.083   3.587  0.4833 -0.0949  0.0187
  141OSM    H6F15391   1.922   3.030   3.510 -2.6146 -1.5260  3.1408
  141OSM    H6G15392   1.970   3.192   3.570  0.6071 -0.1416 -0.4062
  141OSM    C7F15393   1.925   3.063   3.728 -0.1013 -0.1243 -0.3212
  141OSM    H7F15394   1.935   2.954   3.750 -0.2291 -0.6639 -2.7332
  141OSM    H7G15395   1.815   3.082   3.730  0.0366  0.6813  0.4889
  141OSM    C8F15396   1.970   3.154   3.844 -0.7875  0.5544  0.0133
  141OSM    H8F15397   2.078   3.137   3.862 -0.6640  2.0867  0.8388
  141OSM    H8G15398   1.912   3.132   3.936 -1.0314  1.6709  0.1365
  141OSM    C9F15399   1.951   3.298   3.815  0.0699  0.0025 -0.8583
  141OSM    H9F15400   1.894   3.324   3.724 -0.7645  0.7717 -0.1351
  141OSM   C10F15401   1.985   3.391   3.901  0.0715 -0.0941 -0.5954
  141OSM   H10F15402   1.983   3.494   3.864 -0.6336  0.4307  0.8103
  141OSM   C11F15403   2.063   3.367   4.031  0.3034 -0.1145 -0.4970
  141OSM   H11F15404   2.168   3.376   3.997 -0.5664 -2.3598 -4.3375
  141OSM   H11G15405   2.047   3.262   4.064 -1.8706 -0.0134 -1.1164
  141OSM   C12F15406   2.008   3.445   4.154 -0.2790 -0.2726  0.5441
  141OSM   H12F15407   1.897   3.456   4.149 -0.3695 -0.1424  2.1639
  141OSM   H12G15408   2.041   3.549   4.134 -0.4155 -0.4449 -0.6184
  141OSM   C13F15409   2.075   3.419   4.293  0.7091  0.5135  0.0791
  141OSM   H13F15410   2.185   3.421   4.282  0.5723 -0.1686 -1.6193
  141OSM   H13G15411   2.055   3.314   4.323 -0.0725  0.3074 -1.1280
  141OSM   C14F15412   2.021   3.504   4.411 -0.7329  0.3385  0.9024
  141OSM   H14F15413   1.917   3.467   4.424  0.0051 -2.9090 -1.2899
  141OSM   H14G15414   2.024   3.613   4.389  6.0076  0.8788  2.5265
  141OSM   C15F15415   2.090   3.472   4.545 -0.0086  0.2954  0.3903
  141OSM   H15F15416   2.193   3.513   4.537 -0.2408  0.9907  0.8621
  141OSM   H15G15417   2.096   3.362   4.555 -0.2809  0.3720  1.5099
  141OSM   C16F15418   2.006   3.531   4.661 -0.1655  0.1339  0.5602
  141OSM   H16F15419   1.905   3.484   4.664  0.2246 -0.9168 -1.3424
  141OSM   H16G15420   1.991   3.638   4.635  1.0590 -0.3062 -2.3419
  141OSM   C17F15421   2.079   3.517   4.792 -0.2159  0.6968 -0.0236
  141OSM   H17F15422   2.027   3.562   4.879  1.1762 -0.4412  1.4629
  141OSM   H17G15423   2.173   3.576   4.785 -0.2370  0.7833  0.3652
  141OSM   C18F15424   2.091   3.370   4.837 -0.5539  0.6501 -0.5510
  141OSM   H18F15425   1.985   3.335   4.837 -0.1112 -0.9937  2.7853
  141OSM   H18G15426   2.129   3.346   4.938  2.0258 -2.7952 -2.1653
  141OSM   H18H15427   2.145   3.302   4.768  0.7291  0.5668  0.5015
  142OSM      N15428   3.545   4.499   2.687 -0.0566 -0.3218 -0.0541
  142OSM    C1515429   3.601   4.364   2.683 -1.0061 -0.2572  0.0151
  142OSM   H15A15430   3.697   4.362   2.733 -2.4902 -0.1236  3.1047
  142OSM   H15B15431   3.622   4.322   2.585  2.1698 -0.1356  0.5394
  142OSM   H15C15432   3.542   4.295   2.742 -0.1533  0.0222  1.2385
  142OSM    C1415433   3.524   4.552   2.827  0.3504  0.2417 -0.3545
  142OSM   H14A15434   3.618   4.563   2.879  0.2961 -1.2584  0.1303
  142OSM   H14B15435   3.467   4.480   2.885  1.2500  0.7926  1.2777
  142OSM   H14C15436   3.456   4.635   2.830  0.2587  0.1728 -0.5104
  142OSM    C1315437   3.653   4.583   2.630 -0.5972  0.2884 -0.1488
  142OSM   H13A15438   3.683   4.537   2.536  3.1287  0.3256  0.8655
  142OSM   H13B15439   3.742   4.575   2.690 -1.0027 -4.9384  0.2182
  142OSM   H13C15440   3.625   4.686   2.614  0.8392  0.9041  1.1080
  142OSM    C1215441   3.418   4.496   2.607  0.4195 -0.4076 -0.6425
  142OSM   H12A15442   3.438   4.487   2.501  1.3526  0.4975 -0.5609
  142OSM   H12B15443   3.374   4.595   2.602 -1.6259 -1.2147  0.4019
  142OSM    C1115444   3.308   4.389   2.641 -0.4402 -0.0242 -0.5632
  142OSM   H11A15445   3.368   4.299   2.664 -2.0188 -0.7852  0.7651
  142OSM   H11B15446   3.244   4.358   2.555  1.9171  1.2143 -2.9290
  142OSM      P15447   3.123   4.537   2.759 -0.1023  0.1008 -0.0612
  142OSM    O1315448   3.173   4.677   2.779 -0.0999 -0.1857 -0.1074
  142OSM    O1415449   3.038   4.508   2.638  0.3429 -0.1518 -0.4106
  142OSM    O1115450   3.052   4.497   2.892  0.2306  0.0943  0.2662
  142OSM    O1215451   3.246   4.436   2.760 -0.0964 -0.6282 -0.1900
  142OSM    C1S15452   3.130   4.476   3.013  0.9472  0.3410 -0.5050
  142OSM    H1S15453   3.230   4.523   3.004  0.0250  2.8070  0.9360
  142OSM    H1T15454   3.139   4.367   3.034  1.5106  0.3237 -0.8377
  142OSM     NF15455   3.152   4.536   3.249  0.0268 -0.0955  0.1520
  142OSM    HNF15456   3.126   4.479   3.327 -1.9381 -0.0249 -0.4049
  142OSM    C2S15457   3.055   4.539   3.137 -0.1574 -1.1155  0.5025
  142OSM    H2S15458   3.029   4.645   3.113  0.5567 -1.3938 -1.7151
  142OSM    C3S15459   2.925   4.461   3.161  0.3007  1.1164  0.1928
  142OSM    H3S15460   2.948   4.358   3.196 -0.9062  0.2408 -1.4587
  142OSM     O315461   2.844   4.440   3.046 -0.0410 -0.1643 -0.2685
  142OSM    HO315462   2.895   4.467   2.969  1.0025 -2.0222 -0.2843
  142OSM    C4S15463   2.845   4.511   3.284  0.1349  0.4289  0.4809
  142OSM    H4S15464   2.869   4.436   3.361  2.5468 -0.7887 -1.3216
  142OSM    C5S15465   2.737   4.586   3.283  0.0844 -0.0378 -0.1503
  142OSM    H5S15466   2.713   4.614   3.180  0.5254 -1.3484 -0.6304
  142OSM    C6S15467   2.641   4.628   3.392  0.3136  0.5205  0.2479
  142OSM    H6S15468   2.546   4.574   3.372 -1.5420  3.9039 -0.9781
  142OSM    H6T15469   2.625   4.737   3.403 -0.4700  0.4234  0.1778
  142OSM    C7S15470   2.668   4.573   3.533 -0.5267 -0.3990 -0.0497
  142OSM    H7S15471   2.759   4.628   3.568  1.0084 -2.3962 -0.7420
  142OSM    H7T15472   2.686   4.464   3.534 -0.7241 -0.4314  0.2660
  142OSM    C8S15473   2.567   4.596   3.642  0.5969 -0.2263 -0.5660
  142OSM    H8S15474   2.486   4.520   3.631 -2.8535  2.8389  1.1191
  142OSM    H8T15475   2.518   4.696   3.630  1.6031  0.3439 -0.0276
  142OSM    C9S15476   2.636   4.580   3.786  0.0344  0.2060 -0.1994
  142OSM    H9S15477   2.709   4.662   3.803  1.2036 -1.1063  1.4300
  142OSM    H9T15478   2.676   4.476   3.780 -1.6025 -0.4596 -0.0999
  142OSM   C10S15479   2.530   4.596   3.894  0.2115  0.4890  0.1398
  142OSM   H10S15480   2.426   4.567   3.871 -1.4111  1.7569  4.8717
  142OSM   H10T15481   2.512   4.702   3.919 -1.2595 -0.1418  1.9872
  142OSM   C11S15482   2.572   4.522   4.020 -0.0466  0.2187 -0.2104
  142OSM   H11S15483   2.609   4.420   3.994  0.6019  0.5763 -0.7347
  142OSM   H11T15484   2.482   4.509   4.084  0.8471 -0.1740  1.0051
  142OSM   C12S15485   2.688   4.595   4.092 -0.0711  0.1565  0.0926
  142OSM   H12S15486   2.692   4.702   4.062 -1.4691  0.9327  2.4029
  142OSM   H12T15487   2.785   4.545   4.073  0.0786  0.5072 -0.0892
  142OSM   C13S15488   2.675   4.598   4.251 -0.1266  0.8005  0.4785
  142OSM   H13S15489   2.586   4.658   4.281 -1.6995 -1.6491  1.0818
  142OSM   H13T15490   2.769   4.642   4.288 -0.8319 -0.6429  4.4214
  142OSM   C14S15491   2.663   4.453   4.292  0.7538  0.1968  0.9576
  142OSM   H14S15492   2.728   4.389   4.229 -1.2018 -0.0420 -0.9181
  142OSM   H14T15493   2.561   4.420   4.266  0.9985  0.2911 -0.1833
  142OSM   C15S15494   2.691   4.432   4.447  0.2781 -0.0095 -0.0917
  142OSM   H15S15495   2.798   4.447   4.469 -0.1677  1.3578  1.3488
  142OSM   H15T15496   2.674   4.324   4.462  1.7419 -0.6818 -2.7435
  142OSM   C16S15497   2.609   4.522   4.543  0.8258  0.6933  0.1201
  142OSM   H16S15498   2.511   4.540   4.493  0.9836 -0.6187 -0.7063
  142OSM   H16T15499   2.671   4.613   4.552  0.8746  0.7096 -0.3966
  142OSM   C17S15500   2.591   4.457   4.686  0.0993 -0.1300  0.5772
  142OSM   H17S15501   2.532   4.365   4.668 -0.5259  0.4241 -0.2655
  142OSM   H17T15502   2.533   4.518   4.759 -0.5107  1.9956 -1.5838
  142OSM   C18S15503   2.727   4.405   4.739 -0.1183 -0.6618 -0.6959
  142OSM   H18S15504   2.715   4.373   4.845  1.9728  2.0474  0.4663
  142OSM   H18T15505   2.807   4.479   4.720 -0.9179  0.6651  0.8690
  142OSM   H18U15506   2.765   4.320   4.677  0.0008 -0.6761 -0.6036
  142OSM    C1F15507   3.262   4.612   3.270  0.3069  0.5941 -0.2539
  142OSM     OF15508   3.279   4.718   3.207  0.3826 -0.3483 -0.3261
  142OSM    C2F15509   3.345   4.578   3.382  0.1992 -0.6203  0.3538
  142OSM    H2F15510   3.346   4.467   3.386 -0.8877 -0.6594  0.0196
  142OSM    H2G15511   3.301   4.611   3.478 -0.1022  2.3372 -0.6914
  142OSM    C3F15512   3.494   4.620   3.352  0.4174 -0.3602  1.2064
  142OSM    H3F15513   3.496   4.728   3.327  0.8559  0.6048  4.7911
  142OSM    H3G15514   3.537   4.551   3.276  2.1410  0.1737  1.6522
  142OSM    C4F15515   3.582   4.636   3.477  0.1472  0.0243 -0.7997
  142OSM    H4F15516   3.524   4.695   3.551  1.4952 -1.1431  1.2759
  142OSM    H4G15517   3.669   4.701   3.454 -0.7504  1.6910  0.2882
  142OSM    C5F15518   3.614   4.501   3.540 -0.2598  0.0563 -0.1695
  142OSM    H5F15519   3.676   4.443   3.468 -0.9819 -1.7767  0.6165
  142OSM    H5G15520   3.526   4.435   3.554  0.6706 -1.3012 -0.4929
  142OSM    C6F15521   3.692   4.503   3.675 -0.0939  0.2627  0.6898
  142OSM    H6F15522   3.791   4.552   3.665 -0.3113  0.1673 -3.3926
  142OSM    H6G15523   3.712   4.399   3.710  0.1786 -0.1952 -0.7736
  142OSM    C7F15524   3.604   4.572   3.780  0.1891  0.1950 -0.1838
  142OSM    H7F15525   3.499   4.546   3.756  0.6621 -2.3484  0.2432
  142OSM    H7G15526   3.617   4.680   3.757 -0.1107 -0.1902 -2.4087
  142OSM    C8F15527   3.645   4.535   3.927  0.3924  0.5322  0.3181
  142OSM    H8F15528   3.745   4.578   3.950 -0.4924  1.8978  1.8312
  142OSM    H8G15529   3.652   4.424   3.931  0.9244  0.5372 -0.4062
  142OSM    C9F15530   3.541   4.596   4.019  0.0624 -0.1114 -0.0048
  142OSM    H9F15531   3.513   4.701   4.001 -1.4479 -0.6862 -1.3481
  142OSM   C10F15532   3.462   4.533   4.109 -0.2458  0.3176  0.0297
  142OSM   H10F15533   3.380   4.590   4.154 -2.7783 -3.5199  0.6712
  142OSM   C11F15534   3.482   4.398   4.179  0.1625  0.5701  0.4011
  142OSM   H11F15535   3.563   4.339   4.132 -0.4419  0.9359 -1.1452
  142OSM   H11G15536   3.382   4.353   4.164 -0.5488  2.3832 -0.6409
  142OSM   C12F15537   3.522   4.415   4.333  0.0642 -0.1748  0.2161
  142OSM   H12F15538   3.438   4.469   4.382 -0.6677 -2.4673  1.6244
  142OSM   H12G15539   3.610   4.481   4.349 -0.7078  1.0809 -0.4956
  142OSM   C13F15540   3.550   4.288   4.413 -0.2023  0.4992 -0.7898
  142OSM   H13F15541   3.647   4.245   4.379  0.2138 -0.2534  1.2181
  142OSM   H13G15542   3.483   4.201   4.397  1.9422 -1.1659 -1.2371
  142OSM   C14F15543   3.562   4.326   4.557 -0.0584 -0.1171 -0.4581
  142OSM   H14F15544   3.469   4.307   4.615 -0.1196 -0.3452 -0.6312
  142OSM   H14G15545   3.578   4.436   4.556 -0.8944  0.0020 -0.9988
  142OSM   C15F15546   3.687   4.271   4.632  0.2397 -0.0578 -0.5538
  142OSM   H15F15547   3.765   4.261   4.553 -2.4616 -3.4093 -3.0793
  142OSM   H15G15548   3.679   4.169   4.675 -0.7338  0.6458  1.0063
  142OSM   C16F15549   3.738   4.376   4.739  0.7878  0.6498 -0.6377
  142OSM   H16F15550   3.763   4.474   4.693 -1.0421  1.3049 -0.3373
  142OSM   H16G15551   3.828   4.338   4.792  0.5507  0.4189 -0.3951
  142OSM   C17F15552   3.633   4.402   4.855 -0.0068 -0.2633  0.2347
  142OSM   H17F15553   3.540   4.439   4.806  0.7734  2.1958  0.5234
  142OSM   H17G15554   3.668   4.475   4.930  0.6659 -0.1491 -0.1778
  142OSM   C18F15555   3.609   4.282   4.942  0.4210  0.3336 -0.0816
  142OSM   H18F15556   3.541   4.300   5.028  1.0591  2.0160  0.1085
  142OSM   H18G15557   3.711   4.254   4.977 -0.2372 -1.5585  0.4394
  142OSM   H18H15558   3.564   4.203   4.878 -2.0925 -0.6959  2.7307
  143OSM      N15559   2.167   4.726   2.264  0.4210 -0.0521 -0.4606
  143OSM    C1515560   2.115   4.847   2.192  0.3415 -0.1190  0.4343
  143OSM   H15A15561   2.173   4.936   2.212  0.3288 -0.2870  1.2473
  143OSM   H15B15562   2.012   4.865   2.219 -0.1986  0.4855 -1.8664
  143OSM   H15C15563   2.107   4.825   2.087 -2.5719 -0.2800  0.5932
  143OSM    C1415564   2.080   4.605   2.240 -0.8521  0.4624 -0.5875
  143OSM   H14A15565   2.116   4.512   2.280  2.3499  0.8590 -2.1910
  143OSM   H14B15566   2.058   4.589   2.135  1.9788 -0.6004 -1.1044
  143OSM   H14C15567   1.982   4.620   2.283 -1.4927 -1.6333 -1.2073
  143OSM    C1315568   2.307   4.698   2.216  0.5607 -0.3026 -0.2166
  143OSM   H13A15569   2.345   4.609   2.264 -0.6459 -0.2448  0.9079
  143OSM   H13B15570   2.378   4.775   2.241 -0.1837  0.6731 -1.0352
  143OSM   H13C15571   2.309   4.681   2.110  0.6023  0.3932 -0.3305
  143OSM    C1215572   2.165   4.758   2.413 -0.3582  0.1481 -0.1866
  143OSM   H12A15573   2.230   4.843   2.427 -0.7950  1.1714 -3.5398
  143OSM   H12B15574   2.214   4.678   2.468  0.3007 -0.1559 -1.1882
  143OSM    C1115575   2.026   4.778   2.483  0.3999  0.0874 -0.5092
  143OSM   H11A15576   1.984   4.875   2.447  0.7779  0.5184  0.1727
  143OSM   H11B15577   2.046   4.806   2.588 -1.2302  0.0087 -0.1518
  143OSM      P15578   1.955   4.552   2.591 -0.1787 -0.1938  0.0908
  143OSM    O1315579   1.851   4.447   2.564  0.5018  0.2214  0.3720
  143OSM    O1415580   2.093   4.508   2.606 -0.3660 -0.1218  0.0860
  143OSM    O1115581   1.916   4.637   2.719  1.0064  0.3541 -0.6277
  143OSM    O1215582   1.941   4.663   2.479 -0.3810 -0.3206  0.7801
  143OSM    C1S15583   1.776   4.652   2.759  0.1630 -0.0047  0.2696
  143OSM    H1S15584   1.713   4.568   2.724  1.5243 -1.3210  0.8996
  143OSM    H1T15585   1.737   4.749   2.719 -0.7883 -0.1709  0.7779
  143OSM     NF15586   1.615   4.642   2.955 -0.0567 -0.7026 -0.5970
  143OSM    HNF15587   1.567   4.727   2.974 -0.8901 -0.6076 -2.7827
  143OSM    C2S15588   1.755   4.665   2.916  0.6435 -0.0823  0.6869
  143OSM    H2S15589   1.816   4.581   2.956 -1.7340 -1.2947  1.9290
  143OSM    C3S15590   1.831   4.782   2.974  1.0740  0.1797  0.4846
  143OSM    H3S15591   1.788   4.881   2.949  1.4628  0.3656  0.5473
  143OSM     O315592   1.968   4.773   2.940 -0.1265 -0.6303  0.3682
  143OSM    HO315593   1.978   4.697   2.883 -0.5030 -0.4086  0.0002
  143OSM    C4S15594   1.822   4.766   3.123  0.5161  0.3418  0.6195
  143OSM    H4S15595   1.891   4.691   3.164 -0.8207  0.1317  2.6185
  143OSM    C5S15596   1.746   4.843   3.200  0.1167 -0.6108 -0.0911
  143OSM    H5S15597   1.689   4.916   3.140 -0.6560 -2.2745 -1.4809
  143OSM    C6S15598   1.728   4.831   3.352 -0.1486  0.1411 -0.1536
  143OSM    H6S15599   1.670   4.921   3.381 -1.4333 -0.1345 -1.7495
  143OSM    H6T15600   1.827   4.843   3.403 -0.0816 -0.7709 -0.0584
  143OSM    C7S15601   1.651   4.710   3.405 -0.7377 -0.2780  0.5608
  143OSM    H7S15602   1.698   4.627   3.347  1.3855  1.7819 -0.8784
  143OSM    H7T15603   1.549   4.725   3.364  0.6196  2.4433 -2.2562
  143OSM    C8S15604   1.650   4.696   3.558  0.4841 -0.5886 -0.4843
  143OSM    H8S15605   1.568   4.627   3.585  0.7850 -0.2618  1.3477
  143OSM    H8T15606   1.621   4.798   3.592  1.0163  0.2607 -2.4030
  143OSM    C9S15607   1.784   4.638   3.616  0.2899 -0.0255  0.4700
  143OSM    H9S15608   1.867   4.705   3.588  0.7951 -0.2133  1.4834
  143OSM    H9T15609   1.784   4.539   3.567  0.1212  0.3570 -0.3124
  143OSM   C10S15610   1.780   4.598   3.764  0.0953 -0.4226  0.4799
  143OSM   H10S15611   1.861   4.528   3.795  0.2203 -0.5478 -0.1289
  143OSM   H10T15612   1.684   4.542   3.766  1.0359 -2.1553 -0.1627
  143OSM   C11S15613   1.777   4.727   3.847  0.2042  0.0465  0.1841
  143OSM   H11S15614   1.694   4.790   3.809  0.7397  0.5416 -0.1765
  143OSM   H11T15615   1.879   4.766   3.830  0.3810 -0.6801 -0.4804
  143OSM   C12S15616   1.760   4.691   3.997  0.6418  0.0551  0.1153
  143OSM   H12S15617   1.821   4.749   4.070 -0.4153  2.6012 -0.8953
  143OSM   H12T15618   1.792   4.586   4.013  4.1409  0.8335 -0.8568
  143OSM   C13S15619   1.611   4.699   4.039 -0.2312  0.2540  0.6851
  143OSM   H13S15620   1.558   4.630   3.970 -0.1632 -1.5649  2.3502
  143OSM   H13T15621   1.569   4.801   4.029 -1.2463 -0.3470 -1.6653
  143OSM   C14S15622   1.575   4.647   4.180 -0.0009 -0.3871 -0.3191
  143OSM   H14S15623   1.614   4.543   4.187 -1.0144 -0.8292 -0.9853
  143OSM   H14T15624   1.465   4.658   4.197 -0.1061 -0.8973 -0.6545
  143OSM   C15S15625   1.647   4.727   4.289 -0.1926  0.0721 -0.3801
  143OSM   H15S15626   1.625   4.836   4.283  2.0248  0.4827 -2.6150
  143OSM   H15T15627   1.757   4.717   4.277 -0.1637  0.4266 -0.4283
  143OSM   C16S15628   1.614   4.687   4.440  0.5544  0.0272  0.2479
  143OSM   H16S15629   1.506   4.712   4.450  0.4152 -0.4529 -0.0316
  143OSM   H16T15630   1.670   4.747   4.516 -1.5677  2.7530 -0.2116
  143OSM   C17S15631   1.624   4.538   4.468  0.6911 -0.2485  0.2679
  143OSM   H17S15632   1.536   4.486   4.424  0.5165 -2.3213  2.8542
  143OSM   H17T15633   1.611   4.511   4.575 -0.0272 -0.3067  0.1690
  143OSM   C18S15634   1.756   4.477   4.430 -0.3280 -0.5112 -0.1366
  143OSM   H18S15635   1.749   4.367   4.440 -1.3626 -0.5298 -0.8449
  143OSM   H18T15636   1.836   4.526   4.489  0.5021 -1.2704 -0.6199
  143OSM   H18U15637   1.774   4.492   4.321 -0.5911 -1.1195 -0.2678
  143OSM    C1F15638   1.555   4.529   2.927 -0.3650  0.5774  0.8079
  143OSM     OF15639   1.620   4.426   2.911  0.7702  0.3250 -0.8513
  143OSM    C2F15640   1.408   4.533   2.886 -0.1803  0.3255 -0.5212
  143OSM    H2F15641   1.415   4.498   2.781  0.8564 -0.3597 -0.2425
  143OSM    H2G15642   1.352   4.628   2.898  2.1924  1.6513  0.7117
  143OSM    C3F15643   1.331   4.436   2.976 -0.2499  0.5100 -0.0972
  143OSM    H3F15644   1.373   4.335   2.993  0.1060  1.0561  2.7650
  143OSM    H3G15645   1.226   4.429   2.941 -1.4310  1.6253  2.8415
  143OSM    C4F15646   1.299   4.501   3.118  0.4360 -0.5489 -0.0242
  143OSM    H4F15647   1.259   4.604   3.120 -1.1236 -1.0875  3.5396
  143OSM    H4G15648   1.399   4.504   3.168  1.1516  0.2631 -1.4324
  143OSM    C5F15649   1.211   4.414   3.207  0.2850  0.6461 -1.0786
  143OSM    H5F15650   1.250   4.315   3.175 -2.4862 -1.2068  0.7964
  143OSM    H5G15651   1.104   4.429   3.180 -0.0968 -1.9862 -1.2868
  143OSM    C6F15652   1.248   4.441   3.354  0.7201 -0.9164  0.1636
  143OSM    H6F15653   1.237   4.547   3.386 -1.7530 -1.6878  2.1885
  143OSM    H6G15654   1.356   4.420   3.372  0.6216  0.2475  2.5131
  143OSM    C7F15655   1.168   4.363   3.451 -0.2526 -0.2174 -0.3912
  143OSM    H7F15656   1.168   4.258   3.414 -0.1859  0.7383 -3.4309
  143OSM    H7G15657   1.060   4.385   3.461 -0.3847 -1.6018  2.2261
  143OSM    C8F15658   1.216   4.368   3.601 -0.3656  0.5057  0.0478
  143OSM    H8F15659   1.134   4.324   3.663 -0.8292  2.2466  0.7299
  143OSM    H8G15660   1.239   4.466   3.647  0.1779 -0.6941  2.5450
  143OSM    C9F15661   1.348   4.288   3.607  0.7125  1.3384 -0.0690
  143OSM    H9F15662   1.398   4.273   3.510 -0.3945  0.5194 -0.5350
  143OSM   C10F15663   1.410   4.222   3.711  0.0598 -0.4397  0.2713
  143OSM   H10F15664   1.509   4.177   3.697  0.0900  0.3971 -2.7161
  143OSM   C11F15665   1.370   4.236   3.857 -0.2469 -0.4638  0.0243
  143OSM   H11F15666   1.324   4.146   3.903  0.7588 -0.8935  0.2398
  143OSM   H11G15667   1.297   4.319   3.850  2.2013  1.8030 -0.4217
  143OSM   C12F15668   1.497   4.268   3.942 -0.6872  0.1389 -0.4002
  143OSM   H12F15669   1.477   4.316   4.040  1.4021 -2.1542  1.2573
  143OSM   H12G15670   1.558   4.345   3.888 -0.7669  0.8898  0.5570
  143OSM   C13F15671   1.574   4.142   3.982 -0.5673  0.6733 -0.3866
  143OSM   H13F15672   1.606   4.092   3.888 -1.0380 -0.0768 -0.1588
  143OSM   H13G15673   1.500   4.074   4.030 -2.1460  0.3791 -3.0092
  143OSM   C14F15674   1.694   4.162   4.075 -0.1804 -0.8313 -0.0873
  143OSM   H14F15675   1.766   4.234   4.030 -1.5044  1.4262  1.1981
  143OSM   H14G15676   1.743   4.063   4.085  2.6747  0.6142  1.8311
  143OSM   C15F15677   1.660   4.211   4.216  0.1856 -0.0582 -1.1682
  143OSM   H15F15678   1.641   4.319   4.201  1.1722 -0.0476 -2.5063
  143OSM   H15G15679   1.755   4.200   4.273 -0.7103  3.3687  1.3123
  143OSM   C16F15680   1.543   4.138   4.290 -0.2610  0.3027  0.4249
  143OSM   H16F15681   1.560   4.030   4.268  0.4415  0.3784  0.5576
  143OSM   H16G15682   1.441   4.178   4.272 -1.2174 -1.6595  1.2009
  143OSM   C17F15683   1.559   4.145   4.446 -0.1281  0.5246 -0.2992
  143OSM   H17F15684   1.540   4.246   4.486  0.2407 -0.0577  1.4253
  143OSM   H17G15685   1.661   4.117   4.479 -1.2631 -2.1253  1.2762
  143OSM   C18F15686   1.449   4.068   4.523 -0.7985 -0.6482  0.1373
  143OSM   H18F15687   1.352   4.119   4.503  0.2113  1.9302  1.5294
  143OSM   H18G15688   1.456   4.064   4.633  1.3739  2.9605  0.2928
  143OSM   H18H15689   1.445   3.965   4.480  0.2888 -0.6979  0.1417
  144OSM      N15690   6.558   3.401   2.704 -0.1289  0.2356  0.0451
  144OSM    C1515691   6.639   3.375   2.579 -0.3056  0.6160 -0.0270
  144OSM   H15A15692   6.623   3.274   2.545 -1.7559  1.3295 -1.6152
  144OSM   H15B15693   6.745   3.392   2.590 -0.4979  0.8559  1.6152
  144OSM   H15C15694   6.599   3.435   2.498  0.1022  2.0827  0.8156
  144OSM    C1415695   6.552   3.547   2.735 -0.2289  0.3280  0.1996
  144OSM   H14A15696   6.528   3.604   2.646  1.0947 -1.4339 -1.3764
  144OSM   H14B15697   6.643   3.577   2.784 -0.6174 -1.3485  2.0835
  144OSM   H14C15698   6.469   3.565   2.801 -0.2729  2.5930 -0.4063
  144OSM    C1315699   6.423   3.357   2.670  0.1753  0.1630 -0.0538
  144OSM   H13A15700   6.368   3.434   2.618 -2.3366 -0.5277  1.4364
  144OSM   H13B15701   6.367   3.342   2.761  0.8815  0.7712  0.4992
  144OSM   H13C15702   6.428   3.274   2.600 -0.3507  1.2767 -1.4593
  144OSM    C1215703   6.606   3.325   2.817  0.6416  0.1059  0.2268
  144OSM   H12A15704   6.571   3.223   2.808  1.9812 -0.2748 -0.8455
  144OSM   H12B15705   6.556   3.372   2.901 -0.5790  2.5316 -1.7348
  144OSM    C1115706   6.756   3.325   2.854 -0.4067 -0.4044  0.2669
  144OSM   H11A15707   6.810   3.274   2.771 -0.9021 -1.4300  0.5579
  144OSM   H11B15708   6.771   3.262   2.945 -0.4639  0.5009  0.9165
  144OSM      P15709   6.902   3.528   2.797 -0.1452  0.5291 -0.0396
  144OSM    O1315710   6.927   3.458   2.667 -0.1885 -0.0357 -0.3538
  144OSM    O1415711   6.863   3.667   2.797  0.4367  0.3807  0.2444
  144OSM    O1115712   7.027   3.524   2.888  1.1549  0.5395 -0.2526
  144OSM    O1215713   6.796   3.461   2.893 -0.7510 -0.3250 -0.6078
  144OSM    C1S15714   7.013   3.527   3.030 -0.3814  0.2333  0.5069
  144OSM    H1S15715   6.997   3.426   3.072  0.4186 -0.1332 -0.0440
  144OSM    H1T15716   6.932   3.596   3.065  1.2739  2.9145 -0.5854
  144OSM     NF15717   7.146   3.551   3.242 -0.0343  0.2230  0.5290
  144OSM    HNF15718   7.107   3.612   3.311  2.5746  0.7295  1.6760
  144OSM    C2S15719   7.136   3.588   3.098 -0.5350  0.7895  0.2965
  144OSM    H2S15720   7.218   3.533   3.048 -2.0290 -1.0973 -0.1852
  144OSM    C3S15721   7.158   3.736   3.071  1.1407 -0.1771  0.7167
  144OSM    H3S15722   7.086   3.783   3.142 -3.9626 -1.4583 -3.0993
  144OSM     O315723   7.101   3.781   2.945  0.0275  0.1943  0.2695
  144OSM    HO315724   7.040   3.709   2.924 -0.3695  0.6378 -0.1112
  144OSM    C4S15725   7.298   3.770   3.095  0.3042  0.2583 -0.2404
  144OSM    H4S15726   7.368   3.735   3.017  1.2391 -0.4341  0.8762
  144OSM    C5S15727   7.342   3.828   3.205 -0.6715  0.1886 -0.7931
  144OSM    H5S15728   7.279   3.837   3.295  0.6630  0.8247  0.1157
  144OSM    C6S15729   7.493   3.828   3.229  0.0468 -0.2342  0.1887
  144OSM    H6S15730   7.529   3.933   3.230  0.7593 -0.4717  0.1812
  144OSM    H6T15731   7.545   3.784   3.141  2.5105  2.0084  0.4029
  144OSM    C7S15732   7.537   3.757   3.354  0.3634  0.0886 -0.2751
  144OSM    H7S15733   7.482   3.798   3.442 -1.6980 -2.4907 -0.2520
  144OSM    H7T15734   7.643   3.785   3.372 -0.7671  4.7517  0.4316
  144OSM    C8S15735   7.490   3.611   3.370 -0.2467  1.4346 -1.0603
  144OSM    H8S15736   7.519   3.560   3.276 -1.2213 -3.6538  1.0908
  144OSM    H8T15737   7.379   3.597   3.370 -0.2074  1.0276  0.0421
  144OSM    C9S15738   7.548   3.529   3.489 -0.7870  0.2578 -0.0431
  144OSM    H9S15739   7.657   3.545   3.494 -1.0644  2.3736  0.1587
  144OSM    H9T15740   7.527   3.421   3.470 -0.4296  0.2535 -0.4294
  144OSM   C10S15741   7.482   3.557   3.629  0.0886  0.7296 -0.0901
  144OSM   H10S15742   7.377   3.523   3.624  0.3959 -0.2576 -0.0776
  144OSM   H10T15743   7.486   3.667   3.649 -1.1122  0.7998 -0.1540
  144OSM   C11S15744   7.553   3.478   3.740  0.0293  0.0967 -0.0516
  144OSM   H11S15745   7.656   3.517   3.749 -0.3467  1.3675 -0.8588
  144OSM   H11T15746   7.553   3.372   3.707 -0.8107 -0.3763  1.4042
  144OSM   C12S15747   7.476   3.479   3.881 -0.1278  0.5801 -0.1609
  144OSM   H12S15748   7.524   3.414   3.958 -0.4610 -0.1304 -0.5448
  144OSM   H12T15749   7.379   3.426   3.878  0.5596 -0.6965 -0.5222
  144OSM   C13S15750   7.459   3.624   3.935  1.2905 -0.1662  1.0540
  144OSM   H13S15751   7.412   3.692   3.860  2.0512  0.6076  1.2688
  144OSM   H13T15752   7.564   3.660   3.941  1.3739 -0.3249  0.6244
  144OSM   C14S15753   7.389   3.641   4.069  0.4277  0.6735 -0.1477
  144OSM   H14S15754   7.428   3.557   4.130 -0.3572  0.0236 -0.5415
  144OSM   H14T15755   7.283   3.616   4.050  0.6917  0.8311 -2.0261
  144OSM   C15S15756   7.414   3.771   4.150  0.1683  0.3347  0.2577
  144OSM   H15S15757   7.360   3.854   4.099 -0.3528 -0.4191 -0.4497
  144OSM   H15T15758   7.523   3.793   4.142  0.2482  0.4034  1.4784
  144OSM   C16S15759   7.376   3.748   4.295 -0.0822  0.0019  0.0251
  144OSM   H16S15760   7.429   3.656   4.327  0.4495  0.0256 -0.7401
  144OSM   H16T15761   7.266   3.727   4.296 -0.7579  3.0376 -0.4333
  144OSM   C17S15762   7.415   3.869   4.374 -0.7938 -0.8444 -0.3713
  144OSM   H17S15763   7.382   3.961   4.322  0.4574  0.0437  0.3594
  144OSM   H17T15764   7.525   3.880   4.385 -0.6171  1.0058 -3.0143
  144OSM   C18S15765   7.344   3.876   4.512 -0.1903 -0.0204  0.4017
  144OSM   H18S15766   7.397   3.950   4.576  1.8676 -0.7902 -0.3035
  144OSM   H18T15767   7.340   3.784   4.575 -2.7184  0.1113  0.5252
  144OSM   H18U15768   7.244   3.922   4.499  0.1013  1.5076  2.8500
  144OSM    C1F15769   7.176   3.421   3.275  0.7470  0.1361 -0.4661
  144OSM     OF15770   7.187   3.338   3.185 -0.1462 -0.3661  0.0731
  144OSM    C2F15771   7.175   3.380   3.419 -0.5634  0.5547  0.6622
  144OSM    H2F15772   7.067   3.371   3.444 -0.5324 -1.1841  0.3148
  144OSM    H2G15773   7.212   3.467   3.476  0.4733  1.9843 -1.9965
  144OSM    C3F15774   7.271   3.261   3.438 -0.3702 -0.1105  0.0301
  144OSM    H3F15775   7.370   3.288   3.394 -1.5409  2.2045 -1.3904
  144OSM    H3G15776   7.235   3.170   3.387  0.2035  0.8473 -2.2254
  144OSM    C4F15777   7.292   3.219   3.590  0.3955  0.7068  0.5472
  144OSM    H4F15778   7.194   3.179   3.623  0.4593  0.8710  0.9386
  144OSM    H4G15779   7.320   3.305   3.654  0.7084 -0.1812  1.6420
  144OSM    C5F15780   7.391   3.105   3.618 -0.3924 -0.2167  0.4883
  144OSM    H5F15781   7.491   3.137   3.582 -1.2781  1.7534 -0.4145
  144OSM    H5G15782   7.360   3.013   3.564  3.4854 -1.5168  0.1715
  144OSM    C6F15783   7.412   3.078   3.770  0.2962 -1.0040  0.0093
  144OSM    H6F15784   7.458   3.168   3.816 -0.4174  0.1434 -1.4279
  144OSM    H6G15785   7.493   3.004   3.786  1.2235  0.1010  0.5856
  144OSM    C7F15786   7.290   3.028   3.847 -0.1074 -0.3997 -0.2745
  144OSM    H7F15787   7.244   2.940   3.796  0.7050 -0.1149 -1.5366
  144OSM    H7G15788   7.223   3.115   3.862 -2.9583 -2.6474  1.1782
  144OSM    C8F15789   7.338   2.960   3.981  0.5823 -0.2531  0.7390
  144OSM    H8F15790   7.411   2.880   3.952  0.0946  0.0219 -1.3832
  144OSM    H8G15791   7.261   2.905   4.038  0.0371 -1.7359 -1.2975
  144OSM    C9F15792   7.421   3.043   4.080  0.1846  0.8101  0.5227
  144OSM    H9F15793   7.516   3.060   4.029 -0.2024 -0.2903 -0.6327
  144OSM   C10F15794   7.399   3.094   4.198 -0.3004 -0.1658  0.0556
  144OSM   H10F15795   7.486   3.134   4.252  0.3197 -0.4850 -0.6879
  144OSM   C11F15796   7.257   3.099   4.262 -0.4924 -0.1769 -0.0061
  144OSM   H11F15797   7.277   3.100   4.371 -0.6416  2.2816  0.0519
  144OSM   H11G15798   7.197   3.009   4.239 -0.2770 -0.8029  1.7316
  144OSM   C12F15799   7.194   3.231   4.220 -0.9427  0.0036 -0.7267
  144OSM   H12F15800   7.100   3.229   4.279  0.0782  0.7045  0.9874
  144OSM   H12G15801   7.161   3.223   4.114  1.6352  1.5566 -1.7201
  144OSM   C13F15802   7.265   3.364   4.254  0.2894  0.4586 -0.0501
  144OSM   H13F15803   7.193   3.438   4.215 -2.1603 -1.8779 -0.2265
  144OSM   H13G15804   7.366   3.366   4.207  0.9015 -0.5495  1.1581
  144OSM   C14F15805   7.289   3.386   4.402  0.1368  0.3944 -0.3416
  144OSM   H14F15806   7.368   3.464   4.404  1.2438 -0.6916  0.5524
  144OSM   H14G15807   7.348   3.303   4.448  1.5214  0.1327 -2.4196
  144OSM   C15F15808   7.164   3.416   4.483  0.2225  0.3721 -0.3961
  144OSM   H15F15809   7.112   3.324   4.519  0.7221  0.7280  1.3685
  144OSM   H15G15810   7.096   3.472   4.416 -1.7671 -2.7508 -1.2518
  144OSM   C16F15811   7.194   3.497   4.610  0.1482  0.0832  0.5622
  144OSM   H16F15812   7.245   3.593   4.588  1.0006 -0.3712  0.5197
  144OSM   H16G15813   7.266   3.441   4.675 -0.1590 -3.0156 -1.5227
  144OSM   C17F15814   7.061   3.523   4.687  0.6659  0.0311 -0.4246
  144OSM   H17F15815   7.009   3.427   4.707  3.1261 -1.1111  0.9967
  144OSM   H17G15816   6.997   3.586   4.622 -0.5223  1.8645  2.3138
  144OSM   C18F15817   7.086   3.603   4.816 -0.1009 -0.2150  0.3818
  144OSM   H18F15818   7.160   3.681   4.790 -0.9100  0.0862 -1.0863
  144OSM   H18G15819   7.131   3.535   4.893  0.2428  0.3104  0.6500
  144OSM   H18H15820   6.995   3.640   4.867  0.7868  1.1856  1.0102
  145SAPE     N15821   1.284   4.125   7.086 -0.3225  0.7236  0.5879
  145SAPE   HN115822   1.316   4.202   7.024  0.8371 -0.6779 -0.6008
  145SAPE   HN215823   1.299   4.037   7.034  2.6293  1.5950 -0.2092
  145SAPE   HN315824   1.182   4.144   7.100 -0.2930  1.0061  0.4195
  145SAPE   C1215825   1.366   4.136   7.206  0.3019 -0.6327 -0.3578
  145SAPE  H12A15826   1.323   4.068   7.283  0.5741 -0.6820 -0.2500
  145SAPE  H12B15827   1.364   4.243   7.237  0.0518 -0.6012 -0.4757
  145SAPE   C1115828   1.515   4.108   7.190 -0.1879  0.0699 -0.0930
  145SAPE  H11A15829   1.537   4.004   7.156 -0.3412  0.0369 -0.0896
  145SAPE  H11B15830   1.565   4.114   7.289 -1.2890 -0.3276  0.5010
  145SAPE     P15831   1.676   4.317   7.145  0.3027 -0.3002  0.0318
  145SAPE   O1315832   1.605   4.430   7.211 -0.5844 -0.1262 -1.2890
  145SAPE   O1415833   1.784   4.253   7.213  0.0230 -0.3845  0.1328
  145SAPE   O1215834   1.570   4.206   7.099 -0.1629 -0.0649 -0.4131
  145SAPE   O1115835   1.733   4.375   7.010  0.2723 -0.0625  0.2684
  145SAPE    C115836   1.752   4.304   6.891  0.2831 -0.3742 -0.5484
  145SAPE    HA15837   1.856   4.323   6.860  0.0771 -0.7497 -1.5118
  145SAPE    HB15838   1.767   4.195   6.912 -1.2088 -0.5986 -0.4661
  145SAPE    C215839   1.633   4.324   6.788 -0.4633  0.1847 -0.6174
  145SAPE    HS15840   1.539   4.278   6.825 -0.4099  0.4697 -0.1176
  145SAPE   O2115841   1.678   4.269   6.664 -0.1902 -0.2659 -0.2368
  145SAPE   C2115842   1.671   4.138   6.654 -0.4001  0.0964  0.1595
  145SAPE   O2215843   1.649   4.058   6.746  0.3182 -0.3315 -0.1526
  145SAPE   C2215844   1.686   4.110   6.507  0.6695 -0.0528 -0.2503
  145SAPE   H2R15845   1.750   4.186   6.457  3.5851 -2.0646  0.1392
  145SAPE   H2S15846   1.744   4.016   6.493  2.2306  0.8679 -0.2037
  145SAPE    C315847   1.602   4.469   6.771 -0.1869 -0.3974  0.1778
  145SAPE    HX15848   1.697   4.518   6.739  0.9806 -0.5379  3.1317
  145SAPE    HY15849   1.568   4.502   6.871 -1.0698 -0.6718 -0.0265
  145SAPE   O3115850   1.503   4.489   6.668  0.0351 -0.0970 -0.3833
  145SAPE   C3115851   1.384   4.534   6.700 -0.6118 -0.5650  0.3746
  145SAPE   O3215852   1.354   4.579   6.805  0.7236  0.4227 -0.1497
  145SAPE   C3215853   1.306   4.528   6.568  0.0827  0.1430  0.2580
  145SAPE   H2X15854   1.216   4.594   6.564  0.9528  1.3604  0.0373
  145SAPE   H2Y15855   1.265   4.425   6.573  1.4898 -0.3667  3.2309
  145SAPE   C2315856   1.551   4.100   6.431  0.1325  0.7492 -0.7853
  145SAPE   H3R15857   1.477   4.162   6.485 -2.5727 -0.8144 -2.4328
  145SAPE   H3S15858   1.526   3.992   6.442  0.4671  0.7390 -0.1328
  145SAPE   C2415859   1.552   4.140   6.283 -0.2186  0.0106  0.1437
  145SAPE   H4R15860   1.602   4.239   6.284 -2.2254  1.2320  4.7815
  145SAPE   H4S15861   1.447   4.156   6.251  0.2247  1.4079 -0.7101
  145SAPE   C2515862   1.619   4.043   6.188  0.3835  0.3741  0.0441
  145SAPE   H5R15863   1.642   3.941   6.224  0.8254  0.9506  1.4945
  145SAPE   C2615864   1.673   4.063   6.063 -0.1479 -0.3735  0.1369
  145SAPE   H6R15865   1.736   3.991   6.008 -0.1263  0.5857 -1.1482
  145SAPE   C2715866   1.678   4.200   5.994  0.6788  1.1922  0.0324
  145SAPE   H7R15867   1.775   4.225   5.944  0.1081  3.3941 -0.0941
  145SAPE   H7S15868   1.656   4.277   6.071  0.7689 -1.3173  2.7507
  145SAPE   C2815869   1.575   4.220   5.886  0.8112  0.7225 -0.6618
  145SAPE   H8R15870   1.471   4.237   5.920  1.1776  2.0771 -0.1670
  145SAPE   C2915871   1.591   4.220   5.751 -0.1561  0.1938 -0.1902
  145SAPE   H9R15872   1.504   4.249   5.690  0.8151 -0.0278 -1.7417
  145SAPE  C21015873   1.730   4.204   5.680  0.4580 -0.2029  0.5310
  145SAPE  H10R15874   1.795   4.135   5.737  2.2657 -1.3971 -2.7350
  145SAPE  H10S15875   1.788   4.299   5.684 -2.3364  1.7254 -1.0431
  145SAPE  C21115876   1.717   4.150   5.536  0.0680 -0.1087 -0.0289
  145SAPE  H11R15877   1.689   4.045   5.517 -2.0268  0.4343 -0.1153
  145SAPE  C21215878   1.733   4.219   5.417 -0.5567  0.4840 -0.0410
  145SAPE  H12R15879   1.708   4.174   5.320  3.0620  0.5782 -1.1776
  145SAPE  C21315880   1.755   4.369   5.397 -0.2716 -0.1432  0.3397
  145SAPE  H13R15881   1.768   4.431   5.488  1.8852  1.1742 -0.7940
  145SAPE  H13S15882   1.658   4.396   5.349  0.6552  2.5987 -0.1463
  145SAPE  C21415883   1.870   4.420   5.310  0.2180 -0.2594  0.1454
  145SAPE  H14R15884   1.945   4.488   5.354  0.6715  2.0455 -3.7236
  145SAPE  C21515885   1.890   4.394   5.175  0.2811  0.2992 -0.9407
  145SAPE  H15R15886   1.972   4.452   5.130  0.4514  0.7919 -0.0186
  145SAPE  C21615887   1.807   4.311   5.078 -0.4220 -0.4325 -0.0592
  145SAPE  H16R15888   1.711   4.287   5.126 -0.7642 -2.6672 -1.7035
  145SAPE  H16S15889   1.860   4.217   5.051 -0.4154 -0.4546  0.0313
  145SAPE  C21715890   1.758   4.381   4.946 -0.4624  0.4412  0.8244
  145SAPE  H17R15891   1.840   4.429   4.888  0.4811  0.8509  2.4598
  145SAPE  H17S15892   1.693   4.468   4.968 -0.1759  1.1692 -0.9757
  145SAPE  C21815893   1.695   4.276   4.850 -0.3353 -0.7197  0.1923
  145SAPE  H18R15894   1.781   4.211   4.824 -0.2223 -0.7513  0.6353
  145SAPE  H18S15895   1.676   4.324   4.752 -0.1029  0.6211  0.7713
  145SAPE  C21915896   1.573   4.193   4.879  0.6386  0.3081 -0.6567
  145SAPE  H19R15897   1.578   4.148   4.980 -2.8028 -1.7056 -1.2399
  145SAPE  H19S15898   1.556   4.107   4.810  1.6519 -0.9926  0.6483
  145SAPE  C22015899   1.439   4.270   4.867  0.2729  0.4136 -0.7723
  145SAPE  H20R15900   1.408   4.279   4.761  0.0603  1.6197 -0.6232
  145SAPE  H20S15901   1.447   4.370   4.914  0.8181  1.0145 -2.1013
  145SAPE  H20T15902   1.355   4.213   4.911  0.7226  1.2072  1.2367
  145SAPE   C3315903   1.385   4.543   6.435  0.1873 -0.0896 -0.1369
  145SAPE   H3X15904   1.432   4.443   6.424  0.2973  0.0238 -0.7798
  145SAPE   H3Y15905   1.462   4.623   6.439  0.3229 -0.2521  0.5573
  145SAPE   C3415906   1.306   4.557   6.305  0.1997 -0.0853  0.2394
  145SAPE   H4X15907   1.235   4.643   6.306  0.4624  0.1581 -0.7412
  145SAPE   H4Y15908   1.246   4.464   6.293 -1.7058  1.2224 -1.0990
  145SAPE   C3515909   1.386   4.560   6.177 -0.8982 -0.5438 -0.3369
  145SAPE   H5X15910   1.448   4.468   6.178 -1.4271 -0.9043 -0.1525
  145SAPE   H5Y15911   1.441   4.657   6.178 -1.6530 -0.1090 -0.3699
  145SAPE   C3615912   1.302   4.546   6.052  0.1721  0.0619  0.3637
  145SAPE   H6X15913   1.202   4.595   6.052 -0.1322 -0.3390 -2.9774
  145SAPE   H6Y15914   1.290   4.436   6.043  2.0533 -0.0018 -2.1679
  145SAPE   C3715915   1.375   4.610   5.926  0.7321  0.4005  0.4497
  145SAPE   H7X15916   1.483   4.614   5.949  0.8687  4.1471 -0.1231
  145SAPE   H7Y15917   1.353   4.716   5.900  1.1460  0.1521 -1.0032
  145SAPE   C3815918   1.325   4.532   5.802 -0.1934 -0.1015 -0.4876
  145SAPE   H8X15919   1.217   4.557   5.800 -0.1835  0.0826  0.5626
  145SAPE   H8Y15920   1.338   4.423   5.814 -1.2729 -0.2889 -0.9447
  145SAPE   C3915921   1.391   4.575   5.669 -0.1954 -0.4685 -0.6254
  145SAPE   H9X15922   1.500   4.557   5.669 -0.1905 -0.4501 -0.3994
  145SAPE   H9Y15923   1.387   4.686   5.664  1.3397 -0.2754  1.2451
  145SAPE  C31015924   1.311   4.512   5.556 -0.4220  0.3059  0.4072
  145SAPE  H10X15925   1.203   4.534   5.564 -0.2536  0.5151  2.6595
  145SAPE  H10Y15926   1.323   4.402   5.551  0.1209  0.4136 -1.4543
  145SAPE  C31115927   1.351   4.580   5.420 -0.4977 -0.6328  0.8349
  145SAPE  H11X15928   1.438   4.530   5.373 -0.9824 -0.0759 -0.7336
  145SAPE  H11Y15929   1.370   4.685   5.450 -0.7025  0.1414 -1.5813
  145SAPE  C31215930   1.239   4.575   5.321  1.0402  0.0200  0.0358
  145SAPE  H12X15931   1.143   4.600   5.371 -0.8901 -2.9931 -1.8490
  145SAPE  H12Y15932   1.225   4.474   5.277  2.8349  0.4133 -1.5802
  145SAPE  C31315933   1.254   4.660   5.186  0.0272 -0.0292 -0.2541
  145SAPE  H13X15934   1.353   4.641   5.139 -0.6657  0.1521 -1.8216
  145SAPE  H13Y15935   1.238   4.768   5.209 -3.1244  0.4657 -3.8943
  145SAPE  C31415936   1.158   4.628   5.077  0.4171 -0.0056  0.0370
  145SAPE  H14X15937   1.054   4.646   5.111  0.3477 -1.2485  0.5173
  145SAPE  H14Y15938   1.160   4.520   5.050 -2.6850 -0.3144  0.6658
  145SAPE  C31515939   1.181   4.702   4.941  0.8190 -0.6807 -0.4673
  145SAPE  H15X15940   1.285   4.683   4.907  1.2788 -1.1064  1.1086
  145SAPE  H15Y15941   1.165   4.809   4.967 -0.5312 -1.1954  0.9572
  145SAPE  C31615942   1.078   4.656   4.838 -0.3498  0.2218  0.2199
  145SAPE  H16X15943   0.980   4.704   4.859  0.1589  1.5085 -0.2728
  145SAPE  H16Y15944   1.064   4.545   4.838  0.6854  0.0853 -0.1052
  145SAPE  C31715945   1.118   4.706   4.702 -0.3133 -0.1063 -0.8375
  145SAPE  H17X15946   1.026   4.706   4.639 -0.6391  0.4207 -0.3765
  145SAPE  H17Y15947   1.204   4.647   4.664  2.1075  1.8514  1.2042
  145SAPE  C31815948   1.165   4.855   4.705 -0.0078  0.0176  0.6873
  145SAPE  H18X15949   1.096   4.914   4.769 -1.1804  0.2769 -0.7678
  145SAPE  H18Y15950   1.171   4.894   4.601  1.0125 -1.7522  0.0488
  145SAPE  H18Z15951   1.270   4.870   4.738  0.1919 -0.8688  0.4852
  146SAPE     N15952   6.700   3.987   7.424 -0.1660  0.2381 -0.2113
  146SAPE   HN115953   6.721   4.057   7.350  0.0161  2.3074  1.6930
  146SAPE   HN215954   6.635   4.039   7.486 -0.3172  0.4332 -0.5361
  146SAPE   HN315955   6.779   3.968   7.489 -0.9755 -1.8816  0.2625
  146SAPE   C1215956   6.643   3.863   7.378 -0.0929  0.5949 -0.4106
  146SAPE  H12A15957   6.639   3.859   7.267 -2.7630 -1.2601 -0.3238
  146SAPE  H12B15958   6.543   3.851   7.425  0.1315 -0.2772 -0.1397
  146SAPE   C1115959   6.737   3.738   7.406 -0.2411  0.4159 -0.0313
  146SAPE  H11A15960   6.676   3.654   7.367 -0.1856  0.9900 -1.4193
  146SAPE  H11B15961   6.743   3.735   7.517  0.0907 -0.1323 -0.0596
  146SAPE     P15962   6.968   3.627   7.338 -0.1027  0.2744 -0.9658
  146SAPE   O1315963   7.115   3.661   7.330  0.0406 -0.5027  0.9603
  146SAPE   O1415964   6.933   3.528   7.442 -0.2941 -0.1302  0.1223
  146SAPE   O1215965   6.866   3.758   7.346  0.7016 -0.1286  0.0222
  146SAPE   O1115966   6.932   3.563   7.201  0.0497  0.3024  0.1961
  146SAPE    C115967   6.805   3.595   7.132 -0.4572 -0.1876 -0.1777
  146SAPE    HA15968   6.728   3.547   7.196  2.3149 -1.1439  2.7071
  146SAPE    HB15969   6.784   3.702   7.112 -0.8014 -0.0035  1.0903
  146SAPE    C215970   6.793   3.511   6.995 -0.0277 -0.0643 -1.1471
  146SAPE    HS15971   6.816   3.407   7.028  0.8775  0.7901  1.0973
  146SAPE   O2115972   6.887   3.560   6.902 -0.7293  0.8313  0.5271
  146SAPE   C2115973   6.957   3.467   6.832 -0.1171 -0.2375  0.2415
  146SAPE   O2215974   6.962   3.348   6.858  0.0557  0.4029  0.6228
  146SAPE   C2215975   7.034   3.540   6.716 -0.1241  0.3903  0.3724
  146SAPE   H2R15976   7.076   3.633   6.762  0.0174  0.1205  0.7928
  146SAPE   H2S15977   7.117   3.472   6.686 -0.7240 -0.2657  0.1849
  146SAPE    C315978   6.658   3.538   6.928 -0.4840  0.2835 -0.9832
  146SAPE    HX15979   6.664   3.642   6.889  0.9443  0.4472 -0.3517
  146SAPE    HY15980   6.570   3.548   6.995 -0.2489 -1.7441 -0.3100
  146SAPE   O3115981   6.647   3.452   6.811 -0.0345  0.2915 -0.2573
  146SAPE   C3115982   6.621   3.326   6.849  0.2634  0.1089 -0.0888
  146SAPE   O3215983   6.602   3.295   6.968  0.1723 -0.0425 -0.3655
  146SAPE   C3215984   6.619   3.224   6.729  0.9409 -0.3139 -0.7620
  146SAPE   H2X15985   6.625   3.284   6.636  2.8581  1.2637  0.2826
  146SAPE   H2Y15986   6.524   3.168   6.744 -0.4702  1.9870 -0.5497
  146SAPE   C2315987   6.949   3.578   6.589 -0.2856  0.6470 -0.6809
  146SAPE   H3R15988   6.867   3.644   6.623 -1.5712 -1.7172  1.0562
  146SAPE   H3S15989   6.910   3.491   6.533 -0.1490  1.1041 -1.5012
  146SAPE   C2415990   7.036   3.666   6.494  0.1831  0.2160 -0.2622
  146SAPE   H4R15991   7.124   3.606   6.461 -0.1856 -0.6673  0.3358
  146SAPE   H4S15992   7.068   3.750   6.559 -0.0472  1.0668 -1.2150
  146SAPE   C2515993   6.969   3.712   6.364  0.2732  1.2666  1.0159
  146SAPE   H5R15994   6.881   3.775   6.385 -1.5807 -0.5505 -0.8815
  146SAPE   C2615995   7.003   3.687   6.230  0.6056 -0.6103 -0.4347
  146SAPE   H6R15996   6.949   3.738   6.149 -1.3249 -1.3452  0.3397
  146SAPE   C2715997   7.105   3.576   6.190  0.3402 -0.2890 -0.3216
  146SAPE   H7R15998   7.051   3.480   6.180  0.5453 -0.4780  0.2943
  146SAPE   H7S15999   7.179   3.574   6.273  2.5316  0.7491 -2.1354
  146SAPE   C2816000   7.172   3.572   6.054  0.3801  0.8471 -0.0844
  146SAPE   H8R16001   7.278   3.542   6.059  0.1662 -0.2872 -1.6581
  146SAPE   C2916002   7.125   3.594   5.931  0.3524  0.0892  1.0991
  146SAPE   H9R16003   7.200   3.595   5.851 -1.3270  1.3293 -0.5473
  146SAPE  C21016004   6.984   3.626   5.892 -0.3506  0.0011 -0.2283
  146SAPE  H10R16005   6.915   3.595   5.973  0.9376 -1.7654  0.2642
  146SAPE  H10S16006   6.965   3.551   5.812  0.8224  2.2069 -2.7173
  146SAPE  C21116007   6.963   3.765   5.852 -0.5645 -0.5473  0.1502
  146SAPE  H11R16008   6.911   3.830   5.923  0.7088  1.6757 -0.8427
  146SAPE  C21216009   7.000   3.824   5.732  0.4027  0.2757 -0.5196
  146SAPE  H12R16010   6.993   3.934   5.727  1.9310  0.5214  1.4672
  146SAPE  C21316011   7.070   3.761   5.616 -0.4102  0.2434  0.3377
  146SAPE  H13R16012   7.118   3.662   5.634 -2.1342 -1.0688 -1.7519
  146SAPE  H13S16013   7.156   3.819   5.577  0.3084 -1.0979 -0.1325
  146SAPE  C21416014   6.970   3.730   5.508  0.2974  0.4073  0.6431
  146SAPE  H14R16015   6.887   3.659   5.522  0.1117 -0.2028 -2.8250
  146SAPE  C21516016   6.961   3.798   5.390  0.2430 -0.1706  0.3670
  146SAPE  H15R16017   6.884   3.778   5.315 -0.2941  1.1513  0.5425
  146SAPE  C21616018   7.038   3.913   5.333 -0.0323  0.2410 -0.7778
  146SAPE  H16R16019   7.102   3.955   5.413  1.4729 -2.4125 -0.4620
  146SAPE  H16S16020   6.968   3.988   5.291  0.2995  0.6694 -0.5716
  146SAPE  C21716021   7.133   3.875   5.218 -0.4784 -0.0589  0.6455
  146SAPE  H17R16022   7.191   3.960   5.176  1.7785 -2.2888 -1.0780
  146SAPE  H17S16023   7.077   3.835   5.131 -0.2756  1.9506 -0.4677
  146SAPE  C21816024   7.244   3.768   5.258  0.0938 -0.1651  0.5282
  146SAPE  H18R16025   7.189   3.679   5.296 -3.4416  0.9276 -1.5488
  146SAPE  H18S16026   7.309   3.800   5.342  2.0522 -1.6041 -0.3819
  146SAPE  C21916027   7.332   3.725   5.143 -0.1560 -0.5262  0.0811
  146SAPE  H19R16028   7.262   3.692   5.064  1.8920 -2.0707 -1.1861
  146SAPE  H19S16029   7.389   3.639   5.183 -0.5269 -1.3131 -1.0274
  146SAPE  C22016030   7.432   3.830   5.100 -0.1635  0.3417 -0.0995
  146SAPE  H20R16031   7.382   3.929   5.091  0.3475  0.6771  0.6664
  146SAPE  H20S16032   7.486   3.810   5.006  0.0367 -0.3606  0.1623
  146SAPE  H20T16033   7.516   3.832   5.173  0.1050  1.0597 -0.4187
  146SAPE   C3316034   6.721   3.115   6.731 -0.4857 -0.0520 -0.1183
  146SAPE   H3X16035   6.726   3.060   6.828 -2.6510 -1.7592 -0.8966
  146SAPE   H3Y16036   6.821   3.162   6.726 -1.1419  1.6668  1.6838
  146SAPE   C3416037   6.693   2.999   6.626 -0.0058  0.4406  0.3496
  146SAPE   H4X16038   6.721   3.028   6.523 -0.8253 -0.8415 -0.2625
  146SAPE   H4Y16039   6.584   2.977   6.624  0.2998 -1.1652 -0.0199
  146SAPE   C3516040   6.782   2.876   6.657  0.5345  0.1315  0.3360
  146SAPE   H5X16041   6.739   2.839   6.752 -3.8853  1.0951 -1.0124
  146SAPE   H5Y16042   6.890   2.899   6.670  0.8653 -1.9416  1.5616
  146SAPE   C3616043   6.768   2.774   6.541  0.0903  0.3665  0.3870
  146SAPE   H6X16044   6.826   2.682   6.567  0.9778  0.9292  0.4576
  146SAPE   H6Y16045   6.810   2.814   6.446  1.4462 -0.4310  0.6125
  146SAPE   C3716046   6.626   2.723   6.518  0.6278 -0.0126 -0.7903
  146SAPE   H7X16047   6.562   2.810   6.489 -3.5291 -2.5516 -0.0280
  146SAPE   H7Y16048   6.577   2.683   6.609 -0.4224 -0.6481 -1.6154
  146SAPE   C3816049   6.610   2.621   6.396 -0.2196 -0.0774 -0.1094
  146SAPE   H8X16050   6.511   2.572   6.407 -0.5324  0.7426  0.8450
  146SAPE   H8Y16051   6.682   2.540   6.416 -1.1604 -0.5730  1.4514
  146SAPE   C3916052   6.640   2.688   6.262  0.2127  0.2503  0.0692
  146SAPE   H9X16053   6.746   2.723   6.265  0.7796 -1.2555 -0.8480
  146SAPE   H9Y16054   6.572   2.775   6.272 -0.4868 -0.1127 -1.3602
  146SAPE  C31016055   6.602   2.621   6.133  0.2045 -0.2597 -0.7180
  146SAPE  H10X16056   6.502   2.574   6.142  0.7764 -1.1909  1.1430
  146SAPE  H10Y16057   6.667   2.533   6.112 -0.7723 -1.1468 -0.0927
  146SAPE  C31116058   6.588   2.719   6.010 -0.7286  0.1154  0.7889
  146SAPE  H11X16059   6.692   2.744   5.981 -0.9321  0.0681 -0.0076
  146SAPE  H11Y16060   6.535   2.812   6.039 -0.2445 -0.0443  2.2703
  146SAPE  C31216061   6.519   2.649   5.896  0.9430 -0.3141 -0.2257
  146SAPE  H12X16062   6.410   2.674   5.891  0.6176 -1.8784 -3.1791
  146SAPE  H12Y16063   6.528   2.539   5.907  0.0622 -0.3677  0.0972
  146SAPE  C31316064   6.595   2.685   5.767  0.1584  0.3314  0.1462
  146SAPE  H13X16065   6.696   2.637   5.770 -0.7604 -1.8462 -1.1458
  146SAPE  H13Y16066   6.603   2.795   5.762  0.4519  0.2507 -2.4530
  146SAPE  C31416067   6.523   2.637   5.638  0.2579  0.2887  0.1340
  146SAPE  H14X16068   6.501   2.528   5.644 -0.4907  0.3670 -0.9845
  146SAPE  H14Y16069   6.592   2.644   5.551  0.7231  1.9566  0.5945
  146SAPE  C31516070   6.412   2.729   5.606  1.6361  0.0742 -0.4431
  146SAPE  H15X16071   6.445   2.825   5.562 -1.7191  1.4250 -0.2654
  146SAPE  H15Y16072   6.357   2.756   5.699 -1.2451 -1.1910 -1.6668
  146SAPE  C31616073   6.306   2.667   5.512  0.3069 -0.0790  0.3203
  146SAPE  H16X16074   6.282   2.565   5.550  2.5182 -0.9458 -0.4382
  146SAPE  H16Y16075   6.358   2.645   5.416 -1.2988 -1.1133 -0.3605
  146SAPE  C31716076   6.175   2.740   5.502  0.1713 -0.2119 -0.9091
  146SAPE  H17X16077   6.123   2.752   5.600 -2.4030 -0.5820 -2.1383
  146SAPE  H17Y16078   6.105   2.684   5.436 -2.8959  0.5275  1.4320
  146SAPE  C31816079   6.188   2.885   5.452  1.9292  0.2333 -0.2259
  146SAPE  H18X16080   6.089   2.936   5.457  1.2110 -1.0680 -0.6939
  146SAPE  H18Y16081   6.219   2.891   5.345 -0.5806 -1.4935 -1.1605
  146SAPE  H18Z16082   6.249   2.943   5.524  0.9483  1.1137 -0.0815
  147SAPE     N16083   3.946   2.957   7.354 -0.2685  0.2543  0.6171
  147SAPE   HN116084   3.848   2.980   7.329 -0.5890 -0.1652  1.4609
  147SAPE   HN216085   3.946   2.854   7.360 -0.3695  0.2244  0.1543
  147SAPE   HN316086   3.953   2.989   7.453 -1.7542  0.7167  0.5979
  147SAPE   C1216087   4.054   3.020   7.270  0.5493  0.5504 -0.4858
  147SAPE  H12A16088   4.016   3.027   7.166 -1.8061 -0.6014  0.2124
  147SAPE  H12B16089   4.145   2.958   7.278  1.0481  1.3198 -0.0670
  147SAPE   C1116090   4.081   3.163   7.325  1.4580  0.0741  0.1659
  147SAPE  H11A16091   4.159   3.212   7.263  0.5077  0.6537 -0.5978
  147SAPE  H11B16092   4.114   3.160   7.431 -1.2114  3.2507  1.2750
  147SAPE     P16093   3.920   3.364   7.239 -0.0453 -0.1489  0.7143
  147SAPE   O1316094   3.784   3.405   7.268  0.0762 -0.4821 -0.4009
  147SAPE   O1416095   4.030   3.465   7.244  0.8432 -0.0794 -0.3279
  147SAPE   O1216096   3.959   3.246   7.333  0.0693  0.1556 -0.0876
  147SAPE   O1116097   3.923   3.295   7.098  0.2504 -0.5005  0.2766
  147SAPE    C116098   3.858   3.356   6.981  0.0002 -0.4225 -0.2877
  147SAPE    HA16099   3.748   3.359   6.997 -0.3848  3.4786 -2.5265
  147SAPE    HB16100   3.891   3.461   6.966 -2.1462  0.3269 -0.1524
  147SAPE    C216101   3.877   3.276   6.844  0.1044 -0.4913 -0.3845
  147SAPE    HS16102   3.804   3.305   6.766  0.2834  2.7603  0.4909
  147SAPE   O2116103   3.874   3.136   6.870  0.3273  0.0031  0.3302
  147SAPE   C2116104   3.745   3.096   6.885  0.5608  0.4120 -0.1646
  147SAPE   O2216105   3.648   3.171   6.878 -0.2867 -0.0175 -0.1013
  147SAPE   C2216106   3.740   2.947   6.901 -0.2414 -0.7182  0.2816
  147SAPE   H2R16107   3.821   2.893   6.954 -1.6876 -3.6436 -0.2611
  147SAPE   H2S16108   3.643   2.921   6.949 -0.2401  0.6203  1.0782
  147SAPE    C316109   4.029   3.301   6.792  0.2482  0.2224 -0.1134
  147SAPE    HX16110   4.095   3.260   6.872 -1.3720  0.1400  1.2372
  147SAPE    HY16111   4.066   3.406   6.791  1.5394 -0.1271  2.4051
  147SAPE   O3116112   4.053   3.248   6.664 -0.6560 -0.2862  0.4707
  147SAPE   C3116113   4.169   3.189   6.642  0.3288 -0.0185  0.7420
  147SAPE   O3216114   4.254   3.179   6.730  0.2081 -0.0657  0.4410
  147SAPE   C3216115   4.172   3.133   6.499  0.6509  0.0924 -0.4247
  147SAPE   H2X16116   4.078   3.074   6.493 -1.0736  2.3694  1.9586
  147SAPE   H2Y16117   4.264   3.071   6.489 -0.1798 -1.0924 -1.0299
  147SAPE   C2316118   3.713   2.875   6.767  0.4544 -0.3689  0.5615
  147SAPE   H3R16119   3.617   2.917   6.732 -0.3893 -1.5673  1.3574
  147SAPE   H3S16120   3.682   2.771   6.787  2.4940 -1.1484 -0.0695
  147SAPE   C2416121   3.823   2.888   6.652  0.1669  0.1149 -0.8458
  147SAPE   H4R16122   3.840   2.994   6.622  1.6550  0.2757  0.4377
  147SAPE   H4S16123   3.794   2.820   6.569 -2.1892 -1.0689  0.8625
  147SAPE   C2516124   3.956   2.847   6.714 -1.2539  0.3714  0.0235
  147SAPE   H5R16125   3.977   2.893   6.812 -0.4423 -1.5774  0.8160
  147SAPE   C2616126   4.044   2.765   6.659  0.0519 -0.2795 -0.3185
  147SAPE   H6R16127   4.138   2.756   6.716 -0.6582  1.4723  1.2306
  147SAPE   C2716128   4.047   2.701   6.522  0.4941  0.5349  0.2977
  147SAPE   H7R16129   3.969   2.746   6.456  0.3391  0.2807  0.3056
  147SAPE   H7S16130   4.001   2.600   6.527  0.7661  0.2487 -1.8467
  147SAPE   C2816131   4.181   2.700   6.450  0.0508 -0.3490  0.2404
  147SAPE   H8R16132   4.198   2.800   6.408 -0.7351 -0.5460 -0.5803
  147SAPE   C2916133   4.255   2.592   6.422  0.3556  0.7526 -1.0370
  147SAPE   H9R16134   4.341   2.601   6.355 -0.5507 -0.3156 -2.3839
  147SAPE  C21016135   4.221   2.448   6.470  0.5868 -0.4839 -0.0759
  147SAPE  H10R16136   4.196   2.450   6.578 -0.5144 -0.7504 -0.3101
  147SAPE  H10S16137   4.313   2.387   6.462  0.6860 -0.3248 -0.1384
  147SAPE  C21116138   4.114   2.371   6.395  0.4810 -0.3210  0.4444
  147SAPE  H11R16139   4.011   2.373   6.434  0.6683  0.3152  0.9317
  147SAPE  C21216140   4.117   2.300   6.271 -0.4727 -0.5139 -0.1600
  147SAPE  H12R16141   4.030   2.242   6.239  0.5401 -1.8369 -0.6215
  147SAPE  C21316142   4.241   2.292   6.181 -0.1702  0.5558  0.4022
  147SAPE  H13R16143   4.288   2.193   6.196 -0.5728  0.5654  1.9410
  147SAPE  H13S16144   4.320   2.360   6.218 -1.1838  1.7375  0.4650
  147SAPE  C21416145   4.227   2.311   6.027 -0.1658 -0.0683  0.1030
  147SAPE  H14R16146   4.180   2.226   5.973 -1.8969  1.4640 -0.9240
  147SAPE  C21516147   4.261   2.421   5.957 -0.2845 -0.4072 -0.3276
  147SAPE  H15R16148   4.264   2.429   5.847  4.0108 -1.5575 -0.4471
  147SAPE  C21616149   4.322   2.546   6.015 -0.7384  0.7743  0.0923
  147SAPE  H16R16150   4.405   2.584   5.950  0.6189 -2.7185 -0.4067
  147SAPE  H16S16151   4.383   2.525   6.106  0.2885  0.5308 -0.6311
  147SAPE  C21716152   4.225   2.663   6.044 -0.0813  0.3280  0.4475
  147SAPE  H17R16153   4.293   2.732   6.099 -0.7825  0.9927  0.4992
  147SAPE  H17S16154   4.143   2.624   6.107  0.6447 -1.4619  0.3529
  147SAPE  C21816155   4.170   2.729   5.918 -0.1298 -0.5794 -0.3801
  147SAPE  H18R16156   4.099   2.669   5.857 -0.1294  1.3233 -2.3608
  147SAPE  H18S16157   4.254   2.766   5.856  0.1557 -0.1138  0.2727
  147SAPE  C21916158   4.100   2.845   5.968  0.5007 -0.5605  0.3627
  147SAPE  H19R16159   4.160   2.919   6.025 -1.4505  2.6911 -1.4706
  147SAPE  H19S16160   4.015   2.816   6.033  1.7434 -1.7116  1.5270
  147SAPE  C22016161   4.041   2.913   5.848  0.4773 -0.2715 -0.0977
  147SAPE  H20R16162   3.950   2.857   5.818 -0.3286  0.9948 -0.1063
  147SAPE  H20S16163   4.110   2.928   5.762  0.6201 -0.0216  0.0564
  147SAPE  H20T16164   4.010   3.015   5.879  0.9526 -0.9957  3.1165
  147SAPE   C3316165   4.153   3.244   6.391 -0.1229 -0.1829  0.8069
  147SAPE   H3X16166   4.222   3.328   6.416 -1.8511  1.6842 -0.3058
  147SAPE   H3Y16167   4.050   3.286   6.389 -0.2767 -0.5855  0.1380
  147SAPE   C3416168   4.204   3.194   6.256  0.0738  0.7918 -0.2315
  147SAPE   H4X16169   4.138   3.117   6.210 -0.3520  1.2774 -0.4391
  147SAPE   H4Y16170   4.306   3.152   6.261  0.4851  1.5077 -1.9327
  147SAPE   C3516171   4.225   3.300   6.144  0.6388  0.2615 -0.9866
  147SAPE   H5X16172   4.309   3.364   6.178 -1.3246  2.0189  0.8222
  147SAPE   H5Y16173   4.129   3.353   6.124  1.1091  0.9571 -1.4569
  147SAPE   C3616174   4.244   3.236   6.009 -0.7912  0.0361  0.7294
  147SAPE   H6X16175   4.160   3.166   5.987 -0.5363 -0.4799  1.3459
  147SAPE   H6Y16176   4.334   3.170   6.007 -0.4659  0.4847  0.4848
  147SAPE   C3716177   4.249   3.337   5.891  0.0141 -0.4233 -0.0441
  147SAPE   H7X16178   4.349   3.383   5.908 -0.8290  0.6718  2.3664
  147SAPE   H7Y16179   4.181   3.424   5.907 -0.5740 -0.7547 -0.6885
  147SAPE   C3816180   4.233   3.262   5.759 -0.0223  0.0276  0.4262
  147SAPE   H8X16181   4.137   3.206   5.762 -0.8535  1.2243 -1.5843
  147SAPE   H8Y16182   4.313   3.185   5.757  1.7166  1.6686  2.2285
  147SAPE   C3916183   4.226   3.341   5.627 -0.2634 -0.4727 -0.3079
  147SAPE   H9X16184   4.323   3.384   5.594 -0.1857  0.0344  0.5322
  147SAPE   H9Y16185   4.156   3.426   5.635  1.1878  0.6936  0.6691
  147SAPE  C31016186   4.183   3.247   5.515 -0.1918  0.3126  0.0671
  147SAPE  H10X16187   4.083   3.210   5.546  1.1063 -2.1591  1.6618
  147SAPE  H10Y16188   4.244   3.155   5.502 -0.8574 -0.1887  0.4228
  147SAPE  C31116189   4.177   3.327   5.386 -0.4058  0.6726  0.2755
  147SAPE  H11X16190   4.271   3.384   5.370 -0.9470  1.0385 -1.9590
  147SAPE  H11Y16191   4.092   3.398   5.386  0.2088  1.4396 -1.1148
  147SAPE  C31216192   4.141   3.240   5.266 -0.1779  0.4415 -0.3655
  147SAPE  H12X16193   4.039   3.198   5.282 -0.3818  1.5702  1.5837
  147SAPE  H12Y16194   4.214   3.157   5.250  0.5812  1.2205 -0.9942
  147SAPE  C31316195   4.154   3.324   5.137  0.0557 -0.4211 -0.1791
  147SAPE  H13X16196   4.260   3.353   5.128 -0.2686  2.0181  2.4025
  147SAPE  H13Y16197   4.082   3.408   5.149 -0.8086 -1.2798  0.8920
  147SAPE  C31416198   4.109   3.242   5.012 -0.3713  0.5366  0.7113
  147SAPE  H14X16199   4.008   3.201   5.033 -0.9537  0.5355 -1.7635
  147SAPE  H14Y16200   4.180   3.159   4.991  2.4769  3.2425 -1.2664
  147SAPE  C31516201   4.097   3.306   4.877 -0.1193  0.2438  0.1511
  147SAPE  H15X16202   4.080   3.229   4.800 -3.2820  1.1164 -0.1640
  147SAPE  H15Y16203   4.192   3.363   4.868 -0.8444  1.7211  1.2012
  147SAPE  C31616204   3.970   3.400   4.866  1.0391 -0.3213  0.3540
  147SAPE  H16X16205   3.964   3.482   4.941  0.0399  0.9235 -1.0391
  147SAPE  H16Y16206   3.880   3.336   4.879  1.6419 -1.6133 -1.4042
  147SAPE  C31716207   3.943   3.452   4.726 -0.0724  0.1863  0.4300
  147SAPE  H17X16208   3.961   3.364   4.661 -1.4358 -0.3434  0.7380
  147SAPE  H17Y16209   4.011   3.536   4.702 -0.0711  0.1724  0.3854
  147SAPE  C31816210   3.803   3.503   4.698  0.8803  0.2061 -0.2091
  147SAPE  H18X16211   3.727   3.425   4.721  2.1714 -0.5909  1.6382
  147SAPE  H18Y16212   3.793   3.533   4.591 -2.6956 -2.9951 -0.9766
  147SAPE  H18Z16213   3.785   3.600   4.749 -0.2452  0.7719 -1.6228
  148SAPE     N16214   3.526   4.493   7.164  0.0585 -0.0185  0.3197
  148SAPE   HN116215   3.476   4.473   7.075  1.7943 -3.5984 -0.0382
  148SAPE   HN216216   3.562   4.399   7.190 -1.6861 -0.5023  1.0836
  148SAPE   HN316217   3.455   4.535   7.226 -0.6518  1.9428 -1.6588
  148SAPE   C1216218   3.636   4.589   7.138 -0.6739  0.3214  0.7036
  148SAPE  H12A16219   3.708   4.539   7.070 -1.7792  2.8777 -2.6084
  148SAPE  H12B16220   3.682   4.616   7.235  2.0645 -0.0391 -0.4158
  148SAPE   C1116221   3.579   4.712   7.059 -0.8239  0.1613  0.1767
  148SAPE  H11A16222   3.529   4.667   6.971 -0.9611 -0.9368  0.7909
  148SAPE  H11B16223   3.666   4.772   7.025 -0.0080 -1.9597 -1.7387
  148SAPE     P16224   3.521   4.910   7.218 -0.5408 -0.1464 -0.0311
  148SAPE   O1316225   3.398   4.979   7.252 -0.1078 -0.0695 -0.4654
  148SAPE   O1416226   3.616   4.869   7.323  0.2705  0.1069  0.4828
  148SAPE   O1216227   3.483   4.787   7.133 -0.2181 -0.0065 -0.2855
  148SAPE   O1116228   3.604   5.005   7.122 -0.5665  0.1296 -0.6385
  148SAPE    C116229   3.551   5.034   6.992 -0.1230 -0.4264  0.5554
  148SAPE    HA16230   3.514   4.943   6.940 -0.1982 -1.8144  2.9047
  148SAPE    HB16231   3.485   5.123   6.992  0.5501  0.0790  0.0092
  148SAPE    C216232   3.664   5.077   6.889  0.3875  0.5775 -0.7083
  148SAPE    HS16233   3.749   5.010   6.916  0.4654  1.1285  0.4976
  148SAPE   O2116234   3.695   5.217   6.914  0.1834 -0.5251  0.4940
  148SAPE   C2116235   3.805   5.258   6.869  0.0682  0.4755 -0.2853
  148SAPE   O2216236   3.893   5.194   6.818 -0.1901  0.5438  0.7179
  148SAPE   C2216237   3.807   5.407   6.893  0.1130  0.7071 -0.0927
  148SAPE   H2R16238   3.786   5.435   6.999 -1.1507  0.8995 -0.3808
  148SAPE   H2S16239   3.912   5.441   6.876  0.1097  0.2109 -1.2057
  148SAPE    C316240   3.618   5.037   6.742 -0.1792  0.2621  0.5392
  148SAPE    HX16241   3.609   4.927   6.752 -1.5256  0.4097  1.2113
  148SAPE    HY16242   3.704   5.050   6.673  0.1286 -0.4578  0.7807
  148SAPE   O3116243   3.494   5.096   6.700 -0.2516  0.0209 -0.5080
  148SAPE   C3116244   3.407   5.015   6.635  0.5022  0.0081  0.5697
  148SAPE   O3216245   3.419   4.897   6.614  0.2368 -0.5025 -0.3557
  148SAPE   C3216246   3.277   5.098   6.608 -0.5187  0.3326  0.6219
  148SAPE   H2X16247   3.304   5.205   6.594  2.5520 -0.6466 -2.0261
  148SAPE   H2Y16248   3.203   5.086   6.690  0.5239  1.5592  1.7814
  148SAPE   C2316249   3.709   5.487   6.808 -0.5303 -0.5800  0.4917
  148SAPE   H3R16250   3.730   5.590   6.842 -2.0357 -0.2239  0.4052
  148SAPE   H3S16251   3.602   5.467   6.828 -0.5253 -0.4635  0.6313
  148SAPE   C2416252   3.736   5.484   6.653  0.1238 -0.4062 -0.4897
  148SAPE   H4R16253   3.733   5.375   6.632 -1.6744 -1.0041  2.3305
  148SAPE   H4S16254   3.843   5.504   6.630 -0.0020  0.4676 -0.3587
  148SAPE   C2516255   3.648   5.575   6.572  0.3165  0.9280 -0.2795
  148SAPE   H5R16256   3.652   5.680   6.608  1.0964  0.1898  1.9988
  148SAPE   C2616257   3.580   5.548   6.463  0.4538  0.2118 -0.4517
  148SAPE   H6R16258   3.534   5.636   6.417  0.1243  0.5653  0.5228
  148SAPE   C2716259   3.556   5.414   6.408  0.1492  0.2186 -0.5997
  148SAPE   H7R16260   3.490   5.354   6.475  2.1723  0.3223  1.6016
  148SAPE   H7S16261   3.652   5.359   6.413  0.3531  0.6686  3.4947
  148SAPE   C2816262   3.503   5.414   6.268 -0.2840 -0.0002  0.1539
  148SAPE   H8R16263   3.582   5.388   6.197 -1.7029  0.2417 -1.6025
  148SAPE   C2916264   3.377   5.439   6.234  0.1586  0.1320  0.3383
  148SAPE   H9R16265   3.350   5.448   6.127  2.3905  0.2903 -0.2679
  148SAPE  C21016266   3.266   5.468   6.331 -0.7339  0.2855  0.2570
  148SAPE  H10R16267   3.285   5.571   6.368  2.1996 -0.1500  0.2439
  148SAPE  H10S16268   3.274   5.395   6.415  0.0558 -1.4051 -1.2275
  148SAPE  C21116269   3.122   5.471   6.284  0.5767  0.0872  0.1020
  148SAPE  H11R16270   3.063   5.395   6.336  0.7921 -0.3389 -0.2660
  148SAPE  C21216271   3.067   5.544   6.181  0.6520 -0.7944 -0.2201
  148SAPE  H12R16272   2.960   5.528   6.163  0.6785  0.0476 -1.1876
  148SAPE  C21316273   3.130   5.644   6.094  1.0232  0.1375 -0.4582
  148SAPE  H13R16274   3.240   5.626   6.086  0.9183 -0.3218 -0.9407
  148SAPE  H13S16275   3.112   5.742   6.142 -0.0857  0.6038 -1.7819
  148SAPE  C21416276   3.066   5.657   5.954  0.9619  0.6295  0.2369
  148SAPE  H14R16277   2.973   5.714   5.966 -0.4943 -1.3038 -1.1961
  148SAPE  C21516278   3.097   5.599   5.836  0.7463  0.0247 -0.0091
  148SAPE  H15R16279   3.036   5.622   5.747 -0.5733 -0.7737  0.6684
  148SAPE  C21616280   3.204   5.499   5.816  0.1812 -0.0802 -0.7440
  148SAPE  H16R16281   3.247   5.464   5.912 -0.5794  0.5290 -0.1689
  148SAPE  H16S16282   3.282   5.556   5.761 -1.5253  1.6007 -1.5351
  148SAPE  C21716283   3.152   5.366   5.753 -0.0172  0.3884  0.4881
  148SAPE  H17R16284   3.079   5.320   5.823  0.6760 -0.2730  0.7880
  148SAPE  H17S16285   3.237   5.295   5.744  1.2800  1.5703  2.6524
  148SAPE  C21816286   3.071   5.377   5.627 -0.1877 -0.3833 -0.3206
  148SAPE  H18R16287   2.985   5.447   5.632 -0.9119 -1.3365  2.4391
  148SAPE  H18S16288   3.020   5.279   5.614 -1.4336  0.2491 -0.3369
  148SAPE  C21916289   3.150   5.400   5.491  0.3455  0.2238  0.0822
  148SAPE  H19R16290   3.242   5.339   5.504  1.2802  1.6466  0.3577
  148SAPE  H19S16291   3.185   5.505   5.492 -0.2405  0.4191  0.4843
  148SAPE  C22016292   3.066   5.370   5.371  0.2615 -0.5568 -0.0149
  148SAPE  H20R16293   2.956   5.371   5.386  0.1368  1.0070 -0.8066
  148SAPE  H20S16294   3.079   5.263   5.343 -1.2282 -0.6227 -0.5276
  148SAPE  H20T16295   3.090   5.433   5.282 -1.2197 -2.4208 -1.8407
  148SAPE   C3316296   3.217   5.032   6.480  0.4861  0.1448 -0.3749
  148SAPE   H3X16297   3.182   4.931   6.511 -1.7421  0.5711 -1.3453
  148SAPE   H3Y16298   3.299   5.017   6.406  0.5533 -1.2397 -0.0499
  148SAPE   C3416299   3.111   5.113   6.413 -0.0270  0.0015  0.0895
  148SAPE   H4X16300   3.161   5.201   6.367  0.8500 -0.4352  0.1678
  148SAPE   H4Y16301   3.052   5.149   6.500  1.0279 -1.8086  1.6342
  148SAPE   C3516302   3.026   5.023   6.317 -0.0961  0.1157  0.2631
  148SAPE   H5X16303   2.934   5.068   6.275 -0.3751 -0.4730  0.2342
  148SAPE   H5Y16304   2.984   4.935   6.369 -0.2228  0.5144  0.8465
  148SAPE   C3616305   3.105   4.982   6.194  0.2386  0.3608  0.7508
  148SAPE   H6X16306   3.045   4.911   6.133  2.2996  0.1219 -1.1388
  148SAPE   H6Y16307   3.195   4.922   6.220 -0.2136  0.1691  1.9362
  148SAPE   C3716308   3.125   5.105   6.102  0.8142  0.2344 -0.1175
  148SAPE   H7X16309   3.190   5.178   6.155  1.1721  0.4875 -0.8991
  148SAPE   H7Y16310   3.024   5.141   6.075  1.2314  1.5632 -0.0156
  148SAPE   C3816311   3.199   5.057   5.973  0.2762 -0.5925  0.1633
  148SAPE   H8X16312   3.292   5.003   5.998  0.0913 -1.5085 -1.0134
  148SAPE   H8Y16313   3.215   5.152   5.917 -2.9495 -0.2967 -0.4679
  148SAPE   C3916314   3.114   4.969   5.876  0.1981  0.4482 -0.3207
  148SAPE   H9X16315   3.022   5.026   5.849  0.7215  1.4077 -0.1406
  148SAPE   H9Y16316   3.083   4.873   5.921 -1.4363  1.5105  0.9140
  148SAPE  C31016317   3.188   4.936   5.749 -0.7476 -0.2310 -0.6328
  148SAPE  H10X16318   3.274   4.868   5.766 -1.5774 -0.8357  1.4757
  148SAPE  H10Y16319   3.233   5.034   5.721 -0.5982  0.4869  1.9103
  148SAPE  C31116320   3.098   4.883   5.647  0.0654  0.7921 -0.0598
  148SAPE  H11X16321   3.047   4.791   5.682 -0.3557  1.0767  0.0720
  148SAPE  H11Y16322   3.155   4.837   5.563 -0.0044  1.2486 -0.3602
  148SAPE  C31216323   2.990   4.977   5.596 -0.0179 -0.2371 -0.0832
  148SAPE  H12X16324   3.032   5.054   5.528 -1.5914  0.3344 -0.4480
  148SAPE  H12Y16325   2.926   5.025   5.673 -0.0944  0.3773 -0.5254
  148SAPE  C31316326   2.897   4.905   5.500  0.6861  0.1836  0.3976
  148SAPE  H13X16327   2.799   4.958   5.493  1.9229  2.4656 -0.4995
  148SAPE  H13Y16328   2.872   4.803   5.537 -1.2714  0.4255 -0.1603
  148SAPE  C31416329   2.937   4.909   5.353 -0.0993  0.0413 -0.2354
  148SAPE  H14X16330   3.030   4.851   5.334 -0.3169 -0.6398  0.6954
  148SAPE  H14Y16331   2.960   5.011   5.315  0.5144 -0.4045 -1.1109
  148SAPE  C31516332   2.837   4.841   5.259  0.5874 -0.0531  0.3087
  148SAPE  H15X16333   2.750   4.910   5.245  0.0403 -1.0385 -1.4761
  148SAPE  H15Y16334   2.806   4.747   5.309 -0.8649 -0.7148 -1.6781
  148SAPE  C31616335   2.893   4.817   5.121  0.3644 -0.0118  0.4416
  148SAPE  H16X16336   2.985   4.757   5.136  0.9386  0.8708  0.5622
  148SAPE  H16Y16337   2.919   4.911   5.067 -2.3863  1.1647  1.0020
  148SAPE  C31716338   2.779   4.752   5.037 -0.1042 -0.8362 -0.4951
  148SAPE  H17X16339   2.687   4.814   5.035  0.3253 -0.1298  0.6416
  148SAPE  H17Y16340   2.751   4.653   5.080  0.1084 -0.1729  1.2461
  148SAPE  C31816341   2.808   4.730   4.890 -0.0710  0.0840  0.0363
  148SAPE  H18X16342   2.716   4.702   4.835  0.3677 -0.3436 -0.5035
  148SAPE  H18Y16343   2.883   4.647   4.895  0.1707  0.3786  2.6390
  148SAPE  H18Z16344   2.852   4.819   4.840 -0.4640 -0.2183 -0.8727
  149SAPE     N16345   2.673   4.372   6.845  0.0138 -0.1074  0.1708
  149SAPE   HN116346   2.664   4.471   6.813 -2.1856 -0.3155 -0.0235
  149SAPE   HN216347   2.613   4.366   6.929 -0.4944 -0.1448 -0.1898
  149SAPE   HN316348   2.770   4.351   6.874 -0.6352 -0.5600  2.1710
  149SAPE   C1216349   2.619   4.286   6.727  0.4909  0.4068 -0.3090
  149SAPE  H12A16350   2.652   4.183   6.750  2.5430  0.9517 -0.5875
  149SAPE  H12B16351   2.662   4.330   6.635 -0.4932  2.3047  0.0814
  149SAPE   C1116352   2.466   4.285   6.728 -0.3449  0.6116 -0.5716
  149SAPE  H11A16353   2.434   4.219   6.645  2.5618  0.0369 -1.3769
  149SAPE  H11B16354   2.425   4.387   6.712  1.8108  1.2842 -2.3454
  149SAPE     P16355   2.332   4.107   6.864  0.2271  0.5769 -0.1806
  149SAPE   O1316356   2.340   4.043   7.001  0.1895 -0.0218  0.0956
  149SAPE   O1416357   2.198   4.121   6.805 -0.3234 -0.2588 -0.1880
  149SAPE   O1216358   2.411   4.243   6.855 -0.0737  0.0312 -0.1439
  149SAPE   O1116359   2.421   4.016   6.767 -0.3980  0.3946 -0.3223
  149SAPE    C116360   2.391   3.870   6.765  0.0279 -0.9291 -0.3118
  149SAPE    HA16361   2.486   3.814   6.783 -0.0897 -0.4250  2.3261
  149SAPE    HB16362   2.324   3.826   6.842  2.4843 -1.8261  1.4300
  149SAPE    C216363   2.343   3.824   6.629  0.0389  0.3102  0.3001
  149SAPE    HS16364   2.362   3.716   6.615  1.6574  0.9038 -3.2463
  149SAPE   O2116365   2.401   3.899   6.520  0.3923  0.0005  0.4246
  149SAPE   C2116366   2.529   3.877   6.503  0.0254 -0.1779 -0.4068
  149SAPE   O2216367   2.596   3.790   6.560  0.3733  0.4316  0.4513
  149SAPE   C2216368   2.588   3.965   6.403 -0.2848 -0.1637  0.0644
  149SAPE   H2R16369   2.540   3.948   6.304  0.8191  1.4577 -0.7879
  149SAPE   H2S16370   2.562   4.068   6.436  0.8976  0.0981  0.2268
  149SAPE    C316371   2.195   3.841   6.612 -0.4919 -0.2348 -0.0081
  149SAPE    HX16372   2.174   3.950   6.608 -1.5029 -0.4516 -1.1936
  149SAPE    HY16373   2.136   3.797   6.695 -2.6649 -1.8167 -2.2376
  149SAPE   O3116374   2.141   3.773   6.499 -0.1112  0.6879 -0.1908
  149SAPE   C3116375   2.011   3.801   6.476  0.1086 -0.1752  0.2362
  149SAPE   O3216376   1.942   3.872   6.547  0.1849 -0.2389  0.7341
  149SAPE   C3216377   1.966   3.723   6.349  0.8594 -0.4724 -0.1497
  149SAPE   H2X16378   1.856   3.722   6.364  0.8033 -2.2550 -0.4613
  149SAPE   H2Y16379   2.016   3.624   6.357 -0.6785 -1.2447  0.2499
  149SAPE   C2316380   2.745   3.940   6.393 -0.3813  0.0638 -0.1776
  149SAPE   H3R16381   2.773   3.832   6.392 -3.2438 -0.7729  0.2560
  149SAPE   H3S16382   2.797   3.981   6.482 -0.5608 -1.0656  0.4707
  149SAPE   C2416383   2.807   4.018   6.276  0.3863  0.6264 -0.6341
  149SAPE   H4R16384   2.871   4.106   6.295 -1.2682  1.7550 -0.1150
  149SAPE   H4S16385   2.710   4.061   6.241 -1.6640 -3.0981 -0.1011
  149SAPE   C2516386   2.873   3.931   6.175  0.6931 -0.1325  0.4329
  149SAPE   H5R16387   2.907   3.838   6.222 -0.5688 -0.6916  0.2747
  149SAPE   C2616388   2.908   3.965   6.049  0.2955 -0.0897 -0.8613
  149SAPE   H6R16389   2.953   3.884   5.990  3.5459 -0.3049  1.5919
  149SAPE   C2716390   2.887   4.099   5.985 -0.2748 -0.0219  0.5960
  149SAPE   H7R16391   2.918   4.181   6.053 -2.7937  2.6138 -1.1795
  149SAPE   H7S16392   2.781   4.128   5.968 -0.3159 -0.2299  0.4906
  149SAPE   C2816393   2.963   4.116   5.851  0.8809 -0.8103  0.4806
  149SAPE   H8R16394   3.060   4.169   5.852 -0.7923  2.5169 -0.4575
  149SAPE   C2916395   2.929   4.063   5.735  0.1356  0.1214 -0.6592
  149SAPE   H9R16396   2.980   4.092   5.642 -1.1902 -2.0424 -2.1782
  149SAPE  C21016397   2.808   3.976   5.707 -0.0866  0.9360 -0.1902
  149SAPE  H10R16398   2.736   4.036   5.647  0.2692  3.5162  1.7335
  149SAPE  H10S16399   2.750   3.951   5.799 -3.6608  1.2694 -2.1953
  149SAPE  C21116400   2.845   3.852   5.624 -0.4484  0.5459  0.0632
  149SAPE  H11R16401   2.923   3.787   5.666  0.2103  1.0100 -0.4265
  149SAPE  C21216402   2.805   3.815   5.496 -0.3625 -0.0974 -0.3024
  149SAPE  H12R16403   2.844   3.717   5.464  1.6866  0.5115  0.1488
  149SAPE  C21316404   2.705   3.885   5.402 -0.2989 -0.1281 -0.7602
  149SAPE  H13R16405   2.753   3.954   5.330  1.1475  0.0843  0.3733
  149SAPE  H13S16406   2.644   3.949   5.470  1.7108  2.8548 -1.6014
  149SAPE  C21416407   2.627   3.795   5.307  0.0332  0.0545 -0.0613
  149SAPE  H14R16408   2.519   3.787   5.326 -0.3236 -1.7010 -2.2797
  149SAPE  C21516409   2.679   3.735   5.190  0.4018 -0.3428  0.0626
  149SAPE  H15R16410   2.614   3.675   5.125  2.0427 -1.8086 -0.3033
  149SAPE  C21616411   2.821   3.734   5.143  0.5440  0.0058  0.4567
  149SAPE  H16R16412   2.896   3.720   5.224  1.3959  2.4891  0.2017
  149SAPE  H16S16413   2.845   3.836   5.103 -0.4149  0.0180 -0.1087
  149SAPE  C21716414   2.833   3.625   5.030 -0.0438  0.7835  0.2953
  149SAPE  H17R16415   2.938   3.641   4.997  0.0809  1.5501  1.0312
  149SAPE  H17S16416   2.748   3.637   4.959 -2.4968  1.3186  3.1236
  149SAPE  C21816417   2.821   3.478   5.087  0.3564  0.0680  0.7410
  149SAPE  H18R16418   2.718   3.451   5.118  0.5397 -0.6220  0.7669
  149SAPE  H18S16419   2.885   3.480   5.179 -0.5276  3.4028  1.4085
  149SAPE  C21916420   2.873   3.375   4.977 -0.0070 -0.6150  0.1027
  149SAPE  H19R16421   2.973   3.412   4.946  0.5457 -2.3117 -0.2342
  149SAPE  H19S16422   2.804   3.379   4.890 -0.2847  2.9887  0.3287
  149SAPE  C22016423   2.887   3.238   5.035 -0.3900 -0.3534 -0.4987
  149SAPE  H20R16424   2.967   3.238   5.112 -2.7074 -0.7417  2.0660
  149SAPE  H20S16425   2.913   3.163   4.958  2.8355 -0.4429  0.5363
  149SAPE  H20T16426   2.790   3.214   5.084  0.5983 -0.4895  1.4894
  149SAPE   C3316427   2.009   3.802   6.216 -0.5359  0.0483  0.1369
  149SAPE   H3X16428   2.120   3.806   6.214 -0.4763  0.0786  1.8185
  149SAPE   H3Y16429   1.979   3.907   6.231  1.4905  0.5795  0.7562
  149SAPE   C3416430   1.957   3.736   6.093 -0.5342 -0.2279 -0.3723
  149SAPE   H4X16431   1.847   3.748   6.103 -0.3856 -0.1117  1.5963
  149SAPE   H4Y16432   1.989   3.631   6.081 -2.6292 -0.9209 -0.2212
  149SAPE   C3516433   2.001   3.807   5.965 -0.0086 -0.4488  0.6170
  149SAPE   H5X16434   2.110   3.819   5.953 -0.0718 -0.5819 -0.1064
  149SAPE   H5Y16435   1.961   3.910   5.962 -1.0601 -0.8014  1.4930
  149SAPE   C3616436   1.943   3.750   5.832  0.1692 -0.2843 -0.5958
  149SAPE   H6X16437   1.839   3.712   5.834 -0.0093  0.0415 -2.4228
  149SAPE   H6Y16438   2.010   3.663   5.815 -2.8512 -2.6005 -1.4164
  149SAPE   C3716439   1.957   3.838   5.712 -0.1049  0.8883 -0.5987
  149SAPE   H7X16440   2.064   3.830   5.681 -0.4928  2.8391 -2.6649
  149SAPE   H7Y16441   1.939   3.938   5.754  1.0923  0.3965  1.1928
  149SAPE   C3816442   1.871   3.787   5.599  0.4648  0.5709 -0.2960
  149SAPE   H8X16443   1.768   3.825   5.612  0.1281  0.0401 -1.3334
  149SAPE   H8Y16444   1.883   3.676   5.598  1.2878  0.6527 -0.6886
  149SAPE   C3916445   1.920   3.822   5.460 -0.2242  0.1881 -0.2184
  149SAPE   H9X16446   2.013   3.772   5.428 -0.4218 -0.1948 -0.2009
  149SAPE   H9Y16447   1.930   3.933   5.450 -0.2145  0.1479 -0.6678
  149SAPE  C31016448   1.815   3.790   5.353 -0.1938  0.5296  0.5771
  149SAPE  H10X16449   1.712   3.802   5.393 -0.1397  0.6563  0.6795
  149SAPE  H10Y16450   1.818   3.680   5.335 -2.7185  0.4260  0.4999
  149SAPE  C31116451   1.839   3.870   5.221  0.1664  0.4560  0.2307
  149SAPE  H11X16452   1.849   3.977   5.251  1.4273  0.0608  1.2768
  149SAPE  H11Y16453   1.745   3.864   5.162 -0.1500  3.1201  0.3289
  149SAPE  C31216454   1.969   3.836   5.149 -0.5515  0.6959 -0.2415
  149SAPE  H12X16455   1.973   3.725   5.140  0.0098  0.5583  1.3657
  149SAPE  H12Y16456   2.052   3.870   5.214  0.4539  0.7836 -1.5368
  149SAPE  C31316457   1.986   3.888   5.004  0.1219 -0.2505 -0.5135
  149SAPE  H13X16458   1.986   3.999   5.006 -0.9053 -0.2499  0.1698
  149SAPE  H13Y16459   1.899   3.857   4.941 -1.1419  0.4857  0.7928
  149SAPE  C31416460   2.124   3.843   4.940 -0.4320 -1.1455 -0.7467
  149SAPE  H14X16461   2.140   3.733   4.940 -0.7282 -1.1952  0.1157
  149SAPE  H14Y16462   2.209   3.879   5.001  1.6366 -3.5595 -2.0149
  149SAPE  C31516463   2.154   3.903   4.804  0.4449  0.0598  0.3276
  149SAPE  H15X16464   2.074   3.870   4.735 -1.7734  1.3763  2.1375
  149SAPE  H15Y16465   2.255   3.864   4.779  0.6138 -0.0515  1.1578
  149SAPE  C31616466   2.159   4.057   4.802  0.1901  0.2263 -0.0177
  149SAPE  H16X16467   2.259   4.086   4.841 -0.0888 -1.1145  1.8228
  149SAPE  H16Y16468   2.074   4.094   4.863  0.1699  2.2215 -1.1703
  149SAPE  C31716469   2.141   4.122   4.655  0.6236 -0.2439 -0.1901
  149SAPE  H17X16470   2.063   4.064   4.602  0.3424  0.3148 -0.3972
  149SAPE  H17Y16471   2.233   4.111   4.595  0.0772 -1.7527 -0.7810
  149SAPE  C31816472   2.092   4.266   4.662  0.2321 -0.4109  0.6106
  149SAPE  H18X16473   2.094   4.309   4.560 -1.4871  0.1313  0.7823
  149SAPE  H18Y16474   2.162   4.327   4.723 -1.1833 -1.3703  3.3630
  149SAPE  H18Z16475   1.994   4.277   4.713 -0.0964  0.0607 -0.1219
  150SAPE     N16476   0.933   3.704   7.064  0.2592  0.0652  0.2397
  150SAPE   HN116477   0.906   3.773   6.992  0.6857 -1.3147 -1.3033
  150SAPE   HN216478   1.036   3.697   7.052  0.3385  1.1068  0.2185
  150SAPE   HN316479   0.888   3.612   7.044 -1.3815  1.1212 -1.1831
  150SAPE   C1216480   0.904   3.771   7.196  0.0598 -0.1974 -0.5688
  150SAPE  H12A16481   0.960   3.719   7.277 -2.1341 -0.6452  0.7328
  150SAPE  H12B16482   0.797   3.764   7.223  0.6838 -1.6464  1.8195
  150SAPE   C1116483   0.942   3.920   7.181 -0.1087 -0.6368  0.3555
  150SAPE  H11A16484   1.037   3.932   7.125 -0.2219 -0.2095  0.2500
  150SAPE  H11B16485   0.965   3.970   7.278 -0.0811  0.0076  0.0244
  150SAPE     P16486   0.863   4.141   7.094  0.2744 -0.3315 -0.2552
  150SAPE   O1316487   0.784   4.215   7.193  0.6793 -0.5148  0.5709
  150SAPE   O1416488   1.010   4.174   7.094  0.0661 -0.1338 -0.3873
  150SAPE   O1216489   0.833   3.988   7.114 -0.2183 -0.2966 -0.6959
  150SAPE   O1116490   0.814   4.164   6.948 -0.9054  0.2110  0.3704
  150SAPE    C116491   0.679   4.139   6.901  0.0746 -0.7754 -0.0056
  150SAPE    HA16492   0.607   4.147   6.984 -0.5923  1.6882 -0.7194
  150SAPE    HB16493   0.659   4.225   6.833  0.6426  0.2441  1.0917
  150SAPE    C216494   0.666   4.001   6.830  0.1433 -0.2849 -0.3336
  150SAPE    HS16495   0.685   3.932   6.915 -1.5656 -0.3613  0.0203
  150SAPE   O2116496   0.765   3.990   6.726  0.4157  0.6061 -0.7100
  150SAPE   C2116497   0.876   3.926   6.761  0.1733 -0.2934  0.0241
  150SAPE   O2216498   0.888   3.856   6.858  0.1297 -0.0371 -0.3459
  150SAPE   C2216499   0.981   3.944   6.648  1.0771  0.2198 -0.6167
  150SAPE   H2R16500   0.959   3.873   6.566  0.1323  0.4415 -0.5681
  150SAPE   H2S16501   0.980   4.051   6.617 -0.9592  0.7321  0.9559
  150SAPE    C316502   0.522   3.983   6.773  0.4885  0.3447 -0.2963
  150SAPE    HX16503   0.518   3.877   6.741  0.7636  0.1280  0.3768
  150SAPE    HY16504   0.515   4.044   6.681 -2.1233 -0.4873 -0.7422
  150SAPE   O3116505   0.422   4.010   6.871 -0.5008 -0.1512  0.4498
  150SAPE   C3116506   0.297   3.996   6.823 -0.0235 -0.2020  0.8765
  150SAPE   O3216507   0.272   3.965   6.709  0.3250 -0.2700  0.0529
  150SAPE   C3216508   0.197   4.012   6.945 -0.2011 -0.3915 -0.1556
  150SAPE   H2X16509   0.184   4.120   6.970 -0.5965 -0.7527  1.2816
  150SAPE   H2Y16510   0.247   3.970   7.034 -1.6841  2.5980  2.2769
  150SAPE   C2316511   1.126   3.920   6.700 -0.4970  0.6041  0.6942
  150SAPE   H3R16512   1.130   3.820   6.749 -0.3510  1.1582  1.8437
  150SAPE   H3S16513   1.159   3.995   6.774  0.7520  2.0222 -1.2189
  150SAPE   C2416514   1.230   3.911   6.583 -0.9983  0.5014 -0.4423
  150SAPE   H4R16515   1.219   3.815   6.527  3.6257  0.6182 -2.0179
  150SAPE   H4S16516   1.329   3.921   6.632 -1.2443 -1.2323  0.4862
  150SAPE   C2516517   1.223   4.016   6.477  0.4625 -0.0230 -0.2391
  150SAPE   H5R16518   1.252   4.115   6.515 -0.7180  1.0643 -2.0089
  150SAPE   C2616519   1.162   4.019   6.357 -0.1673  0.4954 -0.5159
  150SAPE   H6R16520   1.165   4.115   6.303 -0.2892  1.6094  1.3510
  150SAPE   C2716521   1.099   3.898   6.292 -0.0671  0.5056 -0.3369
  150SAPE   H7R16522   1.079   3.824   6.373 -0.3661  0.3517 -0.5514
  150SAPE   H7S16523   1.171   3.844   6.226 -1.3044 -0.0185 -1.2926
  150SAPE   C2816524   0.968   3.905   6.219  0.9981  0.0751 -0.0673
  150SAPE   H8R16525   0.879   3.885   6.280  0.9676 -1.3862 -0.5625
  150SAPE   C2916526   0.942   3.931   6.092  0.2819  0.1064  0.1407
  150SAPE   H9R16527   0.841   3.948   6.053  0.1507  2.9623  1.4926
  150SAPE  C21016528   1.046   3.968   5.993  0.7152  1.3139 -1.0554
  150SAPE  H10R16529   1.145   3.972   6.045  0.4376 -1.3108 -0.1716
  150SAPE  H10S16530   1.023   4.067   5.949 -0.8449  0.5121 -2.1247
  150SAPE  C21116531   1.047   3.895   5.863 -0.5152 -0.6089  0.7395
  150SAPE  H11R16532   0.977   3.810   5.855  0.0155 -0.8512 -3.2098
  150SAPE  C21216533   1.127   3.924   5.751  0.0240  0.1470  0.4434
  150SAPE  H12R16534   1.131   3.850   5.669  0.9293  1.0338 -0.3281
  150SAPE  C21316535   1.212   4.044   5.735 -0.2351 -0.0512 -1.1553
  150SAPE  H13R16536   1.303   4.013   5.680 -0.1784 -0.3873 -0.8738
  150SAPE  H13S16537   1.234   4.079   5.838 -0.8282 -1.6259 -0.4716
  150SAPE  C21416538   1.140   4.147   5.656  0.2557  0.8256 -0.4987
  150SAPE  H14R16539   1.094   4.230   5.711 -1.7481 -1.4042  1.3900
  150SAPE  C21516540   1.132   4.141   5.519 -0.1969 -0.0902 -0.3367
  150SAPE  H15R16541   1.077   4.224   5.472 -0.0961  0.1723  0.0082
  150SAPE  C21616542   1.185   4.042   5.424 -0.4781 -0.8634  0.3815
  150SAPE  H16R16543   1.100   3.988   5.377  0.3656 -2.2312  0.3573
  150SAPE  H16S16544   1.250   3.969   5.477 -0.2079 -0.8720  0.0471
  150SAPE  C21716545   1.256   4.105   5.302 -0.3291  0.6909 -0.5593
  150SAPE  H17R16546   1.305   4.026   5.241 -0.9280  0.3263 -0.5747
  150SAPE  H17S16547   1.334   4.181   5.323  1.4644 -1.7975  2.6327
  150SAPE  C21816548   1.161   4.195   5.214 -0.1620  0.4390  0.1807
  150SAPE  H18R16549   1.221   4.231   5.128  0.3578 -2.3449 -0.7282
  150SAPE  H18S16550   1.127   4.284   5.272 -0.2332  1.7042 -1.6894
  150SAPE  C21916551   1.041   4.133   5.139  0.6510 -1.3351 -0.8764
  150SAPE  H19R16552   0.988   4.215   5.088  2.2848 -0.1050 -0.6945
  150SAPE  H19S16553   0.965   4.107   5.216 -1.2743  0.1637 -2.2001
  150SAPE  C22016554   1.075   4.009   5.052  0.0638  0.4464 -0.0533
  150SAPE  H20R16555   1.135   3.943   5.119  1.1422  1.6533  0.2168
  150SAPE  H20S16556   1.134   4.032   4.960  0.3809  1.9624  0.5109
  150SAPE  H20T16557   0.984   3.956   5.017  0.1300  1.3266 -1.6747
  150SAPE   C3316558   0.067   3.932   6.928 -0.1085  0.7780  0.6992
  150SAPE   H3X16559   0.012   3.914   7.023  1.7627 -0.9984  1.5098
  150SAPE   H3Y16560   0.100   3.830   6.901  1.4198  1.8750 -1.8856
  150SAPE   C3416561  -0.023   3.990   6.825 -0.0200  0.3219 -0.1174
  150SAPE   H4X16562   0.027   4.011   6.728  0.3193 -1.4518 -0.3617
  150SAPE   H4Y16563  -0.058   4.086   6.868 -1.1155 -0.1041 -0.0109
  150SAPE   C3516564  -0.148   3.911   6.799 -0.1010  0.4187 -0.0385
  150SAPE   H5X16565  -0.189   3.883   6.899 -0.2258  1.5447  0.2351
  150SAPE   H5Y16566  -0.111   3.825   6.739  0.4700  0.6650 -0.0448
  150SAPE   C3616567  -0.254   3.990   6.710 -0.2665 -0.3914  0.0667
  150SAPE   H6X16568  -0.288   4.084   6.759 -0.7972 -0.8951  0.6977
  150SAPE   H6Y16569  -0.339   3.920   6.696  0.1480 -0.6816 -1.0359
  150SAPE   C3716570  -0.206   4.033   6.568  0.4751  0.2481 -0.1296
  150SAPE   H7X16571  -0.116   4.097   6.577  1.1133 -0.6389 -0.0666
  150SAPE   H7Y16572  -0.283   4.104   6.530 -0.8830 -0.9689  0.2406
  150SAPE   C3816573  -0.197   3.921   6.467 -0.5934  0.0581 -0.9849
  150SAPE   H8X16574  -0.298   3.886   6.436 -0.1731 -2.1139 -0.1079
  150SAPE   H8Y16575  -0.139   3.840   6.516 -1.5048  0.6632  1.2580
  150SAPE   C3916576  -0.150   3.968   6.328  0.0280 -0.4251  0.4725
  150SAPE   H9X16577  -0.216   4.055   6.309 -2.2047 -1.8858  1.2145
  150SAPE   H9Y16578  -0.165   3.890   6.251 -1.1191 -0.1727  0.4325
  150SAPE  C31016579  -0.011   4.038   6.312 -0.0211  0.3809 -0.3095
  150SAPE  H10X16580   0.064   3.984   6.373 -0.7063 -0.3174 -0.0673
  150SAPE  H10Y16581  -0.019   4.140   6.356  1.8189  1.1500 -1.6092
  150SAPE  C31116582   0.031   4.044   6.166  0.4795  0.5045 -0.3185
  150SAPE  H11X16583   0.063   3.950   6.117  1.1735  0.5994 -0.0643
  150SAPE  H11Y16584   0.121   4.109   6.173 -0.7686  2.5047 -1.9631
  150SAPE  C31216585  -0.069   4.112   6.066  0.0648 -0.3783  0.4452
  150SAPE  H12X16586  -0.101   4.209   6.109  0.0362 -0.9376  1.7260
  150SAPE  H12Y16587  -0.161   4.050   6.060 -1.9260  2.4271  0.2105
  150SAPE  C31316588  -0.009   4.126   5.924  0.3851 -0.1079  0.0288
  150SAPE  H13X16589   0.004   4.021   5.890 -3.1751 -0.4486 -0.6721
  150SAPE  H13Y16590   0.086   4.183   5.935  0.0296  0.5013 -0.0268
  150SAPE  C31416591  -0.110   4.193   5.841 -0.6088  0.6257  0.2194
  150SAPE  H14X16592  -0.140   4.295   5.874 -0.1856  0.3415  1.5364
  150SAPE  H14Y16593  -0.203   4.133   5.851 -0.3330  0.1232 -0.2267
  150SAPE  C31516594  -0.059   4.213   5.691  0.6584  0.2314 -0.4126
  150SAPE  H15X16595  -0.021   4.115   5.656  0.7036  0.2311 -0.3637
  150SAPE  H15Y16596   0.038   4.265   5.707  0.2101  1.0941 -0.4306
  150SAPE  C31616597  -0.156   4.274   5.594  0.2607 -0.6126 -0.1398
  150SAPE  H16X16598  -0.173   4.376   5.635  1.1935  0.0161 -1.2587
  150SAPE  H16Y16599  -0.245   4.208   5.594  1.1541 -1.8457 -0.0077
  150SAPE  C31716600  -0.119   4.310   5.447  0.3983  0.0853  0.3753
  150SAPE  H17X16601  -0.121   4.218   5.385 -1.3539 -0.3193  0.9795
  150SAPE  H17Y16602  -0.016   4.349   5.460  0.9534 -1.4419  0.8306
  150SAPE  C31816603  -0.212   4.418   5.376 -0.6147  0.2506  0.0631
  150SAPE  H18X16604  -0.205   4.506   5.444  0.4767  0.2086  0.0303
  150SAPE  H18Y16605  -0.314   4.376   5.388 -0.8416  0.7211 -0.1980
  150SAPE  H18Z16606  -0.196   4.448   5.270 -0.0017  1.6734  0.5228
  151SAPE     N16607   5.213   4.374   7.610 -1.0474  0.4185  0.4299
  151SAPE   HN116608   5.297   4.372   7.671 -0.1423 -1.4388 -0.8007
  151SAPE   HN216609   5.230   4.452   7.543 -0.3408 -0.0923 -0.0071
  151SAPE   HN316610   5.125   4.390   7.663 -0.7611  1.6350  0.5759
  151SAPE   C1216611   5.204   4.243   7.540 -1.1335 -0.1399  0.5491
  151SAPE  H12A16612   5.290   4.233   7.469  0.1830 -1.9206  2.3125
  151SAPE  H12B16613   5.117   4.246   7.471 -2.0653 -0.0127  1.7008
  151SAPE   C1116614   5.200   4.124   7.634  0.1867 -0.3202  0.0477
  151SAPE  H11A16615   5.113   4.143   7.701 -1.1197  0.9350 -1.8742
  151SAPE  H11B16616   5.299   4.109   7.681  0.0899  0.0613  0.3816
  151SAPE     P16617   5.206   3.872   7.589  0.0502  0.1215  0.0584
  151SAPE   O1316618   5.250   3.856   7.731  0.4272 -0.3947  0.5121
  151SAPE   O1416619   5.111   3.770   7.540  0.7082 -0.4244  0.3401
  151SAPE   O1216620   5.158   4.017   7.554  0.5093  0.2746 -0.1584
  151SAPE   O1116621   5.330   3.872   7.493  0.6827 -0.6034 -0.3323
  151SAPE    C116622   5.327   3.938   7.362 -0.0752 -0.3169  0.3800
  151SAPE    HA16623   5.245   4.013   7.360 -1.1507 -1.4581 -2.1580
  151SAPE    HB16624   5.423   3.993   7.347 -0.6558  1.2685  2.0498
  151SAPE    C216625   5.301   3.842   7.244 -0.2876 -0.1384  0.1166
  151SAPE    HS16626   5.198   3.808   7.266 -0.3600  0.0798  0.1122
  151SAPE   O2116627   5.401   3.733   7.238 -0.4817 -0.3467  0.4106
  151SAPE   C2116628   5.363   3.620   7.191  0.2601 -0.0575  0.0020
  151SAPE   O2216629   5.249   3.577   7.170 -0.0702  0.2547  0.0461
  151SAPE   C2216630   5.493   3.546   7.160  0.5589 -0.5343 -0.5308
  151SAPE   H2R16631   5.539   3.502   7.251  3.1911  1.3737 -0.8132
  151SAPE   H2S16632   5.457   3.459   7.101 -2.9174  0.5646 -0.2547
  151SAPE    C316633   5.319   3.924   7.113 -0.1674  0.0812 -0.1714
  151SAPE    HX16634   5.424   3.959   7.105 -0.6418  1.7740  0.5652
  151SAPE    HY16635   5.253   4.011   7.135  0.6241  0.1177  2.3931
  151SAPE   O3116636   5.275   3.864   6.991  0.5462  0.4163 -0.4104
  151SAPE   C3116637   5.145   3.840   6.976  0.5720 -0.1813  0.3472
  151SAPE   O3216638   5.051   3.877   7.048 -0.1396 -0.3561  0.5900
  151SAPE   C3216639   5.137   3.756   6.854 -0.8454  0.0035  0.2962
  151SAPE   H2X16640   5.201   3.808   6.780  0.7984  0.7351  2.1460
  151SAPE   H2Y16641   5.033   3.767   6.817 -0.4782 -1.0862 -1.1572
  151SAPE   C2316642   5.604   3.624   7.083 -0.3466  0.2397  0.0299
  151SAPE   H3R16643   5.698   3.572   7.110 -0.1401  1.1706  1.1877
  151SAPE   H3S16644   5.619   3.728   7.121  0.9938 -0.7206  2.3933
  151SAPE   C2416645   5.587   3.612   6.931  0.7364  0.9921 -0.3394
  151SAPE   H4R16646   5.664   3.680   6.888 -0.4371  2.3681 -0.3628
  151SAPE   H4S16647   5.494   3.655   6.887 -0.6463 -1.6785 -0.1937
  151SAPE   C2516648   5.611   3.471   6.887  0.0814  0.0971  0.8199
  151SAPE   H5R16649   5.590   3.396   6.965  0.1413  0.1677  0.9041
  151SAPE   C2616650   5.668   3.431   6.778  0.1270  0.1398  0.6965
  151SAPE   H6R16651   5.686   3.325   6.757 -0.7524 -0.1838  1.4902
  151SAPE   C2716652   5.710   3.513   6.666 -0.4514 -0.2237 -0.1945
  151SAPE   H7R16653   5.709   3.623   6.682 -0.4382 -0.1860 -0.4547
  151SAPE   H7S16654   5.651   3.494   6.574  1.7467  1.6846 -2.1438
  151SAPE   C2816655   5.861   3.502   6.644  0.1581  0.1484  0.7395
  151SAPE   H8R16656   5.926   3.503   6.732 -1.2875  0.0229  1.8362
  151SAPE   C2916657   5.924   3.511   6.524 -0.2705  0.8591 -0.3864
  151SAPE   H9R16658   6.032   3.495   6.532 -0.5408 -0.8863  0.2141
  151SAPE  C21016659   5.866   3.531   6.385 -0.1265  0.4013 -0.3454
  151SAPE  H10R16660   5.917   3.624   6.349 -1.1529  1.3467  0.5955
  151SAPE  H10S16661   5.759   3.557   6.379 -0.2745 -0.4669 -2.8156
  151SAPE  C21116662   5.895   3.402   6.317 -0.4139 -0.2122 -0.7703
  151SAPE  H11R16663   5.905   3.315   6.383  5.5217  0.2976 -0.4066
  151SAPE  C21216664   5.899   3.372   6.190 -0.0381 -0.1358  0.3196
  151SAPE  H12R16665   5.924   3.269   6.161 -2.6637 -1.1354  1.2525
  151SAPE  C21316666   5.911   3.477   6.083 -0.2142 -0.0875 -0.0348
  151SAPE  H13R16667   5.937   3.579   6.119 -1.9351  0.2514  0.3317
  151SAPE  H13S16668   5.811   3.492   6.036 -0.2516  1.3101  0.4286
  151SAPE  C21416669   6.008   3.434   5.969 -0.3129 -0.3928 -0.5178
  151SAPE  H14R16670   6.029   3.326   5.963  2.0066  0.0540 -1.8215
  151SAPE  C21516671   6.075   3.507   5.874 -0.4142 -0.6717  0.1180
  151SAPE  H15R16672   6.150   3.476   5.800 -0.1444  2.2996 -1.0164
  151SAPE  C21616673   6.068   3.657   5.859  0.0872  0.3337 -0.3359
  151SAPE  H16R16674   6.133   3.709   5.933 -0.6659  0.0825  0.5257
  151SAPE  H16S16675   5.965   3.680   5.893 -0.4924  1.2568 -2.5156
  151SAPE  C21716676   6.084   3.706   5.715 -0.4854 -0.1550 -0.1760
  151SAPE  H17R16677   6.029   3.644   5.641 -0.9285 -0.4543  0.3983
  151SAPE  H17S16678   6.193   3.700   5.692  0.2606 -0.7113  3.0226
  151SAPE  C21816679   6.042   3.852   5.689  0.3588  0.2118 -0.1806
  151SAPE  H18R16680   6.110   3.922   5.743 -1.9832  2.2919  0.2380
  151SAPE  H18S16681   5.941   3.874   5.729  0.4924 -1.9498  1.5534
  151SAPE  C21916682   6.052   3.895   5.540  0.4466 -0.3760  0.4646
  151SAPE  H19R16683   6.001   3.814   5.482  0.8293 -0.8674  0.8048
  151SAPE  H19S16684   6.162   3.889   5.527  0.4418 -3.0592  0.9225
  151SAPE  C22016685   5.978   4.026   5.524  0.5239 -0.7234  0.0304
  151SAPE  H20R16686   5.868   4.013   5.527  0.4584 -0.0464  0.9278
  151SAPE  H20S16687   5.999   4.055   5.419  0.1463  0.8612  0.3782
  151SAPE  H20T16688   6.006   4.106   5.595  0.5657  1.0637 -1.9163
  151SAPE   C3316689   5.175   3.603   6.873  0.1388 -0.0163 -0.3706
  151SAPE   H3X16690   5.110   3.563   6.955 -1.2725 -3.3642 -2.8717
  151SAPE   H3Y16691   5.280   3.594   6.906  0.5435  0.1711 -1.5579
  151SAPE   C3416692   5.187   3.526   6.746 -0.5564 -0.6856  0.3151
  151SAPE   H4X16693   5.091   3.514   6.691  0.7097  0.6698 -2.4167
  151SAPE   H4Y16694   5.231   3.426   6.769  0.4134 -0.5605 -0.9012
  151SAPE   C3516695   5.288   3.595   6.642  0.0724  0.1972  0.4593
  151SAPE   H5X16696   5.378   3.614   6.705  2.1877 -1.6295 -1.7876
  151SAPE   H5Y16697   5.240   3.682   6.594 -0.2134 -0.0118  0.3643
  151SAPE   C3616698   5.335   3.496   6.533 -0.5049 -0.0055  0.3116
  151SAPE   H6X16699   5.248   3.444   6.487  1.4077 -1.8744 -1.4191
  151SAPE   H6Y16700   5.397   3.417   6.581  0.6584  0.8647  0.2657
  151SAPE   C3716701   5.407   3.566   6.417  0.3904 -0.2538  0.3302
  151SAPE   H7X16702   5.508   3.595   6.451  1.1298 -1.4549 -0.7404
  151SAPE   H7Y16703   5.358   3.661   6.389  1.4519  0.5052  1.0021
  151SAPE   C3816704   5.425   3.472   6.301 -0.0768 -0.6678  1.0096
  151SAPE   H8X16705   5.336   3.405   6.295 -0.3658 -0.3756  1.8476
  151SAPE   H8Y16706   5.506   3.398   6.316  0.7903  0.3221  1.3431
  151SAPE   C3916707   5.442   3.542   6.167  0.1435  0.1216  0.3271
  151SAPE   H9X16708   5.514   3.625   6.181 -1.6909  1.8539 -0.1065
  151SAPE   H9Y16709   5.340   3.577   6.140 -0.5360 -1.0704  1.2279
  151SAPE  C31016710   5.506   3.450   6.057 -0.7972  0.4159  0.0650
  151SAPE  H10X16711   5.454   3.352   6.062  0.6128 -0.5653 -2.2460
  151SAPE  H10Y16712   5.610   3.430   6.092 -0.5578  1.8049  0.2049
  151SAPE  C31116713   5.521   3.498   5.909  1.0693 -0.1376  0.0987
  151SAPE  H11X16714   5.579   3.593   5.906  0.8541  0.0513  1.3584
  151SAPE  H11Y16715   5.428   3.537   5.862  2.0525  2.2874 -0.0021
  151SAPE  C31216716   5.594   3.395   5.817  0.0528 -0.4306 -0.7508
  151SAPE  H12X16717   5.535   3.308   5.783  1.3399 -1.9149  0.6806
  151SAPE  H12Y16718   5.672   3.363   5.890 -0.5086  0.9346  0.4971
  151SAPE  C31316719   5.671   3.465   5.700 -0.6744  0.8897 -1.0961
  151SAPE  H13X16720   5.731   3.379   5.663  0.2641  0.0725  2.0080
  151SAPE  H13Y16721   5.749   3.533   5.740 -2.0415  0.3819  2.8004
  151SAPE  C31416722   5.583   3.512   5.595 -0.5372 -0.0718  0.9447
  151SAPE  H14X16723   5.526   3.598   5.639  2.5014  3.4626 -1.4026
  151SAPE  H14Y16724   5.512   3.429   5.575 -0.7553 -0.1966  2.1533
  151SAPE  C31516725   5.654   3.562   5.463 -0.4107  0.6920  0.1730
  151SAPE  H15X16726   5.675   3.479   5.392  3.1744 -0.7800  2.6259
  151SAPE  H15Y16727   5.752   3.603   5.496  0.1775 -1.1431  0.8112
  151SAPE  C31616728   5.567   3.664   5.394  0.0889 -0.1763  0.0301
  151SAPE  H16X16729   5.576   3.764   5.442  1.6373  0.5149 -1.5722
  151SAPE  H16Y16730   5.464   3.622   5.393  0.8105 -2.4366 -4.3222
  151SAPE  C31716731   5.599   3.684   5.250  0.3643  0.3115  0.6082
  151SAPE  H17X16732   5.514   3.743   5.209 -0.9799 -3.2152 -2.1970
  151SAPE  H17Y16733   5.591   3.586   5.198 -3.5332  0.7841 -0.0174
  151SAPE  C31816734   5.740   3.735   5.215 -0.0842 -0.7123  0.0494
  151SAPE  H18X16735   5.746   3.837   5.258  2.0221 -0.4718 -0.6907
  151SAPE  H18Y16736   5.758   3.753   5.106  0.5813  1.8790  0.5117
  151SAPE  H18Z16737   5.815   3.666   5.258  0.8126 -0.7703 -1.5104
  152SAPE     N16738   0.865   2.955   7.194 -0.3060  0.0990 -0.3773
  152SAPE   HN116739   0.778   3.005   7.222  0.2607  1.3669 -0.7695
  152SAPE   HN216740   0.851   2.918   7.098 -2.4435  1.1752 -0.5386
  152SAPE   HN316741   0.890   2.876   7.256  2.3474  0.3895 -0.9368
  152SAPE   C1216742   0.967   3.060   7.209  0.7836 -0.0424 -0.1123
  152SAPE  H12A16743   1.062   3.012   7.178  0.7637 -0.2263  0.1130
  152SAPE  H12B16744   0.966   3.092   7.315 -1.0943 -0.1983 -0.0537
  152SAPE   C1116745   0.922   3.176   7.114 -0.1361  0.2122 -0.6767
  152SAPE  H11A16746   0.910   3.134   7.012  2.2041 -0.9978 -0.5300
  152SAPE  H11B16747   1.000   3.255   7.122  0.8672 -0.8126 -0.0466
  152SAPE     P16748   0.721   3.349   7.106  0.1472 -0.1421 -0.3957
  152SAPE   O1316749   0.584   3.367   7.167 -0.1259 -0.0395  0.5979
  152SAPE   O1416750   0.796   3.474   7.080  0.4497 -0.5093 -0.1593
  152SAPE   O1216751   0.807   3.238   7.176  0.0037 -0.4989  0.5646
  152SAPE   O1116752   0.694   3.282   6.971 -0.5322  0.3988 -0.0578
  152SAPE    C116753   0.618   3.158   6.954 -0.0313 -0.5897 -0.0398
  152SAPE    HA16754   0.692   3.077   6.970  3.3122  2.3833  0.7412
  152SAPE    HB16755   0.536   3.136   7.026  0.6630 -0.8703  0.6764
  152SAPE    C216756   0.558   3.149   6.805 -0.4224  0.2027 -0.2153
  152SAPE    HS16757   0.514   3.048   6.789  0.9516 -0.7111  1.4271
  152SAPE   O2116758   0.658   3.191   6.710  0.5650  0.3151  0.5903
  152SAPE   C2116759   0.735   3.093   6.669  0.1438 -0.0908 -0.0175
  152SAPE   O2216760   0.740   2.977   6.718 -0.5191 -0.5322  0.0764
  152SAPE   C2216761   0.807   3.132   6.543  0.2276  0.2112  0.5433
  152SAPE   H2R16762   0.764   3.225   6.501 -0.1922 -0.3273 -0.2318
  152SAPE   H2S16763   0.906   3.168   6.582  0.7686  2.2319 -2.3843
  152SAPE    C316764   0.430   3.249   6.779 -0.9348 -0.7483  0.5237
  152SAPE    HX16765   0.475   3.350   6.792 -0.9971 -0.2934 -2.2505
  152SAPE    HY16766   0.358   3.226   6.860  0.5787  0.7806  2.3986
  152SAPE   O3116767   0.374   3.224   6.646  0.1681  0.0673  0.3067
  152SAPE   C3116768   0.303   3.110   6.645  0.5379 -0.6213 -0.5695
  152SAPE   O3216769   0.282   3.041   6.743 -0.2145  0.1558 -0.4455
  152SAPE   C3216770   0.248   3.081   6.504 -0.0071 -0.6892 -0.5249
  152SAPE   H2X16771   0.181   2.995   6.523 -0.5030 -0.2584 -0.2899
  152SAPE   H2Y16772   0.339   3.054   6.447  1.7767  1.1737  1.2411
  152SAPE   C2316773   0.808   3.014   6.450 -0.1698  0.3487 -0.0612
  152SAPE   H3R16774   0.841   2.923   6.504 -0.9440  0.1631  0.1090
  152SAPE   H3S16775   0.880   3.018   6.365  0.3116 -0.0476  0.3211
  152SAPE   C2416776   0.670   2.978   6.392 -0.4547  0.0496  0.0948
  152SAPE   H4R16777   0.598   2.985   6.476 -0.3222  2.2304  0.0744
  152SAPE   H4S16778   0.672   2.872   6.357  1.1153  0.2043 -0.3530
  152SAPE   C2516779   0.628   3.077   6.280  0.1624  0.0272 -0.0114
  152SAPE   H5R16780   0.591   3.175   6.312 -0.0085  0.0401 -0.2464
  152SAPE   C2616781   0.632   3.054   6.148 -0.3022 -0.4613  0.4543
  152SAPE   H6R16782   0.610   3.134   6.076  1.3533 -0.2724  0.1036
  152SAPE   C2716783   0.701   2.932   6.086 -0.1084  0.6370  0.2952
  152SAPE   H7R16784   0.630   2.894   6.010  0.3848  0.4046 -0.0526
  152SAPE   H7S16785   0.710   2.853   6.164  0.9994  1.5744  1.1590
  152SAPE   C2816786   0.849   2.957   6.037 -1.5995 -0.4397 -0.3190
  152SAPE   H8R16787   0.906   3.027   6.100 -0.9417 -1.2481  0.0058
  152SAPE   C2916788   0.905   2.914   5.919 -0.0208  0.5415  0.3365
  152SAPE   H9R16789   1.008   2.939   5.892  0.5348 -1.2303  0.6580
  152SAPE  C21016790   0.841   2.816   5.819 -0.9453 -0.2996  0.1347
  152SAPE  H10R16791   0.759   2.750   5.853  0.9700 -2.0416  1.6747
  152SAPE  H10S16792   0.928   2.756   5.783 -1.5365  0.1182 -2.1288
  152SAPE  C21116793   0.799   2.909   5.711 -0.1899  0.7654 -0.5152
  152SAPE  H11R16794   0.741   2.998   5.740  0.4954  1.5777 -1.5629
  152SAPE  C21216795   0.814   2.886   5.576  0.2516  0.8061 -0.5006
  152SAPE  H12R16796   0.789   2.973   5.514  0.3450  1.2571  0.0811
  152SAPE  C21316797   0.875   2.768   5.503  0.4261 -0.1362  0.3548
  152SAPE  H13R16798   0.785   2.713   5.468  0.6620 -0.3878  0.1428
  152SAPE  H13S16799   0.923   2.684   5.557 -1.1086 -1.8899 -0.8955
  152SAPE  C21416800   0.967   2.811   5.390 -0.7190  0.5182  0.4864
  152SAPE  H14R16801   1.007   2.913   5.377  1.4013 -0.3138  0.0035
  152SAPE  C21516802   0.990   2.732   5.279  0.2431 -0.6266 -0.6052
  152SAPE  H15R16803   1.050   2.767   5.194  0.6222  0.7032  0.1728
  152SAPE  C21616804   0.936   2.595   5.256  0.2264  0.1920  0.3391
  152SAPE  H16R16805   0.887   2.555   5.347  1.8921  1.8435  2.0560
  152SAPE  H16S16806   1.013   2.518   5.234 -1.7377 -1.7977  0.0288
  152SAPE  C21716807   0.828   2.589   5.146  0.2364  0.9255  0.1354
  152SAPE  H17R16808   0.742   2.656   5.165 -0.2649 -0.2626  2.4231
  152SAPE  H17S16809   0.789   2.485   5.146 -0.9499  1.3525 -0.9837
  152SAPE  C21816810   0.886   2.615   5.008  0.3713  0.6600 -0.1084
  152SAPE  H18R16811   0.948   2.525   4.985  0.0758  0.6134 -0.7619
  152SAPE  H18S16812   0.950   2.706   5.011 -0.7399  1.4450  0.3789
  152SAPE  C21916813   0.767   2.634   4.911  0.2346  0.3916  0.2080
  152SAPE  H19R16814   0.719   2.731   4.936  1.2952  0.7677  0.8667
  152SAPE  H19S16815   0.696   2.552   4.933  0.4236  0.2215  0.1904
  152SAPE  C22016816   0.814   2.627   4.760 -0.7242 -0.6339  0.1137
  152SAPE  H20R16817   0.734   2.590   4.692 -3.1655  1.0048  1.9155
  152SAPE  H20S16818   0.917   2.586   4.746 -0.2289  0.3991  0.6407
  152SAPE  H20T16819   0.832   2.730   4.724 -0.3674  0.1728  2.4206
  152SAPE   C3316820   0.170   3.202   6.445  0.3629  0.4054  0.1639
  152SAPE   H3X16821   0.243   3.275   6.405  0.2650  0.8368  0.7533
  152SAPE   H3Y16822   0.105   3.254   6.519 -1.1056 -1.0889 -0.0277
  152SAPE   C3416823   0.088   3.140   6.330  0.2346  0.7739  0.4078
  152SAPE   H4X16824   0.022   3.061   6.370  1.9005 -0.4395  0.8534
  152SAPE   H4Y16825   0.159   3.101   6.253 -0.8283  2.7879 -1.7187
  152SAPE   C3516826   0.005   3.243   6.250 -0.7940 -0.0041  0.4223
  152SAPE   H5X16827   0.064   3.322   6.198  0.1220  0.1349  1.6341
  152SAPE   H5Y16828  -0.060   3.290   6.326 -1.9125 -2.2186  0.9090
  152SAPE   C3616829  -0.092   3.171   6.156 -0.4154  0.0463 -0.3213
  152SAPE   H6X16830  -0.140   3.254   6.101  1.2304  0.8404 -0.6180
  152SAPE   H6Y16831  -0.177   3.139   6.220 -2.1757  2.3054 -1.4172
  152SAPE   C3716832  -0.037   3.063   6.067 -0.0850  0.6830 -0.3011
  152SAPE   H7X16833  -0.115   3.013   6.005  1.9871 -1.3020 -1.4626
  152SAPE   H7Y16834  -0.004   2.979   6.131  0.0030  0.1126 -1.0769
  152SAPE   C3816835   0.071   3.109   5.974 -0.5849  0.1581 -0.7678
  152SAPE   H8X16836   0.131   3.027   5.928  0.5364  0.1815  0.5911
  152SAPE   H8Y16837   0.144   3.174   6.025 -1.6941  1.4421 -0.7605
  152SAPE   C3916838   0.027   3.182   5.853 -0.6846  0.1842  0.0380
  152SAPE   H9X16839  -0.036   3.268   5.884 -0.7875  0.1002  0.0617
  152SAPE   H9Y16840  -0.039   3.116   5.792 -3.0147 -0.0809  2.6617
  152SAPE  C31016841   0.136   3.247   5.769  0.1198 -0.1681 -0.1595
  152SAPE  H10X16842   0.194   3.163   5.725 -0.6679 -0.5306 -0.5182
  152SAPE  H10Y16843   0.204   3.316   5.824 -1.6577  3.3227 -2.0392
  152SAPE  C31116844   0.084   3.328   5.649  0.3456 -0.2339 -0.5055
  152SAPE  H11X16845   0.143   3.421   5.636 -1.4013  1.0356  0.1791
  152SAPE  H11Y16846  -0.017   3.364   5.680  0.9879  0.8488  0.4139
  152SAPE  C31216847   0.094   3.255   5.520  0.0067  1.0720 -0.2142
  152SAPE  H12X16848   0.008   3.184   5.517  0.6685  0.0818  2.0546
  152SAPE  H12Y16849   0.174   3.179   5.511 -1.1209  0.0373 -2.7292
  152SAPE  C31316850   0.087   3.351   5.395  0.0139  0.1414 -0.1814
  152SAPE  H13X16851   0.164   3.429   5.409 -1.4067  1.4906  0.4206
  152SAPE  H13Y16852  -0.017   3.390   5.382  1.1504  3.2508 -0.7584
  152SAPE  C31416853   0.125   3.287   5.258 -0.3121  0.7595  0.8726
  152SAPE  H14X16854   0.051   3.218   5.214  0.9996 -1.2193  1.6141
  152SAPE  H14Y16855   0.213   3.222   5.278 -0.4447  0.0786 -0.6581
  152SAPE  C31516856   0.162   3.399   5.164  0.1945 -0.4747  0.5854
  152SAPE  H15X16857   0.185   3.356   5.064 -2.2901  1.7978 -1.1300
  152SAPE  H15Y16858   0.247   3.456   5.208  1.1926 -1.2784 -0.2523
  152SAPE  C31616859   0.047   3.500   5.150 -0.4833  0.1990 -0.3405
  152SAPE  H16X16860   0.094   3.589   5.104 -0.5167 -0.4563 -1.6943
  152SAPE  H16Y16861   0.008   3.544   5.245  0.7286  2.5559 -0.8692
  152SAPE  C31716862  -0.062   3.466   5.050  0.0742  0.1805  0.4052
  152SAPE  H17X16863  -0.106   3.378   5.102  1.5948  0.8607  2.9808
  152SAPE  H17Y16864  -0.029   3.441   4.947 -0.2113 -0.3151  0.4282
  152SAPE  C31816865  -0.165   3.579   5.024  0.5704 -0.6904  0.6674
  152SAPE  H18X16866  -0.123   3.663   4.964  1.8921 -1.5617  0.3519
  152SAPE  H18Y16867  -0.205   3.620   5.120  0.1913  5.1285 -1.5382
  152SAPE  H18Z16868  -0.254   3.548   4.964  1.6151 -0.0290 -1.3081
  153SAPE     N16869   5.510   2.576   7.317 -0.8347 -0.2901  0.3819
  153SAPE   HN116870   5.594   2.633   7.338 -2.4022  2.6789 -0.6422
  153SAPE   HN216871   5.548   2.516   7.241 -0.3698  0.8410 -0.3141
  153SAPE   HN316872   5.434   2.639   7.282  0.5637  1.0401 -0.4229
  153SAPE   C1216873   5.457   2.506   7.438 -0.1699  0.9432  0.1170
  153SAPE  H12A16874   5.353   2.473   7.416 -0.8845  0.3477  3.7372
  153SAPE  H12B16875   5.440   2.582   7.516 -3.1097  1.3339 -0.7857
  153SAPE   C1116876   5.554   2.384   7.486  0.7312 -0.1729  0.1690
  153SAPE  H11A16877   5.553   2.310   7.403 -1.2055 -0.8959  0.7800
  153SAPE  H11B16878   5.497   2.340   7.571  0.2965 -0.3415 -0.2048
  153SAPE     P16879   5.770   2.340   7.613  0.2462  0.0124  0.0684
  153SAPE   O1316880   5.789   2.419   7.735 -0.1435 -0.1490  0.0747
  153SAPE   O1416881   5.702   2.208   7.621  0.1113 -0.8178  0.5242
  153SAPE   O1216882   5.685   2.431   7.515  0.2909 -0.0800  0.9582
  153SAPE   O1116883   5.915   2.319   7.547  0.0804  0.1896 -0.9582
  153SAPE    C116884   5.984   2.422   7.481  0.3293 -0.6668  0.3496
  153SAPE    HA16885   5.953   2.524   7.514  0.0626  0.2766 -2.5449
  153SAPE    HB16886   6.095   2.413   7.479  0.5343  1.3918  0.2894
  153SAPE    C216887   5.946   2.428   7.333  0.5849  0.5295 -0.2396
  153SAPE    HS16888   5.836   2.441   7.319  0.4949 -0.1482 -0.2332
  153SAPE   O2116889   5.999   2.303   7.280  0.2365 -0.2339 -0.1267
  153SAPE   C2116890   5.941   2.262   7.163  0.2593  0.0447 -0.7327
  153SAPE   O2216891   5.844   2.319   7.114 -0.3603  0.0356  0.4335
  153SAPE   C2216892   6.006   2.134   7.102  0.3539 -0.5255  0.0352
  153SAPE   H2R16893   6.086   2.096   7.169  1.6014  0.3936 -0.8701
  153SAPE   H2S16894   5.929   2.055   7.113  0.1862 -0.2225  1.1768
  153SAPE    C316895   6.002   2.558   7.267 -0.1087 -0.0580  0.4541
  153SAPE    HX16896   6.113   2.545   7.273  0.1293  0.7468 -1.3318
  153SAPE    HY16897   5.983   2.644   7.334 -0.8884  0.8591 -0.8906
  153SAPE   O3116898   5.964   2.590   7.134  0.2184 -0.2247 -0.4733
  153SAPE   C3116899   5.835   2.636   7.120  0.1716  0.7149 -0.2942
  153SAPE   O3216900   5.753   2.649   7.209 -0.2241 -0.3252 -0.0191
  153SAPE   C3216901   5.808   2.683   6.978  1.0930 -0.2990  0.2856
  153SAPE   H2X16902   5.885   2.755   6.943  0.5276  0.9548  1.5212
  153SAPE   H2Y16903   5.716   2.743   6.994  2.1986  1.2124  1.2692
  153SAPE   C2316904   6.043   2.162   6.959 -0.3737  0.7227  0.0462
  153SAPE   H3R16905   5.948   2.193   6.910  0.4735  0.8758 -1.5698
  153SAPE   H3S16906   6.080   2.072   6.905  0.6745 -0.3523  2.4402
  153SAPE   C2416907   6.154   2.272   6.947 -0.4118 -0.8703 -0.4757
  153SAPE   H4R16908   6.113   2.356   7.006  1.1487 -0.4505  0.0646
  153SAPE   H4S16909   6.164   2.313   6.844 -0.0546 -0.5998 -0.3355
  153SAPE   C2516910   6.296   2.236   7.001 -0.0679 -0.2569 -1.0004
  153SAPE   H5R16911   6.307   2.178   7.094  0.0852 -1.4203 -1.7219
  153SAPE   C2616912   6.406   2.294   6.956 -0.2378 -0.3967 -0.0060
  153SAPE   H6R16913   6.503   2.269   7.001 -1.3395 -1.4594  1.9010
  153SAPE   C2716914   6.420   2.399   6.848 -0.3369 -0.3739  0.6675
  153SAPE   H7R16915   6.471   2.478   6.906 -3.3980  2.4517 -0.1539
  153SAPE   H7S16916   6.325   2.453   6.828  2.4798  4.0705 -2.4943
  153SAPE   C2816917   6.498   2.351   6.726  0.1313  0.3547 -0.3910
  153SAPE   H8R16918   6.443   2.349   6.630 -1.7124 -1.4174  0.6381
  153SAPE   C2916919   6.630   2.328   6.713  0.2956 -0.9935  0.6174
  153SAPE   H9R16920   6.664   2.319   6.608 -1.0913 -0.2402  0.0774
  153SAPE  C21016921   6.731   2.333   6.825  0.1940  0.7228  0.8029
  153SAPE  H10R16922   6.791   2.240   6.830 -0.1987  0.5240  2.3602
  153SAPE  H10S16923   6.673   2.336   6.920 -1.0475 -0.8164  0.1429
  153SAPE  C21116924   6.829   2.455   6.819  0.2765 -0.4546 -0.2653
  153SAPE  H11R16925   6.881   2.461   6.722 -1.5542 -0.6556 -1.3188
  153SAPE  C21216926   6.830   2.558   6.908  0.2824  0.1803  0.2995
  153SAPE  H12R16927   6.902   2.639   6.889  1.2069 -0.9284 -1.0996
  153SAPE  C21316928   6.747   2.562   7.037 -0.3593 -0.2422 -0.7464
  153SAPE  H13R16929   6.792   2.493   7.112 -1.8425 -1.2662 -0.7600
  153SAPE  H13S16930   6.640   2.535   7.027 -1.4617  3.2631  0.0372
  153SAPE  C21416931   6.755   2.702   7.090  0.1266 -0.5109  0.2291
  153SAPE  H14R16932   6.851   2.737   7.129 -0.2243 -0.2572  0.8939
  153SAPE  C21516933   6.661   2.796   7.085  0.3476  0.1862  0.1183
  153SAPE  H15R16934   6.674   2.896   7.128 -1.2186  0.0108  1.0732
  153SAPE  C21616935   6.513   2.769   7.053  0.1408 -0.0840  0.0843
  153SAPE  H16R16936   6.455   2.845   7.108  3.7938  1.9221  1.5133
  153SAPE  H16S16937   6.481   2.663   7.068  1.9561 -0.9344 -1.5122
  153SAPE  C21716938   6.470   2.792   6.907  0.0260 -0.2357  0.9427
  153SAPE  H17R16939   6.526   2.728   6.836 -0.2777 -0.1573  0.6308
  153SAPE  H17S16940   6.493   2.897   6.881 -2.1004  0.1588  0.4493
  153SAPE  C21816941   6.320   2.761   6.887 -0.1697 -0.7607  0.1520
  153SAPE  H18R16942   6.257   2.840   6.933  1.2320  2.4263 -2.8419
  153SAPE  H18S16943   6.291   2.662   6.927 -1.8984 -1.2667 -2.1209
  153SAPE  C21916944   6.280   2.755   6.737  1.1091  0.5174  0.5058
  153SAPE  H19R16945   6.327   2.672   6.681  1.0677  0.6489  0.2780
  153SAPE  H19S16946   6.311   2.854   6.696  0.7159  0.4167 -0.0456
  153SAPE  C22016947   6.131   2.738   6.710  0.5266 -0.6919  0.2454
  153SAPE  H20R16948   6.121   2.772   6.604 -0.7654  0.7393  0.7775
  153SAPE  H20S16949   6.065   2.801   6.774 -0.3406  0.4788 -1.7002
  153SAPE  H20T16950   6.100   2.632   6.720 -0.3131 -0.4714  0.1471
  153SAPE   C3316951   5.789   2.572   6.879  0.1731 -1.0089  0.3338
  153SAPE   H3X16952   5.702   2.511   6.912 -0.5497  0.4270  1.2329
  153SAPE   H3Y16953   5.871   2.497   6.875  2.3216  1.2212 -0.0081
  153SAPE   C3416954   5.755   2.626   6.745 -0.3674 -0.9883 -0.0809
  153SAPE   H4X16955   5.830   2.696   6.702 -0.1607 -0.6995  0.7472
  153SAPE   H4Y16956   5.660   2.682   6.762  0.0572 -0.4914  0.6749
  153SAPE   C3516957   5.731   2.529   6.633  0.1355  0.1491  0.3586
  153SAPE   H5X16958   5.673   2.443   6.672  3.3653 -2.3479  0.1677
  153SAPE   H5Y16959   5.829   2.488   6.599  0.1193  1.4787 -1.4551
  153SAPE   C3616960   5.662   2.590   6.512 -0.2682  0.6168  0.2083
  153SAPE   H6X16961   5.719   2.656   6.443 -2.0579 -0.6603 -2.6910
  153SAPE   H6Y16962   5.578   2.653   6.547  0.0281  0.7338  0.7196
  153SAPE   C3716963   5.605   2.476   6.425  0.1427 -0.0846 -0.3805
  153SAPE   H7X16964   5.551   2.403   6.488  1.7097 -1.1313 -0.1820
  153SAPE   H7Y16965   5.697   2.427   6.386  0.6586  0.1308  0.5318
  153SAPE   C3816966   5.508   2.533   6.328 -0.1540 -0.4308 -0.3275
  153SAPE   H8X16967   5.428   2.582   6.387  0.1098  0.2563 -0.5312
  153SAPE   H8Y16968   5.466   2.460   6.256  1.0307 -0.8433 -0.6280
  153SAPE   C3916969   5.568   2.642   6.241 -0.0585  0.4563 -0.1954
  153SAPE   H9X16970   5.618   2.722   6.300 -0.8128 -0.3818  1.6431
  153SAPE   H9Y16971   5.488   2.704   6.195 -0.9682  0.8745  1.8226
  153SAPE  C31016972   5.658   2.593   6.122  0.8358  0.5341  0.0255
  153SAPE  H10X16973   5.692   2.489   6.141 -3.2329 -1.0047 -0.2627
  153SAPE  H10Y16974   5.747   2.658   6.138  0.4112  0.6603  2.2226
  153SAPE  C31116975   5.608   2.610   5.978 -0.7562 -0.1720  0.4664
  153SAPE  H11X16976   5.580   2.714   5.952  0.7261  1.3340  4.2073
  153SAPE  H11Y16977   5.512   2.556   5.962 -0.9979  0.0294  1.1683
  153SAPE  C31216978   5.723   2.575   5.875  0.2781  0.4092  0.1492
  153SAPE  H12X16979   5.763   2.472   5.891  1.6574  0.9089  0.0562
  153SAPE  H12Y16980   5.807   2.647   5.874  0.1813  0.5213 -0.2985
  153SAPE  C31316981   5.673   2.575   5.728 -0.0785  0.0583 -0.2704
  153SAPE  H13X16982   5.644   2.677   5.693  3.5688  0.2783 -3.2695
  153SAPE  H13Y16983   5.583   2.511   5.721 -0.8333  0.6505  2.6015
  153SAPE  C31416984   5.777   2.535   5.626 -0.8515  0.6420  0.7766
  153SAPE  H14X16985   5.809   2.429   5.639 -1.4076  0.7210  3.2598
  153SAPE  H14Y16986   5.863   2.606   5.624  0.7699 -1.1979 -2.2845
  153SAPE  C31516987   5.722   2.553   5.482  0.8554 -0.3862 -0.8186
  153SAPE  H15X16988   5.691   2.659   5.475 -1.3995 -0.7343  2.0862
  153SAPE  H15Y16989   5.628   2.494   5.471  1.1717 -1.0013 -0.2912
  153SAPE  C31616990   5.823   2.525   5.370 -0.6126  0.2009  0.7205
  153SAPE  H16X16991   5.890   2.437   5.381  0.9206  1.0568 -1.1043
  153SAPE  H16Y16992   5.896   2.609   5.367  1.6532 -1.6769 -1.7927
  153SAPE  C31716993   5.751   2.528   5.229 -0.5341  0.3856 -0.6955
  153SAPE  H17X16994   5.821   2.492   5.151 -0.0418 -2.0077  0.7517
  153SAPE  H17Y16995   5.723   2.635   5.215 -3.0216 -0.1617 -0.4461
  153SAPE  C31816996   5.631   2.440   5.212 -0.2519  0.3432  0.0682
  153SAPE  H18X16997   5.549   2.459   5.285 -3.0071 -1.5230 -2.3425
  153SAPE  H18Y16998   5.663   2.334   5.219  0.7848  0.4875 -1.9569
  153SAPE  H18Z16999   5.585   2.447   5.111 -0.0152  0.9416 -0.0028
  154SAPE     N17000   4.845   2.447   7.209 -0.3657  0.2377  0.7818
  154SAPE   HN117001   4.865   2.346   7.226 -0.2268 -0.4110 -2.5435
  154SAPE   HN217002   4.824   2.489   7.301 -0.8217  1.0895  0.2975
  154SAPE   HN317003   4.756   2.468   7.160 -1.0720  1.4513  2.5219
  154SAPE   C1217004   4.957   2.538   7.154 -0.6787  0.6772 -0.5602
  154SAPE  H12A17005   4.905   2.634   7.135 -2.5341 -0.1726 -0.0500
  154SAPE  H12B17006   4.988   2.491   7.059 -0.1138 -0.3527  0.1156
  154SAPE   C1117007   5.076   2.535   7.251 -0.3504  0.4081  0.0045
  154SAPE  H11A17008   5.093   2.429   7.279 -0.8495  0.3932  0.2509
  154SAPE  H11B17009   5.062   2.582   7.350  2.7857  0.3470  0.5947
  154SAPE     P17010   5.215   2.744   7.174 -0.4169  0.0046 -0.1822
  154SAPE   O1317011   5.113   2.811   7.251  0.3403 -0.3742 -0.8525
  154SAPE   O1417012   5.355   2.775   7.202  0.8566  0.3518 -0.5531
  154SAPE   O1217013   5.195   2.584   7.190  0.3043  0.4290  0.3308
  154SAPE   O1117014   5.178   2.764   7.016  0.7433 -0.5226  0.0595
  154SAPE    C117015   5.235   2.698   6.909 -0.1851  0.4528 -0.5641
  154SAPE    HA17016   5.334   2.746   6.891 -0.5439  1.7463  0.6742
  154SAPE    HB17017   5.252   2.591   6.931 -0.1748  0.7021  0.7439
  154SAPE    C217018   5.156   2.724   6.779  0.3714  0.5225 -0.5705
  154SAPE    HS17019   5.172   2.834   6.768  0.8779  0.5054 -0.0616
  154SAPE   O2117020   5.018   2.682   6.796 -0.4383 -0.2116 -0.0958
  154SAPE   C2117021   4.922   2.780   6.787  1.0641 -0.4281  0.6044
  154SAPE   O2217022   4.945   2.899   6.768 -0.0758 -0.1144 -0.2718
  154SAPE   C2217023   4.779   2.715   6.787  0.5885  0.2922  0.7934
  154SAPE   H2R17024   4.791   2.617   6.737  1.0145  0.8881 -0.3110
  154SAPE   H2S17025   4.769   2.675   6.890 -1.0726 -0.4317  0.3828
  154SAPE    C317026   5.214   2.663   6.651 -0.1539 -0.1395 -0.2579
  154SAPE    HX17027   5.184   2.556   6.645 -1.2609  0.0831  1.0062
  154SAPE    HY17028   5.325   2.656   6.662 -0.4240 -2.5497  1.8848
  154SAPE   O3117029   5.167   2.726   6.533  0.0285  0.3864  0.1952
  154SAPE   C3117030   5.060   2.683   6.470  0.2878 -0.0826  0.6685
  154SAPE   O3217031   4.994   2.589   6.506  0.3227  0.4292  0.5167
  154SAPE   C3217032   5.031   2.766   6.344 -0.5763 -0.3014  0.1135
  154SAPE   H2X17033   5.097   2.856   6.347  1.0436 -1.4123 -0.8129
  154SAPE   H2Y17034   4.927   2.805   6.345  0.0187  1.4100 -0.5792
  154SAPE   C2317035   4.654   2.790   6.725 -0.0188  0.6221 -0.4847
  154SAPE   H3R17036   4.653   2.884   6.783  0.4159 -0.2400  0.9560
  154SAPE   H3S17037   4.565   2.730   6.753  0.1529  0.7386  0.3133
  154SAPE   C2417038   4.664   2.802   6.574  0.3795  0.1888  0.0315
  154SAPE   H4R17039   4.642   2.701   6.533 -2.3799  1.5365 -2.1408
  154SAPE   H4S17040   4.761   2.847   6.547 -1.1415  3.1812 -0.9102
  154SAPE   C2517041   4.559   2.902   6.523 -0.0442  0.1944  1.1037
  154SAPE   H5R17042   4.510   2.978   6.587  0.0469  0.2413  1.1186
  154SAPE   C2617043   4.527   2.906   6.394 -0.1848  1.0146 -0.5962
  154SAPE   H6R17044   4.461   2.988   6.361 -1.3843  1.0001  1.5531
  154SAPE   C2717045   4.593   2.821   6.285  0.0962  0.6046 -0.3137
  154SAPE   H7R17046   4.496   2.799   6.235 -0.3475 -1.7814  1.4358
  154SAPE   H7S17047   4.631   2.721   6.317 -0.5609  0.6025  0.4724
  154SAPE   C2817048   4.684   2.896   6.195 -0.9836  0.2302  0.5749
  154SAPE   H8R17049   4.787   2.910   6.231 -0.3073 -1.3209 -0.6528
  154SAPE   C2917050   4.649   2.928   6.068  0.2212 -0.2421  0.3212
  154SAPE   H9R17051   4.726   2.964   5.998 -0.8064 -0.9710 -1.2247
  154SAPE  C21017052   4.518   2.921   6.003  0.4333  0.0313  0.4686
  154SAPE  H10R17053   4.444   2.973   6.068  0.3474  2.6399 -1.5545
  154SAPE  H10S17054   4.485   2.815   6.006  1.5877 -0.3552  0.0438
  154SAPE  C21117055   4.499   2.984   5.863  0.4966  0.9312  0.1225
  154SAPE  H11R17056   4.468   3.090   5.862  2.1631  1.4400 -1.1915
  154SAPE  C21217057   4.520   2.924   5.743  0.0571 -0.2231  0.3844
  154SAPE  H12R17058   4.505   2.988   5.655  1.2975 -0.3293  0.0685
  154SAPE  C21317059   4.585   2.787   5.717 -0.0266 -0.1016  0.4197
  154SAPE  H13R17060   4.518   2.713   5.766 -1.7940 -0.5160 -2.3945
  154SAPE  H13S17061   4.686   2.779   5.764  0.7941 -3.0505 -1.5580
  154SAPE  C21417062   4.598   2.749   5.573  0.7851  0.4534  0.2728
  154SAPE  H14R17063   4.699   2.744   5.529  0.3369  0.3867 -0.7965
  154SAPE  C21517064   4.493   2.716   5.489 -0.1688 -0.9151 -0.1399
  154SAPE  H15R17065   4.519   2.692   5.384 -0.9690  0.3173 -0.6392
  154SAPE  C21617066   4.346   2.710   5.517 -0.1682 -0.2651 -0.5913
  154SAPE  H16R17067   4.337   2.741   5.624  0.6181 -0.7480 -0.3724
  154SAPE  H16S17068   4.305   2.609   5.494 -0.1106 -0.3033 -0.5279
  154SAPE  C21717069   4.265   2.804   5.424  0.8912  0.0065 -0.4830
  154SAPE  H17R17070   4.312   2.902   5.446 -1.6391  1.0771  0.4498
  154SAPE  H17S17071   4.164   2.810   5.469  0.7130 -0.5188 -0.7993
  154SAPE  C21817072   4.245   2.748   5.277 -0.0639 -0.3965  0.4086
  154SAPE  H18R17073   4.188   2.653   5.274 -1.1225  0.2299  0.2293
  154SAPE  H18S17074   4.348   2.726   5.242  0.3739  2.4034 -0.2698
  154SAPE  C21917075   4.166   2.835   5.178  0.8043  0.4365 -0.2293
  154SAPE  H19R17076   4.184   2.943   5.198  1.0573  0.4967 -0.7740
  154SAPE  H19S17077   4.058   2.818   5.202  0.9429 -1.5552 -0.8257
  154SAPE  C22017078   4.185   2.793   5.040 -0.8111  0.5095  0.6517
  154SAPE  H20R17079   4.125   2.846   4.962  0.0685  2.0383  0.9868
  154SAPE  H20S17080   4.168   2.683   5.037  0.8094  0.1803 -3.5148
  154SAPE  H20T17081   4.291   2.800   5.008 -1.1038 -1.3524 -0.9551
  154SAPE   C3317082   5.065   2.699   6.207  0.8552 -0.1032  0.2265
  154SAPE   H3X17083   4.980   2.631   6.186 -0.1037  0.5618  1.7994
  154SAPE   H3Y17084   5.156   2.636   6.222  0.4673 -0.7349 -0.0276
  154SAPE   C3417085   5.100   2.787   6.086 -0.7214 -0.4819 -0.1065
  154SAPE   H4X17086   5.173   2.864   6.119 -1.2543 -0.1081  0.2254
  154SAPE   H4Y17087   5.007   2.845   6.067 -0.0064  0.3986 -1.0398
  154SAPE   C3517088   5.139   2.702   5.971  0.1906 -0.2208 -0.0589
  154SAPE   H5X17089   5.056   2.631   5.950  1.1782 -1.2492 -0.5704
  154SAPE   H5Y17090   5.224   2.643   6.012 -0.4634  0.1812  2.0081
  154SAPE   C3617091   5.194   2.772   5.845  0.4280  0.0470 -0.3702
  154SAPE   H6X17092   5.264   2.852   5.878  0.6987 -0.4086  0.1884
  154SAPE   H6Y17093   5.117   2.821   5.782  0.4282  0.4710 -0.0432
  154SAPE   C3717094   5.252   2.675   5.749  0.5702  0.4678  0.6316
  154SAPE   H7X17095   5.155   2.629   5.722  0.1697  0.2412  2.3217
  154SAPE   H7Y17096   5.324   2.598   5.784  2.5158  1.3153 -1.2645
  154SAPE   C3817097   5.318   2.748   5.640  0.1554  0.3123 -0.2892
  154SAPE   H8X17098   5.403   2.798   5.691 -0.7934 -0.0807  1.7877
  154SAPE   H8Y17099   5.254   2.825   5.591  0.1828 -0.3963 -1.4722
  154SAPE   C3917100   5.364   2.670   5.509 -0.2937  0.5464  0.1390
  154SAPE   H9X17101   5.432   2.586   5.537  0.1683  0.5212 -0.9942
  154SAPE   H9Y17102   5.424   2.731   5.438 -0.4697 -1.2114 -1.5719
  154SAPE  C31017103   5.252   2.592   5.442  0.0165 -0.3405  0.4210
  154SAPE  H10X17104   5.211   2.508   5.502  1.1016 -3.0482 -2.3431
  154SAPE  H10Y17105   5.303   2.532   5.363 -1.2714 -1.4680  0.4083
  154SAPE  C31117106   5.147   2.668   5.365 -0.7332  0.4745 -1.0472
  154SAPE  H11X17107   5.102   2.737   5.439  0.3949  0.2618 -0.1334
  154SAPE  H11Y17108   5.068   2.604   5.321 -1.3222  1.7546 -1.8953
  154SAPE  C31217109   5.199   2.754   5.252  0.1744 -0.6025  0.4507
  154SAPE  H12X17110   5.273   2.702   5.188  0.5809  1.2162 -0.6600
  154SAPE  H12Y17111   5.260   2.830   5.305  2.3603 -1.0578 -1.2739
  154SAPE  C31317112   5.084   2.821   5.171 -0.0934  0.1564  0.3037
  154SAPE  H13X17113   5.012   2.864   5.243  0.4014 -0.2482  1.0527
  154SAPE  H13Y17114   5.030   2.743   5.114  0.4252 -0.3885  0.5408
  154SAPE  C31417115   5.146   2.926   5.082 -0.3087 -0.0355 -0.1799
  154SAPE  H14X17116   5.084   2.917   4.990 -0.2676 -0.5665 -0.1585
  154SAPE  H14Y17117   5.254   2.910   5.063 -0.1562  1.7581 -0.9943
  154SAPE  C31517118   5.127   3.066   5.130 -0.0710 -0.3787  0.4447
  154SAPE  H15X17119   5.177   3.075   5.229  0.7319  2.1464 -0.1137
  154SAPE  H15Y17120   5.022   3.101   5.140 -0.1291 -0.3545 -0.1951
  154SAPE  C31617121   5.193   3.170   5.034 -0.4114  0.3124 -0.0821
  154SAPE  H16X17122   5.134   3.178   4.941 -1.5043  0.1069  0.5714
  154SAPE  H16Y17123   5.299   3.140   5.018 -0.1695  0.4972  1.0820
  154SAPE  C31717124   5.182   3.312   5.095 -0.7481  0.4531  0.0615
  154SAPE  H17X17125   5.233   3.325   5.192  2.2410 -2.1822 -0.9887
  154SAPE  H17Y17126   5.073   3.332   5.105 -0.5282  0.8086  2.1268
  154SAPE  C31817127   5.238   3.429   5.007  0.5563  0.1091 -0.4535
  154SAPE  H18X17128   5.206   3.422   4.902  1.5911  4.7784 -1.3071
  154SAPE  H18Y17129   5.349   3.420   5.014  0.4588 -0.6041  0.5828
  154SAPE  H18Z17130   5.201   3.528   5.040 -0.1867  0.2486 -1.6941
  155SAPE     N17131   4.161   1.141   7.045 -0.0603 -0.1602  0.2575
  155SAPE   HN117132   4.129   1.048   7.010 -0.4181 -0.3520  1.0877
  155SAPE   HN217133   4.091   1.217   7.039 -0.6416 -0.5294  1.8477
  155SAPE   HN317134   4.240   1.165   6.981 -0.1423  0.2043  0.2941
  155SAPE   C1217135   4.203   1.112   7.180  0.2714  0.8163  0.9485
  155SAPE  H12A17136   4.121   1.052   7.225  0.7901 -1.5306 -1.0050
  155SAPE  H12B17137   4.231   1.206   7.232  3.0494 -0.5520  2.0965
  155SAPE   C1117138   4.330   1.023   7.178 -0.5163 -0.5996 -0.0749
  155SAPE  H11A17139   4.305   0.927   7.128  0.0589 -1.2339  0.8433
  155SAPE  H11B17140   4.356   0.997   7.283  4.6756  0.9755 -0.6965
  155SAPE     P17141   4.560   1.142   7.198  0.2635 -0.1779  0.0084
  155SAPE   O1317142   4.554   1.284   7.237 -0.3063 -0.0399  0.5756
  155SAPE   O1417143   4.573   1.049   7.306 -0.9162 -0.3500 -0.5942
  155SAPE   O1217144   4.439   1.095   7.106  0.2775 -0.3273 -0.2399
  155SAPE   O1117145   4.683   1.136   7.095  0.0899  0.6128 -0.2375
  155SAPE    C117146   4.699   1.026   6.998 -1.2707  0.2142 -0.1213
  155SAPE    HA17147   4.791   0.972   7.030 -0.2299  1.6534 -0.5760
  155SAPE    HB17148   4.612   0.956   7.000 -2.0019  1.1098  0.0307
  155SAPE    C217149   4.720   1.080   6.856 -0.2746 -0.1984  0.3103
  155SAPE    HS17150   4.751   1.003   6.783  3.0399  1.1643  0.0957
  155SAPE   O2117151   4.822   1.187   6.847  0.0799 -0.3354 -0.1333
  155SAPE   C2117152   4.951   1.156   6.859  0.3560  0.4012  0.1309
  155SAPE   O2217153   4.991   1.057   6.916 -0.5365 -0.1468 -0.4111
  155SAPE   C2217154   5.039   1.268   6.807 -0.2303  0.5306 -0.5159
  155SAPE   H2R17155   5.038   1.266   6.696 -0.6631  0.0467 -0.5082
  155SAPE   H2S17156   5.004   1.365   6.848  2.4040  0.6319  1.8356
  155SAPE    C317157   4.582   1.133   6.793 -0.1252  0.0703  0.0143
  155SAPE    HX17158   4.548   1.217   6.857 -0.9979  0.1600 -0.5528
  155SAPE    HY17159   4.506   1.053   6.807 -0.8020  0.3752 -1.7357
  155SAPE   O3117160   4.595   1.177   6.654  0.1786 -0.0076 -0.1352
  155SAPE   C3117161   4.568   1.093   6.556  0.0959 -0.5708 -0.3685
  155SAPE   O3217162   4.525   0.980   6.569  0.0280 -0.0844 -0.2769
  155SAPE   C3217163   4.607   1.175   6.426  0.8206  1.0292  0.2640
  155SAPE   H2X17164   4.708   1.218   6.443  1.1727  0.1720  0.3861
  155SAPE   H2Y17165   4.539   1.260   6.407  0.6167  0.9512  0.6292
  155SAPE   C2317166   5.180   1.237   6.860  0.1906 -0.2095  1.0005
  155SAPE   H3R17167   5.208   1.141   6.813 -1.9325 -0.5517  0.3497
  155SAPE   H3S17168   5.184   1.217   6.969 -0.5268 -0.3779  1.0008
  155SAPE   C2417169   5.277   1.354   6.829 -0.0071 -0.4758  0.0535
  155SAPE   H4R17170   5.379   1.325   6.863  0.9608  3.0387  0.5041
  155SAPE   H4S17171   5.246   1.437   6.895  0.9159 -0.3407  0.3355
  155SAPE   C2517172   5.284   1.406   6.688 -0.4546  0.0559  0.4766
  155SAPE   H5R17173   5.188   1.433   6.643  0.1073 -0.7523 -1.3101
  155SAPE   C2617174   5.387   1.380   6.600  0.1279  0.1109 -0.5782
  155SAPE   H6R17175   5.369   1.413   6.497 -2.6084  0.6097 -0.0189
  155SAPE   C2717176   5.512   1.305   6.603  0.3934  0.1083  0.4852
  155SAPE   H7R17177   5.542   1.295   6.497 -0.2952  1.1931  0.1743
  155SAPE   H7S17178   5.500   1.200   6.638  0.2545 -0.5917 -1.5528
  155SAPE   C2817179   5.627   1.379   6.671 -0.5267  0.2250  0.2377
  155SAPE   H8R17180   5.635   1.353   6.778 -1.1570 -0.2084  0.1813
  155SAPE   C2917181   5.713   1.465   6.617 -0.2702 -0.0421 -0.5990
  155SAPE   H9R17182   5.786   1.496   6.694 -2.1033  0.0888  1.1586
  155SAPE  C21017183   5.708   1.525   6.482 -0.6152 -0.2189 -0.0502
  155SAPE  H10R17184   5.626   1.599   6.472 -0.7462 -0.5120 -1.3278
  155SAPE  H10S17185   5.679   1.448   6.407  1.1321  0.1142 -1.1171
  155SAPE  C21117186   5.836   1.589   6.440 -0.3994 -0.2310  0.5874
  155SAPE  H11R17187   5.891   1.639   6.522  2.1757 -1.1523 -0.4712
  155SAPE  C21217188   5.857   1.612   6.305 -0.9652 -0.6152  0.0184
  155SAPE  H12R17189   5.946   1.666   6.269 -1.1110 -1.1160 -1.1023
  155SAPE  C21317190   5.772   1.584   6.186 -1.0904  0.6455  0.4635
  155SAPE  H13R17191   5.749   1.674   6.126 -0.3127 -0.9945 -2.5261
  155SAPE  H13S17192   5.673   1.553   6.224 -0.2307 -0.7699  1.6938
  155SAPE  C21417193   5.827   1.473   6.095 -0.1571 -0.6527 -0.2886
  155SAPE  H14R17194   5.854   1.387   6.158  1.4511  0.9767  1.3447
  155SAPE  C21517195   5.830   1.460   5.961 -0.2556  0.3404  0.5842
  155SAPE  H15R17196   5.857   1.365   5.912  0.0934  0.1681  1.0952
  155SAPE  C21617197   5.803   1.564   5.856 -0.2124 -0.3571 -0.3174
  155SAPE  H16R17198   5.733   1.641   5.895  0.9463  1.2440 -1.2690
  155SAPE  H16S17199   5.749   1.526   5.766 -0.4197 -0.7364 -0.0348
  155SAPE  C21717200   5.931   1.641   5.809 -0.6496  0.1645 -0.1804
  155SAPE  H17R17201   5.980   1.707   5.883 -0.9498  0.6989 -0.4534
  155SAPE  H17S17202   5.903   1.703   5.722  2.2663 -0.7014 -1.8560
  155SAPE  C21817203   6.042   1.546   5.765  0.5566 -0.2531 -1.1768
  155SAPE  H18R17204   5.996   1.466   5.704 -0.5492 -0.2462 -0.3796
  155SAPE  H18S17205   6.089   1.503   5.856  0.6000  3.0932  0.5584
  155SAPE  C21917206   6.145   1.620   5.689  0.4258  0.6108 -0.0878
  155SAPE  H19R17207   6.184   1.710   5.741 -0.7712  0.2375  1.5269
  155SAPE  H19S17208   6.101   1.663   5.596 -0.0662 -1.6817 -0.9939
  155SAPE  C22017209   6.261   1.529   5.654 -0.0436 -0.3863  0.6281
  155SAPE  H20R17210   6.215   1.455   5.586  1.3993  0.2322 -1.0854
  155SAPE  H20S17211   6.304   1.474   5.740  1.7078 -1.9963 -1.1815
  155SAPE  H20T17212   6.345   1.575   5.598 -0.4474  0.3788  0.6352
  155SAPE   C3317213   4.592   1.100   6.290 -0.2545 -0.2629  0.0270
  155SAPE   H3X17214   4.484   1.089   6.266  0.0802 -1.7331 -0.9349
  155SAPE   H3Y17215   4.624   0.994   6.297 -2.0836 -0.8980 -0.6483
  155SAPE   C3417216   4.666   1.180   6.177  0.3267 -0.1065  0.6858
  155SAPE   H4X17217   4.770   1.211   6.201  1.2180 -0.6166 -2.1597
  155SAPE   H4Y17218   4.600   1.267   6.161  0.4834  0.1613  1.4469
  155SAPE   C3517219   4.659   1.101   6.046  0.9806 -0.1334  1.0000
  155SAPE   H5X17220   4.559   1.054   6.044  1.5470 -1.5906  3.4738
  155SAPE   H5Y17221   4.726   1.013   6.058 -0.9150 -1.5441  1.6790
  155SAPE   C3617222   4.691   1.198   5.932  0.4457  0.2663  0.0166
  155SAPE   H6X17223   4.766   1.277   5.953 -2.8136  3.8727 -0.7022
  155SAPE   H6Y17224   4.599   1.260   5.919  0.6811  0.6077 -0.0252
  155SAPE   C3717225   4.725   1.126   5.806  0.1468  0.1456  0.5419
  155SAPE   H7X17226   4.640   1.059   5.784  0.8173 -0.8990  1.0506
  155SAPE   H7Y17227   4.817   1.064   5.814 -1.8675 -3.1247  0.1616
  155SAPE   C3817228   4.740   1.219   5.686  0.1112 -0.4049  1.0884
  155SAPE   H8X17229   4.842   1.263   5.687 -0.6265  1.3766  1.4228
  155SAPE   H8Y17230   4.667   1.299   5.709 -2.9978 -3.3815  2.4996
  155SAPE   C3917231   4.702   1.163   5.548 -0.4951 -0.1804  0.1992
  155SAPE   H9X17232   4.627   1.084   5.570 -0.7294 -0.0846 -0.2568
  155SAPE   H9Y17233   4.788   1.109   5.503 -0.0051  0.4197  0.4132
  155SAPE  C31017234   4.651   1.274   5.449  0.5115 -0.3481 -0.8194
  155SAPE  H10X17235   4.728   1.354   5.447 -0.8101  0.9715 -0.6757
  155SAPE  H10Y17236   4.565   1.332   5.489  2.2130  2.0332 -0.4235
  155SAPE  C31117237   4.629   1.211   5.311 -0.1547  0.0670  0.0294
  155SAPE  H11X17238   4.535   1.151   5.310 -1.0870  1.4459 -1.0896
  155SAPE  H11Y17239   4.705   1.133   5.291 -0.5360 -1.1291  2.8119
  155SAPE  C31217240   4.633   1.330   5.208  0.2689  0.4691  0.3468
  155SAPE  H12X17241   4.592   1.417   5.263 -0.8825  1.2975 -1.6786
  155SAPE  H12Y17242   4.555   1.293   5.138  1.1789  0.8216 -0.8986
  155SAPE  C31317243   4.763   1.356   5.129  0.1095 -0.4208 -0.4308
  155SAPE  H13X17244   4.779   1.266   5.067 -0.2326 -1.8889  1.5162
  155SAPE  H13Y17245   4.854   1.376   5.191  0.8128  1.0049 -1.8416
  155SAPE  C31417246   4.750   1.478   5.048  0.1374 -0.1546  0.8411
  155SAPE  H14X17247   4.759   1.579   5.095  0.6740 -0.3008  1.0580
  155SAPE  H14Y17248   4.660   1.461   4.985  2.4442 -2.9753 -2.0407
  155SAPE  C31517249   4.869   1.485   4.945  0.6496 -0.0971  0.5174
  155SAPE  H15X17250   4.963   1.481   5.004  1.5008 -3.5322 -0.8291
  155SAPE  H15Y17251   4.864   1.583   4.893  0.8611 -0.6667 -0.6155
  155SAPE  C31617252   4.887   1.375   4.844 -0.0381  0.6158  0.2833
  155SAPE  H16X17253   4.795   1.331   4.798  0.5892 -1.0483  0.5755
  155SAPE  H16Y17254   4.938   1.291   4.894 -0.9795 -0.7342 -0.9317
  155SAPE  C31717255   4.963   1.427   4.716 -0.5511  0.0067 -0.1483
  155SAPE  H17X17256   4.902   1.517   4.690 -1.1272  0.0433  1.2089
  155SAPE  H17Y17257   4.961   1.348   4.638  2.4158 -0.2427 -0.0577
  155SAPE  C31817258   5.112   1.466   4.736 -0.1322  0.1383 -0.7827
  155SAPE  H18X17259   5.157   1.521   4.651 -0.2195  0.6723 -0.4838
  155SAPE  H18Y17260   5.179   1.381   4.763 -0.7389  0.2331  1.1453
  155SAPE  H18Z17261   5.123   1.525   4.829  2.1465 -2.3839  0.7127
  156SAPE     N17262   1.773   3.825   6.949 -0.1484  0.2677  0.3964
  156SAPE   HN117263   1.811   3.838   7.044  1.3574 -1.3585  0.0717
  156SAPE   HN217264   1.824   3.744   6.908 -2.8163 -1.6444  0.6174
  156SAPE   HN317265   1.809   3.903   6.890  0.5899  1.1179  1.9109
  156SAPE   C1217266   1.626   3.807   6.937 -0.5518  0.3188  0.1792
  156SAPE  H12A17267   1.601   3.782   6.831 -1.6003  2.6929 -0.2060
  156SAPE  H12B17268   1.580   3.906   6.956 -1.6722  0.2091 -1.6970
  156SAPE   C1117269   1.572   3.713   7.051  0.3376  0.0545  0.6298
  156SAPE  H11A17270   1.573   3.763   7.150  1.0363 -0.6691  1.0002
  156SAPE  H11B17271   1.632   3.619   7.055 -0.6533 -0.5983  0.4753
  156SAPE     P17272   1.308   3.745   7.064  0.3934 -0.2003 -0.5230
  156SAPE   O1317273   1.303   3.736   7.210 -0.3049  0.2390  0.1173
  156SAPE   O1417274   1.296   3.883   7.009  1.0212  0.1611 -0.2249
  156SAPE   O1217275   1.443   3.673   7.013 -0.2418 -0.4484 -0.0816
  156SAPE   O1117276   1.193   3.648   7.002  0.1239  0.5734 -0.1150
  156SAPE    C117277   1.198   3.510   6.968  0.0627  0.7230 -0.2933
  156SAPE    HA17278   1.304   3.477   6.957 -0.1635 -0.1990  0.2784
  156SAPE    HB17279   1.150   3.448   7.047 -2.7871  4.6665  1.4267
  156SAPE    C217280   1.130   3.469   6.834  0.4585 -0.0242 -0.9078
  156SAPE    HS17281   1.174   3.534   6.755  3.1664  0.7954  1.1022
  156SAPE   O2117282   0.985   3.492   6.846 -0.0777 -0.1230  0.1985
  156SAPE   C2117283   0.924   3.534   6.728 -0.5133 -0.4397  0.4602
  156SAPE   O2217284   0.979   3.552   6.620 -0.1666  0.3039 -0.5281
  156SAPE   C2217285   0.781   3.558   6.747  0.0861 -0.3468  0.2332
  156SAPE   H2R17286   0.728   3.462   6.762  1.3048 -1.0907 -0.0770
  156SAPE   H2S17287   0.775   3.621   6.839  2.8942  0.7460 -0.2327
  156SAPE    C317288   1.150   3.314   6.795  0.1615  0.3282 -0.1267
  156SAPE    HX17289   1.092   3.256   6.870 -0.0094 -2.4836 -2.2723
  156SAPE    HY17290   1.260   3.300   6.802  0.3257  1.8360  0.8115
  156SAPE   O3117291   1.103   3.276   6.667  0.1707 -0.0715  0.6286
  156SAPE   C3117292   1.182   3.286   6.567  0.9040 -0.0516  0.6372
  156SAPE   O3217293   1.295   3.329   6.571 -0.3608  0.7603  0.2905
  156SAPE   C3217294   1.113   3.255   6.430 -0.6546  0.0664 -0.2311
  156SAPE   H2X17295   1.014   3.306   6.421 -1.2589 -0.6998  1.6095
  156SAPE   H2Y17296   1.108   3.144   6.434 -0.9081  0.1268  2.6057
  156SAPE   C2317297   0.717   3.633   6.634  0.7750 -0.2483  0.9336
  156SAPE   H3R17298   0.790   3.706   6.592 -0.9108  2.1805  1.9773
  156SAPE   H3S17299   0.629   3.691   6.670  0.0875  0.4267 -1.6127
  156SAPE   C2417300   0.654   3.535   6.531  0.0306  0.6580 -0.0339
  156SAPE   H4R17301   0.563   3.487   6.571  0.1153  0.0779 -0.5253
  156SAPE   H4S17302   0.724   3.452   6.509 -0.7072  0.0911 -0.2710
  156SAPE   C2517303   0.607   3.608   6.406 -0.6038 -0.3367 -1.0268
  156SAPE   H5R17304   0.529   3.685   6.416  0.9074  1.2141 -0.6441
  156SAPE   C2617305   0.673   3.608   6.287 -0.2670 -0.3290 -0.3907
  156SAPE   H6R17306   0.626   3.677   6.216 -2.2383 -0.7385  0.4591
  156SAPE   C2717307   0.790   3.521   6.247  0.2458  0.2506 -0.3300
  156SAPE   H7R17308   0.776   3.411   6.258 -0.4752  0.2021 -1.6311
  156SAPE   H7S17309   0.872   3.553   6.315 -0.7838  0.0189  1.0775
  156SAPE   C2817310   0.842   3.542   6.108 -0.4462 -0.1960 -0.9765
  156SAPE   H8R17311   0.903   3.633   6.100  3.7483 -2.2409  3.0996
  156SAPE   C2917312   0.814   3.479   5.995 -0.1582 -0.0832  0.3044
  156SAPE   H9R17313   0.872   3.514   5.908 -0.7739 -0.4146 -0.2470
  156SAPE  C21017314   0.718   3.359   5.978  0.1528 -0.8494 -0.2496
  156SAPE  H10R17315   0.614   3.396   5.995 -0.1429 -1.7648 -0.0071
  156SAPE  H10S17316   0.747   3.288   6.058 -0.4184 -0.1177  0.6363
  156SAPE  C21117317   0.727   3.294   5.847 -0.2119  0.6015  0.1783
  156SAPE  H11R17318   0.825   3.247   5.829 -0.1146  1.2725 -1.1353
  156SAPE  C21217319   0.650   3.293   5.734 -0.3434  0.3435  0.5587
  156SAPE  H12R17320   0.687   3.254   5.639 -1.8052 -1.7220  0.7753
  156SAPE  C21317321   0.521   3.364   5.715  0.1309 -0.1201 -0.0405
  156SAPE  H13R17322   0.535   3.459   5.770 -1.4458 -0.8055  1.6353
  156SAPE  H13S17323   0.443   3.316   5.778  1.3698  1.0939  2.6085
  156SAPE  C21417324   0.477   3.394   5.571 -0.0400  0.4945 -0.3199
  156SAPE  H14R17325   0.405   3.330   5.518 -0.2263  1.2429 -0.9938
  156SAPE  C21517326   0.532   3.490   5.496 -0.5725 -0.6002  0.1937
  156SAPE  H15R17327   0.488   3.507   5.397  1.4122 -0.2246 -0.6862
  156SAPE  C21617328   0.643   3.597   5.528 -0.0384  0.4879 -0.3844
  156SAPE  H16R17329   0.652   3.618   5.637 -0.7398  1.3432 -0.4818
  156SAPE  H16S17330   0.623   3.695   5.480 -0.1944  0.3097 -0.6875
  156SAPE  C21717331   0.788   3.571   5.469  0.1632 -0.2926 -0.6954
  156SAPE  H17R17332   0.769   3.525   5.370 -3.4570  2.1625 -1.3728
  156SAPE  H17S17333   0.843   3.500   5.534 -2.5994 -0.7941  1.2726
  156SAPE  C21817334   0.875   3.694   5.464  0.0840  0.0611 -0.5512
  156SAPE  H18R17335   0.887   3.720   5.571 -2.5409  0.0758 -0.1852
  156SAPE  H18S17336   0.815   3.765   5.402 -1.8766 -1.2346 -0.2200
  156SAPE  C21917337   1.007   3.674   5.384  0.4923  0.5246 -0.1383
  156SAPE  H19R17338   1.052   3.593   5.445  0.5529  0.2467 -0.5433
  156SAPE  H19S17339   1.072   3.763   5.394  0.7780  0.3064 -0.0240
  156SAPE  C22017340   0.995   3.633   5.231 -0.5069 -0.1219  0.4062
  156SAPE  H20R17341   0.926   3.709   5.189 -0.6906 -0.0850  0.7652
  156SAPE  H20S17342   0.939   3.537   5.232 -1.3926  0.3893  1.3404
  156SAPE  H20T17343   1.100   3.636   5.194 -0.4559 -1.1577  0.4270
  156SAPE   C3317344   1.210   3.274   6.311  0.7365 -0.5327 -0.2523
  156SAPE   H3X17345   1.313   3.239   6.337  1.9313  3.3235  1.0111
  156SAPE   H3Y17346   1.224   3.382   6.291  1.8104 -0.7182 -0.5558
  156SAPE   C3417347   1.158   3.218   6.179  0.3386 -0.6465  0.5137
  156SAPE   H4X17348   1.048   3.225   6.169  0.5479  1.0583 -1.1100
  156SAPE   H4Y17349   1.197   3.116   6.157 -3.8081 -2.2155 -0.4291
  156SAPE   C3517350   1.205   3.297   6.058 -0.0878  0.3425  0.1228
  156SAPE   H5X17351   1.315   3.302   6.067  0.0421  0.7394 -1.3118
  156SAPE   H5Y17352   1.173   3.403   6.069 -1.7610 -0.2091  0.8586
  156SAPE   C3617353   1.177   3.247   5.920  0.1183 -0.7367  0.1751
  156SAPE   H6X17354   1.080   3.192   5.921 -0.7822  0.7638 -0.5341
  156SAPE   H6Y17355   1.250   3.167   5.896  1.5720  1.0683 -1.7443
  156SAPE   C3717356   1.195   3.353   5.815  0.1402  0.8079  0.7776
  156SAPE   H7X17357   1.296   3.398   5.817  0.0996  0.8751  1.7515
  156SAPE   H7Y17358   1.125   3.439   5.826  1.1639  2.1079 -1.9871
  156SAPE   C3817359   1.181   3.284   5.672 -0.7311  0.2920 -0.5718
  156SAPE   H8X17360   1.253   3.203   5.650  0.6580  0.6882  2.0676
  156SAPE   H8Y17361   1.205   3.368   5.604  0.4336  1.2401  0.9362
  156SAPE   C3917362   1.041   3.235   5.631  0.4680  0.4166 -0.2922
  156SAPE   H9X17363   0.965   3.314   5.651  0.4082  0.1516  0.5475
  156SAPE   H9Y17364   1.001   3.142   5.678 -1.0761  1.9878  1.6881
  156SAPE  C31017365   1.037   3.197   5.479 -0.0079  0.0589 -0.4572
  156SAPE  H10X17366   1.069   3.093   5.458  1.7785  0.3621  0.5772
  156SAPE  H10Y17367   1.126   3.242   5.432  0.9229 -0.8451  0.3801
  156SAPE  C31117368   0.911   3.234   5.407 -0.3342 -0.0852  0.8499
  156SAPE  H11X17369   0.905   3.344   5.405 -2.6265 -0.1246  2.1757
  156SAPE  H11Y17370   0.815   3.194   5.446  0.2961 -2.9023 -0.2399
  156SAPE  C31217371   0.926   3.184   5.260  0.5479  0.4477 -0.2118
  156SAPE  H12X17372   0.926   3.073   5.265 -0.1743  0.4816  0.6979
  156SAPE  H12Y17373   1.024   3.204   5.212  0.6683  2.3494  0.7411
  156SAPE  C31317374   0.801   3.225   5.175  0.3392  0.8228  0.6401
  156SAPE  H13X17375   0.800   3.336   5.162  1.0197  0.6696 -1.0758
  156SAPE  H13Y17376   0.706   3.195   5.224 -0.9116 -0.5452 -2.3611
  156SAPE  C31417377   0.802   3.168   5.027 -0.0676 -0.3584 -0.2483
  156SAPE  H14X17378   0.774   3.061   5.025 -0.5461 -0.2610  0.8729
  156SAPE  H14Y17379   0.902   3.174   4.978 -0.0957  3.5170 -0.1110
  156SAPE  C31517380   0.707   3.264   4.942  0.1897  0.0851 -0.2473
  156SAPE  H15X17381   0.605   3.277   4.983  0.0190  3.9581 -1.4759
  156SAPE  H15Y17382   0.691   3.227   4.838  4.1119  0.2692 -1.0705
  156SAPE  C31617383   0.772   3.402   4.912  0.6425  0.1513 -0.1867
  156SAPE  H16X17384   0.850   3.376   4.837  1.4977  0.4879  0.5596
  156SAPE  H16Y17385   0.828   3.450   4.995 -0.2031  1.4238 -0.3381
  156SAPE  C31717386   0.673   3.490   4.837  0.0472 -0.4886 -0.0697
  156SAPE  H17X17387   0.582   3.513   4.897 -0.3379 -0.1254 -0.7666
  156SAPE  H17Y17388   0.647   3.432   4.745  1.3555 -4.4659  1.8534
  156SAPE  C31817389   0.732   3.618   4.778  0.2152  0.5080  0.8837
  156SAPE  H18X17390   0.803   3.586   4.699 -1.5826 -0.2293 -0.4902
  156SAPE  H18Y17391   0.795   3.677   4.848  0.7259  2.0772 -0.8045
  156SAPE  H18Z17392   0.658   3.677   4.720  1.7517  0.7684 -0.8795
  157SAPE     N17393   2.867   1.322   7.361 -0.3224 -0.2601 -0.1612
  157SAPE   HN117394   2.807   1.406   7.375  0.4986  0.5099 -1.0328
  157SAPE   HN217395   2.959   1.346   7.403 -1.1822 -0.9738  2.2806
  157SAPE   HN317396   2.886   1.310   7.259  2.3391 -0.4173  0.2908
  157SAPE   C1217397   2.821   1.196   7.426  0.6018 -0.1920 -0.1575
  157SAPE  H12A17398   2.785   1.220   7.528  1.5794  1.7295 -0.2263
  157SAPE  H12B17399   2.914   1.136   7.433  0.5057 -0.1339  2.5632
  157SAPE   C1117400   2.727   1.125   7.330  0.1718 -0.2407 -0.0157
  157SAPE  H11A17401   2.688   1.028   7.369 -1.7688  1.7594  3.4654
  157SAPE  H11B17402   2.782   1.115   7.234  1.1307 -0.1342  0.5146
  157SAPE     P17403   2.513   1.179   7.182 -0.1913 -0.1512 -0.5536
  157SAPE   O1317404   2.391   1.122   7.242  0.2050  0.1708 -0.0647
  157SAPE   O1417405   2.507   1.301   7.100  0.5697  0.3430 -0.3209
  157SAPE   O1217406   2.614   1.203   7.297  0.7698 -0.2834 -0.0426
  157SAPE   O1117407   2.589   1.059   7.111  0.4937 -0.5209  0.1031
  157SAPE    C117408   2.665   1.076   6.991 -0.8240 -0.9930 -0.4516
  157SAPE    HA17409   2.711   1.178   6.988  1.4431 -1.7735  2.4513
  157SAPE    HB17410   2.759   1.019   7.004 -0.5617 -0.5463 -0.3615
  157SAPE    C217411   2.589   1.035   6.860  0.8827  0.0378  0.2062
  157SAPE    HS17412   2.662   1.050   6.777  1.0583 -0.3950  0.2820
  157SAPE   O2117413   2.473   1.112   6.826  0.4292 -0.4197  0.3851
  157SAPE   C2117414   2.479   1.236   6.798 -0.1380  0.6998  0.2544
  157SAPE   O2217415   2.575   1.307   6.788 -0.5237 -0.3985  0.4018
  157SAPE   C2217416   2.336   1.296   6.791  0.0067  0.7331  0.4802
  157SAPE   H2R17417   2.273   1.235   6.859  2.3943 -0.2681  1.8865
  157SAPE   H2S17418   2.347   1.398   6.833  0.4268 -0.1711  2.7034
  157SAPE    C317419   2.549   0.883   6.862 -0.5898 -0.5204  0.7134
  157SAPE    HX17420   2.494   0.858   6.955  0.5177 -2.7435  0.8449
  157SAPE    HY17421   2.639   0.818   6.862  0.9838  1.5637  0.8454
  157SAPE   O3117422   2.481   0.843   6.731 -0.0113  0.5530  0.4763
  157SAPE   C3117423   2.352   0.812   6.737 -0.7499 -1.0123  0.1713
  157SAPE   O3217424   2.288   0.804   6.841  0.0406  0.3292  0.6857
  157SAPE   C3217425   2.295   0.796   6.593 -0.4251 -0.2014  0.4025
  157SAPE   H2X17426   2.364   0.733   6.533 -0.2323  1.7061 -1.4960
  157SAPE   H2Y17427   2.291   0.901   6.557  1.7073  0.2663  1.3500
  157SAPE   C2317428   2.282   1.280   6.646 -0.1429  0.2065  0.0986
  157SAPE   H3R17429   2.277   1.172   6.621  1.3017 -0.1645  1.2548
  157SAPE   H3S17430   2.347   1.329   6.570  1.2775 -2.3491 -0.4542
  157SAPE   C2417431   2.136   1.328   6.649 -0.2517  0.1862 -0.5245
  157SAPE   H4R17432   2.120   1.366   6.545 -1.6430  0.8913 -0.0812
  157SAPE   H4S17433   2.139   1.417   6.716 -2.1373  0.0792 -0.2489
  157SAPE   C2517434   2.044   1.222   6.708 -0.0081 -0.2374  0.8593
  157SAPE   H5R17435   2.040   1.212   6.818 -0.7901  0.1639  0.8703
  157SAPE   C2617436   1.943   1.166   6.637  0.0924 -0.0961 -0.2879
  157SAPE   H6R17437   1.870   1.098   6.684 -0.5106  0.7640  0.0675
  157SAPE   C2717438   1.909   1.197   6.495  0.1435 -0.0827 -0.1405
  157SAPE   H7R17439   1.989   1.243   6.434 -0.9017  0.4293 -1.1565
  157SAPE   H7S17440   1.815   1.257   6.489 -1.0657 -1.5301  2.4247
  157SAPE   C2817441   1.867   1.066   6.436 -0.1750  0.0082  0.0342
  157SAPE   H8R17442   1.853   0.985   6.509  1.0590  0.3463  0.6689
  157SAPE   C2917443   1.847   1.042   6.306  0.2676 -0.4455 -0.1865
  157SAPE   H9R17444   1.811   0.940   6.290  1.3408 -1.1969  1.8299
  157SAPE  C21017445   1.841   1.150   6.195 -0.6509  0.1304 -0.1437
  157SAPE  H10R17446   1.835   1.255   6.231 -1.0004 -0.0272  0.2679
  157SAPE  H10S17447   1.752   1.137   6.129 -2.2998  0.6145  1.8648
  157SAPE  C21117448   1.981   1.137   6.130  0.5188  0.2361  0.3224
  157SAPE  H11R17449   2.040   1.221   6.167 -1.4647  2.8770 -2.0336
  157SAPE  C21217450   2.021   1.066   6.018 -0.2997  0.0271 -0.5595
  157SAPE  H12R17451   2.127   1.068   5.989  0.0938  1.6982  0.8507
  157SAPE  C21317452   1.943   0.954   5.952  0.6238 -0.1535  0.2425
  157SAPE  H13R17453   1.877   0.902   6.025  1.2366 -0.5155  0.5448
  157SAPE  H13S17454   2.013   0.871   5.932 -0.5357 -0.8936 -0.8865
  157SAPE  C21417455   1.862   1.016   5.840 -0.4269 -0.9541 -0.2800
  157SAPE  H14R17456   1.806   1.107   5.863 -0.2626 -0.3362 -2.1414
  157SAPE  C21517457   1.876   0.976   5.712 -0.6745  0.1539  0.6940
  157SAPE  H15R17458   1.829   1.039   5.635 -0.2113  0.3407  0.5601
  157SAPE  C21617459   1.943   0.855   5.651  0.0396 -0.5569  0.3138
  157SAPE  H16R17460   1.862   0.787   5.616 -1.1096 -0.2366  2.1736
  157SAPE  H16S17461   1.996   0.799   5.731 -3.0676  0.4004  3.3602
  157SAPE  C21717462   2.042   0.894   5.540 -0.5321  0.1427  0.3956
  157SAPE  H17R17463   2.100   0.985   5.566 -1.5683  0.5991  1.1641
  157SAPE  H17S17464   1.979   0.916   5.451  0.7993  1.4667 -0.2671
  157SAPE  C21817465   2.123   0.767   5.494  0.2696 -0.6419 -0.4309
  157SAPE  H18R17466   2.054   0.681   5.483 -1.5508  0.9322 -2.0562
  157SAPE  H18S17467   2.185   0.748   5.584  1.7686  1.3169 -0.9748
  157SAPE  C21917468   2.202   0.786   5.361 -0.2077  0.5627  0.8001
  157SAPE  H19R17469   2.278   0.867   5.370  0.3826 -0.0371  1.3530
  157SAPE  H19S17470   2.132   0.823   5.283 -1.5616  2.0564  2.6234
  157SAPE  C22017471   2.263   0.659   5.314  0.4479 -0.5201  0.4916
  157SAPE  H20R17472   2.341   0.628   5.387  0.8344 -0.2368  0.2021
  157SAPE  H20S17473   2.300   0.673   5.210  0.0773  0.2603  0.4582
  157SAPE  H20T17474   2.189   0.577   5.303  0.7405 -0.7017 -0.1401
  157SAPE   C3317475   2.154   0.742   6.587 -0.4715  0.6286 -0.2425
  157SAPE   H3X17476   2.091   0.789   6.665 -0.1415 -2.1687  1.8774
  157SAPE   H3Y17477   2.156   0.635   6.618  0.7464  0.7556  0.1638
  157SAPE   C3417478   2.082   0.734   6.454  0.3420  0.1553  0.3341
  157SAPE   H4X17479   2.153   0.697   6.377 -1.8087 -3.2547 -0.2142
  157SAPE   H4Y17480   2.027   0.826   6.426 -0.8496 -1.2455 -2.2784
  157SAPE   C3517481   1.964   0.632   6.452  0.1156 -0.5227 -0.6633
  157SAPE   H5X17482   1.899   0.651   6.540  1.2408 -0.4875  0.1786
  157SAPE   H5Y17483   2.013   0.533   6.467  3.6780  0.9116 -1.6710
  157SAPE   C3617484   1.877   0.623   6.327  0.4702  1.2093  0.5427
  157SAPE   H6X17485   1.811   0.711   6.312  1.0183  1.8788  1.9294
  157SAPE   H6Y17486   1.796   0.547   6.339  0.7154  1.2379  2.8284
  157SAPE   C3717487   1.964   0.602   6.196 -0.1616  0.8683  0.1670
  157SAPE   H7X17488   2.052   0.535   6.211  1.4072  2.8308  0.2419
  157SAPE   H7Y17489   1.997   0.704   6.168  0.9811  0.4597 -0.0555
  157SAPE   C3817490   1.889   0.537   6.073 -0.4553 -0.0412 -0.0443
  157SAPE   H8X17491   1.801   0.602   6.055 -2.3758 -1.8342  2.2217
  157SAPE   H8Y17492   1.859   0.432   6.097  0.5420 -0.4337 -0.4285
  157SAPE   C3917493   1.975   0.530   5.940 -0.2963 -1.4482  0.0577
  157SAPE   H9X17494   2.063   0.465   5.959  0.4137 -0.5042  0.1055
  157SAPE   H9Y17495   2.013   0.634   5.925  2.0215 -2.2902 -0.2873
  157SAPE  C31017496   1.901   0.486   5.817  0.0145 -0.3657 -0.1190
  157SAPE  H10X17497   1.821   0.555   5.784 -0.2841 -2.0733 -3.3733
  157SAPE  H10Y17498   1.853   0.389   5.839 -0.9705  0.1453  0.0569
  157SAPE  C31117499   1.999   0.456   5.702  0.3902 -0.0427 -0.8497
  157SAPE  H11X17500   2.055   0.367   5.738 -0.2956 -0.3237 -0.4555
  157SAPE  H11Y17501   2.074   0.536   5.686  0.9165 -0.0753  1.1206
  157SAPE  C31217502   1.922   0.423   5.571  0.3011 -0.0684 -0.3424
  157SAPE  H12X17503   1.864   0.512   5.539  0.4391 -0.0033 -0.4114
  157SAPE  H12Y17504   1.851   0.339   5.588  1.2306 -0.4500  2.0118
  157SAPE  C31317505   2.011   0.380   5.452  0.5879 -0.1383 -1.0366
  157SAPE  H13X17506   2.070   0.290   5.482 -1.9030 -1.5494  0.0013
  157SAPE  H13Y17507   2.084   0.462   5.442  1.1810 -0.4733  0.2432
  157SAPE  C31417508   1.932   0.361   5.328 -0.8732 -0.1317 -0.1862
  157SAPE  H14X17509   1.840   0.302   5.346 -1.6597  0.7072 -1.2456
  157SAPE  H14Y17510   1.988   0.302   5.252 -0.7795  1.2894 -1.2661
  157SAPE  C31517511   1.889   0.487   5.261  0.5647 -0.0248 -0.2892
  157SAPE  H15X17512   1.961   0.567   5.290  2.4312 -0.9223 -2.2199
  157SAPE  H15Y17513   1.797   0.512   5.319 -0.0714 -2.4256 -0.1791
  157SAPE  C31617514   1.869   0.478   5.111 -0.2082 -0.2433 -0.5650
  157SAPE  H16X17515   1.803   0.391   5.086 -0.2318 -0.9193  1.5995
  157SAPE  H16Y17516   1.966   0.447   5.068 -1.6475 -1.1437 -3.3948
  157SAPE  C31717517   1.828   0.605   5.042  0.9940 -0.2541 -0.1841
  157SAPE  H17X17518   1.915   0.673   5.024  0.2958  0.5802 -0.4850
  157SAPE  H17Y17519   1.756   0.654   5.111  3.7681  1.4893  1.6647
  157SAPE  C31817520   1.748   0.571   4.917 -0.3536  0.3308  0.9431
  157SAPE  H18X17521   1.665   0.500   4.937 -0.3157 -0.3492 -1.0321
  157SAPE  H18Y17522   1.827   0.531   4.849 -0.4294 -0.8519  1.5279
  157SAPE  H18Z17523   1.708   0.660   4.864 -0.9883  1.3307  3.0193
  158SAPE     N17524   1.691   0.171   7.290 -0.2161  0.1773  0.4323
  158SAPE   HN117525   1.766   0.193   7.359 -0.5355 -1.0694  1.2076
  158SAPE   HN217526   1.678   0.068   7.281  0.5624  0.1777 -0.9098
  158SAPE   HN317527   1.716   0.218   7.201  1.4232 -1.9397 -0.3281
  158SAPE   C1217528   1.561   0.218   7.343  0.1853  0.6073  0.1904
  158SAPE  H12A17529   1.559   0.183   7.449 -1.8104 -0.5748 -0.1842
  158SAPE  H12B17530   1.473   0.183   7.285  1.3124  2.1700 -2.6613
  158SAPE   C1117531   1.578   0.371   7.356  0.4196  0.0566  0.0776
  158SAPE  H11A17532   1.661   0.411   7.419 -1.0427  2.3002  0.7081
  158SAPE  H11B17533   1.485   0.392   7.413 -0.8435 -0.9307 -1.5410
  158SAPE     P17534   1.571   0.593   7.230 -0.2780  0.2816 -0.2447
  158SAPE   O1317535   1.522   0.643   7.107  0.1431 -0.1236 -0.1441
  158SAPE   O1417536   1.507   0.643   7.349 -0.2116 -0.4077 -0.2228
  158SAPE   O1217537   1.563   0.433   7.231 -0.3042  0.0872 -0.1933
  158SAPE   O1117538   1.731   0.597   7.246  0.4421 -0.3088  0.4374
  158SAPE    C117539   1.821   0.538   7.153  0.2156  0.7627 -0.0084
  158SAPE    HA17540   1.914   0.497   7.198  1.3621  1.2782 -1.7812
  158SAPE    HB17541   1.780   0.458   7.088  2.1559 -0.5624  0.2907
  158SAPE    C217542   1.869   0.634   7.041 -0.5892  0.0284 -0.2082
  158SAPE    HS17543   1.934   0.707   7.093  0.8666 -1.5411  0.2466
  158SAPE   O2117544   1.765   0.680   6.955  0.1128 -0.3765 -0.7103
  158SAPE   C2117545   1.778   0.807   6.910 -0.1825  0.4282  0.8791
  158SAPE   O2217546   1.877   0.874   6.931  0.0186 -0.6628 -0.1971
  158SAPE   C2217547   1.661   0.849   6.822  0.2330 -0.0763  0.3188
  158SAPE   H2R17548   1.567   0.842   6.879  0.3402  1.3372  0.7035
  158SAPE   H2S17549   1.673   0.960   6.814 -0.2741 -0.0529 -0.1572
  158SAPE    C317550   1.964   0.549   6.946 -0.4476 -0.5785  0.2979
  158SAPE    HX17551   2.047   0.500   7.002 -0.1039 -1.8966 -1.3055
  158SAPE    HY17552   2.018   0.616   6.876 -1.0157  0.6658  1.0131
  158SAPE   O3117553   1.880   0.454   6.882 -0.6313  0.3227 -0.3952
  158SAPE   C3117554   1.931   0.399   6.769 -0.3625  0.1696  0.0736
  158SAPE   O3217555   2.034   0.440   6.714  0.2895 -0.5546 -0.3491
  158SAPE   C3217556   1.830   0.299   6.695 -0.5784  0.1173 -0.2585
  158SAPE   H2X17557   1.732   0.349   6.712 -0.7736 -0.1979 -0.4407
  158SAPE   H2Y17558   1.840   0.200   6.745  0.5323  0.3998  0.0906
  158SAPE   C2317559   1.635   0.787   6.678  0.2589  0.5708 -0.0670
  158SAPE   H3R17560   1.650   0.677   6.688  0.0672  0.3708 -1.7939
  158SAPE   H3S17561   1.717   0.820   6.611 -1.0131  0.1683 -1.9089
  158SAPE   C2417562   1.488   0.817   6.635 -0.2736  0.9589 -0.2077
  158SAPE   H4R17563   1.486   0.918   6.589  0.3915  0.9956 -0.1674
  158SAPE   H4S17564   1.421   0.824   6.724 -2.0948  0.2908 -1.4645
  158SAPE   C2517565   1.436   0.718   6.533 -0.0442 -0.7610  0.2158
  158SAPE   H5R17566   1.384   0.639   6.590  2.6465 -0.7508  2.9271
  158SAPE   C2617567   1.442   0.727   6.398  0.9227  0.3319  0.7073
  158SAPE   H6R17568   1.389   0.646   6.345  1.2516  0.1036  0.7224
  158SAPE   C2717569   1.511   0.830   6.313  0.5134  0.1982 -0.1757
  158SAPE   H7R17570   1.599   0.879   6.361  2.5823 -1.8728 -1.6436
  158SAPE   H7S17571   1.446   0.914   6.280 -0.4477 -0.6071 -0.3649
  158SAPE   C2817572   1.567   0.765   6.185  0.2076  0.1389  0.3028
  158SAPE   H8R17573   1.633   0.680   6.206 -0.4807  0.0087  2.1129
  158SAPE   C2917574   1.540   0.787   6.054  0.7853 -0.5086 -0.5515
  158SAPE   H9R17575   1.605   0.734   5.983  2.1277 -0.9656  0.9417
  158SAPE  C21017576   1.439   0.887   5.993 -0.3442  0.3360 -0.2724
  158SAPE  H10R17577   1.487   0.943   5.910 -0.9883  2.4845  0.7335
  158SAPE  H10S17578   1.391   0.955   6.066 -2.4110 -1.6693  0.3494
  158SAPE  C21117579   1.326   0.814   5.928 -0.1477 -0.9357 -0.5850
  158SAPE  H11R17580   1.264   0.752   5.995 -1.9240  0.9145 -0.4501
  158SAPE  C21217581   1.308   0.786   5.802 -0.2427 -0.6423  0.0099
  158SAPE  H12R17582   1.216   0.740   5.765 -1.1153  1.1980 -0.2101
  158SAPE  C21317583   1.390   0.846   5.694  0.0076  0.0074  0.3430
  158SAPE  H13R17584   1.410   0.954   5.710 -0.0724  0.2618 -1.1072
  158SAPE  H13S17585   1.342   0.844   5.593 -1.0113 -0.7941  0.8246
  158SAPE  C21417586   1.524   0.770   5.674  0.8790 -0.0414 -0.3792
  158SAPE  H14R17587   1.596   0.780   5.757 -1.2637 -0.0886  1.5976
  158SAPE  C21517588   1.558   0.695   5.567  0.2050 -0.3643  0.5972
  158SAPE  H15R17589   1.649   0.634   5.581 -1.5481 -2.6286  3.3778
  158SAPE  C21617590   1.479   0.670   5.437  0.2626 -0.4222  0.0825
  158SAPE  H16R17591   1.372   0.696   5.451  1.1037  2.6692  1.6110
  158SAPE  H16S17592   1.485   0.560   5.419  0.7770 -0.4008  0.1083
  158SAPE  C21717593   1.547   0.736   5.315 -0.0915  0.3549 -0.6409
  158SAPE  H17R17594   1.498   0.705   5.220 -0.3424  0.1319 -0.4424
  158SAPE  H17S17595   1.657   0.720   5.312 -0.2874 -1.3072 -0.3528
  158SAPE  C21817596   1.521   0.890   5.320 -0.4879  0.4172 -0.5424
  158SAPE  H18R17597   1.537   0.905   5.429  1.7746 -0.5940 -0.6600
  158SAPE  H18S17598   1.414   0.911   5.301 -1.1366  1.3754  3.2725
  158SAPE  C21917599   1.621   0.976   5.240 -0.0993  0.2681  0.7130
  158SAPE  H19R17600   1.610   0.940   5.135  0.2873  0.1841  0.7006
  158SAPE  H19S17601   1.726   0.964   5.273 -0.5681 -0.8559  1.8568
  158SAPE  C22017602   1.575   1.122   5.249  0.7303  0.1903 -0.4647
  158SAPE  H20R17603   1.470   1.131   5.213  0.6430  0.8738 -0.0522
  158SAPE  H20S17604   1.644   1.194   5.199 -0.4754  2.3734  0.8744
  158SAPE  H20T17605   1.578   1.146   5.357  0.7930 -1.7861  0.0079
  158SAPE   C3317606   1.853   0.273   6.544 -0.7205  0.8395  0.0789
  158SAPE   H3X17607   1.856   0.367   6.485  2.2980  1.6392  1.3026
  158SAPE   H3Y17608   1.771   0.209   6.507 -0.4359  0.6708 -0.2668
  158SAPE   C3417609   1.984   0.204   6.511 -0.4393  0.3790  0.8602
  158SAPE   H4X17610   1.987   0.111   6.572  2.0359  1.6431  2.8313
  158SAPE   H4Y17611   2.070   0.266   6.542  2.1515 -1.1563 -2.6017
  158SAPE   C3517612   1.993   0.182   6.362 -0.2589  0.8895  0.2590
  158SAPE   H5X17613   2.092   0.155   6.319 -0.8061  0.5405 -0.8216
  158SAPE   H5Y17614   1.957   0.275   6.312  0.1546  3.6609  4.5584
  158SAPE   C3617615   1.900   0.069   6.304  0.5171 -0.7966 -0.2085
  158SAPE   H6X17616   1.794   0.078   6.334  0.4929 -1.7490  0.0407
  158SAPE   H6Y17617   1.925  -0.022   6.362 -2.6243 -0.4792  1.8320
  158SAPE   C3717618   1.892   0.059   6.156 -0.3410  0.3386 -0.1714
  158SAPE   H7X17619   1.841   0.152   6.123 -0.7753  0.4497  0.7780
  158SAPE   H7Y17620   1.825  -0.025   6.130 -3.1787  2.7457 -1.2222
  158SAPE   C3817621   2.030   0.045   6.076  0.0382  0.9195  0.4121
  158SAPE   H8X17622   2.109  -0.015   6.127  0.2684 -0.7545 -1.7768
  158SAPE   H8Y17623   2.071   0.146   6.055  1.1858 -0.0612 -2.4896
  158SAPE   C3917624   2.006  -0.035   5.943 -0.4061 -0.8371  0.1570
  158SAPE   H9X17625   1.958  -0.132   5.969  1.3477 -2.2700 -1.6348
  158SAPE   H9Y17626   2.107  -0.055   5.902 -1.2405 -1.3370 -1.7380
  158SAPE  C31017627   1.929   0.050   5.844  0.4825  0.1470 -0.0486
  158SAPE  H10X17628   1.973   0.152   5.830  2.2534 -0.4558  0.7929
  158SAPE  H10Y17629   1.828   0.062   5.889  0.9665  0.8642  0.8966
  158SAPE  C31117630   1.903  -0.019   5.709  0.1846 -0.7326  0.7126
  158SAPE  H11X17631   1.815   0.019   5.652  1.0801 -1.2380 -1.0861
  158SAPE  H11Y17632   1.890  -0.129   5.713 -0.3619 -0.6720  0.7660
  158SAPE  C31217633   2.008   0.023   5.600  0.4097  0.1950  0.4477
  158SAPE  H12X17634   2.111   0.027   5.642  0.0438 -1.4177  1.5878
  158SAPE  H12Y17635   1.968   0.123   5.573 -2.1598 -0.8404  0.2073
  158SAPE  C31317636   1.999  -0.066   5.475  0.0658 -0.1156 -0.5258
  158SAPE  H13X17637   2.046  -0.160   5.512  1.2137  0.4562 -0.4827
  158SAPE  H13Y17638   2.061  -0.025   5.392 -0.6500  3.1745  0.4103
  158SAPE  C31417639   1.863  -0.092   5.407 -0.5828 -0.1240  0.7770
  158SAPE  H14X17640   1.802  -0.003   5.378  1.2500  0.3522 -1.9908
  158SAPE  H14Y17641   1.803  -0.157   5.475  1.2790 -0.0275  2.5926
  158SAPE  C31517642   1.880  -0.179   5.279 -0.3797 -0.4601  0.1982
  158SAPE  H15X17643   1.936  -0.274   5.297 -0.8356 -0.7442  0.1356
  158SAPE  H15Y17644   1.934  -0.118   5.203  2.1141 -0.5293  1.8037
  158SAPE  C31617645   1.753  -0.223   5.205 -0.7882 -0.1332 -0.4766
  158SAPE  H16X17646   1.688  -0.133   5.200 -1.4843 -0.4175  1.9456
  158SAPE  H16Y17647   1.696  -0.295   5.268 -1.9186 -0.1337 -1.4584
  158SAPE  C31717648   1.774  -0.280   5.065 -0.1888 -0.4064  0.0874
  158SAPE  H17X17649   1.790  -0.193   4.998 -0.4883 -0.4762 -0.0756
  158SAPE  H17Y17650   1.680  -0.330   5.033  0.2962 -2.1487  1.2366
  158SAPE  C31817651   1.882  -0.389   5.039  0.2780 -1.2685  1.1254
  158SAPE  H18X17652   1.868  -0.478   5.103 -0.4374 -2.3453 -0.4522
  158SAPE  H18Y17653   1.980  -0.347   5.071 -0.0693 -1.0225  1.8752
  158SAPE  H18Z17654   1.885  -0.408   4.929  0.8300 -1.5742  1.1929
  159SAPE     N17655   4.405   1.644   3.005  0.1223  0.3560 -0.0545
  159SAPE   HN117656   4.413   1.686   2.910  0.1826 -0.8119 -0.5768
  159SAPE   HN217657   4.494   1.591   3.019 -0.5376 -1.0238 -0.9428
  159SAPE   HN317658   4.323   1.581   2.999 -2.0187  2.8375  0.9815
  159SAPE   C1217659   4.406   1.749   3.112  0.4204 -0.1365 -0.1057
  159SAPE  H12A17660   4.431   1.694   3.205 -0.9622 -0.3963  0.1312
  159SAPE  H12B17661   4.310   1.805   3.122  0.4200  0.1508 -1.5465
  159SAPE   C1117662   4.525   1.851   3.086 -0.3066 -0.1756  0.4746
  159SAPE  H11A17663   4.535   1.912   3.178  0.9135  0.2251  0.0827
  159SAPE  H11B17664   4.495   1.915   3.000  1.5054  0.7159  0.4630
  159SAPE     P17665   4.790   1.835   3.087 -0.7975  0.2252  0.3641
  159SAPE   O1317666   4.877   1.716   3.118  0.4263 -0.0054 -0.2321
  159SAPE   O1417667   4.824   1.913   2.960  0.6447 -0.7058 -0.7484
  159SAPE   O1217668   4.645   1.782   3.056 -0.7642  0.1327  0.1409
  159SAPE   O1117669   4.782   1.934   3.213 -0.1096  0.3710  0.1759
  159SAPE    C117670   4.842   1.911   3.339  0.5222 -0.2968  0.0807
  159SAPE    HA17671   4.934   1.851   3.323  0.2396 -1.2332  1.7257
  159SAPE    HB17672   4.876   2.005   3.388 -0.7710 -0.1712  0.7721
  159SAPE    C217673   4.748   1.831   3.435 -0.4686 -0.3590  0.5493
  159SAPE    HS17674   4.722   1.742   3.373  0.5970  0.2763 -0.8528
  159SAPE   O2117675   4.641   1.915   3.473 -0.2023 -0.5997 -0.3911
  159SAPE   C2117676   4.531   1.846   3.514  0.0420 -0.2771  0.2673
  159SAPE   O2217677   4.514   1.728   3.508 -0.6474 -0.0771 -0.0496
  159SAPE   C2217678   4.439   1.945   3.572 -0.2072 -0.2596  0.3965
  159SAPE   H2R17679   4.405   1.893   3.664 -2.0642 -2.8251 -1.6043
  159SAPE   H2S17680   4.500   2.037   3.586  0.9566 -1.0774  0.8524
  159SAPE    C317681   4.822   1.778   3.566  0.3025 -0.4553  0.7031
  159SAPE    HX17682   4.758   1.706   3.621 -0.8955 -0.0242 -0.0810
  159SAPE    HY17683   4.831   1.862   3.638  0.9123 -1.3131  1.6586
  159SAPE   O3117684   4.955   1.732   3.540 -0.8989  0.0535 -1.1304
  159SAPE   C3117685   4.954   1.606   3.486 -0.4305 -0.1873 -0.4160
  159SAPE   O3217686   4.856   1.543   3.458 -0.0078  0.2672  0.1522
  159SAPE   C3217687   5.104   1.566   3.462 -0.0578  0.0818 -0.0172
  159SAPE   H2X17688   5.166   1.644   3.511 -2.5415  1.2183  1.5145
  159SAPE   H2Y17689   5.127   1.570   3.353 -1.2430 -1.0139 -0.3329
  159SAPE   C2317690   4.314   1.971   3.486  0.4232 -0.1955  0.2963
  159SAPE   H3R17691   4.282   1.893   3.414  0.5092  1.9228 -2.1926
  159SAPE   H3S17692   4.321   2.064   3.426  2.1717 -1.7168 -2.0281
  159SAPE   C2417693   4.195   1.998   3.588  0.2587 -0.8050  0.4428
  159SAPE   H4R17694   4.170   1.906   3.644  0.7970 -1.2021  0.0478
  159SAPE   H4S17695   4.111   2.015   3.517  0.3580 -0.9748  0.2834
  159SAPE   C2517696   4.208   2.132   3.662  0.8674 -0.2799  0.0970
  159SAPE   H5R17697   4.181   2.223   3.605 -1.8655 -1.5115 -0.7540
  159SAPE   C2617698   4.227   2.145   3.798  0.1137 -0.7397 -0.4892
  159SAPE   H6R17699   4.251   2.244   3.840  0.0339 -1.5376  1.5486
  159SAPE   C2717700   4.243   2.028   3.895  0.5656 -0.1555  0.2488
  159SAPE   H7R17701   4.348   2.030   3.930  1.5554  1.3919 -2.5171
  159SAPE   H7S17702   4.222   1.929   3.850  3.3920  0.2967 -2.3397
  159SAPE   C2817703   4.146   2.042   4.014  0.1465 -0.1559  0.3628
  159SAPE   H8R17704   4.046   2.083   3.994  0.4955  1.5473  1.9019
  159SAPE   C2917705   4.178   2.003   4.137 -0.4627 -0.2898  0.7506
  159SAPE   H9R17706   4.103   2.003   4.218 -1.5818 -0.2529 -0.2510
  159SAPE  C21017707   4.311   1.944   4.186  0.0181 -0.3412  0.0542
  159SAPE  H10R17708   4.404   1.982   4.139  0.3583  0.3894  1.2908
  159SAPE  H10S17709   4.313   1.833   4.171  0.0471 -0.4803  1.0464
  159SAPE  C21117710   4.330   1.963   4.334  0.0078  0.5001 -0.5045
  159SAPE  H11R17711   4.254   2.023   4.386 -0.6571 -0.3419 -0.4896
  159SAPE  C21217712   4.438   1.915   4.402 -0.8160  0.1288 -0.1164
  159SAPE  H12R17713   4.448   1.948   4.506 -1.2965  0.3637 -0.1401
  159SAPE  C21317714   4.556   1.834   4.354  1.2090 -0.0826  0.1959
  159SAPE  H13R17715   4.523   1.773   4.268 -3.4424 -0.0727  1.6764
  159SAPE  H13S17716   4.577   1.766   4.441  1.5422  1.5685  1.4528
  159SAPE  C21417717   4.672   1.920   4.315 -0.2678  0.3202  0.1178
  159SAPE  H14R17718   4.662   1.999   4.238 -1.3475 -1.2488 -1.4161
  159SAPE  C21517719   4.798   1.896   4.353 -0.5525 -0.4708  0.0126
  159SAPE  H15R17720   4.874   1.959   4.303 -1.0793  0.7544  0.7026
  159SAPE  C21617721   4.861   1.796   4.446  0.5799  0.0985  0.3267
  159SAPE  H16R17722   4.800   1.708   4.473  0.2110  0.7350  1.7096
  159SAPE  H16S17723   4.905   1.847   4.535  1.5006  0.6969 -0.4428
  159SAPE  C21717724   4.988   1.731   4.376 -0.4076 -0.8402  0.7076
  159SAPE  H17R17725   5.049   1.679   4.453  2.8781  1.5699 -0.0677
  159SAPE  H17S17726   5.059   1.812   4.348 -1.5792  0.7399  2.1351
  159SAPE  C21817727   4.947   1.639   4.260 -0.5346 -0.3570  0.3429
  159SAPE  H18R17728   4.907   1.704   4.179 -0.9445 -0.6298  0.3242
  159SAPE  H18S17729   4.859   1.577   4.286 -1.3672 -0.3828 -2.2543
  159SAPE  C21917730   5.067   1.572   4.199  0.0838 -0.4730 -0.4797
  159SAPE  H19R17731   5.131   1.652   4.155 -1.9630  1.0642 -0.8017
  159SAPE  H19S17732   5.045   1.509   4.110 -2.1136  0.6930 -0.8338
  159SAPE  C22017733   5.150   1.483   4.289  0.1273 -0.0669 -0.0944
  159SAPE  H20R17734   5.238   1.441   4.234  0.9631 -0.3647  1.4038
  159SAPE  H20S17735   5.090   1.405   4.341 -0.3011 -0.6193 -1.3803
  159SAPE  H20T17736   5.204   1.540   4.367 -0.8800 -0.2779  0.7776
  159SAPE   C3317737   5.150   1.426   3.511 -0.3155 -0.5528  0.6426
  159SAPE   H3X17738   5.259   1.422   3.489  0.2033  1.1416  2.6368
  159SAPE   H3Y17739   5.103   1.350   3.446  2.3423 -1.3743 -0.4603
  159SAPE   C3417740   5.128   1.411   3.656  0.5369 -0.4156 -0.1993
  159SAPE   H4X17741   5.020   1.420   3.681  0.0732  0.0340 -2.2071
  159SAPE   H4Y17742   5.167   1.504   3.702  2.5612 -1.3323  0.0570
  159SAPE   C3517743   5.189   1.286   3.705 -0.0089  1.1847 -0.0993
  159SAPE   H5X17744   5.300   1.295   3.697  0.2201 -0.7832  0.3713
  159SAPE   H5Y17745   5.156   1.210   3.632  1.2416  1.9822 -1.5484
  159SAPE   C3617746   5.166   1.250   3.847 -0.1335  0.1464  0.2293
  159SAPE   H6X17747   5.057   1.231   3.860  0.2092 -1.5130  0.8700
  159SAPE   H6Y17748   5.199   1.340   3.903  0.5775 -0.5127  0.8792
  159SAPE   C3717749   5.249   1.139   3.902 -0.6317 -0.0192 -0.1476
  159SAPE   H7X17750   5.356   1.160   3.882 -0.8648  0.5184 -0.8547
  159SAPE   H7Y17751   5.210   1.043   3.861  0.2253 -0.1886 -0.5847
  159SAPE   C3817752   5.225   1.135   4.054 -0.1328  1.0771  0.4606
  159SAPE   H8X17753   5.249   1.238   4.090 -0.0338  0.4011  2.4860
  159SAPE   H8Y17754   5.289   1.060   4.105  0.0897 -0.2757 -1.6911
  159SAPE   C3917755   5.085   1.096   4.092 -0.4055 -0.3031  0.4338
  159SAPE   H9X17756   5.043   1.006   4.042 -2.6343  0.6989  0.3821
  159SAPE   H9Y17757   5.028   1.186   4.062  1.7545  0.8026 -0.5915
  159SAPE  C31017758   5.058   1.081   4.241  0.1150 -1.0551  0.5175
  159SAPE  H10X17759   5.085   1.181   4.279  1.5566 -0.6325 -1.4647
  159SAPE  H10Y17760   5.131   1.011   4.287  1.6773 -0.2221 -0.6081
  159SAPE  C31117761   4.910   1.060   4.281  0.3158 -0.2512 -0.1457
  159SAPE  H11X17762   4.915   0.985   4.363 -0.5711 -0.8245 -0.5922
  159SAPE  H11Y17763   4.855   1.021   4.193 -0.5283  1.2452 -0.3069
  159SAPE  C31217764   4.841   1.191   4.335 -0.3903  0.5843  0.5094
  159SAPE  H12X17765   4.875   1.268   4.263 -1.9255  0.2529 -0.6170
  159SAPE  H12Y17766   4.879   1.210   4.438  0.5864  0.8038  0.1166
  159SAPE  C31317767   4.696   1.154   4.337  0.3784  0.0913 -0.1797
  159SAPE  H13X17768   4.691   1.077   4.417  1.7119  1.2436  1.0617
  159SAPE  H13Y17769   4.659   1.117   4.239  0.4063  1.7589 -0.8508
  159SAPE  C31417770   4.586   1.259   4.371 -0.5069  0.2627 -0.2783
  159SAPE  H14X17771   4.481   1.223   4.385  0.0485 -1.2404  0.2026
  159SAPE  H14Y17772   4.588   1.328   4.284  0.3481  0.7488  0.1164
  159SAPE  C31517773   4.608   1.329   4.507 -0.2881 -0.5583  0.1679
  159SAPE  H15X17774   4.714   1.362   4.506  0.0445 -1.5547 -1.3143
  159SAPE  H15Y17775   4.598   1.250   4.584  2.3523 -0.2767  0.8819
  159SAPE  C31617776   4.511   1.450   4.525  0.7327 -0.4786  0.2345
  159SAPE  H16X17777   4.407   1.426   4.495  0.6248 -0.0911  0.2872
  159SAPE  H16Y17778   4.540   1.530   4.453 -2.1557  1.1458  0.7016
  159SAPE  C31717779   4.502   1.503   4.669 -0.8054  0.1512 -0.0984
  159SAPE  H17X17780   4.605   1.534   4.698 -0.5105 -0.7856 -0.1059
  159SAPE  H17Y17781   4.476   1.423   4.742 -0.2564  0.4656  0.4550
  159SAPE  C31817782   4.393   1.609   4.680 -0.1534 -0.1828  1.0776
  159SAPE  H18X17783   4.397   1.661   4.778 -2.3446 -1.2784  1.8081
  159SAPE  H18Y17784   4.297   1.557   4.661  0.8371 -2.2643  1.4559
  159SAPE  H18Z17785   4.407   1.693   4.609 -1.5269 -0.3431  0.5842
  160SAPE     N17786   5.929   5.624   2.801 -0.3468 -0.8394  0.3895
  160SAPE   HN117787   5.897   5.560   2.725 -2.1090 -0.1795  0.5331
  160SAPE   HN217788   5.852   5.622   2.870 -0.8932 -0.9292 -0.2161
  160SAPE   HN317789   5.925   5.715   2.751  0.8753  1.2381  3.7465
  160SAPE   C1217790   6.063   5.593   2.850  0.1695 -0.4271  0.1260
  160SAPE  H12A17791   6.079   5.627   2.955  0.2548 -1.3501  0.4137
  160SAPE  H12B17792   6.134   5.641   2.778 -2.4821  1.9184 -1.1245
  160SAPE   C1117793   6.089   5.442   2.860  0.0323 -0.2623 -0.0661
  160SAPE  H11A17794   6.199   5.432   2.877 -0.0646 -0.9868  0.1563
  160SAPE  H11B17795   6.064   5.401   2.760 -1.0204  0.1382  0.0240
  160SAPE     P17796   6.052   5.266   3.058  0.3775  0.3363  0.1669
  160SAPE   O1317797   5.950   5.264   3.170 -0.7295 -0.3954 -0.4001
  160SAPE   O1417798   6.051   5.147   2.971 -0.2409  0.5738  0.2462
  160SAPE   O1217799   6.013   5.390   2.970 -0.3257 -0.2140  0.0408
  160SAPE   O1117800   6.196   5.292   3.109  0.1893 -0.5065  0.0253
  160SAPE    C117801   6.238   5.414   3.173 -0.5128  0.4324 -0.1286
  160SAPE    HA17802   6.320   5.459   3.113 -0.9793 -1.4079 -2.2845
  160SAPE    HB17803   6.165   5.497   3.167  0.8855  1.7006 -0.0637
  160SAPE    C217804   6.277   5.401   3.323 -0.1307 -0.7628  0.2112
  160SAPE    HS17805   6.184   5.387   3.383 -0.9108  1.9285 -0.2188
  160SAPE   O2117806   6.349   5.519   3.364  0.4027  0.2912  0.0123
  160SAPE   C2117807   6.274   5.626   3.375 -0.0973  0.1701 -0.1050
  160SAPE   O2217808   6.160   5.637   3.343  0.1509 -0.4325 -0.1038
  160SAPE   C2217809   6.353   5.742   3.449 -0.2700  0.0957 -1.3067
  160SAPE   H2R17810   6.439   5.686   3.491 -0.7885 -1.3334 -2.0853
  160SAPE   H2S17811   6.376   5.817   3.371  2.7778 -1.2112 -1.7821
  160SAPE    C317812   6.375   5.280   3.352  0.5118 -0.2490  0.0743
  160SAPE    HX17813   6.449   5.286   3.270 -0.0554 -4.4625 -0.9510
  160SAPE    HY17814   6.341   5.178   3.325 -0.3693  0.0959 -0.1586
  160SAPE   O3117815   6.440   5.281   3.479  0.1106 -0.1871  0.5072
  160SAPE   C3117816   6.351   5.237   3.579 -0.1819  0.0793  0.4332
  160SAPE   O3217817   6.249   5.178   3.553  0.1055  0.3582  0.0921
  160SAPE   C3217818   6.417   5.278   3.712  0.1341  0.1482  0.5488
  160SAPE   H2X17819   6.482   5.366   3.693  0.5232 -0.4840 -1.1462
  160SAPE   H2Y17820   6.466   5.189   3.758  0.3281 -0.3895 -0.6738
  160SAPE   C2317821   6.268   5.806   3.561  0.0042 -0.3624 -0.2417
  160SAPE   H3R17822   6.181   5.857   3.514  1.1264  0.1947 -1.8456
  160SAPE   H3S17823   6.313   5.900   3.599 -0.3113 -0.8081  1.3085
  160SAPE   C2417824   6.232   5.708   3.671  0.8001 -0.4674 -0.6416
  160SAPE   H4R17825   6.325   5.655   3.699  1.4230  0.8738 -0.0620
  160SAPE   H4S17826   6.164   5.635   3.622  0.0692 -0.1034 -0.2021
  160SAPE   C2517827   6.156   5.783   3.779 -0.0255 -0.4830  0.3951
  160SAPE   H5R17828   6.048   5.796   3.761  0.1705  2.4541  0.8132
  160SAPE   C2617829   6.208   5.829   3.896  0.3496  0.1212 -0.6135
  160SAPE   H6R17830   6.140   5.897   3.949 -1.6068 -0.5196 -2.1887
  160SAPE   C2717831   6.347   5.835   3.950 -0.2274  0.4502  0.8642
  160SAPE   H7R17832   6.374   5.943   3.955  1.9502 -0.0429  0.7989
  160SAPE   H7S17833   6.423   5.787   3.884 -3.3900 -1.7927 -1.4984
  160SAPE   C2817834   6.347   5.767   4.084 -0.1554  0.2150 -0.9982
  160SAPE   H8R17835   6.363   5.659   4.097 -0.4519  0.3701  0.9016
  160SAPE   C2917836   6.332   5.836   4.198 -0.8272 -0.3756 -0.5664
  160SAPE   H9R17837   6.349   5.781   4.292  0.7712 -0.6976 -1.0143
  160SAPE  C21017838   6.326   5.989   4.220 -0.3291  0.4028 -0.3223
  160SAPE  H10R17839   6.266   6.034   4.138  0.7102 -0.4957 -1.6151
  160SAPE  H10S17840   6.430   6.019   4.196  0.0988 -0.9989 -0.2713
  160SAPE  C21117841   6.288   6.029   4.360  0.4380  0.1250  0.6541
  160SAPE  H11R17842   6.182   6.058   4.350  1.1487  2.4662 -0.6138
  160SAPE  C21217843   6.337   6.019   4.484 -0.7685 -0.4790 -0.4438
  160SAPE  H12R17844   6.277   6.043   4.573 -0.4981  1.0851 -0.6575
  160SAPE  C21317845   6.464   5.966   4.533 -0.5397  0.2823  0.0149
  160SAPE  H13R17846   6.530   6.055   4.548  1.1923 -0.5807 -1.9495
  160SAPE  H13S17847   6.519   5.918   4.449  1.6180  0.6613  1.1205
  160SAPE  C21417848   6.461   5.857   4.638  0.1254  0.3482 -0.3296
  160SAPE  H14R17849   6.398   5.770   4.613  0.5665 -0.3678  0.9155
  160SAPE  C21517850   6.507   5.861   4.762  0.0386 -0.1466  0.7779
  160SAPE  H15R17851   6.498   5.776   4.832 -0.0812  0.5551  1.6270
  160SAPE  C21617852   6.573   5.982   4.827 -0.3975 -0.5292  0.2803
  160SAPE  H16R17853   6.595   6.059   4.751  1.1531 -2.1002 -0.9442
  160SAPE  H16S17854   6.668   5.957   4.879 -0.0805  1.2785  0.6272
  160SAPE  C21717855   6.492   6.039   4.947  0.5100 -0.8303  0.3598
  160SAPE  H17R17856   6.510   5.966   5.029  1.0825  0.3824  1.3407
  160SAPE  H17S17857   6.383   6.043   4.923  0.1905 -3.1665  1.1214
  160SAPE  C21817858   6.538   6.176   4.985 -0.0354 -0.2440 -0.1297
  160SAPE  H18R17859   6.475   6.217   5.067 -1.7390 -2.2357 -0.3735
  160SAPE  H18S17860   6.518   6.252   4.907 -2.1487  0.7816  1.2975
  160SAPE  C21917861   6.685   6.189   5.024 -0.3850  0.2517  0.4613
  160SAPE  H19R17862   6.745   6.199   4.931 -2.7784 -0.4152 -1.2515
  160SAPE  H19S17863   6.702   6.083   5.049  1.2914 -0.3573 -2.7255
  160SAPE  C22017864   6.712   6.284   5.132  0.1211 -0.1275 -0.1470
  160SAPE  H20R17865   6.793   6.256   5.202 -0.8396 -2.3087  0.1447
  160SAPE  H20S17866   6.620   6.320   5.182  0.6761  1.9753 -0.5129
  160SAPE  H20T17867   6.761   6.374   5.088 -0.6078 -0.3039 -1.3757
  160SAPE   C3317868   6.312   5.318   3.814 -0.1074 -0.6129 -1.0313
  160SAPE   H3X17869   6.262   5.222   3.838  1.9514 -1.4158  0.3399
  160SAPE   H3Y17870   6.230   5.378   3.769 -0.7474 -1.8348 -1.5471
  160SAPE   C3417871   6.385   5.392   3.931 -0.2542 -0.8952 -0.4213
  160SAPE   H4X17872   6.400   5.498   3.901 -1.8460 -0.0734  1.5107
  160SAPE   H4Y17873   6.479   5.334   3.945  1.9225  1.8931 -2.4696
  160SAPE   C3517874   6.325   5.398   4.071 -0.1517 -0.2565  0.0596
  160SAPE   H5X17875   6.269   5.303   4.064 -0.1086 -0.2163 -1.0243
  160SAPE   H5Y17876   6.262   5.489   4.084  0.6664  0.2167  0.8270
  160SAPE   C3617877   6.425   5.377   4.190  0.0406 -0.8907  0.3122
  160SAPE   H6X17878   6.494   5.464   4.196 -1.5300  0.3301  1.8593
  160SAPE   H6Y17879   6.489   5.291   4.162  1.4980 -0.2280  1.4719
  160SAPE   C3717880   6.340   5.355   4.314  0.4113  0.1949 -0.1247
  160SAPE   H7X17881   6.413   5.343   4.397  0.7570  2.0155 -0.1305
  160SAPE   H7Y17882   6.280   5.261   4.312 -0.6961  0.9085 -0.9594
  160SAPE   C3817883   6.263   5.471   4.369 -0.0717 -0.4950  0.3634
  160SAPE   H8X17884   6.187   5.498   4.293 -0.2361  0.0964  0.7361
  160SAPE   H8Y17885   6.336   5.554   4.386  0.3590 -0.9997  1.0307
  160SAPE   C3917886   6.200   5.439   4.505  0.1592 -0.0934  0.3255
  160SAPE   H9X17887   6.276   5.383   4.563  2.1328 -0.5453 -2.4807
  160SAPE   H9Y17888   6.107   5.380   4.491  0.2105 -0.7663  2.4490
  160SAPE  C31017889   6.156   5.566   4.578  0.5718  0.4360 -0.7278
  160SAPE  H10X17890   6.096   5.628   4.509 -1.3872 -1.7250 -1.0767
  160SAPE  H10Y17891   6.249   5.618   4.611 -0.5551  1.1930  1.5016
  160SAPE  C31117892   6.085   5.532   4.710  0.2831 -0.4495 -0.5783
  160SAPE  H11X17893   6.123   5.442   4.763 -0.5586 -0.7594 -0.4896
  160SAPE  H11Y17894   5.977   5.522   4.689  0.0730  1.0576 -0.3210
  160SAPE  C31217895   6.098   5.652   4.814 -0.0126  0.1591  0.9733
  160SAPE  H12X17896   6.202   5.688   4.820 -0.0695  0.5995 -0.2828
  160SAPE  H12Y17897   6.065   5.621   4.915  1.2784  0.3847  1.4731
  160SAPE  C31317898   6.026   5.785   4.775 -1.1259  0.3743  0.1825
  160SAPE  H13X17899   5.916   5.767   4.770 -0.7462 -2.0752 -1.1698
  160SAPE  H13Y17900   6.061   5.807   4.672 -1.2148  0.7504  0.2329
  160SAPE  C31417901   6.060   5.898   4.879  0.0219 -0.4659 -0.6626
  160SAPE  H14X17902   6.171   5.903   4.872 -0.0187 -0.0024 -1.0002
  160SAPE  H14Y17903   6.031   5.867   4.982 -0.0554 -1.3469 -0.9390
  160SAPE  C31517904   5.992   6.027   4.836 -0.1590 -0.2740  0.5397
  160SAPE  H15X17905   5.885   6.020   4.868  0.4001  0.3894  2.7415
  160SAPE  H15Y17906   6.000   6.028   4.726 -0.0223  0.6799  0.5532
  160SAPE  C31617907   6.054   6.156   4.887 -0.1646 -1.0522  0.1383
  160SAPE  H16X17908   5.998   6.238   4.838 -0.3321 -0.1513  1.7479
  160SAPE  H16Y17909   6.158   6.173   4.852  0.2857  0.3714  1.9682
  160SAPE  C31717910   6.042   6.170   5.038  0.3247 -0.5381 -0.0259
  160SAPE  H17X17911   6.097   6.079   5.072  1.1225  0.3541  1.1330
  160SAPE  H17Y17912   5.934   6.157   5.063  0.2468 -2.0480 -0.9749
  160SAPE  C31817913   6.093   6.295   5.106  0.6456  0.2609 -0.4563
  160SAPE  H18X17914   6.202   6.300   5.122  0.4186  2.9190  0.8298
  160SAPE  H18Y17915   6.057   6.307   5.211  1.5502 -0.1323 -0.0910
  160SAPE  H18Z17916   6.073   6.390   5.052  1.0601  0.5492 -0.1026
  161SAPE     N17917   2.635   3.064   3.032  0.2324  0.1153  0.2057
  161SAPE   HN117918   2.655   2.991   2.960 -1.8711 -0.9051  0.5727
  161SAPE   HN217919   2.535   3.064   3.060  0.3216 -0.6535  0.5563
  161SAPE   HN317920   2.662   3.160   3.003 -0.2026  0.1488 -0.0946
  161SAPE   C1217921   2.726   3.033   3.150 -0.1385  0.4654 -0.1868
  161SAPE  H12A17922   2.727   3.120   3.219 -1.1935 -0.8807  1.6084
  161SAPE  H12B17923   2.826   3.014   3.105 -0.4515 -1.0966 -0.2650
  161SAPE   C1117924   2.691   2.891   3.220 -0.0625  0.2935 -0.3733
  161SAPE  H11A17925   2.616   2.919   3.296 -0.9714  0.9327 -1.4738
  161SAPE  H11B17926   2.779   2.856   3.278 -1.1213 -0.1199  1.0314
  161SAPE     P17927   2.749   2.705   3.046  0.0328  0.3608  0.0813
  161SAPE   O1317928   2.681   2.634   2.940  0.4317  0.2335 -0.3286
  161SAPE   O1417929   2.854   2.799   3.000 -0.4844  0.0893  0.2877
  161SAPE   O1217930   2.649   2.792   3.126  0.6864  0.1579 -0.2993
  161SAPE   O1117931   2.803   2.608   3.141 -0.1365 -0.9026 -0.2272
  161SAPE    C117932   2.864   2.483   3.112 -0.0835 -0.0475  0.2795
  161SAPE    HA17933   2.868   2.465   3.003  2.2109  0.7470  0.1829
  161SAPE    HB17934   2.972   2.482   3.141  0.4102 -0.8826 -1.4649
  161SAPE    C217935   2.797   2.373   3.196  0.0134  0.6083  0.0823
  161SAPE    HS17936   2.687   2.372   3.178 -0.0215  1.8819  0.1479
  161SAPE   O2117937   2.810   2.408   3.337  0.0352  0.2657  0.1755
  161SAPE   C2117938   2.728   2.339   3.416 -0.0837 -0.1419 -0.1346
  161SAPE   O2217939   2.627   2.278   3.384 -0.1251 -0.1338  0.3559
  161SAPE   C2217940   2.774   2.349   3.562  0.0928  0.0847 -0.3615
  161SAPE   H2R17941   2.862   2.283   3.570 -1.1680 -1.5127  1.0574
  161SAPE   H2S17942   2.800   2.454   3.588 -0.1293  0.0708 -0.0795
  161SAPE    C317943   2.856   2.231   3.165  0.3904  0.4075  0.1790
  161SAPE    HX17944   2.967   2.221   3.169  0.4337 -0.3514 -1.8203
  161SAPE    HY17945   2.850   2.226   3.054  0.6681 -1.0498  0.2131
  161SAPE   O3117946   2.772   2.127   3.216 -0.1723 -0.2443 -0.0694
  161SAPE   C3117947   2.837   2.026   3.272 -0.2808 -0.1928  0.2481
  161SAPE   O3217948   2.961   2.023   3.279  0.1170  0.3610 -0.1537
  161SAPE   C3217949   2.744   1.928   3.326 -0.7588  0.2485  0.0161
  161SAPE   H2X17950   2.710   1.876   3.234  0.8519 -0.5808 -0.1460
  161SAPE   H2Y17951   2.652   1.980   3.360 -0.6116  1.6958 -1.6806
  161SAPE   C2317952   2.666   2.305   3.669 -0.0383 -0.1990  1.3724
  161SAPE   H3R17953   2.618   2.211   3.632 -0.9803  1.1320 -1.0738
  161SAPE   H3S17954   2.581   2.376   3.669 -0.7492 -0.9242 -1.4290
  161SAPE   C2417955   2.722   2.258   3.800  0.1989  0.4102 -0.3601
  161SAPE   H4R17956   2.629   2.271   3.860  1.0239  1.3855  0.7701
  161SAPE   H4S17957   2.808   2.324   3.823  0.8717 -0.8210  0.7689
  161SAPE   C2517958   2.778   2.117   3.810 -0.7391 -0.5158 -0.3289
  161SAPE   H5R17959   2.842   2.075   3.731  0.2003 -0.6093  0.4598
  161SAPE   C2617960   2.760   2.036   3.910  0.8873  0.1440 -0.7358
  161SAPE   H6R17961   2.812   1.940   3.906 -1.2613 -1.1803  0.9267
  161SAPE   C2717962   2.683   2.077   4.041  0.2428  0.4878 -0.0152
  161SAPE   H7R17963   2.665   1.983   4.098  0.2258  0.7020  0.3267
  161SAPE   H7S17964   2.585   2.110   4.001  0.1087 -0.8583 -0.8754
  161SAPE   C2817965   2.740   2.182   4.134  0.0723 -0.8507 -0.1941
  161SAPE   H8R17966   2.761   2.281   4.091 -1.5031  0.6569  2.2685
  161SAPE   C2917967   2.747   2.164   4.267 -0.2331 -0.1650  0.3760
  161SAPE   H9R17968   2.784   2.245   4.332  0.3020  0.8472 -1.1492
  161SAPE  C21017969   2.724   2.034   4.333  0.8941  0.5598 -0.3027
  161SAPE  H10R17970   2.779   2.011   4.427 -1.3524 -0.3819  0.8664
  161SAPE  H10S17971   2.759   1.945   4.276  0.6983  0.9324 -1.0154
  161SAPE  C21117972   2.580   2.020   4.375  0.5874 -0.3187 -0.0140
  161SAPE  H11R17973   2.506   2.031   4.293  0.4156  1.3579  0.3399
  161SAPE  C21217974   2.540   1.972   4.493  0.0112  0.9359  0.2629
  161SAPE  H12R17975   2.432   1.971   4.516 -0.2762  1.2014 -1.0047
  161SAPE  C21317976   2.625   1.932   4.613 -1.0163 -0.6019 -0.7551
  161SAPE  H13R17977   2.695   1.851   4.583  0.5283  0.8137 -1.0866
  161SAPE  H13S17978   2.561   1.876   4.685  1.6248 -1.7741  0.8244
  161SAPE  C21417979   2.692   2.041   4.687 -0.2226 -0.3051 -0.5829
  161SAPE  H14R17980   2.761   2.104   4.629  0.0642  0.4750  0.5810
  161SAPE  C21517981   2.688   2.062   4.819  0.3813  0.5047 -0.1512
  161SAPE  H15R17982   2.731   2.154   4.861 -0.9319  1.2042 -0.2766
  161SAPE  C21617983   2.614   1.987   4.931  0.5327 -0.5385 -0.0492
  161SAPE  H16R17984   2.600   1.878   4.912 -2.3583 -0.3652  0.5546
  161SAPE  H16S17985   2.516   2.038   4.942 -0.3839 -1.9351 -1.3666
  161SAPE  C21717986   2.705   1.992   5.060  0.1275 -0.0282 -0.4148
  161SAPE  H17R17987   2.811   1.964   5.046 -0.4711 -1.9915 -1.3965
  161SAPE  H17S17988   2.660   1.916   5.127  2.3692 -1.0459  0.0367
  161SAPE  C21817989   2.694   2.121   5.143 -0.0902  0.1883 -1.2730
  161SAPE  H18R17990   2.585   2.143   5.149 -0.3181 -1.0801 -0.5159
  161SAPE  H18S17991   2.745   2.204   5.090  2.5358 -0.4935  0.0205
  161SAPE  C21917992   2.767   2.112   5.279  0.0710  0.7261  0.3290
  161SAPE  H19R17993   2.749   2.011   5.323  2.9999 -0.8351 -1.7424
  161SAPE  H19S17994   2.727   2.192   5.345 -2.7462 -0.5508  0.3421
  161SAPE  C22017995   2.922   2.138   5.271  0.0926  0.0774  0.2075
  161SAPE  H20R17996   2.975   2.049   5.230  1.1284  0.7992 -0.0635
  161SAPE  H20S17997   2.965   2.142   5.373  3.1500 -0.4008 -0.9519
  161SAPE  H20T17998   2.963   2.228   5.220  0.7231 -0.1717  0.2649
  161SAPE   C3317999   2.805   1.844   3.438  0.1762 -0.0936 -0.1300
  161SAPE   H3X18000   2.848   1.903   3.522 -1.2583  0.3243  0.3312
  161SAPE   H3Y18001   2.891   1.785   3.398 -0.9857 -1.3747 -0.8069
  161SAPE   C3418002   2.701   1.750   3.493  0.0098  0.2619  0.0915
  161SAPE   H4X18003   2.720   1.658   3.434 -2.2456  1.1649 -2.2655
  161SAPE   H4Y18004   2.601   1.784   3.458  0.8964  2.1266 -0.7728
  161SAPE   C3518005   2.694   1.753   3.645 -0.0137  0.2538 -0.5815
  161SAPE   H5X18006   2.708   1.857   3.681 -0.6733 -0.2069  1.0947
  161SAPE   H5Y18007   2.782   1.697   3.682  0.0493  1.6669  1.5549
  161SAPE   C3618008   2.574   1.682   3.702  0.3744  0.2807 -0.8173
  161SAPE   H6X18009   2.568   1.577   3.668 -2.7340  0.1649 -0.1532
  161SAPE   H6Y18010   2.481   1.721   3.657  0.6057  0.2859 -1.2997
  161SAPE   C3718011   2.572   1.670   3.853 -0.7947 -0.4358 -0.2603
  161SAPE   H7X18012   2.494   1.594   3.872 -0.6033 -1.0839 -1.9121
  161SAPE   H7Y18013   2.549   1.767   3.903 -1.5229 -1.3196  1.1668
  161SAPE   C3818014   2.700   1.600   3.914 -0.8939 -0.0080  0.2638
  161SAPE   H8X18015   2.793   1.661   3.910  1.5683 -3.3310  1.8115
  161SAPE   H8Y18016   2.717   1.508   3.853  0.9583  0.8397 -0.5816
  161SAPE   C3918017   2.685   1.552   4.058  0.2322 -0.3649  0.3479
  161SAPE   H9X18018   2.776   1.494   4.084  0.3063  0.4085  1.9000
  161SAPE   H9Y18019   2.599   1.483   4.056 -0.8140  0.9212 -0.8804
  161SAPE  C31018020   2.648   1.667   4.151 -0.8289 -0.4310 -0.2344
  161SAPE  H10X18021   2.542   1.700   4.139 -1.1379 -0.3174  2.3388
  161SAPE  H10Y18022   2.719   1.749   4.126 -0.0702 -0.7365  0.8389
  161SAPE  C31118023   2.669   1.623   4.296  0.8167 -0.4119  0.5957
  161SAPE  H11X18024   2.677   1.713   4.360  0.5500 -0.8148  1.2018
  161SAPE  H11Y18025   2.761   1.560   4.294  0.6695 -0.6029 -0.8669
  161SAPE  C31218026   2.544   1.547   4.347 -0.5772 -0.0822 -0.8064
  161SAPE  H12X18027   2.530   1.466   4.272  0.4307  0.1927 -1.3099
  161SAPE  H12Y18028   2.459   1.617   4.335 -0.6963 -0.2439 -0.9152
  161SAPE  C31318029   2.548   1.472   4.481 -0.2133 -0.5150  0.2950
  161SAPE  H13X18030   2.601   1.375   4.468  0.1491 -0.5780  2.0232
  161SAPE  H13Y18031   2.443   1.449   4.505 -0.4945  0.2559 -0.1370
  161SAPE  C31418032   2.630   1.542   4.589  0.5383 -0.6552  0.8074
  161SAPE  H14X18033   2.596   1.647   4.600 -1.3698 -1.0255 -1.1171
  161SAPE  H14Y18034   2.738   1.522   4.569  0.3854 -0.3844 -0.3198
  161SAPE  C31518035   2.611   1.465   4.717  1.2897 -0.0192  0.0294
  161SAPE  H15X18036   2.634   1.356   4.712 -1.8413 -0.7347 -0.6710
  161SAPE  H15Y18037   2.501   1.463   4.733  1.1843 -1.1536 -0.7070
  161SAPE  C31618038   2.662   1.528   4.842  0.3935 -0.0129  0.6612
  161SAPE  H16X18039   2.619   1.460   4.918 -2.1454 -1.8724 -2.1985
  161SAPE  H16Y18040   2.618   1.628   4.863  0.6690  0.2333  0.1047
  161SAPE  C31718041   2.808   1.534   4.843  0.1567 -0.4207 -0.1545
  161SAPE  H17X18042   2.841   1.602   4.762 -1.1708  0.2572 -0.1720
  161SAPE  H17Y18043   2.849   1.432   4.831  2.4302  0.5437 -1.0268
  161SAPE  C31818044   2.856   1.592   4.982 -0.5374 -0.2961  0.1311
  161SAPE  H18X18045   2.831   1.524   5.067  0.5371 -0.1353  0.5971
  161SAPE  H18Y18046   2.796   1.685   4.988 -0.7780 -0.4075 -0.4465
  161SAPE  H18Z18047   2.966   1.603   4.975 -0.6042  1.2918  1.0438
  162SAPE     N18048   3.488   6.024   2.593  0.7466  0.3821  0.3355
  162SAPE   HN118049   3.516   5.930   2.558  0.4796  0.3107  0.3086
  162SAPE   HN218050   3.459   6.093   2.522 -0.3103 -0.6208 -0.2583
  162SAPE   HN318051   3.573   6.062   2.639 -0.8338  2.5650  1.6543
  162SAPE   C1218052   3.396   6.021   2.708 -0.2324  0.4301 -0.0899
  162SAPE  H12A18053   3.300   5.976   2.676 -0.9816  1.2084  0.9986
  162SAPE  H12B18054   3.384   6.120   2.757 -1.3654 -0.0816  0.6995
  162SAPE   C1118055   3.448   5.927   2.822 -0.1954 -1.0062 -0.1994
  162SAPE  H11A18056   3.380   5.934   2.909 -0.2650 -0.1982 -0.3100
  162SAPE  H11B18057   3.543   5.970   2.859  0.5136 -1.2798 -1.6190
  162SAPE     P18058   3.379   5.674   2.812  0.4202 -0.1547 -0.0386
  162SAPE   O1318059   3.243   5.703   2.758  0.0256  0.2432  0.1159
  162SAPE   O1418060   3.437   5.546   2.774 -0.0955  0.1688 -0.1016
  162SAPE   O1218061   3.478   5.795   2.765  0.0791  0.1430 -0.1833
  162SAPE   O1118062   3.367   5.693   2.973 -0.0082  0.2031  0.4639
  162SAPE    C118063   3.280   5.604   3.047 -0.6217 -0.6683 -1.0307
  162SAPE    HA18064   3.262   5.508   2.995  0.2784 -1.2547 -0.3046
  162SAPE    HB18065   3.334   5.574   3.139 -1.7165  1.3813  0.3758
  162SAPE    C218066   3.150   5.670   3.084 -0.5145  0.2918  0.1738
  162SAPE    HS18067   3.097   5.687   2.988  1.9653  1.8046 -1.0377
  162SAPE   O2118068   3.174   5.800   3.142  0.2861  0.0073 -0.7136
  162SAPE   C2118069   3.069   5.884   3.153  0.8589  0.1666 -0.8694
  162SAPE   O2218070   2.973   5.885   3.076  0.0044  0.3613 -0.2074
  162SAPE   C2218071   3.086   5.981   3.268 -0.0366 -0.6021  0.2787
  162SAPE   H2R18072   3.196   5.994   3.282  0.0133 -0.5238 -0.1586
  162SAPE   H2S18073   3.049   6.077   3.225 -0.9327 -0.2911  1.6757
  162SAPE    C318074   3.068   5.565   3.165 -0.4023  0.1734  0.2876
  162SAPE    HX18075   3.067   5.467   3.113 -1.4564 -1.4599  3.1785
  162SAPE    HY18076   2.963   5.599   3.175  0.6775  3.1965  3.0121
  162SAPE   O3118077   3.125   5.542   3.297  0.2320 -0.1090  0.0931
  162SAPE   C3118078   3.070   5.437   3.362 -0.7092 -0.1295  0.0480
  162SAPE   O3218079   2.980   5.366   3.314 -0.3322 -0.6579 -0.3245
  162SAPE   C3218080   3.136   5.406   3.495  0.2128 -0.1217 -0.1867
  162SAPE   H2X18081   3.246   5.404   3.484  0.1890  0.0103 -0.4581
  162SAPE   H2Y18082   3.100   5.303   3.515 -0.8593 -0.1060 -1.8417
  162SAPE   C2318083   3.006   5.959   3.396  0.6121 -0.3641  0.0041
  162SAPE   H3R18084   2.901   5.927   3.378 -0.0933  0.4304  2.3599
  162SAPE   H3S18085   3.005   6.058   3.445  1.0930 -0.1433 -0.4208
  162SAPE   C2418086   3.072   5.849   3.486 -1.0803  0.4826 -0.7959
  162SAPE   H4R18087   3.172   5.895   3.503 -0.8226 -0.1911 -0.4653
  162SAPE   H4S18088   3.076   5.756   3.426 -0.8490  0.3678 -0.6026
  162SAPE   C2518089   3.000   5.821   3.609  0.8692  0.6683 -0.6882
  162SAPE   H5R18090   2.939   5.729   3.607 -1.4029  2.0580 -3.8016
  162SAPE   C2618091   3.008   5.883   3.728 -0.3745 -0.7343 -0.0748
  162SAPE   H6R18092   2.929   5.854   3.799  1.0425 -1.2382  1.3666
  162SAPE   C2718093   3.099   5.996   3.771 -0.9754  0.1366 -1.0535
  162SAPE   H7R18094   3.045   6.079   3.822 -0.3616  0.4094 -0.8402
  162SAPE   H7S18095   3.149   6.045   3.685  0.2716  0.8468  0.0368
  162SAPE   C2818096   3.203   5.933   3.868  0.2706  0.1147 -0.0616
  162SAPE   H8R18097   3.273   5.869   3.811  0.5852 -0.8543  1.3739
  162SAPE   C2918098   3.228   5.927   4.003  0.3902  0.0454  0.4312
  162SAPE   H9R18099   3.314   5.872   4.043  1.1093  0.2250 -0.7962
  162SAPE  C21018100   3.147   6.008   4.102  0.0719 -0.7192 -0.4593
  162SAPE  H10R18101   3.052   6.038   4.054  0.1910 -1.8358 -1.4556
  162SAPE  H10S18102   3.209   6.095   4.132  0.1251 -0.9957  0.2373
  162SAPE  C21118103   3.119   5.916   4.227  0.3932 -0.6388  0.6097
  162SAPE  H11R18104   3.113   5.807   4.221 -1.5767 -0.5286  0.1267
  162SAPE  C21218105   3.102   5.976   4.344 -0.0729  0.2913 -0.1360
  162SAPE  H12R18106   3.064   5.913   4.425  2.3129 -1.9722 -0.6625
  162SAPE  C21318107   3.101   6.125   4.383 -0.6684  0.2513  0.6239
  162SAPE  H13R18108   3.025   6.141   4.462  1.4615  3.8898  2.2256
  162SAPE  H13S18109   3.087   6.190   4.294 -0.5525 -0.8509 -0.2145
  162SAPE  C21418110   3.225   6.180   4.444  0.2526 -0.7646 -0.7440
  162SAPE  H14R18111   3.298   6.210   4.368 -0.8324 -0.4787 -1.7044
  162SAPE  C21518112   3.265   6.181   4.574 -0.2888 -0.0948 -0.5381
  162SAPE  H15R18113   3.364   6.227   4.587  0.1743 -0.6716 -1.8738
  162SAPE  C21618114   3.190   6.136   4.705 -0.4700 -0.4794  0.1721
  162SAPE  H16R18115   3.232   6.036   4.732 -0.0892 -0.4585 -0.3125
  162SAPE  H16S18116   3.079   6.129   4.698 -0.4836  0.4923 -0.8028
  162SAPE  C21718117   3.216   6.233   4.822 -0.5763 -0.8030 -0.2746
  162SAPE  H17R18118   3.203   6.333   4.775  0.8924 -1.4686 -2.2521
  162SAPE  H17S18119   3.318   6.213   4.861 -0.2901  2.6689  1.0366
  162SAPE  C21818120   3.109   6.213   4.936  0.1390  0.6653 -0.0711
  162SAPE  H18R18121   3.112   6.110   4.980 -0.8075  0.4232 -0.5478
  162SAPE  H18S18122   3.006   6.236   4.904  0.2127  0.6305 -0.3326
  162SAPE  C21918123   3.147   6.309   5.056  0.3828  0.0860  0.2394
  162SAPE  H19R18124   3.124   6.416   5.036 -1.2640 -0.3605 -0.4352
  162SAPE  H19S18125   3.251   6.295   5.091  0.3255 -2.0183 -0.3384
  162SAPE  C22018126   3.076   6.259   5.180 -0.2026  0.3928  0.2322
  162SAPE  H20R18127   3.129   6.172   5.224  2.0529  0.4779 -2.0245
  162SAPE  H20S18128   2.979   6.224   5.140 -0.2075  2.5371 -1.8805
  162SAPE  H20T18129   3.066   6.339   5.256  0.8654 -0.2412  1.0715
  162SAPE   C3318130   3.092   5.500   3.606 -0.7873  1.1535 -0.4475
  162SAPE   H3X18131   2.982   5.510   3.589 -0.8633 -2.0617 -2.7690
  162SAPE   H3Y18132   3.151   5.590   3.578  2.1419 -0.5379 -0.1551
  162SAPE   C3418133   3.110   5.448   3.745 -0.4327 -0.3754  0.1670
  162SAPE   H4X18134   3.210   5.400   3.760 -0.4609 -1.6063 -2.8454
  162SAPE   H4Y18135   3.035   5.367   3.762 -1.3682 -0.0049 -1.9006
  162SAPE   C3518136   3.100   5.549   3.858  0.0946 -0.0232 -0.5617
  162SAPE   H5X18137   2.999   5.597   3.862  0.4644  0.7332  2.9124
  162SAPE   H5Y18138   3.178   5.626   3.841  0.8874 -0.4438  1.0039
  162SAPE   C3618139   3.101   5.472   3.993  0.3426  0.4003  0.8100
  162SAPE   H6X18140   3.197   5.416   3.997  1.3874  1.8907 -1.2696
  162SAPE   H6Y18141   3.025   5.393   3.978  1.2101  0.0429 -2.6777
  162SAPE   C3718142   3.088   5.545   4.124 -0.1704  0.7811  0.2476
  162SAPE   H7X18143   3.021   5.488   4.191 -2.4338  1.5992 -1.2090
  162SAPE   H7Y18144   3.040   5.644   4.111 -3.1664 -0.2515  2.4251
  162SAPE   C3818145   3.228   5.553   4.188 -0.2807 -0.4765  0.5899
  162SAPE   H8X18146   3.288   5.635   4.142  0.7854  0.8258  3.9745
  162SAPE   H8Y18147   3.285   5.460   4.165 -2.0509 -1.4354 -0.0797
  162SAPE   C3918148   3.214   5.560   4.339  0.1226  0.4262  0.5476
  162SAPE   H9X18149   3.198   5.459   4.383 -0.1122  0.1910 -0.0664
  162SAPE   H9Y18150   3.129   5.626   4.365  0.1755  1.3161 -1.3436
  162SAPE  C31018151   3.336   5.618   4.410  0.0199 -0.1183  0.9484
  162SAPE  H10X18152   3.386   5.701   4.354  0.5097 -1.2378 -0.3524
  162SAPE  H10Y18153   3.418   5.544   4.417  0.4958  0.3137  0.2377
  162SAPE  C31118154   3.301   5.683   4.548 -0.8637 -0.4719 -0.5462
  162SAPE  H11X18155   3.206   5.741   4.544  1.6895  4.4507  1.6282
  162SAPE  H11Y18156   3.379   5.752   4.586 -2.1241  0.2386  0.8614
  162SAPE  C31218157   3.280   5.574   4.653 -0.3365  0.0569  0.5780
  162SAPE  H12X18158   3.376   5.522   4.675 -1.6739 -2.2331  1.3347
  162SAPE  H12Y18159   3.210   5.497   4.613  0.5760 -0.8979  0.7821
  162SAPE  C31318160   3.211   5.633   4.772 -0.5583 -0.9044 -0.3093
  162SAPE  H13X18161   3.156   5.563   4.839 -0.9633  0.1872  0.5193
  162SAPE  H13Y18162   3.123   5.693   4.742  0.4605  0.1012 -1.4190
  162SAPE  C31418163   3.308   5.702   4.869  0.0255  0.9185 -0.1177
  162SAPE  H14X18164   3.359   5.782   4.810 -0.6503  3.1951  2.1828
  162SAPE  H14Y18165   3.386   5.632   4.905  1.0441  0.6043 -2.6734
  162SAPE  C31518166   3.239   5.787   4.977  0.1527 -0.0984 -0.4342
  162SAPE  H15X18167   3.221   5.714   5.058 -1.4471  0.6280 -0.1054
  162SAPE  H15Y18168   3.142   5.831   4.946  0.0735  0.8716  1.0954
  162SAPE  C31618169   3.332   5.893   5.037  0.4860 -0.0837 -0.4577
  162SAPE  H16X18170   3.309   5.994   4.997  1.5681  1.0950  1.7074
  162SAPE  H16Y18171   3.437   5.874   5.008  1.4447  0.4368  2.2920
  162SAPE  C31718172   3.337   5.884   5.194  0.5211 -0.2071  0.6119
  162SAPE  H17X18173   3.373   5.782   5.221  0.0404 -0.7735 -0.7788
  162SAPE  H17Y18174   3.228   5.896   5.213  0.3397  2.0521 -1.4256
  162SAPE  C31818175   3.430   5.987   5.248  0.3270  0.0424  0.4079
  162SAPE  H18X18176   3.428   5.961   5.356  0.2280 -2.4184 -0.1244
  162SAPE  H18Y18177   3.390   6.089   5.235  1.2282  0.5495  1.4145
  162SAPE  H18Z18178   3.531   5.977   5.203  0.0652  0.7305 -0.3513
  163SAPE     N18179   3.375   3.936   2.693  0.0297  0.3594 -0.0129
  163SAPE   HN118180   3.331   3.873   2.763  1.2756 -0.6517 -0.1133
  163SAPE   HN218181   3.388   4.033   2.730 -0.6630  0.6573 -0.5250
  163SAPE   HN318182   3.312   3.949   2.611  1.1666  0.3247 -0.9181
  163SAPE   C1218183   3.513   3.897   2.640  0.3805  0.3427 -0.0178
  163SAPE  H12A18184   3.543   3.972   2.563 -0.5555 -0.6093 -1.3581
  163SAPE  H12B18185   3.527   3.795   2.598  1.3914 -0.1619  1.4519
  163SAPE   C1118186   3.612   3.911   2.763 -0.8420 -1.0120  0.1223
  163SAPE  H11A18187   3.714   3.880   2.731 -0.5198 -1.5618  1.5724
  163SAPE  H11B18188   3.572   3.849   2.846 -0.2280 -0.7157  0.6572
  163SAPE     P18189   3.706   4.094   2.925  0.4210  0.0637 -0.1571
  163SAPE   O1318190   3.845   4.108   2.882 -0.1942  0.0448 -0.1766
  163SAPE   O1418191   3.646   4.209   2.997 -0.2794 -0.0444  0.0808
  163SAPE   O1218192   3.616   4.050   2.809  0.9900  0.4953  0.1143
  163SAPE   O1118193   3.698   3.970   3.013 -0.3820  0.1819  0.3654
  163SAPE    C118194   3.575   3.941   3.074 -0.0135  0.2641  0.3128
  163SAPE    HA18195   3.488   3.985   3.021  0.1728 -0.1072 -0.3119
  163SAPE    HB18196   3.568   3.830   3.082  0.6438  0.0143 -2.0003
  163SAPE    C218197   3.578   3.993   3.228 -0.2791 -0.8717 -0.0510
  163SAPE    HS18198   3.615   4.097   3.231 -1.1275 -0.5543 -0.2827
  163SAPE   O2118199   3.654   3.904   3.307  0.7945 -0.0645 -0.6609
  163SAPE   C2118200   3.769   3.944   3.353  0.2702 -0.1703 -0.7481
  163SAPE   O2218201   3.810   4.059   3.343  0.4869  0.1827 -0.6146
  163SAPE   C2218202   3.839   3.831   3.436  0.0657  1.0184  0.1924
  163SAPE   H2R18203   3.808   3.733   3.394 -1.8391  1.0687  1.4128
  163SAPE   H2S18204   3.949   3.830   3.419  0.2294 -0.3223  1.1211
  163SAPE    C318205   3.435   3.999   3.301 -0.4908 -0.2377 -0.2923
  163SAPE    HX18206   3.379   3.904   3.287  1.8148 -1.4985 -1.5860
  163SAPE    HY18207   3.382   4.077   3.243  2.0423  1.4266 -0.5271
  163SAPE   O3118208   3.444   4.036   3.446 -0.5522  0.0990  0.0081
  163SAPE   C3118209   3.478   4.163   3.478  0.2127 -0.2010  0.5906
  163SAPE   O3218210   3.481   4.255   3.397  0.2508  0.0713  0.1414
  163SAPE   C3218211   3.498   4.177   3.628  0.3276  0.1629 -0.0523
  163SAPE   H2X18212   3.426   4.253   3.665  2.4274  1.5435  1.4809
  163SAPE   H2Y18213   3.598   4.224   3.642 -0.9700  3.1623  0.1105
  163SAPE   C2318214   3.816   3.829   3.584  0.1368 -0.0155  0.0479
  163SAPE   H3R18215   3.715   3.790   3.609 -0.1053  0.5217 -0.0833
  163SAPE   H3S18216   3.823   3.927   3.634  3.2351 -0.5148  0.7869
  163SAPE   C2418217   3.916   3.728   3.651  0.1594  0.1170  0.3517
  163SAPE   H4R18218   3.918   3.637   3.588 -1.2082  0.5920 -0.4268
  163SAPE   H4S18219   3.865   3.690   3.742 -1.4761  0.8698 -0.2133
  163SAPE   C2518220   4.051   3.793   3.670  0.4750 -1.0804  0.0262
  163SAPE   H5R18221   4.087   3.859   3.590 -0.6472 -0.4289  0.0316
  163SAPE   C2618222   4.130   3.780   3.781 -0.3341 -0.8902 -0.1636
  163SAPE   H6R18223   4.225   3.834   3.784 -0.8376 -0.0467  1.7914
  163SAPE   C2718224   4.112   3.694   3.899 -0.6998  0.3567 -0.1905
  163SAPE   H7R18225   4.217   3.668   3.925 -0.8293  1.7594  1.9346
  163SAPE   H7S18226   4.047   3.607   3.876  0.5055 -0.4023 -0.8843
  163SAPE   C2818227   4.059   3.777   4.015  1.0799  0.1020 -0.1059
  163SAPE   H8R18228   4.055   3.886   4.000  1.1267  0.3128  1.2767
  163SAPE   C2918229   3.999   3.738   4.130  0.4380  0.0033 -0.3911
  163SAPE   H9R18230   3.981   3.812   4.209  1.0278  0.1530 -0.3909
  163SAPE  C21018231   3.997   3.590   4.166  0.0871 -0.5462  0.3464
  163SAPE  H10R18232   4.010   3.582   4.276 -1.9416  0.6600  0.7257
  163SAPE  H10S18233   4.080   3.532   4.121 -2.1325 -2.6594 -1.3371
  163SAPE  C21118234   3.865   3.510   4.137  0.2003 -0.0839 -0.1951
  163SAPE  H11R18235   3.779   3.573   4.164  1.1055  0.7137  0.8972
  163SAPE  C21218236   3.850   3.381   4.100 -1.0898  0.6100  0.0064
  163SAPE  H12R18237   3.749   3.340   4.088 -0.5563 -0.7622  0.0636
  163SAPE  C21318238   3.952   3.265   4.092  0.2393 -0.1868  0.5034
  163SAPE  H13R18239   4.057   3.299   4.101  0.3076  0.0178 -0.8732
  163SAPE  H13S18240   3.957   3.223   3.989 -1.3191  0.6030  0.0653
  163SAPE  C21418241   3.920   3.156   4.186  0.2906  0.0510 -0.3467
  163SAPE  H14R18242   3.844   3.084   4.154 -0.5358  0.9413 -0.4178
  163SAPE  C21518243   3.968   3.136   4.312 -0.4833  0.5614  0.5985
  163SAPE  H15R18244   3.929   3.050   4.368  0.5729 -0.7843 -0.6817
  163SAPE  C21618245   4.086   3.213   4.369 -0.4473  0.2067 -0.0032
  163SAPE  H16R18246   4.049   3.300   4.427 -1.7504  0.2871 -0.9051
  163SAPE  H16S18247   4.151   3.249   4.287  2.6650 -2.5592  0.9931
  163SAPE  C21718248   4.162   3.115   4.458  0.3540  0.1119 -0.4744
  163SAPE  H17R18249   4.207   3.042   4.387  3.5261 -0.8549  2.2522
  163SAPE  H17S18250   4.102   3.066   4.538 -0.2436  1.3946 -0.1203
  163SAPE  C21818251   4.282   3.190   4.513  0.5180  0.0365 -0.0693
  163SAPE  H18R18252   4.241   3.274   4.574 -0.4873  0.6592 -1.5471
  163SAPE  H18S18253   4.337   3.241   4.431 -1.7309  1.2878 -0.8988
  163SAPE  C21918254   4.388   3.103   4.583  0.4477  0.1135 -0.2882
  163SAPE  H19R18255   4.459   3.171   4.635 -0.1970 -0.1826  1.0230
  163SAPE  H19S18256   4.445   3.047   4.506 -0.3311  1.0925 -1.6110
  163SAPE  C22018257   4.342   2.996   4.683  0.0266  0.3792 -0.5933
  163SAPE  H20R18258   4.284   2.919   4.628 -1.6710  0.1196  1.4058
  163SAPE  H20S18259   4.263   3.044   4.746 -1.3815  0.3514 -2.2606
  163SAPE  H20T18260   4.434   2.951   4.726  0.7130  3.0152  0.8828
  163SAPE   C3318261   3.470   4.045   3.695 -0.2563 -0.4289  0.1033
  163SAPE   H3X18262   3.541   3.967   3.663  0.3408 -0.7542  2.0941
  163SAPE   H3Y18263   3.367   4.006   3.678 -0.0988 -1.5965  1.6741
  163SAPE   C3418264   3.485   4.050   3.848  0.2128  1.1482  0.0457
  163SAPE   H4X18265   3.417   4.119   3.902  0.3763  0.7151  0.8285
  163SAPE   H4Y18266   3.587   4.085   3.875  0.1216  1.0031  0.6035
  163SAPE   C3518267   3.452   3.916   3.915 -0.6876 -0.5124 -0.4865
  163SAPE   H5X18268   3.526   3.840   3.881  0.4688  0.6526 -0.6307
  163SAPE   H5Y18269   3.347   3.888   3.892  0.2219 -2.1579 -3.1262
  163SAPE   C3618270   3.462   3.923   4.073  0.4161  0.3781 -0.1272
  163SAPE   H6X18271   3.399   3.837   4.104  0.9643  0.0570  0.1204
  163SAPE   H6Y18272   3.416   4.019   4.105 -2.1702 -0.6448 -0.5429
  163SAPE   C3718273   3.601   3.910   4.127  0.0400  0.9021 -0.2224
  163SAPE   H7X18274   3.654   4.002   4.094 -2.9592  3.0408  0.3708
  163SAPE   H7Y18275   3.652   3.826   4.076 -0.2453  0.3497  0.3775
  163SAPE   C3818276   3.603   3.904   4.283  1.1820  0.1080  0.5451
  163SAPE   H8X18277   3.543   3.816   4.315 -0.3373  0.8827 -0.0850
  163SAPE   H8Y18278   3.547   3.992   4.320 -0.2606 -0.2253 -0.7571
  163SAPE   C3918279   3.737   3.912   4.354 -0.4143 -0.1363 -0.5100
  163SAPE   H9X18280   3.773   4.014   4.331 -2.0160  0.5907  0.0735
  163SAPE   H9Y18281   3.806   3.839   4.307 -0.6840  1.1250 -3.0584
  163SAPE  C31018282   3.722   3.912   4.506 -0.8565  0.4931 -0.4272
  163SAPE  H10X18283   3.694   3.809   4.536  0.0160 -0.4281 -2.5188
  163SAPE  H10Y18284   3.651   3.990   4.540 -0.1576  0.5557  0.9544
  163SAPE  C31118285   3.857   3.931   4.580 -0.6216  0.2901  0.4063
  163SAPE  H11X18286   3.891   4.033   4.551 -1.0951  0.5482  0.7465
  163SAPE  H11Y18287   3.940   3.865   4.547 -1.2054 -0.6690  0.7975
  163SAPE  C31218288   3.843   3.924   4.732 -0.3290  0.2152 -0.5596
  163SAPE  H12X18289   3.853   3.822   4.774  0.5358  0.7828  0.6713
  163SAPE  H12Y18290   3.745   3.972   4.753  0.1502  0.9432  0.1049
  163SAPE  C31318291   3.945   4.019   4.798  0.7214 -0.2822  0.1257
  163SAPE  H13X18292   3.934   4.127   4.776  0.2469 -0.0031  1.6729
  163SAPE  H13Y18293   4.050   3.998   4.769 -0.0190 -4.1132 -0.4446
  163SAPE  C31418294   3.947   4.001   4.954  1.5193 -0.0636 -0.1558
  163SAPE  H14X18295   3.952   3.891   4.963  1.1203 -0.1195 -0.5855
  163SAPE  H14Y18296   3.849   4.029   4.998  0.1212  0.6873 -3.4671
  163SAPE  C31518297   4.073   4.057   5.024  0.9272 -0.4075  0.0706
  163SAPE  H15X18298   4.164   4.039   4.962  0.8797  0.2503 -0.2022
  163SAPE  H15Y18299   4.086   4.006   5.121  0.5926  0.2549  0.4681
  163SAPE  C31618300   4.057   4.206   5.056 -0.0723 -0.0677  0.2428
  163SAPE  H16X18301   3.967   4.213   5.121 -0.9004 -1.4102 -0.7117
  163SAPE  H16Y18302   4.033   4.265   4.965 -2.7439  0.5181  1.2391
  163SAPE  C31718303   4.169   4.267   5.136 -0.3117  0.5105  0.0174
  163SAPE  H17X18304   4.261   4.270   5.074 -0.1442  1.3903  0.2983
  163SAPE  H17Y18305   4.185   4.208   5.228  1.0716  0.2749 -0.3597
  163SAPE  C31818306   4.152   4.413   5.182  0.5630 -0.1382  0.6343
  163SAPE  H18X18307   4.237   4.450   5.243  1.3436  0.4870 -0.7743
  163SAPE  H18Y18308   4.060   4.419   5.244  0.2480 -0.7476  0.2355
  163SAPE  H18Z18309   4.121   4.475   5.095  1.3214  2.5055  2.1476
  164SAPE     N18310   6.215   1.983   2.668  0.8453  0.1195  0.3475
  164SAPE   HN118311   6.215   2.087   2.660  1.6604  0.0439 -1.1102
  164SAPE   HN218312   6.141   1.967   2.739  0.1342  0.0534 -0.3939
  164SAPE   HN318313   6.308   1.955   2.706  0.8447 -0.7226 -0.2460
  164SAPE   C1218314   6.176   1.922   2.539  0.2585  0.9122 -0.5971
  164SAPE  H12A18315   6.270   1.905   2.482 -0.3625 -0.2895 -1.3021
  164SAPE  H12B18316   6.111   1.993   2.485  0.3887  1.4809 -0.0158
  164SAPE   C1118317   6.094   1.792   2.574  0.0488  0.3578  0.5337
  164SAPE  H11A18318   6.082   1.739   2.477  2.3904 -0.7484  0.7833
  164SAPE  H11B18319   5.997   1.822   2.619  0.5793 -0.2968  2.1965
  164SAPE     P18320   6.097   1.571   2.711  0.1419 -0.7537  0.6381
  164SAPE   O1318321   6.048   1.496   2.593  0.0592  0.7699 -0.1631
  164SAPE   O1418322   6.188   1.509   2.810  0.5963 -0.2149 -0.0180
  164SAPE   O1218323   6.161   1.705   2.660  0.2398  0.3965  0.0130
  164SAPE   O1118324   5.967   1.624   2.778 -0.5509 -0.3332  0.3255
  164SAPE    C118325   5.884   1.534   2.860 -0.0291  0.0581  0.6972
  164SAPE    HA18326   5.790   1.518   2.804 -1.4470  0.6492  2.7841
  164SAPE    HB18327   5.927   1.433   2.879 -1.6005 -0.5211  1.3294
  164SAPE    C218328   5.862   1.602   2.997 -0.5195 -0.9773 -0.1272
  164SAPE    HS18329   5.794   1.543   3.063  0.1993 -1.0562  0.5606
  164SAPE   O2118330   5.826   1.743   2.978 -0.2106 -0.3350 -0.2976
  164SAPE   C2118331   5.696   1.760   2.952 -0.6967 -0.3337 -0.7029
  164SAPE   O2218332   5.624   1.666   2.930 -0.0796  0.4034 -0.2692
  164SAPE   C2218333   5.666   1.906   2.971 -0.6484  0.5824  1.0210
  164SAPE   H2R18334   5.746   1.966   2.923 -0.6305 -0.0889  0.1991
  164SAPE   H2S18335   5.566   1.936   2.933  0.4910  3.4669 -0.0100
  164SAPE    C318336   5.992   1.605   3.080 -0.3883 -0.2254 -0.3081
  164SAPE    HX18337   6.074   1.662   3.030  0.4087  0.8942  2.1398
  164SAPE    HY18338   6.020   1.498   3.093  0.9577  0.3913  2.7743
  164SAPE   O3118339   5.954   1.655   3.201 -0.0061  0.4051 -0.1995
  164SAPE   C3118340   6.056   1.661   3.293  0.6889  0.1500  0.3162
  164SAPE   O3218341   6.159   1.601   3.276  0.5284 -0.4923 -0.1415
  164SAPE   C3218342   6.028   1.761   3.399 -0.2173 -0.3262  0.2726
  164SAPE   H2X18343   5.942   1.735   3.464 -1.0220  1.1528 -0.1698
  164SAPE   H2Y18344   5.995   1.858   3.357  0.2721 -0.8177 -1.3146
  164SAPE   C2318345   5.672   1.950   3.125  0.3800  0.5090  0.2192
  164SAPE   H3R18346   5.669   2.061   3.129  1.4803  0.5762 -0.3281
  164SAPE   H3S18347   5.769   1.922   3.172  2.0525  2.7250 -1.6710
  164SAPE   C2418348   5.541   1.907   3.191  0.3043 -0.0388 -1.1634
  164SAPE   H4R18349   5.458   1.944   3.127 -0.0603 -0.3710 -0.8870
  164SAPE   H4S18350   5.528   1.960   3.288  1.0851 -1.3621 -0.2980
  164SAPE   C2518351   5.520   1.758   3.226  0.1182 -0.0667 -0.5116
  164SAPE   H5R18352   5.466   1.705   3.145 -0.3330  2.3463 -1.8832
  164SAPE   C2618353   5.544   1.682   3.339 -0.5013 -0.4559  0.3792
  164SAPE   H6R18354   5.517   1.576   3.336  2.4098 -1.2820 -1.8821
  164SAPE   C2718355   5.609   1.732   3.463 -0.2436 -0.2827 -0.8773
  164SAPE   H7R18356   5.537   1.787   3.526 -0.5150 -1.4460 -0.1432
  164SAPE   H7S18357   5.679   1.814   3.437 -2.7394  1.7947 -1.4152
  164SAPE   C2818358   5.671   1.622   3.539 -0.0691 -0.2352  0.9011
  164SAPE   H8R18359   5.754   1.579   3.480  1.6078  2.5290  1.1038
  164SAPE   C2918360   5.640   1.581   3.662  0.6606  1.1241  0.6567
  164SAPE   H9R18361   5.698   1.495   3.700 -0.9471 -0.8146 -0.9947
  164SAPE  C21018362   5.527   1.618   3.753  0.3368 -0.0872  0.1490
  164SAPE  H10R18363   5.433   1.627   3.694  1.6136 -0.4887 -2.0820
  164SAPE  H10S18364   5.541   1.713   3.809  0.0806 -0.4798  0.8908
  164SAPE  C21118365   5.509   1.510   3.865 -0.6104  0.1161  0.7770
  164SAPE  H11R18366   5.447   1.421   3.848 -1.1817  0.6086  0.1964
  164SAPE  C21218367   5.570   1.525   3.985 -0.3947 -0.4748  0.3384
  164SAPE  H12R18368   5.557   1.448   4.062 -0.5643 -0.9842 -0.1916
  164SAPE  C21318369   5.669   1.641   4.015 -0.4434  0.2697 -0.8099
  164SAPE  H13R18370   5.706   1.701   3.929 -2.3522  1.6721 -0.7350
  164SAPE  H13S18371   5.758   1.591   4.058 -0.7710 -2.1784 -2.7874
  164SAPE  C21418372   5.613   1.734   4.117  0.2859 -0.2126 -0.4751
  164SAPE  H14R18373   5.545   1.810   4.076 -1.0237 -0.9369  0.2865
  164SAPE  C21518374   5.632   1.734   4.253 -0.3148 -0.1939  0.1115
  164SAPE  H15R18375   5.581   1.823   4.292 -1.2171 -0.1470 -1.1073
  164SAPE  C21618376   5.711   1.644   4.346  0.1874 -0.6733 -0.4549
  164SAPE  H16R18377   5.798   1.706   4.378 -0.4298  1.1218 -2.0945
  164SAPE  H16S18378   5.752   1.553   4.298 -0.2232 -1.1095  0.0152
  164SAPE  C21718379   5.616   1.594   4.456 -0.0790 -0.7537 -0.1105
  164SAPE  H17R18380   5.551   1.513   4.417 -0.4311 -1.2014  1.3467
  164SAPE  H17S18381   5.552   1.672   4.502  0.2550 -0.1403 -0.6597
  164SAPE  C21818382   5.696   1.540   4.576 -0.5612 -0.4967 -0.0724
  164SAPE  H18R18383   5.791   1.597   4.589 -0.6557 -0.1925 -0.7053
  164SAPE  H18S18384   5.729   1.436   4.555  0.8692 -0.3674  1.2834
  164SAPE  C21918385   5.619   1.554   4.704  0.3385 -0.6925 -0.2766
  164SAPE  H19R18386   5.533   1.483   4.704 -0.6750  0.4883  0.4762
  164SAPE  H19S18387   5.566   1.651   4.696 -0.8918 -1.2515  0.7128
  164SAPE  C22018388   5.705   1.542   4.829 -0.1418 -1.1071  0.0420
  164SAPE  H20R18389   5.790   1.472   4.820  1.8691  1.2927 -0.8476
  164SAPE  H20S18390   5.644   1.522   4.921  0.8462 -2.8715  0.3467
  164SAPE  H20T18391   5.754   1.640   4.847  0.4632 -1.2030 -1.0581
  164SAPE   C3318392   6.155   1.785   3.482  0.5047  0.0883  0.2311
  164SAPE   H3X18393   6.246   1.785   3.418 -0.6629 -0.5167 -1.5239
  164SAPE   H3Y18394   6.167   1.713   3.565  2.5416  0.5399  0.3618
  164SAPE   C3418395   6.140   1.929   3.555  0.2380  0.7650  0.4757
  164SAPE   H4X18396   6.073   2.004   3.509 -1.8428 -1.3863 -0.2291
  164SAPE   H4Y18397   6.247   1.958   3.550  0.1758  1.0751  0.8734
  164SAPE   C3518398   6.109   1.912   3.705 -0.5288 -0.0392 -0.3679
  164SAPE   H5X18399   6.187   1.840   3.735  1.0057  1.4286 -0.6469
  164SAPE   H5Y18400   6.015   1.857   3.727 -0.1784  0.0272  1.4514
  164SAPE   C3618401   6.161   2.029   3.789 -0.2376 -0.3346  0.0779
  164SAPE   H6X18402   6.104   2.121   3.763  2.2772  0.7163 -2.2867
  164SAPE   H6Y18403   6.266   2.052   3.762 -0.4833  1.4462  0.5112
  164SAPE   C3718404   6.156   2.012   3.942  0.7186  1.0004 -0.1516
  164SAPE   H7X18405   6.054   1.991   3.981  0.5355 -2.9451 -2.2682
  164SAPE   H7Y18406   6.182   2.109   3.989 -1.7375  1.8318 -0.3467
  164SAPE   C3818407   6.253   1.901   4.000  0.6153 -0.3053 -0.0193
  164SAPE   H8X18408   6.360   1.914   3.975  0.1865  1.2456 -1.2233
  164SAPE   H8Y18409   6.230   1.804   3.951  1.0364  0.1782 -1.1919
  164SAPE   C3918410   6.248   1.891   4.152  0.0478  0.3745  0.6876
  164SAPE   H9X18411   6.146   1.876   4.194  0.4354 -0.3841  1.4082
  164SAPE   H9Y18412   6.280   1.995   4.176 -0.3376  0.6501  0.0339
  164SAPE  C31018413   6.361   1.812   4.212 -0.0952 -0.1500 -0.6398
  164SAPE  H10X18414   6.453   1.842   4.157  1.3079 -1.7511  0.6935
  164SAPE  H10Y18415   6.333   1.706   4.195 -0.6345 -0.4640  1.7822
  164SAPE  C31118416   6.359   1.847   4.361 -0.3329 -0.3255 -0.2691
  164SAPE  H11X18417   6.265   1.816   4.412 -2.6045  2.7585 -2.1836
  164SAPE  H11Y18418   6.380   1.952   4.391  4.3767 -1.6774  2.1354
  164SAPE  C31218419   6.479   1.797   4.448 -0.5562  0.1047 -0.4701
  164SAPE  H12X18420   6.569   1.802   4.383 -0.9539  0.6855 -0.9800
  164SAPE  H12Y18421   6.454   1.694   4.482 -0.7929 -0.0117 -0.9913
  164SAPE  C31318422   6.499   1.883   4.584  0.1642  0.8168 -0.6184
  164SAPE  H13X18423   6.393   1.901   4.612  0.9623  1.3232  2.4513
  164SAPE  H13Y18424   6.544   1.984   4.569  1.3576  0.7914  2.1837
  164SAPE  C31418425   6.582   1.798   4.690  0.4489  0.3952 -0.2500
  164SAPE  H14X18426   6.685   1.810   4.650 -0.2023  0.4372 -2.0127
  164SAPE  H14Y18427   6.539   1.696   4.702  0.0370  0.6543  0.5412
  164SAPE  C31518428   6.576   1.852   4.829 -0.0260 -0.3055  0.4864
  164SAPE  H15X18429   6.564   1.962   4.820  1.2234 -0.0121  2.0062
  164SAPE  H15Y18430   6.675   1.843   4.878  0.8354 -1.2543 -1.3469
  164SAPE  C31618431   6.469   1.786   4.925 -0.4762  0.1031  1.1917
  164SAPE  H16X18432   6.489   1.837   5.022  1.9645  2.9226 -0.6172
  164SAPE  H16Y18433   6.497   1.679   4.925 -0.0830  0.1998  1.9422
  164SAPE  C31718434   6.321   1.810   4.886  0.0152  0.0720 -0.0955
  164SAPE  H17X18435   6.287   1.743   4.804 -0.3178 -3.3567  2.6225
  164SAPE  H17Y18436   6.322   1.915   4.850 -0.5676  0.4582  0.9735
  164SAPE  C31818437   6.219   1.796   5.001  0.7624 -0.3789 -0.3296
  164SAPE  H18X18438   6.126   1.814   4.943  0.8467  1.2281 -0.0144
  164SAPE  H18Y18439   6.220   1.883   5.070  0.4483 -1.7998  1.5444
  164SAPE  H18Z18440   6.221   1.696   5.048 -2.5229  0.1862  1.3392
  165SAPE     N18441   6.758   2.717   2.781 -0.0599  0.2401 -0.6174
  165SAPE   HN118442   6.815   2.635   2.811  0.8401  0.9668 -0.2719
  165SAPE   HN218443   6.812   2.781   2.720  0.0779 -0.6522 -1.4687
  165SAPE   HN318444   6.749   2.774   2.867  0.6396  1.1514 -1.1237
  165SAPE   C1218445   6.629   2.677   2.718 -0.1403  0.0748  0.1716
  165SAPE  H12A18446   6.556   2.625   2.784 -0.7759 -1.3785 -1.6002
  165SAPE  H12B18447   6.649   2.605   2.636 -1.4364 -1.1568  0.8845
  165SAPE   C1118448   6.567   2.800   2.646  0.0388  0.3232 -0.0606
  165SAPE  H11A18449   6.477   2.771   2.588  0.2930  0.4893 -0.5373
  165SAPE  H11B18450   6.646   2.832   2.576 -0.0922 -1.6794 -1.1797
  165SAPE     P18451   6.386   2.945   2.772  0.1010 -0.0977 -0.2537
  165SAPE   O1318452   6.393   3.058   2.862  0.4080 -0.4530  0.7157
  165SAPE   O1418453   6.325   2.970   2.641  0.2851  0.4168 -0.0076
  165SAPE   O1218454   6.535   2.899   2.749 -0.2746  0.2782  0.3613
  165SAPE   O1118455   6.307   2.821   2.834 -0.0627  0.6383  0.1617
  165SAPE    C118456   6.331   2.773   2.965 -0.2869  0.0348 -0.3766
  165SAPE    HA18457   6.435   2.739   2.983 -0.3539 -0.7534 -1.3677
  165SAPE    HB18458   6.299   2.845   3.043 -0.5823  0.1123 -0.5672
  165SAPE    C218459   6.230   2.655   2.994 -0.2004  0.7343  0.2011
  165SAPE    HS18460   6.248   2.585   2.909  0.0889  0.4794  0.4712
  165SAPE   O2118461   6.094   2.705   2.999 -0.3109 -0.3231  0.3400
  165SAPE   C2118462   6.006   2.605   2.997 -0.1262  0.5020  0.7320
  165SAPE   O2218463   6.039   2.488   2.984 -0.0931 -0.4098 -0.0644
  165SAPE   C2218464   5.862   2.670   3.019 -0.2217 -0.7926  0.2642
  165SAPE   H2R18465   5.876   2.777   3.043  0.0209 -0.7451 -0.0877
  165SAPE   H2S18466   5.814   2.680   2.920 -0.6369  1.2337  0.6206
  165SAPE    C318467   6.271   2.588   3.123  0.2029 -0.1662  0.3329
  165SAPE    HX18468   6.374   2.551   3.109  0.2350  0.4068 -1.1332
  165SAPE    HY18469   6.207   2.497   3.134 -2.1580  1.5924  2.1162
  165SAPE   O3118470   6.264   2.672   3.238 -0.5068  0.0581  0.1068
  165SAPE   C3118471   6.385   2.738   3.268 -0.0486  0.3264 -0.5301
  165SAPE   O3218472   6.485   2.722   3.211 -0.5352 -0.8123 -0.5672
  165SAPE   C3218473   6.347   2.822   3.390 -0.2748 -0.0555  0.0460
  165SAPE   H2X18474   6.306   2.752   3.466  0.7932 -0.7036  0.0628
  165SAPE   H2Y18475   6.265   2.884   3.350 -1.0764 -1.2159 -0.1712
  165SAPE   C2318476   5.760   2.596   3.117 -0.3085  0.1224  0.0482
  165SAPE   H3R18477   5.773   2.486   3.120  2.0023  0.3877  1.8520
  165SAPE   H3S18478   5.662   2.623   3.071 -1.0329 -0.3793  1.2574
  165SAPE   C2418479   5.769   2.645   3.263  0.4379  0.3089 -0.1118
  165SAPE   H4R18480   5.712   2.576   3.330 -0.7562 -1.4289 -2.7046
  165SAPE   H4S18481   5.709   2.738   3.268  0.6974  0.4322  0.7519
  165SAPE   C2518482   5.906   2.688   3.308  0.3372 -0.9627  0.3899
  165SAPE   H5R18483   5.974   2.710   3.224 -1.0552  0.2880 -0.4614
  165SAPE   C2618484   5.966   2.694   3.433 -0.1005  0.2548 -0.4789
  165SAPE   H6R18485   6.071   2.724   3.446  0.3669 -1.1919 -0.7844
  165SAPE   C2718486   5.892   2.659   3.565  0.0410 -0.3256 -0.5734
  165SAPE   H7R18487   5.952   2.594   3.633 -0.5809  1.8268  2.2458
  165SAPE   H7S18488   5.805   2.593   3.543 -0.5560  0.1420  0.3163
  165SAPE   C2818489   5.852   2.787   3.630  0.0878 -0.1985 -0.5241
  165SAPE   H8R18490   5.846   2.870   3.558 -2.2144 -0.5787 -0.8386
  165SAPE   C2918491   5.808   2.804   3.759  0.4077  0.2936  0.1923
  165SAPE   H9R18492   5.775   2.905   3.788 -5.4546 -0.9084 -0.9663
  165SAPE  C21018493   5.797   2.691   3.854  0.1620 -0.0432 -0.5806
  165SAPE  H10R18494   5.898   2.678   3.900 -0.3858  1.1304  1.0715
  165SAPE  H10S18495   5.767   2.593   3.813  1.1698 -0.5844 -0.0707
  165SAPE  C21118496   5.705   2.713   3.970  0.2217 -0.0254 -1.2128
  165SAPE  H11R18497   5.600   2.733   3.944  0.0349 -0.8653 -1.1098
  165SAPE  C21218498   5.743   2.717   4.104  0.4678  0.0539  0.8324
  165SAPE  H12R18499   5.665   2.744   4.176 -0.8595  1.6607 -1.0989
  165SAPE  C21318500   5.877   2.692   4.159 -0.1547 -0.3202 -0.2191
  165SAPE  H13R18501   5.928   2.789   4.176  0.3114 -0.7786  1.0926
  165SAPE  H13S18502   5.950   2.637   4.096 -1.4607 -1.2268 -0.9900
  165SAPE  C21418503   5.883   2.637   4.301  0.4878  0.6728 -0.0424
  165SAPE  H14R18504   5.929   2.537   4.300 -1.2533 -0.1794  0.0882
  165SAPE  C21518505   5.841   2.689   4.418 -0.4348 -0.4097 -0.4433
  165SAPE  H15R18506   5.859   2.622   4.503 -1.2661 -1.8601 -1.3588
  165SAPE  C21618507   5.782   2.820   4.447 -0.3992  0.3539  0.2274
  165SAPE  H16R18508   5.702   2.842   4.373 -1.3200 -0.6456  0.9012
  165SAPE  H16S18509   5.854   2.900   4.419 -1.6876  1.0333 -1.3292
  165SAPE  C21718510   5.717   2.834   4.590  0.1148 -0.6069  0.0609
  165SAPE  H17R18511   5.788   2.859   4.672 -1.8677  2.4333  1.0074
  165SAPE  H17S18512   5.662   2.741   4.614  1.0399 -1.3280 -0.5645
  165SAPE  C21818513   5.622   2.957   4.591 -0.6699 -0.3138  0.5619
  165SAPE  H18R18514   5.542   2.955   4.514 -0.9020  2.2880  0.6479
  165SAPE  H18S18515   5.681   3.046   4.561  0.3403 -0.9586  0.5763
  165SAPE  C21918516   5.561   2.985   4.726  0.1449  0.2050  0.2927
  165SAPE  H19R18517   5.639   2.984   4.805 -0.7384 -0.5849  1.1831
  165SAPE  H19S18518   5.487   2.903   4.742 -0.8274  1.1418  0.7054
  165SAPE  C22018519   5.499   3.121   4.740  0.3433 -0.0430 -0.1394
  165SAPE  H20R18520   5.407   3.130   4.679  0.9489  0.0335 -1.0605
  165SAPE  H20S18521   5.569   3.195   4.695  1.3550 -1.3361 -0.7760
  165SAPE  H20T18522   5.485   3.140   4.848  1.4480 -1.4952  0.2866
  165SAPE   C3318523   6.450   2.928   3.437 -0.3248 -0.5933  0.5196
  165SAPE   H3X18524   6.475   2.992   3.350 -0.9958  0.7959  1.3057
  165SAPE   H3Y18525   6.539   2.876   3.478 -0.4920 -0.8595  0.5508
  165SAPE   C3418526   6.404   3.004   3.560 -0.4705  0.3960 -0.4228
  165SAPE   H4X18527   6.305   3.052   3.541 -0.8832 -0.4501 -0.4295
  165SAPE   H4Y18528   6.475   3.088   3.579 -3.1150  2.6615  0.1070
  165SAPE   C3518529   6.378   2.911   3.684  0.3308  0.0200  0.5909
  165SAPE   H5X18530   6.481   2.884   3.714  0.4212 -1.0828 -0.6664
  165SAPE   H5Y18531   6.315   2.826   3.652  0.3456  0.0591  0.4587
  165SAPE   C3618532   6.318   2.985   3.805 -0.8319  0.3970  0.1812
  165SAPE   H6X18533   6.210   3.007   3.794 -1.4211 -2.2493  0.1054
  165SAPE   H6Y18534   6.372   3.080   3.826 -0.1713 -0.4664  2.8852
  165SAPE   C3718535   6.332   2.899   3.935 -0.4560 -0.2654 -0.6981
  165SAPE   H7X18536   6.442   2.890   3.947 -0.2487  2.5172 -0.0090
  165SAPE   H7Y18537   6.282   2.800   3.921 -1.1523 -0.2292  1.2094
  165SAPE   C3818538   6.268   2.957   4.059  1.2751 -0.5526 -0.2782
  165SAPE   H8X18539   6.159   2.976   4.043  0.3175 -2.5191  2.8817
  165SAPE   H8Y18540   6.322   3.053   4.075  0.5652 -0.3244  0.9137
  165SAPE   C3918541   6.289   2.868   4.182  0.2857 -0.2986 -0.0428
  165SAPE   H9X18542   6.398   2.877   4.206  0.3376 -0.0280 -0.3726
  165SAPE   H9Y18543   6.252   2.767   4.154 -1.4843  0.8332 -2.0469
  165SAPE  C31018544   6.210   2.906   4.307 -0.4229 -0.0646  0.8335
  165SAPE  H10X18545   6.101   2.912   4.289 -0.1175 -0.2223 -1.3369
  165SAPE  H10Y18546   6.236   2.994   4.370 -1.7382 -0.4451  1.9833
  165SAPE  C31118547   6.233   2.796   4.411  0.2473  0.5206  0.5282
  165SAPE  H11X18548   6.340   2.783   4.437  0.3989  0.9063  0.1005
  165SAPE  H11Y18549   6.197   2.698   4.373 -2.6087  1.1773  1.2585
  165SAPE  C31218550   6.166   2.826   4.539 -0.1310 -0.1970  0.1132
  165SAPE  H12X18551   6.057   2.828   4.517  0.2215  0.6754 -1.6772
  165SAPE  H12Y18552   6.191   2.927   4.578  2.5027 -0.4918 -0.6589
  165SAPE  C31318553   6.188   2.719   4.647 -0.3187  0.2952 -0.6308
  165SAPE  H13X18554   6.291   2.733   4.686 -0.5776  1.7830 -0.4145
  165SAPE  H13Y18555   6.174   2.619   4.600 -2.1932 -0.0702  0.6092
  165SAPE  C31418556   6.081   2.733   4.762  0.0479 -0.3802 -0.2897
  165SAPE  H14X18557   5.990   2.684   4.721 -0.1286  0.5251 -1.0095
  165SAPE  H14Y18558   6.057   2.840   4.781 -0.4356 -0.2857 -1.3292
  165SAPE  C31518559   6.120   2.659   4.889 -0.3280 -0.5437 -0.0129
  165SAPE  H15X18560   6.137   2.555   4.852  0.1558  0.4202 -2.6614
  165SAPE  H15Y18561   6.036   2.645   4.961 -1.0918  1.5533 -0.4474
  165SAPE  C31618562   6.227   2.726   4.976  0.7633 -0.3449  0.0189
  165SAPE  H16X18563   6.208   2.831   5.005  1.2068 -0.8630  2.3926
  165SAPE  H16Y18564   6.324   2.727   4.921 -0.3700  2.2477 -2.1510
  165SAPE  C31718565   6.256   2.661   5.116  0.4223 -0.3496  0.1897
  165SAPE  H17X18566   6.163   2.643   5.175  0.1340  2.0487  0.5707
  165SAPE  H17Y18567   6.313   2.733   5.178  0.8847 -1.1073  0.6618
  165SAPE  C31818568   6.328   2.521   5.108 -0.3086  1.1601 -0.1173
  165SAPE  H18X18569   6.408   2.508   5.032  1.1061  0.2383  1.4444
  165SAPE  H18Y18570   6.255   2.438   5.111  1.8274 -0.8597  3.4832
  165SAPE  H18Z18571   6.387   2.511   5.201  0.1965 -0.3964 -0.5686
  166SAPE     N18572   4.707   2.667   2.558 -0.4204 -0.0392 -0.2157
  166SAPE   HN118573   4.770   2.677   2.476  0.1770  0.5858  0.3008
  166SAPE   HN218574   4.734   2.568   2.576 -1.9616 -0.5216 -0.3733
  166SAPE   HN318575   4.609   2.679   2.526 -0.1826  0.0449 -0.9162
  166SAPE   C1218576   4.749   2.764   2.670  1.0247 -0.0120 -0.1562
  166SAPE  H12A18577   4.745   2.713   2.768 -1.4902  0.3149 -0.0271
  166SAPE  H12B18578   4.676   2.847   2.668  1.6752  0.6010  0.8262
  166SAPE   C1118579   4.885   2.822   2.641 -0.4179  0.2680 -0.2463
  166SAPE  H11A18580   4.963   2.747   2.667  1.7778  2.3979 -0.3917
  166SAPE  H11B18581   4.907   2.909   2.706 -1.9522  1.5274 -1.3342
  166SAPE     P18582   5.022   2.898   2.436  0.2637  0.4532 -0.0202
  166SAPE   O1318583   5.069   2.783   2.361 -0.3396  1.0663  0.2154
  166SAPE   O1418584   4.994   3.021   2.359 -0.0835 -0.3749 -0.4131
  166SAPE   O1218585   4.891   2.858   2.505  0.1291 -0.1480  0.2264
  166SAPE   O1118586   5.131   2.928   2.551  0.6289 -0.4317 -0.0672
  166SAPE    C118587   5.148   3.065   2.586 -0.4894 -0.4862  0.3517
  166SAPE    HA18588   5.197   3.122   2.505 -0.4406 -1.1973 -0.1323
  166SAPE    HB18589   5.051   3.114   2.609 -0.7511 -0.3825 -0.8878
  166SAPE    C218590   5.234   3.077   2.713  0.1375 -0.7858  0.3987
  166SAPE    HS18591   5.260   3.184   2.726  0.2410 -0.6320 -0.9996
  166SAPE   O2118592   5.345   2.982   2.712  0.1976 -0.6608 -0.4674
  166SAPE   C2118593   5.458   3.038   2.678 -0.3355  0.4472 -0.4666
  166SAPE   O2218594   5.477   3.158   2.652  0.1433  0.8161 -0.0337
  166SAPE   C2218595   5.570   2.935   2.667 -0.0404  0.6846 -0.2936
  166SAPE   H2R18596   5.560   2.844   2.731 -0.1464 -1.3008 -2.9914
  166SAPE   H2S18597   5.563   2.898   2.563  1.1546  1.8307 -0.8049
  166SAPE    C318598   5.160   3.039   2.837  0.2982 -0.6573 -0.6874
  166SAPE    HX18599   5.109   2.941   2.838  0.3957 -0.7075 -0.2407
  166SAPE    HY18600   5.074   3.107   2.859  0.7981 -0.6664  1.6298
  166SAPE   O3118601   5.241   3.047   2.961 -0.0990  0.4707  0.5752
  166SAPE   C3118602   5.276   2.929   3.010 -0.5955 -0.2960 -0.1221
  166SAPE   O3218603   5.239   2.820   2.973  0.4706 -0.0041 -0.3555
  166SAPE   C3218604   5.360   2.930   3.143  0.1866  0.0201  0.3378
  166SAPE   H2X18605   5.298   2.976   3.223  0.4945 -2.7965  2.3120
  166SAPE   H2Y18606   5.440   3.005   3.127  1.7519 -1.7521 -0.5208
  166SAPE   C2318607   5.715   2.997   2.677  0.2250  0.4666 -1.4101
  166SAPE   H3R18608   5.727   3.088   2.615  0.9609 -0.1341 -2.1855
  166SAPE   H3S18609   5.787   2.917   2.648 -0.6840 -1.4188  1.2016
  166SAPE   C2418610   5.754   3.009   2.829 -0.0699  0.4725 -0.5653
  166SAPE   H4R18611   5.718   2.912   2.868 -1.1503  0.9137 -0.4251
  166SAPE   H4S18612   5.694   3.085   2.883  0.5170 -0.3745  1.3715
  166SAPE   C2518613   5.896   3.022   2.856 -0.4555  0.1560  0.2406
  166SAPE   H5R18614   5.966   2.975   2.786 -2.1743 -0.3770 -1.1899
  166SAPE   C2618615   5.950   3.077   2.967  0.0739 -0.2177  1.1708
  166SAPE   H6R18616   6.059   3.086   2.973  0.1406 -0.7605  0.8933
  166SAPE   C2718617   5.883   3.137   3.084 -0.7150 -0.0449 -0.5567
  166SAPE   H7R18618   5.774   3.147   3.065 -1.1195  1.3470  2.0826
  166SAPE   H7S18619   5.927   3.237   3.102  1.4953 -1.3544  2.3586
  166SAPE   C2818620   5.900   3.054   3.211  0.8404  0.2783  0.3772
  166SAPE   H8R18621   5.847   2.958   3.217  3.3261 -1.2121 -0.2341
  166SAPE   C2918622   5.993   3.075   3.303  0.4053 -0.6348  0.0188
  166SAPE   H9R18623   5.991   3.007   3.389 -3.8577 -0.9645 -0.1395
  166SAPE  C21018624   6.106   3.179   3.310  0.0743 -0.3216  0.1114
  166SAPE  H10R18625   6.138   3.185   3.204  1.5930 -0.1805  0.5627
  166SAPE  H10S18626   6.196   3.149   3.367 -0.7497 -0.3849  1.4216
  166SAPE  C21118627   6.041   3.304   3.362 -0.0622  0.0725 -0.0444
  166SAPE  H11R18628   6.020   3.380   3.285 -0.4616 -0.5467 -0.5594
  166SAPE  C21218629   6.038   3.339   3.497 -0.1821 -0.3432  0.0807
  166SAPE  H12R18630   5.995   3.438   3.519  1.7336  0.3015  1.1055
  166SAPE  C21318631   6.080   3.257   3.623 -0.0182  0.1086  0.4203
  166SAPE  H13R18632   6.129   3.166   3.583 -0.8889 -0.4257  0.5527
  166SAPE  H13S18633   5.999   3.215   3.686  0.9290 -1.9225  0.3506
  166SAPE  C21418634   6.181   3.312   3.719  0.3377 -0.0623  0.1837
  166SAPE  H14R18635   6.282   3.299   3.678 -0.2748 -0.1738 -1.3639
  166SAPE  C21518636   6.159   3.374   3.835 -0.6854  0.0246  0.2167
  166SAPE  H15R18637   6.242   3.405   3.899 -1.9541  0.4744  1.7251
  166SAPE  C21618638   6.023   3.394   3.894 -0.1028 -0.1559 -0.6356
  166SAPE  H16R18639   5.944   3.407   3.817  0.0466 -1.3279 -1.0015
  166SAPE  H16S18640   6.025   3.486   3.956 -0.8234 -1.2965  1.1798
  166SAPE  C21718641   5.979   3.275   3.975 -0.2968 -0.0493  0.2138
  166SAPE  H17R18642   5.992   3.186   3.909 -2.5525 -0.7124  0.5853
  166SAPE  H17S18643   5.873   3.285   4.006 -0.6022  1.5844 -1.1865
  166SAPE  C21818644   6.069   3.247   4.101  0.9290  0.2454 -0.1492
  166SAPE  H18R18645   6.176   3.234   4.073  1.4960  1.1024  1.4806
  166SAPE  H18S18646   6.039   3.151   4.149  1.4859  0.2742  0.2667
  166SAPE  C21918647   6.060   3.341   4.211  0.2088  0.4992 -0.2247
  166SAPE  H19R18648   5.958   3.343   4.256  1.2226 -2.1415  2.5628
  166SAPE  H19S18649   6.071   3.447   4.179  0.6214 -0.0462 -1.9409
  166SAPE  C22018650   6.166   3.303   4.318 -0.1026 -0.2517 -0.1925
  166SAPE  H20R18651   6.201   3.198   4.318 -0.7481 -0.5081  1.8605
  166SAPE  H20S18652   6.126   3.325   4.419  2.0839 -0.0395  0.6940
  166SAPE  H20T18653   6.253   3.365   4.287 -0.0987 -0.0548  0.1953
  166SAPE   C3318654   5.412   2.788   3.201 -0.3947 -0.9931  0.7052
  166SAPE   H3X18655   5.521   2.775   3.189 -0.3876 -3.0629  2.5038
  166SAPE   H3Y18656   5.352   2.712   3.145 -0.5306 -1.1477  1.0599
  166SAPE   C3418657   5.385   2.775   3.351  0.2018  0.1325  0.2924
  166SAPE   H4X18658   5.284   2.812   3.379  0.4260  0.1822  1.0705
  166SAPE   H4Y18659   5.461   2.839   3.401  1.3387 -0.7473 -0.2763
  166SAPE   C3518660   5.422   2.633   3.410  0.2569 -0.1588  0.3083
  166SAPE   H5X18661   5.510   2.594   3.356 -1.0626  0.9989 -2.9410
  166SAPE   H5Y18662   5.340   2.558   3.404  0.0172  0.1247 -0.0291
  166SAPE   C3618663   5.473   2.643   3.556  0.6719 -0.0520  0.2430
  166SAPE   H6X18664   5.434   2.730   3.612  2.6691  0.3772  1.0403
  166SAPE   H6Y18665   5.584   2.651   3.560  0.7722 -1.6213  1.6333
  166SAPE   C3718666   5.422   2.519   3.630  0.0431 -0.1220  0.0149
  166SAPE   H7X18667   5.433   2.423   3.576  0.8813  0.6577 -1.2401
  166SAPE   H7Y18668   5.312   2.536   3.633  0.2525  1.5777 -0.7886
  166SAPE   C3818669   5.470   2.509   3.775  0.0554 -0.5679  0.3226
  166SAPE   H8X18670   5.469   2.609   3.824 -0.7202  0.4840 -1.7386
  166SAPE   H8Y18671   5.577   2.480   3.765 -0.1920 -0.9608 -1.6497
  166SAPE   C3918672   5.403   2.397   3.851 -0.2967 -0.5403 -0.0403
  166SAPE   H9X18673   5.417   2.300   3.800  0.3241 -0.6398  0.3103
  166SAPE   H9Y18674   5.294   2.416   3.844 -0.4375 -1.4249 -0.3632
  166SAPE  C31018675   5.461   2.399   3.994  0.0056 -0.2848 -0.2610
  166SAPE  H10X18676   5.568   2.428   3.982 -0.2557  0.5737 -0.5734
  166SAPE  H10Y18677   5.455   2.302   4.048 -1.8749 -0.4566 -0.7082
  166SAPE  C31118678   5.393   2.510   4.077  0.2597 -0.0818 -1.2306
  166SAPE  H11X18679   5.290   2.475   4.097  1.7403 -2.4607  3.6913
  166SAPE  H11Y18680   5.389   2.608   4.024 -1.6051 -0.7215 -2.3472
  166SAPE  C31218681   5.456   2.538   4.215  0.7208 -1.1323 -0.3248
  166SAPE  H12X18682   5.419   2.629   4.267 -1.1663 -1.8494 -0.3473
  166SAPE  H12Y18683   5.561   2.545   4.180  0.4900 -1.1345 -1.0212
  166SAPE  C31318684   5.436   2.427   4.319 -0.2585 -0.2310 -0.0832
  166SAPE  H13X18685   5.440   2.327   4.270  0.3865 -0.2250 -0.0506
  166SAPE  H13Y18686   5.333   2.442   4.360 -0.0290  2.0410 -0.2137
  166SAPE  C31418687   5.543   2.444   4.429  0.0965  0.9040  0.8389
  166SAPE  H14X18688   5.544   2.552   4.453  0.8177  1.1812 -0.3575
  166SAPE  H14Y18689   5.643   2.422   4.386  0.1254 -1.8044  2.0621
  166SAPE  C31518690   5.524   2.352   4.556  0.4250 -0.6394  0.2917
  166SAPE  H15X18691   5.524   2.245   4.525 -3.1849 -0.8259  0.4365
  166SAPE  H15Y18692   5.422   2.377   4.593  0.9055  0.3846  0.9571
  166SAPE  C31618693   5.630   2.378   4.661 -0.5045 -0.2638  0.1600
  166SAPE  H16X18694   5.629   2.485   4.693  0.0714  0.3796 -1.8494
  166SAPE  H16Y18695   5.733   2.381   4.620 -0.1561  1.4955  1.0537
  166SAPE  C31718696   5.618   2.291   4.789  0.5231 -0.2656 -0.3607
  166SAPE  H17X18697   5.610   2.182   4.770  0.4010 -0.3666  0.2350
  166SAPE  H17Y18698   5.530   2.323   4.849  1.1479  0.7590  0.0354
  166SAPE  C31818699   5.733   2.313   4.887  0.1705  0.3302 -0.0626
  166SAPE  H18X18700   5.737   2.418   4.921 -0.1940 -0.0837  1.3269
  166SAPE  H18Y18701   5.826   2.278   4.836 -1.2376  0.4535 -2.8959
  166SAPE  H18Z18702   5.721   2.250   4.979 -1.5067  1.8130  0.7961
  167SAPE     N18703   0.126   1.832   2.789 -0.0384 -0.8839 -0.5766
  167SAPE   HN118704   0.097   1.743   2.833 -1.4140  0.5542  1.6438
  167SAPE   HN218705   0.092   1.831   2.691  0.2654  0.2682 -0.7115
  167SAPE   HN318706   0.229   1.819   2.781 -0.1070 -0.4801 -2.4977
  167SAPE   C1218707   0.074   1.932   2.885 -0.6994 -0.1557  0.1213
  167SAPE  H12A18708   0.056   2.024   2.825 -1.3980  0.9660  1.9724
  167SAPE  H12B18709   0.149   1.954   2.964 -0.3124  3.0453 -0.9721
  167SAPE   C1118710  -0.057   1.888   2.956 -0.1556 -0.1718 -0.3568
  167SAPE  H11A18711  -0.082   1.946   3.048 -0.2763  1.0004 -1.1167
  167SAPE  H11B18712  -0.037   1.783   2.989  0.4512 -0.0553 -0.3518
  167SAPE     P18713  -0.257   2.010   2.838  0.0131  0.2851  0.3248
  167SAPE   O1318714  -0.179   2.139   2.844  0.2657  0.3876 -0.1317
  167SAPE   O1418715  -0.328   1.986   2.713 -0.0948  0.7026 -0.2120
  167SAPE   O1218716  -0.172   1.880   2.871  0.0952  0.2931  0.2600
  167SAPE   O1118717  -0.362   2.015   2.959  0.2940  0.2160  0.7631
  167SAPE    C118718  -0.419   1.899   3.026  0.1110 -0.2171  0.5093
  167SAPE    HA18719  -0.525   1.883   2.995  0.5483 -0.5679 -0.9089
  167SAPE    HB18720  -0.361   1.804   3.026 -1.3864 -1.1588 -0.0224
  167SAPE    C218721  -0.436   1.922   3.176  0.1756 -0.8099 -0.0404
  167SAPE    HS18722  -0.477   1.830   3.222 -0.7806  0.4409  1.7627
  167SAPE   O2118723  -0.523   2.035   3.202 -0.2149 -0.1783  0.6897
  167SAPE   C2118724  -0.656   2.022   3.185  0.8435 -0.1612  1.7059
  167SAPE   O2218725  -0.716   1.928   3.134 -0.0328 -0.1464  0.4889
  167SAPE   C2218726  -0.716   2.151   3.256  0.7830 -0.0523  0.4572
  167SAPE   H2R18727  -0.689   2.152   3.363 -2.5691  1.4913  1.4253
  167SAPE   H2S18728  -0.684   2.245   3.206 -2.5733  2.2796  2.2781
  167SAPE    C318729  -0.290   1.943   3.242 -0.5583 -0.7408 -0.2060
  167SAPE    HX18730  -0.261   2.046   3.212  1.1021 -1.1449 -0.0874
  167SAPE    HY18731  -0.226   1.867   3.192 -0.8159 -1.1541  0.0828
  167SAPE   O3118732  -0.290   1.941   3.387  0.1562  0.1892  0.0800
  167SAPE   C3118733  -0.176   1.984   3.441 -0.0007 -0.4797  0.3449
  167SAPE   O3218734  -0.080   2.025   3.379  0.3337 -0.2825  0.0235
  167SAPE   C3218735  -0.185   1.985   3.596 -0.0648 -0.6258  0.3678
  167SAPE   H2X18736  -0.082   1.959   3.627 -0.2494  0.0734  1.5971
  167SAPE   H2Y18737  -0.253   1.905   3.631  0.6271 -0.5718  1.8851
  167SAPE   C2318738  -0.871   2.150   3.249  0.2663  0.2375  0.3106
  167SAPE   H3R18739  -0.929   2.074   3.306 -1.2954  0.9322 -0.2978
  167SAPE   H3S18740  -0.891   2.139   3.140  1.0109 -2.3095  0.3724
  167SAPE   C2418741  -0.933   2.284   3.282  0.4050  0.1106 -0.3551
  167SAPE   H4R18742  -1.042   2.281   3.264  0.6970 -0.8712 -2.1315
  167SAPE   H4S18743  -0.892   2.358   3.210  1.8078  0.9419  1.2161
  167SAPE   C2518744  -0.917   2.339   3.426 -0.7619  0.3551  0.5366
  167SAPE   H5R18745  -0.832   2.406   3.444  0.9334 -1.6458  0.4610
  167SAPE   C2618746  -1.000   2.306   3.527  0.3854  0.8452 -0.4369
  167SAPE   H6R18747  -0.987   2.352   3.626  1.9151 -0.3425 -0.0453
  167SAPE   C2718748  -1.114   2.206   3.520  0.2896  0.2969 -0.1979
  167SAPE   H7R18749  -1.139   2.186   3.413 -1.6592  0.9496  0.1022
  167SAPE   H7S18750  -1.208   2.251   3.558 -0.6261 -3.3766  2.3609
  167SAPE   C2818751  -1.083   2.067   3.582  0.0742 -0.3129  0.3475
  167SAPE   H8R18752  -1.027   2.004   3.511  1.1633 -0.0989  0.9942
  167SAPE   C2918753  -1.102   2.020   3.709 -0.1997  0.1789  0.0272
  167SAPE   H9R18754  -1.073   1.917   3.734  0.6246 -0.0702 -1.8028
  167SAPE  C21018755  -1.155   2.109   3.825  0.3570  0.0662 -0.2460
  167SAPE  H10R18756  -1.200   2.046   3.905 -0.5906 -2.7498 -2.8132
  167SAPE  H10S18757  -1.237   2.176   3.792  0.1064 -0.2611 -0.2943
  167SAPE  C21118758  -1.037   2.177   3.882 -0.0438 -0.7167 -0.0800
  167SAPE  H11R18759  -0.979   2.235   3.808 -1.2846  0.6166 -0.0381
  167SAPE  C21218760  -0.987   2.177   4.009 -0.1404  0.0639  0.2110
  167SAPE  H12R18761  -0.897   2.237   4.026 -0.7097  1.0465 -0.1481
  167SAPE  C21318762  -1.030   2.124   4.138  0.3356 -0.7382 -0.4016
  167SAPE  H13R18763  -0.960   2.041   4.161  2.1534  0.6854 -0.6027
  167SAPE  H13S18764  -1.138   2.098   4.137 -0.2778  1.1386  3.0903
  167SAPE  C21418765  -1.026   2.222   4.253 -0.0742  0.3281 -0.6718
  167SAPE  H14R18766  -1.092   2.309   4.241  0.7175  0.8759 -1.1594
  167SAPE  C21518767  -0.964   2.202   4.377  0.3575 -0.5275  0.5279
  167SAPE  H15R18768  -0.983   2.274   4.458  2.6931 -0.2986  0.9534
  167SAPE  C21618769  -0.877   2.091   4.414 -0.6005  0.1589 -0.4158
  167SAPE  H16R18770  -0.771   2.122   4.409 -0.0066 -1.2519  1.7471
  167SAPE  H16S18771  -0.888   2.005   4.346 -2.0466 -0.0070 -0.0185
  167SAPE  C21718772  -0.899   2.030   4.559 -0.4751 -0.1326 -0.2139
  167SAPE  H17R18773  -0.879   2.103   4.640  0.4763 -2.3665  1.6757
  167SAPE  H17S18774  -0.824   1.949   4.573 -0.7638 -0.5249 -0.9109
  167SAPE  C21818775  -1.035   1.970   4.586  0.2195  0.4616 -0.1968
  167SAPE  H18R18776  -1.065   1.903   4.503  0.9897  1.2501 -1.1327
  167SAPE  H18S18777  -1.110   2.052   4.590  1.0271  1.2318 -0.3843
  167SAPE  C21918778  -1.047   1.870   4.709 -0.3143 -0.2178 -0.1917
  167SAPE  H19R18779  -0.977   1.787   4.687 -0.7891 -0.8406  0.5651
  167SAPE  H19S18780  -1.152   1.833   4.698 -0.2103 -0.5631 -0.0327
  167SAPE  C22018781  -1.019   1.920   4.846  1.0162 -0.0111  0.5891
  167SAPE  H20R18782  -0.920   1.970   4.848 -0.1927  2.5881  0.3317
  167SAPE  H20S18783  -1.020   1.832   4.915  2.0519  0.8659  1.7701
  167SAPE  H20T18784  -1.091   1.995   4.884  0.3874  0.2964 -1.1458
  167SAPE   C3318785  -0.204   2.122   3.659  0.2499  0.3767  0.6519
  167SAPE   H3X18786  -0.302   2.150   3.615  1.2958 -2.4515 -4.1489
  167SAPE   H3Y18787  -0.129   2.201   3.635 -2.3697  2.3035 -1.8799
  167SAPE   C3418788  -0.216   2.120   3.809 -0.1187  0.7102 -0.5710
  167SAPE   H4X18789  -0.277   2.035   3.848 -1.4544  2.6346  1.7764
  167SAPE   H4Y18790  -0.267   2.212   3.844  1.2739  0.4642  2.3959
  167SAPE   C3518791  -0.081   2.091   3.881  1.0264  0.2904 -0.5347
  167SAPE   H5X18792  -0.017   2.182   3.871  1.0266  0.2868 -0.5691
  167SAPE   H5Y18793  -0.038   1.999   3.837 -1.4522 -0.3708 -1.7532
  167SAPE   C3618794  -0.111   2.068   4.033  0.3527  0.0347  0.0519
  167SAPE   H6X18795  -0.166   1.972   4.033  0.6938 -0.1611 -0.1242
  167SAPE   H6Y18796  -0.156   2.162   4.071  2.5375  1.6066 -0.9884
  167SAPE   C3718797   0.019   2.028   4.107  0.5526 -0.3942  0.1802
  167SAPE   H7X18798   0.105   2.093   4.082  2.5105 -3.1742 -0.7968
  167SAPE   H7Y18799   0.047   1.934   4.055  1.7634  0.7418 -1.3182
  167SAPE   C3818800   0.005   2.008   4.262 -0.2563  0.2879  0.0048
  167SAPE   H8X18801   0.105   1.971   4.295 -0.3998 -1.4800 -1.4278
  167SAPE   H8Y18802  -0.069   1.929   4.288  0.4151 -0.6579 -0.8973
  167SAPE   C3918803  -0.060   2.130   4.321 -0.2569 -0.4414  0.3583
  167SAPE   H9X18804  -0.167   2.124   4.292 -0.1849 -0.6048  0.1220
  167SAPE   H9Y18805  -0.011   2.219   4.276 -1.6796  0.6801  0.9296
  167SAPE  C31018806  -0.066   2.147   4.472  0.2946  0.3258  0.2564
  167SAPE  H10X18807  -0.105   2.050   4.510 -0.1733 -1.2641 -3.7893
  167SAPE  H10Y18808  -0.130   2.234   4.499  0.5157  0.0497  1.7618
  167SAPE  C31118809   0.065   2.182   4.538 -0.1741  0.8617 -0.2594
  167SAPE  H11X18810   0.101   2.284   4.512  1.2891  0.7462  1.1346
  167SAPE  H11Y18811   0.136   2.113   4.488 -2.5618 -0.6634 -1.7454
  167SAPE  C31218812   0.063   2.149   4.687 -0.4928 -0.2765  0.3034
  167SAPE  H12X18813   0.166   2.156   4.728 -1.0463 -1.2014  1.9258
  167SAPE  H12Y18814   0.035   2.044   4.710  1.2648 -1.3115 -1.9031
  167SAPE  C31318815  -0.024   2.256   4.768  0.1036  0.0781  0.0524
  167SAPE  H13X18816  -0.117   2.280   4.712 -2.0295  0.1880  3.3496
  167SAPE  H13Y18817   0.035   2.350   4.772 -0.7702  0.7484 -1.7315
  167SAPE  C31418818  -0.060   2.209   4.909 -0.0910 -0.4042  0.2629
  167SAPE  H14X18819   0.033   2.196   4.967  1.1988 -0.8277 -1.8007
  167SAPE  H14Y18820  -0.115   2.112   4.902  0.6948 -1.1553  3.2237
  167SAPE  C31518821  -0.152   2.303   4.982 -0.4873 -0.6619  0.0183
  167SAPE  H15X18822  -0.240   2.326   4.919 -0.7835 -2.7930 -0.4258
  167SAPE  H15Y18823  -0.095   2.398   4.993  1.7692 -2.1418  2.1390
  167SAPE  C31618824  -0.194   2.267   5.125  0.1775  0.9699 -0.9210
  167SAPE  H16X18825  -0.290   2.323   5.135  0.2107  1.0612 -1.1076
  167SAPE  H16Y18826  -0.114   2.296   5.196  0.9181  2.6201 -2.3627
  167SAPE  C31718827  -0.239   2.119   5.142 -0.5977 -0.2295  0.0231
  167SAPE  H17X18828  -0.148   2.056   5.154 -0.9321 -0.8576 -0.6000
  167SAPE  H17Y18829  -0.292   2.086   5.050  0.0052 -0.5845 -0.2040
  167SAPE  C31818830  -0.351   2.111   5.249 -0.0085  0.2551  0.3091
  167SAPE  H18X18831  -0.411   2.205   5.251 -0.5879  0.0412 -2.6574
  167SAPE  H18Y18832  -0.295   2.113   5.345 -2.4376 -0.2646  1.8269
  167SAPE  H18Z18833  -0.418   2.022   5.238 -0.0539  0.3650 -0.3690
  168SAPE     N18834   4.313   4.941   2.241  0.5645 -0.4267  0.4106
  168SAPE   HN118835   4.365   4.879   2.306  2.3751  0.4447 -0.1486
  168SAPE   HN218836   4.299   4.884   2.155 -0.1792  0.4402 -0.0576
  168SAPE   HN318837   4.374   5.023   2.224  0.9536 -0.5158  1.3260
  168SAPE   C1218838   4.176   4.983   2.294  0.0931 -0.8152 -0.5900
  168SAPE  H12A18839   4.110   4.894   2.287 -0.5442 -0.2944 -1.3232
  168SAPE  H12B18840   4.141   5.073   2.241  0.5119  0.3491  1.0198
  168SAPE   C1118841   4.194   5.021   2.439 -0.2804  0.0302 -0.5090
  168SAPE  H11A18842   4.214   4.930   2.500  0.8825  0.3681 -0.3622
  168SAPE  H11B18843   4.098   5.065   2.473  0.0860 -0.8695  1.9128
  168SAPE     P18844   4.371   5.169   2.569 -0.3236 -0.2655  0.1007
  168SAPE   O1318845   4.511   5.162   2.521  0.7512  0.5214  0.3641
  168SAPE   O1418846   4.320   5.304   2.613 -0.2379 -0.0339  0.1403
  168SAPE   O1218847   4.290   5.119   2.443 -0.3740  0.3094 -0.5450
  168SAPE   O1118848   4.353   5.061   2.680  0.1575 -0.2343 -0.9086
  168SAPE    C118849   4.248   5.058   2.777 -0.3216 -0.2071 -0.1078
  168SAPE    HA18850   4.156   5.090   2.725  1.0524  0.0209 -2.5136
  168SAPE    HB18851   4.242   4.951   2.809  0.4603 -0.5034 -0.9104
  168SAPE    C218852   4.287   5.143   2.902 -0.8887  0.3160  0.4095
  168SAPE    HS18853   4.321   5.244   2.871  0.7628 -0.8949 -2.1303
  168SAPE   O2118854   4.365   5.059   2.982 -0.4588  0.3217  0.7301
  168SAPE   C2118855   4.460   5.126   3.052 -0.2330 -0.4158  0.0066
  168SAPE   O2218856   4.494   5.242   3.030 -0.5122  0.1740 -0.3731
  168SAPE   C2218857   4.526   5.035   3.158  0.2787  0.1921 -0.1144
  168SAPE   H2R18858   4.552   4.939   3.109  1.3911 -0.0421  0.8844
  168SAPE   H2S18859   4.611   5.093   3.200  0.8152 -0.8481  0.2629
  168SAPE    C318860   4.150   5.154   2.982 -1.0250 -0.6092 -1.4808
  168SAPE    HX18861   4.123   5.048   3.001 -0.9182 -0.1781  1.4010
  168SAPE    HY18862   4.069   5.211   2.932  0.2750  1.5159 -1.3290
  168SAPE   O3118863   4.174   5.202   3.117  0.5033 -0.2814  0.6927
  168SAPE   C3118864   4.164   5.338   3.135  0.3990  0.4169  0.1130
  168SAPE   O3218865   4.125   5.415   3.054  0.2309  0.4229 -0.1042
  168SAPE   C3218866   4.203   5.371   3.280 -0.6792  0.2363  1.4763
  168SAPE   H2X18867   4.314   5.363   3.291 -0.2666  1.5294 -1.0565
  168SAPE   H2Y18868   4.148   5.286   3.326 -1.4977 -0.1564 -0.1762
  168SAPE   C2318869   4.429   4.995   3.271 -0.0745 -1.0087  0.2648
  168SAPE   H3R18870   4.442   4.891   3.307  1.6489 -0.8517  0.1498
  168SAPE   H3S18871   4.325   4.994   3.231 -1.1770  0.5465  2.7720
  168SAPE   C2418872   4.435   5.093   3.395 -0.0210  0.1818  0.0450
  168SAPE   H4R18873   4.446   5.196   3.354 -1.7753  0.9665  1.3965
  168SAPE   H4S18874   4.530   5.081   3.451  0.1811  1.5469  0.0347
  168SAPE   C2518875   4.307   5.097   3.477 -0.0679  0.7469 -0.0792
  168SAPE   H5R18876   4.214   5.086   3.418 -0.5724  0.6286  0.7268
  168SAPE   C2618877   4.298   5.107   3.604 -0.4785 -0.4230  0.2363
  168SAPE   H6R18878   4.203   5.095   3.658 -0.6510  1.2941  0.3880
  168SAPE   C2718879   4.408   5.120   3.702  0.1996  0.0029 -0.2594
  168SAPE   H7R18880   4.378   5.211   3.758 -0.9653 -1.2778  1.2810
  168SAPE   H7S18881   4.511   5.146   3.669  0.9188 -0.0446  1.8230
  168SAPE   C2818882   4.433   5.003   3.794 -0.3748  0.2515 -0.0560
  168SAPE   H8R18883   4.511   4.932   3.763 -0.7705 -0.5245  0.6848
  168SAPE   C2918884   4.374   4.996   3.914  0.1118 -0.2103 -0.1339
  168SAPE   H9R18885   4.406   4.915   3.981  0.0588  0.2012  0.4043
  168SAPE  C21018886   4.278   5.094   3.984 -0.0348 -0.0193 -0.7926
  168SAPE  H10R18887   4.184   5.039   4.006  0.2598 -1.2182 -2.3503
  168SAPE  H10S18888   4.240   5.183   3.930 -0.8924  1.7827  2.5417
  168SAPE  C21118889   4.345   5.160   4.103 -0.4946  0.1513  0.0721
  168SAPE  H11R18890   4.454   5.172   4.113 -0.6104  0.5041  1.1001
  168SAPE  C21218891   4.271   5.198   4.210  0.0680  0.1616 -0.3461
  168SAPE  H12R18892   4.319   5.239   4.300  0.0880 -2.6477  1.0380
  168SAPE  C21318893   4.118   5.199   4.213 -0.4134  0.1081 -0.3345
  168SAPE  H13R18894   4.080   5.095   4.210 -0.1970 -0.1414  2.4443
  168SAPE  H13S18895   4.075   5.257   4.129 -0.2791  1.1943  0.3240
  168SAPE  C21418896   4.053   5.269   4.333  0.1551 -0.0205 -0.7808
  168SAPE  H14R18897   4.033   5.375   4.309 -0.8300  0.0195  0.1679
  168SAPE  C21518898   4.028   5.219   4.456 -0.0586 -0.1429 -0.4221
  168SAPE  H15R18899   3.971   5.286   4.523  1.4261 -2.4377  3.4269
  168SAPE  C21618900   4.042   5.081   4.507 -0.2159  0.4187 -0.7247
  168SAPE  H16R18901   4.125   5.035   4.449 -0.6153 -0.2933 -0.7438
  168SAPE  H16S18902   3.948   5.027   4.483 -0.7741  1.7925 -1.7922
  168SAPE  C21718903   4.066   5.075   4.662 -0.0543 -0.1696 -0.2105
  168SAPE  H17R18904   4.147   5.150   4.679  1.7801  0.0676 -6.9208
  168SAPE  H17S18905   4.097   4.975   4.699 -0.9189  0.0024  1.0221
  168SAPE  C21818906   3.931   5.105   4.735  0.3294 -0.5040 -0.4876
  168SAPE  H18R18907   3.857   5.023   4.724 -0.0959 -0.5054  1.9216
  168SAPE  H18S18908   3.888   5.202   4.703 -1.2478 -1.2795 -0.8077
  168SAPE  C21918909   3.943   5.111   4.894 -0.1572  0.1323  0.0541
  168SAPE  H19R18910   4.032   5.170   4.925 -0.8258 -0.2519  3.0069
  168SAPE  H19S18911   3.946   5.006   4.930 -0.2286 -0.1001 -0.5959
  168SAPE  C22018912   3.825   5.184   4.961  0.4468  0.1965  0.1506
  168SAPE  H20R18913   3.821   5.288   4.921  0.2403 -0.1595 -0.7884
  168SAPE  H20S18914   3.833   5.197   5.071 -1.8729  2.1851  0.1734
  168SAPE  H20T18915   3.731   5.135   4.927  1.0987 -1.3499  0.4743
  168SAPE   C3318916   4.148   5.500   3.339  0.0070 -1.4241  0.2903
  168SAPE   H3X18917   4.042   5.484   3.366 -0.6027  0.0048 -1.1107
  168SAPE   H3Y18918   4.164   5.585   3.269  1.8983 -0.3969  1.8245
  168SAPE   C3418919   4.221   5.561   3.461 -0.0585 -0.6338  0.3633
  168SAPE   H4X18920   4.206   5.670   3.477 -0.9267 -0.4932 -1.2206
  168SAPE   H4Y18921   4.331   5.557   3.440  0.8798  2.6059  3.6947
  168SAPE   C3518922   4.212   5.480   3.590  0.5622  1.1805  0.4766
  168SAPE   H5X18923   4.252   5.377   3.577 -1.0849  0.4785  0.6606
  168SAPE   H5Y18924   4.105   5.478   3.621  1.0555 -2.3901  2.5602
  168SAPE   C3618925   4.284   5.541   3.717  0.2878 -0.4303  0.3454
  168SAPE   H6X18926   4.255   5.647   3.732 -0.8439 -1.0021  2.6166
  168SAPE   H6Y18927   4.392   5.554   3.691 -0.0645  1.7706 -0.2312
  168SAPE   C3718928   4.249   5.465   3.846  0.1316  0.0212  0.0473
  168SAPE   H7X18929   4.291   5.362   3.843 -0.5469 -0.2766  0.6024
  168SAPE   H7Y18930   4.140   5.447   3.852 -0.1042  1.4562  0.3003
  168SAPE   C3818931   4.305   5.516   3.984  0.1871  0.4983 -0.6695
  168SAPE   H8X18932   4.245   5.471   4.065  2.4399 -2.4443 -0.4772
  168SAPE   H8Y18933   4.286   5.625   3.983  1.8293  0.8474  0.5963
  168SAPE   C3918934   4.460   5.497   3.998  0.5131 -0.2331 -0.4261
  168SAPE   H9X18935   4.500   5.525   3.899 -1.7875 -0.6423 -1.5330
  168SAPE   H9Y18936   4.469   5.387   4.013  0.3967 -0.0420  1.2934
  168SAPE  C31018937   4.522   5.573   4.123  0.1537 -0.6901 -0.4639
  168SAPE  H10X18938   4.503   5.681   4.107  1.8329 -0.0424  1.4731
  168SAPE  H10Y18939   4.630   5.553   4.140  0.2371 -2.7788 -2.8652
  168SAPE  C31118940   4.459   5.516   4.252  0.9456 -0.4846  0.2736
  168SAPE  H11X18941   4.461   5.405   4.256 -3.1700 -0.8790 -2.0060
  168SAPE  H11Y18942   4.354   5.552   4.261  1.8813  2.1078  1.7234
  168SAPE  C31218943   4.523   5.574   4.383  0.5529 -0.1117 -0.4430
  168SAPE  H12X18944   4.527   5.685   4.380  1.2204 -0.1290 -0.3218
  168SAPE  H12Y18945   4.628   5.538   4.385  1.3428  1.9898  1.7560
  168SAPE  C31318946   4.462   5.510   4.520  0.3154  0.5678  0.5723
  168SAPE  H13X18947   4.467   5.399   4.526 -0.5623  0.5502  1.1978
  168SAPE  H13Y18948   4.356   5.543   4.521  0.0954  0.0249  3.5017
  168SAPE  C31418949   4.535   5.577   4.636  1.1609  0.5622  0.5202
  168SAPE  H14X18950   4.538   5.688   4.629 -1.5436  0.7765  1.4058
  168SAPE  H14Y18951   4.638   5.538   4.650  0.3682 -1.2416  1.6399
  168SAPE  C31518952   4.473   5.553   4.775 -0.0736  0.3378 -0.0131
  168SAPE  H15X18953   4.434   5.452   4.800 -1.3105  0.8479  0.1846
  168SAPE  H15Y18954   4.384   5.619   4.781 -0.7539 -0.3615 -1.8432
  168SAPE  C31618955   4.573   5.595   4.885  0.6032 -0.5116 -0.3690
  168SAPE  H16X18956   4.609   5.699   4.891 -1.0839  0.0671  0.4349
  168SAPE  H16Y18957   4.662   5.530   4.868 -0.3500 -1.8014 -0.6655
  168SAPE  C31718958   4.538   5.558   5.025 -0.0610 -0.3191 -0.6370
  168SAPE  H17X18959   4.534   5.447   5.030  0.0646 -0.2964  0.1373
  168SAPE  H17Y18960   4.435   5.595   5.044 -0.1027 -1.3626  1.4170
  168SAPE  C31818961   4.632   5.618   5.135  0.3047 -0.2437  0.2964
  168SAPE  H18X18962   4.612   5.727   5.142  0.1478 -0.1993 -0.6677
  168SAPE  H18Y18963   4.737   5.598   5.106  0.4029  0.9333 -0.1963
  168SAPE  H18Z18964   4.604   5.576   5.234  0.4940 -1.0734  0.0078
  169SAPE     N18965   6.825   0.931   3.066  0.4307  1.2738  0.0979
  169SAPE   HN118966   6.735   0.888   3.096  1.6086 -1.0630  0.5103
  169SAPE   HN218967   6.893   0.854   3.051 -1.6600 -0.3664 -1.5711
  169SAPE   HN318968   6.849   0.992   3.147 -1.1972  0.1584  1.4782
  169SAPE   C1218969   6.810   0.997   2.926 -0.3291 -0.8550 -0.5243
  169SAPE  H12A18970   6.756   1.089   2.959  2.0018  1.0827 -1.7430
  169SAPE  H12B18971   6.753   0.927   2.862 -0.3683 -1.1705 -0.1422
  169SAPE   C1118972   6.936   1.050   2.850 -0.7780  0.2414 -0.0875
  169SAPE  H11A18973   7.011   1.094   2.919  1.1335  0.2511 -2.0650
  169SAPE  H11B18974   6.893   1.130   2.785 -0.1545  0.8422  0.2343
  169SAPE     P18975   7.114   0.867   2.823 -0.3634 -0.0210 -0.0137
  169SAPE   O1318976   7.154   0.763   2.725 -0.1128 -0.4496 -0.7596
  169SAPE   O1418977   7.219   0.965   2.857  0.0821 -0.1348 -0.3071
  169SAPE   O1218978   6.989   0.946   2.771 -0.1146  0.5277 -0.3834
  169SAPE   O1118979   7.053   0.797   2.953 -0.0140 -0.1595 -0.7847
  169SAPE    C118980   7.137   0.706   3.031  0.6875 -0.3196  0.5807
  169SAPE    HA18981   7.116   0.598   3.013  1.5611 -0.3131 -0.5960
  169SAPE    HB18982   7.246   0.709   3.010  0.5170 -1.5185 -0.6124
  169SAPE    C218983   7.130   0.748   3.183 -0.3517  0.2034  0.7228
  169SAPE    HS18984   7.199   0.681   3.238  1.3716  0.1270 -1.4061
  169SAPE   O2118985   6.999   0.772   3.224  0.3435 -0.0322  0.5224
  169SAPE   C2118986   6.957   0.691   3.315  0.3810  0.1384  0.1217
  169SAPE   O2218987   7.020   0.595   3.353 -0.1216 -0.0608  0.5671
  169SAPE   C2218988   6.822   0.733   3.376 -0.3319  0.1990 -0.3396
  169SAPE   H2R18989   6.821   0.842   3.394  0.2558  0.3041 -0.8913
  169SAPE   H2S18990   6.747   0.706   3.299 -1.4472 -0.4232  0.9306
  169SAPE    C318991   7.211   0.872   3.205  0.2493 -0.6562  0.5767
  169SAPE    HX18992   7.194   0.948   3.125 -0.0544  0.5984  1.7958
  169SAPE    HY18993   7.320   0.850   3.201  0.3037 -0.2351 -0.8237
  169SAPE   O3118994   7.184   0.932   3.331 -0.6282  0.1565 -0.3521
  169SAPE   C3118995   7.095   1.023   3.346  0.3706  0.4208 -0.3930
  169SAPE   O3218996   7.042   1.084   3.255  1.0120  0.2689  0.0396
  169SAPE   C3218997   7.070   1.026   3.493 -0.3278 -0.0526 -0.8467
  169SAPE   H2X18998   7.162   1.015   3.554  0.5810 -1.0442 -2.3265
  169SAPE   H2Y18999   6.992   0.948   3.510  1.5909 -1.7320  0.6697
  169SAPE   C2319000   6.769   0.641   3.494  0.1716  0.5034  0.0049
  169SAPE   H3R19001   6.838   0.650   3.580 -1.8011 -0.0836  1.7237
  169SAPE   H3S19002   6.758   0.531   3.484 -1.1109  0.7174 -1.3036
  169SAPE   C2419003   6.643   0.705   3.552  1.1199  1.2273 -0.7280
  169SAPE   H4R19004   6.571   0.724   3.470 -2.7614  0.2294  2.1628
  169SAPE   H4S19005   6.670   0.800   3.603 -1.6581  1.9150 -0.4089
  169SAPE   C2519006   6.576   0.609   3.653 -1.0519  0.0897  0.3500
  169SAPE   H5R19007   6.641   0.580   3.736 -2.9554  1.3026  2.3896
  169SAPE   C2619008   6.452   0.554   3.660 -0.1964 -0.1763  0.7379
  169SAPE   H6R19009   6.427   0.492   3.747  0.8757 -1.2110  0.3313
  169SAPE   C2719010   6.346   0.582   3.562 -0.3560 -0.9375 -0.3845
  169SAPE   H7R19011   6.382   0.576   3.457 -0.4482  0.7539 -0.5349
  169SAPE   H7S19012   6.313   0.688   3.572 -0.3091 -0.9098 -0.5255
  169SAPE   C2819013   6.226   0.486   3.586  0.0674 -0.2688 -0.0271
  169SAPE   H8R19014   6.221   0.419   3.499  2.5571 -0.7333  0.1108
  169SAPE   C2919015   6.146   0.473   3.693  0.5901 -0.4526 -0.9512
  169SAPE   H9R19016   6.063   0.401   3.690  1.2683 -1.4312  1.1240
  169SAPE  C21019017   6.147   0.546   3.827 -0.8910 -0.8588  0.1837
  169SAPE  H10R19018   6.065   0.620   3.832 -1.1069 -0.8917 -2.0453
  169SAPE  H10S19019   6.242   0.605   3.829 -0.5188 -1.2597 -2.4415
  169SAPE  C21119020   6.155   0.471   3.956  0.3419  0.0737 -0.0554
  169SAPE  H11R19021   6.140   0.363   3.940 -1.2783  0.2096  0.3605
  169SAPE  C21219022   6.155   0.520   4.079  0.2826 -0.1042  0.6125
  169SAPE  H12R19023   6.144   0.453   4.165 -2.0866 -3.7366 -2.2081
  169SAPE  C21319024   6.144   0.669   4.101 -0.6758 -0.6248 -0.0084
  169SAPE  H13R19025   6.205   0.726   4.027 -0.1081  0.1152  1.0122
  169SAPE  H13S19026   6.185   0.707   4.196 -0.1512  1.6360 -1.0778
  169SAPE  C21419027   5.999   0.718   4.103 -0.4090  0.1724  0.3278
  169SAPE  H14R19028   5.969   0.776   4.014  1.5200  1.7699  0.6700
  169SAPE  C21519029   5.912   0.702   4.204 -0.3214 -0.6124 -0.1194
  169SAPE  H15R19030   5.814   0.749   4.188 -1.1184 -2.5864 -1.3679
  169SAPE  C21619031   5.941   0.639   4.336 -0.0082  0.2803  0.3238
  169SAPE  H16R19032   6.033   0.577   4.325  0.3838  1.3170 -3.1839
  169SAPE  H16S19033   5.853   0.575   4.358  0.5853 -0.3181  1.0527
  169SAPE  C21719034   5.935   0.728   4.461  0.0804  0.0539 -0.0304
  169SAPE  H17R19035   5.834   0.772   4.475  0.6133  2.3243 -2.5092
  169SAPE  H17S19036   5.987   0.823   4.437 -1.7332  0.6855 -1.6756
  169SAPE  C21819037   5.972   0.656   4.591 -0.2916 -0.1590 -0.3411
  169SAPE  H18R19038   5.959   0.730   4.673 -1.0483  1.7267 -2.0766
  169SAPE  H18S19039   6.082   0.644   4.586 -0.0056  1.0884  1.6733
  169SAPE  C21919040   5.908   0.521   4.610  0.1258  0.8138 -0.0730
  169SAPE  H19R19041   5.940   0.465   4.519 -2.1590  0.3375 -0.6493
  169SAPE  H19S19042   5.798   0.531   4.603 -0.0701 -0.8939  0.1563
  169SAPE  C22019043   5.940   0.438   4.732 -0.0265  0.0655 -1.1038
  169SAPE  H20R19044   6.036   0.387   4.711 -1.1527 -2.3353 -0.7141
  169SAPE  H20S19045   5.873   0.352   4.750  1.4336 -0.8997 -0.0500
  169SAPE  H20T19046   5.939   0.495   4.828 -0.1630 -0.2811 -0.8963
  169SAPE   C3319047   6.994   1.160   3.538  0.2099  0.1641 -1.0304
  169SAPE   H3X19048   6.897   1.165   3.485  0.6242 -0.0717 -1.8274
  169SAPE   H3Y19049   7.059   1.247   3.515 -0.9319  0.9073 -1.5440
  169SAPE   C3419050   6.959   1.159   3.690 -0.3063 -0.6563  0.0471
  169SAPE   H4X19051   6.891   1.243   3.715 -0.1513 -0.2446 -0.8965
  169SAPE   H4Y19052   7.049   1.165   3.754  0.3968  0.7202 -1.0378
  169SAPE   C3519053   6.882   1.028   3.724 -0.0670 -1.0062 -0.1829
  169SAPE   H5X19054   6.952   0.941   3.718  1.9187  0.5882 -1.3442
  169SAPE   H5Y19055   6.798   1.011   3.653 -0.7126 -1.8995  0.7654
  169SAPE   C3619056   6.817   1.033   3.863 -0.4863  0.6540 -0.4134
  169SAPE   H6X19057   6.725   1.095   3.856 -0.3949  0.6655 -1.9381
  169SAPE   H6Y19058   6.906   1.065   3.922 -0.3588  1.3043 -0.9437
  169SAPE   C3719059   6.772   0.891   3.908 -0.5992 -0.0295 -0.1006
  169SAPE   H7X19060   6.857   0.821   3.923  0.5362  1.0243 -1.3464
  169SAPE   H7Y19061   6.722   0.857   3.814 -1.3760  1.0353 -0.0968
  169SAPE   C3819062   6.681   0.894   4.024 -0.5310 -0.0216 -0.0745
  169SAPE   H8X19063   6.605   0.975   4.017 -0.7972 -0.1864  0.7307
  169SAPE   H8Y19064   6.738   0.920   4.116  0.2541 -1.2637 -0.1899
  169SAPE   C3919065   6.597   0.759   4.033 -0.1069  0.3713  0.8118
  169SAPE   H9X19066   6.668   0.675   4.052 -2.0147 -0.7841  3.4245
  169SAPE   H9Y19067   6.534   0.744   3.943  0.7354 -2.1984  0.5647
  169SAPE  C31019068   6.510   0.744   4.163  0.0062  0.8326  0.2630
  169SAPE  H10X19069   6.460   0.645   4.152  1.2545  0.2028  0.0645
  169SAPE  H10Y19070   6.426   0.815   4.172 -0.2356  0.9276 -2.2230
  169SAPE  C31119071   6.596   0.749   4.294  0.1257  0.4537  0.6512
  169SAPE  H11X19072   6.655   0.843   4.301  1.8706 -0.5228 -0.1600
  169SAPE  H11Y19073   6.679   0.676   4.281 -0.2408  0.4891 -3.2620
  169SAPE  C31219074   6.502   0.723   4.417  0.3206 -0.2496  0.2688
  169SAPE  H12X19075   6.424   0.802   4.420  0.4523 -0.1099  0.0430
  169SAPE  H12Y19076   6.548   0.732   4.518 -0.4872 -0.8644  0.7039
  169SAPE  C31319077   6.441   0.576   4.433 -0.4309  0.1751  0.5075
  169SAPE  H13X19078   6.518   0.498   4.413  0.7011  1.2548  0.5115
  169SAPE  H13Y19079   6.378   0.565   4.342  0.4471 -0.5378 -0.0321
  169SAPE  C31419080   6.369   0.556   4.560 -0.0887 -0.2034  0.3510
  169SAPE  H14X19081   6.324   0.652   4.593 -0.4189 -0.2141 -0.0605
  169SAPE  H14Y19082   6.441   0.521   4.637 -1.0566 -0.1725  1.3117
  169SAPE  C31519083   6.272   0.432   4.550 -0.6712  0.0244  0.1741
  169SAPE  H15X19084   6.188   0.471   4.488 -1.4706 -0.0202  1.2060
  169SAPE  H15Y19085   6.229   0.408   4.650  1.3063 -1.0056  0.8212
  169SAPE  C31619086   6.337   0.308   4.499 -0.4913  0.0470 -0.1687
  169SAPE  H16X19087   6.431   0.302   4.557  0.3855  1.0273 -1.4461
  169SAPE  H16Y19088   6.372   0.332   4.396  0.7269  2.1428  0.6647
  169SAPE  C31719089   6.258   0.177   4.503 -0.0113  0.3396  0.6441
  169SAPE  H17X19090   6.206   0.165   4.600  0.9383  1.9817  1.3847
  169SAPE  H17Y19091   6.335   0.098   4.516 -0.2710  0.1679  1.1352
  169SAPE  C31819092   6.167   0.150   4.383 -0.2088 -0.0309  0.6482
  169SAPE  H18X19093   6.208   0.181   4.285  1.6546 -2.7279  0.4654
  169SAPE  H18Y19094   6.066   0.194   4.398 -0.3864  0.1554 -0.9926
  169SAPE  H18Z19095   6.146   0.041   4.377 -2.4409  0.3933 -0.2258
  170SAPE     N19096   4.893   1.967   2.711 -0.1652 -0.3864  1.2172
  170SAPE   HN119097   4.885   1.867   2.682  0.0319 -0.7609  2.3943
  170SAPE   HN219098   4.860   1.964   2.810 -0.1996  2.3304  1.3557
  170SAPE   HN319099   4.831   2.031   2.657  0.9327 -0.0686  0.2962
  170SAPE   C1219100   5.040   2.021   2.714  0.2639 -0.0253 -0.2648
  170SAPE  H12A19101   5.065   2.034   2.607  1.1649 -0.0863 -0.0668
  170SAPE  H12B19102   5.106   1.949   2.768  0.2828  0.1356 -0.0741
  170SAPE   C1119103   5.061   2.164   2.775  0.3083  0.6294 -0.2995
  170SAPE  H11A19104   5.163   2.199   2.749  0.6223  0.4975  0.7241
  170SAPE  H11B19105   5.064   2.166   2.886  1.0876  0.4940 -0.3117
  170SAPE     P19106   4.900   2.371   2.795 -0.5307 -0.5723 -0.0878
  170SAPE   O1319107   4.920   2.495   2.718  0.0165  0.1430  0.1963
  170SAPE   O1419108   4.761   2.327   2.827  0.2654 -0.1753  0.0627
  170SAPE   O1219109   4.977   2.256   2.717 -0.0256  0.1137  0.1368
  170SAPE   O1119110   4.980   2.379   2.933 -0.1070 -1.0237 -0.3024
  170SAPE    C119111   5.102   2.459   2.945  0.1961  0.0302 -0.1936
  170SAPE    HA19112   5.195   2.400   2.936  1.3114  1.7415 -0.2960
  170SAPE    HB19113   5.099   2.547   2.877 -1.0699  0.8915  0.9053
  170SAPE    C219114   5.113   2.515   3.089  0.7376 -0.1782 -0.0555
  170SAPE    HS19115   5.218   2.549   3.096  0.9580 -1.1495  1.7800
  170SAPE   O2119116   5.083   2.424   3.192 -0.0686 -0.6095  0.7767
  170SAPE   C2119117   5.182   2.344   3.226  0.0723 -0.1951 -0.2530
  170SAPE   O2219118   5.301   2.363   3.198 -0.7295 -0.2238 -0.2100
  170SAPE   C2219119   5.114   2.233   3.309 -0.0821 -0.0312  0.7440
  170SAPE   H2R19120   5.038   2.268   3.382  0.6719  2.2688  0.4856
  170SAPE   H2S19121   5.051   2.193   3.226  0.0055  0.6092  0.3591
  170SAPE    C319122   5.018   2.639   3.095 -0.0157 -0.4474 -0.1360
  170SAPE    HX19123   4.913   2.603   3.085  0.1572 -0.8018 -0.6742
  170SAPE    HY19124   5.027   2.702   3.004  0.3310 -1.1288 -0.5794
  170SAPE   O3119125   5.045   2.715   3.211 -0.0633  0.0815 -0.5798
  170SAPE   C3119126   4.937   2.741   3.293 -0.2077 -0.8628 -0.0401
  170SAPE   O3219127   4.823   2.706   3.274  0.0295 -0.0524  0.2594
  170SAPE   C3219128   4.973   2.816   3.417 -0.3714 -0.0844 -0.1393
  170SAPE   H2X19129   4.937   2.919   3.396 -0.9490  0.1522  1.8170
  170SAPE   H2Y19130   5.080   2.797   3.444 -0.7052 -0.8078  0.7380
  170SAPE   C2319131   5.211   2.127   3.360  0.3817  0.3281  0.0720
  170SAPE   H3R19132   5.274   2.096   3.274  0.1659  1.5370 -0.5431
  170SAPE   H3S19133   5.159   2.032   3.385  0.3918  0.4272  0.4799
  170SAPE   C2419134   5.296   2.189   3.474  0.1028 -0.3988 -0.0233
  170SAPE   H4R19135   5.213   2.232   3.535 -0.4276  0.7793 -1.4822
  170SAPE   H4S19136   5.352   2.280   3.442 -1.1030  1.2044  2.1491
  170SAPE   C2519137   5.366   2.082   3.546  0.1146 -1.1030 -0.7584
  170SAPE   H5R19138   5.474   2.096   3.528  0.0664 -0.3428 -0.4638
  170SAPE   C2619139   5.332   1.997   3.642 -0.0273  0.2495 -0.2853
  170SAPE   H6R19140   5.407   1.921   3.668  2.0363  1.8792 -1.1398
  170SAPE   C2719141   5.194   1.979   3.703  0.4070  0.0118  0.2525
  170SAPE   H7R19142   5.110   1.995   3.632 -0.5902  1.5665  1.7051
  170SAPE   H7S19143   5.181   2.060   3.778 -1.8771  0.9889 -1.1026
  170SAPE   C2819144   5.184   1.840   3.764 -0.7217  0.0458  0.4327
  170SAPE   H8R19145   5.171   1.760   3.690 -0.8006 -0.7763  1.3063
  170SAPE   C2919146   5.185   1.810   3.891 -0.3739 -0.8717 -0.1295
  170SAPE   H9R19147   5.172   1.704   3.918 -0.4681 -0.3624  1.9971
  170SAPE  C21019148   5.194   1.912   4.008  0.1329 -0.4570  0.0051
  170SAPE  H10R19149   5.169   1.855   4.101 -1.8448 -0.1453 -0.2847
  170SAPE  H10S19150   5.107   1.981   4.010 -1.2185 -2.1006  1.7631
  170SAPE  C21119151   5.322   1.983   4.037 -0.1362 -0.0732 -0.2036
  170SAPE  H11R19152   5.385   1.993   3.948 -0.2682 -1.5314 -0.4917
  170SAPE  C21219153   5.357   2.045   4.154 -0.0264 -0.2040  0.4322
  170SAPE  H12R19154   5.454   2.098   4.165  0.8387 -2.0117  1.9043
  170SAPE  C21319155   5.277   2.051   4.287 -0.1328 -0.0883  0.3300
  170SAPE  H13R19156   5.166   2.053   4.281 -0.1818  0.0428  1.1227
  170SAPE  H13S19157   5.309   2.149   4.330  0.9663  0.2068 -1.0769
  170SAPE  C21419158   5.307   1.927   4.366 -0.2473  0.6639  0.1112
  170SAPE  H14R19159   5.296   1.834   4.308  2.1315  0.1039  0.4353
  170SAPE  C21519160   5.341   1.903   4.491 -0.4763  0.1806 -0.4866
  170SAPE  H15R19161   5.366   1.798   4.514  3.2843  0.4558 -2.4028
  170SAPE  C21619162   5.373   2.008   4.595  1.1581 -0.1186  0.4824
  170SAPE  H16R19163   5.356   2.114   4.567 -1.4932 -1.0177 -1.7364
  170SAPE  H16S19164   5.479   2.002   4.630  1.7846 -0.5405 -1.3479
  170SAPE  C21719165   5.284   1.973   4.717  0.6247 -0.4314 -0.0420
  170SAPE  H17R19166   5.180   1.984   4.678  0.0457 -1.0136  1.2719
  170SAPE  H17S19167   5.299   2.059   4.785 -2.9208  0.6440 -0.4274
  170SAPE  C21819168   5.313   1.836   4.787 -0.8564 -0.0230 -0.5151
  170SAPE  H18R19169   5.414   1.792   4.776 -0.1044  1.7419 -1.0722
  170SAPE  H18S19170   5.258   1.756   4.734  0.7264 -2.0392  0.7201
  170SAPE  C21919171   5.282   1.837   4.943  0.3406 -0.4675  0.1184
  170SAPE  H19R19172   5.247   1.739   4.983 -1.3721  0.3113  0.6065
  170SAPE  H19S19173   5.194   1.904   4.939 -0.0191 -0.5457  3.7393
  170SAPE  C22019174   5.387   1.905   5.034 -0.3541  0.9043 -0.2667
  170SAPE  H20R19175   5.479   1.843   5.037 -0.3561  0.9314  0.6406
  170SAPE  H20S19176   5.356   1.912   5.141 -2.2523  0.3892 -0.7473
  170SAPE  H20T19177   5.415   2.003   4.991  0.6787  0.2581 -1.1238
  170SAPE   C3319178   4.903   2.769   3.547  0.0674 -0.7696  0.2304
  170SAPE   H3X19179   4.795   2.784   3.526  0.6553  1.9888 -1.2108
  170SAPE   H3Y19180   4.938   2.843   3.622  0.3425 -2.7822  2.2036
  170SAPE   C3419181   4.945   2.629   3.598 -0.3033 -0.1823 -0.2927
  170SAPE   H4X19182   5.051   2.645   3.627 -0.4264  1.4250 -0.6302
  170SAPE   H4Y19183   4.935   2.562   3.509  1.6209 -0.1160 -0.5971
  170SAPE   C3519184   4.859   2.575   3.719  0.7853 -0.2086  0.0414
  170SAPE   H5X19185   4.884   2.469   3.740 -1.0679 -0.8925 -0.9651
  170SAPE   H5Y19186   4.751   2.570   3.693  1.0486 -0.9255 -0.9875
  170SAPE   C3619187   4.872   2.663   3.846  0.1120  0.1102 -0.3267
  170SAPE   H6X19188   4.855   2.768   3.817  3.0217  0.8401  0.2836
  170SAPE   H6Y19189   4.980   2.674   3.868  0.0799 -0.3737  0.1238
  170SAPE   C3719190   4.787   2.634   3.974  0.6485  0.4993 -0.2352
  170SAPE   H7X19191   4.685   2.610   3.937  1.4682 -0.3312 -2.0565
  170SAPE   H7Y19192   4.776   2.734   4.021 -2.7925  0.4353 -0.6504
  170SAPE   C3819193   4.839   2.533   4.081  0.2452 -0.0486  0.4555
  170SAPE   H8X19194   4.818   2.435   4.034  1.6058  0.0547 -0.4478
  170SAPE   H8Y19195   4.766   2.534   4.164 -1.3275 -1.4054 -0.8430
  170SAPE   C3919196   4.986   2.571   4.126  0.6164  0.0287  0.3739
  170SAPE   H9X19197   5.015   2.672   4.090 -0.2362 -0.7003 -2.6235
  170SAPE   H9Y19198   5.051   2.497   4.075  0.1184 -0.5533  0.5835
  170SAPE  C31019199   5.016   2.545   4.269  0.1525  0.7062 -0.4148
  170SAPE  H10X19200   4.945   2.606   4.329  0.0244 -0.9653  1.2140
  170SAPE  H10Y19201   5.121   2.575   4.289  0.6064 -1.1152  0.0908
  170SAPE  C31119202   5.000   2.399   4.299 -0.3647  0.1379  0.4307
  170SAPE  H11X19203   5.094   2.345   4.275 -0.4998  0.6199 -1.3007
  170SAPE  H11Y19204   4.917   2.345   4.249  0.2091 -1.1627  0.8365
  170SAPE  C31219205   4.980   2.381   4.457 -0.4705  0.8966 -0.1081
  170SAPE  H12X19206   4.870   2.397   4.464 -1.0015 -0.9703 -2.7879
  170SAPE  H12Y19207   5.024   2.465   4.514 -0.8078  0.1959  1.2280
  170SAPE  C31319208   5.019   2.244   4.513 -0.2628  0.0565  0.4620
  170SAPE  H13X19209   5.125   2.224   4.486 -0.6067 -1.9514  0.4199
  170SAPE  H13Y19210   4.956   2.165   4.466 -0.9366 -0.0951  1.5748
  170SAPE  C31419211   4.995   2.231   4.667  0.0398 -0.7812 -0.0328
  170SAPE  H14X19212   5.005   2.123   4.693 -0.8455 -1.1713 -1.2022
  170SAPE  H14Y19213   4.894   2.258   4.703  0.9195 -1.2056  2.9816
  170SAPE  C31519214   5.095   2.321   4.736 -0.7813 -0.7324 -0.0561
  170SAPE  H15X19215   5.050   2.422   4.720 -1.4372 -0.9515  0.3663
  170SAPE  H15Y19216   5.198   2.310   4.697 -0.3191 -0.8325  1.1609
  170SAPE  C31619217   5.111   2.301   4.886 -0.3779 -0.0389  0.2767
  170SAPE  H16X19218   5.161   2.202   4.901 -0.1035  0.1220  0.4321
  170SAPE  H16Y19219   5.011   2.278   4.929  0.8820 -2.6758  2.1277
  170SAPE  C31719220   5.184   2.411   4.962 -0.6570 -0.6017  0.2231
  170SAPE  H17X19221   5.123   2.503   4.949 -1.0863 -0.8921  0.1867
  170SAPE  H17Y19222   5.270   2.431   4.895  0.1436 -1.2240  1.0351
  170SAPE  C31819223   5.212   2.380   5.106 -0.0446  0.3139  0.0314
  170SAPE  H18X19224   5.269   2.285   5.118  0.3434  0.3116 -1.5743
  170SAPE  H18Y19225   5.122   2.382   5.171  0.0481  1.5984  0.1401
  170SAPE  H18Z19226   5.282   2.460   5.139  0.2351  0.3442 -0.6244
  171SAPE     N19227   0.292   3.553   2.483 -0.6936  0.1662 -0.1408
  171SAPE   HN119228   0.350   3.469   2.462  2.1066  1.6873  0.8637
  171SAPE   HN219229   0.217   3.540   2.554  0.4932 -0.8506  0.9949
  171SAPE   HN319230   0.242   3.588   2.399 -1.3685 -1.3345 -0.3943
  171SAPE   C1219231   0.395   3.665   2.522  0.4430  0.4426  0.8814
  171SAPE  H12A19232   0.340   3.762   2.520 -2.5503 -1.1531  0.0909
  171SAPE  H12B19233   0.470   3.670   2.440 -1.3155 -2.6851 -1.1460
  171SAPE   C1119234   0.460   3.624   2.653  0.0856 -0.1701  0.0564
  171SAPE  H11A19235   0.392   3.578   2.728  0.0943 -2.5477 -1.2679
  171SAPE  H11B19236   0.488   3.721   2.699 -2.8924  1.4382 -1.2122
  171SAPE     P19237   0.728   3.569   2.620 -0.4126  0.2958 -0.3126
  171SAPE   O1319238   0.814   3.447   2.614  0.2037 -0.6451  0.0344
  171SAPE   O1419239   0.741   3.667   2.512  0.2763  0.0762  0.5353
  171SAPE   O1219240   0.570   3.527   2.624 -0.2243  0.2388 -0.4350
  171SAPE   O1119241   0.760   3.643   2.751  0.1351  0.4516  0.2055
  171SAPE    C119242   0.766   3.579   2.880  1.0869  0.3319  0.3710
  171SAPE    HA19243   0.722   3.649   2.954  1.2910 -0.6389  1.4406
  171SAPE    HB19244   0.718   3.479   2.883 -0.2104  0.9160 -0.3498
  171SAPE    C219245   0.914   3.560   2.936  0.3222 -0.3225  0.1039
  171SAPE    HS19246   0.966   3.479   2.882  3.1588  0.6187  1.2195
  171SAPE   O2119247   0.909   3.525   3.075  0.3947  0.3750 -0.2117
  171SAPE   C2119248   1.023   3.488   3.134 -0.2687 -0.1092 -0.4556
  171SAPE   O2219249   1.128   3.459   3.075 -0.0289 -0.8297  0.1602
  171SAPE   C2219250   1.002   3.481   3.287 -0.1528  0.5579 -0.2475
  171SAPE   H2R19251   1.016   3.585   3.325 -0.6857 -0.1991  2.1765
  171SAPE   H2S19252   0.899   3.448   3.312 -0.0099 -0.1687 -0.5999
  171SAPE    C319253   0.996   3.688   2.908 -0.2032 -0.3682  0.2357
  171SAPE    HX19254   0.999   3.714   2.800  1.6695  4.1299  1.1649
  171SAPE    HY19255   1.102   3.673   2.940 -0.4165 -0.5701  0.8612
  171SAPE   O3119256   0.931   3.797   2.978 -0.3549  0.1738  0.0604
  171SAPE   C3119257   0.992   3.914   2.957  0.4887 -0.2103  0.7143
  171SAPE   O3219258   1.106   3.932   2.907 -0.0429  0.6081 -0.3472
  171SAPE   C3219259   0.894   4.024   3.005 -0.8525  0.2259  0.4554
  171SAPE   H2X19260   0.797   3.983   3.038 -2.6609  1.4632 -2.8061
  171SAPE   H2Y19261   0.874   4.083   2.913 -1.4129  0.0974  0.4954
  171SAPE   C2319262   1.111   3.384   3.347 -0.4228  0.3875  1.6430
  171SAPE   H3R19263   1.201   3.448   3.334 -0.7028  0.2205 -2.2404
  171SAPE   H3S19264   1.118   3.292   3.286 -1.0805  1.6618 -0.4351
  171SAPE   C2419265   1.105   3.363   3.498 -0.1604 -0.3652 -0.4191
  171SAPE   H4R19266   1.113   3.459   3.554  4.4107  0.4381 -2.0632
  171SAPE   H4S19267   1.200   3.313   3.526  1.1833  1.2886 -1.7895
  171SAPE   C2519268   0.988   3.279   3.542 -0.2051 -0.3584  0.5008
  171SAPE   H5R19269   0.909   3.275   3.466  0.1908  1.4009 -0.0535
  171SAPE   C2619270   0.986   3.219   3.662  0.2966  0.4046 -0.5410
  171SAPE   H6R19271   0.914   3.137   3.670  0.9360 -0.5275 -3.0987
  171SAPE   C2719272   1.088   3.233   3.769  0.2033 -0.2052 -0.6325
  171SAPE   H7R19273   1.134   3.335   3.773 -0.0742 -0.0505  3.8315
  171SAPE   H7S19274   1.171   3.168   3.732  1.2235  2.3757 -3.3309
  171SAPE   C2819275   1.023   3.200   3.900 -0.4193 -0.1348 -0.4161
  171SAPE   H8R19276   0.998   3.093   3.905  2.5485 -0.8686  1.1311
  171SAPE   C2919277   1.012   3.271   4.013  0.0016 -0.3254  0.1898
  171SAPE   H9R19278   0.956   3.222   4.094 -0.1423 -1.3250 -0.4965
  171SAPE  C21019279   1.075   3.406   4.044  0.2575  0.4138 -0.4152
  171SAPE  H10R19280   1.131   3.456   3.962 -1.0902  0.3312 -1.4096
  171SAPE  H10S19281   1.136   3.383   4.134 -0.5594  1.6633  0.5062
  171SAPE  C21119282   0.969   3.506   4.083  0.1926  0.1286  0.2538
  171SAPE  H11R19283   0.920   3.563   4.002  2.8234  0.5913 -1.1079
  171SAPE  C21219284   0.913   3.524   4.201 -0.7895 -0.2489  0.1598
  171SAPE  H12R19285   0.837   3.603   4.206  0.1513  0.7085 -0.1323
  171SAPE  C21319286   0.946   3.454   4.332  0.1180 -0.3230 -0.6889
  171SAPE  H13R19287   1.007   3.520   4.398 -1.5655  0.0352  0.5550
  171SAPE  H13S19288   1.007   3.363   4.311 -0.6646 -1.4272  1.5671
  171SAPE  C21419289   0.818   3.423   4.402  0.1561 -0.5427  0.0639
  171SAPE  H14R19290   0.743   3.503   4.391  1.1975  0.4894  0.2685
  171SAPE  C21519291   0.797   3.311   4.470 -0.4165  0.0281 -0.3967
  171SAPE  H15R19292   0.703   3.302   4.528 -0.6049 -0.9735 -0.8513
  171SAPE  C21619293   0.900   3.197   4.481 -0.5086  0.2093  0.2804
  171SAPE  H16R19294   1.003   3.229   4.458 -1.0283  2.3552  0.7489
  171SAPE  H16S19295   0.876   3.121   4.403  0.9321 -1.2254  1.1981
  171SAPE  C21719296   0.910   3.125   4.616 -0.0460  0.4926  0.1800
  171SAPE  H17R19297   0.818   3.068   4.643  0.8233 -0.2440  1.7569
  171SAPE  H17S19298   0.922   3.208   4.689  0.0141  1.2055 -0.6312
  171SAPE  C21819299   1.025   3.024   4.633 -0.2684 -1.0617  0.3538
  171SAPE  H18R19300   1.119   3.083   4.628 -2.0482  2.4344  3.1974
  171SAPE  H18S19301   1.019   2.947   4.554 -1.8661 -0.8860  0.2633
  171SAPE  C21919302   1.017   2.947   4.762  0.2520 -0.1217 -0.1147
  171SAPE  H19R19303   0.920   2.893   4.775 -0.0817  0.0993 -1.5014
  171SAPE  H19S19304   1.027   3.020   4.845  0.7588  1.6931 -1.7000
  171SAPE  C22019305   1.125   2.837   4.772 -0.3511 -0.6339  0.0288
  171SAPE  H20R19306   1.110   2.772   4.683 -0.2106 -0.9922  0.2641
  171SAPE  H20S19307   1.106   2.774   4.861 -0.1045  0.6482  1.0072
  171SAPE  H20T19308   1.218   2.897   4.763 -0.7221 -0.1456 -0.7136
  171SAPE   C3319309   0.950   4.111   3.119  0.5925 -0.3365  0.8018
  171SAPE   H3X19310   0.884   4.196   3.142  0.4853  0.2764 -1.4725
  171SAPE   H3Y19311   1.045   4.159   3.088  0.5451 -1.6500 -1.7141
  171SAPE   C3419312   0.970   4.034   3.250 -0.2512 -0.8709 -0.4340
  171SAPE   H4X19313   0.905   3.943   3.251 -3.1249  0.9849 -2.5345
  171SAPE   H4Y19314   0.942   4.104   3.331  0.8622  0.6155 -1.2871
  171SAPE   C3519315   1.112   3.992   3.264 -0.4348  0.8143 -0.7754
  171SAPE   H5X19316   1.186   4.075   3.263 -2.2638  2.4942 -1.0681
  171SAPE   H5Y19317   1.137   3.932   3.174 -0.1272  0.1033 -0.2341
  171SAPE   C3619318   1.131   3.905   3.393  0.3442 -0.5151 -0.7704
  171SAPE   H6X19319   1.082   3.808   3.368 -1.2236 -0.0028  0.2048
  171SAPE   H6Y19320   1.068   3.946   3.474  0.5407 -1.0370 -0.3518
  171SAPE   C3719321   1.278   3.878   3.442  0.1509  0.1945  0.5321
  171SAPE   H7X19322   1.329   3.975   3.462  2.2672 -0.9099  0.8156
  171SAPE   H7Y19323   1.318   3.828   3.351 -1.3478  0.7585 -0.4761
  171SAPE   C3819324   1.302   3.781   3.557 -0.1103 -0.4725 -0.2859
  171SAPE   H8X19325   1.411   3.767   3.569  0.1940 -1.1169 -3.2043
  171SAPE   H8Y19326   1.267   3.681   3.523  0.1573 -0.1928 -1.4060
  171SAPE   C3919327   1.227   3.821   3.686 -0.0291  0.4947  0.5694
  171SAPE   H9X19328   1.122   3.834   3.652  1.1512  1.8587 -3.1539
  171SAPE   H9Y19329   1.248   3.929   3.707 -1.1322  1.4945 -2.7521
  171SAPE  C31019330   1.243   3.730   3.807  0.1527 -0.2465 -0.4012
  171SAPE  H10X19331   1.344   3.729   3.853 -0.4703 -2.1033  1.0579
  171SAPE  H10Y19332   1.226   3.622   3.787  1.3150 -0.9427  1.9287
  171SAPE  C31119333   1.144   3.768   3.918 -0.2915  0.6672  0.1742
  171SAPE  H11X19334   1.140   3.692   3.998  1.1966  0.7725  0.3815
  171SAPE  H11Y19335   1.046   3.797   3.874 -0.9537 -0.6199  0.7573
  171SAPE  C31219336   1.201   3.889   4.002  0.9058  0.0988 -0.6817
  171SAPE  H12X19337   1.200   3.984   3.944 -0.9404  1.5346  1.5471
  171SAPE  H12Y19338   1.309   3.870   4.020  0.4785 -1.0625  0.8926
  171SAPE  C31319339   1.141   3.914   4.138  0.0223  0.2406 -0.7001
  171SAPE  H13X19340   1.039   3.870   4.130 -0.6305  1.3950  0.6547
  171SAPE  H13Y19341   1.132   4.021   4.167 -0.3066  0.6092 -2.1045
  171SAPE  C31419342   1.229   3.846   4.245  1.0763 -0.2367  0.6175
  171SAPE  H14X19343   1.328   3.898   4.247  0.0772  1.9459 -1.9847
  171SAPE  H14Y19344   1.236   3.741   4.210 -0.1346 -0.9335  2.3215
  171SAPE  C31519345   1.159   3.843   4.384  0.5507  0.1687 -0.3171
  171SAPE  H15X19346   1.064   3.789   4.362  0.3595 -0.2375  1.3818
  171SAPE  H15Y19347   1.140   3.949   4.411  0.3410 -0.2511  1.3277
  171SAPE  C31619348   1.233   3.755   4.481  0.4727  0.4922  0.2331
  171SAPE  H16X19349   1.341   3.780   4.469  0.8987  0.0755  2.6914
  171SAPE  H16Y19350   1.232   3.649   4.446  0.6004  0.7525 -0.5846
  171SAPE  C31719351   1.180   3.755   4.630  0.0804 -0.2426  0.4241
  171SAPE  H17X19352   1.204   3.858   4.666  1.7182 -0.3037 -0.3652
  171SAPE  H17Y19353   1.241   3.689   4.696 -1.5319  0.0657  2.3177
  171SAPE  C31819354   1.032   3.725   4.629  1.0412  0.5714  0.5788
  171SAPE  H18X19355   0.974   3.802   4.573 -0.0382  0.7132  1.8560
  171SAPE  H18Y19356   0.997   3.694   4.730  3.5718 -2.4004  0.6927
  171SAPE  H18Z19357   1.009   3.631   4.574  2.4926  0.3187  0.3838
  172SAPE     N19358   6.492   4.043   3.014 -0.3562  0.2746 -0.7339
  172SAPE   HN119359   6.593   4.060   3.033 -0.7546  2.5811 -0.3568
  172SAPE   HN219360   6.438   4.079   3.096 -1.0825 -1.4335 -0.4253
  172SAPE   HN319361   6.473   3.941   3.019 -1.4522  0.4720 -0.3874
  172SAPE   C1219362   6.449   4.103   2.886  0.0054  0.1126  0.6236
  172SAPE  H12A19363   6.424   4.210   2.898 -0.5506 -0.1733  2.1771
  172SAPE  H12B19364   6.356   4.052   2.851  0.2181  2.1601 -3.5940
  172SAPE   C1119365   6.543   4.069   2.770  0.6760  0.1388 -0.2153
  172SAPE  H11A19366   6.493   4.101   2.677 -2.4358 -0.0263  1.2867
  172SAPE  H11B19367   6.564   3.960   2.768  2.5640  0.4749 -1.9783
  172SAPE     P19368   6.781   4.162   2.696 -0.1633 -0.3477  0.0773
  172SAPE   O1319369   6.813   4.040   2.616  0.2010  0.1418 -0.3671
  172SAPE   O1419370   6.749   4.294   2.622 -0.2243  0.5447  0.3072
  172SAPE   O1219371   6.663   4.135   2.795 -0.4335  1.3160  0.3149
  172SAPE   O1119372   6.899   4.179   2.804 -0.1111  0.2379 -0.0243
  172SAPE    C119373   6.931   4.303   2.865  0.3387 -0.2757  0.2477
  172SAPE    HA19374   6.963   4.374   2.786  1.1772 -0.5952  0.2873
  172SAPE    HB19375   6.842   4.337   2.924  0.7822  0.3721  0.5599
  172SAPE    C219376   7.048   4.292   2.958 -0.0118  0.1741 -0.4760
  172SAPE    HS19377   7.124   4.237   2.899  1.1707 -0.1307  1.2437
  172SAPE   O2119378   7.014   4.210   3.077  0.1398  0.1299 -0.2840
  172SAPE   C2119379   7.115   4.138   3.120  0.1847  0.3206  0.1855
  172SAPE   O2219380   7.223   4.130   3.061  0.4907  0.3185 -0.0958
  172SAPE   C2219381   7.082   4.086   3.263  0.0071  0.1184 -0.4786
  172SAPE   H2R19382   7.001   4.011   3.247 -0.7747  0.9595 -0.5865
  172SAPE   H2S19383   7.175   4.030   3.288  0.5880  0.5332 -1.6569
  172SAPE    C319384   7.122   4.413   3.022  0.5616  0.4346  0.6668
  172SAPE    HX19385   7.165   4.472   2.938  2.6169  0.7266  1.8508
  172SAPE    HY19386   7.206   4.374   3.084  0.9139 -2.9397 -1.6476
  172SAPE   O3119387   7.031   4.498   3.100 -0.6829  0.6042 -0.0121
  172SAPE   C3119388   7.099   4.578   3.182  0.1825  0.4152  0.4326
  172SAPE   O3219389   7.222   4.591   3.183 -0.2246 -0.0390  0.1359
  172SAPE   C3219390   6.997   4.636   3.272 -0.4549 -0.2363  0.0530
  172SAPE   H2X19391   6.949   4.556   3.332 -0.2605  0.2736  0.8964
  172SAPE   H2Y19392   6.913   4.672   3.209  0.7555  1.4425 -0.6960
  172SAPE   C2319393   7.054   4.196   3.365  0.1227  0.0195 -0.8599
  172SAPE   H3R19394   6.977   4.156   3.435  0.1906  0.1135 -0.7319
  172SAPE   H3S19395   7.007   4.290   3.328 -0.0136  0.2982 -0.0052
  172SAPE   C2419396   7.176   4.241   3.450 -0.0050  0.6858  0.6294
  172SAPE   H4R19397   7.178   4.162   3.528 -1.1868 -0.8582 -0.8212
  172SAPE   H4S19398   7.146   4.336   3.499 -0.7350  0.4157  0.7263
  172SAPE   C2519399   7.306   4.262   3.382 -1.0141  0.0709 -0.0666
  172SAPE   H5R19400   7.310   4.324   3.291 -0.7330 -0.6029 -0.5147
  172SAPE   C2619401   7.420   4.201   3.424 -0.6716 -0.1723  0.1133
  172SAPE   H6R19402   7.514   4.214   3.369 -1.7618  0.7465 -1.6219
  172SAPE   C2719403   7.445   4.109   3.542 -0.1652 -0.7297  0.1350
  172SAPE   H7R19404   7.387   4.016   3.522 -1.4870  0.4084 -1.6412
  172SAPE   H7S19405   7.392   4.154   3.629  1.8829  0.3688  0.8805
  172SAPE   C2819406   7.589   4.078   3.569 -0.0183  0.4511  0.0224
  172SAPE   H8R19407   7.648   4.033   3.488  2.5027  0.6711  1.6362
  172SAPE   C2919408   7.653   4.092   3.690 -0.6739 -0.4721 -0.5590
  172SAPE   H9R19409   7.759   4.070   3.710 -0.9855 -1.2590  0.2932
  172SAPE  C21019410   7.601   4.169   3.810  0.5537  0.4977  0.2538
  172SAPE  H10R19411   7.531   4.246   3.771  1.0642  1.4720  1.1841
  172SAPE  H10S19412   7.683   4.234   3.847  1.7777 -1.2228  0.6830
  172SAPE  C21119413   7.528   4.087   3.914  0.0137 -0.2474 -0.7627
  172SAPE  H11R19414   7.479   3.992   3.888 -0.9718  0.3549 -1.1926
  172SAPE  C21219415   7.495   4.125   4.044  1.0453 -0.9615  0.0655
  172SAPE  H12R19416   7.437   4.055   4.105 -3.7354  2.0881 -0.4550
  172SAPE  C21319417   7.550   4.249   4.120  0.3820 -0.2020 -0.0874
  172SAPE  H13R19418   7.612   4.318   4.060  0.2963 -0.6416 -0.6903
  172SAPE  H13S19419   7.631   4.211   4.186  0.3740 -1.2920 -0.6818
  172SAPE  C21419420   7.430   4.316   4.186  0.4315 -0.0504 -0.5204
  172SAPE  H14R19421   7.358   4.363   4.118 -1.6567  1.8172  2.7226
  172SAPE  C21519422   7.402   4.327   4.315  0.5637  0.6277 -1.0145
  172SAPE  H15R19423   7.308   4.374   4.348  1.7624  1.3572  1.6787
  172SAPE  C21619424   7.485   4.273   4.431  0.0669 -0.3444 -0.7031
  172SAPE  H16R19425   7.538   4.184   4.392  0.7049  0.0178 -0.6644
  172SAPE  H16S19426   7.423   4.230   4.512  0.4611  1.3138  0.5287
  172SAPE  C21719427   7.565   4.372   4.509 -0.4601  0.5365  0.3671
  172SAPE  H17R19428   7.508   4.441   4.575  0.7044 -0.8282  2.9782
  172SAPE  H17S19429   7.632   4.427   4.439  0.1703 -1.3638 -0.6023
  172SAPE  C21819430   7.650   4.303   4.608  0.0198  0.9767 -0.7207
  172SAPE  H18R19431   7.735   4.358   4.656  0.1688 -0.9796  1.4502
  172SAPE  H18S19432   7.704   4.222   4.555 -1.8206 -0.5611 -0.3404
  172SAPE  C21919433   7.577   4.248   4.731 -0.0893 -0.2393  0.7145
  172SAPE  H19R19434   7.513   4.164   4.696  0.0785 -0.7625  1.6474
  172SAPE  H19S19435   7.503   4.318   4.773  0.4637  1.6617 -1.2638
  172SAPE  C22019436   7.673   4.198   4.836  0.4220  0.0668  0.5413
  172SAPE  H20R19437   7.606   4.178   4.922 -0.7097  1.7902  0.1067
  172SAPE  H20S19438   7.742   4.279   4.870  0.7602 -1.3603  3.6599
  172SAPE  H20T19439   7.730   4.106   4.815  0.5535  0.2416  0.1248
  172SAPE   C3319440   7.054   4.743   3.371  0.8762 -0.8127 -0.2191
  172SAPE   H3X19441   6.963   4.795   3.408  0.7695  0.6834 -2.3865
  172SAPE   H3Y19442   7.113   4.817   3.313  3.0868  0.2395  3.1004
  172SAPE   C3419443   7.155   4.691   3.470 -0.5293  0.4014  0.4380
  172SAPE   H4X19444   7.192   4.776   3.532 -1.9342  2.1111 -1.0005
  172SAPE   H4Y19445   7.244   4.638   3.428 -1.2350  1.0578 -2.0114
  172SAPE   C3519446   7.079   4.605   3.582 -0.0430  0.5542  0.1371
  172SAPE   H5X19447   7.038   4.515   3.532  0.0713  0.8578 -0.5187
  172SAPE   H5Y19448   6.995   4.672   3.613  1.0057  1.9635  0.0523
  172SAPE   C3619449   7.161   4.564   3.709 -0.2846  0.1703  0.2951
  172SAPE   H6X19450   7.206   4.651   3.762  3.8044 -1.7578  0.3248
  172SAPE   H6Y19451   7.247   4.496   3.695 -0.4666 -0.6099  2.6115
  172SAPE   C3719452   7.067   4.484   3.797  0.0265  0.4838 -0.3827
  172SAPE   H7X19453   7.012   4.411   3.734  2.3345 -1.5463 -0.1802
  172SAPE   H7Y19454   6.994   4.557   3.838 -0.1425 -0.9297  2.0003
  172SAPE   C3819455   7.142   4.418   3.909 -1.0062  0.4023 -0.2582
  172SAPE   H8X19456   7.217   4.486   3.954 -1.1069  0.2516  0.1492
  172SAPE   H8Y19457   7.197   4.328   3.876 -1.9159 -0.6816  1.0349
  172SAPE   C3919458   7.049   4.370   4.023  0.0366  0.5225  0.4146
  172SAPE   H9X19459   7.117   4.319   4.094 -0.6535 -3.6370 -1.6486
  172SAPE   H9Y19460   6.963   4.305   3.998  0.9488 -0.6311  0.2163
  172SAPE  C31019461   6.991   4.500   4.089 -0.0372  0.2013  0.3921
  172SAPE  H10X19462   6.883   4.508   4.063  0.4991  2.4096 -1.5518
  172SAPE  H10Y19463   7.042   4.591   4.048 -1.3685  0.5390 -0.5916
  172SAPE  C31119464   7.011   4.501   4.240 -0.2263  0.2360 -0.3110
  172SAPE  H11X19465   7.121   4.493   4.248 -0.2400  1.0867  0.8577
  172SAPE  H11Y19466   6.976   4.403   4.279 -1.2585  0.1404 -1.4091
  172SAPE  C31219467   6.950   4.615   4.318  0.4305 -0.5582  0.1708
  172SAPE  H12X19468   6.840   4.605   4.335 -0.2871 -1.2540 -3.9624
  172SAPE  H12Y19469   6.971   4.703   4.254  2.0969 -1.5556 -0.7113
  172SAPE  C31319470   7.006   4.636   4.458  0.1941 -0.4483  0.1305
  172SAPE  H13X19471   6.973   4.739   4.481  0.6593 -0.2277 -0.1919
  172SAPE  H13Y19472   7.114   4.659   4.460  0.5199 -1.8690  1.7384
  172SAPE  C31419473   6.984   4.531   4.566  0.2632 -0.5336  0.3315
  172SAPE  H14X19474   6.884   4.486   4.545  1.2079 -2.3391 -0.5933
  172SAPE  H14Y19475   6.969   4.580   4.664 -3.7167  0.4623 -0.5853
  172SAPE  C31519476   7.091   4.419   4.568 -0.7918 -0.1458 -0.1650
  172SAPE  H15X19477   7.195   4.456   4.583 -0.9649  0.3447 -0.1466
  172SAPE  H15Y19478   7.098   4.371   4.468  2.1423 -0.2556  0.0046
  172SAPE  C31619479   7.052   4.307   4.661 -0.0023 -0.0543  0.0033
  172SAPE  H16X19480   7.024   4.213   4.609  2.9419 -0.7882 -0.4707
  172SAPE  H16Y19481   6.969   4.321   4.732  0.2633  2.1443 -0.0434
  172SAPE  C31719482   7.181   4.256   4.737 -0.1140  0.0075 -0.3829
  172SAPE  H17X19483   7.237   4.333   4.793  0.5708 -0.5639 -0.2743
  172SAPE  H17Y19484   7.258   4.227   4.662  0.7142  0.9854  0.0642
  172SAPE  C31819485   7.168   4.143   4.846  0.0544  0.3808 -0.7986
  172SAPE  H18X19486   7.083   4.171   4.911 -0.6931  0.4710 -1.7753
  172SAPE  H18Y19487   7.266   4.130   4.897  0.9602 -0.0017 -2.5399
  172SAPE  H18Z19488   7.134   4.056   4.785 -1.1177  2.0047 -2.5877
  173SLPC     N19489   6.016   2.018   7.696  0.0880  0.7701 -0.1564
  173SLPC   C1319490   5.968   2.089   7.820  0.2399  0.4337  0.1318
  173SLPC  H13A19491   5.952   2.194   7.803  0.9462  0.9287  2.2098
  173SLPC  H13B19492   5.875   2.044   7.851 -0.1525 -0.5882 -2.2488
  173SLPC  H13C19493   6.037   2.076   7.902  1.1580  0.3868 -0.6277
  173SLPC   C1419494   6.075   1.881   7.735 -0.8871 -0.0441  0.1338
  173SLPC  H14A19495   5.997   1.809   7.755  0.2192 -1.1960  0.3966
  173SLPC  H14B19496   6.149   1.849   7.664  0.7591  1.3413  1.1389
  173SLPC  H14C19497   6.122   1.899   7.831  1.7727 -1.9151 -0.7040
  173SLPC   C1519498   6.128   2.099   7.643 -0.9595 -0.1012  0.2035
  173SLPC  H15A19499   6.202   2.123   7.718  2.0154 -3.1290 -1.4623
  173SLPC  H15B19500   6.176   2.038   7.568 -1.6194 -2.1826  1.3970
  173SLPC  H15C19501   6.093   2.189   7.594  0.1052 -0.8466 -2.1045
  173SLPC   C1219502   5.912   2.005   7.591  0.1907  0.0444  0.2680
  173SLPC  H12A19503   5.866   2.101   7.576 -1.1069 -0.4131  1.0491
  173SLPC  H12B19504   5.835   1.943   7.636 -1.8707  2.3821  0.1764
  173SLPC   C1119505   5.955   1.953   7.453 -0.1755 -0.1116  0.9377
  173SLPC  H11A19506   6.022   2.027   7.405  1.4597 -1.3771  1.1935
  173SLPC  H11B19507   5.860   1.954   7.394 -0.6615  0.7433  1.7040
  173SLPC     P19508   5.918   1.691   7.460 -0.2174  0.1299  0.1164
  173SLPC   O1319509   5.987   1.594   7.558 -0.1930 -0.6332  0.4809
  173SLPC   O1419510   5.786   1.733   7.494  0.4607 -0.1776 -0.3904
  173SLPC   O1219511   6.015   1.819   7.452  0.2328  0.2729  0.3201
  173SLPC   O1119512   5.917   1.634   7.312  0.2126 -0.0161  0.1631
  173SLPC    C119513   5.833   1.707   7.216  0.1543 -0.3336 -0.5618
  173SLPC    HA19514   5.730   1.677   7.243  1.1410 -2.0281  1.6334
  173SLPC    HB19515   5.857   1.815   7.225 -1.3150 -0.1159  1.5720
  173SLPC    C219516   5.856   1.655   7.082 -0.4516  0.0594  0.3076
  173SLPC    HS19517   5.876   1.548   7.101  0.1482  0.2901  0.9948
  173SLPC   O2119518   5.964   1.724   7.018 -0.6327 -0.7058  0.2562
  173SLPC   C2119519   6.039   1.657   6.931 -0.0378  0.5401  0.0576
  173SLPC   O2219520   6.030   1.535   6.920  0.0474  0.2628  0.3076
  173SLPC   C2219521   6.146   1.753   6.867  0.2666  0.4014  0.6169
  173SLPC   H2R19522   6.162   1.828   6.948  0.7316  1.0755 -0.0845
  173SLPC   H2S19523   6.241   1.696   6.853  0.6658  0.9563  0.9988
  173SLPC    C319524   5.725   1.662   6.996  0.0030  0.1706 -0.0462
  173SLPC    HX19525   5.644   1.614   7.054  1.4370 -2.3782 -0.0179
  173SLPC    HY19526   5.729   1.606   6.900  0.4254 -1.9152  1.1324
  173SLPC   O3119527   5.687   1.801   6.970 -0.2783 -0.3816  0.1181
  173SLPC   C3119528   5.732   1.861   6.864 -0.0351  0.4595  0.9421
  173SLPC   O3219529   5.792   1.810   6.772 -0.4405 -0.0879  0.3544
  173SLPC   C3219530   5.676   2.006   6.868 -0.5230 -0.2349  0.4746
  173SLPC   H2X19531   5.706   2.046   6.967 -0.6926 -0.4013  0.5949
  173SLPC   H2Y19532   5.565   2.004   6.858 -0.4114  0.0633 -1.1906
  173SLPC   C2319533   6.109   1.826   6.736  0.3219  0.3514  0.7806
  173SLPC   H3R19534   6.024   1.894   6.761 -3.4202 -2.9948 -1.6984
  173SLPC   H3S19535   6.068   1.753   6.664  0.2583  1.9556 -0.8833
  173SLPC   C2419536   6.241   1.895   6.680  0.1978  0.2678  0.2218
  173SLPC   H4R19537   6.314   1.815   6.655  1.1214  0.5136  1.9538
  173SLPC   H4S19538   6.290   1.957   6.758 -0.5324  0.0427  0.8794
  173SLPC   C2519539   6.214   1.973   6.555  0.7662 -0.4004  0.3866
  173SLPC   H5R19540   6.133   1.921   6.499  0.9664  0.4519 -0.7156
  173SLPC   H5S19541   6.298   1.959   6.484  1.0330 -1.5019  0.8903
  173SLPC   C2619542   6.168   2.119   6.584  0.1469 -0.0437 -0.6957
  173SLPC   H6R19543   6.245   2.173   6.644  0.4114 -0.1907 -0.8983
  173SLPC   H6S19544   6.090   2.102   6.661  1.5764 -1.9718  0.4427
  173SLPC   C2719545   6.120   2.183   6.452  0.0382  0.2199 -0.4810
  173SLPC   H7R19546   6.036   2.119   6.417 -0.3645  1.7549 -2.4910
  173SLPC   H7S19547   6.204   2.181   6.380  0.5335 -2.2255  0.0709
  173SLPC   C2819548   6.072   2.327   6.464  0.2865 -0.3420 -0.2879
  173SLPC   H8R19549   6.153   2.387   6.508  0.5873 -0.5717 -0.5205
  173SLPC   H8S19550   5.998   2.329   6.547  1.1325  1.2650  0.4589
  173SLPC   C2919551   6.022   2.391   6.331  0.1172 -0.6524 -0.3721
  173SLPC   H9R19552   5.913   2.390   6.323  0.1224 -2.0459 -0.5203
  173SLPC  C21019553   6.090   2.453   6.234 -0.1969  0.2002 -0.0678
  173SLPC  H10R19554   6.034   2.493   6.148  2.2149 -1.1170 -2.4176
  173SLPC  C21119555   6.239   2.462   6.218 -0.1649 -0.2010  0.5783
  173SLPC  H11R19556   6.295   2.396   6.289 -1.7321 -2.0859  0.1665
  173SLPC  H11S19557   6.273   2.567   6.233  0.8533 -0.7020  2.0469
  173SLPC  C21219558   6.280   2.421   6.076 -0.1520  0.4327 -0.2139
  173SLPC  H12R19559   6.209   2.467   6.007  1.0765  0.9598 -1.1584
  173SLPC  C21319560   6.368   2.331   6.026 -0.1536  0.0060 -0.2451
  173SLPC  H13R19561   6.376   2.316   5.917 -0.0842  0.6881 -0.3388
  173SLPC  C21419562   6.451   2.241   6.105 -0.6023  0.2989  0.8003
  173SLPC  H14R19563   6.433   2.248   6.214  1.9212  0.4871  1.2641
  173SLPC  H14S19564   6.558   2.267   6.090 -0.6533 -0.0408 -0.2530
  173SLPC  C21519565   6.444   2.087   6.066 -0.4753 -0.1359 -0.0232
  173SLPC  H15R19566   6.515   2.037   6.136 -1.2941  0.5067  1.3109
  173SLPC  H15S19567   6.467   2.077   5.958 -1.5503 -1.3882 -0.1696
  173SLPC  C21619568   6.298   2.040   6.086  1.5479 -0.1486 -0.3066
  173SLPC  H16R19569   6.226   2.104   6.031 -1.1894 -2.1481  0.7132
  173SLPC  H16S19570   6.279   2.066   6.192  0.0481 -1.4971 -0.2079
  173SLPC  C21719571   6.271   1.893   6.057 -0.6279 -0.0714 -0.8038
  173SLPC  H17R19572   6.349   1.826   6.099 -1.2744  0.0085  0.6055
  173SLPC  H17S19573   6.242   1.867   5.953 -0.4681 -0.0826 -0.8454
  173SLPC  C21819574   6.141   1.852   6.133 -0.0055 -0.1741 -1.0986
  173SLPC  H18R19575   6.121   1.744   6.117  0.3883 -0.5378  0.6081
  173SLPC  H18S19576   6.059   1.916   6.094 -1.3666 -0.3881  1.2309
  173SLPC  H18T19577   6.149   1.859   6.244  1.8371  0.7028 -1.2379
  173SLPC   C3319578   5.737   2.096   6.752 -0.7394  0.8261 -1.0969
  173SLPC   H3X19579   5.846   2.076   6.743 -0.5698  0.9828  0.4312
  173SLPC   H3Y19580   5.737   2.201   6.790  1.5460  0.1929  0.8833
  173SLPC   C3419581   5.662   2.076   6.616 -0.5457 -0.5389 -0.2464
  173SLPC   H4X19582   5.568   2.133   6.626  0.1503  0.5153  0.4977
  173SLPC   H4Y19583   5.638   1.968   6.605 -2.5329 -0.3917  1.8959
  173SLPC   C3519584   5.738   2.140   6.496 -0.2218 -0.1044  0.5802
  173SLPC   H5X19585   5.820   2.075   6.459 -1.1704 -0.6078 -0.6924
  173SLPC   H5Y19586   5.768   2.246   6.511  1.8480 -0.4030 -1.0705
  173SLPC   C3619587   5.639   2.137   6.372 -0.1188  0.1834 -0.3433
  173SLPC   H6X19588   5.562   2.216   6.387  2.0578  2.4467 -0.4879
  173SLPC   H6Y19589   5.600   2.034   6.356 -1.8743  0.6901  0.3902
  173SLPC   C3719590   5.711   2.168   6.238  0.9431  0.3026  0.5684
  173SLPC   H7X19591   5.774   2.078   6.219 -1.6061 -1.2126 -1.3470
  173SLPC   H7Y19592   5.778   2.256   6.235  1.1830  0.1061 -1.8517
  173SLPC   C3819593   5.614   2.179   6.127  0.3070  0.1805  0.1009
  173SLPC   H8X19594   5.563   2.276   6.146 -2.0640 -0.2830 -3.0071
  173SLPC   H8Y19595   5.544   2.093   6.128  1.5377 -0.8438  0.5335
  173SLPC   C3919596   5.670   2.187   5.985 -0.1524  0.0386 -0.4700
  173SLPC   H9X19597   5.758   2.255   5.978 -0.1363 -0.1247 -2.2129
  173SLPC   H9Y19598   5.599   2.245   5.924 -0.3097  0.4612  0.1052
  173SLPC  C31019599   5.685   2.058   5.911 -0.7190  0.2579 -0.0438
  173SLPC  H10X19600   5.581   2.034   5.882 -1.0246 -0.1875  1.3386
  173SLPC  H10Y19601   5.717   1.968   5.969 -2.4356 -0.4194 -0.1076
  173SLPC  C31119602   5.763   2.076   5.777 -0.2348  0.0136 -0.3705
  173SLPC  H11X19603   5.721   2.160   5.718  0.6903  0.5936 -0.2191
  173SLPC  H11Y19604   5.746   1.982   5.719 -3.2163 -0.2792  0.7938
  173SLPC  C31219605   5.908   2.095   5.810 -0.2110  0.1477  0.8724
  173SLPC  H12X19606   5.938   2.045   5.906 -0.2925  0.4025  1.0308
  173SLPC  H12Y19607   5.933   2.202   5.824 -0.0212  0.2397 -0.1443
  173SLPC  C31319608   5.997   2.032   5.702  0.7669 -0.0684 -0.4129
  173SLPC  H13X19609   5.956   2.056   5.602  0.8926 -0.3154 -0.5243
  173SLPC  H13Y19610   5.993   1.923   5.723  0.4384  0.3798  2.1397
  173SLPC  C31419611   6.138   2.084   5.706  0.1613 -0.2265  0.2601
  173SLPC  H14X19612   6.160   2.097   5.814  0.9051 -2.9776  0.5180
  173SLPC  H14Y19613   6.148   2.183   5.656  3.5347 -0.6193 -0.0762
  173SLPC  C31519614   6.231   1.997   5.626  0.5254  0.1037  0.1690
  173SLPC  H15X19615   6.196   2.002   5.521 -1.7448 -0.9700  0.8129
  173SLPC  H15Y19616   6.232   1.889   5.652  1.3007  0.1701  0.4547
  173SLPC  C31619617   6.379   2.031   5.637  0.4074  0.3274  0.1258
  173SLPC  H16X19618   6.412   2.055   5.740  1.4529  0.4453 -0.2237
  173SLPC  H16Y19619   6.403   2.119   5.574 -0.6707 -0.1404 -1.0011
  173SLPC  C31719620   6.473   1.916   5.602  0.4734  1.1604 -0.0538
  173SLPC  H17X19621   6.447   1.884   5.499 -0.0187  1.6088 -0.0674
  173SLPC  H17Y19622   6.442   1.828   5.662  3.0599  0.8893  1.0144
  173SLPC  C31819623   6.625   1.934   5.617  0.5333  0.2814  0.4854
  173SLPC  H18X19624   6.660   2.024   5.562  0.6369 -0.5639 -0.8710
  173SLPC  H18Y19625   6.689   1.846   5.595  0.0865 -0.8651  3.3038
  173SLPC  H18Z19626   6.645   1.961   5.723  1.3941 -0.0170  0.4038
  174SLPC     N19627   1.920   2.662   7.291 -0.8813 -0.2647 -0.5040
  174SLPC   C1319628   1.854   2.612   7.417  0.3968  0.3841 -0.7310
  174SLPC  H13A19629   1.760   2.663   7.432 -0.0618  0.5383 -3.5012
  174SLPC  H13B19630   1.827   2.510   7.394 -0.1596  0.1367  0.9353
  174SLPC  H13C19631   1.906   2.601   7.511 -0.7172 -0.6221 -0.1926
  174SLPC   C1419632   1.959   2.805   7.314 -0.4177  0.0918 -0.6763
  174SLPC  H14A19633   2.002   2.818   7.412  0.3580 -1.6455 -0.7445
  174SLPC  H14B19634   2.013   2.847   7.231 -0.2867 -0.1613 -0.7178
  174SLPC  H14C19635   1.872   2.869   7.315 -0.8855 -0.5278  0.5775
  174SLPC   C1519636   1.824   2.650   7.178 -0.5624 -0.0499  0.1604
  174SLPC  H15A19637   1.725   2.681   7.209 -1.6196 -1.1303 -1.9560
  174SLPC  H15B19638   1.846   2.715   7.095 -0.7062  1.2227  1.0778
  174SLPC  H15C19639   1.813   2.552   7.136  0.1699 -0.4802  0.9313
  174SLPC   C1219640   2.052   2.591   7.271  0.0639  0.2467  0.5490
  174SLPC  H12A19641   2.120   2.622   7.349 -2.6970  1.4791  2.6168
  174SLPC  H12B19642   2.092   2.631   7.179  0.3760 -0.7788  0.2229
  174SLPC   C1119643   2.055   2.440   7.254 -0.2880  1.2461 -0.1289
  174SLPC  H11A19644   2.009   2.395   7.345  0.7779 -1.0696 -0.6558
  174SLPC  H11B19645   2.162   2.410   7.252  0.4075  3.5065 -0.0574
  174SLPC     P19646   1.949   2.275   7.076 -0.1958 -0.0306  0.0724
  174SLPC   O1319647   1.991   2.178   7.180 -0.0949 -0.1140  0.1701
  174SLPC   O1419648   1.810   2.272   7.027  0.5029 -0.0505 -0.4068
  174SLPC   O1219649   1.976   2.414   7.142 -0.1638  0.1990 -0.4762
  174SLPC   O1119650   2.046   2.276   6.955  0.3096 -0.0904  0.0052
  174SLPC    C119651   2.104   2.401   6.911 -0.1728 -0.4096  0.0099
  174SLPC    HA19652   2.158   2.454   6.993 -0.9697  0.6259 -0.1167
  174SLPC    HB19653   2.182   2.376   6.837  0.3376  0.1434  0.3471
  174SLPC    C219654   2.004   2.515   6.867  0.5525  0.1288  0.5432
  174SLPC    HS19655   1.920   2.531   6.937  1.1054  0.1743  1.2099
  174SLPC   O2119656   1.954   2.469   6.742  0.8696 -0.0006 -0.4213
  174SLPC   C2119657   1.849   2.531   6.689  0.1806 -0.3286 -0.4308
  174SLPC   O2219658   1.794   2.628   6.742 -0.4859  0.2651  0.3704
  174SLPC   C2219659   1.798   2.472   6.560 -0.2544 -0.4167  0.4045
  174SLPC   H2R19660   1.861   2.384   6.536  1.3285  0.8440 -0.2280
  174SLPC   H2S19661   1.699   2.425   6.579  1.0251 -3.4930  0.0424
  174SLPC    C319662   2.078   2.656   6.847 -0.2112  0.3486  0.0746
  174SLPC    HX19663   2.118   2.693   6.943  0.9584  1.3168 -0.7525
  174SLPC    HY19664   2.010   2.739   6.818 -0.6380  0.7731  2.1867
  174SLPC   O3119665   2.192   2.633   6.760  0.5405  0.6211 -0.7088
  174SLPC   C3119666   2.221   2.720   6.680 -0.0499  0.1544 -0.2000
  174SLPC   O3219667   2.158   2.824   6.661 -0.3891  0.0006  1.0738
  174SLPC   C3219668   2.353   2.692   6.613  0.1843 -0.0102 -0.2083
  174SLPC   H2X19669   2.419   2.621   6.667  0.5300  1.4438  1.3500
  174SLPC   H2Y19670   2.406   2.790   6.610 -0.1646  0.1698 -0.7044
  174SLPC   C2319671   1.780   2.577   6.445 -0.2037 -0.5993  0.2234
  174SLPC   H3R19672   1.732   2.667   6.488  0.1455  0.7173 -2.0255
  174SLPC   H3S19673   1.709   2.514   6.386 -0.6593 -1.6301  1.8024
  174SLPC   C2419674   1.910   2.604   6.372 -0.1124  0.8849 -0.0044
  174SLPC   H4R19675   1.999   2.589   6.437  0.0573 -2.0650 -0.7866
  174SLPC   H4S19676   1.899   2.704   6.324 -3.1923  0.5708 -0.1681
  174SLPC   C2519677   1.925   2.498   6.255 -0.2324  0.3211  0.2978
  174SLPC   H5R19678   1.843   2.533   6.189  0.8205  2.3812  0.0009
  174SLPC   H5S19679   1.901   2.396   6.294  0.6001  0.9646  2.6709
  174SLPC   C2619680   2.056   2.498   6.184  0.0458  0.1509 -0.4046
  174SLPC   H6R19681   2.042   2.422   6.104 -1.5276  0.9255 -0.9141
  174SLPC   H6S19682   2.139   2.464   6.250  0.1869 -0.4247 -0.8717
  174SLPC   C2719683   2.096   2.623   6.098  0.5127 -0.4772 -0.0042
  174SLPC   H7R19684   2.196   2.618   6.050  1.5704  1.9396  1.7483
  174SLPC   H7S19685   2.107   2.704   6.173  0.1899  1.2176 -1.7143
  174SLPC   C2819686   1.982   2.661   5.991 -0.1672  0.2691  0.1419
  174SLPC   H8R19687   1.883   2.686   6.034 -0.7013  0.9059 -1.3922
  174SLPC   H8S19688   1.966   2.577   5.920  1.3730  0.0559  0.0180
  174SLPC   C2919689   2.030   2.787   5.925  0.3768 -0.2133  0.2984
  174SLPC   H9R19690   1.973   2.877   5.952  0.7849  0.4449 -0.9833
  174SLPC  C21019691   2.133   2.793   5.838  0.3155  0.5218 -0.1854
  174SLPC  H10R19692   2.163   2.894   5.806 -0.2197  0.4195 -1.0442
  174SLPC  C21119693   2.227   2.683   5.790  0.0450 -0.0883  1.0112
  174SLPC  H11R19694   2.204   2.582   5.830  0.1332 -0.7568 -0.5550
  174SLPC  H11S19695   2.333   2.711   5.807  0.2797 -0.8636  0.8570
  174SLPC  C21219696   2.218   2.679   5.637 -0.2889 -0.6949  0.1366
  174SLPC  H12R19697   2.111   2.696   5.614 -0.8238 -2.8196  0.8192
  174SLPC  C21319698   2.312   2.657   5.543 -0.0540  1.1554 -0.4041
  174SLPC  H13R19699   2.277   2.659   5.439 -2.3097  0.5143  0.2917
  174SLPC  C21419700   2.456   2.638   5.572  0.1955 -0.1779  0.3018
  174SLPC  H14R19701   2.474   2.535   5.609  0.3920 -0.8851 -1.6470
  174SLPC  H14S19702   2.485   2.714   5.648  1.6324  0.6378 -1.0010
  174SLPC  C21519703   2.552   2.653   5.450 -0.0257  0.0037  0.0360
  174SLPC  H15R19704   2.563   2.762   5.433  1.1875 -0.1487 -0.2608
  174SLPC  H15S19705   2.498   2.604   5.367 -0.1742 -0.3301  0.3230
  174SLPC  C21619706   2.689   2.586   5.466  0.5662 -0.2930 -0.1605
  174SLPC  H16R19707   2.661   2.493   5.518  0.3911 -0.8055 -1.1386
  174SLPC  H16S19708   2.754   2.641   5.537 -0.6002 -0.6705  1.2433
  174SLPC  C21719709   2.764   2.559   5.337  0.0143 -0.1788 -0.1673
  174SLPC  H17R19710   2.694   2.522   5.259 -2.5381 -1.7555  2.6358
  174SLPC  H17S19711   2.840   2.479   5.348  0.6783  0.3360 -0.8778
  174SLPC  C21819712   2.854   2.680   5.302 -0.5777  0.1805 -0.4021
  174SLPC  H18R19713   2.920   2.687   5.391 -1.6708  1.7551  0.3559
  174SLPC  H18S19714   2.795   2.773   5.286 -0.9337 -0.2431 -1.6170
  174SLPC  H18T19715   2.919   2.662   5.214 -0.9013 -1.7582 -0.2851
  174SLPC   C3319716   2.324   2.659   6.463  0.1076  0.5741 -0.0564
  174SLPC   H3X19717   2.250   2.727   6.417 -0.5503 -1.6815 -2.6327
  174SLPC   H3Y19718   2.285   2.555   6.472  0.9112  0.3451  0.9541
  174SLPC   C3419719   2.446   2.669   6.363 -0.0340 -0.2370  0.7438
  174SLPC   H4X19720   2.501   2.574   6.379 -0.3060 -0.2930  1.3711
  174SLPC   H4Y19721   2.512   2.753   6.394 -0.4058 -0.7225  3.0774
  174SLPC   C3519722   2.411   2.678   6.218 -0.3006 -0.3765  0.5347
  174SLPC   H5X19723   2.343   2.765   6.200  0.1845 -0.1228 -0.1204
  174SLPC   H5Y19724   2.350   2.590   6.189  0.3931 -1.2462  1.6584
  174SLPC   C3619725   2.531   2.697   6.123 -0.0383  0.4601 -0.4793
  174SLPC   H6X19726   2.557   2.804   6.137 -0.6469  0.3388  2.0116
  174SLPC   H6Y19727   2.489   2.686   6.021  0.2905 -0.4848 -0.5210
  174SLPC   C3719728   2.643   2.599   6.143 -0.9953 -0.5854  0.3999
  174SLPC   H7X19729   2.635   2.514   6.071  3.9161 -0.7886 -0.2499
  174SLPC   H7Y19730   2.653   2.548   6.241 -2.2187 -2.6880 -0.5024
  174SLPC   C3819731   2.778   2.663   6.095  0.6308  0.6750 -0.2399
  174SLPC   H8X19732   2.798   2.748   6.164  0.1801  1.8855 -1.5526
  174SLPC   H8Y19733   2.764   2.713   5.997 -2.5273  1.3770  0.4819
  174SLPC   C3919734   2.895   2.561   6.080 -0.5012 -0.5072  0.4396
  174SLPC   H9X19735   2.919   2.508   6.175  1.1440 -1.1234 -0.2739
  174SLPC   H9Y19736   2.985   2.624   6.062  0.5739 -2.2147 -0.4222
  174SLPC  C31019737   2.870   2.472   5.962 -0.2052 -0.1530 -0.6109
  174SLPC  H10X19738   2.830   2.517   5.869  0.8588 -0.3373 -1.1867
  174SLPC  H10Y19739   2.798   2.394   5.993  0.8002 -1.3508 -1.2057
  174SLPC  C31119740   3.003   2.400   5.923  0.8020  0.2153  0.4172
  174SLPC  H11X19741   2.975   2.302   5.878 -2.0971  1.2920 -0.3089
  174SLPC  H11Y19742   3.056   2.376   6.018  0.0067 -0.5935  0.6725
  174SLPC  C31219743   3.097   2.482   5.832 -1.1331 -0.2779  0.4565
  174SLPC  H12X19744   3.195   2.428   5.826 -1.0930 -0.5931  3.0614
  174SLPC  H12Y19745   3.105   2.577   5.888 -1.4733 -0.2367  0.4359
  174SLPC  C31319746   3.048   2.523   5.695  0.3152 -0.1749 -0.0439
  174SLPC  H13X19747   3.127   2.591   5.658 -0.4776 -0.2417 -1.9926
  174SLPC  H13Y19748   2.947   2.565   5.715  0.3872 -0.7750  1.7328
  174SLPC  C31419749   3.031   2.403   5.595  0.5909  0.3153 -0.6386
  174SLPC  H14X19750   3.016   2.446   5.494  3.3389 -0.2675 -1.3739
  174SLPC  H14Y19751   2.943   2.339   5.618 -0.7952  2.3098 -0.2362
  174SLPC  C31519752   3.153   2.312   5.578 -0.1596  0.5088 -0.0299
  174SLPC  H15X19753   3.126   2.236   5.502  1.7301 -0.6477  0.3928
  174SLPC  H15Y19754   3.162   2.257   5.674 -0.4099 -0.6731 -0.6688
  174SLPC  C31619755   3.287   2.375   5.539  0.6585  0.8115 -0.1460
  174SLPC  H16X19756   3.320   2.444   5.619  1.0085  1.9166 -1.2081
  174SLPC  H16Y19757   3.274   2.431   5.443  1.9083 -1.1812 -1.5474
  174SLPC  C31719758   3.386   2.272   5.510  0.2417 -0.2663 -0.1596
  174SLPC  H17X19759   3.380   2.234   5.406  0.2551  0.3686 -0.3963
  174SLPC  H17Y19760   3.392   2.195   5.591 -1.3720 -0.9915 -0.6880
  174SLPC  C31819761   3.535   2.311   5.508 -0.2306 -0.0386 -0.6125
  174SLPC  H18X19762   3.606   2.226   5.514 -0.6600 -0.4363 -1.0185
  174SLPC  H18Y19763   3.546   2.380   5.594 -1.3652 -0.3195 -0.2309
  174SLPC  H18Z19764   3.558   2.372   5.417 -0.8074  0.9142 -0.1253
  175SLPC     N19765   0.506   1.164   7.605 -0.2868  0.6862 -0.4528
  175SLPC   C1319766   0.446   1.287   7.659 -0.4957 -0.0192 -0.2361
  175SLPC  H13A19767   0.454   1.280   7.766 -1.1647  1.7103 -0.0296
  175SLPC  H13B19768   0.501   1.378   7.642 -2.2036  0.8487 -1.5062
  175SLPC  H13C19769   0.353   1.307   7.607 -0.7756  1.2716  0.7014
  175SLPC   C1419770   0.411   1.047   7.620 -0.5596 -0.4691 -0.2910
  175SLPC  H14A19771   0.320   1.069   7.566 -0.4269 -1.0378 -0.7488
  175SLPC  H14B19772   0.453   0.955   7.582 -1.3408 -1.5590  1.3454
  175SLPC  H14C19773   0.377   1.038   7.722 -2.8666  0.1717 -0.9324
  175SLPC   C1519774   0.625   1.140   7.688 -0.3473 -0.0924  0.2024
  175SLPC  H15A19775   0.717   1.188   7.656  0.5639 -1.5503  0.5288
  175SLPC  H15B19776   0.612   1.175   7.789 -0.5058  2.1862 -0.5427
  175SLPC  H15C19777   0.657   1.037   7.684  0.3331  0.1157  0.0313
  175SLPC   C1219778   0.543   1.177   7.461  0.4468 -0.0173 -0.0401
  175SLPC  H12A19779   0.459   1.197   7.397  0.3127 -0.2303  0.0681
  175SLPC  H12B19780   0.584   1.081   7.432  0.6483 -0.8366  2.6683
  175SLPC   C1119781   0.642   1.287   7.427 -0.2115  0.3601 -0.2671
  175SLPC  H11A19782   0.735   1.293   7.488 -0.9260  1.7787  0.7530
  175SLPC  H11B19783   0.594   1.387   7.438 -1.0893  0.0384 -1.0991
  175SLPC     P19784   0.725   1.138   7.215  0.1216 -0.7477  0.1203
  175SLPC   O1319785   0.835   1.085   7.299  0.1020  0.0834  0.2705
  175SLPC   O1419786   0.611   1.042   7.201  0.1965 -0.2907 -0.2827
  175SLPC   O1219787   0.673   1.273   7.282  0.2702  0.3257 -0.0390
  175SLPC   O1119788   0.770   1.191   7.081  0.4546  0.3010 -0.3168
  175SLPC    C119789   0.857   1.299   7.046 -0.2423 -0.9056  0.1833
  175SLPC    HA19790   0.910   1.335   7.137 -0.3742  0.2837 -0.1931
  175SLPC    HB19791   0.941   1.268   6.981 -0.2579  2.0361 -1.3936
  175SLPC    C219792   0.780   1.418   6.987 -0.5998 -0.3524  0.3558
  175SLPC    HS19793   0.716   1.448   7.073  1.3951  1.1673  1.4096
  175SLPC   O2119794   0.714   1.366   6.869 -0.3885  0.2040 -0.2814
  175SLPC   C2119795   0.599   1.312   6.896  0.0187 -0.2954  0.2147
  175SLPC   O2219796   0.522   1.352   6.984 -0.2852  0.0763 -0.3934
  175SLPC   C2219797   0.572   1.189   6.798 -0.0976 -0.0091 -0.8829
  175SLPC   H2R19798   0.670   1.136   6.794  0.7682  0.9368  3.2040
  175SLPC   H2S19799   0.491   1.131   6.846  0.5133  0.9764  1.5154
  175SLPC    C319800   0.867   1.552   6.962 -0.6670  0.0076 -0.3371
  175SLPC    HX19801   0.938   1.576   7.044  0.2068  1.5656 -1.5037
  175SLPC    HY19802   0.792   1.633   6.953 -0.6875 -0.1212 -1.4688
  175SLPC   O3119803   0.941   1.533   6.839 -0.3435 -0.4032  0.1945
  175SLPC   C3119804   0.883   1.584   6.726  0.3138  0.8112  0.4262
  175SLPC   O3219805   0.765   1.610   6.712 -0.1372  0.4133 -0.1026
  175SLPC   C3219806   0.979   1.589   6.612  0.2673 -0.1368  0.1997
  175SLPC   H2X19807   1.070   1.528   6.631  0.0553 -0.5664 -0.1547
  175SLPC   H2Y19808   1.035   1.684   6.626  2.9771 -1.5717 -0.2063
  175SLPC   C2319809   0.528   1.234   6.663 -0.9594  0.0678  0.1844
  175SLPC   H3R19810   0.606   1.284   6.601  1.0573  0.3765  2.7947
  175SLPC   H3S19811   0.442   1.300   6.685  0.5716  1.4843  2.4312
  175SLPC   C2419812   0.488   1.114   6.583  0.5968  1.4597 -0.0687
  175SLPC   H4R19813   0.401   1.069   6.636 -0.7437  0.6286 -2.7734
  175SLPC   H4S19814   0.572   1.042   6.586  0.2545  1.0160 -0.7590
  175SLPC   C2519815   0.438   1.145   6.444  0.3959 -0.2552 -0.5152
  175SLPC   H5R19816   0.396   1.248   6.440  0.7189  0.0625  2.2469
  175SLPC   H5S19817   0.367   1.071   6.401  1.2005 -0.9324 -0.7157
  175SLPC   C2619818   0.555   1.141   6.349  0.0661  0.2621  0.5170
  175SLPC   H6R19819   0.609   1.044   6.348  2.7789  1.6215 -2.3128
  175SLPC   H6S19820   0.621   1.224   6.382 -2.2922  1.9455  1.3185
  175SLPC   C2719821   0.527   1.152   6.198 -0.9422 -0.1962 -0.4080
  175SLPC   H7R19822   0.441   1.082   6.195 -0.5287 -0.7666  0.6318
  175SLPC   H7S19823   0.612   1.114   6.138  1.3085  0.9851  1.8472
  175SLPC   C2819824   0.482   1.289   6.149  0.3183 -0.3709  0.1022
  175SLPC   H8R19825   0.570   1.350   6.116 -0.3422  1.4037  1.4841
  175SLPC   H8S19826   0.432   1.347   6.229 -0.7733 -0.6819 -0.3388
  175SLPC   C2919827   0.391   1.266   6.030  1.0211 -0.4757 -0.7680
  175SLPC   H9R19828   0.286   1.281   6.060  0.8630  1.3823 -2.0886
  175SLPC  C21019829   0.423   1.252   5.906 -0.0031  0.3955  0.1099
  175SLPC  H10R19830   0.343   1.257   5.831  0.7317 -0.5446 -0.7650
  175SLPC  C21119831   0.570   1.254   5.849 -0.0150  0.5702  0.2931
  175SLPC  H11R19832   0.594   1.152   5.812  0.3479  1.2821 -1.5224
  175SLPC  H11S19833   0.646   1.270   5.928  0.8277 -0.7368 -0.2298
  175SLPC  C21219834   0.589   1.347   5.731  0.0237  0.5879  0.0567
  175SLPC  H12R19835   0.617   1.450   5.758 -0.5931  1.0656 -1.0658
  175SLPC  C21319836   0.592   1.313   5.599 -0.1480 -0.3332  0.1677
  175SLPC  H13R19837   0.613   1.398   5.532  1.7742  0.7974  2.0796
  175SLPC  C21419838   0.569   1.178   5.535  0.6770 -0.5285  0.1427
  175SLPC  H14R19839   0.588   1.090   5.599  0.2410 -0.6013  0.1701
  175SLPC  H14S19840   0.636   1.170   5.446  0.1552  0.0299 -0.3131
  175SLPC  C21519841   0.417   1.172   5.483  0.1236 -0.0368 -0.1075
  175SLPC  H15R19842   0.348   1.194   5.567 -0.7276 -0.5086 -0.6643
  175SLPC  H15S19843   0.393   1.066   5.460 -0.3370  0.2504 -1.0245
  175SLPC  C21619844   0.388   1.258   5.363 -0.3789  0.1991 -0.0872
  175SLPC  H16R19845   0.413   1.200   5.271  0.8537 -0.1485  0.4497
  175SLPC  H16S19846   0.439   1.357   5.355 -1.0649  0.4577 -1.7460
  175SLPC  C21719847   0.242   1.303   5.342 -0.8799 -0.3015 -0.2741
  175SLPC  H17R19848   0.179   1.212   5.352  0.0502 -0.7571  1.8262
  175SLPC  H17S19849   0.228   1.350   5.242 -1.9200  0.2518  0.1136
  175SLPC  C21819850   0.181   1.408   5.442 -0.2467  0.5424 -0.3562
  175SLPC  H18R19851   0.184   1.365   5.544  1.1878 -0.0048 -0.6106
  175SLPC  H18S19852   0.073   1.408   5.416 -0.5156  0.7693  0.7150
  175SLPC  H18T19853   0.229   1.508   5.431 -1.8766  1.5347  1.0920
  175SLPC   C3319854   0.917   1.580   6.474  0.3684 -0.1674  0.0930
  175SLPC   H3X19855   0.976   1.652   6.413  1.5547  0.4097  1.8494
  175SLPC   H3Y19856   0.814   1.621   6.463  0.4130 -0.1154 -0.1502
  175SLPC   C3419857   0.939   1.440   6.416 -0.3436  0.3098  0.0012
  175SLPC   H4X19858   0.901   1.363   6.486  0.1427  0.4653  0.4459
  175SLPC   H4Y19859   1.049   1.421   6.417 -0.8591 -3.1722  0.4058
  175SLPC   C3519860   0.890   1.411   6.272 -1.0897 -0.4256 -0.2941
  175SLPC   H5X19861   0.788   1.451   6.257 -0.2484  1.3259 -1.5782
  175SLPC   H5Y19862   0.875   1.302   6.253  0.3011 -0.4408 -1.4571
  175SLPC   C3619863   0.980   1.458   6.153 -0.1390 -0.1203  0.6388
  175SLPC   H6X19864   1.085   1.424   6.162  0.7795  2.4376  0.3858
  175SLPC   H6Y19865   0.991   1.569   6.153  2.4695 -0.2818 -1.1684
  175SLPC   C3719866   0.929   1.410   6.016 -0.0379  0.5668 -0.2502
  175SLPC   H7X19867   0.821   1.428   5.999  0.6213  2.7182 -2.7862
  175SLPC   H7Y19868   0.958   1.303   6.024 -0.3418  0.5017  0.0161
  175SLPC   C3819869   1.004   1.483   5.902  0.7405 -0.0993 -0.6915
  175SLPC   H8X19870   1.110   1.486   5.936  0.4052  1.3951  0.3366
  175SLPC   H8Y19871   0.960   1.585   5.906  0.2312 -0.3487  1.2692
  175SLPC   C3919872   0.995   1.424   5.760  0.3562 -0.3337 -0.2285
  175SLPC   H9X19873   0.887   1.412   5.740 -0.4894  5.1860 -0.6216
  175SLPC   H9Y19874   1.053   1.329   5.751  0.4796 -0.0682 -3.4808
  175SLPC  C31019875   1.056   1.511   5.648  1.1167 -0.3467  0.5385
  175SLPC  H10X19876   1.152   1.549   5.688  2.9476 -4.7505  0.9696
  175SLPC  H10Y19877   0.986   1.595   5.633  2.9168  0.7287 -2.5993
  175SLPC  C31119878   1.066   1.452   5.515 -0.4521 -0.8132  0.5266
  175SLPC  H11X19879   0.969   1.415   5.475  0.0387 -0.4868 -1.0314
  175SLPC  H11Y19880   1.139   1.369   5.526 -1.0039 -1.7270 -2.0011
  175SLPC  C31219881   1.123   1.548   5.413 -0.0173 -0.2234 -0.0469
  175SLPC  H12X19882   1.202   1.601   5.470  0.1614 -0.6905  0.1400
  175SLPC  H12Y19883   1.045   1.623   5.386 -0.6906 -0.7662  0.3431
  175SLPC  C31319884   1.165   1.486   5.283  1.2080 -0.3928  0.7043
  175SLPC  H13X19885   1.217   1.390   5.301  1.3873 -0.0740  2.0344
  175SLPC  H13Y19886   1.249   1.542   5.236  3.1673 -3.9456 -0.3728
  175SLPC  C31419887   1.051   1.494   5.180  0.3864  0.8611  0.3619
  175SLPC  H14X19888   1.108   1.492   5.084  3.7871 -0.7771  2.2301
  175SLPC  H14Y19889   0.997   1.591   5.180 -1.3487  0.0048 -2.1939
  175SLPC  C31519890   0.943   1.377   5.181 -1.2238 -0.5612 -0.0519
  175SLPC  H15X19891   0.882   1.384   5.274  2.0651  2.7939  2.1343
  175SLPC  H15Y19892   0.998   1.280   5.180 -0.3682 -0.0866 -0.0187
  175SLPC  C31619893   0.839   1.398   5.069  0.2582  0.6872  0.0898
  175SLPC  H16X19894   0.886   1.394   4.968 -0.8120  0.5412 -0.4175
  175SLPC  H16Y19895   0.785   1.493   5.090  1.2474  0.8622  1.9907
  175SLPC  C31719896   0.729   1.291   5.062  0.0410  0.6176  0.4797
  175SLPC  H17X19897   0.645   1.316   5.130 -0.5838 -0.6940  0.2210
  175SLPC  H17Y19898   0.785   1.198   5.085 -0.1220  0.7584  1.4788
  175SLPC  C31819899   0.676   1.264   4.920 -0.5138  0.2376 -0.5231
  175SLPC  H18X19900   0.619   1.169   4.917 -0.6537  0.3307 -0.7670
  175SLPC  H18Y19901   0.764   1.243   4.856  0.2925  0.8567  0.3531
  175SLPC  H18Z19902   0.614   1.348   4.883 -2.6624 -1.1763 -0.3274
  176SLPC     N19903   5.066   1.538   7.508 -0.3063 -0.3646  0.7754
  176SLPC   C1319904   5.031   1.556   7.649  0.2374  0.6181  0.0005
  176SLPC  H13A19905   5.109   1.525   7.716 -0.5879 -1.8871 -0.0877
  176SLPC  H13B19906   4.994   1.655   7.669  1.5054  0.9849  0.6347
  176SLPC  H13C19907   4.947   1.490   7.667  0.9291 -0.4053 -0.4331
  176SLPC   C1419908   4.945   1.554   7.425 -0.6975 -0.0631 -0.1660
  176SLPC  H14A19909   4.908   1.654   7.442 -0.3129 -0.1308  1.1951
  176SLPC  H14B19910   4.965   1.531   7.321 -0.2569 -0.3565 -0.0188
  176SLPC  H14C19911   4.880   1.476   7.463  0.5763 -1.2751 -0.4182
  176SLPC   C1519912   5.129   1.399   7.489 -0.2865 -0.1389  0.1160
  176SLPC  H15A19913   5.176   1.384   7.393 -0.1666  1.0329 -0.0222
  176SLPC  H15B19914   5.204   1.400   7.568 -0.3042  1.3300  0.1482
  176SLPC  H15C19915   5.057   1.319   7.499 -1.1280  0.4858 -0.8195
  176SLPC   C1219916   5.173   1.644   7.470  0.0567 -0.3532 -0.3111
  176SLPC  H12A19917   5.212   1.618   7.373 -0.3804 -0.7387 -0.3898
  176SLPC  H12B19918   5.258   1.630   7.535  0.0120 -0.0396 -0.1881
  176SLPC   C1119919   5.125   1.794   7.470  0.5236 -0.0353 -0.3379
  176SLPC  H11A19920   5.214   1.859   7.454  0.2403  0.3107 -0.5250
  176SLPC  H11B19921   5.094   1.830   7.570 -0.3122  0.3686 -0.7295
  176SLPC     P19922   5.064   1.869   7.231  0.6236 -0.4348  0.2151
  176SLPC   O1319923   4.957   1.842   7.132 -0.4594 -0.2659 -0.3711
  176SLPC   O1419924   5.105   2.012   7.238  0.0456  0.3012 -0.1667
  176SLPC   O1219925   5.023   1.825   7.376 -0.1463 -0.4298  0.0878
  176SLPC   O1119926   5.186   1.777   7.201 -0.0472 -0.6597  0.1674
  176SLPC    C119927   5.323   1.825   7.189  0.4074  0.3671  0.1770
  176SLPC    HA19928   5.335   1.920   7.247  1.6880  0.8963 -0.8932
  176SLPC    HB19929   5.393   1.753   7.236  0.5663  1.7549  2.2297
  176SLPC    C219930   5.354   1.853   7.046 -0.3780  0.1371 -0.0156
  176SLPC    HS19931   5.462   1.863   7.022 -0.6707  1.3962 -0.9340
  176SLPC   O2119932   5.276   1.968   7.001  0.4040  0.1296  0.3242
  176SLPC   C2119933   5.338   2.083   7.026  0.7516  0.6534 -0.3357
  176SLPC   O2219934   5.450   2.108   7.065 -0.3406  0.4223  0.1942
  176SLPC   C2219935   5.251   2.197   6.973  0.0152 -0.3090  0.0972
  176SLPC   H2R19936   5.152   2.159   6.942  0.9634 -1.5120 -1.6554
  176SLPC   H2S19937   5.235   2.273   7.052  0.1108  0.6432 -0.7939
  176SLPC    C319938   5.309   1.732   6.959  0.5696  0.0022  0.1705
  176SLPC    HX19939   5.200   1.712   6.967  0.9259 -1.5723  1.6903
  176SLPC    HY19940   5.365   1.644   6.996 -1.5746 -1.4798  0.0570
  176SLPC   O3119941   5.350   1.743   6.816  0.2393 -0.1357  0.1224
  176SLPC   C3119942   5.262   1.766   6.725  0.5717  0.5976 -0.3133
  176SLPC   O3219943   5.145   1.778   6.745 -0.3894  0.0124 -0.4978
  176SLPC   C3219944   5.347   1.779   6.596  0.2253  0.3035  0.0641
  176SLPC   H2X19945   5.427   1.703   6.608 -0.0059 -0.0081 -0.3563
  176SLPC   H2Y19946   5.398   1.878   6.592 -1.4391  1.2703  1.3105
  176SLPC   C2319947   5.314   2.263   6.847 -0.4306 -0.0293  0.5514
  176SLPC   H3R19948   5.420   2.279   6.875 -0.6505  0.4071  1.1768
  176SLPC   H3S19949   5.268   2.361   6.824  0.4700 -0.1875 -2.1713
  176SLPC   C2419950   5.297   2.184   6.719 -1.0681  0.4947  0.1182
  176SLPC   H4R19951   5.343   2.083   6.728  0.7670  0.8904 -3.1862
  176SLPC   H4S19952   5.349   2.255   6.651  0.1368 -0.4533  0.0093
  176SLPC   C2519953   5.157   2.171   6.675 -0.1472  0.1120 -0.3965
  176SLPC   H5R19954   5.095   2.260   6.701  1.2140  0.8063  0.5856
  176SLPC   H5S19955   5.103   2.084   6.719 -1.2714 -0.2213 -2.3419
  176SLPC   C2619956   5.136   2.138   6.522 -0.3202  0.1666  0.4535
  176SLPC   H6R19957   5.032   2.100   6.512 -0.3818  0.4170  0.1250
  176SLPC   H6S19958   5.204   2.055   6.493  1.1790  0.8844  1.7861
  176SLPC   C2719959   5.144   2.257   6.423 -0.2708 -0.1317 -0.0675
  176SLPC   H7R19960   5.251   2.269   6.395 -0.1820  0.1262  0.3878
  176SLPC   H7S19961   5.118   2.347   6.481  1.0545  2.7614 -3.5735
  176SLPC   C2819962   5.059   2.234   6.293  0.8930  0.1086 -0.0304
  176SLPC   H8R19963   4.952   2.228   6.322  0.9965 -0.9397  0.1816
  176SLPC   H8S19964   5.090   2.137   6.247 -1.4351 -0.5267 -0.3854
  176SLPC   C2919965   5.058   2.339   6.193 -0.2752 -0.7091  0.4655
  176SLPC   H9R19966   4.971   2.407   6.185 -0.0927 -0.5850 -0.5759
  176SLPC  C21019967   5.150   2.339   6.092  0.8134 -0.0584  0.7667
  176SLPC  H10R19968   5.148   2.417   6.014  0.8167  0.7000  1.5036
  176SLPC  C21119969   5.265   2.238   6.075  0.1235 -0.0012  0.4908
  176SLPC  H11R19970   5.309   2.215   6.174 -0.0594  1.9409  1.0773
  176SLPC  H11S19971   5.349   2.284   6.017  0.1006  0.1918  0.6109
  176SLPC  C21219972   5.228   2.111   5.999 -0.5384  0.4048 -0.5355
  176SLPC  H12R19973   5.260   2.022   6.056  1.0516  1.3710  0.1475
  176SLPC  C21319974   5.182   2.101   5.876 -0.0017  0.0992  0.7596
  176SLPC  H13R19975   5.198   2.007   5.822 -0.0972  0.6444 -0.2605
  176SLPC  C21419976   5.155   2.213   5.775 -0.1402 -0.1955 -0.7827
  176SLPC  H14R19977   5.201   2.309   5.809  1.0125  0.2933 -3.5062
  176SLPC  H14S19978   5.045   2.225   5.774 -0.6977 -3.9803 -2.6390
  176SLPC  C21519979   5.204   2.196   5.636 -0.5133  0.6999 -0.2870
  176SLPC  H15R19980   5.167   2.280   5.574 -1.5093  0.4031 -0.1241
  176SLPC  H15S19981   5.176   2.106   5.575  1.9339  1.4735 -2.7350
  176SLPC  C21619982   5.364   2.194   5.637 -0.3007 -0.1334 -0.3783
  176SLPC  H16R19983   5.400   2.091   5.660  0.0558  0.4169  1.6878
  176SLPC  H16S19984   5.399   2.264   5.716 -1.8584  1.8483 -1.3565
  176SLPC  C21719985   5.427   2.248   5.501 -0.0813 -0.0244  0.1491
  176SLPC  H17R19986   5.537   2.257   5.515 -0.1898  2.5797 -0.1420
  176SLPC  H17S19987   5.389   2.350   5.479 -2.5073 -1.5430 -3.7601
  176SLPC  C21819988   5.394   2.161   5.380  0.1757 -0.5178 -0.1806
  176SLPC  H18R19989   5.285   2.158   5.360  0.2097  0.6619 -0.6057
  176SLPC  H18S19990   5.443   2.062   5.398 -0.7693 -0.9726 -0.0296
  176SLPC  H18T19991   5.448   2.199   5.291  1.1392 -0.0772  0.5749
  176SLPC   C3319992   5.258   1.754   6.469 -0.0428 -0.9978 -0.0693
  176SLPC   H3X19993   5.176   1.828   6.478 -0.9546 -1.7843 -1.6090
  176SLPC   H3Y19994   5.229   1.647   6.477  1.0092 -1.1755  2.1358
  176SLPC   C3419995   5.330   1.790   6.341  0.6731  0.3813 -0.0410
  176SLPC   H4X19996   5.431   1.744   6.346 -0.1375 -1.5202 -0.0876
  176SLPC   H4Y19997   5.340   1.900   6.351 -0.3578  0.3169  2.4418
  176SLPC   C3519998   5.258   1.739   6.208 -0.3958 -0.1905  0.0549
  176SLPC   H5X19999   5.168   1.798   6.180 -1.0605 -0.7475  0.9431
  176SLPC   H5Y20000   5.236   1.631   6.218  0.7998 -0.3259  1.5905
  176SLPC   C3620001   5.355   1.759   6.089  0.2225  0.0275  0.2634
  176SLPC   H6X20002   5.435   1.682   6.097 -1.2444 -1.9808 -2.6394
  176SLPC   H6Y20003   5.401   1.860   6.092 -3.1168  1.6712  2.0080
  176SLPC   C3720004   5.288   1.723   5.952  0.2666  0.0306  0.2361
  176SLPC   H7X20005   5.221   1.801   5.912 -0.2508  0.6487  2.1875
  176SLPC   H7Y20006   5.235   1.626   5.965 -0.5807  0.5734  0.8859
  176SLPC   C3820007   5.391   1.714   5.834 -0.4090 -0.2391 -0.8520
  176SLPC   H8X20008   5.471   1.640   5.858 -1.9452 -1.8206 -0.4140
  176SLPC   H8Y20009   5.432   1.815   5.811  0.4447 -0.9062 -2.4397
  176SLPC   C3920010   5.310   1.674   5.710  0.1026 -0.0871 -0.0452
  176SLPC   H9X20011   5.245   1.760   5.681  1.5730  1.4162  0.9406
  176SLPC   H9Y20012   5.250   1.582   5.726  1.2484 -1.2394 -1.9995
  176SLPC  C31020013   5.415   1.644   5.602  0.2908 -0.0204  0.4876
  176SLPC  H10X20014   5.363   1.602   5.513 -0.8037  1.2428  0.5074
  176SLPC  H10Y20015   5.479   1.555   5.619 -0.1175 -0.9240 -2.2507
  176SLPC  C31120016   5.492   1.764   5.540 -0.5549 -0.9187  0.0271
  176SLPC  H11X20017   5.534   1.830   5.619  1.5539 -1.3068 -0.7037
  176SLPC  H11Y20018   5.418   1.830   5.491  0.5285  0.8478  0.6800
  176SLPC  C31220019   5.609   1.725   5.452 -0.6956 -0.2989  0.0630
  176SLPC  H12X20020   5.573   1.664   5.366  0.4654  0.7637 -1.2170
  176SLPC  H12Y20021   5.693   1.670   5.499  0.1326  1.8152  1.1788
  176SLPC  C31320022   5.667   1.857   5.393  0.1041 -0.1000 -0.2978
  176SLPC  H13X20023   5.704   1.938   5.460  2.2643 -0.2370 -1.2444
  176SLPC  H13Y20024   5.589   1.899   5.326  1.0586  0.5658 -1.0201
  176SLPC  C31420025   5.784   1.827   5.299  0.1232 -0.4955  0.2971
  176SLPC  H14X20026   5.753   1.753   5.223  1.6407 -2.3844  1.4403
  176SLPC  H14Y20027   5.871   1.770   5.339  1.3967  0.1950 -1.3206
  176SLPC  C31520028   5.846   1.948   5.219  0.4531 -0.4313  0.3743
  176SLPC  H15X20029   5.773   2.025   5.185  1.4525  0.7391  0.8252
  176SLPC  H15Y20030   5.899   1.911   5.129 -0.1304 -0.1713 -0.0854
  176SLPC  C31620031   5.948   2.013   5.306  0.2257  0.1491 -0.3563
  176SLPC  H16X20032   6.030   1.942   5.328  2.5543  2.1163 -2.1372
  176SLPC  H16Y20033   5.887   2.032   5.397 -0.6977 -1.8995 -0.4983
  176SLPC  C31720034   6.000   2.140   5.244 -0.8518 -0.8906  0.3128
  176SLPC  H17X20035   5.919   2.216   5.248  1.7367  2.0392  0.8916
  176SLPC  H17Y20036   6.026   2.126   5.137  3.3036 -1.3081  1.2114
  176SLPC  C31820037   6.115   2.201   5.311  0.2534  0.5020 -0.2206
  176SLPC  H18X20038   6.127   2.301   5.263  0.1664  0.2031 -0.8676
  176SLPC  H18Y20039   6.201   2.131   5.302 -2.3198 -2.6724 -2.3393
  176SLPC  H18Z20040   6.092   2.207   5.419  0.6254  1.2298 -0.1744
  177SLPC     N20041   0.417   4.042   7.339 -0.5685  0.5125 -0.4661
  177SLPC   C1320042   0.498   3.990   7.221  0.2835 -0.3249 -0.3314
  177SLPC  H13A20043   0.430   3.991   7.137 -1.8340  1.5485  1.2805
  177SLPC  H13B20044   0.581   4.053   7.191 -0.0773 -1.0725 -3.2319
  177SLPC  H13C20045   0.539   3.891   7.231 -2.1595 -1.3506  0.0500
  177SLPC   C1420046   0.481   4.017   7.473  0.0275  0.0070 -0.3221
  177SLPC  H14A20047   0.408   4.044   7.548 -1.0676 -1.6755 -0.7246
  177SLPC  H14B20048   0.490   3.916   7.510 -1.3024  0.7180  2.1656
  177SLPC  H14C20049   0.576   4.067   7.487  0.4429 -0.5145 -1.1998
  177SLPC   C1520050   0.282   3.974   7.352  0.1705 -0.0105  0.7444
  177SLPC  H15A20051   0.299   3.868   7.364  1.1604  0.1905  1.1933
  177SLPC  H15B20052   0.234   4.002   7.445 -2.7780 -0.2294 -0.5826
  177SLPC  H15C20053   0.218   3.999   7.269 -0.3691  1.9163  1.6756
  177SLPC   C1220054   0.396   4.193   7.317 -0.0671  0.8615  0.6808
  177SLPC  H12A20055   0.495   4.233   7.299 -0.1224  0.7540  0.1080
  177SLPC  H12B20056   0.357   4.235   7.408 -2.8323 -1.9828  0.9827
  177SLPC   C1120057   0.301   4.233   7.199 -0.4510 -0.5191  0.2452
  177SLPC  H11A20058   0.335   4.165   7.119 -2.3493 -2.2175  0.8115
  177SLPC  H11B20059   0.321   4.335   7.160  0.8282 -0.9531 -0.3091
  177SLPC     P20060   0.075   4.276   7.309 -0.0958  0.2846  0.1638
  177SLPC   O1320061  -0.062   4.222   7.312 -0.0020 -0.1412  0.1836
  177SLPC   O1420062   0.147   4.283   7.439  0.5430 -0.0192 -0.0535
  177SLPC   O1220063   0.163   4.195   7.206  0.0137 -0.3614 -0.7423
  177SLPC   O1120064   0.075   4.418   7.246  0.3455 -0.4400  0.2966
  177SLPC    C120065  -0.001   4.437   7.126  0.3746 -0.0183 -0.1312
  177SLPC    HA20066   0.042   4.523   7.070 -1.4105  0.5379 -0.6893
  177SLPC    HB20067   0.001   4.350   7.057 -0.0656  0.8601 -1.2710
  177SLPC    C220068  -0.154   4.474   7.146  0.3636 -0.0993  0.1749
  177SLPC    HS20069  -0.209   4.384   7.184  0.7250 -0.9320 -1.2027
  177SLPC   O2120070  -0.203   4.510   7.013  0.3901 -0.3812 -0.0489
  177SLPC   C2120071  -0.247   4.415   6.936 -0.2684  0.3304  0.1131
  177SLPC   O2220072  -0.281   4.302   6.972 -0.0683  0.2854 -0.5441
  177SLPC   C2220073  -0.248   4.476   6.793  0.1429 -0.1617  0.7367
  177SLPC   H2R20074  -0.304   4.572   6.801 -0.9961 -0.6364 -1.0097
  177SLPC   H2S20075  -0.144   4.499   6.763  0.5171 -0.9374  1.4134
  177SLPC    C320076  -0.188   4.580   7.240  0.3020 -0.4740  0.0427
  177SLPC    HX20077  -0.155   4.680   7.204 -0.6936  0.1812  0.8847
  177SLPC    HY20078  -0.133   4.559   7.334  0.2747  0.0902  0.1881
  177SLPC   O3120079  -0.323   4.578   7.269  0.0305  0.1434  0.5315
  177SLPC   C3120080  -0.400   4.657   7.203 -0.4604 -0.1700 -0.1505
  177SLPC   O3220081  -0.361   4.737   7.119  0.3502 -0.3011  0.1905
  177SLPC   C3220082  -0.543   4.624   7.235 -0.2865 -0.0417 -0.7358
  177SLPC   H2X20083  -0.562   4.678   7.330 -4.4308 -1.5252 -0.4931
  177SLPC   H2Y20084  -0.558   4.515   7.249 -2.6624  0.4752  1.4962
  177SLPC   C2320085  -0.326   4.392   6.682  0.0978 -0.3805  0.1067
  177SLPC   H3R20086  -0.424   4.368   6.728 -1.6377  2.2787 -1.9529
  177SLPC   H3S20087  -0.274   4.298   6.653  0.5134  0.0072 -0.4233
  177SLPC   C2420088  -0.366   4.477   6.563 -0.7980  0.1853  0.4231
  177SLPC   H4R20089  -0.277   4.521   6.513 -2.4166  1.4441 -1.4907
  177SLPC   H4S20090  -0.427   4.564   6.595  1.7812  1.7165  1.5324
  177SLPC   C2520091  -0.447   4.389   6.471  0.2803  0.2336  0.3909
  177SLPC   H5R20092  -0.551   4.370   6.505 -0.5882  1.1331 -1.5686
  177SLPC   H5S20093  -0.402   4.288   6.458  0.8439  0.4712  0.4740
  177SLPC   C2620094  -0.446   4.430   6.320 -0.1583 -0.0539  0.0058
  177SLPC   H6R20095  -0.475   4.345   6.256 -0.1170  0.2681 -0.4442
  177SLPC   H6S20096  -0.337   4.449   6.304  0.3063 -2.9930 -0.8638
  177SLPC   C2720097  -0.517   4.562   6.284 -0.3071 -0.3353  0.1637
  177SLPC   H7R20098  -0.522   4.613   6.382  2.4035 -2.2392  1.4027
  177SLPC   H7S20099  -0.618   4.537   6.245 -0.1136 -1.3036  0.2696
  177SLPC   C2820100  -0.432   4.644   6.185  0.5051  0.0709 -0.0136
  177SLPC   H8R20101  -0.402   4.562   6.116  3.6868  1.2572 -0.1872
  177SLPC   H8S20102  -0.342   4.685   6.235  2.7662 -1.0875 -2.8513
  177SLPC   C2920103  -0.491   4.766   6.112 -0.6679 -0.7403  0.3575
  177SLPC   H9R20104  -0.517   4.852   6.177 -2.1927 -1.0135  0.1252
  177SLPC  C21020105  -0.497   4.783   5.982  0.1473  0.8465  0.1382
  177SLPC  H10R20106  -0.540   4.877   5.944  1.7779  2.0491  1.0860
  177SLPC  C21120107  -0.469   4.674   5.874 -0.4165 -0.4453  0.3311
  177SLPC  H11R20108  -0.458   4.573   5.917  2.0442 -0.1569  0.4815
  177SLPC  H11S20109  -0.379   4.709   5.820  0.2139  0.8852  2.1488
  177SLPC  C21220110  -0.581   4.671   5.773  0.1033 -0.0279  0.2937
  177SLPC  H12R20111  -0.681   4.661   5.818  0.2333  1.4569  0.9955
  177SLPC  C21320112  -0.575   4.674   5.641  0.9336  0.3522 -0.3764
  177SLPC  H13R20113  -0.673   4.690   5.592 -0.1246 -1.7316  0.9043
  177SLPC  C21420114  -0.454   4.681   5.551 -0.8617  0.2723 -0.0225
  177SLPC  H14R20115  -0.368   4.617   5.581 -1.3568 -0.8043 -0.8282
  177SLPC  H14S20116  -0.410   4.783   5.548  1.0868 -0.5336 -2.5068
  177SLPC  C21520117  -0.503   4.643   5.413  0.1861 -0.3034  0.8883
  177SLPC  H15R20118  -0.551   4.544   5.395 -0.7107 -0.1871  2.4138
  177SLPC  H15S20119  -0.404   4.635   5.362  0.2679  0.9240  0.8378
  177SLPC  C21620120  -0.578   4.762   5.344 -0.0108  0.0172 -0.5713
  177SLPC  H16R20121  -0.510   4.849   5.341 -0.7816  0.6657  0.1814
  177SLPC  H16S20122  -0.668   4.791   5.403 -0.9397 -3.3582 -0.1008
  177SLPC  C21720123  -0.629   4.720   5.206  0.5368 -0.2336  0.5824
  177SLPC  H17R20124  -0.714   4.650   5.221  2.0510 -1.7803  2.4600
  177SLPC  H17S20125  -0.551   4.667   5.148 -1.0313 -1.9219 -0.1052
  177SLPC  C21820126  -0.685   4.839   5.119 -0.4045 -0.0829 -0.5870
  177SLPC  H18R20127  -0.615   4.922   5.095 -0.1002 -0.3312 -0.5663
  177SLPC  H18S20128  -0.777   4.879   5.167  0.2060  1.5273 -0.6854
  177SLPC  H18T20129  -0.734   4.809   5.024 -2.9610  1.7210  0.0375
  177SLPC   C3320130  -0.653   4.663   7.132 -0.0413 -0.9251 -0.4094
  177SLPC   H3X20131  -0.631   4.763   7.091 -0.3842 -0.9700 -0.7124
  177SLPC   H3Y20132  -0.750   4.682   7.183  1.8456  0.6626  2.8591
  177SLPC   C3420133  -0.680   4.556   7.028  0.2368 -0.2650 -0.0179
  177SLPC   H4X20134  -0.717   4.462   7.073 -0.2013 -0.1492 -0.1286
  177SLPC   H4Y20135  -0.582   4.549   6.977  0.9099  3.4639  0.4366
  177SLPC   C3520136  -0.793   4.592   6.928  0.0002  0.1496  0.1844
  177SLPC   H5X20137  -0.769   4.693   6.888  0.3953 -0.4852 -1.2305
  177SLPC   H5Y20138  -0.890   4.604   6.980 -1.0756 -0.3696 -1.6014
  177SLPC   C3620139  -0.811   4.491   6.816 -0.6582  0.2181 -0.6663
  177SLPC   H6X20140  -0.860   4.405   6.866  0.0882  0.2484  0.1289
  177SLPC   H6Y20141  -0.712   4.454   6.782 -1.7824 -0.3672 -3.6592
  177SLPC   C3720142  -0.892   4.542   6.706 -0.5507  0.4729  0.0326
  177SLPC   H7X20143  -0.863   4.646   6.680  0.8584  0.5807  1.7902
  177SLPC   H7Y20144  -0.998   4.534   6.738 -0.3459  0.1557  0.6591
  177SLPC   C3820145  -0.886   4.447   6.583 -0.7351 -0.0387 -0.0983
  177SLPC   H8X20146  -0.912   4.342   6.609  1.6625 -0.4155  1.0292
  177SLPC   H8Y20147  -0.780   4.443   6.551 -0.7521  0.4163 -0.2145
  177SLPC   C3920148  -0.971   4.500   6.466 -0.1162 -0.4305 -0.0463
  177SLPC   H9X20149  -0.937   4.605   6.452  1.1983 -0.8685 -0.2587
  177SLPC   H9Y20150  -1.079   4.503   6.493 -0.3102  0.2966 -0.8701
  177SLPC  C31020151  -0.937   4.409   6.345  0.1216 -0.2255  0.7523
  177SLPC  H10X20152  -0.968   4.305   6.369 -0.9084  0.2039  1.3466
  177SLPC  H10Y20153  -0.828   4.414   6.325 -0.0775  1.8203 -0.0496
  177SLPC  C31120154  -1.026   4.447   6.229 -0.0428  0.3551  0.1980
  177SLPC  H11X20155  -1.040   4.557   6.228 -0.3491  0.3378 -1.7295
  177SLPC  H11Y20156  -1.131   4.416   6.249  0.4898 -0.6312  1.6280
  177SLPC  C31220157  -0.974   4.402   6.089 -0.2183  0.4523  0.1666
  177SLPC  H12X20158  -0.980   4.292   6.081 -0.4568  0.4854 -0.1095
  177SLPC  H12Y20159  -0.864   4.417   6.079  0.0216 -2.1592 -2.2679
  177SLPC  C31320160  -1.043   4.477   5.974  0.1818  0.3588  0.1624
  177SLPC  H13X20161  -1.010   4.583   5.973  0.6405  0.2346  1.2767
  177SLPC  H13Y20162  -1.153   4.473   5.993  0.4883  0.4653  2.1058
  177SLPC  C31420163  -0.992   4.407   5.847 -0.3097  0.4022 -0.3853
  177SLPC  H14X20164  -1.046   4.312   5.829 -0.8962  0.5571  0.4959
  177SLPC  H14Y20165  -0.887   4.375   5.863 -0.3231  0.9346  0.8849
  177SLPC  C31520166  -0.999   4.505   5.731  0.6312  0.1598  0.8929
  177SLPC  H15X20167  -0.953   4.597   5.774  2.2514 -0.5499  0.7272
  177SLPC  H15Y20168  -1.107   4.522   5.710  0.7538 -0.7334 -0.6398
  177SLPC  C31620169  -0.912   4.450   5.615  0.4089 -0.7202  0.1431
  177SLPC  H16X20170  -0.961   4.351   5.601 -2.6570  0.3259  2.3540
  177SLPC  H16Y20171  -0.804   4.433   5.638  0.6923 -1.9940 -1.8872
  177SLPC  C31720172  -0.929   4.520   5.477 -0.0735  0.1253  0.3268
  177SLPC  H17X20173  -0.868   4.613   5.481 -1.1018  0.9788 -1.8633
  177SLPC  H17Y20174  -1.036   4.540   5.456  0.1270  0.9257  0.0430
  177SLPC  C31820175  -0.867   4.432   5.371 -0.6103 -0.3015  0.2196
  177SLPC  H18X20176  -0.879   4.474   5.269 -2.2300  0.1360  0.5596
  177SLPC  H18Y20177  -0.913   4.331   5.381  1.2795 -1.4953 -2.0027
  177SLPC  H18Z20178  -0.758   4.418   5.390 -0.7937 -2.0857  0.1316
  178SLPC     N20179   2.747   3.874   7.035  0.4279 -0.0484 -0.1865
  178SLPC   C1320180   2.695   3.740   6.991  0.2697 -0.8927  0.4517
  178SLPC  H13A20181   2.644   3.685   7.068 -0.3125 -0.0191  0.7154
  178SLPC  H13B20182   2.635   3.754   6.902 -1.3725  0.6811  1.7302
  178SLPC  H13C20183   2.780   3.679   6.966  1.8120  1.6139 -0.9205
  178SLPC   C1420184   2.837   3.837   7.156  0.5659 -0.6056  0.6704
  178SLPC  H14A20185   2.904   3.755   7.133  2.8394  1.4247 -0.4668
  178SLPC  H14B20186   2.906   3.919   7.178 -1.7113  1.7374 -0.4332
  178SLPC  H14C20187   2.781   3.815   7.246 -0.7339 -1.0875 -0.2393
  178SLPC   C1520188   2.645   3.968   7.085 -0.1744  0.4637  0.4111
  178SLPC  H15A20189   2.574   3.991   7.006 -2.1196  0.0052  1.9400
  178SLPC  H15B20190   2.592   3.937   7.174  0.3660  0.9883  0.9206
  178SLPC  H15C20191   2.698   4.057   7.113  1.0724 -0.1299 -0.0174
  178SLPC   C1220192   2.817   3.938   6.916  0.1185  0.7423 -0.0009
  178SLPC  H12A20193   2.854   4.036   6.942  1.7454 -0.1503  1.1980
  178SLPC  H12B20194   2.742   3.951   6.839  1.7269  1.7623 -1.4762
  178SLPC   C1120195   2.924   3.854   6.858 -0.7641  0.5033 -0.2279
  178SLPC  H11A20196   3.008   3.833   6.928  0.5186  1.1113 -1.5191
  178SLPC  H11B20197   2.974   3.917   6.781  0.7404 -1.8180 -1.3019
  178SLPC     P20198   2.937   3.599   6.786 -0.0996 -0.3270  0.2053
  178SLPC   O1320199   2.924   3.560   6.926 -0.4431  0.3709  0.4540
  178SLPC   O1420200   2.854   3.518   6.695 -0.2435 -0.3182 -0.2681
  178SLPC   O1220201   2.874   3.743   6.783  0.1486  0.9654 -0.5307
  178SLPC   O1120202   3.090   3.613   6.745 -0.1318  0.0720  0.0828
  178SLPC    C120203   3.134   3.690   6.632 -0.3735 -0.1464 -0.1571
  178SLPC    HA20204   3.051   3.748   6.586 -0.7694  0.7097  1.5775
  178SLPC    HB20205   3.199   3.764   6.682 -1.0643  1.0503 -0.9610
  178SLPC    C220206   3.220   3.606   6.538  0.4809 -0.3233  0.3846
  178SLPC    HS20207   3.277   3.665   6.463 -0.3443  0.7540  0.5696
  178SLPC   O2120208   3.130   3.518   6.467 -0.1629  0.0187  0.0600
  178SLPC   C2120209   3.041   3.575   6.382  0.0635 -0.0640 -0.7817
  178SLPC   O2220210   3.048   3.681   6.322  0.6979 -0.0507 -0.0089
  178SLPC   C2220211   2.935   3.469   6.348 -0.7836 -0.0397 -0.4210
  178SLPC   H2R20212   2.985   3.394   6.283 -0.6375 -0.8326  0.5741
  178SLPC   H2S20213   2.917   3.412   6.442  0.6573  1.1863  0.6492
  178SLPC    C320214   3.317   3.514   6.619  0.0352 -0.3008 -0.2245
  178SLPC    HX20215   3.244   3.463   6.686 -1.7501  0.4314 -1.5162
  178SLPC    HY20216   3.384   3.569   6.688  1.7796 -1.0281 -1.2892
  178SLPC   O3120217   3.400   3.426   6.538  0.1970 -0.7512 -0.7290
  178SLPC   C3120218   3.409   3.299   6.571 -0.0132  0.3796 -0.5726
  178SLPC   O3220219   3.359   3.242   6.667 -0.6890 -0.0516  0.1169
  178SLPC   C3220220   3.490   3.222   6.458  0.1466 -0.5388  0.4141
  178SLPC   H2X20221   3.499   3.284   6.365  1.4942  0.8108  1.3999
  178SLPC   H2Y20222   3.431   3.135   6.424  1.1692 -0.6588 -1.1562
  178SLPC   C2320223   2.807   3.525   6.278 -0.4102 -0.0951  1.0393
  178SLPC   H3R20224   2.798   3.636   6.273 -0.1896 -0.1443 -1.3601
  178SLPC   H3S20225   2.730   3.484   6.346 -0.7719  0.5557  1.0369
  178SLPC   C2420226   2.792   3.472   6.134  0.4730  0.1260 -0.1747
  178SLPC   H4R20227   2.818   3.364   6.134 -0.3140 -0.1112  1.7753
  178SLPC   H4S20228   2.861   3.530   6.068 -0.4136  0.4651 -0.8149
  178SLPC   C2520229   2.650   3.506   6.078  0.0064 -0.4403 -0.1546
  178SLPC   H5R20230   2.648   3.616   6.063 -0.1223 -0.3281  0.6143
  178SLPC   H5S20231   2.575   3.497   6.160 -1.1573 -0.1443 -1.1552
  178SLPC   C2620232   2.593   3.430   5.964 -0.2145 -0.1568  0.1284
  178SLPC   H6R20233   2.602   3.322   5.988 -1.1746 -0.2657  0.0344
  178SLPC   H6S20234   2.654   3.454   5.875 -2.4594 -1.4482 -1.8647
  178SLPC   C2720235   2.444   3.462   5.938  0.9198 -0.4871  0.4592
  178SLPC   H7R20236   2.384   3.437   6.028 -0.6285 -0.5039 -0.5496
  178SLPC   H7S20237   2.421   3.392   5.855 -1.5923 -0.0368  0.7026
  178SLPC   C2820238   2.408   3.606   5.892  0.3784  0.4433 -0.9730
  178SLPC   H8R20239   2.407   3.669   5.983 -0.8163 -0.9131 -0.0010
  178SLPC   H8S20240   2.304   3.598   5.854  0.5238 -0.6929 -1.1730
  178SLPC   C2920241   2.503   3.660   5.791  0.1394 -0.1307  0.1042
  178SLPC   H9R20242   2.597   3.704   5.828  1.6921 -0.9309 -2.6198
  178SLPC  C21020243   2.500   3.635   5.655 -0.1084  0.8487  0.3014
  178SLPC  H10R20244   2.573   3.681   5.588 -0.1630  1.4813  0.6669
  178SLPC  C21120245   2.388   3.572   5.577 -0.1562  0.1753  0.0731
  178SLPC  H11R20246   2.303   3.562   5.648 -1.3644 -0.0389 -1.3399
  178SLPC  H11S20247   2.410   3.466   5.551 -3.1464 -0.6577  0.5669
  178SLPC  C21220248   2.338   3.665   5.468 -1.1696  0.0017  0.6323
  178SLPC  H12R20249   2.372   3.769   5.470 -0.2763 -0.2779  0.2620
  178SLPC  C21320250   2.279   3.626   5.350 -0.2434  0.6159 -0.0368
  178SLPC  H13R20251   2.227   3.708   5.298 -0.4891  1.4386  1.4507
  178SLPC  C21420252   2.254   3.487   5.299  0.1859  0.6244  0.1967
  178SLPC  H14R20253   2.145   3.476   5.280  0.4455 -1.8531 -0.2519
  178SLPC  H14S20254   2.280   3.426   5.389  1.9409 -1.1657 -1.4394
  178SLPC  C21520255   2.338   3.424   5.187 -0.0744 -1.0110 -0.2190
  178SLPC  H15R20256   2.291   3.329   5.153  0.2614 -0.1614 -3.2881
  178SLPC  H15S20257   2.441   3.415   5.226 -0.3552 -2.4868  0.2780
  178SLPC  C21620258   2.340   3.501   5.047 -0.0000 -0.5071 -0.3403
  178SLPC  H16R20259   2.341   3.609   5.071 -1.6407 -0.8280  1.4398
  178SLPC  H16S20260   2.239   3.495   5.000 -1.4225  1.7891  2.1357
  178SLPC  C21720261   2.466   3.479   4.964 -0.5075  0.5498  0.8226
  178SLPC  H17R20262   2.562   3.497   5.017  0.2017 -0.8852  0.0799
  178SLPC  H17S20263   2.466   3.553   4.881  0.0978 -0.0175  0.3010
  178SLPC  C21820264   2.483   3.327   4.926  0.8466 -1.0118  0.1289
  178SLPC  H18R20265   2.533   3.268   5.005  0.0596  0.5124  1.8281
  178SLPC  H18S20266   2.539   3.324   4.830 -0.8068  1.2605 -1.0190
  178SLPC  H18T20267   2.384   3.280   4.907  0.5820 -0.0276 -1.1043
  178SLPC   C3320268   3.627   3.181   6.509 -0.2659  0.3833  0.8030
  178SLPC   H3X20269   3.613   3.083   6.561 -0.8710  0.1575  0.2269
  178SLPC   H3Y20270   3.660   3.268   6.569  0.7570  2.1427 -2.1349
  178SLPC   C3420271   3.742   3.164   6.404 -0.3514  0.1444 -0.2234
  178SLPC   H4X20272   3.827   3.125   6.464 -0.3062  3.0374  1.7525
  178SLPC   H4Y20273   3.786   3.262   6.376  0.2735  0.0625  0.4337
  178SLPC   C3520274   3.703   3.070   6.286  0.1270  0.6486 -0.5714
  178SLPC   H5X20275   3.604   3.100   6.244 -1.0912 -0.2759  1.5138
  178SLPC   H5Y20276   3.680   2.970   6.328  1.0206  0.3193 -0.8422
  178SLPC   C3620277   3.811   3.049   6.180  0.0726 -0.4527  0.0134
  178SLPC   H6X20278   3.809   2.950   6.131 -1.0618 -1.1953  1.4780
  178SLPC   H6Y20279   3.911   3.042   6.227  0.4756  2.0843 -0.3347
  178SLPC   C3720280   3.819   3.158   6.072 -0.3185  0.2976 -0.4667
  178SLPC   H7X20281   3.920   3.167   6.028 -0.7363  0.1833 -1.4631
  178SLPC   H7Y20282   3.794   3.254   6.123  1.0633  0.3967  0.0649
  178SLPC   C3820283   3.729   3.129   5.950 -0.9178  0.4192 -0.8458
  178SLPC   H8X20284   3.621   3.127   5.974 -0.9117  0.6744 -0.7927
  178SLPC   H8Y20285   3.747   3.024   5.918 -0.8001 -0.0501  0.7093
  178SLPC   C3920286   3.749   3.243   5.842  0.0351 -0.3913 -0.2597
  178SLPC   H9X20287   3.858   3.260   5.834  0.2090 -0.7843  1.0249
  178SLPC   H9Y20288   3.704   3.339   5.878  1.3853 -0.2834  1.2609
  178SLPC  C31020289   3.679   3.214   5.714 -0.1932  0.0003  0.2450
  178SLPC  H10X20290   3.684   3.303   5.649  2.0411  0.2256  0.6619
  178SLPC  H10Y20291   3.570   3.194   5.727  0.1789 -1.8216  0.8076
  178SLPC  C31120292   3.721   3.087   5.632  0.3922  0.0960  0.3872
  178SLPC  H11X20293   3.642   3.069   5.555  0.0547  1.2763  0.4328
  178SLPC  H11Y20294   3.723   2.999   5.699 -2.1974  0.0048  0.4627
  178SLPC  C31220295   3.861   3.091   5.567  0.8763 -0.2833 -0.8085
  178SLPC  H12X20296   3.925   3.128   5.650 -0.5201  1.8354 -0.5902
  178SLPC  H12Y20297   3.861   3.168   5.487  2.3490  0.3491 -0.2485
  178SLPC  C31320298   3.902   2.958   5.507  0.0647  0.6209 -0.0297
  178SLPC  H13X20299   3.929   2.887   5.588  1.2990 -1.3495 -2.0374
  178SLPC  H13Y20300   3.990   2.973   5.441  0.0601  1.2565  0.1074
  178SLPC  C31420301   3.794   2.894   5.416  0.2614  0.2725  0.0808
  178SLPC  H14X20302   3.776   2.952   5.323 -0.9811  1.0117  0.7702
  178SLPC  H14Y20303   3.692   2.892   5.460 -1.4488  0.9481 -3.5108
  178SLPC  C31520304   3.845   2.752   5.390  0.4331 -0.0683  0.2868
  178SLPC  H15X20305   3.955   2.747   5.378  0.3789 -0.9982  0.0517
  178SLPC  H15Y20306   3.797   2.725   5.293 -0.3560  1.7138  0.1497
  178SLPC  C31620307   3.787   2.660   5.496  0.6331 -0.0294 -0.9844
  178SLPC  H16X20308   3.677   2.670   5.485  0.7123  0.3293 -1.4769
  178SLPC  H16Y20309   3.807   2.686   5.603 -0.8393 -0.3680 -0.5997
  178SLPC  C31720310   3.831   2.510   5.475  0.2134 -0.2278  0.2009
  178SLPC  H17X20311   3.793   2.476   5.377  0.4351  0.4229 -0.1169
  178SLPC  H17Y20312   3.756   2.459   5.539 -1.5410 -1.1981 -2.4588
  178SLPC  C31820313   3.973   2.467   5.518  0.0188  0.5666  0.0943
  178SLPC  H18X20314   3.983   2.357   5.517 -0.0608  0.5586 -0.8028
  178SLPC  H18Y20315   3.994   2.508   5.619 -0.3307  0.6982  0.1143
  178SLPC  H18Z20316   4.045   2.511   5.445  1.2211 -1.5763 -0.0782
  179SLPC     N20317   2.703   5.466   2.531 -1.2511  0.1520 -0.1946
  179SLPC   C1320318   2.686   5.314   2.512 -0.0030 -0.2070  0.3995
  179SLPC  H13A20319   2.752   5.253   2.572 -1.2840 -1.2042  0.8382
  179SLPC  H13B20320   2.584   5.288   2.534 -0.5286  0.9985 -0.5016
  179SLPC  H13C20321   2.707   5.288   2.409 -2.3150 -2.1568  0.3390
  179SLPC   C1420322   2.598   5.539   2.462  0.1437  0.2615  0.1499
  179SLPC  H14A20323   2.507   5.527   2.518 -0.3002 -0.6735 -0.7384
  179SLPC  H14B20324   2.617   5.645   2.464 -1.4641  0.5600  1.9341
  179SLPC  H14C20325   2.579   5.501   2.363 -1.8180 -0.6386  0.8383
  179SLPC   C1520326   2.844   5.506   2.482 -0.0143  0.6057  0.1655
  179SLPC  H15A20327   2.862   5.612   2.494  2.5959  0.3212 -0.6883
  179SLPC  H15B20328   2.920   5.455   2.538 -2.4480 -1.3609  1.9056
  179SLPC  H15C20329   2.867   5.477   2.380  2.5873  1.9450  0.3033
  179SLPC   C1220330   2.695   5.500   2.676  0.7477 -0.0547  0.4849
  179SLPC  H12A20331   2.677   5.607   2.678 -0.2379 -0.0948 -2.1603
  179SLPC  H12B20332   2.787   5.468   2.723  0.8303 -1.7614 -0.7647
  179SLPC   C1120333   2.580   5.444   2.768  0.3766  0.2601  0.6803
  179SLPC  H11A20334   2.582   5.490   2.869  1.1879 -0.2448  0.9034
  179SLPC  H11B20335   2.602   5.335   2.775 -2.7030 -0.5291 -0.1273
  179SLPC     P20336   2.357   5.580   2.721 -0.0542 -0.2583  0.3386
  179SLPC   O1320337   2.394   5.702   2.635  0.3083 -0.2046  0.0367
  179SLPC   O1420338   2.220   5.536   2.686  0.7002 -0.4500  0.2131
  179SLPC   O1220339   2.459   5.457   2.707  0.1375  0.4461  0.5476
  179SLPC   O1120340   2.360   5.623   2.871 -0.1103  0.3098  0.0016
  179SLPC    C120341   2.320   5.521   2.963 -0.8810 -0.0284  0.7962
  179SLPC    HA20342   2.216   5.491   2.940 -0.1901 -0.8561 -1.5950
  179SLPC    HB20343   2.389   5.436   2.943  0.7573  1.5780 -0.6934
  179SLPC    C220344   2.330   5.568   3.112 -0.5652  0.6571 -0.2617
  179SLPC    HS20345   2.295   5.477   3.166 -1.0703 -0.2363 -2.0245
  179SLPC   O2120346   2.264   5.692   3.152  0.3843  0.2900  0.2743
  179SLPC   C2120347   2.133   5.678   3.177  0.0171  0.0442 -0.4090
  179SLPC   O2220348   2.065   5.576   3.170  0.8150  0.5375 -0.2050
  179SLPC   C2220349   2.079   5.803   3.245 -0.3383  1.0718 -0.0999
  179SLPC   H2R20350   2.106   5.896   3.190  1.4082  0.3957 -0.4671
  179SLPC   H2S20351   1.973   5.788   3.272 -1.3852 -0.3231 -4.3311
  179SLPC    C320352   2.485   5.589   3.137 -0.4544 -0.5676 -0.0243
  179SLPC    HX20353   2.530   5.655   3.059  1.2409 -1.7658 -0.1178
  179SLPC    HY20354   2.552   5.501   3.123  2.6438  1.6789 -0.5258
  179SLPC   O3120355   2.508   5.651   3.271  0.1714 -0.1589 -0.0588
  179SLPC   C3120356   2.467   5.582   3.368 -0.2058 -0.2038  0.1576
  179SLPC   O3220357   2.399   5.481   3.371 -0.1293  0.0507 -0.3326
  179SLPC   C3220358   2.568   5.623   3.479 -0.0002 -1.0218  0.2066
  179SLPC   H2X20359   2.606   5.724   3.452 -0.7368  1.0858  5.7911
  179SLPC   H2Y20360   2.661   5.563   3.484  0.1530 -0.6867  4.1391
  179SLPC   C2320361   2.150   5.833   3.381  0.2367  0.6531  0.0991
  179SLPC   H3R20362   2.256   5.859   3.361  0.3979 -1.0038 -1.5061
  179SLPC   H3S20363   2.131   5.752   3.454  0.9500 -0.9514 -1.4281
  179SLPC   C2420364   2.103   5.966   3.438  0.3143 -0.7769 -0.5229
  179SLPC   H4R20365   1.998   5.952   3.472  0.6869 -2.5661 -0.0090
  179SLPC   H4S20366   2.109   6.047   3.363 -0.6645  1.5692  1.7580
  179SLPC   C2520367   2.184   6.008   3.562 -0.8655 -0.0775 -1.4587
  179SLPC   H5R20368   2.142   6.103   3.603  2.5127  1.2504 -0.7166
  179SLPC   H5S20369   2.292   6.028   3.543 -0.4946  2.1544  2.0581
  179SLPC   C2620370   2.196   5.910   3.678  0.1604 -0.6280  0.2217
  179SLPC   H6R20371   2.237   5.814   3.638 -2.5292 -2.1743  0.9168
  179SLPC   H6S20372   2.101   5.887   3.731  0.2905 -0.0565  0.7083
  179SLPC   C2720373   2.300   5.952   3.787 -0.7917  0.3529  0.3340
  179SLPC   H7R20374   2.399   5.971   3.739 -1.1201 -1.0319 -0.9981
  179SLPC   H7S20375   2.315   5.872   3.863 -0.1646  1.1090  1.0217
  179SLPC   C2820376   2.256   6.081   3.860  0.4401  0.1291 -0.6445
  179SLPC   H8R20377   2.236   6.169   3.795  0.2229  1.3823  1.0506
  179SLPC   H8S20378   2.335   6.105   3.934 -0.4533 -0.7129  0.6285
  179SLPC   C2920379   2.135   6.049   3.941  0.0734 -0.3363  0.7837
  179SLPC   H9R20380   2.046   6.030   3.879  1.3434 -0.5109 -1.0679
  179SLPC  C21020381   2.119   6.065   4.072  0.5016  0.2961  0.7955
  179SLPC  H10R20382   2.025   6.031   4.118  0.2890 -0.7859 -0.3931
  179SLPC  C21120383   2.222   6.097   4.174  0.4344 -0.0987 -0.0207
  179SLPC  H11R20384   2.182   6.148   4.264  0.3345  1.5018 -0.9397
  179SLPC  H11S20385   2.275   6.184   4.129  1.9165 -0.9899 -0.0745
  179SLPC  C21220386   2.318   5.983   4.205 -0.4872  0.3850 -0.2369
  179SLPC  H12R20387   2.371   5.941   4.118  0.6147  1.0764  0.0888
  179SLPC  C21320388   2.340   5.930   4.326  0.2871  0.8244  0.1722
  179SLPC  H13R20389   2.423   5.858   4.337 -0.2287 -0.3560 -2.6444
  179SLPC  C21420390   2.273   5.961   4.453 -0.0544 -0.1053 -0.3021
  179SLPC  H14R20391   2.244   5.866   4.504  1.6527 -0.5702 -0.1441
  179SLPC  H14S20392   2.184   6.023   4.430 -0.5762 -0.5278  0.4932
  179SLPC  C21520393   2.365   6.039   4.551  0.1763  0.5810 -0.0543
  179SLPC  H15R20394   2.401   6.129   4.497 -0.2658  2.1817  2.1660
  179SLPC  H15S20395   2.450   5.977   4.586  0.4557  0.2940 -1.2069
  179SLPC  C21620396   2.295   6.088   4.686 -0.1359 -0.1821  0.6611
  179SLPC  H16R20397   2.212   6.156   4.657  0.3732 -0.5047 -1.7907
  179SLPC  H16S20398   2.360   6.159   4.742 -0.2922  0.5270 -0.0271
  179SLPC  C21720399   2.253   5.968   4.759  0.2419 -0.4146 -0.0635
  179SLPC  H17R20400   2.200   5.902   4.687 -1.8430 -0.2550  1.2481
  179SLPC  H17S20401   2.182   5.986   4.842  0.0301 -1.4044 -0.0200
  179SLPC  C21820402   2.366   5.881   4.828 -1.0181 -0.0879 -0.0892
  179SLPC  H18R20403   2.422   5.934   4.908  0.4400 -0.3641 -0.9008
  179SLPC  H18S20404   2.434   5.844   4.749 -0.6592 -0.1016  0.2251
  179SLPC  H18T20405   2.317   5.789   4.867 -0.0346  0.7823  3.6809
  179SLPC   C3320406   2.512   5.639   3.625  0.1150  0.4903  0.3233
  179SLPC   H3X20407   2.452   5.546   3.638 -2.4633  1.7203 -1.8203
  179SLPC   H3Y20408   2.456   5.734   3.634  0.4485  0.6471  0.7928
  179SLPC   C3420409   2.630   5.653   3.725 -0.7396  0.3638  0.2071
  179SLPC   H4X20410   2.710   5.721   3.688  1.8315 -2.4248  0.2974
  179SLPC   H4Y20411   2.678   5.553   3.730 -0.3000  0.5641  0.1200
  179SLPC   C3520412   2.586   5.680   3.867  0.1050  0.1751  0.2148
  179SLPC   H5X20413   2.527   5.774   3.859  0.2077  0.1356 -1.1807
  179SLPC   H5Y20414   2.528   5.592   3.903  0.8446 -0.1753  0.5703
  179SLPC   C3620415   2.695   5.688   3.976  0.6729  0.6792 -0.4757
  179SLPC   H6X20416   2.747   5.785   3.958 -0.0253  1.2469  0.4636
  179SLPC   H6Y20417   2.771   5.607   3.971 -0.1317 -0.0309 -1.8288
  179SLPC   C3720418   2.639   5.694   4.119  0.3525  0.1114 -0.1734
  179SLPC   H7X20419   2.567   5.609   4.127  0.8071 -0.1763  1.1123
  179SLPC   H7Y20420   2.581   5.789   4.125  2.1608  1.2439  0.2420
  179SLPC   C3820421   2.750   5.673   4.223  0.2290 -0.6560  0.3449
  179SLPC   H8X20422   2.815   5.763   4.221 -0.0284 -0.4662  0.4128
  179SLPC   H8Y20423   2.810   5.586   4.189 -0.7052 -0.5148 -1.7937
  179SLPC   C3920424   2.708   5.654   4.370  0.3221 -0.1392 -0.5720
  179SLPC   H9X20425   2.691   5.545   4.386 -1.7911  0.4687  2.2698
  179SLPC   H9Y20426   2.608   5.702   4.374 -0.0272 -0.7150 -2.0216
  179SLPC  C31020427   2.802   5.725   4.461 -0.1048 -0.1245 -0.1803
  179SLPC  H10X20428   2.829   5.825   4.420 -0.1942  0.6836  1.6457
  179SLPC  H10Y20429   2.898   5.674   4.487 -0.0897  1.4377  3.4876
  179SLPC  C31120430   2.737   5.759   4.602 -0.5154  0.1018  0.3159
  179SLPC  H11X20431   2.719   5.660   4.648  0.4616 -0.5069 -0.5730
  179SLPC  H11Y20432   2.642   5.811   4.576 -0.0747  0.4384 -0.6737
  179SLPC  C31220433   2.829   5.865   4.678  0.7324 -0.1790  0.1870
  179SLPC  H12X20434   2.812   5.966   4.636 -0.8878 -1.5907 -2.9354
  179SLPC  H12Y20435   2.935   5.833   4.669  0.6373 -0.0147 -2.1989
  179SLPC  C31320436   2.788   5.888   4.824 -0.5174 -0.0697 -0.1393
  179SLPC  H13X20437   2.680   5.917   4.820 -0.2867  0.9784  0.7511
  179SLPC  H13Y20438   2.840   5.975   4.868 -0.6283  0.8123 -1.6944
  179SLPC  C31420439   2.811   5.770   4.919  0.3918  0.1030 -0.8357
  179SLPC  H14X20440   2.917   5.739   4.915  0.4282 -0.2609  1.7097
  179SLPC  H14Y20441   2.752   5.680   4.891  1.7419 -1.7252  1.7586
  179SLPC  C31520442   2.775   5.813   5.074 -0.0049 -0.1911  0.4225
  179SLPC  H15X20443   2.667   5.840   5.075  0.0414 -0.0102  0.4048
  179SLPC  H15Y20444   2.835   5.903   5.098  0.8105 -0.5651 -0.1630
  179SLPC  C31620445   2.803   5.706   5.173 -0.3168 -0.0370 -0.0454
  179SLPC  H16X20446   2.907   5.669   5.167 -0.6070 -1.0053  0.6689
  179SLPC  H16Y20447   2.747   5.613   5.147 -2.3489  0.9569  0.6252
  179SLPC  C31720448   2.771   5.745   5.318  0.6224 -0.3360 -0.1755
  179SLPC  H17X20449   2.670   5.787   5.334  1.2329  0.9826  0.3249
  179SLPC  H17Y20450   2.846   5.826   5.332  1.3910 -0.7716 -1.5636
  179SLPC  C31820451   2.808   5.633   5.413  0.4571 -0.4168 -0.7628
  179SLPC  H18X20452   2.738   5.550   5.391  0.8819 -0.4928 -1.8920
  179SLPC  H18Y20453   2.794   5.666   5.518 -0.5950 -1.5371 -0.5411
  179SLPC  H18Z20454   2.915   5.602   5.414  0.6125 -0.2568 -3.7471
  180SLPC     N20455   1.425   5.065   2.545  0.1540 -0.3430  0.0606
  180SLPC   C1320456   1.402   4.955   2.443  0.1794 -0.2592  0.3278
  180SLPC  H13A20457   1.397   4.857   2.487 -0.4779 -0.2148  0.3617
  180SLPC  H13B20458   1.304   4.970   2.400  0.0037 -0.8729  0.5016
  180SLPC  H13C20459   1.482   4.964   2.370 -1.8029  0.5166 -1.8833
  180SLPC   C1420460   1.441   5.202   2.472  0.4020  1.2302 -0.1019
  180SLPC  H14A20461   1.434   5.278   2.549  0.3657  2.1173 -0.9538
  180SLPC  H14B20462   1.532   5.220   2.417 -0.0443 -1.2435 -1.8359
  180SLPC  H14C20463   1.357   5.227   2.408  1.6030  1.6979 -1.5437
  180SLPC   C1520464   1.554   5.040   2.614 -0.3157 -0.1365 -0.2725
  180SLPC  H15A20465   1.642   5.075   2.563 -0.4802 -0.5121 -0.8280
  180SLPC  H15B20466   1.556   5.074   2.716 -2.4750 -2.6182  0.7196
  180SLPC  H15C20467   1.580   4.935   2.620  0.2170  0.0575  1.5738
  180SLPC   C1220468   1.302   5.072   2.641 -0.7674  0.3568  0.7233
  180SLPC  H12A20469   1.291   4.975   2.687  1.5719 -0.3766 -0.1302
  180SLPC  H12B20470   1.216   5.080   2.577  0.1938  0.0948 -0.6552
  180SLPC   C1120471   1.293   5.191   2.740  0.4549 -0.6709 -0.3526
  180SLPC  H11A20472   1.393   5.202   2.788 -0.0804  2.1222  0.2581
  180SLPC  H11B20473   1.217   5.159   2.815  1.1999 -0.5189  0.4804
  180SLPC     P20474   1.110   5.358   2.653 -0.2461  0.2360  0.1598
  180SLPC   O1320475   1.110   5.466   2.556 -0.3470  0.1499 -0.1730
  180SLPC   O1420476   1.033   5.238   2.621  0.4084 -0.3308 -0.1819
  180SLPC   O1220477   1.266   5.311   2.678  0.6017 -0.0128 -0.1413
  180SLPC   O1120478   1.074   5.417   2.796  0.3793  0.3220 -0.0174
  180SLPC    C120479   1.157   5.520   2.852  0.7114  0.5484 -0.5207
  180SLPC    HA20480   1.248   5.485   2.905  1.1068  1.6645 -0.4268
  180SLPC    HB20481   1.195   5.589   2.773 -2.9916  1.2524 -1.8750
  180SLPC    C220482   1.066   5.604   2.940 -0.1541 -0.3662 -0.3279
  180SLPC    HS20483   1.127   5.675   3.000 -1.7039  0.5628  0.1999
  180SLPC   O2120484   0.985   5.521   3.026  0.0469 -0.0957  0.3437
  180SLPC   C2120485   1.049   5.469   3.126 -0.3028  0.1133  0.2873
  180SLPC   O2220486   1.160   5.494   3.167 -0.1072  0.3826  0.3422
  180SLPC   C2220487   0.953   5.368   3.192  0.4020  0.5782  0.4344
  180SLPC   H2R20488   0.873   5.426   3.244  1.0428  0.6596  1.3554
  180SLPC   H2S20489   0.904   5.306   3.114 -0.2131  2.6226 -0.9020
  180SLPC    C320490   0.964   5.677   2.845 -0.4735  0.0354  0.5890
  180SLPC    HX20491   0.907   5.594   2.799  1.6260 -1.4790  0.5812
  180SLPC    HY20492   1.022   5.725   2.764 -2.3332 -1.7603 -1.9629
  180SLPC   O3120493   0.870   5.764   2.924  0.0583  0.0504 -0.3334
  180SLPC   C3120494   0.927   5.877   2.962  0.1598  0.3052 -0.1220
  180SLPC   O3220495   1.043   5.906   2.931  0.3710  0.2029  0.4837
  180SLPC   C3220496   0.840   5.955   3.062  0.2125 -0.2625  1.1458
  180SLPC   H2X20497   0.736   5.931   3.030  1.6819 -1.1656 -3.7928
  180SLPC   H2Y20498   0.862   6.063   3.051 -2.7319  0.3158 -0.0889
  180SLPC   C2320499   1.024   5.270   3.296 -0.3030 -0.3075 -0.1247
  180SLPC   H3R20500   1.119   5.233   3.252 -1.0665 -2.6080 -0.0132
  180SLPC   H3S20501   0.964   5.179   3.319 -0.7564  0.7176  3.2328
  180SLPC   C2420502   1.055   5.335   3.431  1.0700 -0.3323 -0.6353
  180SLPC   H4R20503   0.961   5.369   3.480  1.0584  0.6170 -1.2987
  180SLPC   H4S20504   1.113   5.427   3.409 -3.1699  2.1767 -2.6843
  180SLPC   C2520505   1.123   5.230   3.522 -0.8100  0.0369 -0.3829
  180SLPC   H5R20506   1.220   5.197   3.478 -0.2218  0.7409  0.3460
  180SLPC   H5S20507   1.061   5.140   3.540  0.3300 -0.3813  1.8648
  180SLPC   C2620508   1.170   5.302   3.653  0.4139  0.3813  0.4609
  180SLPC   H6R20509   1.076   5.347   3.693 -0.7769 -1.8183  0.3169
  180SLPC   H6S20510   1.236   5.388   3.634 -0.0670  0.8428  0.8330
  180SLPC   C2720511   1.228   5.200   3.751  0.1873 -0.7221  0.0388
  180SLPC   H7R20512   1.327   5.170   3.712  0.7877 -0.6522  1.4510
  180SLPC   H7S20513   1.160   5.113   3.767  0.4108 -0.9090 -0.0347
  180SLPC   C2820514   1.258   5.276   3.885 -0.0255 -1.1228  0.2868
  180SLPC   H8R20515   1.165   5.314   3.932  1.3783 -0.4259  2.6914
  180SLPC   H8S20516   1.320   5.361   3.851 -0.6588 -1.5304 -2.0447
  180SLPC   C2920517   1.333   5.196   3.981 -0.4888  1.0470 -0.3013
  180SLPC   H9R20518   1.340   5.087   3.973  0.1573  1.1401 -1.1551
  180SLPC  C21020519   1.407   5.242   4.083 -0.1459 -0.0704 -1.2802
  180SLPC  H10R20520   1.459   5.164   4.141 -1.0413  0.4234  0.2664
  180SLPC  C21120521   1.430   5.390   4.124  0.4068  0.5582 -0.3132
  180SLPC  H11R20522   1.425   5.456   4.035 -0.0732 -0.6552 -1.2076
  180SLPC  H11S20523   1.533   5.398   4.165 -0.1302 -1.3597  1.5974
  180SLPC  C21220524   1.344   5.458   4.221  0.0297 -0.1890 -0.0496
  180SLPC  H12R20525   1.268   5.519   4.169 -1.0143 -0.2818  1.2881
  180SLPC  C21320526   1.346   5.444   4.358 -0.7036 -0.0955 -0.0080
  180SLPC  H13R20527   1.275   5.514   4.406  1.8183  2.4294  0.3616
  180SLPC  C21420528   1.435   5.368   4.452  0.0173 -0.4672  0.6788
  180SLPC  H14R20529   1.451   5.444   4.531 -0.8620 -0.4842  0.8856
  180SLPC  H14S20530   1.532   5.343   4.404 -0.1850  3.7714 -2.5771
  180SLPC  C21520531   1.365   5.237   4.497 -0.0204  0.5216 -1.2184
  180SLPC  H15R20532   1.366   5.162   4.415  1.9263 -1.5264  0.5404
  180SLPC  H15S20533   1.260   5.266   4.519 -0.2510 -1.8991  1.3710
  180SLPC  C21620534   1.413   5.173   4.627 -0.3434 -0.0502  0.0860
  180SLPC  H16R20535   1.342   5.092   4.655 -0.7992 -0.0864 -1.1389
  180SLPC  H16S20536   1.412   5.241   4.715  3.3178  1.0907 -0.5870
  180SLPC  C21720537   1.555   5.127   4.588  0.2495 -0.4720 -0.2343
  180SLPC  H17R20538   1.618   5.218   4.574  0.0204  0.1785  2.4063
  180SLPC  H17S20539   1.553   5.050   4.508  3.0015 -0.8178 -0.0595
  180SLPC  C21820540   1.627   5.040   4.697  0.5913 -0.1250  0.0811
  180SLPC  H18R20541   1.713   4.981   4.660  0.8061 -1.4318  2.4504
  180SLPC  H18S20542   1.546   4.978   4.742  0.4398 -1.5807 -2.0666
  180SLPC  H18T20543   1.659   5.106   4.781  1.7160 -1.0891  0.4183
  180SLPC   C3320544   0.877   5.905   3.202  0.0919 -0.1766 -1.0053
  180SLPC   H3X20545   0.812   5.960   3.274 -0.9530 -2.0607 -0.4436
  180SLPC   H3Y20546   0.983   5.929   3.223  0.4058  0.1244 -2.8192
  180SLPC   C3420547   0.832   5.757   3.235 -0.9906 -0.5885  0.2173
  180SLPC   H4X20548   0.868   5.697   3.149  2.4466  0.7183  0.5859
  180SLPC   H4Y20549   0.722   5.746   3.250 -0.7843 -1.8919  0.9741
  180SLPC   C3520550   0.893   5.691   3.354 -0.5279  0.0710  0.0924
  180SLPC   H5X20551   1.003   5.673   3.345 -0.8073 -3.1459  1.7284
  180SLPC   H5Y20552   0.849   5.590   3.368  1.1318 -1.2083 -2.9034
  180SLPC   C3620553   0.860   5.757   3.491  0.3972 -0.0912 -0.4929
  180SLPC   H6X20554   0.750   5.766   3.504  0.5312  2.5963 -0.5946
  180SLPC   H6Y20555   0.889   5.864   3.478 -0.2105  0.1858  0.3207
  180SLPC   C3720556   0.926   5.685   3.613 -0.1862 -0.1605  0.1683
  180SLPC   H7X20557   0.900   5.577   3.601 -0.2290 -0.1627  0.2857
  180SLPC   H7Y20558   0.883   5.721   3.709  1.5434  0.4114  0.7644
  180SLPC   C3820559   1.082   5.705   3.631 -0.2426  0.6108  0.0636
  180SLPC   H8X20560   1.135   5.750   3.545 -1.4758  1.5445 -0.2461
  180SLPC   H8Y20561   1.119   5.603   3.654  0.0697  0.9164  0.9476
  180SLPC   C3920562   1.116   5.800   3.754 -0.1939  0.3718  0.4922
  180SLPC   H9X20563   1.049   5.889   3.756  3.2740  3.3827 -2.4915
  180SLPC   H9Y20564   1.222   5.830   3.742 -0.1408  0.2378  0.6299
  180SLPC  C31020565   1.113   5.722   3.885 -0.7801 -0.0349  0.6120
  180SLPC  H10X20566   1.182   5.636   3.874 -0.6836 -0.1794  2.1959
  180SLPC  H10Y20567   1.008   5.686   3.892 -0.5846 -0.6196  0.5708
  180SLPC  C31120568   1.154   5.809   4.004  0.0445 -0.1230  0.2757
  180SLPC  H11X20569   1.123   5.751   4.094 -0.8876  1.7822  1.2533
  180SLPC  H11Y20570   1.108   5.910   4.015  0.6730  0.0244  1.9544
  180SLPC  C31220571   1.305   5.827   4.020  0.5552  0.0933 -0.1216
  180SLPC  H12X20572   1.350   5.884   3.937 -0.7157 -0.1169 -0.9919
  180SLPC  H12Y20573   1.353   5.727   4.014 -0.0991 -0.1531 -1.7534
  180SLPC  C31320574   1.337   5.906   4.150 -1.0102  1.0968  0.3779
  180SLPC  H13X20575   1.270   5.992   4.171 -1.2537  0.5166  2.1765
  180SLPC  H13Y20576   1.440   5.944   4.130  0.0955 -2.3031 -1.2388
  180SLPC  C31420577   1.339   5.821   4.276 -0.4288  0.3818  0.0827
  180SLPC  H14X20578   1.428   5.754   4.274 -0.6174 -0.1082  3.2222
  180SLPC  H14Y20579   1.255   5.749   4.282  1.2600 -1.5377  3.3987
  180SLPC  C31520580   1.327   5.912   4.400 -0.8856 -0.3515  0.1861
  180SLPC  H15X20581   1.221   5.919   4.432 -0.5412 -1.2376  1.6201
  180SLPC  H15Y20582   1.365   6.015   4.381  0.1798 -0.2699  2.4463
  180SLPC  C31620583   1.415   5.847   4.510 -0.0729 -0.1752  0.0609
  180SLPC  H16X20584   1.517   5.846   4.467  0.0900  1.3446  0.3494
  180SLPC  H16Y20585   1.377   5.744   4.519 -2.2981  0.4653 -1.2260
  180SLPC  C31720586   1.412   5.906   4.653  0.2234  0.0248 -0.1211
  180SLPC  H17X20587   1.476   5.844   4.718 -1.5637 -1.5438  0.2223
  180SLPC  H17Y20588   1.310   5.900   4.696  0.6776  1.3744  1.2303
  180SLPC  C31820589   1.435   6.056   4.660  0.3548  0.3303  0.1583
  180SLPC  H18X20590   1.383   6.115   4.581 -1.8180 -1.7630 -0.0817
  180SLPC  H18Y20591   1.543   6.079   4.648  0.6667 -1.5394 -1.0276
  180SLPC  H18Z20592   1.400   6.105   4.754  1.9878 -0.6160  1.3039
  181SLPC     N20593   6.832   5.939   2.353  0.3853  0.4255  0.2879
  181SLPC   C1320594   6.692   5.945   2.302  0.3609 -0.6583  0.4657
  181SLPC  H13A20595   6.666   6.047   2.280 -0.3663 -1.1142 -0.9065
  181SLPC  H13B20596   6.700   5.899   2.204  0.1644  2.1222 -0.9630
  181SLPC  H13C20597   6.624   5.911   2.378  0.0558 -2.5053 -0.5546
  181SLPC   C1420598   6.837   6.023   2.474 -0.0468 -0.1873  0.1683
  181SLPC  H14A20599   6.824   6.127   2.448 -0.0201  0.2846  1.9257
  181SLPC  H14B20600   6.756   5.994   2.540  0.0916 -0.9323  0.0239
  181SLPC  H14C20601   6.927   6.014   2.533 -0.3288 -2.8246  0.3239
  181SLPC   C1520602   6.914   5.992   2.247  0.0936 -0.4336  0.5465
  181SLPC  H15A20603   6.905   6.099   2.249 -0.4971 -0.4808  1.9394
  181SLPC  H15B20604   7.019   5.971   2.261 -0.1622 -2.9053 -0.6326
  181SLPC  H15C20605   6.903   5.944   2.151  0.8766  1.3814 -0.4875
  181SLPC   C1220606   6.859   5.791   2.387 -0.4387 -0.2313  0.1270
  181SLPC  H12A20607   6.813   5.725   2.314  3.4624  1.4930 -4.4444
  181SLPC  H12B20608   6.802   5.764   2.474 -0.4664  0.3820  0.3012
  181SLPC   C1120609   7.003   5.739   2.392 -0.1719  0.4223  0.1728
  181SLPC  H11A20610   7.044   5.751   2.289  0.2287 -1.2787  0.1013
  181SLPC  H11B20611   7.008   5.631   2.418  0.3846  0.6686  1.1278
  181SLPC     P20612   7.086   5.768   2.625 -0.2479  0.3608 -0.0393
  181SLPC   O1320613   7.078   5.624   2.647  0.1764 -0.1558  0.6719
  181SLPC   O1420614   7.213   5.826   2.679  0.4392  0.3544  0.4383
  181SLPC   O1220615   7.073   5.821   2.481 -0.3749 -0.3397 -0.3048
  181SLPC   O1120616   6.971   5.846   2.699 -0.5170  0.4408 -0.2028
  181SLPC    C120617   6.851   5.786   2.739 -0.7123  0.1479  0.1349
  181SLPC    HA20618   6.766   5.836   2.688 -2.7520 -3.7081 -0.6597
  181SLPC    HB20619   6.852   5.679   2.708  0.5345 -0.7009  2.7885
  181SLPC    C220620   6.835   5.797   2.892  0.4198  0.0470 -0.4612
  181SLPC    HS20621   6.832   5.905   2.917 -0.7610 -0.2827  1.0001
  181SLPC   O2120622   6.937   5.723   2.960 -0.0352  0.7128  0.4926
  181SLPC   C2120623   7.041   5.785   3.012 -0.2932 -0.1054  0.2972
  181SLPC   O2220624   7.068   5.904   2.993  0.0941 -0.3674  0.3797
  181SLPC   C2220625   7.124   5.696   3.107 -0.0309  0.0365  0.0939
  181SLPC   H2R20626   7.051   5.639   3.168 -1.1834  1.3703  0.0344
  181SLPC   H2S20627   7.186   5.630   3.043 -0.2682  0.4265 -0.5506
  181SLPC    C320628   6.702   5.723   2.939 -0.0798 -0.3815 -0.7120
  181SLPC    HX20629   6.687   5.624   2.892 -2.6205 -1.4525  2.0264
  181SLPC    HY20630   6.622   5.787   2.896 -0.9492 -0.0852  1.2502
  181SLPC   O3120631   6.677   5.718   3.079  0.4728  0.2746  0.3471
  181SLPC   C3120632   6.698   5.614   3.156 -0.7452  0.3769  0.3413
  181SLPC   O3220633   6.721   5.499   3.121  0.2195 -0.4487 -0.2718
  181SLPC   C3220634   6.708   5.649   3.307  0.1372  1.3731  0.4506
  181SLPC   H2X20635   6.609   5.696   3.326 -0.1426  0.8185  0.3927
  181SLPC   H2Y20636   6.782   5.730   3.325  1.6128 -0.0905  1.2559
  181SLPC   C2320637   7.220   5.774   3.207  0.0912 -0.0432 -0.6190
  181SLPC   H3R20638   7.181   5.877   3.224  2.4888  1.2988 -2.5313
  181SLPC   H3S20639   7.312   5.786   3.146 -1.0490  0.3140 -2.3554
  181SLPC   C2420640   7.246   5.686   3.326 -0.2019 -1.0253 -0.0485
  181SLPC   H4R20641   7.345   5.711   3.369 -0.4345 -1.1966  0.5997
  181SLPC   H4S20642   7.255   5.577   3.304  1.6019 -1.4267  2.2181
  181SLPC   C2520643   7.149   5.714   3.439  0.2715  0.3671  0.1044
  181SLPC   H5R20644   7.045   5.703   3.402  0.1831 -0.4519  0.5758
  181SLPC   H5S20645   7.165   5.817   3.477  1.0843  0.5421 -0.6927
  181SLPC   C2620646   7.164   5.627   3.570  0.0038  0.1250 -0.0449
  181SLPC   H6R20647   7.071   5.636   3.631  0.1266  2.1888 -0.0866
  181SLPC   H6S20648   7.249   5.674   3.625  0.1670  1.2129 -1.1667
  181SLPC   C2720649   7.193   5.473   3.546  0.8477 -0.3318  0.8196
  181SLPC   H7R20650   7.289   5.472   3.490  1.0647 -0.4463  1.1905
  181SLPC   H7S20651   7.114   5.422   3.487 -1.6902 -1.0539  4.4384
  181SLPC   C2820652   7.201   5.384   3.674  0.7766 -0.3928 -0.2628
  181SLPC   H8R20653   7.222   5.286   3.626  1.3447  0.6487 -2.2843
  181SLPC   H8S20654   7.105   5.392   3.728  1.1227  1.0003  0.1666
  181SLPC   C2920655   7.321   5.420   3.761  0.1979 -0.4683  0.9144
  181SLPC   H9R20656   7.419   5.422   3.711  2.1568 -0.0734  4.4858
  181SLPC  C21020657   7.323   5.470   3.883 -0.3257  0.0225 -0.5682
  181SLPC  H10R20658   7.421   5.497   3.924  0.3598 -2.9920 -0.0012
  181SLPC  C21120659   7.199   5.484   3.962 -0.4282 -0.6927  0.5211
  181SLPC  H11R20660   7.175   5.392   4.020  1.4280 -0.9338  0.9575
  181SLPC  H11S20661   7.111   5.493   3.895 -0.6872 -0.2682  0.9121
  181SLPC  C21220662   7.206   5.598   4.055 -0.1190 -0.4416  0.1911
  181SLPC  H12R20663   7.192   5.695   4.004  0.9489 -0.9294 -1.0770
  181SLPC  C21320664   7.233   5.596   4.184 -0.1335 -0.4848  0.9477
  181SLPC  H13R20665   7.237   5.692   4.236  2.8067  0.3047 -0.4942
  181SLPC  C21420666   7.257   5.473   4.267  0.1931 -0.3382 -0.6729
  181SLPC  H14R20667   7.283   5.395   4.192  0.2694 -0.5945 -0.3838
  181SLPC  H14S20668   7.161   5.458   4.321  0.7047 -1.0061  0.0876
  181SLPC  C21520669   7.363   5.492   4.374 -0.1589 -0.2953  0.6013
  181SLPC  H15R20670   7.446   5.550   4.328  1.1537 -2.0872  0.5933
  181SLPC  H15S20671   7.407   5.398   4.414  1.2356  1.6958  4.2150
  181SLPC  C21620672   7.313   5.556   4.503 -0.6868 -1.0118 -0.6108
  181SLPC  H16R20673   7.213   5.527   4.540 -0.1188 -1.1159  0.9422
  181SLPC  H16S20674   7.317   5.665   4.483  0.9996 -0.4667  2.0540
  181SLPC  C21720675   7.399   5.516   4.620 -0.4510  0.3527 -0.2780
  181SLPC  H17R20676   7.497   5.530   4.570 -1.2081  1.9953 -1.4122
  181SLPC  H17S20677   7.383   5.409   4.644  1.9235 -0.0198 -0.1254
  181SLPC  C21820678   7.386   5.610   4.743  0.3435 -0.2587 -0.5354
  181SLPC  H18R20679   7.386   5.715   4.708 -1.2146 -0.7243 -2.1043
  181SLPC  H18S20680   7.463   5.591   4.821 -0.7294 -0.7654  0.4276
  181SLPC  H18T20681   7.294   5.595   4.803  0.7382 -0.3809  0.0493
  181SLPC   C3320682   6.728   5.520   3.396 -0.2664  0.2913  0.1453
  181SLPC   H3X20683   6.835   5.490   3.387 -0.9316 -1.6675 -2.2346
  181SLPC   H3Y20684   6.657   5.438   3.376  0.3143 -1.0078  2.8292
  181SLPC   C3420685   6.709   5.560   3.551  0.0394 -0.4095  0.2724
  181SLPC   H4X20686   6.600   5.572   3.570 -0.1919  1.6361 -1.8853
  181SLPC   H4Y20687   6.768   5.653   3.569 -0.9821  0.2895  0.1200
  181SLPC   C3520688   6.764   5.458   3.650 -0.1361 -0.6265 -0.2559
  181SLPC   H5X20689   6.872   5.454   3.623  0.2174 -0.3433  1.0520
  181SLPC   H5Y20690   6.718   5.357   3.640 -1.1541 -0.1989  0.0051
  181SLPC   C3620691   6.750   5.496   3.800  0.5143 -0.7017 -0.2346
  181SLPC   H6X20692   6.654   5.549   3.818 -0.4553 -1.8764 -1.7606
  181SLPC   H6Y20693   6.825   5.577   3.818  0.2603 -0.2601 -1.1074
  181SLPC   C3720694   6.762   5.381   3.905  0.2830 -0.4511  0.2314
  181SLPC   H7X20695   6.852   5.317   3.892 -0.1238 -0.8583 -0.6504
  181SLPC   H7Y20696   6.668   5.323   3.894  1.2100 -1.9805 -0.1000
  181SLPC   C3820697   6.768   5.438   4.050  0.1109 -0.0918 -0.5105
  181SLPC   H8X20698   6.674   5.489   4.079  0.1797 -0.6312  0.7228
  181SLPC   H8Y20699   6.850   5.513   4.046  2.7501 -2.6988  0.7222
  181SLPC   C3920700   6.805   5.339   4.166 -0.4470  0.1161 -0.1107
  181SLPC   H9X20701   6.897   5.279   4.149 -1.5046 -1.1369 -1.7203
  181SLPC   H9Y20702   6.736   5.252   4.171 -2.1519  1.4814  1.7693
  181SLPC  C31020703   6.838   5.400   4.301 -0.5597 -0.5884 -0.2940
  181SLPC  H10X20704   6.892   5.494   4.276  1.5829 -1.9500 -1.0996
  181SLPC  H10Y20705   6.901   5.326   4.356  0.8129  1.5888  1.2634
  181SLPC  C31120706   6.715   5.420   4.387  1.5121  0.2308 -0.1258
  181SLPC  H11X20707   6.655   5.328   4.370  1.2493  0.6252 -1.4624
  181SLPC  H11Y20708   6.652   5.501   4.345  0.4984 -0.0874  0.7495
  181SLPC  C31220709   6.729   5.431   4.543 -0.7722 -0.2039 -0.1324
  181SLPC  H12X20710   6.781   5.527   4.567 -0.7070 -0.5362  1.1045
  181SLPC  H12Y20711   6.785   5.348   4.590 -1.2477 -0.3004  0.2651
  181SLPC  C31320712   6.597   5.422   4.615  0.2454 -0.2653 -0.4016
  181SLPC  H13X20713   6.545   5.324   4.608 -0.9693  0.1601  1.6558
  181SLPC  H13Y20714   6.534   5.504   4.574  0.3353  0.1029  0.1686
  181SLPC  C31420715   6.608   5.445   4.770  0.2788  0.4056  0.3867
  181SLPC  H14X20716   6.661   5.541   4.787  0.8093  0.2296 -0.2322
  181SLPC  H14Y20717   6.673   5.367   4.815 -0.0165  0.9702  1.8324
  181SLPC  C31520718   6.475   5.474   4.851 -0.1063  0.5164  0.1525
  181SLPC  H15X20719   6.406   5.393   4.819  0.3088 -0.1108  0.8075
  181SLPC  H15Y20720   6.430   5.565   4.807 -2.0777 -0.0301  0.9138
  181SLPC  C31620721   6.496   5.487   5.001  0.2870  0.1001 -0.2760
  181SLPC  H16X20722   6.578   5.557   5.025 -1.1837  1.5904  0.5705
  181SLPC  H16Y20723   6.536   5.387   5.030 -0.4784  0.0604  0.6955
  181SLPC  C31720724   6.375   5.529   5.082 -0.1432 -0.1396 -0.3954
  181SLPC  H17X20725   6.301   5.447   5.073  1.3880 -1.4458 -1.5348
  181SLPC  H17Y20726   6.325   5.618   5.039 -1.0873 -0.3948  0.1554
  181SLPC  C31820727   6.399   5.550   5.234  0.0196  0.7379 -0.6844
  181SLPC  H18X20728   6.307   5.558   5.295 -0.1448 -0.8923 -0.6780
  181SLPC  H18Y20729   6.471   5.635   5.241  2.2914 -1.1976  2.7368
  181SLPC  H18Z20730   6.467   5.473   5.277 -0.0380  0.4608 -1.0854
  182SLPC     N20731   4.428   3.678   2.604  0.5853 -0.1651  0.1919
  182SLPC   C1320732   4.368   3.788   2.523  0.3649  0.6423 -0.6077
  182SLPC  H13A20733   4.281   3.763   2.464 -0.4057  0.4675  0.5557
  182SLPC  H13B20734   4.337   3.866   2.592 -2.5126 -3.5526  3.5243
  182SLPC  H13C20735   4.440   3.821   2.450  2.3665 -1.2322  0.4149
  182SLPC   C1420736   4.500   3.585   2.509 -0.3971  0.0329 -0.3809
  182SLPC  H14A20737   4.436   3.533   2.440  1.1221 -0.7734 -1.2191
  182SLPC  H14B20738   4.567   3.654   2.460 -1.1907  2.1467  1.3256
  182SLPC  H14C20739   4.570   3.525   2.565 -0.0741  2.3063  1.8360
  182SLPC   C1520740   4.325   3.586   2.673 -0.2057 -0.3046 -0.2298
  182SLPC  H15A20741   4.383   3.512   2.727  1.4909  0.5967 -0.7620
  182SLPC  H15B20742   4.272   3.642   2.749  0.4621  0.4880 -0.3373
  182SLPC  H15C20743   4.249   3.544   2.609 -1.6696 -0.5051  1.5554
  182SLPC   C1220744   4.521   3.742   2.696  0.2364 -0.3649  0.7160
  182SLPC  H12A20745   4.578   3.665   2.748  1.2121  1.4637  2.5185
  182SLPC  H12B20746   4.468   3.794   2.774 -0.1029  1.9174 -0.9499
  182SLPC   C1120747   4.626   3.842   2.646 -0.7871  0.3017  0.4219
  182SLPC  H11A20748   4.681   3.885   2.731 -0.1923  1.1583 -0.3847
  182SLPC  H11B20749   4.583   3.933   2.599 -0.4826  0.8833  1.2481
  182SLPC     P20750   4.836   3.705   2.571 -0.8697  0.1492 -0.1403
  182SLPC   O1320751   4.809   3.569   2.621  0.2650 -0.0868  0.3274
  182SLPC   O1420752   4.920   3.715   2.452  0.1598  0.2237 -0.0591
  182SLPC   O1220753   4.706   3.782   2.544  0.0480 -0.9483 -0.0860
  182SLPC   O1120754   4.903   3.785   2.693 -0.0950  0.5170  0.5755
  182SLPC    C120755   5.024   3.739   2.745  0.0082 -0.0413  1.4147
  182SLPC    HA20756   5.024   3.632   2.772 -1.0210 -0.1091  1.1995
  182SLPC    HB20757   5.103   3.752   2.667 -0.6576  0.8046  0.8550
  182SLPC    C220758   5.061   3.830   2.864  0.5162  0.8196  0.3309
  182SLPC    HS20759   5.165   3.809   2.898  1.7565  3.2186 -1.6328
  182SLPC   O2120760   4.972   3.809   2.973  0.8015  0.2746  0.1570
  182SLPC   C2120761   4.976   3.692   3.030  0.9869  0.2214  0.0034
  182SLPC   O2220762   5.052   3.595   3.009  0.1824 -0.5986  0.2806
  182SLPC   C2220763   4.843   3.681   3.106 -0.2062 -0.0879  0.1733
  182SLPC   H2R20764   4.833   3.767   3.177 -1.4029 -0.3407  0.3400
  182SLPC   H2S20765   4.756   3.686   3.037 -0.5517 -0.6583  0.5655
  182SLPC    C320766   5.054   3.985   2.824 -0.2927  0.2888  1.5181
  182SLPC    HX20767   4.977   3.995   2.744  2.5162 -0.2231 -1.4769
  182SLPC    HY20768   5.148   4.009   2.769 -1.5156  0.5368 -0.5906
  182SLPC   O3120769   5.042   4.085   2.923  0.3470  0.0238  0.0293
  182SLPC   C3120770   5.153   4.083   2.995  0.9764 -0.6473  0.5527
  182SLPC   O3220771   5.256   4.032   2.970 -0.1120 -0.3204 -0.0348
  182SLPC   C3220772   5.128   4.156   3.128 -0.4358 -0.2575  0.2420
  182SLPC   H2X20773   5.186   4.250   3.121 -1.5850  0.4542 -0.0541
  182SLPC   H2Y20774   5.175   4.090   3.204 -3.7070 -2.4928  0.5520
  182SLPC   C2320775   4.832   3.556   3.204 -0.5088 -0.6854  0.1122
  182SLPC   H3R20776   4.915   3.568   3.278 -1.9225 -1.0391  1.8362
  182SLPC   H3S20777   4.843   3.455   3.160 -0.1799 -0.6715  0.1597
  182SLPC   C2420778   4.696   3.557   3.269  0.1932  0.0379  0.1804
  182SLPC   H4R20779   4.610   3.521   3.209 -1.6226  3.3252  0.5866
  182SLPC   H4S20780   4.665   3.657   3.306 -0.1717 -0.4176  1.1522
  182SLPC   C2520781   4.693   3.463   3.390  0.1058 -0.4024 -0.2892
  182SLPC   H5R20782   4.730   3.360   3.372 -1.1781 -0.3968 -3.5171
  182SLPC   H5S20783   4.584   3.463   3.413  0.0273 -0.6110 -0.6570
  182SLPC   C2620784   4.767   3.512   3.517  0.1158 -0.2330 -0.1242
  182SLPC   H6R20785   4.741   3.618   3.535 -0.4328 -0.4574  0.4923
  182SLPC   H6S20786   4.876   3.501   3.498  0.0781  1.4356 -1.4343
  182SLPC   C2720787   4.738   3.425   3.647  0.2498  0.4519 -0.1567
  182SLPC   H7R20788   4.627   3.411   3.642  0.2824  0.5718 -1.5758
  182SLPC   H7S20789   4.770   3.464   3.746 -0.2636 -1.1542  0.6816
  182SLPC   C2820790   4.796   3.279   3.652 -0.7474 -0.7472  0.2440
  182SLPC   H8R20791   4.741   3.222   3.574  1.3611 -2.6737  0.0565
  182SLPC   H8S20792   4.771   3.232   3.749 -0.3196 -0.9399  0.2637
  182SLPC   C2920793   4.945   3.262   3.633  0.4680  0.1517 -0.4791
  182SLPC   H9R20794   4.972   3.230   3.531 -1.3697 -0.8971 -0.6767
  182SLPC  C21020795   5.043   3.290   3.725  0.3666 -0.5478 -0.1355
  182SLPC  H10R20796   5.150   3.278   3.706  0.0610 -2.8442 -0.7146
  182SLPC  C21120797   5.017   3.336   3.870 -0.6153 -0.0505 -0.1470
  182SLPC  H11R20798   4.969   3.436   3.867  2.3903  1.5008 -1.9755
  182SLPC  H11S20799   5.106   3.370   3.926 -0.5439  1.4938 -1.1498
  182SLPC  C21220800   4.948   3.230   3.950 -0.3633 -0.4928  0.3837
  182SLPC  H12R20801   4.968   3.129   3.913 -0.0508  0.1482 -1.2641
  182SLPC  C21320802   4.869   3.252   4.054 -0.4162  0.1942  0.7786
  182SLPC  H13R20803   4.836   3.162   4.108  0.6134 -1.6466 -1.4681
  182SLPC  C21420804   4.833   3.384   4.122 -0.5471  0.3723 -0.8996
  182SLPC  H14R20805   4.723   3.377   4.138 -0.4570  0.4174 -0.2520
  182SLPC  H14S20806   4.845   3.465   4.047  0.9075  0.5510 -0.4924
  182SLPC  C21520807   4.888   3.407   4.261  0.7709  0.8054  0.4231
  182SLPC  H15R20808   4.887   3.516   4.280  0.7589  0.9066 -0.1381
  182SLPC  H15S20809   4.989   3.364   4.276  0.3980  0.0029  0.6772
  182SLPC  C21620810   4.806   3.328   4.366  0.2521  0.2852 -0.4851
  182SLPC  H16R20811   4.808   3.220   4.339 -1.3409 -0.5894  2.5396
  182SLPC  H16S20812   4.698   3.354   4.366  0.1595 -0.0249  0.8192
  182SLPC  C21720813   4.853   3.347   4.511 -0.6257  0.5096 -0.2769
  182SLPC  H17R20814   4.842   3.450   4.552 -1.5452  0.3653 -0.1477
  182SLPC  H17S20815   4.957   3.310   4.525 -0.2094  2.0906  1.0793
  182SLPC  C21820816   4.769   3.257   4.601 -0.4488  0.3493  0.6155
  182SLPC  H18R20817   4.664   3.293   4.604 -0.8751 -0.7130 -0.9219
  182SLPC  H18S20818   4.793   3.260   4.710 -0.9692 -2.4375  0.8702
  182SLPC  H18T20819   4.784   3.151   4.574  0.1174  0.4855  0.3756
  182SLPC   C3320820   4.975   4.174   3.163 -0.5765 -0.3028  0.4464
  182SLPC   H3X20821   4.920   4.078   3.145  0.4362 -0.6769 -0.8365
  182SLPC   H3Y20822   4.939   4.259   3.101  3.1379 -0.7622 -2.7102
  182SLPC   C3420823   4.939   4.205   3.307  0.5555 -0.1759  0.1787
  182SLPC   H4X20824   4.836   4.243   3.328  0.6888  0.9020 -1.0100
  182SLPC   H4Y20825   5.001   4.292   3.338  1.8070 -0.0789 -2.3969
  182SLPC   C3520826   4.962   4.089   3.407  0.5267 -0.2324 -0.4578
  182SLPC   H5X20827   5.069   4.064   3.394  0.0402 -1.5115 -2.4527
  182SLPC   H5Y20828   4.908   3.995   3.383  0.6168 -0.1322 -1.0528
  182SLPC   C3620829   4.944   4.132   3.554 -0.2338 -0.1019 -0.0916
  182SLPC   H6X20830   4.842   4.166   3.580  0.1219  0.8366  0.1121
  182SLPC   H6Y20831   5.009   4.221   3.564 -1.0002  0.3874  0.6829
  182SLPC   C3720832   4.996   4.034   3.659 -0.1915  0.0238 -0.1971
  182SLPC   H7X20833   5.106   4.027   3.648 -0.4374 -2.2216 -2.2784
  182SLPC   H7Y20834   4.957   3.930   3.648  2.1348 -0.8475 -0.7423
  182SLPC   C3820835   4.975   4.081   3.806 -0.1723  0.1896 -0.1899
  182SLPC   H8X20836   4.866   4.084   3.827  0.3032  0.2561  2.8364
  182SLPC   H8Y20837   5.013   4.184   3.823 -1.5200  0.6852 -0.0343
  182SLPC   C3920838   5.046   3.975   3.899  1.0694  0.3586 -0.5282
  182SLPC   H9X20839   5.156   3.969   3.891  1.0046 -1.2244 -0.7202
  182SLPC   H9Y20840   5.008   3.873   3.876 -1.0568  1.5188 -2.6789
  182SLPC  C31020841   4.999   4.008   4.041 -0.0498  0.3405 -0.0991
  182SLPC  H10X20842   4.888   4.011   4.041 -0.0860  0.1318  2.2115
  182SLPC  H10Y20843   5.035   4.110   4.065  1.6708 -0.5620  1.3339
  182SLPC  C31120844   5.062   3.931   4.146  0.3168 -0.2334 -0.8840
  182SLPC  H11X20845   5.171   3.952   4.148  0.4899 -1.0996 -0.6791
  182SLPC  H11Y20846   5.045   3.822   4.138  0.0590 -0.1585 -1.3664
  182SLPC  C31220847   5.022   3.970   4.291  0.2451 -0.1294  0.3054
  182SLPC  H12X20848   4.918   3.933   4.304 -0.1776  0.7270 -0.5623
  182SLPC  H12Y20849   5.021   4.081   4.291 -2.1110 -0.0733  1.7783
  182SLPC  C31320850   5.105   3.907   4.401 -0.1789 -0.1543 -0.2995
  182SLPC  H13X20851   5.209   3.938   4.374  0.8462 -1.7242  1.6037
  182SLPC  H13Y20852   5.119   3.797   4.391 -0.2636 -0.2302  0.3513
  182SLPC  C31420853   5.057   3.951   4.542  0.6418 -0.1030  0.6537
  182SLPC  H14X20854   4.946   3.956   4.537  0.5721 -2.1666 -2.4375
  182SLPC  H14Y20855   5.081   4.059   4.558 -0.7956  0.2905  0.3173
  182SLPC  C31520856   5.106   3.866   4.661 -0.4355  0.2037 -0.6748
  182SLPC  H15X20857   5.059   3.767   4.644 -1.0663  0.5824 -1.1428
  182SLPC  H15Y20858   5.073   3.905   4.759  0.3601  0.5198 -0.5202
  182SLPC  C31620859   5.256   3.842   4.666  0.2497 -0.0491  0.3857
  182SLPC  H16X20860   5.307   3.941   4.668  1.1770 -0.5251  1.8502
  182SLPC  H16Y20861   5.291   3.780   4.580 -1.6549 -1.0180  0.2601
  182SLPC  C31720862   5.285   3.785   4.811  0.3848 -0.0282 -0.2795
  182SLPC  H17X20863   5.237   3.685   4.812  2.9726 -1.4188 -2.4739
  182SLPC  H17Y20864   5.255   3.863   4.885  1.0333  1.5256 -1.5868
  182SLPC  C31820865   5.426   3.746   4.830 -0.0232  0.3995  0.8533
  182SLPC  H18X20866   5.488   3.834   4.858  0.5839 -0.3642  1.9769
  182SLPC  H18Y20867   5.475   3.717   4.734 -0.3095 -0.0389  0.8394
  182SLPC  H18Z20868   5.446   3.666   4.905 -0.2293  1.0623  1.6262
  183SLPC     N20869   4.699   0.274   2.225  0.2726  0.2082  0.6225
  183SLPC   C1320870   4.762   0.386   2.299  0.1485  0.5988 -0.0131
  183SLPC  H13A20871   4.698   0.438   2.369  0.5416  0.4239  0.4832
  183SLPC  H13B20872   4.851   0.355   2.351  0.6307  0.6281 -0.8030
  183SLPC  H13C20873   4.817   0.449   2.230  2.5388 -1.5810 -0.2500
  183SLPC   C1420874   4.794   0.193   2.152  0.5667  0.6558  0.1718
  183SLPC  H14A20875   4.840   0.249   2.071 -0.9237 -1.4822 -2.2872
  183SLPC  H14B20876   4.865   0.142   2.215 -0.2517 -1.6270 -0.6708
  183SLPC  H14C20877   4.735   0.125   2.093 -1.9850  2.1737  0.8396
  183SLPC   C1520878   4.594   0.327   2.137  0.0716 -0.0321 -0.1749
  183SLPC  H15A20879   4.525   0.253   2.098 -0.9046 -0.7752  2.6708
  183SLPC  H15B20880   4.544   0.411   2.185  1.1262 -0.1611  1.1940
  183SLPC  H15C20881   4.631   0.386   2.055  1.5478 -2.8937 -1.7087
  183SLPC   C1220882   4.639   0.168   2.318 -0.1158 -0.5968 -0.1586
  183SLPC  H12A20883   4.565   0.117   2.259 -0.9584 -0.1066  0.4619
  183SLPC  H12B20884   4.590   0.229   2.393 -0.5297  1.7037 -2.1703
  183SLPC   C1120885   4.733   0.069   2.393 -0.5988  0.4285 -0.2149
  183SLPC  H11A20886   4.774  -0.005   2.321 -1.5043 -0.0128 -0.2914
  183SLPC  H11B20887   4.675   0.001   2.459 -0.6799  0.5966 -0.1116
  183SLPC     P20888   4.979   0.114   2.457 -0.5251  0.1624  0.1097
  183SLPC   O1320889   5.015   0.025   2.343  0.3059 -0.0802 -0.0560
  183SLPC   O1420890   5.046   0.242   2.466  0.2322  0.0303  0.9090
  183SLPC   O1220891   4.829   0.144   2.464  0.4859  0.5055  0.3860
  183SLPC   O1120892   5.003   0.030   2.595  0.2110 -0.3053  0.7371
  183SLPC    C120893   4.918   0.052   2.710 -0.0865 -0.2260 -0.6690
  183SLPC    HA20894   4.919   0.159   2.741  2.3670 -0.1502 -0.8164
  183SLPC    HB20895   4.811   0.032   2.688 -0.5543  0.5997  0.7228
  183SLPC    C220896   4.943  -0.051   2.823  1.1133  0.7717 -0.3509
  183SLPC    HS20897   4.850  -0.058   2.883  1.3712 -0.1686 -0.0460
  183SLPC   O2120898   5.052  -0.021   2.914  0.0765 -0.2982  0.0257
  183SLPC   C2120899   5.039   0.092   2.986  0.0897  0.2323 -0.9956
  183SLPC   O2220900   4.931   0.151   2.992  0.3835 -0.1741 -0.3960
  183SLPC   C2220901   5.160   0.137   3.062  0.5178  0.0411 -0.1169
  183SLPC   H2R20902   5.244   0.140   2.990  1.6777  2.3546  1.2507
  183SLPC   H2S20903   5.133   0.240   3.093  0.5642 -0.0885  0.3556
  183SLPC    C320904   4.961  -0.198   2.776  0.4634 -0.1805  0.8255
  183SLPC    HX20905   5.042  -0.199   2.700  2.0296  0.7009  2.4253
  183SLPC    HY20906   4.862  -0.223   2.731  1.2064 -0.5674 -0.6761
  183SLPC   O3120907   5.010  -0.295   2.871  0.9715  0.4978  0.2673
  183SLPC   C3120908   4.922  -0.333   2.962  0.0319  0.2086 -0.8878
  183SLPC   O3220909   4.808  -0.290   2.980 -0.5992 -0.3561 -0.1139
  183SLPC   C3220910   4.988  -0.438   3.055 -0.2992 -0.1261  0.3543
  183SLPC   H2X20911   5.079  -0.473   3.001 -0.0051  1.1305 -0.0135
  183SLPC   H2Y20912   4.913  -0.516   3.076 -1.7601  1.1624  0.1242
  183SLPC   C2320913   5.175   0.048   3.187  0.4909 -0.0168  0.2803
  183SLPC   H3R20914   5.202  -0.054   3.152  1.2127 -0.3873  1.8219
  183SLPC   H3S20915   5.073   0.043   3.230  0.5908  1.9626  0.8146
  183SLPC   C2420916   5.282   0.100   3.283  0.0949  0.3050 -0.7086
  183SLPC   H4R20917   5.240   0.193   3.327 -0.3111 -0.8315  1.4289
  183SLPC   H4S20918   5.374   0.120   3.224 -1.6844  0.2829 -3.7217
  183SLPC   C2520919   5.303   0.006   3.405  0.4730 -0.6548  0.9347
  183SLPC   H5R20920   5.332  -0.091   3.360 -0.2763 -0.4760  0.0354
  183SLPC   H5S20921   5.209  -0.019   3.459 -0.9259  0.8464 -0.6422
  183SLPC   C2620922   5.405   0.068   3.506  0.6317  1.0780 -0.5243
  183SLPC   H6R20923   5.360   0.164   3.536 -2.1632 -0.7098  1.5098
  183SLPC   H6S20924   5.498   0.092   3.449  0.1465 -0.8549 -2.2780
  183SLPC   C2720925   5.424  -0.016   3.634  0.1570 -0.5425 -0.9429
  183SLPC   H7R20926   5.476  -0.110   3.607  1.7016 -0.1645  0.5589
  183SLPC   H7S20927   5.327  -0.049   3.678 -0.0080 -1.1441 -1.7409
  183SLPC   C2820928   5.502   0.069   3.742  0.5370  0.8439 -0.0343
  183SLPC   H8R20929   5.482   0.006   3.831  0.5314  0.1160 -0.5377
  183SLPC   H8S20930   5.470   0.174   3.756  2.1437  1.4665 -0.6819
  183SLPC   C2920931   5.644   0.063   3.685  0.2751 -0.1084  0.2033
  183SLPC   H9R20932   5.664   0.091   3.580 -0.3600 -0.4437 -0.0114
  183SLPC  C21020933   5.751   0.043   3.760 -0.1638  0.0865  0.3113
  183SLPC  H10R20934   5.847   0.026   3.708  0.0760  1.6889  0.1602
  183SLPC  C21120935   5.755   0.008   3.905  0.0792 -0.3422 -0.5445
  183SLPC  H11R20936   5.753  -0.102   3.916  0.9830 -0.3013  0.1396
  183SLPC  H11S20937   5.669   0.053   3.959 -0.0997 -0.5874 -0.6254
  183SLPC  C21220938   5.884   0.056   3.972  0.6635  1.2185 -0.3836
  183SLPC  H12R20939   5.974  -0.003   3.952 -0.2426 -0.5796  0.6710
  183SLPC  C21320940   5.890   0.155   4.060 -0.4554  0.5901 -0.0272
  183SLPC  H13R20941   5.986   0.176   4.110 -0.8390  1.8456  0.2307
  183SLPC  C21420942   5.785   0.242   4.126 -0.1012 -0.2239  0.4142
  183SLPC  H14R20943   5.712   0.260   4.045 -0.9923  1.0162  1.4480
  183SLPC  H14S20944   5.839   0.335   4.154  0.1786  0.0376 -0.9628
  183SLPC  C21520945   5.712   0.186   4.247 -0.3366  0.8718 -0.6341
  183SLPC  H15R20946   5.675   0.083   4.226  2.6940 -0.3363 -0.5502
  183SLPC  H15S20947   5.636   0.262   4.275 -0.4428  1.6353 -2.8150
  183SLPC  C21620948   5.796   0.175   4.374  0.0260  0.3454  0.7124
  183SLPC  H16R20949   5.845   0.272   4.395  0.3009  0.4903 -0.5185
  183SLPC  H16S20950   5.864   0.087   4.374 -0.8994 -0.3790  0.4860
  183SLPC  C21720951   5.712   0.121   4.496 -0.2824  0.8435 -0.0155
  183SLPC  H17R20952   5.785   0.066   4.559 -0.1690  0.4124 -0.5117
  183SLPC  H17S20953   5.638   0.047   4.459 -1.3711  2.2916 -0.8659
  183SLPC  C21820954   5.644   0.226   4.579  0.3694 -0.2936  0.0016
  183SLPC  H18R20955   5.713   0.308   4.609  2.7086 -1.7857 -1.1124
  183SLPC  H18S20956   5.614   0.187   4.679 -2.3835  1.7544  0.1070
  183SLPC  H18T20957   5.552   0.263   4.529 -1.5733 -4.4395  0.1188
  183SLPC   C3320958   5.043  -0.375   3.184  0.0920 -0.3065 -0.1272
  183SLPC   H3X20959   5.087  -0.274   3.165 -2.7552  0.7447 -1.7482
  183SLPC   H3Y20960   5.132  -0.427   3.223  1.2612 -0.1007 -2.3499
  183SLPC   C3420961   4.935  -0.355   3.293  0.5157 -0.2051 -0.2866
  183SLPC   H4X20962   4.887  -0.455   3.306 -0.2419  0.3352  1.3862
  183SLPC   H4Y20963   4.859  -0.282   3.258 -0.3078 -0.9467 -0.1005
  183SLPC   C3520964   4.996  -0.312   3.431  0.3831  0.4064  0.7319
  183SLPC   H5X20965   5.045  -0.212   3.430 -0.1602  0.7442 -2.6425
  183SLPC   H5Y20966   5.073  -0.387   3.458  1.5981  1.1566 -0.4986
  183SLPC   C3620967   4.889  -0.295   3.538 -0.4102 -0.2223 -0.6903
  183SLPC   H6X20968   4.848  -0.390   3.580 -2.4427  1.4049  1.2892
  183SLPC   H6Y20969   4.796  -0.261   3.489 -0.2912  0.5821 -0.3733
  183SLPC   C3720970   4.924  -0.200   3.655 -0.3382 -0.3369  0.4086
  183SLPC   H7X20971   4.832  -0.200   3.718 -2.0505  0.7850 -1.9176
  183SLPC   H7Y20972   4.941  -0.098   3.616  1.3681 -0.4448  0.8073
  183SLPC   C3820973   5.047  -0.235   3.725 -0.4876  0.3019  0.0651
  183SLPC   H8X20974   5.064  -0.163   3.808  2.6823 -0.1364 -0.0836
  183SLPC   H8Y20975   5.141  -0.227   3.666  0.2139 -1.1514  0.9480
  183SLPC   C3920976   5.059  -0.374   3.779  0.4833  0.7064  0.3403
  183SLPC   H9X20977   5.168  -0.392   3.791  0.2626 -0.6960  0.3575
  183SLPC   H9Y20978   5.049  -0.453   3.703  0.3533  2.0353 -1.0764
  183SLPC  C31020979   4.973  -0.409   3.904 -0.8114  0.4900  0.0811
  183SLPC  H10X20980   5.002  -0.512   3.933 -0.5980  1.1421  2.3794
  183SLPC  H10Y20981   4.864  -0.398   3.885 -0.9241  1.5541  1.1760
  183SLPC  C31120982   5.010  -0.330   4.033 -0.2785 -0.1033  0.0928
  183SLPC  H11X20983   5.019  -0.222   4.008  1.0697 -0.4624 -1.1422
  183SLPC  H11Y20984   5.113  -0.360   4.061 -0.2070 -1.0685 -1.0853
  183SLPC  C31220985   4.908  -0.346   4.139  0.1324  0.2010  0.0908
  183SLPC  H12X20986   4.874  -0.451   4.130  3.2371 -0.9679  0.7769
  183SLPC  H12Y20987   4.819  -0.286   4.111  0.1485 -0.6125 -1.8837
  183SLPC  C31320988   4.942  -0.295   4.278 -0.3678  0.3509 -0.4296
  183SLPC  H13X20989   4.962  -0.185   4.283 -0.3319  0.3518 -0.6200
  183SLPC  H13Y20990   5.035  -0.345   4.313 -1.6901 -0.7366  1.7597
  183SLPC  C31420991   4.832  -0.323   4.383 -0.1878  0.1260  0.6629
  183SLPC  H14X20992   4.737  -0.304   4.328 -0.6451 -1.1364  0.9746
  183SLPC  H14Y20993   4.827  -0.256   4.471 -0.5789  1.3316 -0.2522
  183SLPC  C31520994   4.842  -0.471   4.431  0.2660 -0.7679 -0.4251
  183SLPC  H15X20995   4.923  -0.490   4.505  0.6070  0.1733 -0.5412
  183SLPC  H15Y20996   4.859  -0.527   4.336 -2.9175  0.1865 -1.6983
  183SLPC  C31620997   4.703  -0.512   4.489  0.2646 -0.4911 -0.1839
  183SLPC  H16X20998   4.637  -0.530   4.401 -0.8098  0.9772  0.2908
  183SLPC  H16Y20999   4.665  -0.437   4.561  1.1590 -0.6653  0.4803
  183SLPC  C31721000   4.688  -0.651   4.556  0.1478 -0.5356 -0.2471
  183SLPC  H17X21001   4.724  -0.722   4.479 -2.6121 -0.7679 -1.4111
  183SLPC  H17Y21002   4.581  -0.670   4.579  0.3082 -0.1802  0.9100
  183SLPC  C31821003   4.768  -0.675   4.688 -0.0799  0.5264  0.5435
  183SLPC  H18X21004   4.738  -0.623   4.782  0.5496 -0.6498  1.4163
  183SLPC  H18Y21005   4.872  -0.648   4.658  0.2100 -1.3363 -0.2152
  183SLPC  H18Z21006   4.772  -0.780   4.723  0.6846  1.0435  2.1248
  184SLPC     N21007   4.727   0.715   2.819 -0.0267 -0.4889 -0.6594
  184SLPC   C1321008   4.703   0.751   2.965  0.1598  0.5393 -0.3748
  184SLPC  H13A21009   4.766   0.711   3.043  0.1252 -1.4192 -1.2968
  184SLPC  H13B21010   4.682   0.856   2.973  0.2793  0.5935 -0.7599
  184SLPC  H13C21011   4.611   0.704   2.997  0.3403  1.0436  0.9838
  184SLPC   C1421012   4.623   0.775   2.720 -0.4737 -0.2240 -0.3351
  184SLPC  H14A21013   4.640   0.881   2.712 -2.3084  0.0458 -1.2493
  184SLPC  H14B21014   4.638   0.733   2.622  0.6882  1.0313 -0.7247
  184SLPC  H14C21015   4.519   0.755   2.742 -0.7410  1.0604 -0.3193
  184SLPC   C1521016   4.707   0.566   2.817  0.3640  0.1970 -1.4287
  184SLPC  H15A21017   4.777   0.514   2.880 -3.2906 -0.5396  2.4153
  184SLPC  H15B21018   4.608   0.533   2.843  0.9165 -0.0440  0.5032
  184SLPC  H15C21019   4.721   0.528   2.717 -0.5453  1.3266 -2.0176
  184SLPC   C1221020   4.869   0.750   2.771  0.4132 -0.3784 -0.1476
  184SLPC  H12A21021   4.866   0.724   2.666 -0.5967 -0.6286 -0.0711
  184SLPC  H12B21022   4.943   0.696   2.829  0.4654  0.2398  0.3757
  184SLPC   C1121023   4.912   0.902   2.787  0.2056  0.1262  0.2424
  184SLPC  H11A21024   5.018   0.921   2.759  0.4362 -0.3238  0.7873
  184SLPC  H11B21025   4.895   0.931   2.892 -1.5513  0.5733 -0.1355
  184SLPC     P21026   4.854   1.132   2.702  0.1229 -0.4547  0.0164
  184SLPC   O1321027   4.984   1.163   2.769 -0.8186  0.2772 -0.5655
  184SLPC   O1421028   4.845   1.180   2.562 -0.8348  0.5547  0.3237
  184SLPC   O1221029   4.830   0.981   2.704  0.4667  0.0701  0.2350
  184SLPC   O1121030   4.738   1.194   2.791 -0.2455  0.2248  0.3932
  184SLPC    C121031   4.608   1.135   2.813  0.6286  0.6990  0.4407
  184SLPC    HA21032   4.533   1.211   2.781  0.9587  0.4480 -1.0053
  184SLPC    HB21033   4.580   1.044   2.756 -0.0346  1.5797 -0.6832
  184SLPC    C221034   4.582   1.122   2.967  0.3182 -0.6937  0.1644
  184SLPC    HS21035   4.552   1.218   3.013  1.3144  0.6621 -1.9128
  184SLPC   O2121036   4.687   1.052   3.029 -0.8658  0.4812  0.2388
  184SLPC   C2121037   4.767   1.127   3.104  0.4363  0.4527  0.1967
  184SLPC   O2221038   4.768   1.249   3.107  0.3559 -0.3168 -0.0649
  184SLPC   C2221039   4.860   1.021   3.176  0.3601  0.2449 -0.6047
  184SLPC   H2R21040   4.802   0.927   3.187  0.7827  0.1810  1.6777
  184SLPC   H2S21041   4.938   1.008   3.099  0.4691 -0.8641 -0.3260
  184SLPC    C321042   4.448   1.034   2.978 -0.1759  0.2983 -0.0094
  184SLPC    HX21043   4.471   0.936   2.931 -0.4389  0.7731 -1.1752
  184SLPC    HY21044   4.377   1.087   2.911 -0.0851 -0.8340 -1.0300
  184SLPC   O3121045   4.401   1.016   3.116  0.1686 -0.3710  0.1710
  184SLPC   C3121046   4.303   1.092   3.151  0.1670 -0.3107  0.1851
  184SLPC   O3221047   4.237   1.168   3.082 -0.0372 -0.1034 -0.6306
  184SLPC   C3221048   4.274   1.065   3.300  0.0974  0.4314  0.2758
  184SLPC   H2X21049   4.285   0.955   3.313 -0.9286  0.0969 -1.3624
  184SLPC   H2Y21050   4.167   1.089   3.319 -0.3691  0.5730 -2.2252
  184SLPC   C2321051   4.889   1.063   3.313 -0.1556 -0.1572  0.2920
  184SLPC   H3R21052   4.947   1.157   3.322 -1.3241  0.5669  0.2886
  184SLPC   H3S21053   4.957   0.989   3.362  1.1807 -0.3851 -1.7901
  184SLPC   C2421054   4.769   1.083   3.408 -0.2061  0.0622  0.3112
  184SLPC   H4R21055   4.711   0.989   3.400  1.6161 -1.0708 -0.0629
  184SLPC   H4S21056   4.715   1.172   3.369 -1.6502 -0.5780  0.7914
  184SLPC   C2521057   4.798   1.108   3.556 -0.2472  0.9580  0.5040
  184SLPC   H5R21058   4.897   1.158   3.552 -0.4545  1.3041 -0.9717
  184SLPC   H5S21059   4.827   1.009   3.597 -2.2277 -0.0118 -0.2937
  184SLPC   C2621060   4.686   1.174   3.627 -0.1930  0.0950  0.2125
  184SLPC   H6R21061   4.628   1.099   3.685 -0.2978  2.2713  3.1774
  184SLPC   H6S21062   4.621   1.237   3.563  0.3591  1.6349  1.1164
  184SLPC   C2721063   4.730   1.288   3.719 -0.3356 -0.0658 -0.3926
  184SLPC   H7R21064   4.795   1.354   3.658 -2.1069  1.6923 -0.5024
  184SLPC   H7S21065   4.799   1.252   3.797 -0.9692 -0.2031  0.1149
  184SLPC   C2821066   4.628   1.380   3.795  0.2086  0.4111  0.0329
  184SLPC   H8R21067   4.526   1.349   3.764  1.1705 -3.4904  0.1954
  184SLPC   H8S21068   4.634   1.487   3.766  0.5139  0.3883  0.0156
  184SLPC   C2921069   4.634   1.377   3.946 -0.2272  0.0918 -0.2322
  184SLPC   H9R21070   4.602   1.280   3.988 -0.4681  0.3246  0.1223
  184SLPC  C21021071   4.664   1.477   4.027  0.9561 -1.0223 -0.8185
  184SLPC  H10R21072   4.666   1.453   4.134  3.7454 -2.5457 -1.0964
  184SLPC  C21121073   4.709   1.608   3.977 -0.2857 -0.7432  1.2435
  184SLPC  H11R21074   4.740   1.598   3.871  0.1033 -0.7871  1.3596
  184SLPC  H11S21075   4.795   1.644   4.038 -0.6199  1.3829  0.5273
  184SLPC  C21221076   4.607   1.716   3.978  0.1134 -0.0472 -0.3353
  184SLPC  H12R21077   4.519   1.686   4.036 -0.2254 -0.4379 -1.0363
  184SLPC  C21321078   4.605   1.846   3.934  0.5028 -0.2964  0.0684
  184SLPC  H13R21079   4.530   1.911   3.982  0.9764 -0.6897  1.4077
  184SLPC  C21421080   4.719   1.916   3.864  0.3569 -0.4212 -0.1793
  184SLPC  H14R21081   4.680   1.948   3.765 -0.3120 -0.8447 -0.0586
  184SLPC  H14S21082   4.811   1.855   3.853  0.2833 -0.3051 -1.8044
  184SLPC  C21521083   4.776   2.043   3.936  0.6306 -0.0437  0.0687
  184SLPC  H15R21084   4.805   1.998   4.033 -1.0956  0.3460  0.8069
  184SLPC  H15S21085   4.690   2.109   3.963  0.5927 -0.6106  1.4270
  184SLPC  C21621086   4.874   2.125   3.868 -0.2016 -0.1490  0.1423
  184SLPC  H16R21087   4.950   2.054   3.829  0.2681  0.9572 -1.0587
  184SLPC  H16S21088   4.931   2.195   3.932 -0.9068  1.6907 -1.1307
  184SLPC  C21721089   4.818   2.206   3.751 -0.1459  0.2226 -0.4235
  184SLPC  H17R21090   4.801   2.307   3.793 -1.7558 -0.8293  1.6246
  184SLPC  H17S21091   4.718   2.159   3.740 -1.0507  2.1677 -0.8751
  184SLPC  C21821092   4.889   2.192   3.621  0.4234  0.2000 -0.0411
  184SLPC  H18R21093   4.995   2.221   3.638  0.5573  0.0442 -0.5809
  184SLPC  H18S21094   4.845   2.254   3.539 -1.3564 -0.7502  0.1399
  184SLPC  H18T21095   4.886   2.087   3.585 -1.2361 -0.0678  0.7735
  184SLPC   C3321096   4.368   1.147   3.391  0.1579  0.1830 -0.3051
  184SLPC   H3X21097   4.377   1.256   3.368 -0.0974  0.2951  0.1098
  184SLPC   H3Y21098   4.469   1.100   3.381 -0.2017 -0.6201 -0.2028
  184SLPC   C3421099   4.314   1.155   3.538 -0.2271 -0.1682 -0.1533
  184SLPC   H4X21100   4.213   1.199   3.526 -0.1207  0.0570 -0.2372
  184SLPC   H4Y21101   4.379   1.221   3.599 -1.4908 -0.6748  1.8387
  184SLPC   C3521102   4.288   1.024   3.608 -0.1145 -0.2449  0.5594
  184SLPC   H5X21103   4.379   0.970   3.643 -0.6189 -0.4169  1.6202
  184SLPC   H5Y21104   4.241   0.957   3.533 -0.9505  1.4478 -0.4951
  184SLPC   C3621105   4.194   1.028   3.724  0.1858  0.0308 -0.5029
  184SLPC   H6X21106   4.166   0.923   3.750 -1.1927  0.6950  0.9288
  184SLPC   H6Y21107   4.096   1.073   3.697  0.9307  0.7537 -2.0625
  184SLPC   C3721108   4.247   1.093   3.850 -0.2286 -0.4870  0.3871
  184SLPC   H7X21109   4.267   1.201   3.836 -0.2628 -0.5822 -0.4745
  184SLPC   H7Y21110   4.341   1.039   3.874 -0.0323 -0.9014 -1.1797
  184SLPC   C3821111   4.150   1.071   3.976 -0.8834 -0.0834 -0.1774
  184SLPC   H8X21112   4.118   0.965   3.973 -0.1035 -0.3072 -1.5247
  184SLPC   H8Y21113   4.055   1.127   3.960 -0.2356  0.6990 -1.4668
  184SLPC   C3921114   4.220   1.095   4.113 -0.3364 -0.0458  0.9608
  184SLPC   H9X21115   4.255   1.201   4.109  1.2614 -0.5400  1.2146
  184SLPC   H9Y21116   4.306   1.026   4.124 -1.1471 -1.8238 -2.4969
  184SLPC  C31021117   4.114   1.076   4.223  0.2985 -0.3241 -0.3955
  184SLPC  H10X21118   4.096   0.967   4.231  1.8761 -0.4734  2.4756
  184SLPC  H10Y21119   4.017   1.120   4.189 -0.1433 -0.1872  0.9514
  184SLPC  C31121120   4.151   1.133   4.358 -0.0523 -0.3640 -0.3711
  184SLPC  H11X21121   4.177   1.241   4.346  2.6858 -0.7390  1.3321
  184SLPC  H11Y21122   4.233   1.082   4.413  0.5162  1.9005  1.0121
  184SLPC  C31221123   4.035   1.143   4.459  0.5654  0.1147  0.1761
  184SLPC  H12X21124   3.993   1.051   4.504 -0.5315  0.7220  0.4371
  184SLPC  H12Y21125   3.954   1.190   4.398 -1.3408 -0.3884  2.1985
  184SLPC  C31321126   4.046   1.243   4.582  0.3777  1.1625 -0.3305
  184SLPC  H13X21127   3.943   1.278   4.604 -0.6333 -1.1419 -1.1048
  184SLPC  H13Y21128   4.115   1.327   4.558  1.0465  0.9188  0.6478
  184SLPC  C31421129   4.114   1.187   4.702 -0.0886 -0.4096 -0.0648
  184SLPC  H14X21130   4.218   1.163   4.671 -0.6703 -2.2333 -0.7669
  184SLPC  H14Y21131   4.060   1.095   4.731 -1.9413  0.8701  0.6855
  184SLPC  C31521132   4.120   1.286   4.812 -0.6711  0.0705 -0.2376
  184SLPC  H15X21133   4.014   1.310   4.835 -0.7162  0.0375 -0.4149
  184SLPC  H15Y21134   4.174   1.380   4.787 -0.1452  0.0638  0.7958
  184SLPC  C31621135   4.189   1.242   4.936 -0.1065 -0.0149 -0.2078
  184SLPC  H16X21136   4.294   1.212   4.915 -0.2521 -1.5224  1.0286
  184SLPC  H16Y21137   4.132   1.158   4.980 -0.9719  1.0556  0.7578
  184SLPC  C31721138   4.205   1.353   5.041  0.1402 -0.7449 -0.5732
  184SLPC  H17X21139   4.105   1.402   5.038 -0.5654 -2.0572  0.7367
  184SLPC  H17Y21140   4.296   1.413   5.016 -0.4411  1.3360  1.8659
  184SLPC  C31821141   4.226   1.295   5.184  0.1971  0.2711  1.0795
  184SLPC  H18X21142   4.137   1.277   5.248  1.2534  0.4880  2.6881
  184SLPC  H18Y21143   4.292   1.367   5.237  0.6780  1.0698 -0.5448
  184SLPC  H18Z21144   4.279   1.199   5.163  0.7748  1.3831 -3.7370
  185POPC     N21145   5.979   6.788   7.095  0.0309  0.1528  0.2297
  185POPC   C1221146   6.039   6.659   7.155  0.9992 -0.3882  0.4747
  185POPC  H12A21147   5.980   6.578   7.114  1.7208  0.0451 -1.5217
  185POPC  H12B21148   6.023   6.664   7.261  2.8183  1.0835  0.7217
  185POPC   C1321149   6.014   6.805   6.945 -0.5467  0.5391 -0.6934
  185POPC  H13A21150   6.118   6.823   6.920 -0.5231 -0.3782 -1.3351
  185POPC  H13B21151   5.983   6.718   6.889  1.1406 -1.2506  1.0015
  185POPC  H13C21152   5.961   6.890   6.904  0.2148  1.3951  0.0407
  185POPC   C1421153   5.833   6.783   7.111  0.2966 -0.3361 -0.5693
  185POPC  H14A21154   5.794   6.876   7.072  0.2221  0.6276  1.6425
  185POPC  H14B21155   5.792   6.698   7.059  1.3648 -0.6161 -0.9869
  185POPC  H14C21156   5.805   6.781   7.215  0.8149 -1.3750 -0.4413
  185POPC   C1521157   6.025   6.905   7.171  0.0265  0.1504 -0.2805
  185POPC  H15A21158   6.002   7.004   7.134 -2.4370  0.6109  2.1299
  185POPC  H15B21159   6.133   6.901   7.174 -0.0101 -0.6460  0.9751
  185POPC  H15C21160   5.992   6.903   7.274 -2.5033  3.9792 -0.7946
  185POPC   C1121161   6.189   6.631   7.120 -0.7939 -0.0790  0.8517
  185POPC  H11A21162   6.208   6.596   7.017  0.2902  0.5946  0.8079
  185POPC  H11B21163   6.217   6.544   7.184  0.9810 -0.7641 -0.7446
  185POPC     P21164   6.429   6.735   7.116 -0.0351 -0.2107  0.3453
  185POPC   O1321165   6.491   6.604   7.151  0.0746  0.1630 -0.3044
  185POPC   O1421166   6.497   6.856   7.168  0.1944  0.4650 -0.2390
  185POPC   O1221167   6.279   6.736   7.157  0.0815  0.0231  0.5786
  185POPC   O1121168   6.430   6.740   6.960  0.3367  0.1621 -0.1225
  185POPC    C121169   6.374   6.849   6.886 -0.4682 -0.0114  0.4285
  185POPC    HA21170   6.431   6.942   6.906  0.0837  0.1404 -1.6415
  185POPC    HB21171   6.266   6.869   6.905 -0.4714  0.6051 -0.2025
  185POPC    C221172   6.379   6.828   6.731  0.1676 -0.9131 -0.1967
  185POPC    HS21173   6.467   6.868   6.676  0.3680 -1.0237  0.0434
  185POPC   O2121174   6.267   6.878   6.662  0.1803  0.5040 -0.7004
  185POPC   C2121175   6.259   7.010   6.635 -0.2254  0.0762 -0.6997
  185POPC   O2221176   6.340   7.092   6.675  0.2207  0.3777  0.2266
  185POPC   C2221177   6.132   7.041   6.559  0.6646  0.4801 -0.5890
  185POPC   H2R21178   6.123   7.147   6.527 -1.6581  0.6175  0.3374
  185POPC   H2S21179   6.048   7.023   6.629  0.3582  0.9285 -0.8379
  185POPC    C321180   6.398   6.685   6.697  0.3594  0.2929 -0.4408
  185POPC    HX21181   6.335   6.625   6.766 -0.7632 -0.1264 -1.7828
  185POPC    HY21182   6.505   6.668   6.722 -0.0638 -1.3730  0.4226
  185POPC   O3121183   6.382   6.658   6.552  0.4099  0.3516  0.3839
  185POPC   C3121184   6.278   6.584   6.524 -0.4138  0.5086 -0.4504
  185POPC   O3221185   6.206   6.525   6.600  0.4395  0.1079  0.5789
  185POPC   C3221186   6.255   6.586   6.374 -0.0691 -0.3768  0.4541
  185POPC   H2X21187   6.351   6.539   6.341  0.1632  0.0707  0.4793
  185POPC   H2Y21188   6.239   6.688   6.333 -3.0282 -1.5115 -1.5515
  185POPC   C2321189   6.099   6.966   6.427 -0.0171  0.1388 -0.4514
  185POPC   H3R21190   5.996   6.991   6.394 -0.4500 -2.0978 -0.9788
  185POPC   H3S21191   6.090   6.857   6.448  2.2331  0.1358  0.8499
  185POPC   C2421192   6.200   6.984   6.309 -0.0363  0.3002 -0.7642
  185POPC   H4R21193   6.296   6.931   6.327  0.1122  0.8480  0.1149
  185POPC   H4S21194   6.229   7.091   6.300 -0.2426  0.3112 -1.3713
  185POPC   C2521195   6.164   6.931   6.169  0.6909 -0.4536 -0.5857
  185POPC   H5R21196   6.065   6.971   6.139  1.2217  1.2553 -0.1475
  185POPC   H5S21197   6.136   6.825   6.188  0.2411 -0.3515 -0.6623
  185POPC   C2621198   6.279   6.957   6.070 -0.3152 -0.7239 -0.4242
  185POPC   H6R21199   6.371   6.904   6.102 -0.2289 -0.2825  0.0725
  185POPC   H6S21200   6.290   7.067   6.070 -0.2394 -0.6765 -2.9811
  185POPC   C2721201   6.265   6.922   5.920 -0.6552  0.1859  0.4291
  185POPC   H7R21202   6.257   6.812   5.911 -1.5906  0.4000 -2.6917
  185POPC   H7S21203   6.354   6.967   5.872 -1.8581  1.8773 -0.3359
  185POPC   C2821204   6.138   6.977   5.847 -0.2312  0.5371  0.0448
  185POPC   H8R21205   6.051   6.966   5.915 -0.8559  1.6742 -0.5484
  185POPC   H8S21206   6.113   6.908   5.764 -0.4317  1.3258 -0.5566
  185POPC   C2921207   6.159   7.122   5.823 -0.3012  0.1742 -0.0957
  185POPC   H9121208   6.148   7.183   5.914  0.2046  1.0783 -0.6354
  185POPC  C21021209   6.183   7.181   5.699  0.3874 -0.7161  0.0812
  185POPC  H10121210   6.176   7.290   5.686  1.0713 -0.6428  0.2668
  185POPC  C21121211   6.182   7.117   5.567  0.0416  0.0412  1.0958
  185POPC  H11R21212   6.125   7.176   5.492  0.0730  0.2422  1.2296
  185POPC  H11S21213   6.122   7.024   5.565  0.9891 -0.5710 -0.0003
  185POPC  C21221214   6.324   7.086   5.507  0.5482 -0.7274  0.4569
  185POPC  H12R21215   6.384   7.013   5.565  0.2620 -1.4820 -0.1892
  185POPC  H12S21216   6.380   7.182   5.506 -1.1666  0.3306 -0.9269
  185POPC  C21321217   6.315   7.022   5.370 -0.0410 -0.1389  0.4523
  185POPC  H13R21218   6.256   7.087   5.302  1.5927  1.8000  0.7969
  185POPC  H13S21219   6.266   6.923   5.379  0.9332 -0.5651  1.2010
  185POPC  C21421220   6.463   6.986   5.326  0.9914  0.2878  0.0452
  185POPC  H14R21221   6.466   6.899   5.257 -0.0242  0.9116 -0.8205
  185POPC  H14S21222   6.518   6.960   5.419  1.8271  2.8626  0.3355
  185POPC  C21521223   6.539   7.093   5.244  0.0941  0.2424 -0.4960
  185POPC  H15R21224   6.647   7.066   5.238  0.0014  0.1341 -2.3799
  185POPC  H15S21225   6.539   7.188   5.301 -0.0537  0.8703 -1.5210
  185POPC  C21621226   6.490   7.105   5.106  0.2895  0.1690  0.9481
  185POPC  H16R21227   6.386   7.142   5.121  0.6433  0.9770  1.4968
  185POPC  H16S21228   6.487   7.014   5.042  0.6532  1.2117 -0.6036
  185POPC  C21721229   6.572   7.205   5.022 -0.5244 -0.0887  0.1313
  185POPC  H17R21230   6.678   7.172   5.026 -0.5316 -0.0238  3.2037
  185POPC  H17S21231   6.566   7.307   5.066  1.3112 -0.9445  2.5689
  185POPC  C21821232   6.527   7.217   4.877  0.4512 -0.1758  0.0672
  185POPC  H18R21233   6.565   7.314   4.840 -0.3176 -0.0105 -0.3233
  185POPC  H18S21234   6.416   7.221   4.878  0.4832  2.2658  1.9149
  185POPC  H18T21235   6.562   7.142   4.802  1.0620  0.8982 -0.7458
  185POPC   C3321236   6.128   6.523   6.315 -0.3228 -0.0415  0.3424
  185POPC   H3X21237   6.039   6.579   6.351 -0.5225 -0.7020  0.8854
  185POPC   H3Y21238   6.119   6.413   6.330 -0.7880 -0.3473 -1.8125
  185POPC   C3421239   6.124   6.530   6.162  0.8257 -0.1444  0.4105
  185POPC   H4X21240   6.202   6.457   6.129 -0.4366 -0.9515 -0.9063
  185POPC   H4Y21241   6.159   6.626   6.118 -1.3982  0.3446 -0.4216
  185POPC   C3521242   5.989   6.487   6.111  0.0901  0.1514 -0.3099
  185POPC   H5X21243   5.919   6.572   6.130 -1.4994 -1.4295  1.3170
  185POPC   H5Y21244   5.963   6.396   6.169  1.8845  1.1727  2.2870
  185POPC   C3621245   5.995   6.444   5.959  0.7969 -0.0278 -0.5713
  185POPC   H6X21246   6.043   6.346   5.940  0.9837  0.1749 -1.1828
  185POPC   H6Y21247   6.047   6.536   5.923  1.6832 -0.5286 -0.6049
  185POPC   C3721248   5.853   6.445   5.894 -0.7440 -0.2988 -0.0888
  185POPC   H7X21249   5.792   6.536   5.914 -0.9375 -0.1535 -1.2619
  185POPC   H7Y21250   5.791   6.360   5.930 -0.5241 -0.2474  0.4194
  185POPC   C3821251   5.868   6.442   5.741  0.2756  0.3999  1.0392
  185POPC   H8X21252   5.910   6.343   5.713  0.0921  0.4128  0.7109
  185POPC   H8Y21253   5.949   6.515   5.720  2.5969 -1.3698  3.0986
  185POPC   C3921254   5.749   6.503   5.668 -0.6829  0.1815 -0.6562
  185POPC   H9X21255   5.737   6.605   5.711 -0.8296  0.1114 -0.5335
  185POPC   H9Y21256   5.658   6.441   5.678 -0.9628  0.7899  0.6930
  185POPC  C31021257   5.774   6.508   5.518 -0.4582  0.4950  0.2134
  185POPC  H10X21258   5.807   6.405   5.494  1.6856  0.6045  2.3159
  185POPC  H10Y21259   5.861   6.573   5.496 -0.8613  0.8037 -0.5080
  185POPC  C31121260   5.657   6.573   5.442  0.3558  0.6650 -0.1570
  185POPC  H11X21261   5.653   6.681   5.468 -1.2863  1.4733 -3.3433
  185POPC  H11Y21262   5.565   6.526   5.481 -0.3821  2.3681  0.2173
  185POPC  C31221263   5.660   6.541   5.289  0.1989 -0.1548 -0.6032
  185POPC  H12X21264   5.758   6.579   5.256  0.0447 -1.0478 -2.2289
  185POPC  H12Y21265   5.582   6.594   5.231  0.8897 -1.1391 -2.5355
  185POPC  C31321266   5.639   6.398   5.247 -0.2430 -0.3222 -0.0824
  185POPC  H13X21267   5.551   6.348   5.292  0.1116  0.2513  1.2766
  185POPC  H13Y21268   5.725   6.343   5.292  0.2532 -0.1336 -0.7765
  185POPC  C31421269   5.624   6.382   5.097 -0.0319  1.2687 -0.0193
  185POPC  H14X21270   5.696   6.444   5.039  0.7341 -0.8556 -1.4904
  185POPC  H14Y21271   5.525   6.423   5.070 -0.0721  0.4188 -1.2500
  185POPC  C31521272   5.636   6.241   5.049 -0.3565  0.6504 -0.7075
  185POPC  H15X21273   5.549   6.182   5.086 -0.0633 -0.7026 -2.0471
  185POPC  H15Y21274   5.718   6.191   5.106  0.5986  1.8488 -1.0025
  185POPC  C31621275   5.646   6.227   4.894  0.0320 -0.2470  0.3144
  185POPC  H16X21276   5.739   6.276   4.859 -0.5333  0.5239 -0.1573
  185POPC  H16Y21277   5.563   6.284   4.846  0.2546  0.8864  1.2098
  185POPC  H16Z21278   5.649   6.118   4.873 -1.9101 -0.5425  1.3162
  186POPC     N21279   0.549   6.803   7.168  1.1223  0.4354 -0.1679
  186POPC   C1221280   0.661   6.731   7.232 -0.0573  0.0174 -0.1135
  186POPC  H12A21281   0.629   6.639   7.279 -2.7314  0.7258 -0.3884
  186POPC  H12B21282   0.699   6.800   7.306 -2.1906  0.2758  0.8382
  186POPC   C1321283   0.428   6.806   7.258  0.0103 -0.5128 -0.1763
  186POPC  H13A21284   0.348   6.868   7.218 -0.8522 -0.5918  1.3342
  186POPC  H13B21285   0.389   6.706   7.258  0.7446 -0.8184 -1.5896
  186POPC  H13C21286   0.447   6.845   7.357 -0.0681  0.2257 -0.4414
  186POPC   C1421287   0.591   6.944   7.148  0.4016  0.1735  0.1926
  186POPC  H14A21288   0.623   6.986   7.242 -1.4326 -2.4560  2.1468
  186POPC  H14B21289   0.678   6.946   7.084 -0.4532 -2.3812 -1.1630
  186POPC  H14C21290   0.524   7.010   7.096  1.3345 -0.2142 -1.5757
  186POPC   C1521291   0.508   6.744   7.036 -0.5626  0.8264 -0.8435
  186POPC  H15A21292   0.409   6.779   7.012 -0.5996  2.2548  1.0994
  186POPC  H15B21293   0.505   6.637   7.043 -0.7057  0.8383 -0.7267
  186POPC  H15C21294   0.573   6.766   6.953 -1.2917  1.0222 -1.3691
  186POPC   C1121295   0.780   6.705   7.132  0.2987  0.3593 -0.6216
  186POPC  H11A21296   0.742   6.638   7.052 -0.3388  0.5029 -0.4412
  186POPC  H11B21297   0.856   6.650   7.192  0.7707  1.6176 -0.0444
  186POPC     P21298   0.912   6.833   6.945  0.1176 -0.1144  0.5237
  186POPC   O1321299   0.966   6.699   6.914 -0.3907 -0.0577 -0.0590
  186POPC   O1421300   1.012   6.943   6.930 -0.1448  0.2852 -0.0229
  186POPC   O1221301   0.843   6.823   7.087 -0.1287  0.6193 -0.5610
  186POPC   O1121302   0.789   6.863   6.852 -0.5262  0.1232 -0.1440
  186POPC    C121303   0.735   6.997   6.851 -0.1855  0.6463 -0.2735
  186POPC    HA21304   0.793   7.076   6.903  1.2898  0.6601 -1.8523
  186POPC    HB21305   0.630   6.990   6.886 -0.1675  2.7084  0.3228
  186POPC    C221306   0.713   7.058   6.705  0.7208  0.8705 -0.1940
  186POPC    HS21307   0.637   7.139   6.713 -0.1055  0.0055  0.8799
  186POPC   O2121308   0.674   6.948   6.622  0.2312 -0.0411  0.0191
  186POPC   C2121309   0.562   6.899   6.635  0.8711  0.1723 -0.0679
  186POPC   O2221310   0.473   6.935   6.713 -0.0172 -0.1175 -0.0679
  186POPC   C2221311   0.550   6.783   6.536  0.0041 -0.3617 -0.8707
  186POPC   H2R21312   0.477   6.710   6.578  2.5233 -1.8524  1.2828
  186POPC   H2S21313   0.649   6.732   6.531  0.0632 -0.9314  2.8352
  186POPC    C321314   0.842   7.111   6.653 -0.6142  0.0758  0.2450
  186POPC    HX21315   0.913   7.026   6.654  0.2987  0.7739 -1.2247
  186POPC    HY21316   0.865   7.199   6.716 -1.6074  0.1114  0.5770
  186POPC   O3121317   0.836   7.147   6.507  0.0600 -0.3234 -0.4130
  186POPC   C3121318   0.947   7.202   6.464 -0.0702  0.4827 -0.0959
  186POPC   O3221319   1.038   7.242   6.533  0.3357  0.1113 -0.1700
  186POPC   C3221320   0.957   7.202   6.309 -0.1576  0.6605 -0.3349
  186POPC   H2X21321   0.871   7.151   6.262 -0.2636  0.0769  0.4645
  186POPC   H2Y21322   1.048   7.138   6.308  0.3502  1.2663 -3.6442
  186POPC   C2321323   0.508   6.818   6.390  0.0435 -0.1830  0.0724
  186POPC   H3R21324   0.589   6.883   6.350 -1.4981  0.9772 -1.3236
  186POPC   H3S21325   0.417   6.882   6.395  1.1086  1.3987 -0.1635
  186POPC   C2421326   0.488   6.691   6.311  0.0561 -0.9209  0.8104
  186POPC   H4R21327   0.396   6.641   6.350 -0.9284  1.4252  1.6478
  186POPC   H4S21328   0.580   6.629   6.320  0.1765 -0.6699  1.3404
  186POPC   C2521329   0.474   6.726   6.160  0.1304  0.3449 -0.9851
  186POPC   H5R21330   0.537   6.815   6.141  1.0990 -0.0695  0.1216
  186POPC   H5S21331   0.366   6.752   6.159 -0.1850 -0.8753 -2.2587
  186POPC   C2621332   0.506   6.613   6.057  0.5320  0.4595  0.4504
  186POPC   H6R21333   0.452   6.518   6.077  1.1209  0.1803  0.7254
  186POPC   H6S21334   0.614   6.589   6.054  0.6703  1.1392 -1.0199
  186POPC   C2721335   0.463   6.676   5.920 -0.3676  0.2739 -0.4337
  186POPC   H7R21336   0.522   6.770   5.905  1.5873 -0.6426  1.0522
  186POPC   H7S21337   0.361   6.719   5.929 -1.0410 -1.4263  0.5624
  186POPC   C2821338   0.465   6.588   5.797  0.6013  0.8944  0.0236
  186POPC   H8R21339   0.435   6.487   5.833  2.3680  0.8579  1.5581
  186POPC   H8S21340   0.574   6.587   5.777  0.4883  2.4766 -0.7916
  186POPC   C2921341   0.368   6.620   5.683  0.3595 -0.1176  0.6375
  186POPC   H9121342   0.272   6.567   5.692  1.1220 -1.5107  0.9294
  186POPC  C21021343   0.381   6.701   5.582 -0.2393  0.1470  0.6795
  186POPC  H10121344   0.298   6.713   5.511  0.8892  2.5591 -0.3548
  186POPC  C21121345   0.499   6.776   5.545  0.5437  0.3732  0.4050
  186POPC  H11R21346   0.541   6.740   5.448 -0.2245 -1.1160  0.5870
  186POPC  H11S21347   0.581   6.757   5.619 -1.2720 -2.3940  1.8881
  186POPC  C21221348   0.460   6.924   5.531  0.0301  0.1477 -0.7366
  186POPC  H12R21349   0.440   6.953   5.636  0.2945  0.0203 -0.6506
  186POPC  H12S21350   0.362   6.935   5.478 -1.5301 -0.6998  1.7762
  186POPC  C21321351   0.576   7.004   5.468 -0.2134 -0.4165 -0.3572
  186POPC  H13R21352   0.667   6.988   5.530  0.3366 -1.4354 -1.3865
  186POPC  H13S21353   0.556   7.111   5.489 -2.9639 -0.9629  0.0684
  186POPC  C21421354   0.618   6.995   5.321  0.0684  0.2729  0.9288
  186POPC  H14R21355   0.602   6.888   5.295 -1.4911  0.6832  0.0870
  186POPC  H14S21356   0.717   7.040   5.296 -0.7416  0.6120 -2.0092
  186POPC  C21521357   0.512   7.073   5.232  0.1734  0.1654 -0.3856
  186POPC  H15R21358   0.520   7.184   5.240  2.0365  0.4391 -4.0535
  186POPC  H15S21359   0.406   7.051   5.256  0.3103 -0.5871 -0.4478
  186POPC  C21621360   0.527   7.054   5.082 -0.3688  0.3860  0.1617
  186POPC  H16R21361   0.479   7.144   5.039  1.0633 -0.0592 -2.5928
  186POPC  H16S21362   0.482   6.958   5.048  0.9463  0.2115 -1.1796
  186POPC  C21721363   0.673   7.072   5.033 -0.3274 -0.1026 -0.6202
  186POPC  H17R21364   0.732   7.004   5.097 -0.3723 -0.4733 -0.9651
  186POPC  H17S21365   0.707   7.172   5.065  0.5133 -0.1164 -1.4123
  186POPC  C21821366   0.702   7.042   4.880  0.1972  0.5165 -0.4752
  186POPC  H18R21367   0.662   6.940   4.859  0.0842 -0.0389  2.0658
  186POPC  H18S21368   0.810   7.053   4.858  0.7323 -1.7630  0.6953
  186POPC  H18T21369   0.660   7.121   4.814  0.2196  1.4798  0.6268
  186POPC   C3321370   0.973   7.341   6.265 -0.2074 -0.6125  0.2903
  186POPC   H3X21371   0.968   7.412   6.351 -0.1103  1.2802 -1.2083
  186POPC   H3Y21372   0.900   7.366   6.186  0.3901  1.2172  0.2794
  186POPC   C3421373   1.107   7.360   6.194 -0.4984 -0.5722 -0.2966
  186POPC   H4X21374   1.191   7.351   6.266 -0.3634  1.5317 -0.1272
  186POPC   H4Y21375   1.098   7.470   6.175  2.6335 -0.0806  0.5153
  186POPC   C3521376   1.128   7.293   6.061 -0.0383 -0.0529 -0.1356
  186POPC   H5X21377   1.123   7.183   6.070 -0.2206  0.0767  1.9315
  186POPC   H5Y21378   1.234   7.320   6.039  0.0130  1.5936  1.7976
  186POPC   C3621379   1.030   7.322   5.945  0.5822 -0.8326 -0.1960
  186POPC   H6X21380   1.030   7.433   5.944  1.4039 -0.7894 -2.6974
  186POPC   H6Y21381   0.928   7.291   5.975  0.9195 -1.4385  0.3508
  186POPC   C3721382   1.083   7.269   5.811 -0.4557  0.6704 -0.4122
  186POPC   H7X21383   1.065   7.160   5.809 -0.4212  0.6712 -1.4231
  186POPC   H7Y21384   1.192   7.286   5.805  0.5906 -4.3341  0.4534
  186POPC   C3821385   1.018   7.331   5.685 -0.3561 -0.2065 -0.4064
  186POPC   H8X21386   1.000   7.439   5.706  1.1314  0.2627 -1.3901
  186POPC   H8Y21387   0.921   7.279   5.672  0.3857 -2.2770  1.6207
  186POPC   C3921388   1.111   7.316   5.568 -0.1458  0.3170 -0.4497
  186POPC   H9X21389   1.141   7.209   5.563 -1.7505 -0.3787  2.5037
  186POPC   H9Y21390   1.211   7.363   5.575 -0.5486  1.3418 -1.2442
  186POPC  C31021391   1.061   7.361   5.431 -0.0843  0.2646  0.1056
  186POPC  H10X21392   1.155   7.353   5.374 -1.1977 -2.0619 -1.5702
  186POPC  H10Y21393   1.018   7.463   5.425  1.5833  1.0393  0.8052
  186POPC  C31121394   0.957   7.268   5.382 -0.0933  0.8954  0.5592
  186POPC  H11X21395   0.862   7.292   5.433 -1.9516 -0.0680 -2.2442
  186POPC  H11Y21396   0.991   7.163   5.397  0.3349  0.6727 -1.5856
  186POPC  C31221397   0.938   7.268   5.226 -0.1058 -0.1500  0.1417
  186POPC  H12X21398   0.890   7.366   5.205 -2.3623 -0.7924  1.8888
  186POPC  H12Y21399   0.888   7.183   5.176  0.2368  0.5096 -1.3928
  186POPC  C31321400   1.068   7.273   5.153  0.2871  0.4696 -1.0052
  186POPC  H13X21401   1.112   7.179   5.192 -1.2006  1.2916  3.1346
  186POPC  H13Y21402   1.130   7.360   5.184  0.1267  0.5253 -0.8391
  186POPC  C31421403   1.067   7.276   4.996 -0.0526  0.5242  0.3369
  186POPC  H14X21404   1.034   7.184   4.943  1.6013  0.2817 -0.3402
  186POPC  H14Y21405   1.177   7.277   4.978  0.2638 -1.1265  1.8376
  186POPC  C31521406   1.000   7.394   4.932 -0.7618 -0.1120 -0.0394
  186POPC  H15X21407   1.061   7.485   4.953 -0.7586 -0.4834  1.7360
  186POPC  H15Y21408   0.893   7.412   4.956 -1.0406 -1.3979 -0.2502
  186POPC  C31621409   1.004   7.392   4.778 -0.2760 -0.7690 -0.2958
  186POPC  H16X21410   1.110   7.406   4.747 -0.7799  0.6207 -1.5509
  186POPC  H16Y21411   0.960   7.484   4.733  2.2480  0.2494 -0.8854
  186POPC  H16Z21412   0.972   7.295   4.734  1.1205 -0.3912 -2.2991
  187POPC     N21413   4.304   2.351   3.123  0.0260 -0.3462  0.5741
  187POPC   C1221414   4.263   2.416   3.254  0.3349 -0.0255  0.6993
  187POPC  H12A21415   4.235   2.518   3.233 -2.5853 -0.8070  0.2970
  187POPC  H12B21416   4.352   2.426   3.314  1.2484  1.4326 -0.8082
  187POPC   C1321417   4.428   2.412   3.071 -0.5283  0.4415  0.2789
  187POPC  H13A21418   4.409   2.518   3.074 -1.9600  0.1997  1.3118
  187POPC  H13B21419   4.515   2.393   3.132  0.1298 -0.4442 -0.8842
  187POPC  H13C21420   4.465   2.384   2.974  0.1044 -0.6547  0.8118
  187POPC   C1421421   4.327   2.199   3.132  0.2627  0.2165 -0.6114
  187POPC  H14A21422   4.412   2.189   3.198  0.8484  2.0052 -1.0604
  187POPC  H14B21423   4.243   2.156   3.186 -0.5397  1.7800 -0.5501
  187POPC  H14C21424   4.344   2.151   3.037  0.6216  0.4167 -0.6506
  187POPC   C1521425   4.193   2.364   3.019 -0.0239 -0.7835  0.4665
  187POPC  H15A21426   4.103   2.323   3.062 -1.1253 -1.6401 -2.4501
  187POPC  H15B21427   4.208   2.311   2.926 -0.3073 -1.3150  0.7227
  187POPC  H15C21428   4.184   2.469   2.997 -1.1785 -0.7940  0.8198
  187POPC   C1121429   4.150   2.346   3.331 -0.0193 -0.1768 -0.1209
  187POPC  H11A21430   4.148   2.394   3.431 -1.0296  2.2426 -1.2385
  187POPC  H11B21431   4.194   2.246   3.354  0.3122 -0.7109 -2.6836
  187POPC     P21432   3.940   2.463   3.265 -0.5248  0.2973  0.0598
  187POPC   O1321433   3.803   2.426   3.224 -0.6105  0.2153 -0.3088
  187POPC   O1421434   4.009   2.559   3.175  0.1955 -0.1534 -0.1728
  187POPC   O1221435   4.021   2.331   3.268 -0.2191  0.2684 -0.3927
  187POPC   O1121436   3.931   2.517   3.420 -0.1440  0.9386  0.4380
  187POPC    C121437   3.949   2.657   3.441  0.2194 -1.2984 -0.5523
  187POPC    HA21438   3.895   2.681   3.535 -0.0936  0.1592 -1.0736
  187POPC    HB21439   3.905   2.710   3.354 -0.5578  0.5563  0.9173
  187POPC    C221440   4.095   2.710   3.464  0.0605  0.1097  0.2507
  187POPC    HS21441   4.161   2.679   3.381  1.4828  0.1418  1.3293
  187POPC   O2121442   4.130   2.647   3.585  0.0703 -0.6610 -1.1918
  187POPC   C2121443   4.260   2.649   3.621  1.1610 -0.3626  0.5436
  187POPC   O2221444   4.353   2.704   3.564  0.7594  0.6609  0.4398
  187POPC   C2221445   4.283   2.576   3.752  0.3361  0.0711 -0.0775
  187POPC   H2R21446   4.228   2.481   3.734  1.5808 -1.0701  1.7831
  187POPC   H2S21447   4.240   2.633   3.837  1.8303  2.1512 -0.6316
  187POPC    C321448   4.094   2.862   3.477  0.4138 -0.0389  0.3538
  187POPC    HX21449   4.048   2.901   3.383 -0.9488 -0.8663  0.6474
  187POPC    HY21450   4.197   2.903   3.476  0.6162 -0.5307 -0.7666
  187POPC   O3121451   4.035   2.918   3.598  0.6469 -0.1867  0.2267
  187POPC   C3121452   3.934   2.998   3.590  0.0781 -0.6499 -0.0882
  187POPC   O3221453   3.884   3.047   3.488  0.0068 -0.0111  0.4902
  187POPC   C3221454   3.887   3.024   3.731  0.0532  0.0198  0.1830
  187POPC   H2X21455   3.956   3.097   3.780  0.5760 -1.9678  2.5968
  187POPC   H2Y21456   3.890   2.932   3.792 -2.1949  1.0686  2.0602
  187POPC   C2321457   4.432   2.537   3.761  0.9501  0.4006  0.2142
  187POPC   H3R21458   4.486   2.626   3.802 -0.0719  0.7635  0.8308
  187POPC   H3S21459   4.474   2.517   3.661  1.1930 -0.0560  0.4075
  187POPC   C2421460   4.474   2.424   3.852 -0.5443 -0.3554 -0.0475
  187POPC   H4R21461   4.584   2.411   3.850 -0.4984 -0.0158 -1.8324
  187POPC   H4S21462   4.434   2.326   3.817 -2.8314 -0.1451  1.6991
  187POPC   C2521463   4.424   2.449   3.990 -0.6358 -1.0063  0.2847
  187POPC   H5R21464   4.320   2.489   3.990 -1.0711 -2.1114 -0.1288
  187POPC   H5S21465   4.496   2.530   4.015 -1.5874 -0.4353  1.2500
  187POPC   C2621466   4.437   2.332   4.087  0.6338  0.1847  0.2595
  187POPC   H6R21467   4.538   2.287   4.087 -0.1325 -1.6610 -1.4389
  187POPC   H6S21468   4.372   2.251   4.047  0.6392 -0.8750  2.2697
  187POPC   C2721469   4.385   2.368   4.228 -0.3155  0.2919 -0.1112
  187POPC   H7R21470   4.326   2.278   4.256 -0.4473 -0.4034 -2.3815
  187POPC   H7S21471   4.316   2.455   4.225 -0.8544 -0.0740  0.9286
  187POPC   C2821472   4.507   2.387   4.329  0.5343 -0.7289  0.0827
  187POPC   H8R21473   4.467   2.455   4.407 -0.1955 -0.5668 -0.4187
  187POPC   H8S21474   4.578   2.452   4.274 -0.3208 -0.6286 -0.9389
  187POPC   C2921475   4.583   2.272   4.385 -0.2063  0.0663  0.0903
  187POPC   H9121476   4.635   2.219   4.303  1.0906 -0.0115  0.9476
  187POPC  C21021477   4.600   2.230   4.510  0.0228 -0.1935  0.4768
  187POPC  H10121478   4.652   2.136   4.532  0.9074  0.3151  0.6091
  187POPC  C21121479   4.546   2.304   4.635 -0.7170 -0.0212  0.1042
  187POPC  H11R21480   4.525   2.411   4.615 -1.2017 -0.2954 -0.9023
  187POPC  H11S21481   4.626   2.303   4.713 -1.5920 -0.0379  1.0308
  187POPC  C21221482   4.418   2.236   4.695 -0.4451 -0.1428  0.4372
  187POPC  H12R21483   4.416   2.125   4.705 -0.6646 -0.2630 -0.7789
  187POPC  H12S21484   4.340   2.262   4.620 -0.0055  1.4458  0.4980
  187POPC  C21321485   4.380   2.299   4.831  0.7822 -0.2360  0.4661
  187POPC  H13R21486   4.269   2.306   4.834  0.4107 -2.8077 -2.2697
  187POPC  H13S21487   4.425   2.400   4.837 -0.5690  0.4306 -0.0187
  187POPC  C21421488   4.424   2.215   4.954  0.1104  0.0133 -0.6065
  187POPC  H14R21489   4.533   2.197   4.950  0.1972 -0.1761  1.4616
  187POPC  H14S21490   4.384   2.111   4.947 -1.7942  0.3377  2.9020
  187POPC  C21521491   4.388   2.284   5.085 -0.5287  0.1410 -0.0881
  187POPC  H15R21492   4.392   2.395   5.072  0.0892  0.0308 -0.8949
  187POPC  H15S21493   4.443   2.245   5.173 -2.5224 -0.9615  0.7400
  187POPC  C21621494   4.240   2.252   5.115  0.4982 -0.0366  0.3181
  187POPC  H16R21495   4.232   2.141   5.124 -2.5527  0.1722  1.2757
  187POPC  H16S21496   4.166   2.281   5.038  0.8346 -2.3501 -0.9627
  187POPC  C21721497   4.194   2.296   5.258 -0.1281  0.1734  0.1498
  187POPC  H17R21498   4.084   2.278   5.256  0.1663 -2.0152  0.7540
  187POPC  H17S21499   4.210   2.406   5.262 -3.3228  0.7764 -0.8410
  187POPC  C21821500   4.251   2.228   5.376 -0.1734 -0.3741  0.1121
  187POPC  H18R21501   4.211   2.124   5.370 -0.8635 -0.0507 -1.2518
  187POPC  H18S21502   4.213   2.281   5.466  2.0506  0.1085  0.8188
  187POPC  H18T21503   4.361   2.242   5.384 -0.4328  0.7707  2.3791
  187POPC   C3321504   3.744   3.084   3.741 -0.5019 -0.1449 -0.1517
  187POPC   H3X21505   3.674   3.013   3.693 -0.1504 -2.6135  2.6992
  187POPC   H3Y21506   3.745   3.183   3.691  1.2736 -1.0362 -2.0197
  187POPC   C3421507   3.689   3.093   3.888  0.4606  0.4924  0.7925
  187POPC   H4X21508   3.753   3.166   3.942  0.4855  0.7432  0.4288
  187POPC   H4Y21509   3.685   2.990   3.927 -0.3786  1.2676  2.8556
  187POPC   C3521510   3.548   3.154   3.901 -1.0921 -0.3838 -0.0662
  187POPC   H5X21511   3.515   3.150   4.007  0.1187 -0.7294  0.3091
  187POPC   H5Y21512   3.477   3.089   3.845 -0.6614 -1.4672  0.6022
  187POPC   C3621513   3.545   3.308   3.857 -0.1152 -0.0331  0.0013
  187POPC   H6X21514   3.554   3.312   3.747  1.8676 -1.7535  0.0347
  187POPC   H6Y21515   3.641   3.357   3.884  1.3717 -2.2936 -0.8816
  187POPC   C3721516   3.427   3.388   3.908 -0.5655 -0.1392 -0.4175
  187POPC   H7X21517   3.332   3.348   3.868 -0.7594  1.3345 -1.5187
  187POPC   H7Y21518   3.433   3.489   3.862 -2.0063  0.5996  0.8976
  187POPC   C3821519   3.420   3.409   4.063  0.4424  0.2038  0.5138
  187POPC   H8X21520   3.525   3.432   4.093  0.3314  0.5658  0.6231
  187POPC   H8Y21521   3.390   3.311   4.106 -0.9371 -0.4389 -1.7577
  187POPC   C3921522   3.325   3.519   4.093  0.4046  0.1292  0.3254
  187POPC   H9X21523   3.226   3.472   4.073  0.0640  0.7745  0.4570
  187POPC   H9Y21524   3.340   3.605   4.024 -2.5622  0.7632  0.3310
  187POPC  C31021525   3.324   3.570   4.239 -0.9228 -0.8768 -0.5442
  187POPC  H10X21526   3.266   3.664   4.252  1.2775  0.6090 -0.8209
  187POPC  H10Y21527   3.428   3.597   4.267 -0.8470 -0.5141 -1.1428
  187POPC  C31121528   3.281   3.465   4.341  0.2359 -0.0938 -0.0943
  187POPC  H11X21529   3.337   3.374   4.311 -1.8784 -1.2392 -0.7594
  187POPC  H11Y21530   3.176   3.432   4.326 -0.2628  0.4638  1.8942
  187POPC  C31221531   3.301   3.512   4.488 -0.2398  0.0873  0.3472
  187POPC  H12X21532   3.248   3.609   4.498 -1.4046 -0.4500 -0.3034
  187POPC  H12Y21533   3.404   3.532   4.524 -0.7665  4.0957  0.0796
  187POPC  C31321534   3.244   3.404   4.577 -0.1827 -0.4006  0.1136
  187POPC  H13X21535   3.297   3.308   4.561 -1.1330 -1.3724  2.3640
  187POPC  H13Y21536   3.135   3.384   4.565 -0.2752  0.8412 -1.4488
  187POPC  C31421537   3.282   3.444   4.729  0.4626 -0.2774  0.3274
  187POPC  H14X21538   3.219   3.525   4.773 -0.0500  0.2452 -1.2867
  187POPC  H14Y21539   3.388   3.476   4.733  0.7817 -1.0735 -1.0766
  187POPC  C31521540   3.256   3.327   4.827  0.0356 -0.9174  0.7440
  187POPC  H15X21541   3.152   3.291   4.807  0.8478 -1.8351 -2.3867
  187POPC  H15Y21542   3.254   3.376   4.927 -0.3700  1.3598 -0.3231
  187POPC  C31621543   3.355   3.214   4.814  0.0896  0.2165  0.1018
  187POPC  H16X21544   3.335   3.136   4.890 -3.6929  0.4746 -0.4253
  187POPC  H16Y21545   3.458   3.253   4.821  0.6931 -0.6023 -2.7871
  187POPC  H16Z21546   3.341   3.171   4.713 -0.8566  1.1629 -0.1961
  188POPC     N21547   3.847   1.248   2.195  0.1380  0.2651 -0.0807
  188POPC   C1221548   3.878   1.172   2.325  0.1823  0.6676  0.2848
  188POPC  H12A21549   3.950   1.094   2.307 -0.1788  0.2839  0.4685
  188POPC  H12B21550   3.796   1.110   2.359  2.2761 -1.4033  1.8297
  188POPC   C1321551   3.961   1.326   2.149  0.5502 -0.3869 -0.7692
  188POPC  H13A21552   4.001   1.392   2.225 -0.9162  0.0210 -0.3275
  188POPC  H13B21553   4.047   1.266   2.121  0.0590 -2.4580  1.7790
  188POPC  H13C21554   3.930   1.394   2.071 -2.0442 -0.0791  0.4323
  188POPC   C1421555   3.827   1.144   2.086 -0.7371 -0.0256  0.2424
  188POPC  H14A21556   3.743   1.079   2.103  0.0769 -1.1289  0.1904
  188POPC  H14B21557   3.805   1.197   1.995 -3.5373  0.3202  1.0269
  188POPC  H14C21558   3.917   1.085   2.083  0.1824  1.3698 -1.8395
  188POPC   C1521559   3.721   1.332   2.194  0.5877 -0.1567 -0.1126
  188POPC  H15A21560   3.637   1.265   2.203  1.3415 -1.2200 -0.8414
  188POPC  H15B21561   3.721   1.392   2.104 -2.8473 -0.5766 -0.5429
  188POPC  H15C21562   3.719   1.402   2.276 -2.0240  1.1367 -1.1655
  188POPC   C1121563   3.912   1.257   2.448 -0.3561  0.5760  0.2997
  188POPC  H11A21564   4.010   1.306   2.430  1.1590 -1.4596  2.4293
  188POPC  H11B21565   3.925   1.181   2.528  0.1233  0.3000 -0.0268
  188POPC     P21566   3.686   1.300   2.569  0.4002  0.1722 -0.1706
  188POPC   O1321567   3.597   1.227   2.473 -0.5368  0.8540 -0.2306
  188POPC   O1421568   3.618   1.414   2.635  0.6582 -0.5996  0.4275
  188POPC   O1221569   3.818   1.351   2.488  0.3381 -0.5191 -0.3082
  188POPC   O1121570   3.737   1.201   2.680  0.0560  0.5039 -0.2598
  188POPC    C121571   3.839   1.228   2.779  0.2779 -0.2999 -0.0554
  188POPC    HA21572   3.890   1.325   2.759 -0.2700 -0.1714 -0.8885
  188POPC    HB21573   3.912   1.145   2.769 -0.5515 -1.2369  1.4125
  188POPC    C221574   3.798   1.236   2.920  0.1419  0.5878  0.5293
  188POPC    HS21575   3.738   1.143   2.935  1.9912 -0.7365  0.1661
  188POPC   O2121576   3.724   1.360   2.949  0.0080 -0.5766  0.2975
  188POPC   C2121577   3.599   1.343   2.974  0.2163 -0.3861 -0.1104
  188POPC   O2221578   3.537   1.240   2.959  0.7843 -0.1008 -0.0824
  188POPC   C2221579   3.530   1.478   3.007 -0.6383  0.1703 -0.3397
  188POPC   H2R21580   3.427   1.476   2.965 -0.9415 -0.7960  0.4203
  188POPC   H2S21581   3.580   1.569   2.969  0.7104  0.8972  2.8514
  188POPC    C321582   3.916   1.225   3.020  0.5854 -0.2246 -0.1404
  188POPC    HX21583   3.977   1.313   2.990  0.0108 -1.1657 -4.9537
  188POPC    HY21584   3.977   1.138   2.985 -0.2889  0.5010 -3.9461
  188POPC   O3121585   3.872   1.218   3.159  0.3511 -0.1118 -0.2033
  188POPC   C3121586   3.868   1.105   3.221 -0.3913 -0.4839 -0.2594
  188POPC   O3221587   3.904   0.998   3.180 -0.2632  0.7558 -0.1886
  188POPC   C3221588   3.831   1.121   3.368  0.2416 -0.4827  0.0993
  188POPC   H2X21589   3.725   1.154   3.370  0.8322  1.7299 -1.2252
  188POPC   H2Y21590   3.904   1.192   3.414  2.2808 -2.0976 -0.4832
  188POPC   C2321591   3.519   1.488   3.168 -0.2226 -0.5498  0.1212
  188POPC   H3R21592   3.441   1.566   3.181 -0.1017 -0.5574  0.9625
  188POPC   H3S21593   3.610   1.532   3.215 -0.8894 -0.9124  1.8537
  188POPC   C2421594   3.468   1.357   3.241  0.0820  0.1977  0.3054
  188POPC   H4R21595   3.561   1.300   3.263  0.7549  1.8320  1.9303
  188POPC   H4S21596   3.402   1.302   3.169 -1.4046  1.0439  0.9728
  188POPC   C2521597   3.395   1.372   3.378 -0.1075 -0.3969  0.0178
  188POPC   H5R21598   3.385   1.270   3.422  0.6972 -0.6891 -0.4579
  188POPC   H5S21599   3.302   1.429   3.358  0.4316  0.4578 -0.0986
  188POPC   C2621600   3.465   1.463   3.481  0.4381  0.3576  0.2875
  188POPC   H6R21601   3.386   1.507   3.545  1.8967  3.3815  0.1804
  188POPC   H6S21602   3.513   1.547   3.426  0.8022 -0.2968 -0.4209
  188POPC   C2721603   3.579   1.402   3.565 -0.6403 -0.3246 -0.5402
  188POPC   H7R21604   3.638   1.491   3.593  1.3442 -0.9273 -2.4938
  188POPC   H7S21605   3.639   1.340   3.495 -1.8140 -0.1619 -1.7323
  188POPC   C2821606   3.529   1.325   3.690  0.4447 -0.8015 -0.2033
  188POPC   H8R21607   3.464   1.245   3.648 -1.7887  1.7272 -1.9760
  188POPC   H8S21608   3.471   1.402   3.746 -0.2173 -1.2484 -0.2529
  188POPC   C2921609   3.631   1.252   3.774 -0.7238 -0.1419 -0.6288
  188POPC   H9121610   3.710   1.205   3.713 -1.0430 -0.0799 -1.0989
  188POPC  C21021611   3.639   1.247   3.907 -1.3159 -0.3431 -0.5525
  188POPC  H10121612   3.717   1.189   3.959 -2.5645 -0.6996  0.9839
  188POPC  C21121613   3.535   1.304   3.997  0.6623  0.2285  0.5177
  188POPC  H11R21614   3.438   1.315   3.945 -0.3367 -1.5136  1.8798
  188POPC  H11S21615   3.569   1.405   4.030  1.0225  0.0469  0.7109
  188POPC  C21221616   3.515   1.232   4.126  0.4063  0.0400 -0.1186
  188POPC  H12R21617   3.522   1.123   4.103  0.2584  0.4925 -2.6384
  188POPC  H12S21618   3.420   1.268   4.172  0.5917  1.6551 -0.9274
  188POPC  C21321619   3.625   1.261   4.232  0.0398 -0.4540 -0.4318
  188POPC  H13R21620   3.672   1.362   4.231 -1.9917  0.6075  1.8255
  188POPC  H13S21621   3.709   1.195   4.201  0.6731 -0.4175  1.1225
  188POPC  C21421622   3.566   1.241   4.380  0.0398  0.2066  0.0119
  188POPC  H14R21623   3.504   1.149   4.386 -1.1950  1.0480  0.3819
  188POPC  H14S21624   3.507   1.334   4.396  1.8497  1.2422  1.0744
  188POPC  C21521625   3.670   1.247   4.493  0.2630 -0.1157  0.0150
  188POPC  H15R21626   3.743   1.328   4.475 -0.4401  0.5366  0.0834
  188POPC  H15S21627   3.727   1.153   4.475 -0.7293 -0.7733  0.2136
  188POPC  C21621628   3.612   1.233   4.637  0.3688 -0.4342  0.1269
  188POPC  H16R21629   3.544   1.145   4.635 -2.0585  1.2454  2.2640
  188POPC  H16S21630   3.544   1.319   4.654 -2.3694 -1.9095 -2.3880
  188POPC  C21721631   3.702   1.232   4.754  0.2007  0.4749 -0.2825
  188POPC  H17R21632   3.757   1.329   4.759  3.7117 -1.3910  3.3641
  188POPC  H17S21633   3.789   1.163   4.745 -0.7188 -1.0702  1.8813
  188POPC  C21821634   3.634   1.217   4.888  0.3914 -0.2085  0.1015
  188POPC  H18R21635   3.581   1.119   4.882  1.2526 -0.6693 -0.0722
  188POPC  H18S21636   3.565   1.299   4.918 -0.2190 -1.4351  2.2363
  188POPC  H18T21637   3.711   1.209   4.968 -0.3345 -2.3109  0.6680
  188POPC   C3321638   3.844   0.983   3.439 -0.0227 -0.3861  0.5315
  188POPC   H3X21639   3.940   0.932   3.414 -0.7591 -1.5406 -0.0648
  188POPC   H3Y21640   3.762   0.919   3.399 -0.8320  0.8734  0.0963
  188POPC   C3421641   3.838   1.000   3.587 -0.2373 -1.1074 -0.1587
  188POPC   H4X21642   3.736   1.036   3.611  0.4230 -0.1477  1.3522
  188POPC   H4Y21643   3.906   1.079   3.626 -0.5481 -1.4335  1.1131
  188POPC   C3521644   3.872   0.870   3.662 -0.1646 -0.6619  0.3805
  188POPC   H5X21645   3.982   0.863   3.646 -0.2689  1.0987 -1.4862
  188POPC   H5Y21646   3.810   0.792   3.614 -0.0088 -1.0812  0.8485
  188POPC   C3621647   3.840   0.875   3.817 -0.0695  0.0940 -0.2600
  188POPC   H6X21648   3.730   0.866   3.828  0.1258 -1.3218  0.7945
  188POPC   H6Y21649   3.878   0.969   3.865  0.4888 -1.4137  2.4403
  188POPC   C3721650   3.890   0.753   3.893 -0.6532  0.1054  0.1937
  188POPC   H7X21651   3.996   0.782   3.908 -0.7213  1.4074 -1.4800
  188POPC   H7Y21652   3.883   0.663   3.828  1.1128  0.2399 -0.2248
  188POPC   C3821653   3.820   0.724   4.033 -0.6839 -0.1494  0.4551
  188POPC   H8X21654   3.893   0.661   4.088  1.9292  0.9327 -1.5465
  188POPC   H8Y21655   3.730   0.659   4.022 -0.5667 -0.1633 -0.5137
  188POPC   C3921656   3.785   0.854   4.120 -0.4337  0.6424 -0.1121
  188POPC   H9X21657   3.689   0.888   4.075 -0.6253  0.1688 -0.0735
  188POPC   H9Y21658   3.856   0.937   4.102 -0.0729  0.0193 -1.6716
  188POPC  C31021659   3.770   0.830   4.273  0.1235 -0.0843 -0.0324
  188POPC  H10X21660   3.733   0.919   4.328 -0.3584 -2.0299  3.0288
  188POPC  H10Y21661   3.860   0.794   4.328 -2.0365 -3.0597  1.8362
  188POPC  C31121662   3.668   0.712   4.300 -0.3342  0.7387  0.9725
  188POPC  H11X21663   3.714   0.623   4.252 -2.0659 -1.1405  2.5626
  188POPC  H11Y21664   3.574   0.735   4.244  1.1851  0.6047 -1.8148
  188POPC  C31221665   3.640   0.676   4.438 -0.8173 -0.1735 -0.8242
  188POPC  H12X21666   3.578   0.584   4.440 -0.8031 -0.1923 -1.1851
  188POPC  H12Y21667   3.598   0.768   4.484  0.1156  0.8091 -1.8811
  188POPC  C31321668   3.773   0.642   4.517  0.7526  0.0078 -0.0500
  188POPC  H13X21669   3.827   0.736   4.543 -1.4885  0.9041  1.6667
  188POPC  H13Y21670   3.849   0.579   4.465  1.3030  0.4820  0.1560
  188POPC  C31421671   3.746   0.574   4.654  0.2294 -0.7138 -0.2497
  188POPC  H14X21672   3.844   0.547   4.699  1.3476  1.3904 -1.2563
  188POPC  H14Y21673   3.680   0.487   4.635  1.1884 -1.6072  0.3972
  188POPC  C31521674   3.668   0.668   4.753 -0.1064  0.1184 -0.0446
  188POPC  H15X21675   3.669   0.615   4.850  2.3651 -0.5695 -0.3631
  188POPC  H15Y21676   3.567   0.688   4.713  0.3116  2.7731  0.0308
  188POPC  C31621677   3.737   0.805   4.773 -0.1385  0.0997 -0.1810
  188POPC  H16X21678   3.838   0.784   4.813 -0.9712  1.1303  2.7193
  188POPC  H16Y21679   3.672   0.855   4.849 -1.6295 -0.5190 -0.9967
  188POPC  H16Z21680   3.741   0.861   4.678 -0.7081 -1.6643 -1.2955
  189SAPI   C1221681   1.519   1.200   7.675 -0.4417  0.6011  0.1076
  189SAPI    H221682   1.553   1.101   7.640  0.6195  0.1476  2.2569
  189SAPI    O221683   1.383   1.231   7.641 -0.5927 -0.4480  0.4490
  189SAPI   HO221684   1.371   1.221   7.547  0.1938  0.4350  0.2441
  189SAPI   C1321685   1.526   1.197   7.827 -0.3057 -0.4781  0.4223
  189SAPI    H321686   1.635   1.188   7.846 -0.1425 -1.3507 -0.7917
  189SAPI    O321687   1.458   1.084   7.877  0.0217  0.1604  0.8491
  189SAPI   HO321688   1.520   1.036   7.932  1.4350  2.4298  1.3450
  189SAPI   C1421689   1.482   1.326   7.887 -0.0352 -0.7134  0.6243
  189SAPI    H421690   1.371   1.326   7.891 -0.1402  2.3750  0.2282
  189SAPI    O421691   1.524   1.334   8.021  0.0850 -0.1896  0.7996
  189SAPI   HO421692   1.592   1.399   8.038  4.7946 -3.5433 -2.3759
  189SAPI   C1521693   1.532   1.452   7.813  0.3354 -0.0095 -0.0804
  189SAPI    H521694   1.631   1.477   7.856 -0.2581  0.4881  1.0090
  189SAPI    O521695   1.451   1.573   7.837  0.0129  0.5005  0.7998
  189SAPI   HO521696   1.504   1.651   7.853 -0.3168  0.5968  1.4528
  189SAPI   C1621697   1.572   1.444   7.663  0.1915  0.2392 -0.7647
  189SAPI    H621698   1.473   1.465   7.617 -0.0884  1.0877  0.1772
  189SAPI    O621699   1.675   1.540   7.628  0.5412 -0.1611  0.3070
  189SAPI   HO621700   1.632   1.617   7.589 -0.3419 -0.1017  1.3569
  189SAPI   C1121701   1.615   1.303   7.625 -0.3566  0.6724  0.1819
  189SAPI    H121702   1.718   1.280   7.661 -0.3141  0.9292  0.2192
  189SAPI     P21703   1.749   1.253   7.398 -0.4387  0.1526  0.0770
  189SAPI   O1321704   1.848   1.188   7.480 -0.7278 -0.1552  0.0376
  189SAPI   O1421705   1.796   1.370   7.319 -0.1888 -0.2011 -0.7127
  189SAPI   O1221706   1.611   1.295   7.481  0.2772 -0.5720  0.2137
  189SAPI   O1121707   1.698   1.144   7.305  0.1136 -0.0670  0.4399
  189SAPI    C121708   1.578   1.145   7.224 -0.2103  0.3772 -0.8179
  189SAPI    HA21709   1.565   1.038   7.200  1.2540 -0.2083  0.8107
  189SAPI    HB21710   1.490   1.177   7.285 -1.3633 -0.6602 -1.8835
  189SAPI    C221711   1.588   1.215   7.093 -0.0260  0.4449  0.6135
  189SAPI    HS21712   1.567   1.323   7.108  0.4863  0.5149  0.8512
  189SAPI   O2121713   1.493   1.150   7.005 -0.6238 -0.8019 -0.2427
  189SAPI   C2121714   1.399   1.224   6.955 -0.1754 -0.4685 -0.0251
  189SAPI   O2221715   1.388   1.346   6.961  0.5811  0.3893 -0.5695
  189SAPI   C2221716   1.278   1.136   6.914 -0.5945 -0.2342 -0.3215
  189SAPI   H2R21717   1.325   1.047   6.867 -0.5671 -0.3071 -0.1588
  189SAPI   H2S21718   1.226   1.101   7.006  0.0909  2.9225  1.4119
  189SAPI    C321719   1.734   1.214   7.020  0.2573 -0.0901 -0.2498
  189SAPI    HX21720   1.780   1.115   7.001 -0.5867 -0.0458 -3.0483
  189SAPI    HY21721   1.808   1.271   7.080  0.4654 -0.8161  0.1952
  189SAPI   O3121722   1.718   1.270   6.883  0.1490  0.0219  0.0684
  189SAPI   C3121723   1.704   1.404   6.883 -0.3852  0.7059 -0.4883
  189SAPI   O3221724   1.716   1.475   6.981 -0.4706 -0.0886  0.6228
  189SAPI   C3221725   1.686   1.463   6.745  0.0959  0.1161  0.5185
  189SAPI   H2X21726   1.596   1.528   6.745 -0.2498 -0.3184 -1.0438
  189SAPI   H2Y21727   1.666   1.382   6.671 -1.1400 -0.1648  1.1317
  189SAPI   C2321728   1.181   1.211   6.828 -0.0981  0.0875  0.3205
  189SAPI   H3R21729   1.162   1.314   6.865  1.8876  0.9737 -0.9839
  189SAPI   H3S21730   1.082   1.162   6.839  0.2059 -0.4439  0.7517
  189SAPI   C2421731   1.210   1.225   6.677 -0.6221  0.0531  0.0779
  189SAPI   H4R21732   1.116   1.246   6.621  0.1843  0.8549 -1.0506
  189SAPI   H4S21733   1.249   1.124   6.654 -1.8228 -0.1697 -1.1285
  189SAPI   C2521734   1.316   1.330   6.640  0.2050 -0.0574  0.1865
  189SAPI   H5R21735   1.322   1.416   6.710 -0.4372 -0.0391  0.2185
  189SAPI   C2621736   1.391   1.340   6.528 -0.2555 -0.7628 -0.1935
  189SAPI   H6R21737   1.461   1.424   6.522  0.5725 -1.5114 -1.4114
  189SAPI   C2721738   1.393   1.238   6.417  0.0337 -0.1793  0.0178
  189SAPI   H7R21739   1.299   1.253   6.360  0.9227 -0.8595 -1.6828
  189SAPI   H7S21740   1.395   1.135   6.458 -1.9148 -0.3836 -0.2758
  189SAPI   C2821741   1.511   1.263   6.324 -0.1897  0.0107 -0.3175
  189SAPI   H8R21742   1.613   1.259   6.366  0.8060 -0.7110 -2.6606
  189SAPI   C2921743   1.508   1.317   6.200  0.0430 -0.1532  0.5220
  189SAPI   H9R21744   1.599   1.316   6.138 -0.3685 -0.9338 -0.0857
  189SAPI  C21021745   1.383   1.344   6.129 -0.0481  0.3865 -0.7027
  189SAPI  H10R21746   1.407   1.424   6.057 -0.2108  1.0092 -0.0775
  189SAPI  H10S21747   1.311   1.397   6.195  1.3873  0.6701  0.7043
  189SAPI  C21121748   1.315   1.229   6.059  0.2317  0.1489  0.8263
  189SAPI  H11R21749   1.258   1.159   6.122  0.0116 -0.5065 -0.0857
  189SAPI  C21221750   1.307   1.209   5.925  0.2815 -0.2238  0.1622
  189SAPI  H12R21751   1.261   1.116   5.890  0.6203  0.1457 -1.3616
  189SAPI  C21321752   1.370   1.305   5.827 -0.2976  0.2731 -0.0113
  189SAPI  H13R21753   1.466   1.342   5.869 -1.4647  1.8713  1.3688
  189SAPI  H13S21754   1.305   1.393   5.809  0.2431  0.5609 -0.6415
  189SAPI  C21421755   1.381   1.244   5.688 -0.4497 -0.4413 -0.2898
  189SAPI  H14R21756   1.290   1.192   5.655 -1.3595  1.4301 -0.8731
  189SAPI  C21521757   1.473   1.281   5.597 -0.0167  0.3581 -0.4244
  189SAPI  H15R21758   1.448   1.242   5.498 -0.8545  1.0726 -0.5080
  189SAPI  C21621759   1.586   1.385   5.606 -0.5795 -0.2092 -0.3914
  189SAPI  H16R21760   1.682   1.329   5.602 -1.1180 -1.1257 -0.8872
  189SAPI  H16S21761   1.582   1.443   5.701  0.4844 -0.8151  0.0484
  189SAPI  C21721762   1.577   1.502   5.501  0.4216  0.7103  0.5398
  189SAPI  H17R21763   1.647   1.583   5.532 -0.7909  2.4357 -1.0098
  189SAPI  H17S21764   1.476   1.548   5.503 -0.0283 -0.2191 -0.0629
  189SAPI  C21821765   1.621   1.449   5.360  0.4353  0.1776 -0.8378
  189SAPI  H18R21766   1.533   1.398   5.315  1.0363 -0.0985 -1.7202
  189SAPI  H18S21767   1.706   1.378   5.371 -1.4803 -2.3517 -1.4087
  189SAPI  C21921768   1.669   1.567   5.266  0.0956  0.6815  0.0390
  189SAPI  H19R21769   1.706   1.514   5.175  0.3665  1.3159 -0.2309
  189SAPI  H19S21770   1.749   1.623   5.318 -0.5734  0.2623  1.5531
  189SAPI  C22021771   1.560   1.667   5.231  0.0979 -0.2993 -0.1377
  189SAPI  H20R21772   1.592   1.744   5.157  0.8469 -0.5746 -0.1114
  189SAPI  H20S21773   1.543   1.726   5.323  0.0248 -2.2709  1.1852
  189SAPI  H20T21774   1.467   1.615   5.197 -0.0122 -1.5000  1.8257
  189SAPI   C3321775   1.807   1.553   6.703  0.3664 -0.1859  0.8776
  189SAPI   H3X21776   1.902   1.497   6.691 -0.0992 -0.5119 -2.3303
  189SAPI   H3Y21777   1.824   1.641   6.769  0.4833  1.0538 -0.7226
  189SAPI   C3421778   1.782   1.617   6.554 -0.3267  0.6071 -0.3561
  189SAPI   H4X21779   1.676   1.648   6.566 -1.3072 -1.1711 -3.2590
  189SAPI   H4Y21780   1.792   1.529   6.487  0.0867  1.7161 -1.7933
  189SAPI   C3521781   1.881   1.722   6.514 -0.2963 -0.7207  0.3344
  189SAPI   H5X21782   1.986   1.688   6.517  0.8719  2.3188 -1.5624
  189SAPI   H5Y21783   1.877   1.800   6.592  1.2228  1.1186 -1.3144
  189SAPI   C3621784   1.847   1.778   6.373  0.4930 -0.4770  0.0165
  189SAPI   H6X21785   1.741   1.792   6.343  0.0805 -1.4201  0.9513
  189SAPI   H6Y21786   1.888   1.706   6.298 -0.3069 -1.2744  0.3309
  189SAPI   C3721787   1.910   1.922   6.346  0.2719  0.5456  0.1293
  189SAPI   H7X21788   2.020   1.914   6.332  0.3731  2.0294 -0.1148
  189SAPI   H7Y21789   1.890   1.974   6.442 -0.0095  0.9676 -0.1533
  189SAPI   C3821790   1.864   2.020   6.236  0.0113  0.7054 -0.3036
  189SAPI   H8X21791   1.921   2.113   6.254  0.9608  0.0560  0.0894
  189SAPI   H8Y21792   1.755   2.043   6.245  0.3142  1.9352  0.4176
  189SAPI   C3921793   1.891   1.957   6.101 -0.0556  0.2709 -0.6493
  189SAPI   H9X21794   1.848   1.855   6.099  2.0352 -0.6433 -0.6760
  189SAPI   H9Y21795   2.000   1.940   6.096 -0.0614  0.5227 -1.8515
  189SAPI  C31021796   1.833   2.043   5.981 -0.2826 -0.4839  0.4644
  189SAPI  H10X21797   1.867   2.148   5.990  3.7632 -1.3306 -2.1770
  189SAPI  H10Y21798   1.724   2.049   5.997 -0.3890 -0.5315 -0.2217
  189SAPI  C31121799   1.855   1.992   5.841  0.2532  0.4596  0.6031
  189SAPI  H11X21800   1.963   2.010   5.818  0.0466  0.5298 -0.3774
  189SAPI  H11Y21801   1.789   2.048   5.772 -1.3569  0.9199  2.4387
  189SAPI  C31221802   1.834   1.839   5.805  0.0615 -0.2615  0.8395
  189SAPI  H12X21803   1.730   1.816   5.836 -0.5406  1.9831  0.6432
  189SAPI  H12Y21804   1.900   1.764   5.854 -0.6774 -0.0238  2.2631
  189SAPI  C31321805   1.839   1.814   5.655 -0.2125  0.1376 -0.8088
  189SAPI  H13X21806   1.759   1.868   5.601 -0.4677  0.3525 -0.2278
  189SAPI  H13Y21807   1.823   1.706   5.639  1.5975 -0.5600  1.5316
  189SAPI  C31421808   1.973   1.851   5.593 -0.0171 -0.4878 -0.3873
  189SAPI  H14X21809   2.049   1.772   5.608  0.0707 -0.7778 -2.1842
  189SAPI  H14Y21810   2.005   1.951   5.629 -0.6694 -0.7121  0.8698
  189SAPI  C31521811   1.973   1.849   5.441 -0.1483  0.0489  0.1996
  189SAPI  H15X21812   1.913   1.940   5.422  0.4321  0.2513 -0.7258
  189SAPI  H15Y21813   1.919   1.758   5.409 -0.6543  0.5065 -0.2529
  189SAPI  C31621814   2.118   1.847   5.394  1.2220 -0.3319  0.1149
  189SAPI  H16X21815   2.167   1.756   5.435 -0.6827 -1.5003 -0.1183
  189SAPI  H16Y21816   2.166   1.936   5.441  1.1905  0.3299 -1.0551
  189SAPI  C31721817   2.130   1.862   5.240  0.1346  0.4209 -0.2230
  189SAPI  H17X21818   2.101   1.967   5.219 -0.2948  0.3418 -0.0500
  189SAPI  H17Y21819   2.057   1.794   5.191  1.0392  0.1016 -1.1462
  189SAPI  C31821820   2.272   1.848   5.178 -0.0274  0.1385  0.5228
  189SAPI  H18X21821   2.346   1.925   5.208 -0.8034  0.4544  1.7097
  189SAPI  H18Y21822   2.251   1.848   5.069 -0.2964 -2.2063  0.5142
  189SAPI  H18Z21823   2.328   1.752   5.185 -1.2202 -1.0486 -3.3465
  190SAPI   C1221824   0.664   4.740   7.534  0.2124 -0.8684  0.5207
  190SAPI    H221825   0.760   4.795   7.524 -1.2087  1.4880 -1.7263
  190SAPI    O221826   0.679   4.641   7.634  0.2721 -0.4258 -0.0021
  190SAPI   HO221827   0.749   4.578   7.612  1.4800  0.2945  1.5441
  190SAPI   C1321828   0.554   4.837   7.562  0.1101 -0.1631 -0.3584
  190SAPI    H321829   0.523   4.910   7.484 -1.2798  1.6268  1.7363
  190SAPI    O321830   0.581   4.916   7.678  0.3110  0.4543 -0.0694
  190SAPI   HO321831   0.556   4.860   7.752 -1.0516  0.2611 -0.6416
  190SAPI   C1421832   0.421   4.758   7.589 -0.5575  0.2910 -0.5296
  190SAPI    H421833   0.435   4.706   7.686 -1.5351  2.5919  0.9497
  190SAPI    O421834   0.315   4.849   7.620 -0.4353  0.3760  0.7716
  190SAPI   HO421835   0.257   4.799   7.677 -1.3489  0.0827 -0.3735
  190SAPI   C1521836   0.378   4.671   7.479  0.8783  0.0334 -0.6600
  190SAPI    H521837   0.324   4.729   7.402 -0.1299 -2.6307 -2.0907
  190SAPI    O521838   0.284   4.574   7.524 -0.0774 -0.3490  0.2946
  190SAPI   HO521839   0.205   4.557   7.473  0.4571 -1.0703 -0.3251
  190SAPI   C1621840   0.495   4.607   7.405 -0.1251  0.0453 -0.7406
  190SAPI    H621841   0.533   4.519   7.462  1.0494  0.6824 -0.5035
  190SAPI    O621842   0.452   4.556   7.276 -0.2829  0.0541 -0.3245
  190SAPI   HO621843   0.503   4.482   7.245  0.2884 -0.4954  1.7798
  190SAPI   C1121844   0.626   4.688   7.395 -0.0030 -0.7516  0.2464
  190SAPI    H121845   0.604   4.777   7.332  0.5800  0.3433  1.5487
  190SAPI     P21846   0.840   4.664   7.232 -0.1969 -0.0935  0.1034
  190SAPI   O1321847   0.977   4.613   7.253  0.1432  0.1305 -0.6245
  190SAPI   O1421848   0.835   4.814   7.223 -0.3050  0.2733  0.6388
  190SAPI   O1221849   0.740   4.609   7.351  0.0417  0.6714  0.1332
  190SAPI   O1121850   0.786   4.611   7.095  0.5300  0.0191  0.1601
  190SAPI    C121851   0.755   4.680   6.982  0.2255 -0.4258  0.6205
  190SAPI    HA21852   0.658   4.733   6.995  0.8008  0.8657 -0.0395
  190SAPI    HB21853   0.842   4.748   6.965  1.1586 -0.8198  3.3264
  190SAPI    C221854   0.734   4.580   6.864 -0.2361  0.3466  0.0992
  190SAPI    HS21855   0.719   4.638   6.770  0.7087  1.1698  0.4424
  190SAPI   O2121856   0.627   4.486   6.875  0.1630 -0.4330  0.4944
  190SAPI   C2121857   0.512   4.530   6.842  0.7286  0.2889 -0.1429
  190SAPI   O2221858   0.486   4.641   6.803  0.3085 -0.6715 -0.3620
  190SAPI   C2221859   0.403   4.428   6.875 -0.2022 -0.1702 -0.0623
  190SAPI   H2R21860   0.421   4.332   6.823 -0.8639  0.1827 -0.9675
  190SAPI   H2S21861   0.415   4.421   6.985  1.1569 -0.7409 -0.2315
  190SAPI    C321862   0.861   4.497   6.847  0.2144 -0.1583  0.4332
  190SAPI    HX21863   0.877   4.431   6.934  1.9055 -1.4440 -0.7911
  190SAPI    HY21864   0.948   4.565   6.840 -1.1038  1.5605 -0.1866
  190SAPI   O3121865   0.851   4.405   6.732 -0.4914 -0.1688  0.3580
  190SAPI   C3121866   0.961   4.373   6.665 -0.8948 -0.2743  0.5287
  190SAPI   O3221867   1.074   4.390   6.705 -0.0309  0.2558 -0.1644
  190SAPI   C3221868   0.925   4.321   6.528  0.0050 -0.3808  0.3906
  190SAPI   H2X21869   0.821   4.358   6.517  0.7696  1.6331 -0.4267
  190SAPI   H2Y21870   0.936   4.210   6.528  1.2333 -0.2805 -0.2665
  190SAPI   C2321871   0.254   4.466   6.842  0.7928  0.7915 -0.2195
  190SAPI   H3R21872   0.231   4.573   6.861 -0.2839  0.6779 -0.7538
  190SAPI   H3S21873   0.196   4.391   6.901  0.8258 -1.3639 -2.7461
  190SAPI   C2421874   0.215   4.452   6.692 -1.0163 -0.1832 -0.1914
  190SAPI   H4R21875   0.281   4.524   6.639 -0.8878  0.4011  0.7486
  190SAPI   H4S21876   0.110   4.477   6.666 -1.3042 -2.1123 -1.0231
  190SAPI   C2521877   0.216   4.309   6.644  0.0939 -0.2116 -0.5753
  190SAPI   H5R21878   0.140   4.252   6.700 -1.7402  3.6759  1.2419
  190SAPI   C2621879   0.295   4.249   6.558 -0.5291  0.2849  0.1331
  190SAPI   H6R21880   0.267   4.148   6.526  1.4934  0.2286 -1.6608
  190SAPI   C2721881   0.402   4.314   6.475  0.5101 -0.0681 -0.8427
  190SAPI   H7R21882   0.413   4.420   6.503  1.3790 -0.4261  0.2159
  190SAPI   H7S21883   0.375   4.312   6.367  0.7862  3.8305 -1.1010
  190SAPI   C2821884   0.535   4.246   6.504  0.6773 -0.0385 -0.5241
  190SAPI   H8R21885   0.574   4.267   6.605 -0.8126  0.4226 -0.0012
  190SAPI   C2921886   0.600   4.158   6.427  0.7796 -0.2614  0.0697
  190SAPI   H9R21887   0.697   4.130   6.472  0.8458 -0.5235 -0.2302
  190SAPI  C21021888   0.561   4.109   6.289 -0.3357 -0.7601 -0.2301
  190SAPI  H10R21889   0.648   4.114   6.220 -1.3264  1.1747 -1.4131
  190SAPI  H10S21890   0.504   4.190   6.240  0.2003  0.7334  1.5182
  190SAPI  C21121891   0.490   3.977   6.282 -0.4211 -0.3505  0.4106
  190SAPI  H11R21892   0.446   3.929   6.370  1.9369 -1.6156  0.9742
  190SAPI  C21221893   0.466   3.916   6.164  0.9557  0.4450 -0.6142
  190SAPI  H12R21894   0.412   3.819   6.164  2.2059 -0.3003  1.5660
  190SAPI  C21321895   0.502   3.955   6.021  0.0837 -0.1017 -0.0265
  190SAPI  H13R21896   0.554   4.053   6.012 -0.7823  0.3916  0.2557
  190SAPI  H13S21897   0.414   3.959   5.954  0.5391  1.0307 -0.5955
  190SAPI  C21421898   0.593   3.847   5.954  0.4555  0.0735 -0.8634
  190SAPI  H14R21899   0.584   3.745   5.996  0.6327  0.2067 -0.4968
  190SAPI  C21521900   0.668   3.862   5.845  0.1413  0.2591 -0.6106
  190SAPI  H15R21901   0.731   3.778   5.813  1.2754  1.2728 -1.1196
  190SAPI  C21621902   0.698   3.991   5.773  0.2325  0.9784 -0.4282
  190SAPI  H16R21903   0.806   4.011   5.788  0.1061  1.0521  0.3907
  190SAPI  H16S21904   0.635   4.073   5.812 -0.6285 -0.5984  1.7353
  190SAPI  C21721905   0.665   3.962   5.634 -0.1934 -0.5800  0.3210
  190SAPI  H17R21906   0.560   3.932   5.616 -0.2207  0.9062 -2.5330
  190SAPI  H17S21907   0.723   3.877   5.592  0.0287 -1.3293  2.0524
  190SAPI  C21821908   0.685   4.087   5.540 -0.3267 -0.1481  0.1007
  190SAPI  H18R21909   0.793   4.111   5.538  0.2415 -2.4283  0.7751
  190SAPI  H18S21910   0.632   4.176   5.582 -1.8137 -1.6196  1.4901
  190SAPI  C21921911   0.635   4.069   5.393  0.1243  0.5974 -0.0129
  190SAPI  H19R21912   0.529   4.036   5.398  0.7755 -1.6480  0.8105
  190SAPI  H19S21913   0.689   3.979   5.358  1.1238  1.0820  0.2559
  190SAPI  C22021914   0.660   4.186   5.289 -0.4494 -0.5175  0.1902
  190SAPI  H20R21915   0.625   4.155   5.188 -0.2831  0.4646 -0.1738
  190SAPI  H20S21916   0.766   4.218   5.279 -1.7366  4.1790 -0.8108
  190SAPI  H20T21917   0.604   4.279   5.313  1.7074  1.2200 -1.1221
  190SAPI   C3321918   1.000   4.392   6.416  0.0550 -0.2670 -0.0525
  190SAPI   H3X21919   1.099   4.343   6.403 -0.6463 -1.7950  0.1042
  190SAPI   H3Y21920   1.027   4.495   6.449 -0.0051 -0.3346  0.2121
  190SAPI   C3421921   0.925   4.413   6.285 -0.4586  1.0709 -0.1527
  190SAPI   H4X21922   0.985   4.490   6.232  1.4913 -0.7271 -0.7006
  190SAPI   H4Y21923   0.826   4.460   6.301 -0.4956  0.7745  0.4994
  190SAPI   C3521924   0.896   4.283   6.205  0.4098  0.6637 -0.3826
  190SAPI   H5X21925   0.836   4.207   6.261 -1.4438  1.1392 -1.6377
  190SAPI   H5Y21926   0.996   4.249   6.171  1.3012  2.8383 -0.0472
  190SAPI   C3621927   0.814   4.318   6.078 -0.0274 -0.8139  0.2725
  190SAPI   H6X21928   0.736   4.388   6.114  0.5864 -0.7483  1.4936
  190SAPI   H6Y21929   0.776   4.224   6.030  0.8402 -2.0607  1.9306
  190SAPI   C3721930   0.896   4.392   5.968 -0.2836 -0.0153 -0.2030
  190SAPI   H7X21931   0.986   4.335   5.940  0.4967  2.3661 -3.1155
  190SAPI   H7Y21932   0.929   4.493   6.002 -0.0405  0.7737 -2.5353
  190SAPI   C3821933   0.827   4.407   5.827 -0.3418 -0.3092 -0.2520
  190SAPI   H8X21934   0.718   4.427   5.839 -0.1481  0.4625  0.3170
  190SAPI   H8Y21935   0.846   4.317   5.765  0.7502  0.1908 -0.6680
  190SAPI   C3921936   0.875   4.535   5.754  0.0099  0.3470 -0.5522
  190SAPI   H9X21937   0.976   4.523   5.709  0.5453 -0.8459  0.9024
  190SAPI   H9Y21938   0.872   4.621   5.824 -1.5257  0.8598 -1.2137
  190SAPI  C31021939   0.789   4.587   5.639  0.3688  0.3995 -0.3961
  190SAPI  H10X21940   0.855   4.671   5.605 -0.3439  1.1658  0.0736
  190SAPI  H10Y21941   0.687   4.621   5.664 -0.5242  0.5541 -3.7351
  190SAPI  C31121942   0.779   4.489   5.520  0.2427 -0.4062 -0.1383
  190SAPI  H11X21943   0.687   4.430   5.538  0.2970 -0.5048 -0.1868
  190SAPI  H11Y21944   0.864   4.419   5.510  0.5663 -0.6812  3.4131
  190SAPI  C31221945   0.745   4.558   5.382  0.4173 -0.3614  1.0935
  190SAPI  H12X21946   0.670   4.637   5.405 -0.6224 -1.3346  1.1106
  190SAPI  H12Y21947   0.693   4.485   5.317  0.2080 -0.1848  1.0627
  190SAPI  C31321948   0.872   4.630   5.326 -0.1792  0.0099  0.2154
  190SAPI  H13X21949   0.929   4.558   5.263 -0.5197  1.6855 -2.1288
  190SAPI  H13Y21950   0.941   4.673   5.402  0.5127  0.0873 -0.4432
  190SAPI  C31421951   0.835   4.754   5.239  0.2150  0.4720 -0.3274
  190SAPI  H14X21952   0.924   4.819   5.220 -0.8936  1.8652 -0.9307
  190SAPI  H14Y21953   0.769   4.820   5.299 -0.2156  0.8523 -1.2005
  190SAPI  C31521954   0.753   4.715   5.109  0.1800 -0.1714  0.2771
  190SAPI  H15X21955   0.655   4.667   5.131 -0.5549  0.7072 -0.9800
  190SAPI  H15Y21956   0.814   4.644   5.049  0.9640  0.6068  0.1261
  190SAPI  C31621957   0.716   4.838   5.022  0.2925 -0.6462  0.1804
  190SAPI  H16X21958   0.805   4.902   5.003  0.2730 -0.8977 -0.8161
  190SAPI  H16Y21959   0.634   4.892   5.073 -1.8332 -1.6055 -2.0428
  190SAPI  C31721960   0.658   4.804   4.883 -0.0473  0.2912 -0.2539
  190SAPI  H17X21961   0.597   4.712   4.890  2.3253 -1.3934 -0.7839
  190SAPI  H17Y21962   0.740   4.764   4.820  1.6374  0.2000  1.8758
  190SAPI  C31821963   0.596   4.918   4.804  0.0700 -0.4541  0.4576
  190SAPI  H18X21964   0.562   4.887   4.703 -0.2815 -0.2868  0.5248
  190SAPI  H18Y21965   0.658   5.009   4.798 -1.7433  0.8595  0.9782
  190SAPI  H18Z21966   0.506   4.946   4.863 -0.3662 -0.7107 -0.0798
  191SAPI   C1221967   3.878   5.763   2.784 -0.2966  0.1363  0.0373
  191SAPI    H221968   3.890   5.829   2.873 -1.2999  2.3997 -1.4247
  191SAPI    O221969   3.997   5.722   2.731 -0.1137  0.0396 -0.2069
  191SAPI   HO221970   4.021   5.793   2.671  2.2296 -0.4734  0.0257
  191SAPI   C1321971   3.793   5.634   2.812 -0.1868  0.0864  0.3477
  191SAPI    H321972   3.692   5.666   2.846 -0.5604 -0.4311 -0.2537
  191SAPI    O321973   3.854   5.554   2.908 -0.3055  0.5506  0.1250
  191SAPI   HO321974   3.794   5.484   2.934  0.4616 -0.2848 -0.2926
  191SAPI   C1421975   3.766   5.559   2.685 -0.2971 -0.2310  0.7361
  191SAPI    H421976   3.865   5.519   2.654  1.2371  3.3997  0.4028
  191SAPI    O421977   3.685   5.443   2.707  0.3129  0.3549 -0.3082
  191SAPI   HO421978   3.605   5.474   2.749 -1.1334 -2.1256 -1.0131
  191SAPI   C1521979   3.718   5.644   2.567 -0.0462  0.5614  0.3518
  191SAPI    H521980   3.610   5.662   2.586 -0.2167 -2.0750  2.4665
  191SAPI    O521981   3.719   5.575   2.440  0.5761 -0.0736  0.1070
  191SAPI   HO521982   3.807   5.536   2.442  0.2489 -0.9346  2.8507
  191SAPI   C1621983   3.775   5.785   2.561 -0.3725 -0.6167 -0.3340
  191SAPI    H621984   3.872   5.770   2.508  1.2241  0.5630  2.0847
  191SAPI    O621985   3.701   5.873   2.474 -0.7471 -0.1759  0.0849
  191SAPI   HO621986   3.755   5.879   2.395 -2.4788 -2.8164 -1.4247
  191SAPI   C1121987   3.804   5.851   2.690 -0.4057  0.7234  0.6490
  191SAPI    H121988   3.704   5.878   2.729 -0.8606 -0.0509  0.0543
  191SAPI     P21989   3.841   6.109   2.719 -0.5257 -0.2374  0.1317
  191SAPI   O1321990   3.697   6.133   2.725  0.5167 -0.2846  0.6141
  191SAPI   O1421991   3.911   6.208   2.639 -0.4326  0.0497 -0.2717
  191SAPI   O1221992   3.880   5.962   2.663 -0.2405 -0.4217  0.1780
  191SAPI   O1121993   3.897   6.097   2.867 -0.3517  0.0251 -0.5596
  191SAPI    C121994   4.040   6.079   2.892 -0.4702 -0.0305  0.0366
  191SAPI    HA21995   4.052   5.973   2.921 -0.0674 -0.6497 -2.1739
  191SAPI    HB21996   4.100   6.080   2.798 -1.0581  0.1853 -0.3449
  191SAPI    C221997   4.101   6.185   2.988 -0.1283  0.2728  0.7402
  191SAPI    HS21998   4.210   6.164   2.991  0.6218  3.3508 -1.1032
  191SAPI   O2121999   4.037   6.169   3.119 -0.8368  0.3182 -0.0923
  191SAPI   C2122000   4.057   6.057   3.186  0.0659 -0.4161 -0.0123
  191SAPI   O2222001   4.129   5.967   3.142 -0.1322  0.1393  0.1500
  191SAPI   C2222002   3.990   6.044   3.326 -0.8214 -0.8380  0.5406
  191SAPI   H2R22003   3.881   6.065   3.320 -0.3977  1.9751  1.0107
  191SAPI   H2S22004   4.021   5.949   3.374  0.2486 -1.1597 -0.7379
  191SAPI    C322005   4.069   6.332   2.932 -0.0753 -0.2285  0.1667
  191SAPI    HX22006   3.966   6.344   2.895  0.3159  0.1983 -0.7957
  191SAPI    HY22007   4.131   6.336   2.840 -1.7889 -1.8580 -1.1432
  191SAPI   O3122008   4.113   6.442   3.016 -0.0206  0.4742  0.0338
  191SAPI   C3122009   4.023   6.483   3.109 -0.6827  0.7338  0.3884
  191SAPI   O3222010   3.909   6.446   3.116 -0.1784 -0.6307  0.6897
  191SAPI   C3222011   4.089   6.579   3.208  0.9496 -0.1015  0.4822
  191SAPI   H2X22012   4.025   6.570   3.298  0.1543 -0.0718 -0.0770
  191SAPI   H2Y22013   4.078   6.682   3.169 -0.4128 -0.7027 -0.8197
  191SAPI   C2322014   4.037   6.159   3.414  0.0386 -0.1244 -0.1853
  191SAPI   H3R22015   3.992   6.145   3.515 -2.0288  1.5788 -0.7917
  191SAPI   H3S22016   4.010   6.257   3.368  1.0583 -1.7226 -4.6679
  191SAPI   C2422017   4.190   6.165   3.433  0.9352 -0.2033  0.4740
  191SAPI   H4R22018   4.210   6.259   3.488  0.6798 -0.2670  0.6808
  191SAPI   H4S22019   4.233   6.184   3.333 -3.4502  1.0159 -1.4364
  191SAPI   C2522020   4.263   6.044   3.484 -0.3577  0.4696  0.5639
  191SAPI   H5R22021   4.330   6.001   3.409 -0.0349  0.4764  0.8471
  191SAPI   C2622022   4.264   5.986   3.608 -0.7800 -0.6637 -0.1532
  191SAPI   H6R22023   4.336   5.903   3.618 -0.6335 -0.5658 -0.3682
  191SAPI   C2722024   4.200   6.037   3.727  0.1170  0.0653 -0.1738
  191SAPI   H7R22025   4.113   6.102   3.700  0.6551  1.6526  1.7399
  191SAPI   H7S22026   4.264   6.112   3.779 -1.2839  2.0349 -1.1385
  191SAPI   C2822027   4.158   5.945   3.838  0.3721  0.8042  0.4718
  191SAPI   H8R22028   4.084   5.870   3.807 -0.7965  2.1348 -0.0705
  191SAPI   C2922029   4.202   5.941   3.966  0.1478  0.1552  0.1964
  191SAPI   H9R22030   4.169   5.856   4.028 -0.4698 -2.1974 -3.0754
  191SAPI  C21022031   4.295   6.041   4.035 -0.6192 -0.0605  0.0707
  191SAPI  H10R22032   4.335   6.118   3.965  1.2485 -0.9017  0.1800
  191SAPI  H10S22033   4.391   5.986   4.041 -1.3618 -1.4265 -0.1857
  191SAPI  C21122034   4.252   6.092   4.164 -0.0036  0.1497 -0.1532
  191SAPI  H11R22035   4.201   6.189   4.165  1.6759  1.0730 -0.4236
  191SAPI  C21222036   4.243   6.018   4.277  0.0802 -0.7702 -0.6237
  191SAPI  H12R22037   4.199   6.069   4.364  2.8919  2.8363 -1.0793
  191SAPI  C21322038   4.298   5.882   4.310 -0.5037  0.7828 -0.2771
  191SAPI  H13R22039   4.380   5.899   4.383 -2.6911  1.5864  2.1070
  191SAPI  H13S22040   4.336   5.838   4.215  0.3363  2.1915 -0.6237
  191SAPI  C21422041   4.195   5.789   4.375 -0.4153  0.3339 -0.0576
  191SAPI  H14R22042   4.142   5.719   4.309  2.6567 -3.2585  0.9943
  191SAPI  C21522043   4.176   5.784   4.508 -0.2769  0.1848 -0.2009
  191SAPI  H15R22044   4.079   5.740   4.534 -0.2758 -1.1467 -2.2452
  191SAPI  C21622045   4.242   5.868   4.617  0.6576 -0.2935 -0.5710
  191SAPI  H16R22046   4.318   5.935   4.571  2.2185 -1.6891 -0.1204
  191SAPI  H16S22047   4.298   5.800   4.686 -2.9073 -1.7783  1.1003
  191SAPI  C21722048   4.152   5.939   4.725 -0.7609  0.4435  0.1796
  191SAPI  H17R22049   4.077   5.986   4.658  0.4157  0.6980 -0.9979
  191SAPI  H17S22050   4.213   6.015   4.777  2.3125 -2.5887  1.3585
  191SAPI  C21822051   4.095   5.843   4.831 -0.2592  0.3077 -0.0505
  191SAPI  H18R22052   4.157   5.854   4.922 -3.0050  1.6693  1.7827
  191SAPI  H18S22053   4.109   5.738   4.800  0.8771 -0.0978  1.7190
  191SAPI  C21922054   3.949   5.873   4.865  0.5158  0.5076  1.0152
  191SAPI  H19R22055   3.898   5.794   4.925 -0.0804  0.7321  0.8065
  191SAPI  H19S22056   3.884   5.865   4.775 -0.3409 -1.4094  1.7434
  191SAPI  C22022057   3.927   6.012   4.927  0.5255 -0.0391  0.2777
  191SAPI  H20R22058   3.979   6.086   4.862  0.7720 -0.8257 -0.4493
  191SAPI  H20S22059   3.981   6.011   5.023  0.9785 -0.6065  0.0255
  191SAPI  H20T22060   3.819   6.034   4.939  0.4134  0.2996 -1.0955
  191SAPI   C3322061   4.234   6.536   3.236 -0.0744 -0.7849 -0.0749
  191SAPI   H3X22062   4.291   6.559   3.143 -0.8008  1.5687 -0.0088
  191SAPI   H3Y22063   4.231   6.428   3.263  2.9832 -0.4125  2.1682
  191SAPI   C3422064   4.302   6.604   3.350  0.4624 -0.5380 -0.3716
  191SAPI   H4X22065   4.238   6.599   3.440  0.1150 -0.6495 -0.6192
  191SAPI   H4Y22066   4.320   6.712   3.332 -0.0653 -0.5489 -1.0387
  191SAPI   C3522067   4.436   6.539   3.380 -0.2571 -0.3259 -0.3638
  191SAPI   H5X22068   4.508   6.573   3.302 -0.7073  1.3176 -0.1072
  191SAPI   H5Y22069   4.424   6.430   3.366  1.4324 -0.2557 -3.2021
  191SAPI   C3622070   4.497   6.559   3.525 -0.3277 -0.5501 -0.1160
  191SAPI   H6X22071   4.511   6.667   3.548 -0.2305 -0.0810 -2.2173
  191SAPI   H6Y22072   4.595   6.508   3.528 -0.5860 -1.0139  1.2548
  191SAPI   C3722073   4.413   6.495   3.651 -0.2147 -0.1680  0.4643
  191SAPI   H7X22074   4.396   6.386   3.635 -1.8760  0.2223 -0.5780
  191SAPI   H7Y22075   4.311   6.537   3.661  0.0592  0.5041  0.5060
  191SAPI   C3822076   4.480   6.514   3.784  0.0854  0.0525  0.6030
  191SAPI   H8X22077   4.493   6.620   3.816 -0.5774  0.3385 -0.0537
  191SAPI   H8Y22078   4.582   6.471   3.784  0.2054  0.1281 -2.6367
  191SAPI   C3922079   4.390   6.446   3.887  0.2199  0.4720 -0.8598
  191SAPI   H9X22080   4.359   6.345   3.852  0.5972 -0.0200  0.1848
  191SAPI   H9Y22081   4.300   6.511   3.893  0.2756  0.5220 -0.5604
  191SAPI  C31022082   4.465   6.436   4.025 -0.1576  0.1407  0.7325
  191SAPI  H10X22083   4.540   6.519   4.029  0.4768 -0.4544  1.6523
  191SAPI  H10Y22084   4.516   6.337   4.031 -0.6547 -0.1645 -0.0351
  191SAPI  C31122085   4.368   6.448   4.140  0.2349  0.0957 -0.7520
  191SAPI  H11X22086   4.271   6.397   4.122 -0.2667  0.2283  1.2650
  191SAPI  H11Y22087   4.341   6.555   4.153 -0.3295 -0.0317 -0.8271
  191SAPI  C31222088   4.419   6.394   4.272 -0.8784 -1.2626  0.5863
  191SAPI  H12X22089   4.521   6.434   4.293 -1.6443  0.3305  1.4531
  191SAPI  H12Y22090   4.430   6.285   4.260 -0.6765 -1.1098 -0.7435
  191SAPI  C31322091   4.332   6.445   4.383  0.2456 -0.0080  0.1795
  191SAPI  H13X22092   4.227   6.466   4.352  0.4615 -1.1207 -1.4087
  191SAPI  H13Y22093   4.370   6.543   4.417  0.5838  0.0865 -0.4645
  191SAPI  C31422094   4.322   6.338   4.495  0.0742 -0.2637  0.4070
  191SAPI  H14X22095   4.426   6.307   4.522 -0.2232  0.9524  3.4002
  191SAPI  H14Y22096   4.258   6.252   4.467  0.9262 -1.9698  3.1941
  191SAPI  C31522097   4.259   6.395   4.623 -0.2581  0.5740 -0.4373
  191SAPI  H15X22098   4.152   6.419   4.604 -0.4970  0.2087  0.3846
  191SAPI  H15Y22099   4.319   6.480   4.663  1.1690 -0.1425 -0.9680
  191SAPI  C31622100   4.271   6.291   4.733 -1.1630 -0.1919 -0.5122
  191SAPI  H16X22101   4.370   6.243   4.746 -1.6200 -0.7414  1.2940
  191SAPI  H16Y22102   4.210   6.203   4.702 -1.4294  0.3751 -1.6386
  191SAPI  C31722103   4.235   6.346   4.873  0.8411 -0.2980 -0.3808
  191SAPI  H17X22104   4.311   6.421   4.905 -0.6208  1.0346  0.0997
  191SAPI  H17Y22105   4.249   6.259   4.940 -0.7012 -0.8112 -0.6863
  191SAPI  C31822106   4.093   6.399   4.877  0.0449 -0.6911  0.8133
  191SAPI  H18X22107   4.069   6.475   4.800 -1.5521  1.8731  3.6198
  191SAPI  H18Y22108   4.069   6.448   4.974  0.5707  1.3652 -0.0407
  191SAPI  H18Z22109   4.027   6.313   4.851  0.3176 -1.0236  1.2130
  192SAPI   C1222110   0.983   0.359   2.650  0.4978  0.1831 -0.5975
  192SAPI    H222111   0.991   0.347   2.760  0.8595 -0.8554 -0.7246
  192SAPI    O222112   0.989   0.496   2.625  0.0362  0.7586 -0.2262
  192SAPI   HO222113   1.020   0.518   2.713 -0.6133 -0.9296  0.4712
  192SAPI   C1322114   1.095   0.287   2.584  0.3844 -0.4027  0.1459
  192SAPI    H322115   1.077   0.178   2.589  2.8174 -0.9888 -1.6968
  192SAPI    O322116   1.219   0.320   2.643 -0.3898  0.6413 -0.1663
  192SAPI   HO322117   1.240   0.234   2.681 -1.2262  1.1055  1.4743
  192SAPI   C1422118   1.084   0.303   2.430 -0.0572  0.5122  0.0579
  192SAPI    H422119   1.099   0.413   2.421  0.8195  0.3082 -1.2712
  192SAPI    O422120   1.186   0.233   2.351 -0.4835  0.9779 -0.1120
  192SAPI   HO422121   1.189   0.143   2.383  0.6148  1.7578  2.1808
  192SAPI   C1522122   0.949   0.275   2.370  0.0586 -0.0631  0.3914
  192SAPI    H522123   0.947   0.164   2.368 -0.6728 -0.0502 -1.3506
  192SAPI    O522124   0.936   0.324   2.236 -0.1003  0.3019  0.1851
  192SAPI   HO522125   0.903   0.252   2.182  1.0508 -0.5257  0.5362
  192SAPI   C1622126   0.830   0.314   2.453 -0.5842 -0.1095 -0.1238
  192SAPI    H622127   0.829   0.424   2.441  1.1035 -0.1057 -0.4592
  192SAPI    O622128   0.711   0.251   2.415  0.5517 -0.6148  0.2988
  192SAPI   HO622129   0.667   0.211   2.490 -0.2079  0.1626  0.2810
  192SAPI   C1122130   0.845   0.302   2.608 -0.6756 -0.7339 -0.5785
  192SAPI    H122131   0.854   0.194   2.636  0.9903 -0.5983 -0.4363
  192SAPI     P22132   0.605   0.295   2.738 -0.0287  0.3459 -0.2186
  192SAPI   O1322133   0.539   0.227   2.619 -0.3041  0.0431  0.0374
  192SAPI   O1422134   0.520   0.392   2.806 -0.3357  0.0786 -0.0859
  192SAPI   O1222135   0.746   0.365   2.683 -0.4330 -0.5266 -0.3014
  192SAPI   O1122136   0.641   0.185   2.839  0.1380 -0.1382 -0.6054
  192SAPI    C122137   0.528   0.100   2.863  0.2967  0.1642  0.0046
  192SAPI    HA22138   0.428   0.139   2.836  0.8708  1.7667  0.1257
  192SAPI    HB22139   0.543   0.010   2.800 -0.1493  1.2070 -1.6451
  192SAPI    C222140   0.524   0.071   3.013 -0.5636  0.0768 -0.3632
  192SAPI    HS22141   0.433   0.015   3.044 -0.1273  0.1960  1.1621
  192SAPI   O2122142   0.533   0.188   3.093 -0.3460 -0.0607 -0.0117
  192SAPI   C2122143   0.432   0.271   3.086  0.4698  0.0409 -0.4060
  192SAPI   O2222144   0.321   0.246   3.040  0.1625  0.3065 -0.1658
  192SAPI   C2222145   0.472   0.396   3.156  0.1507 -0.0052 -0.6970
  192SAPI   H2R22146   0.562   0.439   3.106 -0.1769  0.3577 -0.9770
  192SAPI   H2S22147   0.383   0.462   3.156  1.1081  1.3984  1.0992
  192SAPI    C322148   0.637  -0.031   3.048  0.5480 -0.4709 -0.2334
  192SAPI    HX22149   0.729   0.013   3.004 -1.0340  1.3796 -1.9089
  192SAPI    HY22150   0.625  -0.119   2.982  0.7990 -0.4940 -0.2480
  192SAPI   O3122151   0.632  -0.054   3.189  0.1118  0.0131  0.0874
  192SAPI   C3122152   0.718  -0.143   3.231 -0.7853  0.0137 -0.3986
  192SAPI   O3222153   0.817  -0.183   3.163 -0.0789 -0.0070 -0.3634
  192SAPI   C3222154   0.719  -0.169   3.380 -0.1178  0.2717  0.3257
  192SAPI   H2X22155   0.821  -0.195   3.417 -0.0434  2.5948  1.9504
  192SAPI   H2Y22156   0.661  -0.259   3.409  0.9998 -0.4083  0.5354
  192SAPI   C2322157   0.521   0.369   3.301 -0.0819 -0.2755 -0.0668
  192SAPI   H3R22158   0.572   0.462   3.333 -2.1649  1.4981 -1.6135
  192SAPI   H3S22159   0.597   0.291   3.322  1.5511  1.1742 -0.4236
  192SAPI   C2422160   0.409   0.327   3.404 -0.3788  0.1763  0.3933
  192SAPI   H4R22161   0.357   0.235   3.368  0.6869 -0.2990  0.0167
  192SAPI   H4S22162   0.333   0.408   3.402  0.0798  0.6657  1.7950
  192SAPI   C2522163   0.447   0.305   3.546 -0.1787 -0.7987  0.4738
  192SAPI   H5R22164   0.547   0.264   3.564  1.4125  2.4263 -0.3071
  192SAPI   C2622165   0.378   0.359   3.656  0.7795 -0.0348  0.3800
  192SAPI   H6R22166   0.437   0.354   3.749  1.1734 -1.3428  0.0788
  192SAPI   C2722167   0.255   0.443   3.656  0.6068  0.2115 -0.4435
  192SAPI   H7R22168   0.237   0.500   3.563  0.9063 -1.9079 -1.8618
  192SAPI   H7S22169   0.274   0.518   3.736  1.3131 -0.0111 -0.3943
  192SAPI   C2822170   0.124   0.377   3.687 -0.1428 -0.0237  0.7612
  192SAPI   H8R22171   0.093   0.331   3.592 -0.8530  2.9943 -0.5919
  192SAPI   C2922172   0.058   0.368   3.806  0.0524 -0.5538  0.1615
  192SAPI   H9R22173  -0.044   0.329   3.794  0.8679 -2.1590 -2.5570
  192SAPI  C21022174   0.080   0.442   3.935  0.0938 -0.4017 -0.5903
  192SAPI  H10R22175   0.002   0.417   4.011  1.1811  0.7653  0.9691
  192SAPI  H10S22176   0.068   0.551   3.918 -1.6384 -0.1912  1.5099
  192SAPI  C21122177   0.217   0.415   4.009 -0.2186 -0.0174  0.5569
  192SAPI  H11R22178   0.271   0.508   4.032 -0.2070 -0.1384  1.0396
  192SAPI  C21222179   0.270   0.307   4.059 -0.7493 -0.6443  0.4197
  192SAPI  H12R22180   0.372   0.318   4.100 -1.7082  1.8626  2.3888
  192SAPI  C21322181   0.222   0.165   4.040 -0.0472  0.6131  0.0668
  192SAPI  H13R22182   0.201   0.155   3.932 -1.8087 -2.0926  0.5789
  192SAPI  H13S22183   0.127   0.151   4.096 -0.0601  1.8653  0.4013
  192SAPI  C21422184   0.327   0.061   4.069 -0.3419  0.1735 -0.5993
  192SAPI  H14R22185   0.380   0.024   3.980  1.9104  0.3699  0.5906
  192SAPI  C21522186   0.371   0.021   4.191  0.2756 -0.9577 -0.1588
  192SAPI  H15R22187   0.447  -0.057   4.197  1.5315  0.2746  0.6634
  192SAPI  C21622188   0.324   0.073   4.326  0.2171 -0.1988  0.5092
  192SAPI  H16R22189   0.305  -0.018   4.387 -0.9965 -0.6062 -0.4393
  192SAPI  H16S22190   0.222   0.118   4.322  0.8386  1.1847 -2.1704
  192SAPI  C21722191   0.415   0.171   4.398 -0.0704  0.1136  0.3862
  192SAPI  H17R22192   0.387   0.277   4.377 -3.8574 -0.6743  0.7286
  192SAPI  H17S22193   0.520   0.157   4.363  1.2289  0.7971  3.6384
  192SAPI  C21822194   0.425   0.160   4.554 -0.2854 -0.0729  0.0729
  192SAPI  H18R22195   0.503   0.236   4.579 -0.3041  0.5544 -1.6585
  192SAPI  H18S22196   0.466   0.060   4.582  3.0428  1.2491  0.4022
  192SAPI  C21922197   0.293   0.184   4.628  0.1138 -0.2890  0.7253
  192SAPI  H19R22198   0.221   0.112   4.583 -0.3032 -0.6762  1.9786
  192SAPI  H19S22199   0.265   0.291   4.613  0.9308 -0.0389  0.9186
  192SAPI  C22022200   0.306   0.149   4.767 -0.0727  0.3145  0.7568
  192SAPI  H20R22201   0.239   0.204   4.837  0.9274  0.3350  1.7227
  192SAPI  H20S22202   0.403   0.178   4.813  0.2380  2.2219 -0.9936
  192SAPI  H20T22203   0.284   0.041   4.784  1.6091  0.0900  1.6807
  192SAPI   C3322204   0.687  -0.038   3.464 -0.1077 -0.0182  0.0601
  192SAPI   H3X22205   0.587   0.003   3.438 -0.0776  0.0397  0.0353
  192SAPI   H3Y22206   0.753   0.045   3.432 -3.4571  2.1674 -1.7728
  192SAPI   C3422207   0.678  -0.067   3.614 -0.8366 -0.1414  0.5363
  192SAPI   H4X22208   0.691   0.028   3.669 -0.7958 -0.2774  0.7615
  192SAPI   H4Y22209   0.759  -0.132   3.651 -0.3441 -0.5021 -1.0804
  192SAPI   C3522210   0.549  -0.131   3.662  0.1820 -0.1855  0.4307
  192SAPI   H5X22211   0.523  -0.210   3.589  0.9419  1.1531 -1.3480
  192SAPI   H5Y22212   0.468  -0.056   3.663  0.7193  0.4025  1.2303
  192SAPI   C3622213   0.551  -0.187   3.805 -0.7081 -0.0737  0.4188
  192SAPI   H6X22214   0.447  -0.204   3.839 -1.3060  0.7493 -0.9197
  192SAPI   H6Y22215   0.593  -0.103   3.865 -2.4402 -0.7768  2.7703
  192SAPI   C3722216   0.631  -0.316   3.848  0.0949 -0.7968 -0.2272
  192SAPI   H7X22217   0.741  -0.306   3.838 -0.0239 -0.9929 -1.9567
  192SAPI   H7Y22218   0.602  -0.399   3.781  1.2549 -0.9209 -0.5979
  192SAPI   C3822219   0.617  -0.349   3.996 -0.5769  0.1826 -0.0265
  192SAPI   H8X22220   0.646  -0.454   4.018 -0.9033  0.4816  2.0798
  192SAPI   H8Y22221   0.507  -0.357   4.012 -1.1078  0.1814 -3.1675
  192SAPI   C3922222   0.691  -0.252   4.086  0.0082 -0.3797 -0.4394
  192SAPI   H9X22223   0.658  -0.146   4.078  0.3802 -0.2640 -0.4598
  192SAPI   H9Y22224   0.801  -0.269   4.077  0.1775 -1.3007  2.3164
  192SAPI  C31022225   0.651  -0.287   4.232 -0.2371 -0.2339  0.4774
  192SAPI  H10X22226   0.709  -0.375   4.269 -1.7413 -1.5707 -0.2156
  192SAPI  H10Y22227   0.545  -0.323   4.228 -1.3106  2.7711 -0.6450
  192SAPI  C31122228   0.660  -0.178   4.338 -1.0418 -0.0815 -0.5755
  192SAPI  H11X22229   0.624  -0.213   4.438 -1.6717  0.4798 -0.5974
  192SAPI  H11Y22230   0.596  -0.090   4.314 -1.9303  0.0250  1.8709
  192SAPI  C31222231   0.800  -0.124   4.368 -0.3636  0.8229  0.0142
  192SAPI  H12X22232   0.776  -0.045   4.442  1.0183 -0.9461  2.5328
  192SAPI  H12Y22233   0.851  -0.088   4.277  0.1437  0.2416  0.0575
  192SAPI  C31322234   0.898  -0.219   4.446  0.3490 -0.0544  0.4088
  192SAPI  H13X22235   0.934  -0.292   4.370  1.3211 -0.6877  1.4370
  192SAPI  H13Y22236   0.847  -0.269   4.531  0.8151 -0.2993  0.5503
  192SAPI  C31422237   1.019  -0.150   4.495  0.3682 -0.4283 -0.7088
  192SAPI  H14X22238   1.045  -0.064   4.430  1.3520  0.5121  0.8828
  192SAPI  H14Y22239   1.108  -0.216   4.489  0.6080 -0.0954 -0.8034
  192SAPI  C31522240   1.010  -0.099   4.638  0.2862  0.2098  0.3929
  192SAPI  H15X22241   0.995  -0.184   4.708 -1.4732 -0.7121 -1.0403
  192SAPI  H15Y22242   0.921  -0.032   4.641 -0.9899 -1.4473  0.5687
  192SAPI  C31622243   1.123   0.003   4.676 -0.7958 -0.0123 -0.2294
  192SAPI  H16X22244   1.153   0.071   4.593  0.0041 -1.3883 -1.0998
  192SAPI  H16Y22245   1.220  -0.049   4.693 -0.8634  0.0649  0.4259
  192SAPI  C31722246   1.088   0.079   4.801 -0.1405  0.8582 -0.6730
  192SAPI  H17X22247   0.992   0.131   4.780 -0.7346 -0.2935 -0.8719
  192SAPI  H17Y22248   1.163   0.154   4.833  0.5972 -0.5120  1.0204
  192SAPI  C31822249   1.066  -0.004   4.930  0.0525 -0.5027 -0.3918
  192SAPI  H18X22250   1.051   0.074   5.008 -0.4530 -0.6942 -0.2914
  192SAPI  H18Y22251   1.154  -0.068   4.950 -0.1739 -0.5183  0.6025
  192SAPI  H18Z22252   0.977  -0.070   4.924  0.3007 -0.7001 -2.5531
  193SOD    SOD22253   2.708   4.138   8.319  0.2230 -0.1516 -0.3163
  194SOD    SOD22254   4.546   1.017   1.877  0.4327 -0.4940  0.4439
  195SOD    SOD22255   0.013   5.267   2.017 -0.0806  0.1779  0.1489
  196SOD    SOD22256   1.549   0.550   0.269  0.0610 -0.0049 -0.0809
  197SOD    SOD22257   1.371   3.474   1.237  0.8330 -0.2323  0.1903
  198SOD    SOD22258   3.147   1.215   2.144 -0.0924 -0.0034 -0.2714
  199SOD    SOD22259   4.887   4.018   7.177  0.2137 -0.0164 -0.1594
  200SOD    SOD22260   1.486   5.756   2.224  0.0718 -0.1726  0.2420
  201SOD    SOD22261   0.562   1.421   1.236  0.3128 -0.2912  0.3380
  202SOD    SOD22262   6.620   3.129   7.390 -0.6303 -0.1616  0.1975
  203SOD    SOD22263   2.847   3.173   7.076 -0.1593 -0.2360 -0.0133
  204SOD    SOD22264   2.192   1.627   7.554  0.3186 -0.0660  0.3452
  205SOD    SOD22265   4.279   1.788   0.316  0.3698 -0.2018  0.2454
  206SOD    SOD22266   6.296   3.303   0.133 -0.4086  0.4573 -0.2558
  207SOD    SOD22267   1.629   3.699   8.245  0.1070 -0.7449 -0.7157
  208SOD    SOD22268   6.012   6.231   7.509 -0.2295  0.2471  0.1845
  209SOD    SOD22269   5.600   6.083   2.429 -0.3715  0.1389 -0.3972
  210SOD    SOD22270   6.025   3.995   8.063 -0.2540 -0.4318  0.0848
  211SOD    SOD22271   2.180   1.065   7.175  0.1189  1.0834  0.1101
  212SOD    SOD22272   5.305   4.014   0.481  0.0106  0.1409 -0.4604
  213SOD    SOD22273   0.884   6.475   8.209 -0.2830  0.3384 -0.1746
  214SOD    SOD22274   0.340   6.477   1.773 -0.0021 -0.1591  0.0751
  215SOD    SOD22275   2.779   5.178   7.825 -0.6127 -0.1385  0.0616
  216SOD    SOD22276   0.393   3.020   1.907 -0.5019  0.1458  0.4907
  217SOD    SOD22277   2.286   4.521   2.717 -0.1239  0.3120  0.5017
  218SOD    SOD22278   1.254   4.232   0.405 -0.1198 -0.2945  0.5298
  219SOD    SOD22279   2.830   5.858   2.871  0.1679 -0.6298  0.3902
  220SOD    SOD22280   3.004   2.826   2.826 -0.1483  0.2677 -0.5004
  221SOD    SOD22281   4.419   3.559   7.223 -0.1960  0.0480  0.1011
  222SOD    SOD22282   2.651   2.855   8.533  0.0885  0.1099  0.1791
  223SOD    SOD22283   2.393   6.138   7.567  0.1902  0.1872 -0.1204
  224SOD    SOD22284   6.718   5.432   0.624  0.2034 -0.5240  0.2888
  225SOD    SOD22285   3.732   1.529   8.184 -0.3745  0.1622 -0.2879
  226SOD    SOD22286   6.297   1.896   0.528  0.2621 -0.4709 -0.4341
  227SOD    SOD22287   0.078   6.651   7.215 -0.4474 -0.2970 -0.2441
  228SOD    SOD22288   0.880   1.365   1.353  0.0654 -0.2889  0.1094
  229SOD    SOD22289   4.092   5.547   2.861 -0.6538  0.2125 -0.5203
  230SOD    SOD22290   6.139   3.608   1.064  0.0243 -0.4390  0.5509
  231SOD    SOD22291   4.034   0.416   0.208  0.1079  0.0485 -0.3384
  232SOD    SOD22292   4.789   6.543   1.561 -0.4491 -0.0274 -0.2467
  233SOD    SOD22293   3.281   5.664   7.960  0.2693 -0.1866  0.0599
  234CLA    CLA22294   3.290   4.333   0.212 -0.3758 -0.2684 -0.0168
  235CLA    CLA22295   6.121   3.378   7.994  0.1417 -0.3396  0.0955
  236CLA    CLA22296   0.394   6.500   8.412  0.1045 -0.0700 -0.5808
  237CLA    CLA22297   0.825   3.549   2.087 -0.4960 -0.6674 -0.2028
  238CLA    CLA22298   6.321   5.111   0.882  0.3327  0.1687 -0.3176
  239CLA    CLA22299   3.032   2.727   1.246  0.2478 -0.0018  0.3367
  240CLA    CLA22300   4.211   4.146   7.542  0.0181 -0.0370 -0.3277
  241CLA    CLA22301   1.681   4.068   7.890 -0.1717  0.2290 -0.3436
  242CLA    CLA22302   6.595   2.100   1.339  0.3643 -0.3781 -0.0256
  243CLA    CLA22303   5.120   3.804   0.459 -0.3777  0.1453  0.2804
  244CLA    CLA22304   4.723   1.689   8.511  0.0015  0.2044  0.0636
  245CLA    CLA22305   3.307   1.614   7.915 -0.4783 -0.0241 -0.3482
  246CLA    CLA22306   4.076   2.306   1.332  0.0958 -0.3829  0.0251
  247CLA    CLA22307   6.002   0.156   1.928  0.5599 -0.2501 -0.0830
  248CLA    CLA22308   2.489   6.793   0.693 -0.0671 -0.1971 -0.3171
  249CLA    CLA22309   2.678   4.184   1.959  0.3284 -0.2871  0.1305
  250CLA    CLA22310   1.574   3.237   8.243 -0.1700 -0.1132 -0.0937
  251TIP3   OH222311   6.686   0.146   8.674  0.2816 -0.5096  0.2227
  251TIP3    H122312   6.639   0.075   8.631 -2.1706  1.0158  0.1692
  251TIP3    H222313   6.749   0.177   8.609  1.1370 -2.3564  0.1332
  252TIP3   OH222314   0.309   2.863   2.357  0.2714 -0.2106 -0.4904
  252TIP3    H122315   0.234   2.905   2.313 -0.1015 -1.7155 -1.4022
  252TIP3    H222316   0.353   2.933   2.404 -1.3320  0.8438 -0.4952
  253TIP3   OH222317   1.339   4.312   7.631 -1.0079  0.6905  0.0218
  253TIP3    H122318   1.272   4.295   7.565  0.2354 -1.0202 -0.8542
  253TIP3    H222319   1.421   4.311   7.583  0.1419 -2.4158  1.7498
  254TIP3   OH222320   6.305   0.396   1.672  0.1205  0.6153 -0.6944
  254TIP3    H122321   6.317   0.343   1.751 -1.2423  0.6886 -0.4138
  254TIP3    H222322   6.258   0.338   1.612 -1.6163  1.5141 -0.2960
  255TIP3   OH222323   0.603   1.531   1.449 -0.1195 -0.2268 -0.1166
  255TIP3    H122324   0.622   1.474   1.524  0.8125 -0.8773 -0.8227
  255TIP3    H222325   0.617   1.620   1.482  2.3415 -0.5777 -0.0287
  256TIP3   OH222326   5.403   6.241   0.131 -0.3026 -0.4368  0.1933
  256TIP3    H122327   5.388   6.147   0.122 -2.0538 -0.0876 -0.9958
  256TIP3    H222328   5.317   6.277   0.155  0.7294  0.6841  2.5541
  257TIP3   OH222329   5.530   0.242   1.759  0.4891  0.0064 -0.0113
  257TIP3    H122330   5.527   0.321   1.706  0.9486  0.3563  0.4737
  257TIP3    H222331   5.570   0.176   1.702  0.0695  0.1161 -0.4270
  258TIP3   OH222332   0.977   4.328   0.091  0.6077 -0.2285 -0.3703
  258TIP3    H122333   1.012   4.386   0.023 -1.2095  1.1687 -0.2047
  258TIP3    H222334   0.896   4.371   0.119  0.9465 -1.1266  2.2017
  259TIP3   OH222335   1.581   4.363   7.502 -0.1823 -0.6022  0.0935
  259TIP3    H122336   1.637   4.287   7.518  1.3900  0.4224 -0.3191
  259TIP3    H222337   1.611   4.398   7.418  0.1477  1.3071  0.9521
  260TIP3   OH222338   3.303   0.576   8.645  0.9560 -0.0566  0.0390
  260TIP3    H122339   3.220   0.553   8.687  0.9190  1.2618  0.7326
  260TIP3    H222340   3.339   0.646   8.699  1.7151  0.5637 -1.2214
  261TIP3   OH222341   3.877   5.140   8.269 -0.5837 -0.4390 -0.2072
  261TIP3    H122342   3.961   5.101   8.247  0.3566  1.6047 -0.4756
  261TIP3    H222343   3.829   5.142   8.186 -1.1926 -2.1435  0.0565
  262TIP3   OH222344   4.321   1.002   1.808 -0.1291  0.3911 -0.1459
  262TIP3    H122345   4.326   0.913   1.773  0.5909  0.1525  0.5389
  262TIP3    H222346   4.292   1.055   1.734  0.7614 -0.2056 -0.9510
  263TIP3   OH222347   1.168   4.765   8.151  0.1283  0.5293 -0.1731
  263TIP3    H122348   1.133   4.850   8.178  0.1106  0.3940  0.2416
  263TIP3    H222349   1.246   4.787   8.099  1.2668  0.7921  1.5493
  264TIP3   OH222350   4.448   3.660   7.983 -0.5544  0.0893  0.3601
  264TIP3    H122351   4.438   3.617   8.068 -1.3993 -0.4149  0.0226
  264TIP3    H222352   4.358   3.680   7.956 -0.7372 -3.1126 -2.0641
  265TIP3   OH222353   3.030   5.377   8.126  0.0216  0.7329  0.3311
  265TIP3    H122354   3.065   5.451   8.077 -0.8079  1.9618  1.5196
  265TIP3    H222355   2.993   5.416   8.205 -2.2498 -0.6991  0.0802
  266TIP3   OH222356   2.827   4.616   8.387 -0.1141 -0.3962 -0.0443
  266TIP3    H122357   2.872   4.633   8.304  0.8266  1.5062  0.7773
  266TIP3    H222358   2.897   4.604   8.451 -0.7751  0.3569  0.8565
  267TIP3   OH222359   4.585   3.893   2.331 -0.3629 -0.2288 -0.4718
  267TIP3    H122360   4.598   3.988   2.339 -0.0474 -0.2183 -1.0475
  267TIP3    H222361   4.642   3.856   2.399 -0.4655 -0.0120 -0.2630
  268TIP3   OH222362   0.435   6.189   8.138  0.0040  0.1488  0.1373
  268TIP3    H122363   0.509   6.248   8.149 -0.4142  1.1103 -1.8167
  268TIP3    H222364   0.430   6.140   8.221  1.6152  1.3983  1.0131
  269TIP3   OH222365   6.684   2.003   1.052 -0.6809 -0.4015  0.1075
  269TIP3    H122366   6.655   2.065   1.119  1.3908 -1.0621  1.7200
  269TIP3    H222367   6.756   2.048   1.008 -0.7313 -0.7624 -0.3489
  270TIP3   OH222368   3.511   5.298   1.812 -0.4362  0.2632 -0.1762
  270TIP3    H122369   3.438   5.254   1.769  0.2310 -2.1251  1.0090
  270TIP3    H222370   3.566   5.328   1.740 -1.2218 -0.2941 -1.0351
  271TIP3   OH222371   5.285   1.437   7.976  0.4777  0.5122  0.1577
  271TIP3    H122372   5.222   1.370   7.950  1.6779  0.2308 -2.3585
  271TIP3    H222373   5.337   1.396   8.045 -1.0914  0.2078  1.1939
  272TIP3   OH222374   2.765   2.693   0.895  0.1356  0.2307 -0.2177
  272TIP3    H122375   2.780   2.778   0.938 -0.0059  0.2044 -0.1160
  272TIP3    H222376   2.851   2.668   0.862  0.6728 -0.6334  1.6566
  273TIP3   OH222377   0.559   3.180   1.810  0.1564  0.5347  0.1895
  273TIP3    H122378   0.518   3.262   1.836  1.0797  0.4149  2.1945
  273TIP3    H222379   0.652   3.202   1.798  0.7309 -0.4519  2.3234
  274TIP3   OH222380   3.893   6.664   1.932 -0.1100 -0.2123  0.5644
  274TIP3    H122381   3.844   6.745   1.943  0.9142  0.3171  1.3885
  274TIP3    H222382   3.870   6.634   1.844 -1.2955  0.4183  0.6368
  275TIP3   OH222383   0.849   6.508   0.698  0.1363  0.2027 -0.3978
  275TIP3    H122384   0.790   6.521   0.772  0.9005  2.5351 -0.1126
  275TIP3    H222385   0.936   6.497   0.739  0.3455 -0.1243 -0.9175
  276TIP3   OH222386   5.794   1.099   7.140 -0.0771 -0.3946  0.0598
  276TIP3    H122387   5.767   1.111   7.049  0.4179  0.0989 -0.0358
  276TIP3    H222388   5.875   1.151   7.147  0.0918 -0.7347  0.6784
  277TIP3   OH222389   5.766   5.722   8.255 -0.0239  0.4887  0.0169
  277TIP3    H122390   5.799   5.771   8.180  1.1162 -1.3405 -0.7529
  277TIP3    H222391   5.678   5.693   8.228 -0.3356  1.3297  0.1183
  278TIP3   OH222392   2.648   1.959   6.975  0.0927 -0.1643 -0.0854
  278TIP3    H122393   2.554   1.946   6.962  0.1176  1.0931 -1.9187
  278TIP3    H222394   2.681   1.986   6.889  2.4399 -2.1408  0.0845
  279TIP3   OH222395   0.833   3.200   3.097  0.8471  1.1920 -0.4729
  279TIP3    H122396   0.872   3.156   3.173 -2.3580  0.3756  0.8989
  279TIP3    H222397   0.902   3.199   3.031  1.5583 -5.2013 -0.2920
  280TIP3   OH222398   5.021   1.831   1.740 -0.1419 -0.7276 -0.0312
  280TIP3    H122399   5.063   1.910   1.774  0.3461 -1.5717  1.4482
  280TIP3    H222400   4.964   1.801   1.812  0.9605 -2.6235  0.1274
  281TIP3   OH222401   0.549   3.415   0.498  0.4158  0.7288  0.0560
  281TIP3    H122402   0.637   3.452   0.502  0.7264  0.0064  0.0923
  281TIP3    H222403   0.560   3.324   0.528 -0.2302  0.4370 -0.5681
  282TIP3   OH222404   1.143   1.316   0.106  0.1184  0.1302  0.1686
  282TIP3    H122405   1.178   1.293   0.192 -0.6256 -1.0363  0.1897
  282TIP3    H222406   1.056   1.351   0.124  0.5184  1.2444 -0.0149
  283TIP3   OH222407   6.233   1.658   7.898  0.7621 -0.5516  0.2900
  283TIP3    H122408   6.291   1.597   7.944 -0.5418 -1.2437  1.0937
  283TIP3    H222409   6.183   1.700   7.969 -0.6943 -1.0090 -0.4372
  284TIP3   OH222410   1.783   0.914   7.491  0.6415 -0.7035 -0.1738
  284TIP3    H122411   1.784   1.005   7.462 -0.1437 -0.5435  0.2601
  284TIP3    H222412   1.699   0.880   7.461 -0.4778 -0.3635  2.2807
  285TIP3   OH222413   3.260   6.098   1.260  0.5305 -0.3471  0.5286
  285TIP3    H122414   3.274   6.147   1.179  1.8795 -0.2440  0.8065
  285TIP3    H222415   3.322   6.135   1.322 -0.9072 -0.0132  1.8222
  286TIP3   OH222416   0.873   1.533   0.338  0.3359 -0.2141  0.1592
  286TIP3    H122417   0.792   1.524   0.388  0.0248 -1.6410 -0.5545
  286TIP3    H222418   0.942   1.533   0.405 -0.2167  0.8303  0.7574
  287TIP3   OH222419   3.992   0.789   8.668  0.0636 -1.0033 -0.3664
  287TIP3    H122420   3.941   0.791   8.749  0.7328  0.9532  0.0629
  287TIP3    H222421   3.963   0.709   8.624 -3.4421 -0.0061 -0.1843
  288TIP3   OH222422   6.712   6.486   1.277 -0.0121 -0.2030 -0.4895
  288TIP3    H122423   6.629   6.528   1.254 -0.2109 -0.7193 -0.7300
  288TIP3    H222424   6.702   6.395   1.248 -0.0306 -0.7241  1.0777
  289TIP3   OH222425   6.809   2.209   0.032  0.2379  0.1704 -0.2329
  289TIP3    H122426   6.903   2.218   0.018  0.1340  1.7055 -0.1533
  289TIP3    H222427   6.801   2.189   0.125  0.4319  2.1451  0.2494
  290TIP3   OH222428   6.727   0.124   8.145  0.2444  0.7403  0.3226
  290TIP3    H122429   6.703   0.203   8.095  1.9720  0.0773 -1.7055
  290TIP3    H222430   6.655   0.063   8.127  0.6068  0.6804 -1.0189
  291TIP3   OH222431   2.180   2.280   7.613  0.1418 -0.2132  0.5271
  291TIP3    H122432   2.136   2.237   7.540 -1.4462 -0.7230  1.7214
  291TIP3    H222433   2.131   2.361   7.627 -1.3668 -1.3859  2.6893
  292TIP3   OH222434   6.788   4.570   1.105  0.3019 -0.1082  0.4835
  292TIP3    H122435   6.849   4.611   1.166 -0.8086  0.3903  1.2899
  292TIP3    H222436   6.716   4.632   1.098 -0.1625 -0.7245 -0.3859
  293TIP3   OH222437   0.898   5.438   7.082  0.1500 -0.2556  0.2892
  293TIP3    H122438   0.948   5.516   7.058  0.9752 -0.7802  0.2460
  293TIP3    H222439   0.824   5.438   7.021 -1.1063  1.6692  1.7319
  294TIP3   OH222440   3.189   3.618   7.384  0.3920 -0.6107  0.1178
  294TIP3    H122441   3.130   3.590   7.314 -0.1673  0.1518  0.2668
  294TIP3    H222442   3.271   3.639   7.340  0.4788 -1.4352 -0.1276
  295TIP3   OH222443   2.955   5.355   1.285 -0.6121 -0.2102  0.7419
  295TIP3    H122444   2.881   5.414   1.298 -0.3675  0.1474  0.5339
  295TIP3    H222445   3.022   5.386   1.346  0.3903  1.2268 -0.9990
  296TIP3   OH222446   0.047   2.403   7.754  0.1098 -0.6512  0.6730
  296TIP3    H122447  -0.043   2.400   7.785 -0.3893  1.2945 -0.4109
  296TIP3    H222448   0.040   2.402   7.659  1.1294  0.7489  0.5485
  297TIP3   OH222449   4.653   0.885   1.724  0.2275 -0.0582  0.7534
  297TIP3    H122450   4.698   0.801   1.730  1.2891  0.3100 -1.2835
  297TIP3    H222451   4.634   0.895   1.631 -0.9631  1.4128  1.1324
  298TIP3   OH222452   3.571   3.788   0.201 -0.5763  0.3080  0.0706
  298TIP3    H122453   3.549   3.713   0.145 -1.4008  0.4258  0.2102
  298TIP3    H222454   3.498   3.849   0.187  0.3034  1.2750 -0.3621
  299TIP3   OH222455   1.461   6.606   1.438 -0.6130  0.2492 -0.1899
  299TIP3    H122456   1.508   6.678   1.481 -1.2204  1.4555 -1.4564
  299TIP3    H222457   1.381   6.596   1.490  1.1039 -2.1139  2.2460
  300TIP3   OH222458   3.791   3.198   1.475 -0.1993  0.0872  0.1224
  300TIP3    H122459   3.698   3.217   1.463 -0.0527  0.9927  0.3144
  300TIP3    H222460   3.800   3.183   1.569  0.1173  1.7178  0.3889
  301TIP3   OH222461   4.455   3.703   7.429  0.3177 -0.1190 -0.3002
  301TIP3    H122462   4.470   3.797   7.437  0.1281  0.0733 -1.9709
  301TIP3    H222463   4.373   3.689   7.477  0.5919  0.4709  0.3708
  302TIP3   OH222464   2.930   0.904   7.942 -0.1765 -0.5173  0.0416
  302TIP3    H122465   2.957   0.944   8.025  1.1234 -1.4309  0.0893
  302TIP3    H222466   2.844   0.867   7.960 -1.0978  1.5864  0.2000
  303TIP3   OH222467   3.557   0.189   0.241 -0.3107  0.3543 -0.5635
  303TIP3    H122468   3.525   0.129   0.308 -0.7200  0.3442 -0.7639
  303TIP3    H222469   3.644   0.156   0.218  0.0103  0.6087  0.2610
  304TIP3   OH222470   0.920   3.018   8.244  0.6364 -0.3133 -0.4854
  304TIP3    H122471   0.825   3.022   8.252  0.6458  0.4234 -0.6149
  304TIP3    H222472   0.951   2.997   8.332  0.3535 -0.6561 -0.4649
  305TIP3   OH222473   6.196   3.995   8.622  0.2762 -0.6249  0.1996
  305TIP3    H122474   6.287   3.971   8.606  0.6569  0.8993 -0.0732
  305TIP3    H222475   6.172   4.051   8.549 -1.7602 -3.0696 -1.1584
  306TIP3   OH222476   5.642   1.336   1.575 -0.0019 -0.4670 -0.7907
  306TIP3    H122477   5.616   1.424   1.604 -0.8401 -1.0533  0.3119
  306TIP3    H222478   5.710   1.309   1.638  0.3728 -0.5454 -1.2268
  307TIP3   OH222479   5.542   4.567   2.722  0.2098  0.5279 -0.4950
  307TIP3    H122480   5.506   4.550   2.634 -1.2640  3.6442 -0.6461
  307TIP3    H222481   5.545   4.663   2.727 -0.1253  0.4529  2.9951
  308TIP3   OH222482   2.762   5.937   1.637 -0.1328  0.0478  0.3709
  308TIP3    H122483   2.685   5.898   1.595 -0.0822 -1.3158  1.4435
  308TIP3    H222484   2.726   5.995   1.704 -0.2106  2.0441 -1.3198
  309TIP3   OH222485   4.740   2.137   2.555  0.0935 -0.4751 -0.7121
  309TIP3    H122486   4.804   2.170   2.492 -0.1454 -0.8183 -1.1432
  309TIP3    H222487   4.690   2.214   2.581  0.3214 -0.2982 -0.7985
  310TIP3   OH222488   2.624   3.998   7.385  0.1428  0.3621 -0.4372
  310TIP3    H122489   2.657   4.086   7.404 -3.4363  1.5577  1.2556
  310TIP3    H222490   2.648   3.947   7.462  0.0712  0.5512 -0.2876
  311TIP3   OH222491   1.001   0.348   8.705 -0.0760 -0.3570 -0.4103
  311TIP3    H122492   0.909   0.341   8.729 -0.1688  0.1016 -0.6471
  311TIP3    H222493   1.032   0.257   8.704 -0.3882 -0.4753  0.2009
  312TIP3   OH222494   4.213   2.662   0.955 -0.2228 -0.2407  0.1457
  312TIP3    H122495   4.223   2.627   1.044 -0.8071 -0.2289  0.2175
  312TIP3    H222496   4.171   2.747   0.967 -0.9418 -0.5449 -0.1872
  313TIP3   OH222497   6.408   1.000   7.777 -0.3075  0.0602 -1.0068
  313TIP3    H122498   6.433   0.979   7.687  0.4283 -0.4292 -0.7013
  313TIP3    H222499   6.313   0.988   7.779 -0.0909 -2.2646 -1.1417
  314TIP3   OH222500   4.578   4.552   0.304 -0.0862  0.1881  0.5408
  314TIP3    H122501   4.621   4.561   0.219  0.3190  0.8187  0.8083
  314TIP3    H222502   4.623   4.478   0.345  1.5921  1.5570  1.2954
  315TIP3   OH222503   5.809   6.333   1.836  0.6181  0.4180 -0.1407
  315TIP3    H122504   5.810   6.412   1.783  0.8881 -0.4178 -1.4074
  315TIP3    H222505   5.850   6.266   1.782 -0.0080 -0.7165  0.7282
  316TIP3   OH222506   1.510   3.022   1.583 -0.0966  0.2011  0.1141
  316TIP3    H122507   1.514   3.084   1.655  2.3922  0.1835  0.0670
  316TIP3    H222508   1.544   3.071   1.508  1.0866 -0.9205 -0.1171
  317TIP3   OH222509   0.659   6.039   1.132 -0.3764  0.1837 -0.5711
  317TIP3    H122510   0.748   6.071   1.119 -0.1794 -0.3132 -0.4829
  317TIP3    H222511   0.659   6.002   1.220 -0.7739  0.5130 -0.4292
  318TIP3   OH222512   2.310   0.629   8.632  0.0715  0.2817 -0.3737
  318TIP3    H122513   2.403   0.626   8.655 -0.4499 -2.2186  1.9583
  318TIP3    H222514   2.306   0.677   8.550  3.7661 -2.1111 -2.1758
  319TIP3   OH222515   3.630   2.798   2.411  0.4517  0.0100 -0.1031
  319TIP3    H122516   3.679   2.790   2.329  0.8193 -1.6341  0.2436
  319TIP3    H222517   3.695   2.782   2.479 -0.1152  0.0655  0.4600
  320TIP3   OH222518   2.681   2.301   1.709  0.0839 -0.1230  0.5683
  320TIP3    H122519   2.592   2.307   1.743 -0.4409  0.5248 -0.8546
  320TIP3    H222520   2.734   2.350   1.772 -1.0943  2.4410 -0.2956
  321TIP3   OH222521   3.848   0.127   1.109  0.1053 -0.6813 -0.2579
  321TIP3    H122522   3.942   0.138   1.122 -0.2139  1.5152  0.7348
  321TIP3    H222523   3.808   0.192   1.167 -2.0569 -1.9260 -0.2393
  322TIP3   OH222524   2.802   1.893   0.952  0.2818 -0.1635  0.1420
  322TIP3    H122525   2.853   1.930   0.879 -1.1745 -0.6447 -1.1657
  322TIP3    H222526   2.713   1.887   0.919 -0.1302 -1.9021  1.4122
  323TIP3   OH222527   5.158   2.433   1.664 -0.3891 -0.3971  0.0282
  323TIP3    H122528   5.175   2.342   1.688 -0.7054  0.1476  2.5803
  323TIP3    H222529   5.240   2.478   1.682 -0.5071 -0.0227 -0.3651
  324TIP3   OH222530   3.978   2.644   7.885 -0.2667 -0.5561  0.0525
  324TIP3    H122531   3.924   2.570   7.856 -0.2075 -0.6540  0.1859
  324TIP3    H222532   4.021   2.676   7.806 -0.5531 -0.4507 -0.0607
  325TIP3   OH222533   4.581   2.866   0.060 -0.1468  0.1726  0.3565
  325TIP3    H122534   4.606   2.787   0.012  0.3228  0.4112  0.2030
  325TIP3    H222535   4.589   2.937  -0.004 -0.3362  0.3783  0.5563
  326TIP3   OH222536   2.162   3.203   8.512 -0.3988 -0.2784  0.3123
  326TIP3    H122537   2.091   3.188   8.450  0.6740 -1.5504 -0.6750
  326TIP3    H222538   2.130   3.169   8.595 -1.2105 -0.1308  0.0639
  327TIP3   OH222539   3.068   0.268   8.530 -0.4340  0.3888 -0.3022
  327TIP3    H122540   3.090   0.283   8.621  0.0106 -0.0345 -0.3351
  327TIP3    H222541   3.152   0.262   8.485 -0.6386  0.0450 -0.6463
  328TIP3   OH222542   4.479   6.148   8.733  0.3671  0.3484  0.3261
  328TIP3    H122543   4.570   6.162   8.708  0.6578  2.7304  2.3868
  328TIP3    H222544   4.482   6.083   8.803  0.7548  1.8412  1.7476
  329TIP3   OH222545   2.556   4.530   1.565  0.2160  0.6396 -0.5190
  329TIP3    H122546   2.617   4.468   1.606  0.9366  2.1924  0.8930
  329TIP3    H222547   2.540   4.495   1.478  1.2298 -1.0875 -0.0499
  330TIP3   OH222548   1.985   4.954   7.914  0.0952 -0.0755 -0.0516
  330TIP3    H122549   1.919   4.994   7.857 -0.8203 -1.4066  0.0198
  330TIP3    H222550   2.042   4.906   7.853  1.5063  1.6985 -0.1905
  331TIP3   OH222551   4.608   6.772   0.632 -0.0609  0.6315  0.1415
  331TIP3    H122552   4.591   6.706   0.565 -0.2925 -0.3665  1.1486
  331TIP3    H222553   4.702   6.765   0.648  0.0326  1.0264 -0.2408
  332TIP3   OH222554   1.346   4.968   8.398  0.2480  0.0158  0.3824
  332TIP3    H122555   1.254   4.965   8.374 -0.1352 -1.6143  1.9016
  332TIP3    H222556   1.393   4.936   8.321 -0.4291  0.9343 -0.4237
  333TIP3   OH222557   3.035   4.465   1.804  0.3390 -0.0926 -0.2034
  333TIP3    H122558   3.003   4.531   1.865  1.7196  1.0097 -0.6140
  333TIP3    H222559   3.063   4.392   1.860 -0.8573 -0.2109  0.2764
  334TIP3   OH222560   1.740   6.533   1.278  0.1649  0.2735 -0.0286
  334TIP3    H122561   1.800   6.459   1.287 -2.2609 -1.9959 -1.2859
  334TIP3    H222562   1.706   6.547   1.366 -0.0455 -0.7346  0.0586
  335TIP3   OH222563   4.943   1.369   1.476 -0.5914 -0.5618  0.1337
  335TIP3    H122564   4.896   1.329   1.549  0.4207 -2.9458 -0.4197
  335TIP3    H222565   4.900   1.333   1.398  1.0143 -1.4705 -0.3829
  336TIP3   OH222566   0.345   1.324   8.216  0.0085 -0.1033 -0.4132
  336TIP3    H122567   0.381   1.362   8.136 -0.1631  3.5803  1.0467
  336TIP3    H222568   0.252   1.349   8.215 -0.2283 -0.8866  0.4405
  337TIP3   OH222569   6.711   3.713   0.726 -0.0002  0.1747 -0.1245
  337TIP3    H122570   6.632   3.757   0.757 -0.7651 -1.6386  0.6180
  337TIP3    H222571   6.765   3.700   0.804  0.3131 -0.0137 -0.3657
  338TIP3   OH222572   5.140   4.027   7.948  0.3918 -0.0212 -0.0985
  338TIP3    H122573   5.224   4.032   7.901 -0.0073  1.2977 -0.7235
  338TIP3    H222574   5.111   3.937   7.936  2.1085 -0.7438  0.8445
  339TIP3   OH222575   0.060   1.790   0.925 -0.4912 -0.2528  0.3763
  339TIP3    H122576   0.131   1.849   0.953  0.6171 -0.7311 -1.2634
  339TIP3    H222577   0.023   1.756   1.006  1.2912 -0.1271  1.2855
  340TIP3   OH222578   3.471   0.193   7.759  0.5103 -0.0503 -0.1556
  340TIP3    H122579   3.407   0.243   7.707  1.0822  0.2573 -0.5861
  340TIP3    H222580   3.513   0.259   7.815 -0.1325 -0.3910  0.7310
  341TIP3   OH222581   2.718   3.964   8.767 -0.6535 -0.2965 -0.3246
  341TIP3    H122582   2.692   3.960   8.859 -0.5807 -2.0206 -0.3482
  341TIP3    H222583   2.775   3.888   8.754 -1.7778 -0.9304 -2.0969
  342TIP3   OH222584   5.101   3.910   2.402  0.2660  0.4493  0.1133
  342TIP3    H122585   5.044   3.833   2.409 -0.1889  0.8270  0.6782
  342TIP3    H222586   5.167   3.898   2.470  1.8216 -0.7443 -1.5239
  343TIP3   OH222587   3.136   5.162   6.998 -0.1619 -0.1207 -0.5734
  343TIP3    H122588   3.132   5.255   6.976 -0.6127 -0.1692 -0.7061
  343TIP3    H222589   3.215   5.153   7.052 -0.3709  0.4178 -0.1755
  344TIP3   OH222590   5.963   0.133   0.155  0.0039 -0.1897  0.2323
  344TIP3    H122591   5.959   0.041   0.182 -0.0401 -0.5171 -0.8588
  344TIP3    H222592   5.875   0.152   0.123  1.0313 -1.0845 -3.6302
  345TIP3   OH222593   3.166   1.619   8.172  0.2865  0.1597  0.0390
  345TIP3    H122594   3.236   1.632   8.108  0.5960  1.0294  0.5355
  345TIP3    H222595   3.088   1.603   8.119  0.8910 -1.1153 -0.5162
  346TIP3   OH222596   6.703   5.252   0.484 -0.6007  0.4268  0.6342
  346TIP3    H122597   6.611   5.229   0.497 -0.5206  0.6053  1.6226
  346TIP3    H222598   6.713   5.258   0.389 -1.7864  1.1436  0.5307
  347TIP3   OH222599   6.358   2.127   0.520 -0.0083  0.8468 -0.0945
  347TIP3    H122600   6.353   2.193   0.452  0.4049  0.8642 -0.1118
  347TIP3    H222601   6.372   2.176   0.601 -1.7533  0.9195  0.2096
  348TIP3   OH222602   0.427   5.005   2.659  0.1695  0.2805 -0.3506
  348TIP3    H122603   0.428   5.022   2.565 -1.2042 -1.3185 -0.7004
  348TIP3    H222604   0.506   4.954   2.675  2.5339  3.7621  0.1371
  349TIP3   OH222605   2.279   2.735   7.108 -0.0145 -0.2443 -0.1457
  349TIP3    H122606   2.337   2.679   7.056  1.5082  0.7055  0.4388
  349TIP3    H222607   2.332   2.761   7.184 -0.6106  1.9841 -0.4042
  350TIP3   OH222608   0.070   3.233   7.392  0.4771  0.2472 -0.0902
  350TIP3    H122609   0.122   3.223   7.472  0.7661 -0.0507 -0.3117
  350TIP3    H222610   0.085   3.324   7.365  0.6597  0.2473  0.0049
  351TIP3   OH222611   3.631   6.080   7.077  0.3056  0.1653  0.9047
  351TIP3    H122612   3.669   6.147   7.021 -0.2871  1.4676  2.0005
  351TIP3    H222613   3.689   6.004   7.067 -0.0303  0.1389 -1.7958
  352TIP3   OH222614   0.314   4.827   8.336 -0.5222 -0.3083  0.4144
  352TIP3    H122615   0.241   4.765   8.339 -2.3303  1.5500 -1.5131
  352TIP3    H222616   0.329   4.842   8.243  0.5103  1.3707  0.8079
  353TIP3   OH222617   0.244   4.586   8.450 -0.2685  0.0565 -0.6489
  353TIP3    H122618   0.187   4.512   8.466  0.3464 -0.0501  1.2909
  353TIP3    H222619   0.259   4.625   8.536  2.7790 -0.1041 -0.9944
  354TIP3   OH222620   3.076   5.711   1.357 -0.2232  0.6795  0.4243
  354TIP3    H122621   3.067   5.637   1.417 -1.0666  0.9740  0.6708
  354TIP3    H222622   2.987   5.743   1.344  0.2801  2.7924  1.7433
  355TIP3   OH222623   0.393   4.568   7.941 -0.2939 -0.0620  0.1143
  355TIP3    H122624   0.471   4.621   7.920 -1.7155  1.9938 -0.2433
  355TIP3    H222625   0.393   4.563   8.036  1.3457 -1.8488  0.0818
  356TIP3   OH222626   0.545   1.495   2.323 -0.2676 -0.7038  0.0017
  356TIP3    H122627   0.622   1.542   2.290 -0.8301  0.6380  0.5754
  356TIP3    H222628   0.552   1.408   2.283  0.6151 -0.0499 -1.3365
  357TIP3   OH222629   0.214   4.425   1.182 -0.1616 -0.4260 -0.5593
  357TIP3    H122630   0.270   4.392   1.111  1.0401 -0.6402  0.4537
  357TIP3    H222631   0.159   4.491   1.141  2.4173  1.4578 -1.1695
  358TIP3   OH222632   0.380   4.063   0.162  0.0550  0.1659  0.2273
  358TIP3    H122633   0.408   4.147   0.200  1.0822  0.3149 -0.8061
  358TIP3    H222634   0.322   4.088   0.091  0.4448  0.0177 -0.1479
  359TIP3   OH222635   2.551   4.638   7.508 -0.1618 -0.7058  0.1944
  359TIP3    H122636   2.610   4.654   7.435  0.4819 -1.3668  0.5669
  359TIP3    H222637   2.508   4.556   7.486 -1.0429 -0.1765 -0.1268
  360TIP3   OH222638   4.862   1.676   0.143 -0.2705 -0.0764  0.1032
  360TIP3    H122639   4.872   1.756   0.091  3.4830  0.4001  1.2322
  360TIP3    H222640   4.849   1.708   0.233 -1.3634 -0.8001  0.2100
  361TIP3   OH222641   3.007   2.863   7.765  1.3144  0.4155 -0.6624
  361TIP3    H122642   3.022   2.926   7.694  0.2830 -0.6011 -1.8418
  361TIP3    H222643   2.965   2.913   7.834  0.3527  1.0167 -1.6457
  362TIP3   OH222644   6.308   5.728   2.407 -0.4801 -0.2237 -0.0316
  362TIP3    H122645   6.224   5.707   2.447 -0.4739 -0.3130 -0.0645
  362TIP3    H222646   6.327   5.653   2.351  0.5505 -1.1170  1.4492
  363TIP3   OH222647   4.816   5.057   7.516 -0.3329  0.8131 -0.3429
  363TIP3    H122648   4.853   5.006   7.444 -2.0917 -0.6426 -0.2599
  363TIP3    H222649   4.735   5.093   7.480 -1.2914 -0.0284  0.9179
  364TIP3   OH222650   5.881   5.042   2.796 -0.7967  0.1018  0.1324
  364TIP3    H122651   5.833   4.990   2.861  0.0570 -0.2555  0.5078
  364TIP3    H222652   5.957   5.076   2.845 -1.4054  1.8332 -0.0703
  365TIP3   OH222653   2.617   3.673   2.052 -0.1541  0.3097 -0.1886
  365TIP3    H122654   2.620   3.723   1.970 -2.0660  0.2477 -0.3555
  365TIP3    H222655   2.548   3.715   2.103  0.0117 -0.5606  0.7769
  366TIP3   OH222656   2.452   0.893   0.324 -0.1841 -0.1224  0.4816
  366TIP3    H122657   2.438   0.882   0.230  1.0504 -0.4486  0.3199
  366TIP3    H222658   2.525   0.834   0.344 -0.4863 -0.1081  1.6611
  367TIP3   OH222659   5.993   3.233   1.313  0.2072 -0.1198 -0.1797
  367TIP3    H122660   6.077   3.187   1.312  0.3828  0.1988 -1.5406
  367TIP3    H222661   5.929   3.164   1.330  0.5832 -0.6689 -0.9330
  368TIP3   OH222662   1.976   1.629   7.498 -0.0733 -0.2294  0.7011
  368TIP3    H122663   1.933   1.714   7.484 -1.5157 -1.0175  0.0993
  368TIP3    H222664   1.907   1.565   7.483  1.0296 -1.5310  0.9956
  369TIP3   OH222665   6.733   6.467   1.775  0.5857 -0.0372  0.5352
  369TIP3    H122666   6.648   6.478   1.733  0.5864 -0.8688  0.2936
  369TIP3    H222667   6.731   6.527   1.849 -0.1691  0.0274  0.4713
  370TIP3   OH222668   4.134   5.682   8.197 -0.6055  0.5024  0.9700
  370TIP3    H122669   4.076   5.606   8.194 -2.3145  1.7257  1.4506
  370TIP3    H222670   4.120   5.727   8.114  0.3945  0.3343  0.6914
  371TIP3   OH222671   5.577   2.607   2.663 -0.2229 -0.0689  0.2425
  371TIP3    H122672   5.587   2.612   2.567 -0.1449 -1.3989  0.1648
  371TIP3    H222673   5.484   2.625   2.678 -0.2125  0.2683 -0.0681
  372TIP3   OH222674   3.670   4.200   1.090  0.7089 -0.0505  0.2253
  372TIP3    H122675   3.642   4.232   1.004  2.9074 -0.8557 -0.8642
  372TIP3    H222676   3.687   4.279   1.140 -2.6307  0.4945  0.7720
  373TIP3   OH222677   1.448   0.612   2.011 -0.0465 -0.1560 -0.5627
  373TIP3    H122678   1.535   0.618   2.051 -0.1867 -0.2551 -0.2317
  373TIP3    H222679   1.433   0.518   1.999 -1.0136 -0.3311  1.4803
  374TIP3   OH222680   0.343   2.772   7.568 -0.1168  0.1686 -0.0860
  374TIP3    H122681   0.251   2.748   7.582  0.4219 -1.8034  0.3422
  374TIP3    H222682   0.350   2.787   7.474 -0.6393 -0.8799 -0.3078
  375TIP3   OH222683   2.762   5.866   0.879  0.1672  0.4574 -0.0546
  375TIP3    H122684   2.721   5.948   0.853 -0.7551  0.2096  0.5609
  375TIP3    H222685   2.710   5.798   0.835  0.7775  0.1854 -0.3730
  376TIP3   OH222686   0.703   2.224   8.205  0.1251  0.2152 -0.4553
  376TIP3    H122687   0.760   2.182   8.140 -1.1334  0.7188 -1.9556
  376TIP3    H222688   0.653   2.152   8.244  0.9006 -0.0919 -0.0101
  377TIP3   OH222689   1.391   5.467   7.898  0.1100 -0.3830  0.4551
  377TIP3    H122690   1.444   5.544   7.878  1.0144 -1.0734  0.1556
  377TIP3    H222691   1.316   5.474   7.840  0.7800 -0.3462 -0.4183
  378TIP3   OH222692   2.071   4.059   7.310  0.2338  0.1842  0.1741
  378TIP3    H122693   2.154   4.107   7.310  0.3505  0.0179 -0.9335
  378TIP3    H222694   2.095   3.969   7.287  0.1740 -0.7725  3.4314
  379TIP3   OH222695   0.987   5.928   1.311 -0.6997 -0.3863 -0.1062
  379TIP3    H122696   0.971   6.013   1.352  1.3266 -0.6044  1.2589
  379TIP3    H222697   1.038   5.879   1.376  1.3415 -1.3275 -2.2758
  380TIP3   OH222698   1.127   3.855   0.452  0.6005  0.5188  0.2977
  380TIP3    H122699   1.125   3.949   0.471 -0.6720  0.6111 -0.1707
  380TIP3    H222700   1.208   3.843   0.403  0.7934  1.3762  0.3841
  381TIP3   OH222701   4.572   6.103   7.693  0.4354  0.6092 -0.0529
  381TIP3    H122702   4.645   6.165   7.705  1.6904 -0.7881 -0.1614
  381TIP3    H222703   4.572   6.085   7.599 -2.2348  3.0696 -0.6769
  382TIP3   OH222704   2.979   6.191   1.297  0.8012 -0.3353  0.3578
  382TIP3    H122705   3.043   6.120   1.306  1.7154  0.2994 -0.8305
  382TIP3    H222706   2.967   6.224   1.386 -0.2443 -2.4536  1.0680
  383TIP3   OH222707   5.909   5.111   2.219  0.0950  0.0567 -0.3606
  383TIP3    H122708   5.908   5.184   2.281  0.1164 -0.8409  0.7184
  383TIP3    H222709   5.988   5.062   2.240 -0.9234 -1.3920  0.2715
  384TIP3   OH222710   1.239   4.983   1.745  0.0827 -0.2224  0.8557
  384TIP3    H122711   1.230   5.033   1.826  0.8650  1.3690  0.0226
  384TIP3    H222712   1.171   5.018   1.688 -0.6139 -1.4921  0.8810
  385TIP3   OH222713   4.134   6.579   1.774 -0.2104  0.1129  0.5043
  385TIP3    H122714   4.225   6.579   1.803 -0.3756 -1.0222  1.0701
  385TIP3    H222715   4.088   6.631   1.839  0.3331  2.6166 -0.9533
  386TIP3   OH222716   5.360   0.494   7.054 -0.0488 -0.0150 -0.6339
  386TIP3    H122717   5.336   0.403   7.074 -0.6972 -0.2689 -2.3547
  386TIP3    H222718   5.335   0.543   7.132  0.8794 -1.3798  0.5760
  387TIP3   OH222719   2.535   4.312   2.236  0.1259  0.4212  0.0376
  387TIP3    H122720   2.574   4.286   2.152 -0.1446  0.8926 -0.2403
  387TIP3    H222721   2.536   4.408   2.234  0.7269  0.4470  0.8615
  388TIP3   OH222722   5.489   5.809   0.795 -0.1261  0.1717  0.3998
  388TIP3    H122723   5.572   5.840   0.757  0.1581 -1.8765 -0.7755
  388TIP3    H222724   5.500   5.715   0.805 -2.1466 -0.0828  0.6894
  389TIP3   OH222725   3.288   0.749   1.071 -0.3261 -0.1802  0.0223
  389TIP3    H122726   3.272   0.659   1.102 -3.8270  0.2116 -0.2233
  389TIP3    H222727   3.243   0.753   0.986  0.4573  1.6019 -0.3429
  390TIP3   OH222728   2.903   1.623   8.068 -0.6034 -0.1615  0.3588
  390TIP3    H122729   2.905   1.717   8.048 -1.0195 -0.2515 -0.1327
  390TIP3    H222730   2.823   1.592   8.027  0.0349 -0.9260 -0.3394
  391TIP3   OH222731   5.809   1.374   8.008  0.2486 -0.2834  0.4694
  391TIP3    H122732   5.874   1.422   7.957  1.3893 -2.6681 -0.4707
  391TIP3    H222733   5.736   1.435   8.017  0.6222  0.8243 -2.7079
  392TIP3   OH222734   0.344   5.105   1.938  0.1740  0.5066  0.4733
  392TIP3    H122735   0.306   5.115   2.025 -0.1638  0.2669  0.3541
  392TIP3    H222736   0.407   5.033   1.948  0.0585  0.4091  0.4915
  393TIP3   OH222737   3.763   6.161   8.168 -0.3936 -0.0955  0.3798
  393TIP3    H122738   3.792   6.084   8.216  0.0290  0.3467  0.8417
  393TIP3    H222739   3.697   6.127   8.107  1.6396 -1.3032 -1.3009
  394TIP3   OH222740   3.617   2.640   7.729 -0.0578  0.2509  0.2523
  394TIP3    H122741   3.563   2.644   7.650  1.6034  2.4129 -0.9089
  394TIP3    H222742   3.686   2.578   7.707 -0.0181  0.2782  0.3004
  395TIP3   OH222743   6.338   2.921   2.385 -0.0657  0.7254 -0.3361
  395TIP3    H122744   6.264   2.868   2.356  1.5393 -1.1563 -1.2430
  395TIP3    H222745   6.331   2.923   2.480 -0.0627 -1.3889 -0.2512
  396TIP3   OH222746   4.112   5.097   0.501  0.2534  0.0433 -0.1766
  396TIP3    H122747   4.097   5.173   0.557 -0.6076 -0.2384 -0.0202
  396TIP3    H222748   4.071   5.024   0.547  1.4575 -0.6167 -0.1018
  397TIP3   OH222749   6.530   6.297   2.936 -0.0818  0.0649 -0.2102
  397TIP3    H122750   6.595   6.237   2.974 -1.3143 -0.8198  0.5546
  397TIP3    H222751   6.536   6.281   2.841  2.4036  1.6736 -0.4278
  398TIP3   OH222752   4.283   1.316   2.462 -0.2444  0.1507 -0.1213
  398TIP3    H122753   4.263   1.373   2.536  0.8150 -0.8978  1.0229
  398TIP3    H222754   4.378   1.302   2.468  0.0009  0.6664 -2.1601
  399TIP3   OH222755   2.273   0.421   0.391 -0.6804 -0.0839  0.3022
  399TIP3    H122756   2.203   0.357   0.384 -1.2312  0.6451 -1.6106
  399TIP3    H222757   2.351   0.375   0.358 -0.8238 -0.1276  0.0205
  400TIP3   OH222758   6.394   3.166   7.071 -0.2189  0.3279  0.1069
  400TIP3    H122759   6.476   3.212   7.055 -0.3156  0.1804 -0.9170
  400TIP3    H222760   6.397   3.142   7.164  1.7088 -1.2076 -0.2910
  401TIP3   OH222761   2.213   3.900   8.486  0.0125 -0.4841  0.1689
  401TIP3    H122762   2.283   3.844   8.519 -0.2615 -1.1592 -0.3721
  401TIP3    H222763   2.173   3.849   8.415 -0.6609  0.1266  0.1003
  402TIP3   OH222764   2.788   4.434   1.294 -0.7235 -0.2708  0.0506
  402TIP3    H122765   2.834   4.353   1.270 -1.3641 -0.4184 -0.7306
  402TIP3    H222766   2.793   4.437   1.389 -0.8915 -1.3674  0.1093
  403TIP3   OH222767   3.751   0.915   2.956 -0.9158  0.0748 -0.1481
  403TIP3    H122768   3.758   0.952   3.044 -0.3235  1.0948 -0.5959
  403TIP3    H222769   3.674   0.858   2.960  0.5666 -1.9278  1.7057
  404TIP3   OH222770   1.480   2.044   2.757  0.1661 -0.3205  0.1596
  404TIP3    H122771   1.568   2.065   2.725 -0.1648 -1.3657 -1.5742
  404TIP3    H222772   1.494   1.999   2.839  1.3148 -1.1353 -0.4621
  405TIP3   OH222773   6.059   2.891   8.314 -0.5863  0.3507 -0.2718
  405TIP3    H122774   6.057   2.967   8.255  0.5718  0.7720  0.2000
  405TIP3    H222775   6.148   2.891   8.349 -1.5783  0.8868  2.4662
  406TIP3   OH222776   0.019   1.035   1.797 -0.0601 -0.4614  0.0428
  406TIP3    H122777  -0.000   1.050   1.889  1.0057  0.1947  0.1698
  406TIP3    H222778   0.093   0.974   1.798 -1.4896 -2.2883 -0.4231
  407TIP3   OH222779   4.031   4.059   0.774 -0.2181 -0.1769  0.1963
  407TIP3    H122780   3.960   4.038   0.714 -0.2290  2.7922 -0.9776
  407TIP3    H222781   3.990   4.063   0.861 -0.9934 -0.6711 -0.1417
  408TIP3   OH222782   4.077   6.078   6.962 -0.3788  0.0192 -0.4133
  408TIP3    H122783   4.054   6.146   6.898 -0.4637 -0.0579 -0.4643
  408TIP3    H222784   4.171   6.063   6.948 -0.2376  0.5064 -0.0437
  409TIP3   OH222785   0.479   2.724   2.209 -0.4234  0.7458 -0.6878
  409TIP3    H122786   0.406   2.773   2.248 -1.0064 -0.4929 -0.1677
  409TIP3    H222787   0.554   2.744   2.266 -0.4983  1.5204 -0.8502
  410TIP3   OH222788   0.602   3.032   7.775 -0.6578  0.6995  0.4813
  410TIP3    H122789   0.632   3.089   7.704  0.6594 -0.4033  0.1220
  410TIP3    H222790   0.518   2.999   7.746 -0.6379  1.1272 -0.0743
  411TIP3   OH222791   0.113   1.732   2.284  0.1885  0.2606  0.2509
  411TIP3    H122792   0.030   1.688   2.302  0.2105 -0.4726 -1.2667
  411TIP3    H222793   0.176   1.661   2.277  0.2862  0.4844 -1.9260
  412TIP3   OH222794   0.100   3.053   8.536  0.2048 -0.3904 -0.1997
  412TIP3    H122795   0.080   3.058   8.442  1.2762  1.3319 -0.3704
  412TIP3    H222796   0.015   3.067   8.579  0.0052  0.7458 -0.9177
  413TIP3   OH222797   3.428   3.090   1.065  0.0702 -0.4466 -0.1095
  413TIP3    H122798   3.486   3.129   1.000  0.6084 -1.3079 -0.1655
  413TIP3    H222799   3.479   3.089   1.146 -0.0512 -0.7422 -0.0339
  414TIP3   OH222800   0.714   6.313   1.257 -0.0160 -0.4581  0.3056
  414TIP3    H122801   0.712   6.335   1.164 -2.2876 -1.4717  0.0515
  414TIP3    H222802   0.625   6.285   1.277  0.3261  0.0697  2.8943
  415TIP3   OH222803   2.648   5.808   2.692 -0.4343  0.3977 -0.4362
  415TIP3    H122804   2.685   5.826   2.606 -0.2935 -0.1068 -0.4822
  415TIP3    H222805   2.556   5.787   2.675 -0.1256 -0.9252 -0.6114
  416TIP3   OH222806   4.645   6.152   0.799  0.4645 -0.9826  0.6083
  416TIP3    H122807   4.688   6.228   0.760 -0.1529 -0.6642  0.5446
  416TIP3    H222808   4.716   6.088   0.810  1.4379  0.3180  2.5532
  417TIP3   OH222809   4.770   6.802   7.392 -0.2022 -0.1851 -0.1208
  417TIP3    H122810   4.757   6.824   7.300 -0.7786 -1.3839 -0.3433
  417TIP3    H222811   4.688   6.760   7.419  0.7584 -1.9150  0.2946
  418TIP3   OH222812   0.127   3.230   2.162  0.2835  0.4579 -0.1206
  418TIP3    H122813   0.116   3.256   2.254  1.8185 -0.4475  0.3528
  418TIP3    H222814   0.088   3.302   2.112  2.9640  3.0029  1.1671
  419TIP3   OH222815   1.020   5.348   1.513 -0.2510 -0.1896 -0.0705
  419TIP3    H122816   1.041   5.257   1.489  0.8442 -0.1388  0.6305
  419TIP3    H222817   1.079   5.368   1.585 -1.8890  0.4164  1.1577
  420TIP3   OH222818   3.987   6.456   1.246  0.0014 -0.7971  0.1883
  420TIP3    H122819   3.951   6.368   1.236 -1.5771 -0.0978 -0.5543
  420TIP3    H222820   4.032   6.472   1.164  1.4785 -1.3943  0.8424
  421TIP3   OH222821   2.252   4.866   7.874 -0.1369 -0.2412  0.2536
  421TIP3    H122822   2.295   4.940   7.917 -0.9899  0.9628 -0.8823
  421TIP3    H222823   2.248   4.891   7.781 -4.4906  0.4314  0.3937
  422TIP3   OH222824   0.143   3.392   1.432 -0.5011 -0.3352  0.3298
  422TIP3    H122825   0.125   3.429   1.346 -1.0052  0.0592  0.6014
  422TIP3    H222826   0.203   3.319   1.415 -0.4939 -0.1763 -0.3361
  423TIP3   OH222827   3.952   5.663   0.808 -0.1239 -0.4723 -0.2079
  423TIP3    H122828   4.044   5.640   0.794  0.2149  0.0820  0.8898
  423TIP3    H222829   3.944   5.669   0.904 -0.8600  1.1584 -0.3334
  424TIP3   OH222830   6.536   4.547   1.307  0.3874  0.5453 -0.0390
  424TIP3    H122831   6.565   4.638   1.320 -0.4347  0.6247  1.5495
  424TIP3    H222832   6.441   4.553   1.306  0.3370 -0.2744 -0.2623
  425TIP3   OH222833   5.396   2.749   1.173  0.1992 -0.0068 -0.6432
  425TIP3    H122834   5.322   2.767   1.115  1.6866  1.4891 -2.2121
  425TIP3    H222835   5.356   2.724   1.256 -2.0603  0.8801 -1.3729
  426TIP3   OH222836   5.275   2.239   0.084  0.6990  0.7678  0.6448
  426TIP3    H122837   5.283   2.152   0.047  2.4923  0.1902  2.1923
  426TIP3    H222838   5.339   2.292   0.036 -0.8586  1.4670 -0.7568
  427TIP3   OH222839   0.412   3.886   7.807  0.4295  0.5128 -0.3624
  427TIP3    H122840   0.386   3.966   7.761 -1.0777  1.2416  1.5913
  427TIP3    H222841   0.487   3.912   7.861 -0.0348  0.6288  0.2415
  428TIP3   OH222842   5.742   3.679   0.153  0.0017 -0.7471 -0.2856
  428TIP3    H122843   5.799   3.622   0.102 -0.2397 -0.7327 -0.5737
  428TIP3    H222844   5.793   3.758   0.168 -0.1944 -0.4419 -1.1559
  429TIP3   OH222845   1.690   5.922   7.747 -0.6732 -0.1341  0.5219
  429TIP3    H122846   1.656   5.950   7.832  0.2044  0.2010  0.7744
  429TIP3    H222847   1.685   6.000   7.692  1.7038  0.5711  1.2042
  430TIP3   OH222848   4.725   2.096   6.885  0.2636 -0.8741 -0.2704
  430TIP3    H122849   4.812   2.057   6.883 -0.2868 -2.1820  0.3150
  430TIP3    H222850   4.666   2.025   6.860 -0.8112 -0.5824  1.2753
  431TIP3   OH222851   2.767   4.473   2.715 -0.0929 -0.1500  0.2228
  431TIP3    H122852   2.845   4.489   2.662  1.1519 -0.3796  1.9242
  431TIP3    H222853   2.733   4.560   2.734 -1.5149 -0.0653 -2.1895
  432TIP3   OH222854   2.252   0.530   0.623 -0.3761 -0.0945 -0.3249
  432TIP3    H122855   2.262   0.494   0.535 -1.4824 -1.5885  0.1236
  432TIP3    H222856   2.251   0.454   0.680 -2.3621  0.6581  0.7179
  433TIP3   OH222857   2.232   6.661   1.720  0.2780 -0.5823 -0.5652
  433TIP3    H122858   2.208   6.633   1.632  0.5132  0.3730 -0.9466
  433TIP3    H222859   2.312   6.713   1.708  1.0364 -1.4828  0.3627
  434TIP3   OH222860   1.666   4.132   0.651  0.0211 -0.0742  0.3158
  434TIP3    H122861   1.747   4.087   0.631 -0.2778 -1.0904  1.3305
  434TIP3    H222862   1.687   4.225   0.642  1.2209 -0.3327  0.3510
  435TIP3   OH222863   1.804   2.437   1.799 -0.5402 -0.1072  0.4524
  435TIP3    H122864   1.883   2.456   1.749 -1.1816  0.1696 -0.4759
  435TIP3    H222865   1.744   2.508   1.777 -2.0311 -1.7290 -0.9756
  436TIP3   OH222866   2.358   0.988   2.277  0.5797  0.0342  0.0915
  436TIP3    H122867   2.271   0.998   2.314  1.3813  2.9073  1.5028
  436TIP3    H222868   2.418   1.001   2.351  2.2613 -2.2669 -0.7473
  437TIP3   OH222869   2.352   6.116   1.944 -0.6450 -0.1341  0.6843
  437TIP3    H122870   2.331   6.137   2.035 -0.0043 -0.9636  1.0360
  437TIP3    H222871   2.267   6.108   1.901 -0.9586 -0.0824  1.2862
  438TIP3   OH222872   2.464   4.028   2.821  0.3905  0.1811 -0.4626
  438TIP3    H122873   2.384   4.045   2.771 -0.0887 -0.1216  0.2016
  438TIP3    H222874   2.435   3.982   2.899  0.9949  1.6575  0.6809
  439TIP3   OH222875   0.547   1.302   7.986  0.0625  0.9480  0.4303
  439TIP3    H122876   0.536   1.392   7.952  1.7793  1.0727  0.1041
  439TIP3    H222877   0.598   1.313   8.066  1.9837  0.1707 -0.6216
  440TIP3   OH222878   5.120   6.696   1.379  0.9442 -0.3667 -0.0151
  440TIP3    H122879   5.114   6.651   1.295 -0.7253 -0.6402  0.2119
  440TIP3    H222880   5.167   6.634   1.436  1.7499 -0.3309 -0.6193
  441TIP3   OH222881   3.196   1.596   3.030 -0.1461  0.3967  0.0388
  441TIP3    H122882   3.178   1.665   3.094  0.6230  0.8936 -0.2657
  441TIP3    H222883   3.118   1.595   2.974 -1.3225 -0.7980  1.6034
  442TIP3   OH222884   1.101   3.009   8.486  0.1825  0.1722  0.4382
  442TIP3    H122885   1.079   3.069   8.557 -0.6618 -0.3533  0.6399
  442TIP3    H222886   1.172   3.053   8.438  0.1223  0.9554  1.0459
  443TIP3   OH222887   5.928   2.497   2.456 -0.4380  0.0231 -0.3205
  443TIP3    H122888   5.841   2.537   2.448 -1.3277 -1.2943  1.7998
  443TIP3    H222889   5.977   2.530   2.380 -2.4521  1.6013 -1.0257
  444TIP3   OH222890   6.285   5.007   7.297 -0.0415  0.4905  0.4416
  444TIP3    H122891   6.353   5.074   7.298  3.5088 -2.7832  1.7236
  444TIP3    H222892   6.297   4.961   7.215  0.6253 -1.2338  1.4464
  445TIP3   OH222893   2.998   5.881   0.620 -0.3211  0.6355  0.0156
  445TIP3    H122894   3.054   5.909   0.693  0.5966  2.2001 -1.2300
  445TIP3    H222895   2.983   5.788   0.636 -0.4192  0.9927  2.3648
  446TIP3   OH222896   2.486   1.228   0.152  0.0711 -0.1490 -0.4193
  446TIP3    H122897   2.399   1.202   0.120 -0.7161  0.6228  1.0122
  446TIP3    H222898   2.491   1.322   0.136  0.2991 -0.0378  0.2757
  447TIP3   OH222899   6.031   3.226   0.791  0.4313 -0.4457 -0.5179
  447TIP3    H122900   6.096   3.289   0.822 -1.6513  2.4318 -1.5160
  447TIP3    H222901   5.972   3.214   0.866  0.2834 -0.4443 -0.6345
  448TIP3   OH222902   6.366   3.357   1.298 -0.6901 -0.0722 -0.4828
  448TIP3    H122903   6.292   3.409   1.267 -0.0944  0.0241 -1.8223
  448TIP3    H222904   6.328   3.274   1.325 -1.4694  0.5305  0.3224
  449TIP3   OH222905   6.139   3.209   8.531  0.2433 -0.1808  0.1880
  449TIP3    H122906   6.148   3.241   8.442  0.2219  1.3725  0.7053
  449TIP3    H222907   6.131   3.288   8.584  1.3414 -1.0158  1.6861
  450TIP3   OH222908   0.678   5.136   2.969 -0.0546 -0.2892  0.1580
  450TIP3    H122909   0.593   5.148   3.012  0.2706 -0.6638  0.9239
  450TIP3    H222910   0.702   5.224   2.939 -1.0693 -0.3087 -0.7637
  451TIP3   OH222911   3.028   1.437   8.695 -0.0504  0.0209  0.3191
  451TIP3    H122912   3.065   1.357   8.733 -0.4038 -0.1335  0.3354
  451TIP3    H222913   2.959   1.406   8.637 -0.1196  0.3113  0.2471
  452TIP3   OH222914   0.005   3.772   8.023  0.9852  0.2949  0.1861
  452TIP3    H122915   0.027   3.752   8.114 -0.2587 -2.4648 -0.0144
  452TIP3    H222916  -0.038   3.692   7.991 -0.2739  1.8433 -2.2749
  453TIP3   OH222917   1.950   4.081   7.732 -0.2507  0.1848  0.3872
  453TIP3    H122918   1.866   4.090   7.776 -0.9266 -0.3128 -0.7411
  453TIP3    H222919   1.971   3.988   7.739 -2.1250 -0.7109 -3.2320
  454TIP3   OH222920   0.546   2.489   7.956 -0.3702 -0.3560  0.3172
  454TIP3    H122921   0.523   2.578   7.932 -0.3200 -0.5299 -0.3893
  454TIP3    H222922   0.627   2.471   7.908 -0.4717 -0.8376  0.3209
  455TIP3   OH222923   3.290   1.354   0.498 -0.5837  0.1448 -0.2133
  455TIP3    H122924   3.274   1.308   0.580 -3.7826  1.1544 -0.1159
  455TIP3    H222925   3.277   1.446   0.520  3.5362  1.0982 -0.8763
  456TIP3   OH222926   4.799   1.345   8.496  0.0528  0.3194 -0.2370
  456TIP3    H122927   4.880   1.310   8.532  0.3354 -2.0172 -2.8286
  456TIP3    H222928   4.818   1.436   8.477  0.7789  0.8548  2.6122
  457TIP3   OH222929   0.695   0.952   0.821  0.5760 -0.3970  0.1180
  457TIP3    H122930   0.601   0.945   0.835  0.3319 -0.0636 -1.1653
  457TIP3    H222931   0.712   1.047   0.823  0.2662 -0.1860 -2.9610
  458TIP3   OH222932   6.318   6.625   0.100 -0.2739 -0.4232 -0.0153
  458TIP3    H122933   6.336   6.599   0.010 -1.2855  1.7305 -0.9142
  458TIP3    H222934   6.269   6.552   0.136  0.1299 -1.3216 -1.2082
  459TIP3   OH222935   6.721   0.034   2.755  0.7615  0.4600  0.0640
  459TIP3    H122936   6.765   0.070   2.831  1.2393  0.5489 -0.2490
  459TIP3    H222937   6.634   0.073   2.756  0.7269  0.3779  0.6198
  460TIP3   OH222938   5.485   3.718   8.062 -0.1378 -0.5310  0.1775
  460TIP3    H122939   5.553   3.654   8.086 -1.3168 -1.7314  0.4346
  460TIP3    H222940   5.423   3.669   8.009 -1.8075  0.0188  1.5377
  461TIP3   OH222941   5.667   1.260   2.894  0.2414  0.1659 -0.3261
  461TIP3    H122942   5.745   1.246   2.948  0.7906  0.8273 -0.9307
  461TIP3    H222943   5.654   1.177   2.848  0.6978  0.1102 -0.3563
  462TIP3   OH222944   1.638   0.887   0.535  0.0104  0.2380 -0.1000
  462TIP3    H122945   1.609   0.875   0.625 -1.7579  0.4892 -0.5954
  462TIP3    H222946   1.692   0.966   0.538 -2.0117  1.7031  0.3925
  463TIP3   OH222947   5.488   1.078   2.040 -0.4493 -0.4551  0.2074
  463TIP3    H122948   5.419   1.075   2.107 -0.8531 -1.1981 -0.2190
  463TIP3    H222949   5.498   0.987   2.013  0.0342 -0.2232 -0.4113
  464TIP3   OH222950   6.642   5.020   7.151  0.2672  0.0655  0.1197
  464TIP3    H122951   6.646   4.993   7.243  1.6665  0.8549  0.3160
  464TIP3    H222952   6.728   5.056   7.133 -0.6577  1.8982 -0.8995
  465TIP3   OH222953   6.689   1.547   2.292  0.2281 -0.0342 -0.1891
  465TIP3    H122954   6.664   1.458   2.316 -0.8500  1.0194  3.1764
  465TIP3    H222955   6.734   1.538   2.208 -0.5879 -3.5987 -0.3893
  466TIP3   OH222956   5.277   2.491   8.247 -0.1961  0.0938 -0.1140
  466TIP3    H122957   5.370   2.468   8.240 -0.4484 -0.6963 -1.2169
  466TIP3    H222958   5.266   2.568   8.191 -0.4379 -0.6087 -1.0625
  467TIP3   OH222959   6.426   1.462   7.981  0.3306 -0.6509 -0.3740
  467TIP3    H122960   6.493   1.531   7.982  0.4507 -0.7568 -0.8749
  467TIP3    H222961   6.458   1.399   7.917  0.4168 -1.3774  0.3708
  468TIP3   OH222962   5.636   0.012   1.668 -0.5737 -0.0400  0.2526
  468TIP3    H122963   5.672  -0.007   1.755 -1.2000  0.0334  0.5294
  468TIP3    H222964   5.713   0.033   1.615 -0.3092  1.3569  1.1431
  469TIP3   OH222965   2.833   6.496   0.425  0.2885  0.2284  0.0282
  469TIP3    H122966   2.895   6.480   0.353 -1.0502  1.6724 -1.5504
  469TIP3    H222967   2.805   6.409   0.453 -0.5701 -0.4205 -2.5503
  470TIP3   OH222968   5.389   3.088   1.758  0.6376  0.2570 -0.1305
  470TIP3    H122969   5.300   3.068   1.786  0.8624 -0.8980 -0.1648
  470TIP3    H222970   5.379   3.127   1.672  0.1258  0.8241  0.1802
  471TIP3   OH222971   4.839   2.197   8.612 -0.0064 -0.5217  0.2774
  471TIP3    H122972   4.929   2.227   8.601  0.0216  0.4511  2.5179
  471TIP3    H222973   4.830   2.125   8.551  1.9935 -0.0318 -0.6821
  472TIP3   OH222974   4.901   4.395   0.614  0.4453 -0.8440  0.5682
  472TIP3    H122975   4.872   4.486   0.615 -0.7226 -1.2046  0.6649
  472TIP3    H222976   4.996   4.400   0.621  0.5229  0.4136 -0.9946
  473TIP3   OH222977   2.200   3.680   8.305  0.3246  0.4746  0.0706
  473TIP3    H122978   2.139   3.730   8.251  0.8787 -0.7614 -1.8111
  473TIP3    H222979   2.285   3.693   8.263  0.3364 -2.8021 -1.2029
  474TIP3   OH222980   4.118   1.648   8.684 -0.2146  0.1985  0.2918
  474TIP3    H122981   4.064   1.613   8.754 -1.3288  0.8831 -0.2049
  474TIP3    H222982   4.146   1.571   8.634 -0.3634 -0.1911  0.8050
  475TIP3   OH222983   2.077   6.696   0.360  0.3943 -0.3259  0.0485
  475TIP3    H122984   2.157   6.670   0.406  0.2285 -1.3232 -0.2067
  475TIP3    H222985   2.072   6.637   0.285  0.9681  1.6488 -1.6387
  476TIP3   OH222986   4.402   5.529   2.077 -0.0781  0.1315  0.4319
  476TIP3    H122987   4.345   5.473   2.130  2.3925 -1.6426  1.4350
  476TIP3    H222988   4.379   5.507   1.986 -1.6991  0.3045  0.7678
  477TIP3   OH222989   1.330   0.534   6.832  0.1714 -0.1800  0.3408
  477TIP3    H122990   1.279   0.456   6.814 -0.1526 -0.0724  0.7837
  477TIP3    H222991   1.421   0.506   6.823  0.0429 -0.1605 -1.3308
  478TIP3   OH222992   2.467   4.074   0.902 -0.0580 -0.4850  0.4555
  478TIP3    H122993   2.532   4.056   0.970  0.9240 -0.5135 -0.4729
  478TIP3    H222994   2.497   4.025   0.826 -1.1640 -0.4776  0.0009
  479TIP3   OH222995   1.919   1.915   7.574  0.0893 -0.5230  0.0593
  479TIP3    H122996   1.846   1.966   7.608  1.0850  1.3638 -0.4980
  479TIP3    H222997   1.947   1.861   7.649 -1.9863 -1.5162  0.2016
  480TIP3   OH222998   5.556   1.772   1.409 -0.5794 -0.4467 -0.2630
  480TIP3    H122999   5.592   1.684   1.414  0.1662 -0.1025  0.8864
  480TIP3    H223000   5.475   1.768   1.459  0.5647 -0.0016  1.7622
  481TIP3   OH223001   1.570   0.539   1.172  0.0582  0.2658  0.4272
  481TIP3    H123002   1.614   0.462   1.208  2.2468  2.1701  2.2237
  481TIP3    H223003   1.501   0.559   1.235  0.1490  0.3515  0.4993
  482TIP3   OH223004   4.558   0.487   0.367 -0.9669  0.6586 -0.2496
  482TIP3    H123005   4.578   0.571   0.327 -1.0821  0.8112  0.0085
  482TIP3    H223006   4.638   0.462   0.414 -0.5486  0.0855 -1.2404
  483TIP3   OH223007   4.198   0.713   7.098 -0.2566 -0.5180  0.3902
  483TIP3    H123008   4.193   0.626   7.138  1.0797 -0.4424  0.7695
  483TIP3    H223009   4.280   0.712   7.048 -0.3415  0.4528  0.2070
  484TIP3   OH223010   3.938   5.492   1.124  0.5531  0.9083 -0.3304
  484TIP3    H123011   3.914   5.474   1.215 -0.2616 -0.5996 -0.8070
  484TIP3    H223012   3.885   5.568   1.100 -0.7964  0.0416 -0.1630
  485TIP3   OH223013   4.158   4.531   8.732 -0.5756 -0.2767  0.1960
  485TIP3    H123014   4.202   4.493   8.808 -0.9314 -0.0529  0.5186
  485TIP3    H223015   4.131   4.456   8.680  1.1102 -0.4185 -0.5554
  486TIP3   OH223016   1.288   0.742   1.623  0.4304 -0.4058 -0.1371
  486TIP3    H123017   1.196   0.721   1.634  0.4524 -1.4486 -1.6360
  486TIP3    H223018   1.317   0.687   1.550  1.8939  0.8865 -0.5900
  487TIP3   OH223019   6.067   6.809   0.835  0.0075  0.3820  0.0355
  487TIP3    H123020   6.022   6.727   0.817  1.7653 -0.7104  0.3708
  487TIP3    H223021   6.005   6.877   0.810 -1.0697 -1.0435 -1.3295
  488TIP3   OH223022   5.318   2.202   0.339 -0.3838 -0.2145 -0.0453
  488TIP3    H123023   5.244   2.148   0.366  0.2823 -1.9530 -1.5218
  488TIP3    H223024   5.325   2.188   0.245  1.9599 -0.2638  0.0923
  489TIP3   OH223025   1.888   6.200   0.224  0.0382 -0.1707 -0.9222
  489TIP3    H123026   1.811   6.178   0.171 -0.7774 -1.7161  0.8027
  489TIP3    H223027   1.872   6.158   0.309  0.0149  4.3560  1.5944
  490TIP3   OH223028   0.758   5.278   8.417 -0.3504 -0.1497  0.1647
  490TIP3    H123029   0.827   5.331   8.458 -0.0579 -0.2984 -0.1301
  490TIP3    H223030   0.678   5.303   8.463 -0.1444  0.2332  0.3161
  491TIP3   OH223031   5.335   3.661   0.305 -0.0648 -0.5096  0.0488
  491TIP3    H123032   5.269   3.722   0.337  0.2863  1.0450 -1.9919
  491TIP3    H223033   5.315   3.578   0.349 -2.6235  0.2044  0.3865
  492TIP3   OH223034   3.796   6.290   6.984 -0.5899 -0.4758  0.0266
  492TIP3    H123035   3.802   6.361   7.048 -0.4418 -1.2329  0.8788
  492TIP3    H223036   3.854   6.317   6.912  0.5031 -0.3283  0.9332
  493TIP3   OH223037   5.861   6.122   1.182 -0.2317 -0.7772 -0.2816
  493TIP3    H123038   5.834   6.213   1.175  0.2794 -0.4424  1.6465
  493TIP3    H223039   5.801   6.075   1.124 -1.0307  0.6678 -0.6730
  494TIP3   OH223040   2.610   2.278   8.159  0.3233  0.1412 -0.8326
  494TIP3    H123041   2.699   2.310   8.171 -0.2132  1.7511 -0.8522
  494TIP3    H223042   2.594   2.286   8.065 -0.5044  1.8549 -0.5875
  495TIP3   OH223043   3.120   0.602   8.429 -0.2882  0.2310 -0.1714
  495TIP3    H123044   3.156   0.606   8.517 -1.7175  2.3420  0.4111
  495TIP3    H223045   3.196   0.607   8.371  0.5712  0.8338  0.9772
  496TIP3   OH223046   6.352   3.247   8.270  0.5614 -0.3386 -0.5771
  496TIP3    H123047   6.393   3.266   8.185 -1.4272  2.4038 -1.0466
  496TIP3    H223048   6.260   3.268   8.258 -0.2576 -2.1789  1.6614
  497TIP3   OH223049   0.068   3.683   1.996 -0.2892 -0.3787  0.3002
  497TIP3    H123050   0.159   3.682   1.968  0.2170  0.9772  1.7347
  497TIP3    H223051   0.061   3.760   2.053 -2.3106 -0.4942  0.2970
  498TIP3   OH223052   5.278   6.689   0.680  0.2229 -0.3467  0.4962
  498TIP3    H123053   5.245   6.726   0.598  1.4113 -0.0045  0.1470
  498TIP3    H223054   5.372   6.708   0.678 -0.0763  1.8806  3.1169
  499TIP3   OH223055   3.714   6.581   0.807  0.1918 -0.1549 -0.4481
  499TIP3    H123056   3.726   6.500   0.858 -0.9200  0.3276  0.6337
  499TIP3    H223057   3.627   6.573   0.769  0.3534  0.2401 -0.9087
  500TIP3   OH223058   5.453   4.927   8.539 -0.4126 -0.2869  0.0982
  500TIP3    H123059   5.434   4.858   8.475  1.1800 -0.9399  0.2737
  500TIP3    H223060   5.462   5.007   8.487  0.8407 -0.8056 -0.5363
  501TIP3   OH223061   6.184   6.550   2.485  0.3352  0.0010  0.2762
  501TIP3    H123062   6.183   6.604   2.564 -1.7644 -1.7639  1.5649
  501TIP3    H223063   6.092   6.542   2.460  0.9235  0.3957 -2.3439
  502TIP3   OH223064   4.753   4.225   0.142  0.2541  0.5664  0.0048
  502TIP3    H123065   4.752   4.253   0.233 -0.2480  3.1146 -0.7151
  502TIP3    H223066   4.841   4.188   0.129  0.3850  0.3377  1.4525
  503TIP3   OH223067   6.673   2.703   1.811 -0.4152  0.1027 -0.7683
  503TIP3    H123068   6.697   2.633   1.751 -1.8511  0.1115 -1.3995
  503TIP3    H223069   6.635   2.659   1.887  0.0090  0.1536 -0.5212
  504TIP3   OH223070   5.677   2.788   7.496  0.5327 -0.3406  0.2290
  504TIP3    H123071   5.737   2.856   7.466 -1.4842  1.1239 -0.7809
  504TIP3    H223072   5.593   2.833   7.504 -0.8645 -2.6884 -0.2751
  505TIP3   OH223073   6.321   4.775   0.398 -1.0551  0.0391  0.1742
  505TIP3    H123074   6.257   4.828   0.445 -1.4366  0.0031 -0.2928
  505TIP3    H223075   6.362   4.836   0.336  1.2976  0.7457  2.2600
  506TIP3   OH223076   2.867   0.463   8.440 -0.0326 -0.3607 -1.0825
  506TIP3    H123077   2.914   0.536   8.401  0.7877 -0.3601 -0.1459
  506TIP3    H223078   2.929   0.425   8.502 -1.5691  0.1808  0.8659
  507TIP3   OH223079   6.107   3.127   8.154 -0.3778  0.0383 -0.2423
  507TIP3    H123080   6.166   3.091   8.087  1.0892  0.6691  0.6528
  507TIP3    H223081   6.086   3.215   8.122 -1.6854 -0.5544 -1.0589
  508TIP3   OH223082   4.792   0.848   2.454  0.0476 -0.3246 -0.1466
  508TIP3    H123083   4.761   0.912   2.519  1.9403  0.9067 -0.3762
  508TIP3    H223084   4.866   0.805   2.496  0.2952 -0.6524 -0.8961
  509TIP3   OH223085   2.339   5.480   1.630 -0.1257 -0.1879  0.0719
  509TIP3    H123086   2.411   5.417   1.630  0.3937  0.3108 -2.1941
  509TIP3    H223087   2.270   5.437   1.680  1.3613 -1.1134  1.4219
  510TIP3   OH223088   2.527   0.343   1.327 -0.2542 -0.3350 -0.2473
  510TIP3    H123089   2.552   0.367   1.417 -0.2730 -2.1072  0.2566
  510TIP3    H223090   2.552   0.419   1.275 -0.7455  0.9636  1.3219
  511TIP3   OH223091   6.677   6.196   1.179 -0.4410 -0.0509 -0.5475
  511TIP3    H123092   6.708   6.151   1.100  0.5466 -0.2599 -0.0539
  511TIP3    H223093   6.715   6.145   1.251 -0.4978  0.7343  0.0435
  512TIP3   OH223094   4.458   0.150   0.571  0.2288  0.2307 -0.5521
  512TIP3    H123095   4.510   0.070   0.577  3.1436  2.0387  1.3661
  512TIP3    H223096   4.452   0.182   0.662 -2.7398  1.1351 -0.9585
  513TIP3   OH223097   3.365   1.469   1.075 -0.5733  0.0045 -0.4659
  513TIP3    H123098   3.445   1.493   1.121 -0.7468 -0.1299 -0.0966
  513TIP3    H223099   3.397   1.429   0.993 -0.2840  1.2815 -1.0021
  514TIP3   OH223100   6.038   4.977   1.901 -0.5387  0.0647 -0.3807
  514TIP3    H123101   6.069   4.904   1.954  0.5353  0.0713 -0.9548
  514TIP3    H223102   6.071   5.055   1.945 -1.1331  0.1662 -0.1158
  515TIP3   OH223103   5.580   0.218   0.329 -0.4210 -0.7756  0.1577
  515TIP3    H123104   5.503   0.269   0.304  2.0721  2.0119 -2.7229
  515TIP3    H223105   5.638   0.281   0.372  1.8329 -1.6783 -1.3548
  516TIP3   OH223106   1.896   2.491   0.483  0.4528  0.2995 -0.1132
  516TIP3    H123107   1.893   2.400   0.454 -0.2103  0.5785 -0.9364
  516TIP3    H223108   1.977   2.497   0.534  1.1252 -0.4378 -1.0719
  517TIP3   OH223109   6.516   2.594   0.622 -0.0115  0.4064  0.4674
  517TIP3    H123110   6.573   2.519   0.640  0.2263  0.8876  1.8335
  517TIP3    H223111   6.549   2.664   0.679 -0.5314  1.4065 -0.4267
  518TIP3   OH223112   3.117   3.530   1.551  0.4416  0.3397 -0.5372
  518TIP3    H123113   3.130   3.620   1.522 -0.6290  0.6422 -0.1244
  518TIP3    H223114   3.054   3.493   1.490  1.4933 -0.4076 -1.2014
  519TIP3   OH223115   3.965   6.676   0.796  0.3019  0.2567 -0.6609
  519TIP3    H123116   3.877   6.641   0.811  1.0719 -0.6081  2.6420
  519TIP3    H223117   3.956   6.771   0.807 -0.4733  0.3707 -2.0910
  520TIP3   OH223118   0.188   3.162   7.663  0.2158  0.5143  0.2657
  520TIP3    H123119   0.249   3.093   7.690 -0.6798  0.0433  1.1051
  520TIP3    H223120   0.194   3.227   7.732  0.2473  0.7783  0.0149
  521TIP3   OH223121   4.491   0.767   7.329  0.3710  0.4400  0.1469
  521TIP3    H123122   4.532   0.731   7.250 -1.5221  1.4431 -1.3930
  521TIP3    H223123   4.525   0.856   7.334 -0.6561  0.8881 -0.4705
  522TIP3   OH223124   4.190   5.637   1.223  0.0321 -0.2076  0.4129
  522TIP3    H123125   4.243   5.647   1.144 -2.3090  1.4185 -1.1045
  522TIP3    H223126   4.216   5.709   1.280  0.9885 -0.7581  0.6855
  523TIP3   OH223127   5.803   0.846   3.454  0.0890  0.0207  0.0362
  523TIP3    H123128   5.871   0.779   3.446  0.0430 -0.3441  2.2052
  523TIP3    H223129   5.736   0.805   3.509 -1.3693  0.8053 -1.0769
  524TIP3   OH223130   3.799   0.186   0.658  0.2983 -0.0300  0.3953
  524TIP3    H123131   3.775   0.101   0.620  0.3522 -0.1829  0.7012
  524TIP3    H223132   3.875   0.167   0.713  0.6503  0.3159  0.0317
  525TIP3   OH223133   5.993   5.064   8.090 -0.3060 -0.0559  0.3656
  525TIP3    H123134   6.038   5.126   8.032 -0.1121  0.0816  0.6567
  525TIP3    H223135   6.056   4.994   8.104 -0.5882 -0.4109 -0.1002
  526TIP3   OH223136   0.229   6.467   1.545 -0.0674 -0.1674 -0.8864
  526TIP3    H123137   0.213   6.384   1.502 -0.8963 -0.9441  0.8118
  526TIP3    H223138   0.148   6.517   1.532 -0.2340 -0.3165 -0.4455
  527TIP3   OH223139   0.101   1.059   1.395 -0.3705 -0.0076 -0.0897
  527TIP3    H123140   0.089   1.113   1.473  1.2562 -1.0451  0.9271
  527TIP3    H223141   0.042   0.985   1.407  0.0780 -0.3072  0.3178
  528TIP3   OH223142   5.793   0.625   2.541  0.0285  0.2814  0.1388
  528TIP3    H123143   5.858   0.648   2.475  0.7743 -0.6274  0.5299
  528TIP3    H223144   5.760   0.709   2.572 -0.3600  0.7323 -1.3874
  529TIP3   OH223145   1.231   3.801   2.702 -0.4230  0.6601  0.3789
  529TIP3    H123146   1.301   3.856   2.665 -0.5558  1.0544  0.7056
  529TIP3    H223147   1.209   3.844   2.785 -0.0301 -0.2954  0.9851
  530TIP3   OH223148   6.592   6.264   2.277  0.3019  0.6512  0.1401
  530TIP3    H123149   6.543   6.328   2.328 -1.8864  0.0921 -1.1239
  530TIP3    H223150   6.650   6.316   2.221  1.6446  1.3093  2.0621
  531TIP3   OH223151   0.607   1.051   2.619  0.1019 -0.3157 -0.7255
  531TIP3    H123152   0.550   1.128   2.613  0.0633 -0.2813 -0.0804
  531TIP3    H223153   0.565   0.996   2.685  0.0678 -0.9499 -1.2691
  532TIP3   OH223154   3.054   0.349   7.884 -0.1518 -0.5968 -0.3714
  532TIP3    H123155   3.009   0.331   7.967  0.7028 -1.2040 -0.0278
  532TIP3    H223156   2.983   0.356   7.820 -0.7830 -0.7932  0.2861
  533TIP3   OH223157   6.473   3.862   7.073 -0.2077  0.0091  0.3920
  533TIP3    H123158   6.551   3.913   7.094 -0.6900  0.0504  2.2120
  533TIP3    H223159   6.401   3.914   7.107 -0.7802 -1.4559  1.4833
  534TIP3   OH223160   3.387   1.051   0.027 -0.2354  0.2473  0.5377
  534TIP3    H123161   3.462   1.060   0.085  0.2633 -0.0582 -0.0392
  534TIP3    H223162   3.344   0.970   0.054 -1.2610  1.1781  1.8534
  535TIP3   OH223163   3.804   6.700   8.729 -0.3291 -0.4576  0.2357
  535TIP3    H123164   3.763   6.786   8.724 -1.3289 -0.9100  0.3652
  535TIP3    H223165   3.815   6.683   8.822 -2.6917 -1.6027  0.3822
  536TIP3   OH223166   1.106   4.184   7.352 -0.0376 -0.1684 -0.4947
  536TIP3    H123167   1.064   4.199   7.268  0.3482  0.0335 -0.6526
  536TIP3    H223168   1.097   4.268   7.398  0.5786  0.0158 -0.7006
  537TIP3   OH223169   6.439   3.904   8.533  0.6835  0.2062  0.7144
  537TIP3    H123170   6.518   3.868   8.575  0.7150  1.1458  1.4893
  537TIP3    H223171   6.464   3.993   8.509 -0.1143  0.4849  0.8992
  538TIP3   OH223172   6.389   4.476   2.074  0.2631 -0.6730 -0.5798
  538TIP3    H123173   6.393   4.561   2.030  1.6826 -0.5562 -0.2698
  538TIP3    H223174   6.358   4.497   2.162 -0.2492 -0.5993 -0.7731
  539TIP3   OH223175   1.873   1.483   0.147  0.3622 -0.1522  0.0427
  539TIP3    H123176   1.805   1.429   0.107  1.9172 -0.7353 -2.0254
  539TIP3    H223177   1.826   1.543   0.204 -2.0475  0.3978 -2.2887
  540TIP3   OH223178   0.787   2.935   0.508 -0.2296  0.5037  0.0613
  540TIP3    H123179   0.728   3.002   0.474 -0.5524  0.8002  1.1772
  540TIP3    H223180   0.841   2.910   0.433  0.0880  2.2118 -0.3152
  541TIP3   OH223181   2.577   3.236   7.837 -0.1543  0.3154  0.0844
  541TIP3    H123182   2.590   3.311   7.895 -1.7323  0.8946 -0.2597
  541TIP3    H223183   2.500   3.259   7.784  0.1688 -0.9549 -1.0012
  542TIP3   OH223184   0.119   2.630   2.127  0.3811 -0.7034  0.4978
  542TIP3    H123185   0.037   2.676   2.144  0.6576 -0.2224  0.5497
  542TIP3    H223186   0.111   2.548   2.176  0.2705 -0.2945  1.1691
  543TIP3   OH223187   5.628   0.647   0.907  0.1886  0.0479 -0.1395
  543TIP3    H123188   5.586   0.641   0.993  0.8973 -1.5891  0.1436
  543TIP3    H223189   5.558   0.630   0.845 -0.8850  3.6159 -0.1349
  544TIP3   OH223190   3.610   5.864   0.343 -0.4670  0.4009 -0.0142
  544TIP3    H123191   3.671   5.937   0.358  0.4187  0.1120 -1.8128
  544TIP3    H223192   3.661   5.802   0.290 -1.1813 -1.5699  1.5068
  545TIP3   OH223193   6.312   3.492   0.978 -0.0219  0.5890  0.1657
  545TIP3    H123194   6.300   3.399   0.962  0.6128  0.4755  0.2967
  545TIP3    H223195   6.398   3.498   1.020  0.4874  1.3436 -0.9298
  546TIP3   OH223196   2.994   4.444   0.155  0.1185 -0.4024 -0.0787
  546TIP3    H123197   2.942   4.466   0.233  0.2130  1.8407 -0.5709
  546TIP3    H223198   3.073   4.402   0.190 -1.4540 -2.8840  0.7401
  547TIP3   OH223199   6.792   5.637   1.484 -0.1338 -0.4650 -0.1265
  547TIP3    H123200   6.878   5.677   1.497 -0.8112  1.0495 -0.1499
  547TIP3    H223201   6.806   5.572   1.415  1.0213 -0.3877  0.0088
  548TIP3   OH223202   3.097   6.740   0.490 -0.2034  0.5505 -0.4767
  548TIP3    H123203   3.058   6.729   0.577 -0.6591  1.6195 -0.5309
  548TIP3    H223204   3.037   6.798   0.444 -0.9268 -1.4258 -2.1502
  549TIP3   OH223205   3.825   5.033   2.909  0.1448  0.2477  0.1205
  549TIP3    H123206   3.861   4.987   2.833 -1.2416 -0.1168 -0.3459
  549TIP3    H223207   3.754   4.976   2.941 -0.7097  1.4090  0.3593
  550TIP3   OH223208   4.646   4.875   1.808  0.1878 -0.2908 -0.3741
  550TIP3    H123209   4.733   4.913   1.821  0.3554 -0.2483 -1.4898
  550TIP3    H223210   4.606   4.931   1.741  0.3170 -1.8327 -1.8161
  551TIP3   OH223211   5.142   1.543   1.428  0.2152 -0.2975 -0.2164
  551TIP3    H123212   5.184   1.502   1.352  0.2294  0.2423 -0.5052
  551TIP3    H223213   5.067   1.487   1.448  1.1673 -1.3838  0.4228
  552TIP3   OH223214   3.947   1.687   7.732  0.3810  0.2478  0.1009
  552TIP3    H123215   3.979   1.763   7.684  0.5739 -0.1830 -0.4759
  552TIP3    H223216   3.873   1.654   7.680 -0.4629  0.7217  0.9648
  553TIP3   OH223217   6.665   0.871   7.690  0.0944 -0.1283 -0.1860
  553TIP3    H123218   6.649   0.914   7.606  0.7142  2.0788  0.7603
  553TIP3    H223219   6.758   0.882   7.706 -0.2329  0.7399  1.3991
  554TIP3   OH223220   5.653   2.624   2.401  0.0692 -0.1144  0.2101
  554TIP3    H123221   5.612   2.554   2.351 -1.4019 -0.2401  1.5254
  554TIP3    H223222   5.638   2.703   2.349 -0.1037 -0.4558 -0.2604
  555TIP3   OH223223   5.994   2.628   1.289  0.3857  0.0301 -0.1395
  555TIP3    H123224   5.990   2.592   1.201 -2.1679 -0.0954 -0.0490
  555TIP3    H223225   5.942   2.567   1.342 -1.3502  2.0553  0.6414
  556TIP3   OH223226   1.487   3.666   0.420  0.7219  0.1522  0.8696
  556TIP3    H123227   1.555   3.606   0.392  1.0664  0.0791  1.8392
  556TIP3    H223228   1.532   3.732   0.472  0.0905  0.2308  1.3357
  557TIP3   OH223229   4.326   3.085   1.687 -0.3224  0.0356  0.0479
  557TIP3    H123230   4.286   3.070   1.772 -0.4752  2.2138  0.4181
  557TIP3    H223231   4.263   3.140   1.640 -0.2874 -1.2041 -1.5346
  558TIP3   OH223232   1.902   2.870   1.204 -0.2998  0.2300 -0.2139
  558TIP3    H123233   1.831   2.810   1.224  0.2937 -0.9890 -1.5361
  558TIP3    H223234   1.965   2.859   1.275 -1.1447  0.8950  0.6607
  559TIP3   OH223235   4.093   0.467   1.851  0.3289 -0.0638 -0.2546
  559TIP3    H123236   4.067   0.528   1.921 -2.8055  0.1191 -1.4068
  559TIP3    H223237   4.114   0.524   1.777  0.3656 -0.3242 -0.4437
  560TIP3   OH223238   2.440   5.425   8.038 -0.3973  0.1656  1.2020
  560TIP3    H123239   2.519   5.389   7.998  0.1470 -0.9256  3.1039
  560TIP3    H223240   2.443   5.519   8.020 -0.5526 -0.3236 -1.7713
  561TIP3   OH223241   0.825   6.102   2.020  0.7138  0.2870  0.1341
  561TIP3    H123242   0.893   6.133   2.081  0.6271 -0.8839  0.8767
  561TIP3    H223243   0.845   6.009   2.009 -0.7390 -0.0773  0.3448
  562TIP3   OH223244   5.775   3.307   0.347 -0.1560 -0.4355 -0.0203
  562TIP3    H123245   5.687   3.278   0.323 -0.1608 -0.8708  0.5242
  562TIP3    H223246   5.834   3.244   0.304 -0.2001 -2.3772  2.5713
  563TIP3   OH223247   0.936   3.579   1.119  0.2146 -0.2426 -0.0746
  563TIP3    H123248   0.951   3.508   1.056 -1.0827 -0.2118 -0.4325
  563TIP3    H223249   0.860   3.551   1.169  1.2799 -0.3039  1.5689
  564TIP3   OH223250   4.524   0.520   1.712 -0.3519  0.5247 -0.0886
  564TIP3    H123251   4.531   0.506   1.806 -0.7320 -0.1203 -0.1439
  564TIP3    H223252   4.615   0.520   1.681 -0.2507 -0.1533  0.1700
  565TIP3   OH223253   6.407   5.696   2.660 -0.5782  0.1527  0.1020
  565TIP3    H123254   6.351   5.651   2.596 -1.6379  0.6427  0.6724
  565TIP3    H223255   6.495   5.693   2.620 -0.8681 -1.2031 -0.4973
  566TIP3   OH223256   4.295   4.042   8.190  0.1322  0.5232 -0.4429
  566TIP3    H123257   4.252   4.127   8.196 -0.0574  0.4457 -0.7135
  566TIP3    H223258   4.301   4.012   8.281 -1.1685  0.1452 -0.4718
  567TIP3   OH223259   1.629   5.047   1.111  0.3116  0.1403  0.2769
  567TIP3    H123260   1.651   5.093   1.192  1.5996 -0.2732  0.1733
  567TIP3    H223261   1.712   5.016   1.077 -0.3610 -0.8964 -0.4917
  568TIP3   OH223262   2.995   1.993   8.123  0.1160  0.0039  0.5639
  568TIP3    H123263   2.977   2.085   8.139  1.1302  0.3686 -0.2783
  568TIP3    H223264   2.964   1.948   8.202 -1.2087  0.9512  0.6036
  569TIP3   OH223265   2.911   1.774   2.211 -0.1385  0.0565  0.5552
  569TIP3    H123266   2.870   1.702   2.259  0.8859  0.2462  1.7549
  569TIP3    H223267   3.003   1.751   2.207  0.0249  0.7696 -0.0571
  570TIP3   OH223268   3.845   5.921   0.114 -0.2858  0.4434 -0.0666
  570TIP3    H123269   3.880   5.851   0.168 -1.1812 -1.5739 -1.9336
  570TIP3    H223270   3.887   6.000   0.148  2.0213 -1.1513  1.1432
  571TIP3   OH223271   3.644   4.042   7.915  0.2614 -0.1558  0.4951
  571TIP3    H123272   3.686   3.959   7.940 -0.3655 -0.6489 -0.0431
  571TIP3    H223273   3.552   4.019   7.900  0.5234  0.1042 -2.0349
  572TIP3   OH223274   4.749   1.087   1.965  0.1714  0.1777 -0.5108
  572TIP3    H123275   4.836   1.050   1.945  0.2952 -0.3594  0.9401
  572TIP3    H223276   4.739   1.076   2.059 -0.3430  2.6997 -0.2035
  573TIP3   OH223277   0.558   4.735   2.817  0.5373 -0.5709  0.3341
  573TIP3    H123278   0.536   4.763   2.906  0.3207  0.2430  0.0307
  573TIP3    H223279   0.613   4.805   2.782 -0.4994 -0.2074 -0.6385
  574TIP3   OH223280   5.613   0.202   1.235  0.0836 -0.5541  0.2074
  574TIP3    H123281   5.539   0.220   1.293 -1.0746 -1.9240 -0.7828
  574TIP3    H223282   5.630   0.109   1.246  1.2978 -0.3754 -0.0322
  575TIP3   OH223283   1.241   6.754   0.432  0.0981  0.7779 -0.0699
  575TIP3    H123284   1.261   6.707   0.512 -0.7463  0.4951 -0.0165
  575TIP3    H223285   1.297   6.832   0.435  3.4809 -1.3767 -1.3684
  576TIP3   OH223286   5.033   1.653   2.282 -0.5976 -0.0521  0.0598
  576TIP3    H123287   5.112   1.648   2.335 -0.6790 -0.1104  0.1761
  576TIP3    H223288   4.964   1.678   2.344 -0.7820 -0.5775  0.0712
  577TIP3   OH223289   3.553   1.431   7.832 -0.3601 -0.0641 -0.4414
  577TIP3    H123290   3.493   1.496   7.870  0.9768  0.1527  1.4128
  577TIP3    H223291   3.604   1.481   7.768 -1.3624 -0.0055 -1.2279
  578TIP3   OH223292   2.599   2.397   0.256  0.1046  0.2353 -0.1836
  578TIP3    H123293   2.651   2.358   0.326  1.1771 -0.1206 -1.1502
  578TIP3    H223294   2.539   2.328   0.229 -0.1208  0.2812  0.1969
  579TIP3   OH223295   6.383   0.403   7.705 -0.2513 -0.2853  0.7964
  579TIP3    H123296   6.290   0.427   7.702 -0.1332  0.1833 -1.9954
  579TIP3    H223297   6.429   0.486   7.700  0.1965 -0.5927 -2.5020
  580TIP3   OH223298   6.813   6.036   8.383  0.4769 -0.3433  0.1446
  580TIP3    H123299   6.818   5.958   8.439 -4.0968 -1.1877 -0.2972
  580TIP3    H223300   6.729   6.076   8.404 -1.1793 -0.2002 -5.2979
  581TIP3   OH223301   4.523   0.276   0.139  0.0671  0.1427 -0.3519
  581TIP3    H123302   4.450   0.275   0.201  0.5709 -1.2119  0.2658
  581TIP3    H223303   4.588   0.333   0.180 -0.6390  1.4186 -0.9418
  582TIP3   OH223304   4.586   5.737   2.056  0.2410  0.4112  0.1443
  582TIP3    H123305   4.530   5.659   2.059  0.4126  0.2975  0.4834
  582TIP3    H223306   4.543   5.799   2.116 -0.1363  0.7414 -0.4648
  583TIP3   OH223307   5.576   6.104   0.826  0.2263 -0.1310 -0.2484
  583TIP3    H123308   5.544   6.015   0.845  0.7215 -0.1905  0.3272
  583TIP3    H223309   5.550   6.155   0.902  1.7080 -0.2357  0.3525
  584TIP3   OH223310   1.656   4.099   7.570 -0.3469 -0.4447 -0.1372
  584TIP3    H123311   1.680   4.119   7.661 -0.9702 -0.1680 -0.0264
  584TIP3    H223312   1.589   4.031   7.578 -0.0741 -0.7440 -0.4091
  585TIP3   OH223313   5.164   0.480   7.342  0.0779  0.4436 -0.1181
  585TIP3    H123314   5.171   0.538   7.267  1.1587  1.3029  0.6059
  585TIP3    H223315   5.252   0.478   7.379 -0.0950 -1.1213  0.2945
  586TIP3   OH223316   5.679   2.674   8.431 -0.4980 -0.1786 -0.6659
  586TIP3    H123317   5.740   2.652   8.502  1.5521  0.6147 -2.1008
  586TIP3    H223318   5.650   2.589   8.397  0.6584 -0.5931 -0.6510
  587TIP3   OH223319   1.635   0.619   2.265  0.3748  0.7547 -0.0276
  587TIP3    H123320   1.645   0.713   2.249  2.4483  1.0211  2.2255
  587TIP3    H223321   1.724   0.587   2.278 -0.3708 -1.2588  0.5576
  588TIP3   OH223322   0.190   6.764   0.587 -0.0722 -0.1461 -0.8480
  588TIP3    H123323   0.230   6.849   0.606 -0.3977 -0.0691 -0.4850
  588TIP3    H223324   0.142   6.778   0.505 -1.9594  0.6631  0.3459
  589TIP3   OH223325   1.128   2.744   2.278 -0.7320  0.0862 -0.9025
  589TIP3    H123326   1.198   2.745   2.212  0.6652  2.4970  0.4952
  589TIP3    H223327   1.075   2.822   2.258 -0.8465  0.3203  0.2454
  590TIP3   OH223328   2.725   4.903   8.406 -0.3800  0.9059 -0.7874
  590TIP3    H123329   2.795   4.842   8.429 -0.2191  1.1308 -0.6794
  590TIP3    H223330   2.762   4.957   8.337 -0.1580  1.5677 -0.1640
  591TIP3   OH223331   4.411   3.159   8.249 -0.4532 -0.1894 -0.5905
  591TIP3    H123332   4.338   3.200   8.202 -1.5485 -0.9558  0.4067
  591TIP3    H223333   4.375   3.137   8.335  0.8121 -1.0381 -0.2560
  592TIP3   OH223334   6.098   4.800   8.076 -0.4309  0.2063  0.0305
  592TIP3    H123335   6.148   4.731   8.033  0.7403  0.8781  0.2902
  592TIP3    H223336   6.020   4.810   8.021  0.3533  0.0607 -1.1398
  593TIP3   OH223337   0.565   2.868   1.995  0.1795 -0.2307 -0.8556
  593TIP3    H123338   0.568   2.803   1.924  1.1152 -0.6016 -0.4852
  593TIP3    H223339   0.540   2.818   2.072 -1.0375  0.2089 -0.9308
  594TIP3   OH223340   0.302   2.116   2.768  0.1698 -0.0786  0.0557
  594TIP3    H123341   0.338   2.028   2.762  2.5069  0.7334  1.1772
  594TIP3    H223342   0.308   2.138   2.860  0.2342  1.4930 -0.2962
  595TIP3   OH223343   2.777   5.334   0.107  0.3281 -0.2425 -0.1799
  595TIP3    H123344   2.717   5.263   0.086 -1.1679  0.5801  1.0957
  595TIP3    H223345   2.799   5.321   0.199  0.0235  0.8992  0.0777
  596TIP3   OH223346   4.408   6.615   8.754  0.4240  0.1944  0.2153
  596TIP3    H123347   4.490   6.585   8.795  1.1021 -2.0186 -2.4386
  596TIP3    H223348   4.426   6.706   8.729  0.8407  0.7994  2.5264
  597TIP3   OH223349   1.518   5.300   1.240  0.1187 -0.4476  0.5077
  597TIP3    H123350   1.610   5.320   1.258 -0.0985  0.2268  0.9277
  597TIP3    H223351   1.521   5.233   1.172  0.9107 -0.0780  0.1650
  598TIP3   OH223352   2.252   2.095   1.699 -0.0723 -0.2592 -0.3977
  598TIP3    H123353   2.265   2.189   1.703 -0.6610 -0.2083  0.5822
  598TIP3    H223354   2.285   2.062   1.782  2.2623 -1.2246 -1.6201
  599TIP3   OH223355   5.432   1.099   1.711 -0.4983 -0.3856 -0.2504
  599TIP3    H123356   5.435   1.093   1.807 -2.9263 -1.5017 -0.1503
  599TIP3    H223357   5.380   1.178   1.694  0.1137 -0.0682 -0.6572
  600TIP3   OH223358   6.443   2.212   0.761  0.3107  0.3022 -0.1726
  600TIP3    H123359   6.384   2.264   0.815  0.3584  1.8040 -1.4709
  600TIP3    H223360   6.511   2.274   0.734  2.3655 -1.2842  1.0279
  601TIP3   OH223361   0.901   5.326   8.644  0.4529  0.0889 -0.1790
  601TIP3    H123362   0.943   5.337   8.729  1.7160  0.3833 -0.8028
  601TIP3    H223363   0.876   5.233   8.641 -2.5148  0.7088  1.7326
  602TIP3   OH223364   3.819   6.601   7.674  0.2493 -0.1649  0.1691
  602TIP3    H123365   3.907   6.634   7.697  1.5234 -2.8624 -0.4413
  602TIP3    H223366   3.821   6.593   7.579 -0.7681  0.0159  0.1326
  603TIP3   OH223367   4.419   4.943   7.183  0.6309  0.0230  0.1084
  603TIP3    H123368   4.371   4.912   7.105 -0.2864 -0.0594  0.6852
  603TIP3    H223369   4.511   4.925   7.164  0.3012 -1.1512 -0.4329
  604TIP3   OH223370   1.450   3.250   0.693  0.0164  0.8132 -0.1647
  604TIP3    H123371   1.522   3.259   0.756  0.7367  2.1815 -1.1310
  604TIP3    H223372   1.492   3.219   0.613 -0.2141  2.8489 -1.1269
  605TIP3   OH223373   6.680   6.185   7.032  0.5063 -0.0673 -0.1630
  605TIP3    H123374   6.652   6.273   7.007  0.6316  0.4616  1.4540
  605TIP3    H223375   6.655   6.130   6.958 -0.8055  1.1053 -0.6356
  606TIP3   OH223376   6.573   0.920   8.010  0.3453 -0.0871  0.0461
  606TIP3    H123377   6.529   0.939   7.927  2.3611  1.0036 -0.8258
  606TIP3    H223378   6.557   0.826   8.024  0.6445 -0.4932 -2.0047
  607TIP3   OH223379   3.759   6.131   2.175 -0.5795 -0.3403  0.0729
  607TIP3    H123380   3.746   6.042   2.143  1.7627 -0.6515 -0.1677
  607TIP3    H223381   3.797   6.178   2.101  0.2000  0.2719  0.8412
  608TIP3   OH223382   0.379   4.287   0.313  0.2161 -0.0894 -0.3586
  608TIP3    H123383   0.456   4.272   0.369 -2.3671 -2.7703  2.9455
  608TIP3    H223384   0.349   4.374   0.337  0.6590 -0.1542  0.5024
  609TIP3   OH223385   0.931   1.163   7.558  0.1688  0.5079 -0.3828
  609TIP3    H123386   1.003   1.109   7.589  1.9472  2.0172 -1.6783
  609TIP3    H223387   0.920   1.138   7.466  0.1458  1.4022 -0.6370
  610TIP3   OH223388   2.377   1.002   7.471 -0.4494  0.0304  0.3551
  610TIP3    H123389   2.376   1.044   7.385  0.3910  1.1484  0.8704
  610TIP3    H223390   2.295   1.028   7.512 -0.3725  0.3837  0.2897
  611TIP3   OH223391   3.716   1.326   8.334 -0.9252 -0.2627 -0.2559
  611TIP3    H123392   3.743   1.269   8.262  1.0924 -0.4030  0.5485
  611TIP3    H223393   3.670   1.267   8.394 -1.6498 -0.3661 -0.8944
  612TIP3   OH223394   6.023   2.715   1.859 -0.3837 -0.7420  0.1516
  612TIP3    H123395   6.016   2.623   1.885  1.6732 -0.8725  0.3840
  612TIP3    H223396   6.087   2.715   1.788 -1.6756  0.3270 -1.0565
  613TIP3   OH223397   4.445   3.654   0.574 -0.6003 -0.5191 -0.4775
  613TIP3    H123398   4.491   3.738   0.578 -2.2961  0.5840 -2.3423
  613TIP3    H223399   4.504   3.597   0.524  0.0337 -0.1006 -0.2248
  614TIP3   OH223400   4.484   2.772   0.949  0.1737  0.1729  0.8841
  614TIP3    H123401   4.413   2.831   0.971 -0.2684 -0.3344  0.8249
  614TIP3    H223402   4.441   2.694   0.914  0.7791  0.1736  0.0955
  615TIP3   OH223403   2.995   4.222   2.535 -0.6421 -0.6943 -0.2541
  615TIP3    H123404   3.010   4.312   2.567  0.7439 -0.8821 -0.3060
  615TIP3    H223405   2.900   4.215   2.528 -0.8567  0.2690  1.2183
  616TIP3   OH223406   1.636   6.130   1.141  0.0549  0.2377  0.0523
  616TIP3    H123407   1.543   6.144   1.123  0.0702 -0.3234 -0.5109
  616TIP3    H223408   1.671   6.098   1.058  0.7519  0.4347  0.2668
  617TIP3   OH223409   3.623   0.641   7.151  0.0284 -1.1079 -0.5791
  617TIP3    H123410   3.583   0.605   7.071 -1.4457  0.8773 -0.8011
  617TIP3    H223411   3.574   0.600   7.222 -3.0303  1.6248 -0.8430
  618TIP3   OH223412   1.063   6.789   1.645  0.4440  0.0627  0.0599
  618TIP3    H123413   1.030   6.724   1.583  2.4193 -0.6232 -0.3400
  618TIP3    H223414   0.993   6.799   1.709 -0.5941 -1.1653 -0.8432
  619TIP3   OH223415   0.271   2.236   0.025  0.0837  0.3446 -0.7744
  619TIP3    H123416   0.330   2.197  -0.040  1.7784 -0.1006  0.9428
  619TIP3    H223417   0.317   2.313   0.057 -0.7752  0.6228 -0.1628
  620TIP3   OH223418   5.503   3.194   8.396 -0.5791  0.7196  0.3380
  620TIP3    H123419   5.446   3.117   8.388 -0.8383  0.9442  0.0033
  620TIP3    H223420   5.536   3.189   8.486  0.1897 -0.3119  0.0198
  621TIP3   OH223421   5.037   3.564   1.329 -0.4499  0.7661 -0.2069
  621TIP3    H123422   5.088   3.540   1.406 -3.4476 -0.2864  1.6032
  621TIP3    H223423   5.075   3.512   1.258  0.0191 -1.1733  1.3816
  622TIP3   OH223424   0.513   5.081   8.321  0.0012 -0.1001  0.2719
  622TIP3    H123425   0.604   5.078   8.291 -0.5019  1.1233 -1.5808
  622TIP3    H223426   0.462   5.090   8.241 -1.7401 -0.3818  1.3017
  623TIP3   OH223427   5.967   1.523   7.826 -0.3874  0.7499  0.0796
  623TIP3    H123428   6.055   1.485   7.837 -0.6512  0.2206  0.4013
  623TIP3    H223429   5.954   1.523   7.731 -0.6688 -0.6755  0.0868
  624TIP3   OH223430   3.834   5.493   0.628 -0.1583 -0.5707 -0.1236
  624TIP3    H123431   3.860   5.551   0.699 -2.3286  1.3984 -0.8230
  624TIP3    H223432   3.897   5.511   0.558  0.0395 -0.1185  0.1654
  625TIP3   OH223433   4.029   3.087   8.364  0.0723  0.5851  0.1265
  625TIP3    H123434   4.069   3.126   8.287 -0.2713 -0.5154 -0.6341
  625TIP3    H223435   4.050   2.994   8.358 -0.3017  0.4180  1.1447
  626TIP3   OH223436   6.548   5.602   0.309 -0.3576 -0.3420  0.4954
  626TIP3    H123437   6.492   5.527   0.287  0.0879 -1.0515  1.7046
  626TIP3    H223438   6.545   5.608   0.404 -1.6769  2.2239  0.3657
  627TIP3   OH223439   1.926   0.056   1.783  0.1168 -0.0334  0.7278
  627TIP3    H123440   1.900   0.139   1.743 -0.2460 -0.9248 -1.0031
  627TIP3    H223441   1.854  -0.003   1.764  0.3251 -0.7386  2.0243
  628TIP3   OH223442   5.056   4.940   1.882 -0.4305  0.4069 -0.0456
  628TIP3    H123443   5.072   4.877   1.952 -0.7700  0.4208  0.0437
  628TIP3    H223444   4.984   4.995   1.914  0.4131  1.3930  0.2468
  629TIP3   OH223445   6.231   1.520   1.804 -0.3446  0.2357  0.0965
  629TIP3    H123446   6.312   1.529   1.853  0.2094 -0.2517 -0.7055
  629TIP3    H223447   6.204   1.429   1.819 -1.0995  0.5772  0.8884
  630TIP3   OH223448   2.957   2.863   8.205  0.0203  0.0116  0.4944
  630TIP3    H123449   3.052   2.875   8.203 -0.3413  4.7606  0.2268
  630TIP3    H223450   2.940   2.795   8.141  3.1824 -0.4951  0.0236
  631TIP3   OH223451   0.288   4.318   8.116 -0.3193  0.2806 -0.2121
  631TIP3    H123452   0.343   4.346   8.042 -1.1037  2.2799 -0.0946
  631TIP3    H223453   0.319   4.370   8.190 -1.1609  0.0829  0.2867
  632TIP3   OH223454   5.005   1.008   1.307  0.4375  0.5956  0.0200
  632TIP3    H123455   4.995   1.062   1.229  1.8352 -0.1503 -0.7113
  632TIP3    H223456   5.091   1.032   1.342 -0.0023  0.6303  1.1246
  633TIP3   OH223457   0.264   3.908   2.146 -0.7099 -0.3653 -0.4590
  633TIP3    H123458   0.344   3.916   2.198  0.0023  1.0463 -1.7027
  633TIP3    H223459   0.247   3.997   2.114 -2.1867 -0.8370 -1.0986
  634TIP3   OH223460   6.534   4.271   2.415 -0.2955  0.0245 -0.2758
  634TIP3    H123461   6.602   4.260   2.482  0.5496  2.8632 -0.5313
  634TIP3    H223462   6.452   4.257   2.462  0.3005  1.5670  1.3462
  635TIP3   OH223463   6.743   3.681   1.035 -0.2486 -0.1800 -0.0120
  635TIP3    H123464   6.730   3.755   1.095  1.3334  0.3640 -0.2912
  635TIP3    H223465   6.774   3.610   1.090 -0.7784 -0.3307  0.1011
  636TIP3   OH223466   1.939   3.795   0.391 -0.0015 -1.1489  0.7921
  636TIP3    H123467   2.000   3.770   0.460 -0.4548 -2.9119  0.5933
  636TIP3    H223468   1.941   3.723   0.328 -0.9500 -0.4238 -0.1308
  637TIP3   OH223469   1.795   1.083   0.906 -0.7471 -0.3186  0.6729
  637TIP3    H123470   1.856   1.153   0.928 -3.0948  1.6495  1.4152
  637TIP3    H223471   1.847   1.020   0.856  2.0440  0.7322  2.0690
  638TIP3   OH223472   1.661   4.021   1.548 -0.2684 -0.0171  0.1300
  638TIP3    H123473   1.685   3.959   1.479 -2.1695 -2.4849  1.5200
  638TIP3    H223474   1.732   4.014   1.612 -1.0244 -1.8152  0.8489
  639TIP3   OH223475   1.665   2.889   1.921 -0.6533  0.7305  0.2044
  639TIP3    H123476   1.628   2.808   1.958  3.1182 -1.0091  0.7498
  639TIP3    H223477   1.677   2.946   1.997 -0.6713  0.6138  0.2959
  640TIP3   OH223478   4.607   2.143   3.289 -0.1117 -0.1060 -0.4989
  640TIP3    H123479   4.642   2.066   3.335 -0.8258 -0.8107 -1.1081
  640TIP3    H223480   4.657   2.147   3.208  1.4239  1.3724  0.4733
  641TIP3   OH223481   3.962   4.204   3.153  0.6931 -1.0620  0.2726
  641TIP3    H123482   3.909   4.136   3.195 -0.0483 -0.8544 -0.2915
  641TIP3    H223483   3.959   4.181   3.060  0.5329 -0.3177  0.0942
  642TIP3   OH223484   5.452   5.334   1.133  0.0791  0.0784  0.1445
  642TIP3    H123485   5.357   5.341   1.129  0.0117  0.1304  1.3639
  642TIP3    H223486   5.468   5.268   1.201  0.9233  2.3447  2.2617
  643TIP3   OH223487   3.611   2.229   8.613 -0.3535 -0.9146 -0.3559
  643TIP3    H123488   3.640   2.245   8.523  0.8838 -0.9766  0.0068
  643TIP3    H223489   3.536   2.288   8.625 -0.3660 -0.7076 -1.3339
  644TIP3   OH223490   0.161   1.996   3.287  0.0734 -0.0074  0.1588
  644TIP3    H123491   0.066   2.005   3.296 -0.4440 -3.1122 -1.1289
  644TIP3    H223492   0.174   1.909   3.250  3.2798  1.3468 -2.4424
  645TIP3   OH223493   0.257   1.441   1.894 -0.1454 -0.3201  0.2473
  645TIP3    H123494   0.214   1.362   1.927  1.7996 -0.2227  3.4491
  645TIP3    H223495   0.343   1.410   1.865 -0.3303  0.2774 -0.9952
  646TIP3   OH223496   4.614   4.659   2.271  0.1888  0.2165  0.5308
  646TIP3    H123497   4.611   4.636   2.364  1.5321  0.5935  0.6956
  646TIP3    H223498   4.652   4.747   2.269 -0.0497  0.3102 -0.3636
  647TIP3   OH223499   3.571   1.176   1.175 -1.1218 -0.1320  0.3652
  647TIP3    H123500   3.646   1.120   1.196 -1.1787  0.4811  2.3862
  647TIP3    H223501   3.608   1.263   1.164 -1.4921  0.1136  1.0413
  648TIP3   OH223502   4.686   5.648   8.175  0.2027  0.1990  0.1653
  648TIP3    H123503   4.595   5.677   8.165 -1.4321 -3.9329  1.0365
  648TIP3    H223504   4.692   5.620   8.266  1.4457 -2.1276 -0.5675
  649TIP3   OH223505   5.705   3.581   8.145  0.3728 -0.0339 -0.3380
  649TIP3    H123506   5.711   3.513   8.212 -0.8359 -0.4410 -0.6163
  649TIP3    H223507   5.718   3.663   8.192 -0.5362 -0.3129  0.4326
  650TIP3   OH223508   4.667   1.985   0.263  0.3340  0.3373 -0.3852
  650TIP3    H123509   4.699   1.943   0.184 -0.7549 -1.6139  0.1607
  650TIP3    H223510   4.572   1.992   0.251  0.3046  1.2337  0.2122
  651TIP3   OH223511   4.328   2.973   3.095  0.0759 -0.3975  0.0763
  651TIP3    H123512   4.271   2.970   3.017 -0.7513 -1.1858  0.6874
  651TIP3    H223513   4.378   3.054   3.085 -1.7484  0.7749 -0.0777
  652TIP3   OH223514   1.666   0.608   0.056 -0.3113  0.1701 -0.3009
  652TIP3    H123515   1.658   0.546  -0.017  1.0303 -0.0306 -0.2984
  652TIP3    H223516   1.709   0.684   0.019 -0.6429  0.5247  0.0319
  653TIP3   OH223517   2.352   2.139   7.812  0.1136  0.0211  0.3213
  653TIP3    H123518   2.301   2.075   7.862  1.6137 -2.7547 -1.3965
  653TIP3    H223519   2.289   2.181   7.754 -1.1041  1.0157  2.2724
  654TIP3   OH223520   2.431   5.297   8.288  0.1724 -0.3285  0.2815
  654TIP3    H123521   2.452   5.349   8.366 -0.9693 -0.1664  0.4966
  654TIP3    H223522   2.445   5.357   8.215  0.3792 -0.2038  0.4233
  655TIP3   OH223523   5.172   5.653   0.450  0.3615  0.2597 -0.0481
  655TIP3    H123524   5.135   5.736   0.480  0.4816  0.3010 -0.0114
  655TIP3    H223525   5.107   5.588   0.474 -0.7925  0.5809 -2.0844
  656TIP3   OH223526   2.007   0.122   7.967 -0.1648 -0.4175 -0.3472
  656TIP3    H123527   1.915   0.103   7.950 -0.9536  1.0007  1.9490
  656TIP3    H223528   2.034   0.057   8.031  0.4111 -0.7559 -0.9244
  657TIP3   OH223529   5.216   5.962   0.802 -0.0867  0.4344  0.2294
  657TIP3    H123530   5.269   5.883   0.812  1.5039  1.3499 -0.5968
  657TIP3    H223531   5.193   5.987   0.892  0.0578 -0.5127  0.5428
  658TIP3   OH223532   0.733   1.861   0.568 -0.6343 -0.4808  0.5407
  658TIP3    H123533   0.709   1.867   0.476  1.8438  2.7427 -0.0692
  658TIP3    H223534   0.650   1.870   0.615 -1.7264 -0.1488 -1.3446
  659TIP3   OH223535   0.768   3.116   0.834 -0.7285  0.5536 -0.1069
  659TIP3    H123536   0.676   3.125   0.809 -1.2120 -1.4208  0.8017
  659TIP3    H223537   0.793   3.204   0.863 -2.1198  1.2769 -0.9723
  660TIP3   OH223538   2.958   4.690   1.986 -0.2174 -0.3090  0.3812
  660TIP3    H123539   2.911   4.625   2.039 -0.3993 -0.6116 -0.1407
  660TIP3    H223540   3.035   4.712   2.038  0.8663 -2.3533 -0.2208
  661TIP3   OH223541   2.455   4.200   2.544  0.5004  0.1225  0.0360
  661TIP3    H123542   2.394   4.176   2.614 -0.8182  0.8104 -0.8322
  661TIP3    H223543   2.427   4.149   2.468  1.2596  0.1628 -0.2828
  662TIP3   OH223544   6.327   4.702   1.665  0.1011 -0.1711 -0.1581
  662TIP3    H123545   6.368   4.657   1.739  1.1309 -1.6764 -1.6009
  662TIP3    H223546   6.249   4.651   1.645  0.2336 -0.2061 -0.5937
  663TIP3   OH223547   4.080   2.338   0.033  0.7132 -0.1652  0.7894
  663TIP3    H123548   3.987   2.347   0.054  0.6104  0.3703  0.1074
  663TIP3    H223549   4.123   2.406   0.085  0.6484  0.0481  0.5616
  664TIP3   OH223550   0.351   1.139   1.093 -0.4647 -0.6660 -0.2137
  664TIP3    H123551   0.311   1.131   1.180 -0.6612  0.2122 -0.2082
  664TIP3    H223552   0.282   1.177   1.038  0.1145  0.1847 -0.3824
  665TIP3   OH223553   3.722   0.693   7.846 -0.2414  0.5273  0.2824
  665TIP3    H123554   3.641   0.720   7.889 -0.5717  1.1096 -0.6882
  665TIP3    H223555   3.709   0.713   7.754  0.3928 -0.8710 -0.1412
  666TIP3   OH223556   6.052   1.723   8.508 -0.4445 -0.1321  0.2834
  666TIP3    H123557   6.062   1.666   8.432 -2.0893 -0.6589  0.4250
  666TIP3    H223558   6.032   1.664   8.580 -1.0704  0.5336  0.6706
  667TIP3   OH223559   3.062   4.911   0.810  0.1313 -1.0110  0.5006
  667TIP3    H123560   3.013   4.992   0.802 -0.6896 -1.4150  1.2923
  667TIP3    H223561   3.104   4.900   0.724 -0.3161 -0.1243  0.1532
  668TIP3   OH223562   0.743   2.069   7.446  0.4171  0.3924  0.0836
  668TIP3    H123563   0.763   2.069   7.352 -2.9239 -1.2684 -0.7838
  668TIP3    H223564   0.697   1.987   7.461  3.4543 -0.9213  3.9620
  669TIP3   OH223565   6.588   1.685   7.953 -0.2578  0.2429 -0.2409
  669TIP3    H123566   6.609   1.743   7.880 -0.1316  1.4788  0.7415
  669TIP3    H223567   6.536   1.739   8.012 -0.9588 -0.9458  0.2674
  670TIP3   OH223568   0.138   5.179   8.025 -0.4457  0.5729  0.1827
  670TIP3    H123569   0.212   5.190   8.085 -0.4357 -0.3711  0.3556
  670TIP3    H223570   0.061   5.200   8.077 -0.4853 -0.8118  0.7210
  671TIP3   OH223571   1.561   2.155   1.069  0.3696  0.1744 -0.1703
  671TIP3    H123572   1.638   2.100   1.085  0.7145  0.8286  0.4399
  671TIP3    H223573   1.583   2.204   0.990  0.4940  0.2182 -0.1076
  672TIP3   OH223574   3.701   3.458   0.160  0.0371 -0.1441  0.6082
  672TIP3    H123575   3.621   3.460   0.107  1.4776 -2.1668 -1.8716
  672TIP3    H223576   3.690   3.382   0.218  0.4204 -0.8703 -0.2513
  673TIP3   OH223577   5.191   2.900   0.715  0.4101 -0.2016  0.2191
  673TIP3    H123578   5.110   2.862   0.682 -0.1029  1.1007 -0.0888
  673TIP3    H223579   5.174   2.994   0.719  1.8059  0.0716  0.4304
  674TIP3   OH223580   6.452   4.835   2.056 -0.5398 -0.6157 -0.3544
  674TIP3    H123581   6.419   4.914   2.013 -0.1084  0.1583  0.7229
  674TIP3    H223582   6.520   4.865   2.115  1.3587 -2.0619 -1.6858
  675TIP3   OH223583   3.610   0.031   0.933  0.1246  0.4153 -0.1618
  675TIP3    H123584   3.697   0.069   0.921  0.9001 -1.9893 -4.5137
  675TIP3    H223585   3.627  -0.057   0.967 -0.5642  0.0217 -0.7901
  676TIP3   OH223586   4.857   1.584   7.118  0.3263  0.2162 -0.4354
  676TIP3    H123587   4.762   1.595   7.120  0.3337  0.1460  0.6018
  676TIP3    H223588   4.891   1.671   7.100  0.1088  0.4531  0.2950
  677TIP3   OH223589   3.137   5.499   8.748  0.3703 -0.3422  0.3890
  677TIP3    H123590   3.195   5.574   8.735  1.3827 -1.2491 -0.6173
  677TIP3    H223591   3.062   5.515   8.692 -0.9574  1.3582  2.4944
  678TIP3   OH223592   1.804   5.950   1.686 -0.0907 -0.3025 -0.1663
  678TIP3    H123593   1.803   6.037   1.648  1.8138  0.8190  2.0653
  678TIP3    H223594   1.727   5.947   1.743  0.6065  0.5376  0.8638
  679TIP3   OH223595   5.561   5.470   0.720  0.2782  0.5277 -0.7565
  679TIP3    H123596   5.640   5.426   0.690 -0.4108 -1.2903 -0.0884
  679TIP3    H223597   5.569   5.470   0.816 -0.3499  0.6483 -0.7006
  680TIP3   OH223598   1.919   6.311   7.660  0.2030  0.3136 -0.3484
  680TIP3    H123599   1.943   6.329   7.570 -1.0805 -0.1012 -0.7974
  680TIP3    H223600   1.926   6.395   7.705  2.0066  0.2927 -0.5318
  681TIP3   OH223601   5.290   3.031   7.978  0.1690  0.3717  0.0933
  681TIP3    H123602   5.373   3.063   7.942 -0.1804 -0.9223 -2.0552
  681TIP3    H223603   5.288   2.938   7.954 -2.5993  0.7141 -1.3980
  682TIP3   OH223604   0.976   1.559   1.855 -0.3946 -0.1957  0.5658
  682TIP3    H123605   1.070   1.570   1.873 -0.9193 -0.0416  3.7278
  682TIP3    H223606   0.970   1.559   1.760  2.8637 -0.6535  0.2548
  683TIP3   OH223607   6.265   0.133   0.591  0.2994  0.1279 -0.0826
  683TIP3    H123608   6.188   0.190   0.592 -0.3071 -0.6659  1.9131
  683TIP3    H223609   6.230   0.045   0.603  1.4786 -0.2937  0.4116
  684TIP3   OH223610   6.562   2.062   2.181 -0.2437  0.0009  0.0102
  684TIP3    H123611   6.571   1.983   2.127  0.2911  0.7064 -0.9641
  684TIP3    H223612   6.648   2.074   2.221 -0.1877  0.3392 -0.2077
  685TIP3   OH223613   2.934   3.101   8.386 -0.3922  0.0354  0.0542
  685TIP3    H123614   2.950   3.041   8.313 -0.4410  0.7405 -0.5452
  685TIP3    H223615   3.012   3.092   8.441 -1.0085 -1.6205  0.7339
  686TIP3   OH223616   4.298   4.392   7.969 -0.0736 -0.2052 -0.2849
  686TIP3    H123617   4.310   4.305   7.932  0.0823 -0.3471  0.0867
  686TIP3    H223618   4.233   4.380   8.039 -1.1024  0.2387 -1.1360
  687TIP3   OH223619   3.002   3.967   2.266 -0.1739  0.5708 -0.5886
  687TIP3    H123620   2.992   3.890   2.211  0.3372  0.9492 -1.2340
  687TIP3    H223621   2.919   4.014   2.257 -1.6134 -1.2324  1.9946
  688TIP3   OH223622   0.834   6.265   8.108 -0.1059  0.5911  0.3278
  688TIP3    H123623   0.863   6.203   8.041  0.8198  0.8974  0.4356
  688TIP3    H223624   0.802   6.210   8.180  1.4209  0.1965  0.7463
  689TIP3   OH223625   5.875   5.702   7.099  0.1260 -0.3720  0.1386
  689TIP3    H123626   5.780   5.694   7.106  0.2534 -0.6445  2.3093
  689TIP3    H223627   5.898   5.773   7.159  1.3590 -0.8125  0.2216
  690TIP3   OH223628   4.199   4.140   1.812 -0.1279 -0.1980 -0.3079
  690TIP3    H123629   4.127   4.105   1.759  0.9318 -0.7033 -1.4704
  690TIP3    H223630   4.233   4.064   1.860 -0.4709  0.0712  0.3666
  691TIP3   OH223631   3.614   6.260   0.455  0.0840 -0.2572 -0.5447
  691TIP3    H123632   3.639   6.182   0.504 -0.6845 -0.8213 -1.0258
  691TIP3    H223633   3.600   6.229   0.365 -0.6862  0.3462 -0.6437
  692TIP3   OH223634   1.273   3.538   0.290 -0.5553  0.1806  0.1644
  692TIP3    H123635   1.323   3.541   0.208 -2.4725  0.3103 -1.0860
  692TIP3    H223636   1.326   3.587   0.353  0.8116  0.3791 -1.0802
  693TIP3   OH223637   6.391   1.117   2.943 -0.2380  0.4295 -0.4120
  693TIP3    H123638   6.337   1.192   2.968  0.0535  0.6003 -0.2925
  693TIP3    H223639   6.339   1.040   2.968 -1.3719  0.5516 -2.2403
  694TIP3   OH223640   1.841   6.372   8.242  0.2652 -0.8002 -0.0864
  694TIP3    H123641   1.934   6.394   8.251 -0.3099  1.4489  1.1169
  694TIP3    H223642   1.812   6.350   8.331 -0.4942 -0.8760 -0.3408
  695TIP3   OH223643   2.917   4.660   8.131 -0.3146 -0.0254 -0.2236
  695TIP3    H123644   3.009   4.646   8.112  0.1768 -0.0273  1.9144
  695TIP3    H223645   2.908   4.756   8.138 -0.7362  0.0433 -1.5171
  696TIP3   OH223646   4.552   0.372   0.727 -0.1454  0.3969 -0.0793
  696TIP3    H123647   4.545   0.314   0.803 -0.7260  1.6591  0.8681
  696TIP3    H223648   4.631   0.342   0.681 -0.1031 -0.7560  0.6885
  697TIP3   OH223649   2.968   6.277   1.563 -0.0167 -0.7633  0.1209
  697TIP3    H123650   2.908   6.342   1.599  2.3909  2.7843 -1.6169
  697TIP3    H223651   2.996   6.225   1.638 -1.5703  0.6532  1.7696
  698TIP3   OH223652   4.794   0.631   7.770  0.2481  0.0662 -0.4704
  698TIP3    H123653   4.844   0.607   7.692 -0.3825 -0.6049 -0.6769
  698TIP3    H223654   4.703   0.632   7.740  0.0750  0.6312  0.0592
  699TIP3   OH223655   2.054   6.807   7.716 -0.3397 -0.5457 -0.3112
  699TIP3    H123656   2.043   6.871   7.786  0.1529 -0.0770 -0.6531
  699TIP3    H223657   2.143   6.822   7.683 -0.5578 -0.7619 -1.0300
  700TIP3   OH223658   4.083   0.061   2.126  0.5129 -0.2006 -0.1570
  700TIP3    H123659   4.055   0.138   2.177 -1.7887  0.2751 -1.9798
  700TIP3    H223660   4.136   0.098   2.055  1.0705 -0.5312  0.0814
  701TIP3   OH223661   2.328   2.814   0.601  0.0323 -0.4544 -0.3255
  701TIP3    H123662   2.274   2.842   0.527 -0.1829 -1.6535 -0.6498
  701TIP3    H223663   2.279   2.741   0.639  1.1417 -1.1799 -0.2586
  702TIP3   OH223664   3.214   0.604   8.061  0.5222 -0.2087 -0.6212
  702TIP3    H123665   3.126   0.580   8.091  0.5140  1.2054  0.5771
  702TIP3    H223666   3.215   0.699   8.064  1.9950 -0.1899 -0.9812
  703TIP3   OH223667   1.684   2.289   0.157  0.2294  0.1209  0.1823
  703TIP3    H123668   1.601   2.255   0.123  1.1207 -1.7758 -0.2580
  703TIP3    H223669   1.681   2.270   0.251 -0.3554  1.2452  0.4039
  704TIP3   OH223670   0.270   3.978   2.756  0.4941  0.0617  0.5094
  704TIP3    H123671   0.264   3.913   2.825  0.3949  0.3563  0.7835
  704TIP3    H223672   0.180   4.010   2.745  0.3141 -0.7396 -0.5017
  705TIP3   OH223673   6.615   0.077   1.128 -0.0647  0.0060  0.5046
  705TIP3    H123674   6.529   0.119   1.116  0.3586  0.8383  0.2878
  705TIP3    H223675   6.670   0.147   1.164  0.2966 -0.7651  1.5063
  706TIP3   OH223676   6.593   6.195   8.344  0.4759  0.1345  0.0021
  706TIP3    H123677   6.628   6.239   8.267 -0.4228  0.2030 -0.3792
  706TIP3    H223678   6.513   6.152   8.313  1.4990 -2.0745  0.2718
  707TIP3   OH223679   3.393   0.519   1.596  0.3189  0.2730 -0.8206
  707TIP3    H123680   3.329   0.563   1.540 -1.4558  0.5799  1.2742
  707TIP3    H223681   3.382   0.426   1.578  1.0481  0.4386 -2.2167
  708TIP3   OH223682   6.589   5.033   0.736  0.2054 -0.0838 -0.2285
  708TIP3    H123683   6.505   5.051   0.778  0.7937 -0.0630  0.9663
  708TIP3    H223684   6.653   5.080   0.788  0.9689 -0.0713 -1.1484
  709TIP3   OH223685   1.862   0.146   8.417 -0.6183  0.1367  0.4932
  709TIP3    H123686   1.772   0.144   8.451 -0.3674  0.9920  1.2395
  709TIP3    H223687   1.878   0.238   8.399  0.9876  0.3955  2.8074
  710TIP3   OH223688   4.300   5.439   0.160  0.1093  0.0086  0.1935
  710TIP3    H123689   4.215   5.437   0.117  1.2838 -1.9608 -2.3237
  710TIP3    H223690   4.304   5.357   0.209  0.1991  0.5511  1.1103
  711TIP3   OH223691   0.976   3.787   8.595 -0.0209 -0.2902 -0.3023
  711TIP3    H123692   0.960   3.698   8.625  1.9183 -0.1665  1.2598
  711TIP3    H223693   1.035   3.777   8.520 -1.1409 -0.3692 -1.1963
  712TIP3   OH223694   1.872   5.551   7.654  0.0666 -0.5965 -0.1526
  712TIP3    H123695   1.909   5.516   7.573  0.8460 -1.6284  0.6171
  712TIP3    H223696   1.822   5.478   7.691  0.1258 -0.2969  0.5376
  713TIP3   OH223697   3.457   6.590   0.690  0.1592 -0.1342  0.2277
  713TIP3    H123698   3.382   6.583   0.750 -0.0243 -0.1344 -0.0024
  713TIP3    H223699   3.422   6.568   0.604  0.0452  1.4482 -0.1585
  714TIP3   OH223700   3.171   0.217   0.157 -0.5941 -0.5429  0.5365
  714TIP3    H123701   3.204   0.211   0.067  0.5729 -0.6581  0.9471
  714TIP3    H223702   3.219   0.291   0.195 -2.0917  0.4085  0.6816
  715TIP3   OH223703   3.198   4.345   8.334 -0.1538 -0.6607 -0.0717
  715TIP3    H123704   3.128   4.336   8.269 -0.7380 -2.5261  0.7422
  715TIP3    H223705   3.246   4.262   8.330  1.9823  0.5190 -0.5099
  716TIP3   OH223706   3.280   2.335   1.930  0.2438 -0.1439  0.3446
  716TIP3    H123707   3.207   2.274   1.922 -0.1445 -0.0350  2.6023
  716TIP3    H223708   3.239   2.421   1.933  0.5091 -0.0312  0.8485
  717TIP3   OH223709   2.042   3.745   1.502 -0.0734  0.2135  0.7657
  717TIP3    H123710   2.116   3.705   1.546  0.2126 -0.1672 -0.0324
  717TIP3    H223711   2.054   3.839   1.514  0.7234  0.1722  0.3715
  718TIP3   OH223712   0.254   1.507   2.354  0.2939 -0.4681 -0.8895
  718TIP3    H123713   0.348   1.505   2.338  0.4158 -1.2491 -0.1372
  718TIP3    H223714   0.245   1.531   2.446 -0.2638  0.1651 -1.1053
  719TIP3   OH223715   2.511   2.708   2.143 -0.1570  0.3894  0.2100
  719TIP3    H123716   2.508   2.613   2.156  2.9966 -0.1631 -2.0339
  719TIP3    H223717   2.419   2.735   2.145 -1.2614 -2.8511 -0.1446
  720TIP3   OH223718   3.156   3.817   1.441 -0.0313 -0.2803  0.3413
  720TIP3    H123719   3.067   3.851   1.430  0.2859  0.6576  0.5590
  720TIP3    H223720   3.185   3.796   1.353  0.6149  2.2756 -0.1217
  721TIP3   OH223721   5.685   0.429   0.449 -0.2836  0.3235 -0.2824
  721TIP3    H123722   5.744   0.448   0.375 -1.0004  0.2667 -0.8839
  721TIP3    H223723   5.742   0.425   0.525  0.1225  4.0291 -0.1943
  722TIP3   OH223724   1.606   0.493   6.875  0.0787 -0.2362 -0.3753
  722TIP3    H123725   1.601   0.555   6.947  1.0599  0.2455 -0.7150
  722TIP3    H223726   1.690   0.449   6.886 -0.5113 -1.3956 -0.2475
  723TIP3   OH223727   2.640   2.907   2.789 -0.2952 -0.2194  0.5140
  723TIP3    H123728   2.600   2.959   2.720  0.9321  1.1403  0.7754
  723TIP3    H223729   2.581   2.833   2.801 -0.8265 -0.1832 -1.5805
  724TIP3   OH223730   5.531   0.828   6.757 -0.1104  0.4119  0.1033
  724TIP3    H123731   5.598   0.764   6.734 -1.4891 -1.8808  1.9613
  724TIP3    H223732   5.452   0.798   6.711  0.0220  3.1769 -2.2241
  725TIP3   OH223733   5.436   6.737   1.852  0.9111 -0.0146  0.0127
  725TIP3    H123734   5.347   6.716   1.823  0.3631  0.6107  1.1962
  725TIP3    H223735   5.482   6.761   1.771 -0.6854  2.0743 -0.3347
  726TIP3   OH223736   2.696   6.230   7.744 -0.6107  0.0664  0.1125
  726TIP3    H123737   2.669   6.250   7.654 -1.0272  0.9698  0.4282
  726TIP3    H223738   2.776   6.178   7.734 -1.9065 -1.8931 -0.8325
  727TIP3   OH223739   2.794   5.577   0.972 -0.4007 -0.0829  0.1089
  727TIP3    H123740   2.842   5.644   0.923 -2.2227  1.8263  0.7908
  727TIP3    H223741   2.725   5.548   0.912 -0.0131 -0.9068  0.0481
  728TIP3   OH223742   6.520   6.041   0.832 -0.0680  0.2221 -0.0331
  728TIP3    H123743   6.551   6.061   0.744 -2.1534  2.0206 -0.4426
  728TIP3    H223744   6.543   6.117   0.884 -0.0790 -0.2315  0.6480
  729TIP3   OH223745   0.794   0.203   7.832  0.1053 -0.0366  0.2996
  729TIP3    H123746   0.823   0.125   7.785  0.8058  0.2384  0.2557
  729TIP3    H223747   0.869   0.263   7.827  0.0032  0.2000  1.3152
  730TIP3   OH223748   6.172   5.158   7.836  0.0248 -0.3279  0.2677
  730TIP3    H123749   6.250   5.105   7.820 -0.5567 -0.5048 -2.3036
  730TIP3    H223750   6.207   5.239   7.875  1.5943 -0.1568 -1.3538
  731TIP3   OH223751   2.068   4.794   0.473  0.4931  0.4986 -0.3972
  731TIP3    H123752   2.058   4.850   0.396  0.8178  3.0939  1.2935
  731TIP3    H223753   2.159   4.807   0.501  0.6557 -1.1099 -0.0549
  732TIP3   OH223754   3.972   2.781   1.045  0.3103 -0.2668  0.4573
  732TIP3    H123755   3.988   2.857   0.990 -0.3615 -1.3442 -1.3521
  732TIP3    H223756   3.899   2.806   1.101  0.2738  0.5184  0.0635
  733TIP3   OH223757   5.049   2.265   8.257 -0.2147 -0.1428  0.3504
  733TIP3    H123758   5.082   2.277   8.167  0.7694 -1.3968  0.5133
  733TIP3    H223759   5.034   2.354   8.288 -1.5246  0.3010 -1.3721
  734TIP3   OH223760   4.704   3.927   1.188 -0.2409  0.3976 -0.2856
  734TIP3    H123761   4.632   3.864   1.189  1.2784 -1.4365 -0.7643
  734TIP3    H223762   4.779   3.877   1.156  1.6794  1.7542  1.7882
  735TIP3   OH223763   0.348   5.626   1.759  0.0706 -0.3582 -0.1334
  735TIP3    H123764   0.285   5.664   1.821 -1.1314 -0.2170 -1.4008
  735TIP3    H223765   0.350   5.533   1.781 -0.3888 -0.3205  0.0933
  736TIP3   OH223766   1.614   0.006   1.530 -0.4666 -0.4188  0.3343
  736TIP3    H123767   1.694   0.015   1.479 -0.7854 -0.2096 -0.1357
  736TIP3    H223768   1.606   0.089   1.577 -0.4343 -0.4173  0.3369
  737TIP3   OH223769   5.551   4.981   7.786  0.5109  0.3976  0.0322
  737TIP3    H123770   5.532   4.888   7.784 -0.3563  0.5687 -1.5450
  737TIP3    H223771   5.477   5.020   7.833  1.2386  0.2396  1.3430
  738TIP3   OH223772   2.734   0.172   2.710  0.3374  0.0269  0.3495
  738TIP3    H123773   2.797   0.241   2.729 -0.3697  0.8541 -0.2397
  738TIP3    H223774   2.740   0.112   2.785  2.0015 -0.0680  0.1718
  739TIP3   OH223775   4.119   0.648   2.251  0.5073 -0.5381 -0.4126
  739TIP3    H123776   4.054   0.625   2.185  1.1544  1.9050 -2.0117
  739TIP3    H223777   4.068   0.655   2.332 -1.2983  1.3459 -1.6144
  740TIP3   OH223778   3.787   0.401   2.827  0.0239  0.1240  0.2218
  740TIP3    H123779   3.827   0.428   2.910  0.3071 -0.4492  0.2778
  740TIP3    H223780   3.693   0.399   2.846  0.1690 -1.4023  0.9758
  741TIP3   OH223781   1.099   4.812   0.530 -0.5927 -0.3008 -0.0017
  741TIP3    H123782   1.066   4.730   0.493  0.7852 -0.0648 -1.9094
  741TIP3    H223783   1.176   4.832   0.477  1.7588 -0.0724  3.2261
  742TIP3   OH223784   5.920   1.133   2.499 -0.3024  0.1704  0.3028
  742TIP3    H123785   5.891   1.067   2.562 -0.1456  1.0279  1.3100
  742TIP3    H223786   6.015   1.135   2.507 -0.0941 -1.0505 -1.3713
  743TIP3   OH223787   1.321   2.679   7.489 -0.7305 -0.1947 -0.4987
  743TIP3    H123788   1.249   2.619   7.470 -0.8796  0.4592 -2.2253
  743TIP3    H223789   1.278   2.759   7.520 -0.7136 -0.0321 -0.8897
  744TIP3   OH223790   2.170   3.874   7.137  0.7617 -0.5770  0.3638
  744TIP3    H123791   2.158   3.786   7.102 -1.1948  0.0846 -0.7553
  744TIP3    H223792   2.218   3.920   7.069 -0.4595 -0.0964 -0.1883
  745TIP3   OH223793   5.436   5.471   1.810  0.0321 -0.2907  0.2721
  745TIP3    H123794   5.515   5.499   1.856  0.5940 -1.6775  0.2094
  745TIP3    H223795   5.457   5.384   1.777 -1.2107 -0.3103 -0.5430
  746TIP3   OH223796   3.496   3.072   1.830  0.3082 -0.3924  0.3960
  746TIP3    H123797   3.406   3.101   1.843  0.2958  0.4931 -1.3181
  746TIP3    H223798   3.489   2.992   1.778  0.5098 -0.0857 -0.1118
  747TIP3   OH223799   3.455   3.183   8.271  0.0921  0.3148  0.0605
  747TIP3    H123800   3.489   3.144   8.352  0.9753  0.9760  0.0313
  747TIP3    H223801   3.533   3.214   8.225 -0.5660  3.2599  0.6778
  748TIP3   OH223802   6.111   0.131   7.719 -0.0440  0.0379 -0.1270
  748TIP3    H123803   6.112   0.147   7.625  1.7243 -2.1599 -0.5909
  748TIP3    H223804   6.199   0.097   7.737 -1.1474 -1.9792  1.8387
  749TIP3   OH223805   0.142   3.732   2.348 -0.0785 -0.5882 -0.1747
  749TIP3    H123806   0.065   3.755   2.399 -1.5421 -0.3289 -2.3759
  749TIP3    H223807   0.165   3.812   2.301  0.5897 -1.0992 -0.7441
  750TIP3   OH223808   3.668   2.256   8.339 -0.1564 -0.7122  0.4230
  750TIP3    H123809   3.661   2.172   8.293  1.2738 -0.7403  0.2001
  750TIP3    H223810   3.610   2.315   8.290  1.1520 -0.8027 -1.3444
  751TIP3   OH223811   0.983   4.642   7.827  0.4863  0.3883 -0.3609
  751TIP3    H123812   1.076   4.620   7.829  0.3809 -0.0391  0.4665
  751TIP3    H223813   0.951   4.606   7.744  0.6724 -1.1983  0.2118
  752TIP3   OH223814   0.700   1.843   0.287  0.5563 -0.0469 -0.2581
  752TIP3    H123815   0.736   1.795   0.212  1.3147 -2.6148  1.5807
  752TIP3    H223816   0.606   1.824   0.284  0.5907 -0.1904 -0.5168
  753TIP3   OH223817   5.728   3.078   7.577 -0.2005  0.3535 -0.3005
  753TIP3    H123818   5.762   3.049   7.492  0.1339  2.7924 -1.0577
  753TIP3    H223819   5.678   3.157   7.557 -1.3237  0.1719  1.6122
  754TIP3   OH223820   5.880   2.082   2.724 -0.0989 -0.0610  0.1045
  754TIP3    H123821   5.922   2.148   2.778 -0.9727  0.4025  0.2404
  754TIP3    H223822   5.914   1.998   2.756  1.2941  0.3287 -0.3101
  755TIP3   OH223823   0.451   3.245   1.025  0.2219  0.0607 -0.3596
  755TIP3    H123824   0.358   3.265   1.011 -0.1236 -1.2014 -0.0026
  755TIP3    H223825   0.467   3.264   1.117 -0.3318 -1.9481  0.2142
  756TIP3   OH223826   4.462   3.803   2.100  0.1364  0.5244  0.2832
  756TIP3    H123827   4.517   3.830   2.173  0.9833 -0.4386  0.0158
  756TIP3    H223828   4.519   3.752   2.043 -0.4196  1.4875 -1.2269
  757TIP3   OH223829   1.634   1.297   8.420  0.2242  0.1726  0.3588
  757TIP3    H123830   1.555   1.249   8.443 -0.1584  1.0465  0.9375
  757TIP3    H223831   1.614   1.388   8.443 -0.3209  1.2857 -3.7195
  758TIP3   OH223832   1.311   1.232   0.419 -0.2906 -0.1977  0.4596
  758TIP3    H123833   1.295   1.264   0.508 -1.1459  0.9049 -0.0716
  758TIP3    H223834   1.381   1.287   0.386 -0.0662 -0.5172  0.4043
  759TIP3   OH223835   0.990   2.086   2.504 -0.0408  0.3375 -0.1330
  759TIP3    H123836   0.919   2.137   2.543 -0.2110 -0.2806  0.3843
  759TIP3    H223837   0.970   1.995   2.528  0.8667  0.1413 -0.0906
  760TIP3   OH223838   5.990   5.138   7.208 -0.3293 -0.8265  0.2681
  760TIP3    H123839   6.027   5.206   7.266 -2.0170  0.8842 -0.5419
  760TIP3    H223840   6.047   5.140   7.131 -1.2997  0.9074 -0.4523
  761TIP3   OH223841   2.041   3.760   2.371  0.0174 -0.1272 -0.3669
  761TIP3    H123842   1.975   3.773   2.303  0.0926 -1.2472 -0.6886
  761TIP3    H223843   2.054   3.846   2.410 -1.1018  0.2457 -0.7860
  762TIP3   OH223844   0.921   1.801   8.351 -0.0279  0.2925  0.3701
  762TIP3    H123845   0.932   1.896   8.361  0.4254  0.1077  1.7850
  762TIP3    H223846   0.828   1.786   8.364 -0.1147  0.5450  0.0559
  763TIP3   OH223847   6.822   4.519   2.515 -0.0482  0.0290  0.4734
  763TIP3    H123848   6.775   4.440   2.541 -0.7115  0.8644  1.9199
  763TIP3    H223849   6.834   4.568   2.597 -1.1561  2.2281 -0.6010
  764TIP3   OH223850   0.555   3.360   0.031  0.4585 -0.5422  0.2767
  764TIP3    H123851   0.594   3.395  -0.049  1.6073 -0.1682  0.9720
  764TIP3    H223852   0.575   3.426   0.098 -2.0053  0.0348  0.5536
  765TIP3   OH223853   6.673   4.299   0.468  0.0372 -0.0135  0.8522
  765TIP3    H123854   6.618   4.372   0.497 -1.4047 -1.0985  0.9343
  765TIP3    H223855   6.761   4.324   0.497 -0.0518  2.5461 -0.7533
  766TIP3   OH223856   3.088   4.106   3.269  0.0189  0.1678  0.4143
  766TIP3    H123857   3.132   4.070   3.192 -2.9937 -0.8707 -0.9693
  766TIP3    H223858   3.082   4.033   3.330  0.9992  0.5625  0.9982
  767TIP3   OH223859   4.689   2.719   0.510  0.4275 -0.3419 -0.4990
  767TIP3    H123860   4.626   2.670   0.457  1.8565 -1.8613 -0.8730
  767TIP3    H223861   4.775   2.689   0.480  1.4694  2.9834 -1.2805
  768TIP3   OH223862   1.056   1.154   2.751  0.6336 -0.0147  0.1451
  768TIP3    H123863   1.146   1.183   2.740  0.2720  2.6528  2.9509
  768TIP3    H223864   1.048   1.133   2.844 -1.0934 -2.6019 -0.4561
  769TIP3   OH223865   4.859   3.190   1.595  0.0636 -0.0017  0.0768
  769TIP3    H123866   4.821   3.103   1.607  0.4750 -0.1387  0.3945
  769TIP3    H223867   4.915   3.202   1.671 -0.3983  0.7551  0.3128
  770TIP3   OH223868   5.006   2.827   8.150  0.0019 -0.4879 -0.1773
  770TIP3    H123869   4.967   2.904   8.192  0.4059  0.2066 -1.0517
  770TIP3    H223870   4.932   2.769   8.133 -0.2036 -0.6578  1.2244
  771TIP3   OH223871   3.603   5.722   1.625  0.2628 -0.3171 -0.7797
  771TIP3    H123872   3.509   5.734   1.639  0.9403  1.6865  3.3867
  771TIP3    H223873   3.621   5.633   1.654 -0.2304 -0.5775 -1.2387
  772TIP3   OH223874   3.629   6.447   1.363 -0.0409 -0.1955 -0.0074
  772TIP3    H123875   3.656   6.527   1.317  0.0689 -0.1807  0.0819
  772TIP3    H223876   3.557   6.412   1.310 -0.4535  0.2554  0.2472
  773TIP3   OH223877   1.700   3.834   0.499  0.1636  0.0643 -0.0169
  773TIP3    H123878   1.785   3.816   0.457  0.2166  1.3269 -0.4859
  773TIP3    H223879   1.693   3.767   0.567  1.3971 -0.2585 -0.1749
  774TIP3   OH223880   0.953   5.004   1.696 -0.2868 -0.4103  0.5047
  774TIP3    H123881   0.966   4.928   1.752  1.5555 -1.3450 -1.0967
  774TIP3    H223882   0.867   4.990   1.657  0.1794 -1.9075 -0.0612
  775TIP3   OH223883   6.524   6.020   0.125  0.0872 -0.0100  0.2568
  775TIP3    H123884   6.613   5.985   0.126  0.2007  0.2818  0.9771
  775TIP3    H223885   6.513   6.054   0.036 -0.1736 -2.1826 -0.6051
  776TIP3   OH223886   3.673   4.217   8.363 -0.3086  0.3206 -0.0528
  776TIP3    H123887   3.695   4.284   8.299  2.2540  0.3160  0.7140
  776TIP3    H223888   3.668   4.263   8.447 -0.2355 -0.1727  0.2318
  777TIP3   OH223889   2.741   1.108   1.378  0.8453 -0.1354 -0.6438
  777TIP3    H123890   2.717   1.195   1.347 -0.3112  0.8112  2.5095
  777TIP3    H223891   2.835   1.102   1.363  0.9961  1.7889 -0.6641
  778TIP3   OH223892   6.058   2.868   7.119  0.5213  0.1223 -0.1879
  778TIP3    H123893   6.130   2.928   7.100  1.5371 -0.7344  0.7671
  778TIP3    H223894   6.079   2.788   7.070 -1.6611  0.9898 -2.7864
  779TIP3   OH223895   3.064   3.260   7.093  0.4107  0.3438 -0.2434
  779TIP3    H123896   3.114   3.247   7.173  0.6925 -0.6849 -0.5707
  779TIP3    H223897   3.130   3.283   7.027  0.2976  0.2416 -0.3918
  780TIP3   OH223898   6.159   6.292   1.874  0.4741 -0.6962  0.7144
  780TIP3    H123899   6.163   6.382   1.841 -3.3610  0.3451  2.5563
  780TIP3    H223900   6.137   6.239   1.797 -0.4371  0.4441  0.1553
  781TIP3   OH223901   3.218   6.078   2.218  0.6260  0.5793 -0.2423
  781TIP3    H123902   3.192   6.037   2.300  1.9099  0.1159 -0.0325
  781TIP3    H223903   3.146   6.136   2.195 -0.4941 -0.5544  0.3316
  782TIP3   OH223904   0.205   5.749   1.545 -0.1483 -0.2748 -0.3319
  782TIP3    H123905   0.171   5.828   1.589 -1.6599 -0.4211 -1.1566
  782TIP3    H223906   0.263   5.709   1.610 -0.9917  0.4071  0.9020
  783TIP3   OH223907   6.544   2.663   8.386  0.5767 -0.2061  1.1052
  783TIP3    H123908   6.526   2.738   8.442  1.0020  0.9275 -0.2218
  783TIP3    H223909   6.614   2.616   8.430  1.7214  1.3066  0.9979
  784TIP3   OH223910   5.428   2.938   8.242  0.1428  0.3464  0.2996
  784TIP3    H123911   5.437   2.932   8.337  2.0119  2.9954  0.4025
  784TIP3    H223912   5.384   2.857   8.217 -1.4274  0.0353  3.5058
  785TIP3   OH223913   3.064   2.146   2.055  0.2479 -0.6827  0.7922
  785TIP3    H123914   3.017   2.159   1.973 -1.6532 -1.5485  1.6728
  785TIP3    H223915   3.091   2.054   2.053  0.4254 -0.6369  1.0238
  786TIP3   OH223916   2.852   4.819   0.589  0.3898 -0.2243  0.5378
  786TIP3    H123917   2.830   4.785   0.676 -0.0338 -1.5762 -0.0854
  786TIP3    H223918   2.925   4.765   0.560 -1.0868 -1.5025 -0.9828
  787TIP3   OH223919   6.028   6.667   1.622 -0.1764 -0.3027 -0.4613
  787TIP3    H123920   5.952   6.610   1.630  0.1066 -0.8047 -1.2494
  787TIP3    H223921   5.996   6.754   1.645 -1.2760 -0.2802 -1.9222
  788TIP3   OH223922   6.170   3.215   2.589 -0.3792 -0.2367  0.0481
  788TIP3    H123923   6.214   3.136   2.620 -1.1343 -0.7974 -0.2574
  788TIP3    H223924   6.206   3.230   2.501  1.2455  0.9485  0.8690
  789TIP3   OH223925   6.300   4.055   0.314  0.3783 -0.1071 -0.4333
  789TIP3    H123926   6.235   4.123   0.333 -0.2991 -1.4044  2.6542
  789TIP3    H223927   6.381   4.103   0.299 -0.7506  1.4617 -1.8688
  790TIP3   OH223928   4.160   3.600   7.673 -0.5002 -0.4175 -0.4223
  790TIP3    H123929   4.076   3.618   7.630 -1.3150  1.2519  1.6596
  790TIP3    H223930   4.210   3.680   7.662 -0.1289 -0.5289  0.3945
  791TIP3   OH223931   1.055   2.319   8.683  0.1028  0.0711  0.4899
  791TIP3    H123932   1.047   2.405   8.724  3.1045  0.4789  0.4672
  791TIP3    H223933   1.062   2.338   8.589 -0.4084 -0.2906  0.3791
  792TIP3   OH223934   0.304   5.006   0.943 -0.1776  0.1507  0.1192
  792TIP3    H123935   0.225   4.977   0.987  1.1097 -3.0955  0.6098
  792TIP3    H223936   0.356   5.048   1.012  0.2618 -1.5669  0.8867
  793TIP3   OH223937   0.427   4.775   1.195 -0.4674  0.1262  0.1135
  793TIP3    H123938   0.485   4.728   1.135 -0.2026  1.6572 -0.8794
  793TIP3    H223939   0.339   4.762   1.159 -0.3418  0.7760 -0.4465
  794TIP3   OH223940   5.377   6.051   0.409 -0.6249  0.5413  0.3189
  794TIP3    H123941   5.335   6.004   0.338 -0.1724  0.9156 -0.2015
  794TIP3    H223942   5.437   6.113   0.366  1.6012 -0.9955  0.9929
  795TIP3   OH223943   0.139   5.719   7.887 -0.5282 -0.3056  0.0753
  795TIP3    H123944   0.046   5.737   7.872 -0.6478 -0.6108  0.4339
  795TIP3    H223945   0.177   5.805   7.905 -0.5129 -0.0259 -1.2463
  796TIP3   OH223946   2.860   1.698   8.722 -0.2682 -0.0593 -0.1652
  796TIP3    H123947   2.889   1.629   8.662 -1.7062 -1.3288  0.5128
  796TIP3    H223948   2.937   1.720   8.773  0.1685 -1.3910 -0.2021
  797TIP3   OH223949   2.944   2.495   8.493  0.1638  0.3091 -0.0864
  797TIP3    H123950   3.035   2.467   8.502  0.2358  0.4486 -0.3833
  797TIP3    H223951   2.913   2.503   8.584  0.3030 -0.2001  0.0078
  798TIP3   OH223952   0.367   0.025   7.909  0.0058 -0.6079  0.0432
  798TIP3    H123953   0.420   0.030   7.989 -0.7829 -1.4121  0.6452
  798TIP3    H223954   0.285  -0.016   7.937 -1.2696  1.2662 -0.7083
  799TIP3   OH223955   3.658   4.323   1.662  0.5003 -0.4165 -0.7747
  799TIP3    H123956   3.691   4.295   1.747  0.5677  0.3747 -0.5395
  799TIP3    H223957   3.598   4.395   1.682  0.6605 -0.1046 -1.4106
  800TIP3   OH223958   5.872   2.888   1.683  0.2309  0.2898  0.2769
  800TIP3    H123959   5.884   2.803   1.725  0.8683 -0.4719 -1.3502
  800TIP3    H223960   5.961   2.923   1.674 -0.0258  1.1209  0.9014
  801TIP3   OH223961   5.371   0.159   1.981  0.0237  0.1179 -0.1446
  801TIP3    H123962   5.413   0.225   1.926  1.3405  1.5865  2.3928
  801TIP3    H223963   5.403   0.076   1.946  1.3822  1.0052 -1.1647
  802TIP3   OH223964   1.815   2.931   0.672  0.1816 -0.5348 -0.4069
  802TIP3    H123965   1.740   2.986   0.648  0.2113 -0.8854 -1.3423
  802TIP3    H223966   1.784   2.877   0.744  0.5570  1.6293  1.4998
  803TIP3   OH223967   0.831   4.877   1.923 -0.3817  0.5547 -0.1217
  803TIP3    H123968   0.770   4.933   1.874  0.6261 -0.2358 -2.4206
  803TIP3    H223969   0.785   4.793   1.932 -1.0730  1.0604  1.5216
  804TIP3   OH223970   1.930   2.403   0.071 -0.1981  0.3198  0.0320
  804TIP3    H123971   1.869   2.329   0.075  2.0955 -1.8393 -1.6823
  804TIP3    H223972   1.991   2.388   0.143 -0.3628  1.2180  0.3713
  805TIP3   OH223973   3.978   4.338   7.805  0.5525  0.2872 -0.8718
  805TIP3    H123974   3.959   4.326   7.712  0.9351 -2.2265 -0.7081
  805TIP3    H223975   4.072   4.355   7.808  0.9400 -1.6140 -0.8917
  806TIP3   OH223976   3.769   3.683   0.331  0.5410  0.1933  0.5701
  806TIP3    H123977   3.762   3.597   0.289 -0.4054 -0.0352  1.1581
  806TIP3    H223978   3.688   3.729   0.306  0.9270  0.8225  0.4575
  807TIP3   OH223979   0.644   5.344   0.114 -0.7402  0.9461  0.1360
  807TIP3    H123980   0.612   5.347   0.024 -0.8052  2.5299  0.1841
  807TIP3    H223981   0.737   5.364   0.107 -0.4207 -0.3639  0.3114
  808TIP3   OH223982   6.533   4.939   8.080 -0.1046  0.4646 -0.4777
  808TIP3    H123983   6.464   4.882   8.114  0.1023  0.5288  0.0565
  808TIP3    H223984   6.508   5.027   8.108  0.8422  0.3487  0.8489
  809TIP3   OH223985   5.250   2.247   7.635  0.1683  0.4594 -0.3857
  809TIP3    H123986   5.312   2.184   7.670  1.5638  2.0001  0.0422
  809TIP3    H223987   5.235   2.220   7.545  0.7525 -0.4516 -0.2103
  810TIP3   OH223988   3.387   2.019   2.008  0.1629  0.4267 -0.3750
  810TIP3    H123989   3.450   2.023   2.079  1.2799 -1.1069 -1.2092
  810TIP3    H223990   3.424   2.074   1.939 -1.7526  3.3299  0.7362
  811TIP3   OH223991   4.886   2.469   1.876 -0.1268 -0.3016 -0.5080
  811TIP3    H123992   4.819   2.512   1.929 -0.7671 -0.7766 -0.9105
  811TIP3    H223993   4.904   2.532   1.806  0.5003  0.1976  0.0908
  812TIP3   OH223994   5.262   3.150   1.073  0.4160  0.0911  0.3163
  812TIP3    H123995   5.195   3.082   1.079  0.8447 -0.4178 -0.5551
  812TIP3    H223996   5.344   3.105   1.092  0.5482  0.6771  1.2065
  813TIP3   OH223997   1.402   2.807   1.008 -0.5190 -0.4154  0.2570
  813TIP3    H123998   1.423   2.721   0.971 -1.6444 -0.3897 -0.4641
  813TIP3    H223999   1.352   2.788   1.087 -0.7930 -0.4244  0.0816
  814TIP3   OH224000   1.282   6.640   0.679 -0.5400  0.4164 -0.3321
  814TIP3    H124001   1.341   6.573   0.646  0.3971  1.5299 -0.9892
  814TIP3    H224002   1.208   6.591   0.716  0.3724 -0.9732 -0.2845
  815TIP3   OH224003   4.812   1.551   7.859 -0.0872  0.3904  0.1930
  815TIP3    H124004   4.845   1.464   7.839  0.9712  0.6136  0.8826
  815TIP3    H224005   4.758   1.574   7.783  0.9740 -0.1967 -0.7779
  816TIP3   OH224006   3.691   3.801   1.004  0.0546 -0.3922  0.2138
  816TIP3    H124007   3.629   3.853   1.054  0.4584 -0.1038  0.4228
  816TIP3    H224008   3.761   3.781   1.066  1.1013  0.8877 -0.4794
  817TIP3   OH224009   6.412   1.656   8.718 -0.5786 -0.2536 -0.2769
  817TIP3    H124010   6.361   1.724   8.674  1.8484  1.5859 -0.4740
  817TIP3    H224011   6.416   1.584   8.655  1.3869  1.6496 -2.5105
  818TIP3   OH224012   1.839   6.327   7.089 -0.0201  0.4250 -0.0391
  818TIP3    H124013   1.754   6.284   7.095 -0.0488  0.6611  1.8855
  818TIP3    H224014   1.902   6.257   7.102 -0.0158  0.6164  1.0851
  819TIP3   OH224015   2.479   4.607   7.926  0.5512  0.0416 -0.2523
  819TIP3    H124016   2.486   4.514   7.949  0.4126 -0.3083 -1.5217
  819TIP3    H224017   2.391   4.632   7.954  1.7801  0.7939  3.3550
  820TIP3   OH224018   5.781   3.890   1.777  0.1655 -0.0755  0.3991
  820TIP3    H124019   5.797   3.945   1.700  1.0709 -0.1786  0.5125
  820TIP3    H224020   5.838   3.926   1.845  0.2697 -0.7427  0.6693
  821TIP3   OH224021   5.807   1.010   2.012  0.2937  0.0342 -0.0476
  821TIP3    H124022   5.736   1.012   2.077  0.3231 -1.2031  0.0391
  821TIP3    H224023   5.825   1.103   1.994  1.0124  0.4793  2.5031
  822TIP3   OH224024   4.255   4.275   0.022 -0.1228 -0.0013  0.6351
  822TIP3    H124025   4.345   4.265   0.054  0.7869 -0.1896 -1.7978
  822TIP3    H224026   4.217   4.188   0.034  0.6713 -0.4693 -0.0908
  823TIP3   OH224027   2.011   5.026   8.705 -0.3105  0.2145 -0.1533
  823TIP3    H124028   1.965   4.954   8.663 -1.3033 -0.4775  1.9656
  823TIP3    H224029   2.037   5.083   8.633  3.3752 -3.6864 -2.4135
  824TIP3   OH224030   2.172   5.834   0.077 -0.0053 -0.1977  0.4297
  824TIP3    H124031   2.165   5.798   0.165  0.9725 -2.5776 -0.3660
  824TIP3    H224032   2.266   5.840   0.061 -0.1544 -0.7725 -0.7746
  825TIP3   OH224033   1.048   0.106   0.651 -0.2898  0.0331 -0.0009
  825TIP3    H124034   1.110   0.054   0.703 -0.5324 -0.3319 -0.0755
  825TIP3    H224035   1.020   0.175   0.711 -0.3212 -0.1951  0.2504
  826TIP3   OH224036   6.674   2.092   8.157 -0.0038  0.2313  0.3220
  826TIP3    H124037   6.600   2.150   8.177 -0.9609 -1.0801  0.7649
  826TIP3    H224038   6.752   2.146   8.169 -0.8462  1.3393  0.9717
  827TIP3   OH224039   5.776   1.641   2.312 -0.2563 -0.3468 -0.2856
  827TIP3    H124040   5.760   1.688   2.394  1.3781 -0.0618 -0.0958
  827TIP3    H224041   5.807   1.554   2.340 -1.8449 -1.0527 -0.6283
  828TIP3   OH224042   3.729   2.332   2.284  0.1222  0.0069  0.1229
  828TIP3    H124043   3.644   2.341   2.240  0.2989 -2.7706 -0.9478
  828TIP3    H224044   3.734   2.409   2.341 -2.7183  0.7073 -0.4083
  829TIP3   OH224045   4.447   2.856   8.383  0.2145  0.2308  0.6166
  829TIP3    H124046   4.432   2.945   8.415  0.8834  0.7000 -0.3314
  829TIP3    H224047   4.540   2.841   8.398  0.5305  0.4352 -0.9663
  830TIP3   OH224048   3.823   1.247   8.726 -0.8547 -1.0133  0.2615
  830TIP3    H124049   3.795   1.240   8.635  1.1343 -0.4288 -0.4504
  830TIP3    H224050   3.840   1.157   8.752  0.8115 -1.0303 -0.7484
  831TIP3   OH224051   6.221   6.794   2.351  0.2592  0.1378  0.0572
  831TIP3    H124052   6.157   6.862   2.331 -0.4425 -0.6297 -0.3645
  831TIP3    H224053   6.190   6.755   2.433  0.1174 -0.3244 -0.2178
  832TIP3   OH224054   2.381   3.962   0.242  0.2793  0.3942 -0.5120
  832TIP3    H124055   2.291   3.977   0.271  0.4514  0.8372 -0.1880
  832TIP3    H224056   2.372   3.912   0.161 -0.2165 -0.5507  0.1154
  833TIP3   OH224057   4.630   2.550   7.062 -0.0469 -0.0958 -0.1296
  833TIP3    H124058   4.567   2.621   7.074 -0.5696 -0.6659  0.5863
  833TIP3    H224059   4.617   2.522   6.971 -0.4481  0.1490 -0.1516
  834TIP3   OH224060   0.198   5.303   1.104  0.4263  0.1927 -0.3269
  834TIP3    H124061   0.260   5.238   1.136  1.3024  1.7062  1.2478
  834TIP3    H224062   0.250   5.383   1.095 -0.9470  1.0813 -0.6586
  835TIP3   OH224063   2.406   0.832   0.048 -0.3793 -0.4172  0.4087
  835TIP3    H124064   2.368   0.746   0.062  0.3031 -1.0604 -1.3453
  835TIP3    H224065   2.331   0.891   0.043 -0.9161 -1.0734  0.6261
  836TIP3   OH224066   6.188   4.958   0.617 -0.4160 -0.4036 -0.1499
  836TIP3    H124067   6.255   5.015   0.654  1.2992 -0.9773 -2.2188
  836TIP3    H224068   6.200   4.874   0.662  1.0806 -0.8440 -1.2888
  837TIP3   OH224069   6.023   0.231   8.236 -0.2153  0.2813  0.2586
  837TIP3    H124070   5.947   0.253   8.182  1.2348  1.2807 -1.4793
  837TIP3    H224071   6.090   0.203   8.173  0.7543 -0.9479  1.7680
  838TIP3   OH224072   1.716   1.370   1.033 -0.2089 -0.1239 -0.1055
  838TIP3    H124073   1.691   1.462   1.039 -1.0523 -0.4238  1.8835
  838TIP3    H224074   1.712   1.338   1.124  1.1611 -1.8459 -0.5826
  839TIP3   OH224075   4.336   1.410   7.331 -0.6137  0.0400  0.1570
  839TIP3    H124076   4.334   1.500   7.299 -1.6659 -0.6254 -1.8120
  839TIP3    H224077   4.416   1.374   7.293  0.5736  0.4876  2.1058
  840TIP3   OH224078   0.415   5.429   7.466 -0.2978  0.1172 -0.1593
  840TIP3    H124079   0.499   5.383   7.459  1.0853  2.0139  2.2682
  840TIP3    H224080   0.365   5.378   7.528 -0.3356 -0.1971 -0.4456
  841TIP3   OH224081   4.716   4.311   0.389 -0.2087  0.2548 -0.1982
  841TIP3    H124082   4.799   4.300   0.436 -0.0515  0.4678 -0.4195
  841TIP3    H224083   4.670   4.228   0.400 -0.1592  0.2966  0.3072
  842TIP3   OH224084   3.108   3.522   8.046 -0.1259  0.1846 -0.3957
  842TIP3    H124085   3.127   3.470   8.124  1.9732  0.6425 -0.5183
  842TIP3    H224086   3.013   3.531   8.044 -0.1924  0.8651  2.5606
  843TIP3   OH224087   3.348   5.779   2.069  0.9618  0.5740 -0.8625
  843TIP3    H124088   3.290   5.720   2.021  0.8345 -0.3795  0.3948
  843TIP3    H224089   3.357   5.738   2.155  2.6111  1.2945 -0.6640
  844TIP3   OH224090   1.774   2.829   8.755 -0.8032  0.2310  0.2038
  844TIP3    H124091   1.841   2.805   8.691 -0.1491  1.8525  0.2320
  844TIP3    H224092   1.804   2.792   8.837 -0.3874  0.2213  0.0469
  845TIP3   OH224093   2.299   2.922   1.503 -0.4882  0.1793  0.4405
  845TIP3    H124094   2.387   2.920   1.466  0.0618 -0.1303  1.7127
  845TIP3    H224095   2.247   2.972   1.440  0.1335 -1.2790 -1.3072
  846TIP3   OH224096   3.323   6.553   8.487 -0.2893  0.1234  0.2728
  846TIP3    H124097   3.298   6.524   8.399  0.4495  3.2210 -1.1013
  846TIP3    H224098   3.418   6.541   8.491 -0.3205 -0.0247  0.6837
  847TIP3   OH224099   0.636   3.149   2.264  0.3377 -0.0468 -0.4297
  847TIP3    H124100   0.696   3.196   2.206  0.2448 -1.1007 -1.4242
  847TIP3    H224101   0.683   3.139   2.346  2.2404 -2.2483 -1.6710
  848TIP3   OH224102   4.494   5.140   2.203 -0.4880 -0.1800  0.3488
  848TIP3    H124103   4.538   5.119   2.285  0.1513 -0.8980 -0.1646
  848TIP3    H224104   4.558   5.191   2.154 -0.4046 -0.7855 -0.1901
  849TIP3   OH224105   1.785   1.680   0.329 -0.3064  0.3230  0.2723
  849TIP3    H124106   1.875   1.685   0.359  0.4178 -1.0805 -1.4994
  849TIP3    H224107   1.738   1.634   0.399  0.3525  0.9852  1.1642
  850TIP3   OH224108   4.445   2.209   0.002 -0.5148 -0.1088 -0.4882
  850TIP3    H124109   4.377   2.143   0.015 -1.0883  0.6115  0.2535
  850TIP3    H224110   4.450   2.219  -0.093 -0.0838 -1.5484 -0.6374
  851TIP3   OH224111   4.167   3.637   7.103  0.2103  0.5891  0.0779
  851TIP3    H124112   4.124   3.572   7.159  0.3818 -0.4028 -0.9089
  851TIP3    H224113   4.165   3.599   7.016  1.5537  1.3017 -0.2874
  852TIP3   OH224114   6.339   0.416   2.371 -0.2665  0.0177  0.6238
  852TIP3    H124115   6.310   0.368   2.293 -0.6325  1.3071 -0.0652
  852TIP3    H224116   6.324   0.356   2.443  0.2230 -1.2676 -0.3157
  853TIP3   OH224117   4.791   4.122   7.985  0.1878  0.3069  0.0239
  853TIP3    H124118   4.731   4.165   8.045  0.4376  1.2966 -0.4196
  853TIP3    H224119   4.739   4.105   7.906  0.4723  1.1793 -0.3670
  854TIP3   OH224120   2.131   3.536   0.338  0.4891 -0.3435 -0.6548
  854TIP3    H124121   2.055   3.517   0.282  1.1436 -0.9678 -1.3438
  854TIP3    H224122   2.096   3.533   0.427 -0.4545  0.1228 -1.0008
  855TIP3   OH224123   0.304   5.209   7.109 -0.0964  0.0252  0.6971
  855TIP3    H124124   0.393   5.198   7.074 -0.1892 -1.3708  0.8146
  855TIP3    H224125   0.287   5.303   7.104  0.1725  0.0171 -2.3829
  856TIP3   OH224126   2.659   0.280   8.369  0.0691 -0.9124 -0.0955
  856TIP3    H124127   2.734   0.336   8.385  2.0133 -3.5564  0.7526
  856TIP3    H224128   2.586   0.340   8.355  1.8993  1.7539  1.1084
  857TIP3   OH224129   2.580   6.174   1.677 -0.0871  0.0573 -0.4835
  857TIP3    H124130   2.572   6.138   1.588 -1.1764  1.6616 -1.0793
  857TIP3    H224131   2.546   6.104   1.733 -1.7473 -0.0539 -1.5569
  858TIP3   OH224132   1.093   1.821   0.650  0.5703  0.0149  0.7838
  858TIP3    H124133   1.067   1.739   0.691  2.8636  0.1935  2.8161
  858TIP3    H224134   1.025   1.883   0.677 -0.7537 -0.9942 -0.1135
  859TIP3   OH224135   1.020   1.554   1.419  0.2266  0.1051  0.2535
  859TIP3    H124136   1.004   1.647   1.410  2.0682  0.2791 -2.1143
  859TIP3    H224137   1.115   1.546   1.420  0.1099 -1.7699  0.2969
  860TIP3   OH224138   1.229   0.742   7.948  0.0789 -0.2151 -1.0826
  860TIP3    H124139   1.322   0.758   7.968 -0.3188 -0.2063  1.0800
  860TIP3    H224140   1.218   0.648   7.964 -0.7948  0.2245  1.4378
  861TIP3   OH224141   2.720   1.619   2.800 -0.3519 -0.3121 -0.1275
  861TIP3    H124142   2.648   1.635   2.861 -0.7358 -1.2160 -0.3216
  861TIP3    H224143   2.740   1.526   2.811 -1.0236 -0.7270 -1.9974
  862TIP3   OH224144   5.238   0.847   0.867 -0.3830 -0.3360 -0.0061
  862TIP3    H124145   5.249   0.939   0.842 -0.6498 -0.0249  0.9909
  862TIP3    H224146   5.314   0.827   0.921 -0.3445 -0.7025 -0.1900
  863TIP3   OH224147   4.161   0.722   1.958 -0.1345 -0.3944 -0.0860
  863TIP3    H124148   4.235   0.713   1.898 -0.2288 -2.0919  0.0123
  863TIP3    H224149   4.089   0.753   1.904  0.1623 -0.5002 -0.5412
  864TIP3   OH224150   4.835   3.721   2.106  0.2107  1.0113  0.2642
  864TIP3    H124151   4.872   3.698   2.191 -1.3514 -2.3020  0.1844
  864TIP3    H224152   4.744   3.691   2.110 -0.0774  1.3056 -2.3902
  865TIP3   OH224153   6.124   0.178   1.018 -0.2076  0.2357 -0.1103
  865TIP3    H124154   6.132   0.102   0.961  2.5891  0.3128  0.0676
  865TIP3    H224155   6.177   0.246   0.976  0.1552  0.9723  1.4695
  866TIP3   OH224156   5.494   4.240   7.294 -0.1517  0.0638  0.0282
  866TIP3    H124157   5.558   4.182   7.251  0.3279  1.1727 -0.7931
  866TIP3    H224158   5.545   4.288   7.359 -0.2509  0.5510 -0.2471
  867TIP3   OH224159   5.362   3.644   0.618  0.1604 -0.2776 -0.0714
  867TIP3    H124160   5.293   3.631   0.554  1.4034 -1.0480 -1.3320
  867TIP3    H224161   5.318   3.680   0.694 -1.2115  1.9451 -1.7815
  868TIP3   OH224162   4.719   6.063   8.641  0.3469 -0.1528 -0.6251
  868TIP3    H124163   4.756   6.073   8.554  0.4999 -0.6213 -0.6134
  868TIP3    H224164   4.734   5.972   8.664  1.6592  0.3197  0.5129
  869TIP3   OH224165   0.680   0.992   1.258  0.4379  0.7543 -0.2480
  869TIP3    H124166   0.731   0.932   1.204  0.9541  1.2347 -0.3075
  869TIP3    H224167   0.603   0.942   1.284  2.9821 -1.6923  3.6941
  870TIP3   OH224168   3.215   3.482   8.728 -0.0541  0.4098  0.3137
  870TIP3    H124169   3.171   3.442   8.803  0.3267 -1.3474 -0.3602
  870TIP3    H224170   3.156   3.465   8.654  0.4853  0.4280 -0.1246
  871TIP3   OH224171   0.662   4.716   1.757 -0.0841  0.0197  0.0599
  871TIP3    H124172   0.616   4.651   1.705  0.0096 -0.2423  0.2977
  871TIP3    H224173   0.707   4.665   1.825  0.0578  0.3239  0.1990
  872TIP3   OH224174   2.944   4.476   0.412 -0.0170  0.3379 -0.0797
  872TIP3    H124175   2.976   4.561   0.439  0.5294  0.7212 -1.8124
  872TIP3    H224176   2.861   4.465   0.460 -0.3735  2.0742 -0.2267
  873TIP3   OH224177   3.598   4.784   7.586 -0.0184 -0.1134 -0.2300
  873TIP3    H124178   3.624   4.795   7.494  0.4657 -0.6083 -0.1575
  873TIP3    H224179   3.505   4.803   7.587  0.2839  1.5877 -0.5231
  874TIP3   OH224180   6.154   5.832   2.138  0.0736 -0.5205  0.0906
  874TIP3    H124181   6.182   5.883   2.213  1.0103 -0.3943 -0.3282
  874TIP3    H224182   6.074   5.875   2.108 -0.1676 -0.4254  0.8621
  875TIP3   OH224183   5.250   0.245   2.765  0.0743  0.0887  0.3098
  875TIP3    H124184   5.306   0.175   2.799 -1.0813 -0.2149  1.6970
  875TIP3    H224185   5.229   0.217   2.676 -0.8815 -1.7118  1.0297
  876TIP3   OH224186   5.083   5.451   7.677 -0.2891  0.3696  0.3552
  876TIP3    H124187   5.043   5.516   7.619  0.5205  0.0130 -0.6205
  876TIP3    H224188   5.118   5.503   7.750  0.8063  1.1108 -0.6610
  877TIP3   OH224189   0.039   4.008   7.638  1.0113 -0.3770 -0.5662
  877TIP3    H124190   0.096   4.085   7.644  0.6402  0.0716 -2.2996
  877TIP3    H224191   0.084   3.941   7.690 -0.2187  1.8214  3.8159
  878TIP3   OH224192   3.850   6.437   8.716  0.4256  0.2684  0.1355
  878TIP3    H124193   3.923   6.417   8.656  0.9961  0.8214  0.6394
  878TIP3    H224194   3.828   6.528   8.697  1.1686  0.7192  1.3301
  879TIP3   OH224195   0.926   2.276   0.586 -0.2201 -0.6484  0.6442
  879TIP3    H124196   0.904   2.345   0.523  1.2443  0.1413  0.9250
  879TIP3    H224197   0.973   2.211   0.535  1.1076  0.0671  0.8893
  880TIP3   OH224198   5.713   2.325   8.378 -0.4808  0.4630  0.2434
  880TIP3    H124199   5.767   2.307   8.301 -0.5840 -0.2528  0.3303
  880TIP3    H224200   5.764   2.291   8.452 -1.2875 -0.7872  0.2645
  881TIP3   OH224201   6.261   4.110   1.141 -0.0897 -0.3219  0.5432
  881TIP3    H124202   6.182   4.088   1.189  0.3978 -0.8834  1.1075
  881TIP3    H224203   6.233   4.119   1.050 -0.8950  0.0458  0.8273
  882TIP3   OH224204   0.204   0.824   8.618 -0.5434  0.2128  0.0237
  882TIP3    H124205   0.196   0.805   8.711  1.3736 -0.7695  0.0241
  882TIP3    H224206   0.278   0.884   8.612 -0.7536  0.3972 -0.8699
  883TIP3   OH224207   2.173   5.067   1.712  0.2973 -0.8064 -0.3010
  883TIP3    H124208   2.139   4.979   1.701 -0.7330 -0.3317 -1.2192
  883TIP3    H224209   2.096   5.124   1.703  0.6740  0.1232  1.8118
  884TIP3   OH224210   4.099   5.318   0.687 -0.1122 -0.3825  0.2466
  884TIP3    H124211   4.135   5.335   0.774 -1.6380  1.2174  0.6036
  884TIP3    H224212   4.112   5.399   0.639  0.7414 -1.2544 -1.0889
  885TIP3   OH224213   1.844   1.907   1.750 -0.1341 -0.2206  0.2377
  885TIP3    H124214   1.902   1.918   1.674 -0.1046 -0.7653  0.1736
  885TIP3    H224215   1.764   1.953   1.726 -0.4479 -1.1112 -0.4988
  886TIP3   OH224216   4.185   0.382   7.135  0.3443  0.2939  0.0766
  886TIP3    H124217   4.184   0.405   7.042  0.2034 -0.1171 -0.0275
  886TIP3    H224218   4.221   0.293   7.137 -0.7364 -0.1495  0.3066
  887TIP3   OH224219   2.684   3.362   0.589  0.9025  0.0577 -0.3421
  887TIP3    H124220   2.659   3.288   0.645 -1.2103  1.3112  0.4850
  887TIP3    H224221   2.751   3.409   0.640  0.7114 -0.1183  0.0758
  888TIP3   OH224222   0.494   0.156   0.039  0.3912 -0.3930  0.2449
  888TIP3    H124223   0.496   0.172   0.134 -1.6102 -1.7972  0.6129
  888TIP3    H224224   0.401   0.138   0.021  0.5664  0.8307 -2.1833
  889TIP3   OH224225   0.517   5.359   0.359  0.6311 -0.1827 -0.4873
  889TIP3    H124226   0.567   5.333   0.282 -0.4058  1.0025 -1.6153
  889TIP3    H224227   0.553   5.445   0.383  0.7341 -0.4037  0.1560
  890TIP3   OH224228   0.537   6.276   0.350  0.4348  0.0749  0.3024
  890TIP3    H124229   0.521   6.315   0.436  2.9417  1.0387  0.3835
  890TIP3    H224230   0.597   6.336   0.307 -1.0769 -0.1795 -2.3397
  891TIP3   OH224231   0.797   4.453   1.568  0.1142 -0.2134 -0.2771
  891TIP3    H124232   0.750   4.504   1.503  0.1550  0.6804  0.3736
  891TIP3    H224233   0.859   4.400   1.517  0.7118  1.0598 -0.9364
  892TIP3   OH224234   4.028   5.321   7.232 -0.4248  0.3900  0.0343
  892TIP3    H124235   3.955   5.264   7.206 -1.7169  1.7208  0.5536
  892TIP3    H224236   4.064   5.352   7.149 -1.0941  0.4706 -0.2333
  893TIP3   OH224237   4.977   5.006   0.705  0.4595  0.2824  0.7993
  893TIP3    H124238   4.976   5.061   0.627 -1.5799 -0.1636  0.4620
  893TIP3    H224239   4.907   5.041   0.760  0.4375 -0.7582  1.4563
  894TIP3   OH224240   4.582   0.050   8.024  0.4312  0.3266  0.0275
  894TIP3    H124241   4.673   0.029   8.044 -0.1204 -1.5364  0.7914
  894TIP3    H224242   4.546   0.082   8.106  0.0159 -0.4609  0.1679
  895TIP3   OH224243   4.427   4.635   7.912  0.0565 -0.1565  0.3476
  895TIP3    H124244   4.379   4.553   7.905  0.0317 -0.1217  0.0961
  895TIP3    H224245   4.373   4.699   7.865 -1.7971  0.8735  3.5847
  896TIP3   OH224246   4.354   0.096   7.456 -0.6914  0.2672 -0.6625
  896TIP3    H124247   4.287   0.150   7.498  0.2567  0.8427  0.1663
  896TIP3    H224248   4.361   0.129   7.367 -0.0977  1.5878 -0.1563
  897TIP3   OH224249   6.756   4.691   7.918  0.4022  0.1876 -0.3252
  897TIP3    H124250   6.671   4.729   7.895  0.6182 -0.1900 -1.8004
  897TIP3    H224251   6.734   4.619   7.977 -0.5248 -1.3018 -2.3642
  898TIP3   OH224252   5.152   3.895   8.687 -0.0180  0.3353  0.7093
  898TIP3    H124253   5.220   3.829   8.702  1.0489  1.3409  0.4633
  898TIP3    H224254   5.070   3.850   8.707  0.3386 -2.0480 -2.3665
  899TIP3   OH224255   5.792   3.153   8.483 -0.3650 -0.3366 -0.6122
  899TIP3    H124256   5.850   3.127   8.554 -0.2470 -3.6579 -1.7370
  899TIP3    H224257   5.776   3.072   8.434 -1.9378  1.4176 -3.2800
  900TIP3   OH224258   1.669   4.827   7.792  0.0969 -0.8576  0.1794
  900TIP3    H124259   1.626   4.750   7.757 -2.1901 -1.0412  3.0276
  900TIP3    H224260   1.718   4.795   7.868 -0.7304  0.4012  1.2940
  901TIP3   OH224261   2.514   1.244   7.852  0.4342  0.3066 -0.8012
  901TIP3    H124262   2.464   1.182   7.906 -0.0768  0.0851 -1.5079
  901TIP3    H224263   2.529   1.197   7.770 -0.5999  1.3612 -1.6328
  902TIP3   OH224264   5.983   0.423   2.697 -0.5623  1.0265 -0.1172
  902TIP3    H124265   5.970   0.426   2.792  1.2649  1.5287  0.1554
  902TIP3    H224266   5.955   0.508   2.666  0.0351  1.3386  0.1726
  903TIP3   OH224267   6.251   2.704   1.662 -0.0302 -0.1400  0.9805
  903TIP3    H124268   6.202   2.623   1.669 -0.7851  0.3515  1.5421
  903TIP3    H224269   6.297   2.697   1.578 -1.8022 -0.2249 -0.0372
  904TIP3   OH224270   0.856   6.605   8.025  0.1516 -0.3336 -0.1707
  904TIP3    H124271   0.790   6.610   7.956  0.2008 -0.7264 -0.2504
  904TIP3    H224272   0.934   6.645   7.987  0.1191 -0.3666 -0.2720
  905TIP3   OH224273   3.086   0.560   0.325  0.1379 -0.2117 -0.3535
  905TIP3    H124274   3.117   0.645   0.355  0.2549 -0.2239 -0.4373
  905TIP3    H224275   3.166   0.507   0.318  0.1939 -0.0267 -1.2820
  906TIP3   OH224276   3.764   1.672   8.009 -0.1626  0.9864 -0.4166
  906TIP3    H124277   3.724   1.705   7.929  0.5625  1.1748 -0.7036
  906TIP3    H224278   3.844   1.723   8.019  1.3007 -1.0484 -1.1877
  907TIP3   OH224279   3.401   2.657   2.411  0.6369  0.1920  0.0534
  907TIP3    H124280   3.397   2.640   2.505 -2.2439  0.9832  0.1655
  907TIP3    H224281   3.469   2.724   2.401  0.9101  0.1667  1.5686
  908TIP3   OH224282   0.298   0.868   0.717 -0.6637 -0.4522 -0.2618
  908TIP3    H124283   0.334   0.869   0.806 -0.9789 -1.5013 -0.1139
  908TIP3    H224284   0.363   0.821   0.666 -1.8097 -2.4406  0.0227
  909TIP3   OH224285   0.543   0.681   2.556  0.8096  0.2971  0.1404
  909TIP3    H124286   0.615   0.688   2.618 -0.0265  0.3106  1.1579
  909TIP3    H224287   0.466   0.710   2.606  0.3386  1.9031 -1.4081
  910TIP3   OH224288   2.933   3.706   0.853  0.3299 -0.1540  0.1789
  910TIP3    H124289   2.869   3.658   0.801  0.0672 -0.1612  0.5038
  910TIP3    H224290   2.997   3.737   0.790  1.1227 -1.8847  0.0996
  911TIP3   OH224291   1.899   5.594   8.390 -0.7385  0.2481  0.1610
  911TIP3    H124292   1.860   5.663   8.444 -0.7180  0.3436  0.0534
  911TIP3    H224293   1.880   5.620   8.300 -0.2955  0.3698  0.1020
  912TIP3   OH224294   0.435   2.910   0.106  0.3746 -0.0867 -0.4136
  912TIP3    H124295   0.484   2.860   0.041  1.4193  1.4739 -0.8615
  912TIP3    H224296   0.389   2.976   0.056 -1.3110 -0.7894  0.1389
  913TIP3   OH224297   3.921   1.516   0.324  0.4784 -0.4699 -0.0099
  913TIP3    H124298   3.827   1.523   0.343  0.4279 -0.4317 -0.2668
  913TIP3    H224299   3.926   1.519   0.229  0.7841  0.0524  0.0197
  914TIP3   OH224300   6.656   4.975   7.432  1.0576 -0.0005 -0.0614
  914TIP3    H124301   6.586   4.913   7.455  0.8955  1.1840  3.3025
  914TIP3    H224302   6.737   4.930   7.458  1.2434 -0.0592 -0.7338
  915TIP3   OH224303   4.122   6.020   1.705  0.4411 -0.4331  0.4761
  915TIP3    H124304   4.192   6.065   1.658 -0.7248  1.2008  0.2102
  915TIP3    H224305   4.079   6.089   1.756 -1.5378 -1.1828 -0.0719
  916TIP3   OH224306   4.872   5.570   8.370  0.4475 -0.2343  0.2943
  916TIP3    H124307   4.898   5.497   8.426  0.8519 -1.5482 -1.5158
  916TIP3    H224308   4.954   5.601   8.331  0.2090  0.8437  0.6142
  917TIP3   OH224309   2.706   3.629   2.590  0.3112 -0.3837  0.5043
  917TIP3    H124310   2.680   3.721   2.589 -0.9003 -0.7032  0.2180
  917TIP3    H224311   2.655   3.590   2.661 -0.0343 -1.0450 -0.0897
  918TIP3   OH224312   2.497   4.213   3.135  0.4365  0.1646  0.1348
  918TIP3    H124313   2.402   4.202   3.128  0.4988 -1.6152  1.3779
  918TIP3    H224314   2.517   4.287   3.078 -1.4626 -0.4949 -1.4961
  919TIP3   OH224315   0.554   5.372   8.606  0.2086  0.2044  0.1915
  919TIP3    H124316   0.483   5.377   8.542  0.3419 -1.0860 -0.0818
  919TIP3    H224317   0.566   5.463   8.635 -2.3505  0.3418  1.1344
  920TIP3   OH224318   5.942   3.138   1.800  0.1026  0.3866  0.5708
  920TIP3    H124319   5.903   3.225   1.790  2.1984  1.2614 -0.7447
  920TIP3    H224320   5.868   3.078   1.798 -1.3201  2.0638  0.3211
  921TIP3   OH224321   4.311   4.881   8.062 -0.1901  0.2626  0.0433
  921TIP3    H124322   4.284   4.878   7.971 -1.0868  0.1726  0.3091
  921TIP3    H224323   4.348   4.794   8.079  0.4660  0.4556 -0.3744
  922TIP3   OH224324   0.015   2.606   0.493  0.4445  0.3149  0.0524
  922TIP3    H124325   0.110   2.608   0.482  0.4958  0.5330  0.5051
  922TIP3    H224326  -0.010   2.698   0.502  0.2882  0.2061  0.7315
  923TIP3   OH224327   4.320   3.026   0.845  0.4149  0.7041  0.4234
  923TIP3    H124328   4.317   3.023   0.941  0.9495 -3.0206  0.4660
  923TIP3    H224329   4.243   2.978   0.817  0.8541  0.7970 -1.0022
  924TIP3   OH224330   4.301   2.037   1.624 -0.1147 -0.4489 -0.2967
  924TIP3    H124331   4.246   1.976   1.673 -0.2154 -0.5488 -0.5342
  924TIP3    H224332   4.324   1.990   1.544 -0.0652 -0.2326 -0.4097
  925TIP3   OH224333   4.448   3.203   0.222  0.1773  0.2596  0.3043
  925TIP3    H124334   4.411   3.143   0.156  2.8246 -2.0852  0.7863
  925TIP3    H224335   4.376   3.264   0.240 -2.3432 -2.0282 -1.0900
  926TIP3   OH224336   5.076   2.496   0.066  0.5908  0.3580  0.4908
  926TIP3    H124337   5.137   2.545   0.121 -0.4066  1.2518  0.8459
  926TIP3    H224338   5.006   2.470   0.126  0.9801 -1.3059  0.2490
  927TIP3   OH224339   1.736   2.728   8.312  0.0382  0.0062 -0.0428
  927TIP3    H124340   1.680   2.805   8.327  0.2240  0.1043  0.1587
  927TIP3    H224341   1.702   2.688   8.232 -0.2171  0.1586 -0.0100
  928TIP3   OH224342   5.140   0.663   1.353  0.5306 -0.3273 -0.2228
  928TIP3    H124343   5.062   0.685   1.303  0.2111 -0.6992  0.1050
  928TIP3    H224344   5.211   0.659   1.288  0.2407 -0.1774 -0.5462
  929TIP3   OH224345   1.901   1.498   7.780  0.0019 -0.4916  0.2583
  929TIP3    H124346   1.813   1.508   7.743  0.4277  2.3075 -0.2322
  929TIP3    H224347   1.945   1.581   7.759  3.3466 -2.3815 -0.9647
  930TIP3   OH224348   1.301   2.382   2.216 -0.5374 -0.8779 -0.5837
  930TIP3    H124349   1.220   2.354   2.259 -1.5594  3.4633  0.7743
  930TIP3    H224350   1.367   2.381   2.286 -0.7750  0.5598 -0.3023
  931TIP3   OH224351   0.098   4.929   7.328  0.5738  0.9139  0.3233
  931TIP3    H124352   0.174   4.905   7.275 -0.5047  0.7918 -1.2173
  931TIP3    H224353   0.059   5.004   7.283 -1.6218 -0.5390 -0.3536
  932TIP3   OH224354   1.900   3.586   2.043  0.1387 -0.3309 -0.2686
  932TIP3    H124355   1.862   3.633   2.117  0.7425 -0.9639  0.4637
  932TIP3    H224356   1.836   3.517   2.024  0.4482 -0.7891  0.3245
  933TIP3   OH224357   1.716   0.666   0.408 -0.5689 -0.1239 -0.6629
  933TIP3    H124358   1.677   0.745   0.446 -0.4978 -0.0981 -0.6415
  933TIP3    H224359   1.789   0.699   0.355  1.1321 -0.3145  1.3983
  934TIP3   OH224360   6.729   1.590   0.109  0.3682  0.1332  0.1917
  934TIP3    H124361   6.662   1.552   0.165 -0.0667  1.0932  0.3392
  934TIP3    H224362   6.773   1.514   0.070 -0.5693 -0.5146  0.3594
  935TIP3   OH224363   5.352   1.300   7.316 -0.0299  0.2948 -0.2293
  935TIP3    H124364   5.325   1.219   7.273  1.3744  0.0358 -0.6842
  935TIP3    H224365   5.296   1.367   7.277 -0.2454 -0.2522 -0.8947
  936TIP3   OH224366   1.790   1.858   1.999 -0.3369  0.0177  0.2472
  936TIP3    H124367   1.811   1.868   1.907 -0.3717  0.4367  0.2829
  936TIP3    H224368   1.695   1.842   2.000 -0.1393 -1.2737  0.1284
  937TIP3   OH224369   4.444   1.198   1.165  0.1234 -1.0282  0.2627
  937TIP3    H124370   4.465   1.292   1.164 -2.0915 -0.4712 -0.2042
  937TIP3    H224371   4.454   1.171   1.074 -0.3985 -0.9445  0.1787
  938TIP3   OH224372   6.303   2.532   1.174 -0.0681 -0.5643  0.1529
  938TIP3    H124373   6.326   2.443   1.147  0.9717 -0.2667  0.0292
  938TIP3    H224374   6.222   2.551   1.128  0.9971 -0.5291 -1.7801
  939TIP3   OH224375   2.319   6.636   0.479 -0.2132  0.3750 -0.1109
  939TIP3    H124376   2.365   6.700   0.532  0.6961  1.3850 -2.0310
  939TIP3    H224377   2.369   6.555   0.491 -1.4560 -0.1447  2.4460
  940TIP3   OH224378   2.554   2.906   1.364  0.1189 -0.1534  0.0417
  940TIP3    H124379   2.642   2.942   1.353 -0.2100  0.3377 -1.0710
  940TIP3    H224380   2.551   2.831   1.306  0.5529 -1.6109  1.8088
  941TIP3   OH224381   0.797   2.032   7.162 -0.6713  0.1973 -0.1911
  941TIP3    H124382   0.716   2.013   7.116 -1.5228 -0.0308  1.3359
  941TIP3    H224383   0.816   2.123   7.141 -1.4861  0.3437 -0.3082
  942TIP3   OH224384   1.541   4.896   1.826  0.0127 -0.0905  0.1551
  942TIP3    H124385   1.457   4.925   1.791  0.0723 -1.0095 -0.8154
  942TIP3    H224386   1.532   4.904   1.921 -1.1513 -0.1248  0.0634
  943TIP3   OH224387   1.969   1.293   0.943  0.1483  0.1580  0.1866
  943TIP3    H124388   2.041   1.309   1.005  0.7858  2.6060 -1.0848
  943TIP3    H224389   1.895   1.339   0.980 -0.3552 -0.9744  0.6430
  944TIP3   OH224390   1.033   1.259   0.440  0.0033 -0.2077 -0.1027
  944TIP3    H124391   1.107   1.197   0.443  0.8675  0.7743 -0.5850
  944TIP3    H224392   1.073   1.345   0.455 -1.2354  0.2112  1.0050
  945TIP3   OH224393   0.831   0.707   2.721 -0.7170 -0.6979  0.0659
  945TIP3    H124394   0.886   0.648   2.669 -1.8160 -0.1366 -1.7949
  945TIP3    H224395   0.847   0.794   2.685 -0.8683 -0.1596  1.2498
  946TIP3   OH224396   4.302   0.675   1.449  0.0753  0.0109  0.2977
  946TIP3    H124397   4.383   0.722   1.469  0.0866  0.2237 -0.2465
  946TIP3    H224398   4.319   0.631   1.366 -0.0358 -0.7225  0.6524
  947TIP3   OH224399   4.227   1.494   8.283  0.0048 -0.0577 -0.5173
  947TIP3    H124400   4.254   1.403   8.277 -1.2798 -0.4822 -0.1727
  947TIP3    H224401   4.270   1.527   8.362  1.0545 -0.1360 -1.0387
  948TIP3   OH224402   6.303   0.243   7.100 -0.2368  0.5000 -0.0066
  948TIP3    H124403   6.378   0.300   7.082 -1.2775  2.3399  1.2667
  948TIP3    H224404   6.335   0.182   7.167  0.2355  0.9732  0.2006
  949TIP3   OH224405   5.785   0.044   8.607 -0.2202 -0.2674  0.5158
  949TIP3    H124406   5.766   0.099   8.683  0.2621 -2.3615  2.2263
  949TIP3    H224407   5.875   0.016   8.619 -0.3777 -1.2276 -0.4436
  950TIP3   OH224408   1.433   6.438   1.180 -0.2457  0.7354  0.6291
  950TIP3    H124409   1.475   6.418   1.263 -0.6443  0.0955  0.6870
  950TIP3    H224410   1.441   6.533   1.171 -2.9452  1.3141  2.9442
  951TIP3   OH224411   3.781   2.900   1.199  0.0556 -0.3206  0.6628
  951TIP3    H124412   3.775   2.990   1.167 -1.8631 -1.0281 -1.1793
  951TIP3    H224413   3.691   2.870   1.204  0.5646 -1.7148  2.7003
  952TIP3   OH224414   5.344   3.280   2.055 -0.6370 -0.4889  0.0266
  952TIP3    H124415   5.349   3.199   2.003  0.8304 -1.9117  2.2487
  952TIP3    H224416   5.288   3.257   2.129 -1.2980  0.9957  0.0227
  953TIP3   OH224417   4.429   4.704   7.640  0.6615  0.2701  0.8197
  953TIP3    H124418   4.510   4.654   7.628 -0.6900 -1.7784 -0.1965
  953TIP3    H224419   4.442   4.782   7.586  1.1439 -1.1155 -1.1966
  954TIP3   OH224420   0.286   5.913   2.027  0.2757  0.2260  0.0246
  954TIP3    H124421   0.338   5.915   1.947  1.1778 -1.1741  0.5395
  954TIP3    H224422   0.311   5.992   2.074 -1.1898  1.7447 -1.5791
  955TIP3   OH224423   3.517   3.385   1.775 -1.2492  0.0348  0.4737
  955TIP3    H124424   3.470   3.424   1.701  1.9138  0.1586 -1.6877
  955TIP3    H224425   3.516   3.291   1.757  0.9760  0.1772 -0.8530
  956TIP3   OH224426   6.738   4.156   8.675  0.1704  0.2139  0.1287
  956TIP3    H124427   6.755   4.235   8.726  2.1313  0.2217 -0.4210
  956TIP3    H224428   6.791   4.088   8.718  2.1357  0.2941 -1.9317
  957TIP3   OH224429   0.796   5.426   1.664 -0.3665  0.2857  0.1554
  957TIP3    H124430   0.874   5.380   1.633  0.2564  1.1412  0.3995
  957TIP3    H224431   0.799   5.510   1.618 -1.0885  0.3696  0.2568
  958TIP3   OH224432   3.029   3.365   0.146 -0.2126  0.1961 -0.4466
  958TIP3    H124433   2.935   3.381   0.159 -0.3378 -0.3015 -0.7061
  958TIP3    H224434   3.046   3.284   0.194  0.0964  0.3121 -0.3602
  959TIP3   OH224435   4.533   5.577   0.136  0.0715  0.4197  0.8264
  959TIP3    H124436   4.555   5.608   0.048  1.2294 -1.1594  0.4951
  959TIP3    H224437   4.454   5.524   0.124  1.0529 -1.0162  0.4206
  960TIP3   OH224438   0.126   3.150   7.067  0.5529  0.6457 -0.4384
  960TIP3    H124439   0.170   3.200   7.137  1.5544  0.2755 -0.7936
  960TIP3    H224440   0.112   3.214   6.998  2.1856  0.3830 -1.0481
  961TIP3   OH224441   0.865   6.142   7.656 -0.2018 -0.7181  0.1668
  961TIP3    H124442   0.811   6.063   7.657  0.7488 -1.4163 -1.1333
  961TIP3    H224443   0.871   6.166   7.564  1.9926 -0.8832  0.2218
  962TIP3   OH224444   4.320   2.983   6.915  0.2407  0.3374 -0.2206
  962TIP3    H124445   4.277   3.026   6.841 -2.2950  0.6043  1.2670
  962TIP3    H224446   4.353   3.054   6.970  1.0635  0.1839 -0.5111
  963TIP3   OH224447   5.074   3.321   7.793 -0.2811 -0.4088  0.2810
  963TIP3    H124448   5.085   3.242   7.740  0.8240 -1.2301  1.6302
  963TIP3    H224449   5.090   3.291   7.883  1.4013  1.5514  0.7264
  964TIP3   OH224450   4.245   4.817   0.195  0.1408  0.3723 -0.1302
  964TIP3    H124451   4.225   4.747   0.134  0.2950 -0.3292  0.6063
  964TIP3    H224452   4.160   4.858   0.213  0.0100  0.1996 -0.3485
  965TIP3   OH224453   5.622   5.425   1.532 -0.1756 -0.4035 -0.0804
  965TIP3    H124454   5.581   5.341   1.514 -0.7009  0.2222 -2.0384
  965TIP3    H224455   5.679   5.408   1.607 -0.4669 -2.4198 -0.2568
  966TIP3   OH224456   0.582   2.458   1.489 -0.2758 -0.7267  0.4902
  966TIP3    H124457   0.594   2.552   1.503 -2.0530 -0.1897 -1.1461
  966TIP3    H224458   0.563   2.423   1.576  1.9014  0.1275  1.3617
  967TIP3   OH224459   1.984   0.653   0.724 -0.9459 -0.2891 -0.1422
  967TIP3    H124460   2.060   0.613   0.682 -0.8902  0.4559 -0.7860
  967TIP3    H224461   1.997   0.637   0.818 -0.3261 -0.7280 -0.2970
  968TIP3   OH224462   6.766   4.125   7.984  0.2241  0.6237 -0.3896
  968TIP3    H124463   6.805   4.212   7.985  1.4891  0.0932 -0.8830
  968TIP3    H224464   6.833   4.069   7.943 -0.0453 -0.8151  1.0201
  969TIP3   OH224465   1.202   5.158   0.867  0.1877 -0.4330  0.0249
  969TIP3    H124466   1.188   5.068   0.897  2.9498 -1.4550 -1.4123
  969TIP3    H224467   1.241   5.202   0.942  0.9516 -1.1061  0.0392
  970TIP3   OH224468   1.965   4.454   1.852  0.0731  0.0636  0.6741
  970TIP3    H124469   2.046   4.410   1.880 -0.1901 -0.7821  0.1607
  970TIP3    H224470   1.907   4.445   1.927 -0.5730 -2.0523 -0.0142
  971TIP3   OH224471   2.520   1.230   0.900 -0.2291  0.6913 -0.1430
  971TIP3    H124472   2.429   1.235   0.870  0.5066 -0.9881 -3.0764
  971TIP3    H224473   2.569   1.282   0.837  0.8744  1.7615  1.5333
  972TIP3   OH224474   4.730   6.281   7.819 -0.3087 -0.2000 -0.0210
  972TIP3    H124475   4.768   6.360   7.858 -0.6452  0.3885 -0.8490
  972TIP3    H224476   4.698   6.230   7.894 -1.4032  1.1302  0.4504
  973TIP3   OH224477   2.740   2.787   0.393  0.2627  0.0959  0.1170
  973TIP3    H124478   2.688   2.766   0.471 -0.6832 -1.6347 -0.9237
  973TIP3    H224479   2.681   2.769   0.319  1.9504 -0.8274 -1.0682
  974TIP3   OH224480   3.529   0.187   8.213 -0.5303  0.1333 -0.5993
  974TIP3    H124481   3.481   0.116   8.256 -0.9991 -0.5710 -2.2133
  974TIP3    H224482   3.462   0.251   8.191 -0.0122  1.5174  1.5440
  975TIP3   OH224483   0.011   5.993   1.039 -0.1069  0.2726 -0.2617
  975TIP3    H124484   0.077   5.926   1.056 -0.3285  0.4141  1.2960
  975TIP3    H224485  -0.022   5.973   0.951  0.9271 -0.7070 -0.4445
  976TIP3   OH224486   1.978   6.595   8.722  1.0249 -0.7210 -0.3912
  976TIP3    H124487   1.914   6.571   8.788 -0.2829  0.2876 -1.2394
  976TIP3    H224488   2.061   6.598   8.769 -0.1438  2.1385  1.8207
  977TIP3   OH224489   3.609   4.731   8.251 -0.8458 -0.5997  0.2651
  977TIP3    H124490   3.533   4.716   8.194 -2.0311 -1.5128  1.9897
  977TIP3    H224491   3.601   4.821   8.279 -1.1156 -0.6058  0.2078
  978TIP3   OH224492   1.815   2.224   3.063 -0.1130  0.0794 -0.6347
  978TIP3    H124493   1.744   2.211   3.126 -0.2179  0.8806 -0.5715
  978TIP3    H224494   1.858   2.305   3.091  0.3191  0.0350 -1.1431
  979TIP3   OH224495   0.944   6.801   7.663 -0.0499  0.6000 -0.2912
  979TIP3    H124496   0.867   6.838   7.620 -0.2559  1.4612  0.7947
  979TIP3    H224497   1.004   6.782   7.591 -1.6280 -1.0205 -1.2799
  980TIP3   OH224498   3.202   0.483   1.147 -0.1576 -0.5331 -0.3820
  980TIP3    H124499   3.184   0.410   1.088 -1.3824 -2.2528  1.9607
  980TIP3    H224500   3.168   0.454   1.232  1.2080  1.9435  1.1177
  981TIP3   OH224501   3.786   0.518   8.642  0.0103 -0.0096 -0.4041
  981TIP3    H124502   3.783   0.575   8.719  0.4180  2.8024 -2.3008
  981TIP3    H224503   3.879   0.508   8.623 -0.0383  2.5188 -2.5708
  982TIP3   OH224504   1.322   5.870   7.762 -0.1975 -0.2427  0.4958
  982TIP3    H124505   1.248   5.926   7.738 -1.4968 -2.5528 -1.3836
  982TIP3    H224506   1.286   5.810   7.827  1.0417  0.7490  2.1547
  983TIP3   OH224507   5.993   6.189   1.677 -0.4494  0.5209 -0.4117
  983TIP3    H124508   5.969   6.202   1.585 -2.9269  0.0041  0.0903
  983TIP3    H224509   5.983   6.095   1.690 -0.0978  0.5931  0.4155
  984TIP3   OH224510   5.458   2.283   0.870  0.1577  0.4215  0.6326
  984TIP3    H124511   5.508   2.205   0.846  3.4279  2.5009  0.1342
  984TIP3    H224512   5.476   2.295   0.964  0.4677  1.1037  0.4881
  985TIP3   OH224513   4.182   4.601   2.590 -0.4718  0.2325  0.1570
  985TIP3    H124514   4.165   4.543   2.665  3.2211 -0.5480  0.5503
  985TIP3    H224515   4.197   4.542   2.517  0.6135  0.7677 -0.0721
  986TIP3   OH224516   3.626   0.219   8.478  0.1755  0.0756 -0.6006
  986TIP3    H124517   3.568   0.146   8.501  1.2544 -0.6478 -0.0922
  986TIP3    H224518   3.601   0.242   8.388 -0.3146 -0.7888 -0.6947
  987TIP3   OH224519   3.909   0.501   7.317  0.2206  0.0236 -0.0175
  987TIP3    H124520   3.854   0.521   7.393  1.1088  1.8469  0.1970
  987TIP3    H224521   3.993   0.476   7.356  0.8560  1.5273 -0.3751
  988TIP3   OH224522   1.362   2.136   0.725 -0.0470 -0.0442  0.1280
  988TIP3    H124523   1.305   2.211   0.711  0.0087  0.3290  1.7226
  988TIP3    H224524   1.339   2.075   0.655 -0.7425  1.0514 -0.6414
  989TIP3   OH224525   2.784   1.355   2.788 -0.1957  0.2616 -0.1042
  989TIP3    H124526   2.727   1.325   2.716 -0.7941  0.7932  0.1354
  989TIP3    H224527   2.855   1.292   2.789 -1.2755 -1.0076  0.1988
  990TIP3   OH224528   3.602   0.673   2.889 -0.0111  0.7326 -0.3185
  990TIP3    H124529   3.531   0.632   2.938  0.0982 -0.0500 -0.8062
  990TIP3    H224530   3.629   0.607   2.826  2.2177  0.3813  0.8974
  991TIP3   OH224531   3.119   0.273   2.409 -0.4781  0.0230  0.3281
  991TIP3    H124532   3.098   0.277   2.502 -1.0924 -0.9267  0.2411
  991TIP3    H224533   3.169   0.192   2.399  2.0638  1.4660  0.2729
  992TIP3   OH224534   0.891   5.308   8.070  0.1591  0.5482  0.5185
  992TIP3    H124535   0.798   5.311   8.047 -0.0272  1.3631  1.3208
  992TIP3    H224536   0.906   5.388   8.120  0.7279 -0.7194  2.4891
  993TIP3   OH224537   5.208   3.330   3.148 -0.2173  0.4623  0.0455
  993TIP3    H124538   5.293   3.374   3.147 -0.7485  1.5678  1.2534
  993TIP3    H224539   5.184   3.323   3.055  1.2936 -0.1472 -0.3468
  994TIP3   OH224540   1.526   2.159   1.347 -0.6450 -0.4327  0.0076
  994TIP3    H124541   1.573   2.091   1.396 -0.6878  0.0598  0.7590
  994TIP3    H224542   1.550   2.144   1.256  1.1625 -0.0570  0.3849
  995TIP3   OH224543   0.496   4.800   3.073  0.1411  0.4096 -0.1441
  995TIP3    H124544   0.488   4.710   3.105 -0.0466  0.0986 -1.0472
  995TIP3    H224545   0.408   4.836   3.082  0.4240  0.8231  1.1209
  996TIP3   OH224546   2.376   6.082   1.023  0.4715  0.1008  0.2409
  996TIP3    H124547   2.409   6.112   1.108 -0.1955 -0.8417  0.8482
  996TIP3    H224548   2.282   6.098   1.027  0.4921  0.4359 -0.4925
  997TIP3   OH224549   5.677   4.104   0.379 -0.2907 -0.3609 -0.4221
  997TIP3    H124550   5.635   4.026   0.416 -0.9289  0.1166 -0.1237
  997TIP3    H224551   5.767   4.077   0.364  0.1764 -0.4308  2.0129
  998TIP3   OH224552   2.798   3.293   6.875 -0.2681  0.7006 -0.0840
  998TIP3    H124553   2.825   3.384   6.874 -1.0820  0.9682 -1.9358
  998TIP3    H224554   2.746   3.282   6.795 -0.3568 -1.3332  0.1851
  999TIP3   OH224555   5.035   4.186   7.214  0.0568 -0.2095  0.3223
  999TIP3    H124556   5.028   4.260   7.275  0.2828 -0.2824  0.4403
  999TIP3    H224557   5.122   4.197   7.175 -0.4034  0.2941 -0.5870
 1000TIP3   OH224558   2.881   5.480   8.647 -0.4332 -0.4462 -0.2908
 1000TIP3    H124559   2.826   5.558   8.646  0.0021  0.0315  2.9053
 1000TIP3    H224560   2.865   5.440   8.732  1.5859 -2.2003 -0.6517
 1001TIP3   OH224561   3.682   5.525   8.253 -0.3830  0.6756 -1.0899
 1001TIP3    H124562   3.666   5.619   8.247  0.6391  1.0026  0.6123
 1001TIP3    H224563   3.737   5.515   8.330 -1.5396 -1.4742 -0.4627
 1002TIP3   OH224564   4.484   4.611   1.994 -0.2622 -0.6829  0.8007
 1002TIP3    H124565   4.496   4.675   2.064  1.9822  0.0775 -0.1826
 1002TIP3    H224566   4.567   4.611   1.947 -0.6134 -3.4364 -0.0077
 1003TIP3   OH224567   2.891   0.095   1.406  0.4986  0.1437  0.0547
 1003TIP3    H124568   2.816   0.085   1.465  2.0536  1.2800  2.4014
 1003TIP3    H224569   2.941   0.014   1.419 -0.2042 -0.5573 -1.4111
 1004TIP3   OH224570   2.999   0.110   0.951  0.1244  0.1403 -0.3323
 1004TIP3    H124571   2.924   0.076   0.902 -0.7210  0.1446  0.8929
 1004TIP3    H224572   2.980   0.086   1.042  1.3849  0.5764  0.0667
 1005TIP3   OH224573   5.203   1.509   7.183 -0.2314 -0.3406  0.2350
 1005TIP3    H124574   5.188   1.603   7.195 -0.8835 -0.4360  0.2058
 1005TIP3    H224575   5.173   1.491   7.094  2.3916 -0.0828 -0.7899
 1006TIP3   OH224576   6.387   5.853   3.146 -0.3512  0.0073  0.0221
 1006TIP3    H124577   6.440   5.915   3.097  0.4778  0.7996  1.8290
 1006TIP3    H224578   6.369   5.782   3.084  1.3153  0.5687 -1.1695
 1007TIP3   OH224579   3.907   6.471   2.142  0.8623 -0.1234  0.2530
 1007TIP3    H124580   3.901   6.545   2.082 -0.2582  0.1400  0.6611
 1007TIP3    H224581   3.891   6.394   2.086  0.4907  0.0654  0.0949
 1008TIP3   OH224582   4.721   0.065   0.977 -0.6760 -0.3025 -0.1020
 1008TIP3    H124583   4.747   0.042   1.067 -0.0157  1.4752  0.2040
 1008TIP3    H224584   4.784   0.018   0.922  0.3336  0.3297  0.4695
 1009TIP3   OH224585   3.600   3.216   7.766 -0.5078 -0.1645  0.6255
 1009TIP3    H124586   3.612   3.181   7.678 -0.8278  1.7177 -0.2168
 1009TIP3    H224587   3.523   3.170   7.800 -0.5384 -0.7210 -0.1738
 1010TIP3   OH224588   0.106   2.220   1.648  0.4060 -0.6578 -0.1438
 1010TIP3    H124589   0.012   2.238   1.653  0.5291  0.1355 -0.4114
 1010TIP3    H224590   0.131   2.194   1.736  0.3740  1.4779  0.5541
 1011TIP3   OH224591   4.892   5.452   1.467 -0.3617 -0.0487  0.1969
 1011TIP3    H124592   4.924   5.450   1.376  0.3195 -0.2230  0.4385
 1011TIP3    H224593   4.945   5.519   1.510 -1.3143  0.7011  0.2433
 1012TIP3   OH224594   5.649   1.981   7.224  0.0257 -0.2501 -0.7954
 1012TIP3    H124595   5.565   1.979   7.177 -0.2800 -0.5324 -0.2529
 1012TIP3    H224596   5.626   2.014   7.311  0.4742 -0.3805 -0.6273
 1013TIP3   OH224597   1.355   1.823   0.580  0.1937 -0.0586  0.2406
 1013TIP3    H124598   1.279   1.821   0.638 -0.4621 -0.3713 -0.6069
 1013TIP3    H224599   1.352   1.739   0.535  0.9983 -0.0335  0.1361
 1014TIP3   OH224600   1.371   4.046   0.992  0.0748  0.3505  0.4651
 1014TIP3    H124601   1.279   4.052   1.016  0.0861 -0.0124  0.5972
 1014TIP3    H224602   1.378   3.965   0.941  0.0856  1.0040 -0.6104
 1015TIP3   OH224603   0.272   5.485   7.904  0.1611 -0.4384  0.1962
 1015TIP3    H124604   0.262   5.448   7.992  0.3809  0.2917  0.5378
 1015TIP3    H224605   0.246   5.577   7.913  2.8026  0.3906  0.1540
 1016TIP3   OH224606   6.429   6.823   2.533 -0.0787  0.2483 -0.7170
 1016TIP3    H124607   6.363   6.847   2.599  0.4025  0.1739 -0.2035
 1016TIP3    H224608   6.383   6.832   2.450 -0.3127  1.6504 -0.4683
 1017TIP3   OH224609   1.570   2.686   7.603  0.8002  0.4623 -0.1892
 1017TIP3    H124610   1.494   2.651   7.556  0.6142 -0.0868  0.5083
 1017TIP3    H224611   1.536   2.710   7.689  1.7864 -1.6885  0.8836
 1018TIP3   OH224612   3.161   0.533   0.641 -0.4239 -0.3821  0.2808
 1018TIP3    H124613   3.077   0.500   0.612 -0.7875  0.5482  0.2340
 1018TIP3    H224614   3.181   0.605   0.580  0.6924 -0.9803 -0.0893
 1019TIP3   OH224615   4.288   3.822   7.628 -0.2350 -0.0535 -0.7361
 1019TIP3    H124616   4.239   3.882   7.571 -1.8169 -0.5157  0.0855
 1019TIP3    H224617   4.333   3.879   7.690 -0.2313  0.3605 -1.1177
 1020TIP3   OH224618   0.905   1.984   1.718  0.2563 -0.1750  0.1099
 1020TIP3    H124619   0.927   2.076   1.734 -0.0472  0.2416 -1.5962
 1020TIP3    H224620   0.873   1.952   1.802  0.2060  1.3310  0.7053
 1021TIP3   OH224621   0.389   4.849   1.771 -0.3963 -0.0671 -0.1970
 1021TIP3    H124622   0.460   4.811   1.719 -0.1088  0.4199 -0.1586
 1021TIP3    H224623   0.417   4.838   1.862 -1.1758 -1.4847 -0.0820
 1022TIP3   OH224624   0.195   2.839   8.016  0.0233  0.5717  0.3269
 1022TIP3    H124625   0.175   2.747   8.000  4.5187 -0.2781 -2.0412
 1022TIP3    H224626   0.261   2.838   8.084  1.8502  1.7196 -1.3261
 1023TIP3   OH224627   1.824   0.335   1.939  0.6078 -0.6214 -0.4728
 1023TIP3    H124628   1.750   0.280   1.913 -0.4517 -0.1592  1.3291
 1023TIP3    H224629   1.860   0.292   2.017 -1.3424  1.9236  2.0872
 1024TIP3   OH224630   4.634   5.398   0.975  0.3524  0.1348 -0.0027
 1024TIP3    H124631   4.561   5.423   0.917 -0.0649 -1.0027  0.0197
 1024TIP3    H224632   4.625   5.457   1.050 -0.7317 -0.1848  0.1435
 1025TIP3   OH224633   4.788   4.729   7.317  0.1581  0.2879  0.4191
 1025TIP3    H124634   4.878   4.713   7.343  0.2500 -0.4439 -0.2990
 1025TIP3    H224635   4.750   4.642   7.304 -0.3637  0.5975 -0.2180
 1026TIP3   OH224636   5.500   3.812   0.153  0.0315 -0.1892  0.2886
 1026TIP3    H124637   5.438   3.752   0.195  0.6353 -1.4115 -0.4916
 1026TIP3    H224638   5.586   3.772   0.170  0.2445 -1.5336 -3.1701
 1027TIP3   OH224639   4.433   2.930   8.060  0.2760 -0.7536 -0.2791
 1027TIP3    H124640   4.409   2.958   8.149 -0.4229 -0.9807 -0.3944
 1027TIP3    H224641   4.483   3.004   8.025 -0.3763 -0.2117 -0.0852
 1028TIP3   OH224642   4.232   4.058   6.488  0.2417  0.0340  0.5841
 1028TIP3    H124643   4.202   4.079   6.576  1.7753  1.7121  0.7624
 1028TIP3    H224644   4.282   3.977   6.498  1.6340  0.9653  1.5774
 1029TIP3   OH224645   1.754   6.236   1.942 -0.2478 -0.5735  1.0780
 1029TIP3    H124646   1.804   6.278   1.872  0.6468 -1.7978  0.9567
 1029TIP3    H224647   1.758   6.298   2.015 -0.2774  0.2343  0.4045
 1030TIP3   OH224648   2.478   1.063   0.641 -0.0894  0.3717 -0.2387
 1030TIP3    H124649   2.562   1.036   0.680  0.9513  2.6207 -0.7253
 1030TIP3    H224650   2.412   1.033   0.703  1.0859 -1.2707  0.2765
 1031TIP3   OH224651   3.418   2.470   2.200 -0.3181 -0.0236  0.4893
 1031TIP3    H124652   3.366   2.524   2.260  0.1706 -0.3788  1.2534
 1031TIP3    H224653   3.355   2.412   2.159 -0.6198  0.0186  0.8907
 1032TIP3   OH224654   0.094   4.967   2.723  0.2199  0.4427 -0.0579
 1032TIP3    H124655   0.143   4.981   2.643  1.9203  3.0664  1.3141
 1032TIP3    H224656   0.049   5.049   2.739  0.5209  0.2550  2.0447
 1033TIP3   OH224657   0.001   2.572   0.783 -0.5065  0.5920 -0.3514
 1033TIP3    H124658  -0.001   2.540   0.693  0.1765  0.6800 -0.4053
 1033TIP3    H224659   0.067   2.641   0.783 -2.2486  2.3186 -0.3225
 1034TIP3   OH224660   4.949   4.784   1.012 -0.1248  0.7581 -0.0625
 1034TIP3    H124661   4.856   4.800   0.996  0.0951  0.4670 -1.7968
 1034TIP3    H224662   4.957   4.689   1.016 -0.0252  0.8009  1.0035
 1035TIP3   OH224663   3.608   3.530   8.329  0.1072  0.1042  0.2058
 1035TIP3    H124664   3.686   3.575   8.361  2.0761 -1.4841 -2.0397
 1035TIP3    H224665   3.603   3.450   8.381  0.6287 -0.2830 -0.3192
 1036TIP3   OH224666   2.089   2.070   2.886  0.4307 -0.4446 -0.4061
 1036TIP3    H124667   2.171   2.052   2.933 -0.3085 -0.8807  0.7680
 1036TIP3    H224668   2.048   2.140   2.937 -0.0659 -0.4383 -0.8148
 1037TIP3   OH224669   4.845   6.345   2.597  0.1002  0.2521 -0.3298
 1037TIP3    H124670   4.821   6.314   2.684 -1.3743 -0.1993 -0.8495
 1037TIP3    H224671   4.821   6.273   2.539  0.3563  0.8294 -1.1737
 1038TIP3   OH224672   1.851   4.285   2.342 -0.2452 -0.3622  0.2617
 1038TIP3    H124673   1.946   4.274   2.350 -0.2021 -0.2549 -0.0962
 1038TIP3    H224674   1.827   4.337   2.419  0.0169 -0.2189  0.2503
 1039TIP3   OH224675   1.406   5.283   1.484  0.3428  0.1603 -0.1858
 1039TIP3    H124676   1.439   5.281   1.394  0.6223  2.0172 -0.1658
 1039TIP3    H224677   1.480   5.252   1.537  0.2823 -0.6419 -0.5610
 1040TIP3   OH224678   6.689   1.734   8.635  0.0748 -0.2657 -0.6415
 1040TIP3    H124679   6.712   1.644   8.610 -0.2724 -0.5968  0.1867
 1040TIP3    H224680   6.613   1.725   8.691  0.5284  0.4791  0.1280
 1041TIP3   OH224681   2.163   3.649   6.952 -0.0755 -0.4525 -0.4479
 1041TIP3    H124682   2.076   3.638   6.914 -0.6086  3.3390 -0.6928
 1041TIP3    H224683   2.222   3.610   6.887 -1.3533  0.5319 -2.2787
 1042TIP3   OH224684   3.936   1.275   1.377 -0.0756  0.2984  0.3406
 1042TIP3    H124685   3.888   1.208   1.329 -0.5394  0.3498  0.7159
 1042TIP3    H224686   3.882   1.354   1.369  0.5045  0.6515 -0.1638
 1043TIP3   OH224687   6.735   6.189   1.670  0.4104 -0.5116  0.4559
 1043TIP3    H124688   6.742   6.274   1.714  0.5858 -0.3385  0.0990
 1043TIP3    H224689   6.642   6.165   1.679  0.7421 -1.2620  2.3433
 1044TIP3   OH224690   6.470   2.015   0.049  0.0004  0.3509 -0.0264
 1044TIP3    H124691   6.460   1.927   0.085  0.0724  0.7256  0.9521
 1044TIP3    H224692   6.398   2.023  -0.014 -1.4967  0.4031  1.5913
 1045TIP3   OH224693   2.538   0.620   8.234  0.0312  0.4558  0.1872
 1045TIP3    H124694   2.580   0.675   8.301  1.1887  0.4717 -0.5227
 1045TIP3    H224695   2.535   0.675   8.156 -0.3414  0.0790 -0.0659
 1046TIP3   OH224696   3.597   5.147   2.005 -0.7926 -0.2334 -0.1587
 1046TIP3    H124697   3.691   5.153   1.985 -0.9574  1.3477 -0.5948
 1046TIP3    H224698   3.554   5.188   1.930 -1.7935 -0.3150  0.3573
 1047TIP3   OH224699   4.849   4.700   8.256 -0.1170 -0.4158 -0.6000
 1047TIP3    H124700   4.936   4.663   8.272 -0.9644 -1.9884  0.7013
 1047TIP3    H224701   4.789   4.635   8.291 -1.7549  1.8668  1.0920
 1048TIP3   OH224702   1.769   1.160   1.922 -0.1667  0.0417 -0.6189
 1048TIP3    H124703   1.778   1.162   2.018 -1.0122  0.7546 -0.5500
 1048TIP3    H224704   1.773   1.067   1.901 -0.5768 -0.1680  0.1728
 1049TIP3   OH224705   5.160   6.530   1.173 -1.0597 -0.3227  0.1043
 1049TIP3    H124706   5.156   6.449   1.121 -0.1153 -0.2831 -0.0492
 1049TIP3    H224707   5.192   6.596   1.112 -1.0133 -0.0232  0.4512
 1050TIP3   OH224708   3.258   3.384   8.334  0.2506 -0.4745 -0.0149
 1050TIP3    H124709   3.304   3.300   8.328  1.6352  0.1366  1.3147
 1050TIP3    H224710   3.215   3.381   8.419  1.0634  0.5027  0.4471
 1051TIP3   OH224711   6.057   4.348   1.068 -0.7367 -0.5677  0.0529
 1051TIP3    H124712   6.112   4.425   1.052 -0.2774 -0.3820  2.1835
 1051TIP3    H224713   5.983   4.358   1.009 -0.4252  1.2341 -0.0828
 1052TIP3   OH224714   1.359   2.659   1.258  0.6587  0.5116 -0.7701
 1052TIP3    H124715   1.398   2.598   1.320  0.4351  2.6040  1.5724
 1052TIP3    H224716   1.266   2.636   1.258  0.7683  0.0505 -0.9046
 1053TIP3   OH224717   4.036   4.022   1.065  0.1554  0.3296 -0.1513
 1053TIP3    H124718   3.998   4.102   1.102 -3.2212 -1.1259 -0.1246
 1053TIP3    H224719   3.999   3.951   1.118  0.0047 -1.4582 -2.4999
 1054TIP3   OH224720   3.554   3.894   2.330  0.2682 -0.5666  0.1354
 1054TIP3    H124721   3.558   3.861   2.240  1.3764  0.6062 -0.2767
 1054TIP3    H224722   3.639   3.936   2.343 -0.9282  1.8252  0.7242
 1055TIP3   OH224723   0.506   0.133   8.393  0.4512 -0.1767  0.5251
 1055TIP3    H124724   0.581   0.181   8.357  0.8278 -0.9542  0.2503
 1055TIP3    H224725   0.455   0.200   8.438 -0.0181  0.8368 -1.4090
 1056TIP3   OH224726   5.301   1.756   2.786 -0.0902 -0.5614  0.5639
 1056TIP3    H124727   5.239   1.731   2.855 -0.7573 -0.8550 -0.1204
 1056TIP3    H224728   5.339   1.838   2.816 -2.8189  1.1152 -0.1819
 1057TIP3   OH224729   3.598   6.352   2.815  0.4990 -0.2142 -0.1014
 1057TIP3    H124730   3.609   6.355   2.910  0.0088  0.1311 -0.0546
 1057TIP3    H224731   3.635   6.268   2.790  0.0708 -0.5847  0.4746
 1058TIP3   OH224732   2.282   1.895   0.568  0.7017  0.0243  0.2024
 1058TIP3    H124733   2.238   1.898   0.653  0.5175 -1.1499  0.1610
 1058TIP3    H224734   2.311   1.985   0.553  0.1314  0.3859  1.1862
 1059TIP3   OH224735   4.484   3.468   1.003 -0.4548 -0.3312 -0.0401
 1059TIP3    H124736   4.436   3.418   1.069 -0.0670  2.6260  2.7272
 1059TIP3    H224737   4.420   3.483   0.933 -2.8322  1.2418  2.3108
 1060TIP3   OH224738   1.175   3.322   7.653 -0.9156 -0.6539  0.0842
 1060TIP3    H124739   1.112   3.387   7.623  0.5453  0.1774 -1.3497
 1060TIP3    H224740   1.194   3.347   7.744  0.1074  1.4089 -0.6341
 1061TIP3   OH224741   6.427   6.784   7.955  0.4132 -0.2366  0.2994
 1061TIP3    H124742   6.441   6.834   7.874 -0.1287  0.5366  0.6716
 1061TIP3    H224743   6.512   6.746   7.975  1.3740  2.1900  1.0961
 1062TIP3   OH224744   3.713   1.906   1.771 -0.1487 -0.1366  0.2072
 1062TIP3    H124745   3.777   1.910   1.842  0.9603  0.9158 -0.7819
 1062TIP3    H224746   3.719   1.992   1.729 -0.0760 -1.0063 -1.7047
 1063TIP3   OH224747   6.394   1.095   0.793  0.1780 -0.5573 -0.6174
 1063TIP3    H124748   6.413   1.145   0.872 -0.5940  0.5385 -1.1084
 1063TIP3    H224749   6.347   1.018   0.825  1.3842 -1.0143  0.1429
 1064TIP3   OH224750   1.145   4.132   0.203 -0.8733 -0.1973  0.1058
 1064TIP3    H124751   1.129   4.066   0.136 -0.3532 -1.0185  0.7728
 1064TIP3    H224752   1.101   4.210   0.170 -0.5845 -0.5659 -1.2067
 1065TIP3   OH224753   6.142   5.662   6.965  0.2607  0.1029 -0.3116
 1065TIP3    H124754   6.154   5.751   6.933  0.5303 -0.0903 -0.7682
 1065TIP3    H224755   6.053   5.660   7.000  0.1061  0.4358 -0.6850
 1066TIP3   OH224756   0.465   4.531   1.679  0.0108 -0.5179  0.0564
 1066TIP3    H124757   0.394   4.509   1.740 -1.2469 -0.2848 -1.2643
 1066TIP3    H224758   0.421   4.541   1.594  1.8033 -1.6143 -1.0578
 1067TIP3   OH224759   0.707   2.321   0.776 -0.2253 -0.1998 -0.8883
 1067TIP3    H124760   0.786   2.295   0.728  0.8151  2.5390 -0.7982
 1067TIP3    H224761   0.737   2.385   0.840 -1.9885 -1.7837  1.7727
 1068TIP3   OH224762   5.068   6.432   2.212  0.2426 -0.5377  0.1891
 1068TIP3    H124763   5.089   6.516   2.170  0.6081 -0.9026 -0.3737
 1068TIP3    H224764   5.090   6.445   2.304  2.0819 -0.5891 -0.2113
 1069TIP3   OH224765   2.979   3.924   7.980 -0.4534  0.0640  0.0712
 1069TIP3    H124766   3.009   3.854   7.922  0.6013 -0.0467  0.7394
 1069TIP3    H224767   3.055   3.980   7.993 -0.8769  0.4914  0.7849
 1070TIP3   OH224768   3.790   3.881   1.942  0.4897  0.4458  0.3712
 1070TIP3    H124769   3.878   3.868   1.977  1.1683  1.3800 -0.9049
 1070TIP3    H224770   3.732   3.839   2.006  1.8258  0.1138  1.4070
 1071TIP3   OH224771   2.503   1.700   8.501 -0.1413  0.1459  0.3095
 1071TIP3    H124772   2.501   1.706   8.405 -0.5780 -2.9273  0.0072
 1071TIP3    H224773   2.596   1.694   8.523 -0.0142  1.3602  0.1613
 1072TIP3   OH224774   5.261   0.799   2.884 -0.5673 -0.4748  0.4860
 1072TIP3    H124775   5.183   0.755   2.920  0.5315 -2.5772  0.4287
 1072TIP3    H224776   5.317   0.814   2.960 -0.3262 -0.4418  0.3009
 1073TIP3   OH224777   4.115   4.375   8.180 -0.0406  0.1833 -0.6918
 1073TIP3    H124778   4.146   4.439   8.245 -0.4886 -0.9950  0.7559
 1073TIP3    H224779   4.074   4.306   8.233  0.1748 -1.1622 -2.2049
 1074TIP3   OH224780   2.725   4.274   7.715  0.4418 -0.0619 -0.0209
 1074TIP3    H124781   2.649   4.331   7.708  1.7619  1.7458 -0.2078
 1074TIP3    H224782   2.758   4.266   7.625  0.8484 -0.3258  0.1468
 1075TIP3   OH224783   0.000   1.812   2.537  0.0101 -0.2725  0.0601
 1075TIP3    H124784  -0.083   1.855   2.518  0.0587 -0.6773 -1.1503
 1075TIP3    H224785   0.060   1.841   2.468  1.1001  0.5629  1.3130
 1076TIP3   OH224786   3.196   5.954   0.356 -0.5123 -0.2257 -0.4396
 1076TIP3    H124787   3.118   5.905   0.384 -0.8971  0.3098 -0.5681
 1076TIP3    H224788   3.269   5.909   0.400 -0.8473 -0.9635 -0.6208
 1077TIP3   OH224789   4.596   2.316   0.911  0.1636 -0.4271 -0.4645
 1077TIP3    H124790   4.590   2.306   0.816 -1.0614  1.1255 -0.5974
 1077TIP3    H224791   4.650   2.394   0.924 -1.7916  0.9297 -0.0206
 1078TIP3   OH224792   3.330   3.423   1.271 -0.4599 -0.1986 -0.2482
 1078TIP3    H124793   3.412   3.457   1.237  0.9632 -1.7340  1.4771
 1078TIP3    H224794   3.263   3.481   1.233  1.5128  2.2248 -0.2961
 1079TIP3   OH224795   0.221   6.167   8.520 -0.3007  0.4512  0.0682
 1079TIP3    H124796   0.281   6.158   8.446 -0.3511 -0.1614  0.0980
 1079TIP3    H224797   0.138   6.135   8.487 -0.3341  0.2176  0.3779
 1080TIP3   OH224798   6.817   4.097   8.272 -0.0475  0.0311  0.6686
 1080TIP3    H124799   6.809   4.091   8.177  0.7833 -1.5241  0.6585
 1080TIP3    H224800   6.842   4.008   8.300  3.2790  1.1929  1.9383
 1081TIP3   OH224801   1.479   3.078   8.678  1.5477 -0.5634 -0.0785
 1081TIP3    H124802   1.449   3.076   8.769  0.7883 -1.4073 -0.3355
 1081TIP3    H224803   1.473   2.987   8.649  2.1836 -0.3684 -0.8476
 1082TIP3   OH224804   5.670   0.712   1.530  0.2683 -0.3518 -0.3939
 1082TIP3    H124805   5.604   0.741   1.467  0.8463 -0.6371 -1.1517
 1082TIP3    H224806   5.753   0.747   1.496  0.4617  0.4717  0.8357
 1083TIP3   OH224807   1.556   3.579   1.942 -0.0271 -0.1781  0.7291
 1083TIP3    H124808   1.618   3.634   1.894  0.1823 -1.8489 -1.0611
 1083TIP3    H224809   1.471   3.619   1.925 -0.1958 -1.6679 -2.6895
 1084TIP3   OH224810   2.576   4.883   8.631  0.3768 -0.1399 -0.2004
 1084TIP3    H124811   2.617   4.882   8.544  0.6447 -0.7530 -0.0762
 1084TIP3    H224812   2.590   4.794   8.664  0.1431  0.0486  0.4086
 1085TIP3   OH224813   3.413   1.265   2.728  0.7508 -0.1882  0.0974
 1085TIP3    H124814   3.485   1.324   2.706  0.8679 -0.0958  0.7229
 1085TIP3    H224815   3.434   1.232   2.815 -1.2331  1.8219  1.4438
 1086TIP3   OH224816   5.510   2.931   0.259  0.1959 -0.4782 -0.1751
 1086TIP3    H124817   5.571   2.948   0.331 -1.1001  0.0348  0.8211
 1086TIP3    H224818   5.460   2.855   0.288 -0.8261  0.1725 -0.2083
 1087TIP3   OH224819   2.579   5.786   2.201  0.0440 -0.0529 -0.1600
 1087TIP3    H124820   2.603   5.709   2.150 -1.8885 -1.7430  1.3427
 1087TIP3    H224821   2.585   5.859   2.138  0.3218 -1.6308 -2.0646
 1088TIP3   OH224822   1.276   1.109   2.073 -0.8831  0.5495  0.5301
 1088TIP3    H124823   1.246   1.093   2.163 -1.0218  0.1096  0.4079
 1088TIP3    H224824   1.361   1.151   2.084 -1.0229  0.7538  0.8705
 1089TIP3   OH224825   5.481   6.608   1.416 -0.3828 -0.2916  0.2495
 1089TIP3    H124826   5.452   6.653   1.337 -2.2802 -0.4974  0.7626
 1089TIP3    H224827   5.503   6.678   1.477  0.9398 -0.1313 -0.3773
 1090TIP3   OH224828   1.233   4.626   7.078 -0.3049 -0.5339 -0.5487
 1090TIP3    H124829   1.202   4.644   6.990 -0.9556 -1.7230 -0.5905
 1090TIP3    H224830   1.161   4.579   7.120 -0.3489  0.7276  0.9034
 1091TIP3   OH224831   6.581   0.643   1.571 -0.6842 -0.0108  0.4876
 1091TIP3    H124832   6.511   0.599   1.523 -0.1530  0.4988 -0.8019
 1091TIP3    H224833   6.562   0.736   1.562  0.6765  0.1845 -0.7663
 1092TIP3   OH224834   4.174   5.696   2.299 -0.0793 -0.0407 -0.2001
 1092TIP3    H124835   4.144   5.755   2.369  0.1626 -0.1262 -0.0242
 1092TIP3    H224836   4.243   5.644   2.340  0.8738  0.6966 -0.8232
 1093TIP3   OH224837   0.600   3.116   8.547 -0.2752  0.1635  0.2580
 1093TIP3    H124838   0.550   3.134   8.627 -1.0591  0.3587 -0.2608
 1093TIP3    H224839   0.658   3.045   8.570 -1.3176 -0.5750  0.6859
 1094TIP3   OH224840   2.100   2.511   2.052 -0.2822  0.3976  0.2826
 1094TIP3    H124841   2.083   2.437   1.995  1.7559 -0.3209  0.5073
 1094TIP3    H224842   2.036   2.504   2.122  0.1994 -1.4842  0.5712
 1095TIP3   OH224843   6.118   5.938   6.916 -0.5618 -0.5827 -0.2730
 1095TIP3    H124844   6.151   5.977   6.835  0.9729 -1.5487 -0.1604
 1095TIP3    H224845   6.166   5.983   6.985 -1.3884 -0.2205  0.0793
 1096TIP3   OH224846   4.122   1.667   0.442 -0.1305  0.4970 -0.2901
 1096TIP3    H124847   4.069   1.709   0.511 -0.5672  2.5483 -1.7776
 1096TIP3    H224848   4.059   1.624   0.385  0.1164 -0.0164 -0.1848
 1097TIP3   OH224849   3.283   2.632   0.991  0.2640 -0.0494  0.9446
 1097TIP3    H124850   3.378   2.635   1.000  0.2409  0.2580  1.1155
 1097TIP3    H224851   3.253   2.714   1.031 -0.1568 -0.6561  1.8939
 1098TIP3   OH224852   1.724   5.002   0.770 -0.0161 -0.0066 -0.8962
 1098TIP3    H124853   1.805   5.006   0.719  0.3260 -1.2241 -0.4959
 1098TIP3    H224854   1.748   4.953   0.848 -0.6725  1.3659  0.1914
 1099TIP3   OH224855   0.939   0.558   0.811  0.6195  0.2735  0.6954
 1099TIP3    H124856   0.935   0.649   0.782  1.0289  0.6470  1.7903
 1099TIP3    H224857   0.850   0.525   0.799  1.0299 -0.0343 -2.3203
 1100TIP3   OH224858   5.057   5.637   1.618 -0.3860  0.0648  0.0368
 1100TIP3    H124859   5.021   5.691   1.548 -0.6052  2.0869  1.6046
 1100TIP3    H224860   5.151   5.654   1.616 -0.3265 -0.2809 -0.0976
 1101TIP3   OH224861   5.246   5.285   0.290 -0.0234 -0.1950 -0.0221
 1101TIP3    H124862   5.233   5.304   0.197 -0.4173  1.1169  0.2826
 1101TIP3    H224863   5.324   5.230   0.292 -0.6201 -1.1411 -1.2047
 1102TIP3   OH224864   4.922   6.559   1.907 -0.1590  0.4554 -0.3535
 1102TIP3    H124865   4.950   6.468   1.901 -0.5814  0.3382 -0.6215
 1102TIP3    H224866   4.923   6.579   2.000 -2.6487 -0.6752 -0.0077
 1103TIP3   OH224867   5.145   1.398   1.046 -0.2964  0.4629  0.1246
 1103TIP3    H124868   5.134   1.490   1.069  1.3441  0.3381  1.6126
 1103TIP3    H224869   5.136   1.396   0.950 -3.7655  1.5855  0.2793
 1104TIP3   OH224870   6.618   2.012   0.558 -0.4836  0.0236 -1.1134
 1104TIP3    H124871   6.547   2.054   0.607 -1.5019 -0.0324 -2.4998
 1104TIP3    H224872   6.595   1.920   0.556 -0.2274 -0.0366 -1.3351
 1105TIP3   OH224873   6.114   5.668   0.527 -0.1748 -0.2423 -0.1703
 1105TIP3    H124874   6.062   5.588   0.520 -0.1220 -0.4496  1.3875
 1105TIP3    H224875   6.130   5.695   0.437 -1.2715 -1.2870 -0.6986
 1106TIP3   OH224876   0.258   3.962   1.371 -0.6387 -0.0548 -0.0216
 1106TIP3    H124877   0.266   4.050   1.409  0.8153  0.7111 -1.8926
 1106TIP3    H224878   0.220   3.977   1.285  0.7220 -1.0795 -0.8576
 1107TIP3   OH224879   3.120   5.900   1.164 -0.3829 -0.5807 -0.0144
 1107TIP3    H124880   3.114   5.823   1.220  0.1067  0.9949  2.3459
 1107TIP3    H224881   3.173   5.962   1.214 -1.4021  1.5982 -1.4820
 1108TIP3   OH224882   6.114   6.436   0.802  0.4873 -0.5620 -0.6513
 1108TIP3    H124883   6.096   6.343   0.789 -0.3901 -0.2466 -1.9398
 1108TIP3    H224884   6.190   6.453   0.747  0.5483 -0.4945 -0.5443
 1109TIP3   OH224885   1.777   2.095   0.858  0.7536  0.2774 -0.2970
 1109TIP3    H124886   1.771   2.108   0.764  1.5070 -1.5762 -0.6489
 1109TIP3    H224887   1.756   2.002   0.871 -0.5112  0.7457  1.4976
 1110TIP3   OH224888   0.503   2.798   1.250 -0.2329  0.6468  0.1300
 1110TIP3    H124889   0.514   2.892   1.233  2.1955  0.2511 -0.7532
 1110TIP3    H224890   0.461   2.765   1.171  0.1377  0.7575 -0.1125
 1111TIP3   OH224891   3.101   2.795   2.592  0.3796 -0.4458 -0.3959
 1111TIP3    H124892   3.073   2.710   2.624 -0.8617  0.6611  1.7281
 1111TIP3    H224893   3.102   2.786   2.496 -3.2016 -1.8769 -0.4525
 1112TIP3   OH224894   3.948   1.561   8.282 -0.0039 -0.4827  0.3444
 1112TIP3    H124895   3.972   1.615   8.357  1.7264  0.8084 -1.0432
 1112TIP3    H224896   4.017   1.494   8.279  1.2941  0.8311 -1.3256
 1113TIP3   OH224897   2.194   0.995   0.789  0.3924 -0.4152 -0.1963
 1113TIP3    H124898   2.204   0.902   0.813  0.1100 -0.0425  1.5561
 1113TIP3    H224899   2.102   1.003   0.763 -0.0107 -0.3503  1.1702
 1114TIP3   OH224900   1.593   1.045   8.748 -1.0417  0.6216 -0.6160
 1114TIP3    H124901   1.598   1.040   8.843 -1.4376 -0.4748 -0.6360
 1114TIP3    H224902   1.685   1.053   8.720 -0.8226 -0.2029 -0.1786
 1115TIP3   OH224903   4.632   6.427   0.965 -0.0070 -0.4189  0.3774
 1115TIP3    H124904   4.563   6.407   0.902 -0.0619  0.9818 -0.0446
 1115TIP3    H224905   4.713   6.403   0.921 -0.1497 -1.0544  0.4525
 1116TIP3   OH224906   5.663   6.363   1.390  0.2329 -0.3971 -0.3082
 1116TIP3    H124907   5.569   6.378   1.404  0.5825  0.0801  1.8383
 1116TIP3    H224908   5.677   6.383   1.297 -1.3528  1.8628 -0.1321
 1117TIP3   OH224909   2.545   4.690   2.975  0.6325 -0.9041  0.0310
 1117TIP3    H124910   2.601   4.718   2.902 -2.1109  1.7988 -1.2308
 1117TIP3    H224911   2.581   4.735   3.051  1.8771 -1.5649 -0.1326
 1118TIP3   OH224912   4.279   6.262   1.973  0.0500  0.8472  0.1551
 1118TIP3    H124913   4.210   6.262   1.908 -1.3655  0.2881  1.5927
 1118TIP3    H224914   4.277   6.350   2.012  0.8574  1.1643 -0.4894
 1119TIP3   OH224915   1.232   1.479   0.950  0.3533  0.4946 -0.2496
 1119TIP3    H124916   1.310   1.497   0.898  0.5849  1.5438  0.4273
 1119TIP3    H224917   1.245   1.530   1.030 -1.4346  1.4189 -0.4987
 1120TIP3   OH224918   6.357   4.966   0.165 -0.2538  0.1182  0.7067
 1120TIP3    H124919   6.287   5.010   0.118  0.5133 -2.3677 -3.2204
 1120TIP3    H224920   6.431   5.027   0.160 -1.0023  1.1375  1.5029
 1121TIP3   OH224921   1.214   2.741   8.024 -0.3306 -0.6237 -0.2182
 1121TIP3    H124922   1.132   2.790   8.019 -1.2336 -2.0878 -0.8196
 1121TIP3    H224923   1.217   2.693   7.941  1.6965  0.2002 -0.6764
 1122TIP3   OH224924   1.359   4.601   0.946 -0.3078  0.1830  0.6546
 1122TIP3    H124925   1.399   4.661   1.009 -0.7310  0.1551  0.9547
 1122TIP3    H224926   1.359   4.649   0.863  1.8949 -0.4348  0.2286
 1123TIP3   OH224927   5.680   1.523   8.428 -0.1891 -0.3652  0.0645
 1123TIP3    H124928   5.705   1.606   8.469  1.2687 -0.1970 -1.0779
 1123TIP3    H224929   5.589   1.535   8.402  0.0674  0.9765 -0.2829
 1124TIP3   OH224930   1.623   3.022   0.524  0.4224 -0.5364 -0.2628
 1124TIP3    H124931   1.539   2.986   0.553 -0.0525 -0.2175 -1.1912
 1124TIP3    H224932   1.623   3.008   0.429  0.2703  1.7464 -0.6570
 1125TIP3   OH224933   5.244   0.995   8.003 -0.2866  0.2188 -0.7304
 1125TIP3    H124934   5.234   0.963   8.093 -0.4879  1.7922 -0.1582
 1125TIP3    H224935   5.264   0.917   7.951  0.4488 -0.6282  0.7749
 1126TIP3   OH224936   6.435   1.558   1.582 -0.4311  0.3413 -0.2780
 1126TIP3    H124937   6.357   1.508   1.604 -1.2708  1.5412 -0.3883
 1126TIP3    H224938   6.405   1.620   1.515  0.7178  0.5570 -0.6154
 1127TIP3   OH224939   6.243   4.908   1.115 -0.1930 -0.8717 -0.2794
 1127TIP3    H124940   6.265   4.958   1.036  0.2547 -1.4024 -0.4943
 1127TIP3    H224941   6.230   4.975   1.182 -0.0510 -0.4423 -0.6734
 1128TIP3   OH224942   1.480   6.313   0.780  0.1129  0.5853  0.3843
 1128TIP3    H124943   1.525   6.236   0.747 -0.2545  0.8010 -0.6619
 1128TIP3    H224944   1.550   6.375   0.801  0.3686  0.3242  0.2984
 1129TIP3   OH224945   6.021   6.168   2.091 -0.7360  0.1054  0.2919
 1129TIP3    H124946   5.973   6.090   2.062 -0.3423  0.2492 -0.7746
 1129TIP3    H224947   6.055   6.206   2.010 -0.6933  1.2320  0.8346
 1130TIP3   OH224948   1.472   4.884   2.970  0.2550  1.1195  0.0271
 1130TIP3    H124949   1.527   4.959   2.946 -0.3810  1.2849 -1.0009
 1130TIP3    H224950   1.384   4.909   2.942  0.1220 -0.2103 -0.8307
 1131TIP3   OH224951   0.236   0.557   8.573  0.1091  0.0996 -0.0307
 1131TIP3    H124952   0.221   0.639   8.525  1.7264  0.3760 -0.1420
 1131TIP3    H224953   0.176   0.562   8.648 -0.2463  1.1120 -0.3582
 1132TIP3   OH224954   5.857   2.270   1.645  0.2841  0.0278  0.3382
 1132TIP3    H124955   5.888   2.211   1.713  2.2800  0.5059 -0.0830
 1132TIP3    H224956   5.801   2.333   1.690 -1.1590 -1.6315  0.9273
 1133TIP3   OH224957   0.041   6.582   0.923 -0.2943  0.4352  0.4432
 1133TIP3    H124958  -0.048   6.551   0.907 -0.5171  0.8168  0.8849
 1133TIP3    H224959   0.029   6.657   0.983  0.2927  0.7255  0.2030
 1134TIP3   OH224960   6.460   3.215   0.265  0.4736  0.1243 -0.0215
 1134TIP3    H124961   6.466   3.121   0.278 -0.1732  0.0201 -0.4353
 1134TIP3    H224962   6.493   3.230   0.177 -0.8442  0.0957 -0.5362
 1135TIP3   OH224963   6.380   0.089   7.410  0.3443 -0.0540 -0.3342
 1135TIP3    H124964   6.459   0.099   7.462  0.1419  0.3482 -0.0929
 1135TIP3    H224965   6.410   0.084   7.319  0.5849  1.2500 -0.3490
 1136TIP3   OH224966   2.861   2.663   2.281  0.0767 -0.2458  0.3412
 1136TIP3    H124967   2.844   2.655   2.187  0.7207 -2.4931  0.3458
 1136TIP3    H224968   2.947   2.703   2.287  1.0835 -2.1911 -0.1673
 1137TIP3   OH224969   4.626   1.759   7.406  0.1287 -0.4046 -0.1889
 1137TIP3    H124970   4.644   1.724   7.319  1.2121 -0.8116  0.1773
 1137TIP3    H224971   4.685   1.833   7.416  2.5392 -2.3779  1.4235
 1138TIP3   OH224972   6.113   4.923   3.126 -0.5381  0.0934  0.0850
 1138TIP3    H124973   6.109   5.001   3.072 -0.4726 -0.2755 -0.4627
 1138TIP3    H224974   6.206   4.900   3.129 -0.2577  1.2927  2.0920
 1139TIP3   OH224975   1.993   6.136   8.734  0.0829  0.2838  0.1282
 1139TIP3    H124976   1.963   6.174   8.816  1.2670 -1.0077  1.2079
 1139TIP3    H224977   2.078   6.176   8.718  0.2931 -0.1895  0.0433
 1140TIP3   OH224978   4.610   1.016   0.514 -0.3071  0.0588  0.1547
 1140TIP3    H124979   4.594   1.059   0.430  1.2277  1.7792  0.6741
 1140TIP3    H224980   4.706   1.007   0.518 -0.4692 -1.5153  1.0102
 1141TIP3   OH224981   2.591   4.634   2.355  0.0450 -0.4988 -0.5405
 1141TIP3    H124982   2.539   4.711   2.377  0.2227 -0.7166  0.7378
 1141TIP3    H224983   2.673   4.645   2.405  0.2019 -1.3389 -0.6005
 1142TIP3   OH224984   4.509   4.772   0.107 -0.0615  1.0353 -0.5407
 1142TIP3    H124985   4.519   4.714   0.182  1.2004  1.6145 -0.2272
 1142TIP3    H224986   4.423   4.813   0.119  0.7825  2.3690  1.5169
 1143TIP3   OH224987   6.481   0.107   2.843  0.0305  0.5262  0.4313
 1143TIP3    H124988   6.514   0.052   2.915 -2.2484 -0.8014  0.5632
 1143TIP3    H224989   6.438   0.181   2.887 -1.8473 -0.5673  0.5426
 1144TIP3   OH224990   6.626   2.556   1.285 -0.5972  0.0942 -0.0963
 1144TIP3    H124991   6.716   2.530   1.304 -0.4975  0.6378  0.1938
 1144TIP3    H224992   6.585   2.477   1.249  0.1743  0.0253 -0.8547
 1145TIP3   OH224993   1.227   2.487   0.205  0.2029 -0.1778  0.0386
 1145TIP3    H124994   1.287   2.463   0.134  0.8415  0.1698  0.4433
 1145TIP3    H224995   1.212   2.405   0.252  0.3040 -0.2836 -0.1110
 1146TIP3   OH224996   3.551   4.575   1.735  0.6834  0.7677 -0.6694
 1146TIP3    H124997   3.540   4.639   1.664 -1.4707 -0.2770 -1.3756
 1146TIP3    H224998   3.461   4.555   1.763  1.3891 -0.6086  0.7560
 1147TIP3   OH224999   4.361   5.388   7.934 -0.1772  0.1304  0.2038
 1147TIP3    H125000   4.273   5.358   7.955 -1.0606  1.6955 -1.0386
 1147TIP3    H225001   4.348   5.470   7.886  2.0023  1.0277  0.9994
 1148TIP3   OH225002   3.650   0.637   1.575 -0.6495  0.0762 -0.4301
 1148TIP3    H125003   3.568   0.590   1.564 -0.3653 -1.0876  1.8588
 1148TIP3    H225004   3.711   0.571   1.607  1.1392  0.9797 -1.7847
 1149TIP3   OH225005   4.028   3.084   0.926  0.0727 -0.5110 -0.2491
 1149TIP3    H125006   4.020   3.118   1.015  0.9970  1.1555 -0.7734
 1149TIP3    H225007   4.102   3.132   0.888 -0.2021 -1.3092 -1.8741
 1150TIP3   OH225008   0.891   0.042   1.059 -0.5439  0.0880  0.0526
 1150TIP3    H125009   0.800   0.028   1.031 -0.0305 -0.2781 -1.6004
 1150TIP3    H225010   0.925  -0.046   1.074  0.2831 -0.0075 -2.0398
 1151TIP3   OH225011   0.680   0.555   7.516  0.4751  0.4453 -0.2350
 1151TIP3    H125012   0.734   0.538   7.439 -0.9819  2.5871 -1.8548
 1151TIP3    H225013   0.735   0.611   7.571  1.4464 -0.9198  0.2311
 1152TIP3   OH225014   1.698   4.763   2.213 -0.2422  0.1906 -0.3312
 1152TIP3    H125015   1.760   4.742   2.143  0.8531 -2.4347  1.2740
 1152TIP3    H225016   1.623   4.706   2.196 -0.4933  0.4386 -0.0494
 1153TIP3   OH225017   1.032   3.844   1.955  0.1242 -0.2303  1.0425
 1153TIP3    H125018   1.035   3.884   1.868  2.7747 -0.9073  0.7444
 1153TIP3    H225019   0.944   3.808   1.962 -0.2277  0.0590 -1.2576
 1154TIP3   OH225020   5.932   1.418   0.944  0.3656  0.0736 -0.4384
 1154TIP3    H125021   6.021   1.422   0.978  0.3284  1.1704 -0.4111
 1154TIP3    H225022   5.910   1.325   0.943  0.9247 -0.0997  1.0633
 1155TIP3   OH225023   0.218   0.792   0.407  0.3091 -0.1296  0.5162
 1155TIP3    H125024   0.273   0.851   0.355  1.9599 -2.2072 -0.2470
 1155TIP3    H225025   0.154   0.849   0.448  2.2170  2.2749  0.3752
 1156TIP3   OH225026   5.098   4.979   0.403 -0.0505  0.0800  0.6018
 1156TIP3    H125027   5.150   4.933   0.337  0.2914  0.6577  0.4667
 1156TIP3    H225028   5.008   4.975   0.369  0.2444  1.1400 -0.3546
 1157TIP3   OH225029   3.329   2.828   1.458 -0.7873  0.0860  0.6237
 1157TIP3    H125030   3.288   2.891   1.399 -1.3258 -0.6806  0.1748
 1157TIP3    H225031   3.291   2.744   1.434  1.5021 -0.7710 -0.2559
 1158TIP3   OH225032   6.539   4.308   1.458 -0.1606 -0.3682 -0.1606
 1158TIP3    H125033   6.521   4.386   1.406 -0.0445 -0.7565 -0.7962
 1158TIP3    H225034   6.614   4.331   1.512 -0.6898  0.2597  0.3133
 1159TIP3   OH225035   1.134   2.900   0.968 -0.1724  0.0621  0.1832
 1159TIP3    H125036   1.226   2.882   0.949  0.0541  1.0687  0.2726
 1159TIP3    H225037   1.098   2.932   0.886  0.3618  2.6802  0.8712
 1160TIP3   OH225038   4.005   1.583   1.795 -0.4802  0.1875  0.2854
 1160TIP3    H125039   4.080   1.557   1.742 -0.2510 -1.1877  1.2367
 1160TIP3    H225040   3.930   1.539   1.755 -0.5897  0.5371  0.0961
 1161TIP3   OH225041   0.861   5.398   0.459  0.0468  1.1369  0.3683
 1161TIP3    H125042   0.884   5.323   0.514 -1.6526 -1.7223 -2.5157
 1161TIP3    H225043   0.775   5.425   0.489 -0.7609 -0.2432 -0.6358
 1162TIP3   OH225044   1.701   4.062   0.361 -0.0736  0.4613  0.2192
 1162TIP3    H125045   1.675   3.996   0.426  1.2607  0.0492  0.3786
 1162TIP3    H225046   1.778   4.024   0.319 -0.4864  1.0485 -1.1138
 1163TIP3   OH225047   1.518   1.393   1.373  0.2974  0.5631  0.0810
 1163TIP3    H125048   1.458   1.397   1.298 -0.5513  0.3653  0.7337
 1163TIP3    H225049   1.507   1.477   1.417 -1.4721 -0.4221  1.6588
 1164TIP3   OH225050   6.663   0.266   2.079 -0.0907 -0.0949 -0.5543
 1164TIP3    H125051   6.744   0.258   2.128 -0.0392  0.2159 -0.5829
 1164TIP3    H225052   6.612   0.188   2.102  0.2838 -0.3733 -0.6680
 1165TIP3   OH225053   3.711   1.351   6.953 -0.0637  0.0203 -0.3587
 1165TIP3    H125054   3.666   1.416   7.006 -2.4316 -0.7984 -1.2074
 1165TIP3    H225055   3.640   1.299   6.914  1.6587 -3.0885  0.2934
 1166TIP3   OH225056   0.638   6.509   8.639  0.4671  0.2099  0.1043
 1166TIP3    H125057   0.569   6.502   8.573  0.7112 -2.6648  0.0480
 1166TIP3    H225058   0.608   6.579   8.697 -1.5836  0.2833 -0.9379
 1167TIP3   OH225059   3.421   4.285   3.118  0.7621  0.1774 -0.2640
 1167TIP3    H125060   3.496   4.249   3.071  0.2440 -1.0253 -0.1952
 1167TIP3    H225061   3.444   4.276   3.210 -0.2518 -2.0338 -0.1769
 1168TIP3   OH225062   0.121   5.471   2.035  0.0577  0.3995  0.0846
 1168TIP3    H125063   0.124   5.550   1.981  1.4765  0.5857  0.3955
 1168TIP3    H225064   0.212   5.440   2.037 -0.5547 -1.5859 -0.5261
 1169TIP3   OH225065   6.670   4.889   2.227 -0.3647 -0.8180 -0.5685
 1169TIP3    H125066   6.664   4.853   2.316 -0.8760  1.8548  0.5952
 1169TIP3    H225067   6.756   4.862   2.197  1.0766  0.5052  1.9504
 1170TIP3   OH225068   6.705   4.390   1.666 -0.2937 -0.1616  0.2599
 1170TIP3    H125069   6.681   4.304   1.699  0.3494 -1.1511 -1.7311
 1170TIP3    H225070   6.767   4.424   1.730 -0.9631 -0.9242  1.3447
 1171TIP3   OH225071   6.080   0.514   0.509 -0.1086 -0.0648 -0.1868
 1171TIP3    H125072   6.085   0.445   0.443 -0.2601 -0.7506  0.4927
 1171TIP3    H225073   6.002   0.492   0.560 -1.0383  1.4758 -0.8822
 1172TIP3   OH225074   5.303   2.124   8.381 -0.5387 -0.2927  0.3264
 1172TIP3    H125075   5.373   2.128   8.317 -0.5893 -1.9563  0.1124
 1172TIP3    H225076   5.223   2.121   8.328 -0.7539  0.9467  0.5531
 1173TIP3   OH225077   0.334   1.722   1.930  0.0223  0.2619 -0.0869
 1173TIP3    H125078   0.342   1.745   1.837 -0.5853  2.0981  0.2724
 1173TIP3    H225079   0.328   1.626   1.931 -0.6987  0.2451 -1.9972
 1174TIP3   OH225080   2.000   0.320   1.688 -0.6067 -0.5804  0.1703
 1174TIP3    H125081   2.080   0.273   1.663  0.7924  2.0831 -0.7318
 1174TIP3    H225082   2.020   0.357   1.774  0.1076  1.9206 -0.9761
 1175TIP3   OH225083   3.590   0.472   8.037  0.4604  0.7350 -0.6607
 1175TIP3    H125084   3.516   0.443   7.984  1.2806 -0.3120 -1.2713
 1175TIP3    H225085   3.644   0.523   7.976  0.5185  1.0422 -0.3564
 1176TIP3   OH225086   4.935   2.824   7.458  0.6568  0.2022  0.7000
 1176TIP3    H125087   4.885   2.745   7.438  0.1053  0.3584  1.4205
 1176TIP3    H225088   4.994   2.835   7.383  1.0853 -1.1602  0.8117
 1177TIP3   OH225089   0.357   1.348   1.328  0.1033  0.5813 -0.5064
 1177TIP3    H125090   0.279   1.339   1.274 -0.1303  0.2995 -0.1236
 1177TIP3    H225091   0.348   1.281   1.395  0.7593  0.4399 -0.5592
 1178TIP3   OH225092   2.643   5.042   1.637  0.0119  0.2320  0.7076
 1178TIP3    H125093   2.676   4.977   1.699  0.6433 -0.2298 -0.0949
 1178TIP3    H225094   2.555   5.012   1.614 -0.1003  0.2355  1.1256
 1179TIP3   OH225095   4.613   2.566   8.691  0.3910 -0.0067 -0.1026
 1179TIP3    H125096   4.533   2.577   8.640 -1.0963 -3.4157  1.1604
 1179TIP3    H225097   4.673   2.521   8.631 -1.0996 -3.3616  0.7126
 1180TIP3   OH225098   0.774   2.208   8.747  0.0349 -0.1719 -0.3864
 1180TIP3    H125099   0.759   2.151   8.823 -1.3140  1.4011  0.5800
 1180TIP3    H225100   0.869   2.206   8.735  0.3329 -0.2002  1.5908
 1181TIP3   OH225101   4.456   2.917   0.303 -0.8915  0.3878  0.5252
 1181TIP3    H125102   4.516   2.889   0.234  1.7545  0.3047  2.6802
 1181TIP3    H225103   4.476   3.011   0.314 -2.9572  0.9700 -0.3219
 1182TIP3   OH225104   6.626   4.948   0.450 -0.0016 -0.3604  0.2388
 1182TIP3    H125105   6.588   5.023   0.405  0.3723  0.8894  1.8870
 1182TIP3    H225106   6.613   4.967   0.543  2.8706 -0.8115  0.8329
 1183TIP3   OH225107   3.360   0.308   0.524 -0.5010  0.2931 -0.3284
 1183TIP3    H125108   3.382   0.248   0.595  0.0641  1.0505  0.1479
 1183TIP3    H225109   3.300   0.371   0.564 -0.9957  0.1269 -0.7950
 1184TIP3   OH225110   6.440   5.065   2.262 -0.0991 -0.3552  0.0864
 1184TIP3    H125111   6.530   5.035   2.257 -0.5326 -1.4815 -1.6698
 1184TIP3    H225112   6.440   5.149   2.216  0.1472 -0.0661  0.6029
 1185TIP3   OH225113   3.984   6.162   8.010  0.4495  0.0464 -0.4686
 1185TIP3    H125114   3.902   6.183   8.055  0.1881 -0.1446 -0.8423
 1185TIP3    H225115   4.032   6.106   8.071 -0.1542 -0.6877 -0.6475
 1186TIP3   OH225116   1.605   5.139   2.135 -0.2449  0.1510  0.1734
 1186TIP3    H125117   1.689   5.099   2.158 -0.6823  0.3123  2.2464
 1186TIP3    H225118   1.615   5.231   2.161 -1.3539 -0.0239  1.2849
 1187TIP3   OH225119   3.366   1.936   8.396  0.3022 -0.3444 -0.2844
 1187TIP3    H125120   3.334   1.984   8.472  1.6398  0.2745 -0.0840
 1187TIP3    H225121   3.289   1.891   8.362 -0.3952 -0.3488  1.2173
 1188TIP3   OH225122   1.087   0.458   8.455  0.5516  0.0045 -0.0515
 1188TIP3    H125123   1.053   0.434   8.541 -1.2782  0.5902 -0.5671
 1188TIP3    H225124   1.097   0.375   8.409 -1.7239 -0.1512 -0.3891
 1189TIP3   OH225125   6.710   2.516   1.613 -0.1831 -0.4936 -0.4429
 1189TIP3    H125126   6.778   2.523   1.546 -0.3545  0.5497 -0.5331
 1189TIP3    H225127   6.653   2.446   1.583  1.2819 -1.9655  0.0514
 1190TIP3   OH225128   3.291   6.533   7.673 -0.4077 -0.0354 -0.0809
 1190TIP3    H125129   3.385   6.523   7.662 -0.0924  0.4939  1.6766
 1190TIP3    H225130   3.277   6.628   7.677 -0.6943 -0.1050  1.5662
 1191TIP3   OH225131   3.087   0.483   0.011  0.1957 -0.1680 -0.3885
 1191TIP3    H125132   3.011   0.537  -0.011 -0.1800 -0.6963 -0.4082
 1191TIP3    H225133   3.094   0.489   0.106  0.8564  0.8341 -0.4864
 1192TIP3   OH225134   0.210   1.970   2.169 -0.1571  0.0958 -0.3164
 1192TIP3    H125135   0.174   1.890   2.209 -0.0133 -1.0681 -2.3679
 1192TIP3    H225136   0.303   1.951   2.158 -0.4958 -0.3892 -2.8014
 1193TIP3   OH225137   0.856   5.834   1.994  0.1155  0.3914  0.0660
 1193TIP3    H125138   0.945   5.809   2.015 -0.0766  0.5655  1.1526
 1193TIP3    H225139   0.820   5.759   1.947  1.1640  0.7702 -1.4234
 1194TIP3   OH225140   6.218   6.691   2.956  0.0191 -0.5320  0.0132
 1194TIP3    H125141   6.196   6.649   2.873  1.4300 -0.7105 -0.2994
 1194TIP3    H225142   6.297   6.645   2.986  1.5596  1.7385 -0.2775
 1195TIP3   OH225143   6.223   6.549   1.790  0.3498 -0.1078 -0.0095
 1195TIP3    H125144   6.165   6.599   1.732  1.3732 -0.4715 -1.3870
 1195TIP3    H225145   6.243   6.610   1.861  0.5396  1.0167 -0.9857
 1196TIP3   OH225146   4.797   2.390   3.165  0.6392 -0.1752 -0.3336
 1196TIP3    H125147   4.741   2.321   3.129  1.1487 -0.3833 -0.7431
 1196TIP3    H225148   4.876   2.388   3.111  0.3995  1.1721 -0.7856
 1197TIP3   OH225149   4.176   3.444   1.036 -0.3197 -0.4431 -0.3765
 1197TIP3    H125150   4.083   3.427   1.027 -0.6550  0.0438  1.7276
 1197TIP3    H225151   4.218   3.386   0.972 -2.1203  0.7058 -2.7580
 1198TIP3   OH225152   4.657   0.383   8.327 -0.1973  0.4662 -0.1068
 1198TIP3    H125153   4.627   0.473   8.337 -0.3454  0.2609  1.4229
 1198TIP3    H225154   4.717   0.386   8.253  0.0623  1.8814  0.1417
 1199TIP3   OH225155   3.166   3.773   2.084  0.7979  0.8539  0.6164
 1199TIP3    H125156   3.231   3.797   2.151 -0.3721  1.5972  1.5307
 1199TIP3    H225157   3.095   3.732   2.133  0.2613  0.6917 -0.2744
 1200TIP3   OH225158   1.657   4.658   1.148  0.0142  0.1845  0.5051
 1200TIP3    H125159   1.603   4.711   1.088 -0.2509  0.1051  0.6731
 1200TIP3    H225160   1.739   4.646   1.101 -0.4894 -0.5747 -0.1972
 1201TIP3   OH225161   4.613   2.219   1.663  0.0101  0.4563  0.7797
 1201TIP3    H125162   4.599   2.290   1.600  1.8765 -0.9699 -1.3841
 1201TIP3    H225163   4.540   2.159   1.648  0.6800 -0.0998 -0.4396
 1202TIP3   OH225164   0.667   3.050   0.195  0.5406  0.0268  0.1863
 1202TIP3    H125165   0.641   3.136   0.161 -0.1405 -0.2828 -0.1039
 1202TIP3    H225166   0.588   2.996   0.186  1.1901 -0.8562 -0.3722
 1203TIP3   OH225167   0.611   5.623   7.270  0.3466  0.2858 -0.2573
 1203TIP3    H125168   0.599   5.533   7.300  1.7185 -0.0896 -0.7495
 1203TIP3    H225169   0.569   5.627   7.185  1.7400 -0.3945 -1.0054
 1204TIP3   OH225170   0.772   1.519   8.519 -0.6425  0.4224  0.6581
 1204TIP3    H125171   0.776   1.428   8.549  0.5471 -0.0488 -0.7853
 1204TIP3    H225172   0.860   1.553   8.536  0.5079 -0.2175 -3.0458
 1205TIP3   OH225173   5.200   3.783   8.399  0.2057 -0.8385 -0.1155
 1205TIP3    H125174   5.155   3.699   8.395  1.1372 -1.4234  1.1514
 1205TIP3    H225175   5.170   3.822   8.481  0.3015 -0.2390 -0.3646
 1206TIP3   OH225176   1.185   4.147   0.621 -0.3491 -0.4928 -0.5033
 1206TIP3    H125177   1.093   4.129   0.638 -1.1652  1.3901 -2.4358
 1206TIP3    H225178   1.217   4.187   0.703 -1.4779 -0.3905 -0.0931
 1207TIP3   OH225179   0.469   4.104   1.884  0.3833 -0.0461 -0.1772
 1207TIP3    H125180   0.545   4.125   1.937  1.7607 -0.1485 -1.9967
 1207TIP3    H225181   0.396   4.146   1.928  1.6090  0.6970  1.2197
 1208TIP3   OH225182   5.489   0.674   1.209  0.0231 -0.4775  0.1640
 1208TIP3    H125183   5.536   0.726   1.274 -1.2058  0.1603  0.5818
 1208TIP3    H225184   5.441   0.609   1.260  1.5989 -2.1287 -0.3589
 1209TIP3   OH225185   2.301   1.475   7.136 -0.1994  0.0119 -0.5372
 1209TIP3    H125186   2.344   1.561   7.140 -0.3942  0.1600 -1.3891
 1209TIP3    H225187   2.366   1.418   7.095  0.1603 -0.4149  0.5731
 1210TIP3   OH225188   4.761   6.752   7.712  0.1251 -0.0790  0.0395
 1210TIP3    H125189   4.669   6.772   7.693 -0.0825 -0.0680  1.0241
 1210TIP3    H225190   4.783   6.684   7.649  0.2010  1.6484 -1.8999
 1211TIP3   OH225191   5.464   2.029   1.998 -0.3697 -0.1389  0.2462
 1211TIP3    H125192   5.429   2.091   2.062 -0.8952 -1.8757  1.7098
 1211TIP3    H225193   5.559   2.040   2.005 -0.3291  3.5029 -2.6629
 1212TIP3   OH225194   0.685   4.012   0.048 -0.0694  0.5932  0.3040
 1212TIP3    H125195   0.699   4.097   0.005 -0.7323 -0.2239 -1.6396
 1212TIP3    H225196   0.754   4.007   0.114  1.6171  1.5513 -1.2821
 1213TIP3   OH225197   6.802   0.490   8.677 -0.2564 -0.5745 -0.4030
 1213TIP3    H125198   6.822   0.432   8.751  2.1556  1.6890  0.8491
 1213TIP3    H225199   6.800   0.432   8.601  2.6395 -2.2926  0.6850
 1214TIP3   OH225200   5.431   0.655   0.165 -0.0082  0.3337 -0.5544
 1214TIP3    H125201   5.498   0.676   0.100  0.4269 -0.0911 -0.2559
 1214TIP3    H225202   5.363   0.721   0.152  0.3470  0.6135 -1.0385
 1215TIP3   OH225203   2.855   3.021   0.799  0.0242  0.3511 -0.3436
 1215TIP3    H125204   2.919   2.966   0.844 -1.0255 -0.9546 -0.3882
 1215TIP3    H225205   2.784   3.032   0.862 -1.7843 -2.0633 -1.7695
 1216TIP3   OH225206   6.703   0.983   0.004 -0.1633  0.0143  0.3573
 1216TIP3    H125207   6.696   0.977   0.099 -0.1121 -1.1292  0.2976
 1216TIP3    H225208   6.628   0.934  -0.029  0.4606 -0.5808 -0.2006
 1217TIP3   OH225209   0.728   0.840   7.713 -0.1280  0.4143 -0.3173
 1217TIP3    H125210   0.771   0.850   7.629 -0.5812 -0.5378 -0.6759
 1217TIP3    H225211   0.797   0.808   7.772 -0.2185 -0.6097 -0.7609
 1218TIP3   OH225212   6.154   0.786   2.463 -0.4563  0.5520  0.0131
 1218TIP3    H125213   6.143   0.740   2.380  0.1165  0.3738  0.0301
 1218TIP3    H225214   6.067   0.822   2.483 -1.0840 -1.0870  0.3467
 1219TIP3   OH225215   2.775   0.013   2.919 -0.3433 -0.0319 -0.1663
 1219TIP3    H125216   2.852  -0.031   2.955 -0.5509  1.0692  1.7880
 1219TIP3    H225217   2.701  -0.035   2.956 -0.5855  0.0475 -0.5477
 1220TIP3   OH225218   4.692   6.367   0.613 -0.3040 -0.4783  0.2316
 1220TIP3    H125219   4.714   6.292   0.557  0.7799 -0.2741  0.3581
 1220TIP3    H225220   4.637   6.422   0.558  1.2228  0.0114 -0.8940
 1221TIP3   OH225221   2.620   4.987   7.761 -0.4462 -0.6825  0.8883
 1221TIP3    H125222   2.541   4.983   7.706  0.3734 -0.3483 -0.3686
 1221TIP3    H225223   2.658   4.900   7.755  0.9725 -0.0140 -1.2053
 1222TIP3   OH225224   6.097   2.914   8.593  0.4691 -0.1205 -0.2307
 1222TIP3    H125225   6.152   2.971   8.539  1.3420 -0.3451  0.4002
 1222TIP3    H225226   6.043   2.867   8.529  2.8877 -1.8648 -1.1606
 1223TIP3   OH225227   4.223   4.272   1.198 -0.0117 -0.5310  0.4434
 1223TIP3    H125228   4.291   4.208   1.221 -1.5054 -2.9074 -1.3062
 1223TIP3    H225229   4.141   4.226   1.214 -1.1633  1.0752 -0.6041
 1224TIP3   OH225230   3.142   1.786   8.393 -0.1163  0.3651 -0.3172
 1224TIP3    H125231   3.142   1.704   8.343  1.0352  1.7763 -2.8044
 1224TIP3    H225232   3.180   1.762   8.477  1.9973 -1.3483 -1.6447
 1225TIP3   OH225233   1.783   0.612   1.891 -0.3382 -0.1496 -0.2936
 1225TIP3    H125234   1.802   0.592   1.799  0.3275 -0.8638 -0.0120
 1225TIP3    H225235   1.790   0.528   1.935  1.4265  0.5021  0.7543
 1226TIP3   OH225236   4.527   6.138   0.551  0.0120  0.0868 -0.0517
 1226TIP3    H125237   4.563   6.169   0.634  0.5345 -0.4205 -0.0821
 1226TIP3    H225238   4.437   6.171   0.550  0.6708  1.9692 -0.2925
 1227TIP3   OH225239   5.375   4.583   8.499 -0.3988  0.1788  0.5539
 1227TIP3    H125240   5.355   4.502   8.546 -0.6810 -0.0063  0.1200
 1227TIP3    H225241   5.343   4.568   8.410  0.3696  0.4295  0.2247
 1228TIP3   OH225242   1.836   5.603   3.037  0.1501  0.2565 -0.0817
 1228TIP3    H125243   1.906   5.572   3.095  1.2389 -0.5915 -1.7620
 1228TIP3    H225244   1.882   5.645   2.964 -1.0517 -0.6238 -1.4101
 1229TIP3   OH225245   0.457   5.159   1.127  0.1940 -0.1216 -0.2339
 1229TIP3    H125246   0.451   5.202   1.213  0.0281  0.8378 -0.7152
 1229TIP3    H225247   0.542   5.186   1.093  0.0235 -0.0578 -0.6087
 1230TIP3   OH225248   1.163   5.741   8.758  0.2449 -1.1723  0.1698
 1230TIP3    H125249   1.255   5.731   8.731  0.2824 -0.6980  0.1179
 1230TIP3    H225250   1.147   5.835   8.754 -0.5514 -1.3308 -0.8319
 1231TIP3   OH225251   2.994   3.629   1.101 -0.1036  0.3585  0.3068
 1231TIP3    H125252   2.940   3.636   1.022 -0.2051  0.6214  0.4015
 1231TIP3    H225253   2.933   3.644   1.174  0.7360  4.6014  0.3427
 1232TIP3   OH225254   2.278   2.190   8.521  0.2162  0.7767 -0.1651
 1232TIP3    H125255   2.362   2.235   8.513  0.6670  0.0103  0.1297
 1232TIP3    H225256   2.300   2.105   8.558 -0.3444 -0.5425 -2.6569
 1233TIP3   OH225257   3.402   5.915   8.168  0.0044 -0.4044 -0.0061
 1233TIP3    H125258   3.315   5.875   8.166  0.2368 -0.8903 -1.2729
 1233TIP3    H225259   3.398   5.983   8.101  0.5800 -0.3724 -0.0083
 1234TIP3   OH225260   1.061   5.881   1.062 -0.6610 -0.1504 -0.0108
 1234TIP3    H125261   1.022   5.917   1.142 -0.6095 -2.0562  0.9120
 1234TIP3    H225262   1.033   5.790   1.060  2.3047 -1.1512 -0.1938
 1235TIP3   OH225263   2.363   2.848   8.075 -0.0425 -0.0647  0.0309
 1235TIP3    H125264   2.341   2.825   8.165 -0.6338  0.5724  0.0568
 1235TIP3    H225265   2.313   2.928   8.058  1.8217  1.1169 -0.1170
 1236TIP3   OH225266   6.570   1.817   1.356  0.3224 -0.4992 -0.3149
 1236TIP3    H125267   6.595   1.909   1.352  1.2546 -0.5389  2.3629
 1236TIP3    H225268   6.485   1.817   1.401  1.3388 -0.9788  1.7377
 1237TIP3   OH225269   6.476   1.618   1.163 -1.1479  0.3127 -0.2969
 1237TIP3    H125270   6.478   1.562   1.240  1.0174  0.5534 -0.1215
 1237TIP3    H225271   6.392   1.663   1.169 -1.3943 -0.2860  1.4736
 1238TIP3   OH225272   0.173   4.418   2.334  0.3633 -0.1969  0.0752
 1238TIP3    H125273   0.261   4.451   2.354 -0.0452  1.2845 -0.4346
 1238TIP3    H225274   0.120   4.447   2.408 -0.1442  0.9598 -0.7122
 1239TIP3   OH225275   0.262   5.238   0.381 -0.0803  0.6153  0.1862
 1239TIP3    H125276   0.271   5.212   0.289  0.1944  0.9810  0.1090
 1239TIP3    H225277   0.339   5.292   0.398 -0.7105  1.4967  0.3083
 1240TIP3   OH225278   2.304   5.667   2.220  0.0420  0.1620 -0.5989
 1240TIP3    H125279   2.330   5.716   2.142  0.0524  0.9386 -0.1090
 1240TIP3    H225280   2.350   5.583   2.212 -0.2471  0.0850 -1.6131
 1241TIP3   OH225281   6.648   2.311   2.430  0.1288  0.0056  0.3773
 1241TIP3    H125282   6.712   2.352   2.487  0.6164  2.3832 -1.7056
 1241TIP3    H225283   6.696   2.294   2.348 -0.7101 -2.6152  0.3403
 1242TIP3   OH225284   2.723   5.870   2.423 -0.0505 -0.0921  0.6087
 1242TIP3    H125285   2.697   5.851   2.333  0.3588  0.2020  0.4219
 1242TIP3    H225286   2.818   5.885   2.417  0.2464 -1.5244  1.3230
 1243TIP3   OH225287   1.897   1.091   2.175  0.3228 -0.4104  0.1484
 1243TIP3    H125288   1.969   1.123   2.229  0.5608  0.1963 -0.5254
 1243TIP3    H225289   1.929   1.007   2.140  0.5341 -0.3478  0.1901
 1244TIP3   OH225290   0.989   0.554   8.206 -0.0030 -0.3152 -0.2506
 1244TIP3    H125291   0.924   0.600   8.260  0.7292  0.9749 -0.4363
 1244TIP3    H225292   1.053   0.520   8.269 -1.0552 -2.0262 -0.0172
 1245TIP3   OH225293   0.074   4.805   2.087  1.0944  0.0561  0.1581
 1245TIP3    H125294   0.134   4.756   2.144 -0.4315  0.3699  2.1558
 1245TIP3    H225295   0.091   4.771   1.999  2.0199 -2.0637  1.0853
 1246TIP3   OH225296   5.904   6.473   0.098 -0.0826  0.1676  0.2071
 1246TIP3    H125297   5.999   6.472   0.108  0.5412 -2.2943 -3.6873
 1246TIP3    H225298   5.875   6.392   0.139  0.2564 -1.3871 -2.3929
 1247TIP3   OH225299   2.948   1.346   7.774  0.1657  0.5754 -0.2593
 1247TIP3    H125300   2.953   1.418   7.836 -2.2391  1.8188 -1.3791
 1247TIP3    H225301   2.873   1.294   7.803 -0.1781  0.4322 -1.3585
 1248TIP3   OH225302   5.460   4.719   2.288 -0.3330 -0.3586 -0.5345
 1248TIP3    H125303   5.379   4.731   2.338 -1.1947 -1.9184 -1.4773
 1248TIP3    H225304   5.491   4.808   2.272  0.0603  0.2324  2.7887
 1249TIP3   OH225305   3.319   0.072   2.553 -0.1684 -0.1849  0.5125
 1249TIP3    H125306   3.271   0.056   2.634  0.6014  0.2280  1.0655
 1249TIP3    H225307   3.377   0.145   2.574  0.8162 -0.7817 -0.0792
 1250TIP3   OH225308   4.324   1.903   1.377  0.3394 -0.1984 -0.4163
 1250TIP3    H125309   4.403   1.871   1.333  0.2993 -0.7323 -0.1083
 1250TIP3    H225310   4.278   1.824   1.405 -0.6079  0.0867 -1.1119
 1251TIP3   OH225311   1.911   6.343   0.993 -0.2412  0.2645 -0.4622
 1251TIP3    H125312   1.858   6.263   0.984 -2.1655  1.1245  1.9189
 1251TIP3    H225313   1.971   6.323   1.065  1.6934 -0.1460 -2.1182
 1252TIP3   OH225314   2.401   3.034   0.483 -0.4447 -0.1841  0.7603
 1252TIP3    H125315   2.423   2.956   0.533  0.9718  0.2149  0.8298
 1252TIP3    H225316   2.363   3.094   0.547  0.3983 -0.0630  1.1700
 1253TIP3   OH225317   3.203   1.920   2.450 -0.1309  0.5160  0.1229
 1253TIP3    H125318   3.174   1.832   2.427 -0.6718  1.1721 -1.8808
 1253TIP3    H225319   3.298   1.917   2.445 -0.1712  0.1816 -0.4555
 1254TIP3   OH225320   2.552   5.396   1.954  0.0473 -0.1699 -0.0828
 1254TIP3    H125321   2.567   5.489   1.967  0.4587 -0.3565  0.8782
 1254TIP3    H225322   2.541   5.386   1.859  0.3284  0.8006 -0.2256
 1255TIP3   OH225323   3.018   4.336   2.250  0.0262  0.6314 -0.4808
 1255TIP3    H125324   3.021   4.266   2.314 -1.2396 -0.9832 -2.0979
 1255TIP3    H225325   3.008   4.416   2.302  1.1786 -0.3736  1.3849
 1256TIP3   OH225326   4.394   6.592   1.887 -0.1792  0.1839 -0.0931
 1256TIP3    H125327   4.468   6.650   1.873  0.4568 -0.3768  0.8097
 1256TIP3    H225328   4.427   6.505   1.864 -0.3019 -0.1754  1.0123
 1257TIP3   OH225329   4.858   3.015   3.132  0.0240 -0.6674 -0.1346
 1257TIP3    H125330   4.802   2.991   3.206 -0.5312  2.9781  0.8379
 1257TIP3    H225331   4.797   3.029   3.059  0.1684 -0.8542 -0.2919
 1258TIP3   OH225332   2.783   4.054   0.389  0.0101  0.0075  0.1155
 1258TIP3    H125333   2.787   4.091   0.477  0.0851  1.5675 -0.5226
 1258TIP3    H225334   2.860   4.089   0.344 -1.7664  1.9592 -1.5778
 1259TIP3   OH225335   3.254   1.912   8.074  0.1087  0.6659 -0.2432
 1259TIP3    H125336   3.164   1.946   8.077 -0.0493  0.2097  0.2902
 1259TIP3    H225337   3.247   1.827   8.029  0.5482  1.4343 -1.8615
 1260TIP3   OH225338   5.336   4.029   0.242  0.3783 -0.0001  0.4478
 1260TIP3    H125339   5.370   3.959   0.186 -1.1918 -0.7986  0.4292
 1260TIP3    H225340   5.289   4.087   0.182 -1.4100 -0.9209  0.8771
 1261TIP3   OH225341   1.085   3.182   2.891  0.3412 -0.2709 -0.1350
 1261TIP3    H125342   1.103   3.214   2.803  0.1029 -0.1548 -0.1422
 1261TIP3    H225343   1.154   3.220   2.945  0.7349 -0.6763 -0.3397
 1262TIP3   OH225344   6.135   3.212   0.279 -0.3407  0.0119 -0.1018
 1262TIP3    H125345   6.088   3.265   0.344 -2.4396  0.7310 -2.0677
 1262TIP3    H225346   6.156   3.131   0.326 -0.1280  1.1872  1.9715
 1263TIP3   OH225347   1.758   4.413   0.695  0.2021  0.2106 -0.7936
 1263TIP3    H125348   1.820   4.483   0.674  3.0140 -1.4583  1.1830
 1263TIP3    H225349   1.789   4.379   0.779 -3.2360 -1.0716  0.1022
 1264TIP3   OH225350   5.839   6.156   8.440 -0.7267 -0.1378  0.6534
 1264TIP3    H125351   5.777   6.083   8.444 -2.4969  1.2608  0.2298
 1264TIP3    H225352   5.786   6.233   8.460  1.0160  1.0796  0.7951
 1265TIP3   OH225353   3.131   4.922   2.643  0.1112  0.0821 -0.9813
 1265TIP3    H125354   3.101   4.862   2.575 -3.3044 -1.4199  1.5706
 1265TIP3    H225355   3.177   4.866   2.706  1.4631  1.0975 -1.0190
 1266TIP3   OH225356   1.605   6.648   8.450  0.4069  0.1811 -0.5485
 1266TIP3    H125357   1.584   6.615   8.363  1.1507 -0.0156 -0.6601
 1266TIP3    H225358   1.700   6.661   8.449  0.0551  3.7248 -1.0216
 1267TIP3   OH225359   1.334   1.203   2.718  0.7140 -0.2322 -0.4312
 1267TIP3    H125360   1.380   1.286   2.703  1.3134 -0.8173 -2.0310
 1267TIP3    H225361   1.398   1.136   2.696  0.3622 -1.1643  1.2312
 1268TIP3   OH225362   5.761   6.776   1.909 -0.1024 -0.2730 -0.7766
 1268TIP3    H125363   5.820   6.845   1.938 -1.6816  0.8061  0.0369
 1268TIP3    H225364   5.802   6.695   1.941 -0.4702  0.6427  2.4592
 1269TIP3   OH225365   4.271   2.714   0.390 -0.1792  0.2312 -0.6437
 1269TIP3    H125366   4.261   2.744   0.480  0.7040 -0.6242 -0.2358
 1269TIP3    H225367   4.301   2.791   0.342  0.1912  0.4815 -0.0273
 1270TIP3   OH225368   2.412   5.011   0.980  0.1675 -0.0557 -0.1103
 1270TIP3    H125369   2.402   4.953   1.055 -0.1717 -0.2918 -0.3357
 1270TIP3    H225370   2.501   5.046   0.989  0.4691 -0.7933 -0.1007
 1271TIP3   OH225371   6.191   0.521   1.247  0.0553  0.6533  0.2429
 1271TIP3    H125372   6.258   0.580   1.282  1.5107 -0.4555 -0.5255
 1271TIP3    H225373   6.237   0.472   1.179 -1.5531 -0.1940 -0.2642
 1272TIP3   OH225374   2.149   6.274   8.107  0.0679  0.1683  0.2052
 1272TIP3    H125375   2.244   6.291   8.103 -0.1731  2.1464  1.2357
 1272TIP3    H225376   2.125   6.248   8.019  1.3124  1.3438 -0.5241
 1273TIP3   OH225377   2.828   2.123   7.685 -0.1978 -0.5734 -0.0007
 1273TIP3    H125378   2.902   2.075   7.724  0.0705  0.9720  1.5235
 1273TIP3    H225379   2.851   2.132   7.593  1.1476 -0.8072  0.2870
 1274TIP3   OH225380   2.356   4.333   2.799 -0.4519 -0.0061  0.6139
 1274TIP3    H125381   2.426   4.290   2.848  0.4757 -0.0361 -0.6707
 1274TIP3    H225382   2.309   4.261   2.756  0.8204  0.1667 -1.1736
 1275TIP3   OH225383   0.243   0.245   2.354  0.4404 -0.3256 -0.5310
 1275TIP3    H125384   0.331   0.246   2.391  0.6510 -0.1061 -1.0342
 1275TIP3    H225385   0.186   0.234   2.430  0.7886  1.5021  0.0388
 1276TIP3   OH225386   2.351   6.398   1.006  0.3859  0.1829  0.0941
 1276TIP3    H125387   2.402   6.318   1.022  0.7470  0.7839  2.4272
 1276TIP3    H225388   2.344   6.438   1.093 -3.2898  0.6175 -0.2735
 1277TIP3   OH225389   5.165   3.640   0.847 -0.1101 -0.3076 -0.2003
 1277TIP3    H125390   5.185   3.730   0.874  2.0386 -0.6093 -0.6244
 1277TIP3    H225391   5.074   3.644   0.816  0.1010  1.8190 -0.6699
 1278TIP3   OH225392   5.408   0.424   7.435  1.0070  0.8079  0.2187
 1278TIP3    H125393   5.470   0.390   7.370  0.9489  2.0162 -0.5137
 1278TIP3    H225394   5.444   0.396   7.519  0.6449 -1.5103 -0.3323
 1279TIP3   OH225395   5.042   6.422   7.565 -0.4956 -0.1073 -0.0731
 1279TIP3    H125396   4.950   6.445   7.574 -1.0510 -2.1528 -0.0236
 1279TIP3    H225397   5.042   6.326   7.560  1.6966 -0.1873  0.7009
 1280TIP3   OH225398   4.085   0.586   1.605  0.1363  0.0069 -0.0647
 1280TIP3    H125399   4.005   0.619   1.563 -0.3515 -1.8927 -0.7303
 1280TIP3    H225400   4.148   0.580   1.533 -0.5392 -2.7560 -0.5421
 1281TIP3   OH225401   4.193   2.091   0.052 -0.1516 -0.9409  0.0065
 1281TIP3    H125402   4.155   2.179   0.052  2.5298  0.3958  2.1736
 1281TIP3    H225403   4.130   2.037   0.098 -0.2740  0.7713  1.9907
 1282TIP3   OH225404   2.628   0.372   2.293  0.0463  0.1940 -0.1483
 1282TIP3    H125405   2.560   0.412   2.240 -1.1009 -1.6176 -0.1056
 1282TIP3    H225406   2.669   0.307   2.236  0.3755 -0.1422  0.4555
 1283TIP3   OH225407   4.790   3.398   1.827  0.0148 -0.3627 -0.0044
 1283TIP3    H125408   4.870   3.375   1.876 -0.1258 -0.7342  0.0541
 1283TIP3    H225409   4.736   3.320   1.833  0.7497 -1.1368 -2.3584
 1284TIP3   OH225410   5.216   5.253   0.553 -0.3878 -0.1176 -0.2610
 1284TIP3    H125411   5.209   5.284   0.463  0.3839  0.0995 -0.2583
 1284TIP3    H225412   5.175   5.166   0.552 -0.8294  0.0962 -0.7047
 1285TIP3   OH225413   1.584   3.390   1.152 -0.4763 -0.1910 -0.4360
 1285TIP3    H125414   1.623   3.317   1.104 -0.6105  0.2162 -1.1886
 1285TIP3    H225415   1.652   3.457   1.153 -0.6109 -0.0544 -0.3912
 1286TIP3   OH225416   4.169   0.061   0.517 -0.6434  0.2512  0.0924
 1286TIP3    H125417   4.231   0.127   0.485  1.5101  0.1432  3.4421
 1286TIP3    H225418   4.184  -0.015   0.461  1.0222  0.8289 -0.3141
 1287TIP3   OH225419   6.745   6.489   2.190 -0.1714  0.1221 -0.0339
 1287TIP3    H125420   6.665   6.531   2.161 -0.1276  0.1875 -0.0623
 1287TIP3    H225421   6.805   6.562   2.206  0.2247  0.0396 -1.0204
 1288TIP3   OH225422   3.641   2.040   2.175 -0.4019  0.0343  0.5848
 1288TIP3    H125423   3.675   2.094   2.246 -1.1634  1.3436 -0.0059
 1288TIP3    H225424   3.698   2.059   2.100 -0.2468 -0.5317  0.5516
 1289TIP3   OH225425   1.987   0.335   1.324  0.6891  0.2999  0.2492
 1289TIP3    H125426   2.039   0.390   1.382  0.9878  1.2236 -0.8572
 1289TIP3    H225427   2.045   0.262   1.302  0.0389 -0.9129  2.3051
 1290TIP3   OH225428   3.811   4.627   0.604  0.3731 -0.0743  0.1845
 1290TIP3    H125429   3.907   4.630   0.606  0.3857  0.9366 -1.2183
 1290TIP3    H225430   3.788   4.647   0.514 -1.1668 -0.5163  0.4600
 1291TIP3   OH225431   4.741   0.331   3.009  0.4516  0.0626 -0.4483
 1291TIP3    H125432   4.669   0.302   2.953 -0.2769 -0.0474  0.5097
 1291TIP3    H225433   4.806   0.262   3.002 -0.0559 -0.4303 -0.4008
 1292TIP3   OH225434   2.072   3.572   7.603 -0.0945 -0.4998  0.3814
 1292TIP3    H125435   2.135   3.631   7.561 -0.8815  0.4658  0.5383
 1292TIP3    H225436   2.127   3.505   7.645  0.7476 -0.9102 -1.2793
 1293TIP3   OH225437   3.586   3.520   1.206  0.0619  0.9476  0.0962
 1293TIP3    H125438   3.607   3.468   1.284  2.0773  0.9828 -0.3754
 1293TIP3    H225439   3.575   3.609   1.240  1.0238  0.9818  0.3348
 1294TIP3   OH225440   6.236   4.342   1.343 -0.0626  0.0715  0.1822
 1294TIP3    H125441   6.155   4.349   1.293  0.3180 -0.4277 -0.5280
 1294TIP3    H225442   6.300   4.308   1.280  0.4810 -0.3730  0.9584
 1295TIP3   OH225443   4.198   4.823   8.401  0.5198 -0.3980  0.0286
 1295TIP3    H125444   4.203   4.801   8.494 -0.8583  0.5870  0.3737
 1295TIP3    H225445   4.221   4.916   8.396 -1.5098  0.1599 -0.2584
 1296TIP3   OH225446   2.103   3.994   0.286 -0.1420  0.4835  0.1086
 1296TIP3    H125447   2.080   3.909   0.322 -0.4518  0.7867  0.6354
 1296TIP3    H225448   2.033   4.013   0.222 -0.4653  0.6581  0.5080
 1297TIP3   OH225449   5.057   5.786   7.682  0.6816 -0.2405  0.4835
 1297TIP3    H125450   5.150   5.774   7.699  0.5522 -1.4306  0.4111
 1297TIP3    H225451   5.038   5.730   7.607 -0.3867 -1.1558  1.4015
 1298TIP3   OH225452   4.083   6.301   1.752  0.2391  0.0450  0.4642
 1298TIP3    H125453   3.994   6.328   1.772 -0.0792  0.2243 -1.1074
 1298TIP3    H225454   4.124   6.379   1.714  0.3644 -0.6730 -0.9217
 1299TIP3   OH225455   3.970   4.482   1.242  0.1661  0.2529 -0.3096
 1299TIP3    H125456   3.937   4.512   1.327 -0.0611 -0.2298 -0.2275
 1299TIP3    H225457   3.916   4.528   1.178  0.1725  0.4278 -0.1896
 1300TIP3   OH225458   1.628   4.594   8.038 -0.3673 -0.6764 -0.4364
 1300TIP3    H125459   1.714   4.588   8.078 -0.1405  0.0924 -0.7955
 1300TIP3    H225460   1.599   4.503   8.030 -1.3782 -0.8969  3.4962
 1301TIP3   OH225461   2.559   5.359   8.516 -0.3718 -0.1370  0.3184
 1301TIP3    H125462   2.583   5.451   8.504 -1.8338  0.2570  0.2992
 1301TIP3    H225463   2.520   5.355   8.603 -0.5604 -0.6990  0.2113
 1302TIP3   OH225464   5.883   2.672   8.616  0.0686  0.4305  0.2754
 1302TIP3    H125465   5.887   2.592   8.669  0.0784 -0.5238 -1.1180
 1302TIP3    H225466   5.853   2.739   8.677  1.3549 -0.3194  1.8336
 1303TIP3   OH225467   5.123   4.028   1.247 -0.8785 -0.4506 -0.3760
 1303TIP3    H125468   5.172   3.953   1.214 -0.9239 -0.4137 -0.5246
 1303TIP3    H225469   5.054   3.990   1.301 -1.0724 -0.5268 -0.6760
 1304TIP3   OH225470   5.019   4.512   8.731 -0.1370 -0.2908  0.1453
 1304TIP3    H125471   5.011   4.604   8.705 -1.9204 -0.7688 -1.1820
 1304TIP3    H225472   5.093   4.479   8.679  2.3762  0.9691  2.6544
 1305TIP3   OH225473   3.942   5.465   1.633 -0.2037  0.5352 -0.3757
 1305TIP3    H125474   3.990   5.382   1.635 -0.5026  0.3440 -0.8316
 1305TIP3    H225475   4.007   5.532   1.654 -0.3053  0.0441  1.6873
 1306TIP3   OH225476   6.825   1.338   7.464 -0.0810  0.1363 -0.1675
 1306TIP3    H125477   6.740   1.380   7.474 -0.5081 -1.0988  2.1779
 1306TIP3    H225478   6.889   1.408   7.477 -0.7758  0.5516  1.2439
 1307TIP3   OH225479   2.847   3.644   1.745  0.7423 -0.0511  0.0043
 1307TIP3    H125480   2.866   3.670   1.655 -1.4930 -0.5902 -0.6870
 1307TIP3    H225481   2.820   3.725   1.788 -0.4901 -0.1826 -0.4964
 1308TIP3   OH225482   6.719   3.824   2.956 -0.3649 -0.4250  0.5035
 1308TIP3    H125483   6.775   3.768   2.903 -0.8326  1.4200 -2.1153
 1308TIP3    H225484   6.630   3.792   2.939 -0.4997  0.0004  0.4069
 1309TIP3   OH225485   6.224   3.822   7.723 -0.2687  0.0398 -0.3630
 1309TIP3    H125486   6.216   3.864   7.637 -0.0965 -2.1349 -1.5158
 1309TIP3    H225487   6.220   3.729   7.704  0.2564 -0.5122  1.9753
 1310TIP3   OH225488   2.426   1.209   1.198  0.8580 -0.5506 -0.3315
 1310TIP3    H125489   2.431   1.117   1.174  1.5086 -0.9713  1.3239
 1310TIP3    H225490   2.479   1.254   1.132  1.0828 -1.4305 -0.7565
 1311TIP3   OH225491   0.341   4.643   2.445  0.3183  0.4817  0.1474
 1311TIP3    H125492   0.310   4.733   2.437  2.1528  1.2776  1.3516
 1311TIP3    H225493   0.330   4.622   2.538 -2.0331 -1.3576 -0.4318
 1312TIP3   OH225494   3.023   4.374   8.558  0.7978  0.0371 -0.0284
 1312TIP3    H125495   2.943   4.353   8.509 -0.7045  2.3821  1.2338
 1312TIP3    H225496   3.094   4.358   8.496 -0.5418 -2.7692 -0.9982
 1313TIP3   OH225497   0.314   5.539   1.119 -0.3459  0.0303  0.4455
 1313TIP3    H125498   0.288   5.610   1.178  0.9716  0.4366  0.5824
 1313TIP3    H225499   0.397   5.568   1.082 -0.7702 -0.5746 -1.0339
 1314TIP3   OH225500   5.863   1.059   8.223 -0.1289  0.3693 -0.0566
 1314TIP3    H125501   5.926   1.018   8.282 -0.4067 -0.2051 -0.1457
 1314TIP3    H225502   5.824   1.130   8.274  0.4581  0.6071  0.0590
 1315TIP3   OH225503   3.771   4.963   0.193 -0.5494  0.1859 -0.1709
 1315TIP3    H125504   3.755   5.026   0.264  1.3703 -1.4805  1.9039
 1315TIP3    H225505   3.694   4.907   0.194  0.1484 -0.8378  1.8475
 1316TIP3   OH225506   1.779   1.070   8.352  0.0883  0.1777 -0.1829
 1316TIP3    H125507   1.874   1.080   8.344 -0.2199  1.5143 -3.1762
 1316TIP3    H225508   1.749   1.154   8.386 -0.0741 -0.1558  0.5135
 1317TIP3   OH225509   2.564   5.325   7.787 -0.9931  0.5383 -0.0793
 1317TIP3    H125510   2.516   5.401   7.752  1.4156  1.2646 -2.0775
 1317TIP3    H225511   2.603   5.284   7.710 -0.1232 -1.2391  1.2526
 1318TIP3   OH225512   3.825   4.757   6.848 -0.1083  0.2461 -0.0718
 1318TIP3    H125513   3.755   4.698   6.822  1.8191 -1.8924 -0.7577
 1318TIP3    H225514   3.873   4.775   6.767  1.9227 -0.8888  0.8018
 1319TIP3   OH225515   3.145   5.104   1.518 -0.9401  0.3573  0.1516
 1319TIP3    H125516   3.139   5.008   1.520 -2.8095  0.0646 -4.6336
 1319TIP3    H225517   3.055   5.134   1.529 -0.8639  1.2762 -1.4210
 1320TIP3   OH225518   6.372   3.445   7.185 -0.3118  0.3308  0.2635
 1320TIP3    H125519   6.291   3.490   7.208  0.0677  1.0681  0.2095
 1320TIP3    H225520   6.345   3.372   7.129 -1.3456 -1.9007  3.4017
 1321TIP3   OH225521   5.733   5.952   1.017  0.9177 -0.2084 -0.2277
 1321TIP3    H125522   5.770   5.863   1.014 -0.2480 -0.7741  0.9656
 1321TIP3    H225523   5.728   5.979   0.926  0.9561 -1.5257 -0.6520
 1322TIP3   OH225524   3.051   3.857   3.363 -0.8976  0.1642 -0.1060
 1322TIP3    H125525   2.956   3.847   3.359 -0.9345  0.7375 -1.1224
 1322TIP3    H225526   3.084   3.798   3.295 -0.4467 -0.8191  0.9405
 1323TIP3   OH225527   0.092   4.349   0.526 -0.0593  0.2595 -1.0264
 1323TIP3    H125528   0.162   4.288   0.505  0.8387  0.2477  1.5682
 1323TIP3    H225529   0.132   4.412   0.586 -2.2089  0.3246  0.4704
 1324TIP3   OH225530   6.063   0.679   7.928 -0.3048  0.0329  0.4965
 1324TIP3    H125531   6.052   0.632   8.010 -1.7847 -2.7441 -1.1292
 1324TIP3    H225532   5.992   0.646   7.872  1.2876  0.9376 -2.2689
 1325TIP3   OH225533   3.168   5.974   8.466 -0.2912  0.6859 -0.4573
 1325TIP3    H125534   3.173   6.069   8.455  2.0727  0.9256  1.8300
 1325TIP3    H225535   3.258   5.944   8.453 -1.1474 -1.4281 -2.0883
 1326TIP3   OH225536   2.317   6.518   1.261  0.1163 -0.2548 -0.4881
 1326TIP3    H125537   2.272   6.504   1.345  0.1699 -1.4944 -0.6481
 1326TIP3    H225538   2.286   6.604   1.231 -0.2763 -0.0149  0.5608
 1327TIP3   OH225539   3.617   4.864   2.974 -0.0564  0.0932 -0.0254
 1327TIP3    H125540   3.528   4.882   3.006  0.0392 -1.4624  1.1953
 1327TIP3    H225541   3.649   4.793   3.029  0.9740 -1.1999 -2.1341
 1328TIP3   OH225542   6.600   2.895   7.384  0.0287 -0.1256  0.5460
 1328TIP3    H125543   6.664   2.825   7.401 -1.0719 -2.2175 -2.9761
 1328TIP3    H225544   6.527   2.852   7.341 -1.8434  2.8888  0.3792
 1329TIP3   OH225545   4.506   1.116   1.433 -0.1776 -0.4769 -0.2923
 1329TIP3    H125546   4.480   1.133   1.343  0.9295  1.9773 -0.2426
 1329TIP3    H225547   4.597   1.088   1.427  0.0870  0.2694  0.0570
 1330TIP3   OH225548   1.293   5.850   8.421 -0.0808 -0.0307  0.2039
 1330TIP3    H125549   1.327   5.836   8.333 -0.3011 -1.1692  0.2956
 1330TIP3    H225550   1.356   5.911   8.461 -0.9215  1.9036 -1.2910
 1331TIP3   OH225551   3.405   2.099   7.959  0.7851 -0.2460  0.4716
 1331TIP3    H125552   3.401   2.105   7.863  1.0257  1.9110  0.5430
 1331TIP3    H225553   3.361   2.017   7.980  0.0735 -0.4039 -1.4458
 1332TIP3   OH225554   3.478   0.479   6.990 -0.3357 -0.2728  0.1522
 1332TIP3    H125555   3.390   0.469   6.955 -0.2269  0.2888 -0.2811
 1332TIP3    H225556   3.534   0.488   6.913 -0.0747  0.7968  0.4574
 1333TIP3   OH225557   6.286   3.411   0.674 -0.0939 -0.1194 -0.3981
 1333TIP3    H125558   6.201   3.414   0.629  0.0599 -1.4400 -0.8246
 1333TIP3    H225559   6.303   3.502   0.698 -1.2984  0.2760 -0.9243
 1334TIP3   OH225560   3.666   0.920   1.919 -0.4476 -0.0819 -0.1951
 1334TIP3    H125561   3.606   0.982   1.877  0.0448 -0.2855 -1.2314
 1334TIP3    H225562   3.641   0.921   2.011 -0.2098  1.9498 -0.1081
 1335TIP3   OH225563   1.690   1.746   8.734 -0.3008 -0.1188  0.5669
 1335TIP3    H125564   1.703   1.807   8.806  0.3872 -2.7851  2.8804
 1335TIP3    H225565   1.769   1.752   8.681 -0.0967  0.6919  0.9590
 1336TIP3   OH225566   3.677   5.964   7.930 -0.1962 -0.2101 -0.2547
 1336TIP3    H125567   3.666   5.893   7.994 -0.7245  0.2262  0.1479
 1336TIP3    H225568   3.694   5.919   7.847  0.6220 -0.7895  0.2008
 1337TIP3   OH225569   2.447   3.580   0.831 -0.1102 -0.6441  0.2362
 1337TIP3    H125570   2.539   3.553   0.828 -0.3091 -1.3018 -0.2247
 1337TIP3    H225571   2.427   3.586   0.924  0.1933 -1.2326  0.3422
 1338TIP3   OH225572   6.786   1.116   2.060  0.0804 -0.4976  0.0038
 1338TIP3    H125573   6.833   1.195   2.086 -0.8963  0.1083  0.0289
 1338TIP3    H225574   6.827   1.045   2.108 -0.7126  0.3722  2.0737
 1339TIP3   OH225575   3.632   3.757   7.982  0.3054  0.7254  0.4043
 1339TIP3    H125576   3.706   3.697   7.985  0.0689  0.3632 -0.5327
 1339TIP3    H225577   3.582   3.738   8.062  0.1312 -0.4728  0.0366
 1340TIP3   OH225578   4.345   2.242   0.967  0.0024 -0.6308  0.4512
 1340TIP3    H125579   4.333   2.173   1.032  0.2900 -1.4945 -0.3785
 1340TIP3    H225580   4.439   2.257   0.964 -0.0847  0.0175  0.8379
 1341TIP3   OH225581   0.283   3.394   0.717 -0.1489 -0.4795 -0.2340
 1341TIP3    H125582   0.208   3.344   0.686 -1.4399  1.9801 -1.4260
 1341TIP3    H225583   0.348   3.329   0.742 -1.6114 -2.6722 -1.8582
 1342TIP3   OH225584   3.137   3.889   7.183 -0.4595  0.4350 -0.4694
 1342TIP3    H125585   3.192   3.841   7.245 -1.6297  0.3034  0.5116
 1342TIP3    H225586   3.193   3.902   7.106  1.8783  2.6912  1.4298
 1343TIP3   OH225587   0.606   1.023   0.073  0.8506 -0.5877 -0.1232
 1343TIP3    H125588   0.526   1.073   0.055  1.3316 -0.2042 -1.3060
 1343TIP3    H225589   0.672   1.090   0.091  0.6512 -0.9220  2.1979
 1344TIP3   OH225590   2.825   3.197   1.514  0.1911  0.0500  0.2223
 1344TIP3    H125591   2.740   3.170   1.549  1.2197 -3.2899  0.5188
 1344TIP3    H225592   2.880   3.119   1.523  2.9145  1.6620 -1.2228
 1345TIP3   OH225593   4.208   5.199   0.278 -0.0599  0.2371 -0.2532
 1345TIP3    H125594   4.152   5.211   0.201  0.0392  0.7082 -0.2581
 1345TIP3    H225595   4.164   5.133   0.331 -0.5554  0.5091 -0.3196
 1346TIP3   OH225596   0.149   0.200   0.983 -0.2556 -0.5369 -0.0303
 1346TIP3    H125597   0.174   0.224   1.072  0.1678 -0.8179 -0.0664
 1346TIP3    H225598   0.223   0.230   0.929 -0.7502  0.1171 -0.3569
 1347TIP3   OH225599   1.644   5.823   0.174  0.1177  0.2085  0.1216
 1347TIP3    H125600   1.719   5.781   0.133  0.1155 -0.4170  0.7451
 1347TIP3    H225601   1.582   5.752   0.189  0.3327  0.3210  1.6792
 1348TIP3   OH225602   6.300   0.887   1.143 -0.0251 -0.7952 -0.1745
 1348TIP3    H125603   6.327   0.861   1.055  1.1143 -1.3724  0.3293
 1348TIP3    H225604   6.281   0.804   1.187  0.2087 -0.5582  0.3734
 1349TIP3   OH225605   3.675   6.447   8.172 -0.0157  0.0051 -0.0227
 1349TIP3    H125606   3.696   6.530   8.127 -1.9014  0.1794 -0.6927
 1349TIP3    H225607   3.746   6.388   8.147  1.5100  1.4613  0.6634
 1350TIP3   OH225608   2.378   2.765   0.958  0.5257 -0.1680 -0.2735
 1350TIP3    H125609   2.335   2.832   1.010 -0.0238 -1.1912  0.6349
 1350TIP3    H225610   2.355   2.682   1.001  1.3122 -0.9324 -1.2593
 1351TIP3   OH225611   0.112   5.698   1.889 -0.5030  0.4328 -0.1409
 1351TIP3    H125612   0.105   5.772   1.950 -3.4277 -1.5314  2.2522
 1351TIP3    H225613   0.038   5.709   1.830 -0.0206  0.2205 -0.7932
 1352TIP3   OH225614   2.627   5.085   1.316  0.6109  0.4518 -1.0288
 1352TIP3    H125615   2.708   5.108   1.269 -0.1431  0.1659 -2.5421
 1352TIP3    H225616   2.650   5.006   1.365  1.4927  0.8737 -0.7388
 1353TIP3   OH225617   6.208   1.664   0.548 -0.9258  0.4284  0.2549
 1353TIP3    H125618   6.236   1.639   0.636 -2.9944  1.1496  1.1994
 1353TIP3    H225619   6.125   1.618   0.536 -0.0893 -0.6418 -1.8683
 1354TIP3   OH225620   1.105   4.630   0.273  0.5458 -0.6060  0.3192
 1354TIP3    H125621   1.179   4.666   0.323  0.3369  1.0111 -0.4703
 1354TIP3    H225622   1.099   4.686   0.195 -0.3224 -1.8968 -0.5931
 1355TIP3   OH225623   4.532   0.954   7.563 -0.0546  0.6065  0.0349
 1355TIP3    H125624   4.589   0.995   7.499 -0.6774  0.8690 -0.3623
 1355TIP3    H225625   4.445   0.990   7.544 -0.1482  1.1723  1.4150
 1356TIP3   OH225626   1.314   3.025   2.382  0.0804  0.2886 -0.1837
 1356TIP3    H125627   1.356   3.110   2.366  0.6479 -0.3465 -2.4080
 1356TIP3    H225628   1.331   2.975   2.303  0.1288 -2.0823  1.2323
 1357TIP3   OH225629   3.289   2.371   8.033 -0.7692  0.4518 -0.2259
 1357TIP3    H125630   3.341   2.313   7.977 -0.5933 -0.6287  0.9977
 1357TIP3    H225631   3.268   2.317   8.109  1.3375  2.6495  2.0689
 1358TIP3   OH225632   5.566   1.295   1.201  0.1313  0.2880  0.5242
 1358TIP3    H125633   5.489   1.240   1.216  0.2525  0.2288  0.9404
 1358TIP3    H225634   5.637   1.233   1.185 -0.0607  0.3537 -0.6438
 1359TIP3   OH225635   5.913   4.218   1.705 -0.2670  0.2557 -0.0674
 1359TIP3    H125636   5.991   4.244   1.655  1.0276 -2.8700  0.1231
 1359TIP3    H225637   5.928   4.256   1.792 -0.4621  2.1440 -0.8033
 1360TIP3   OH225638   4.648   2.717   1.839  0.1766 -0.0416 -0.1147
 1360TIP3    H125639   4.682   2.682   1.921 -1.0359 -1.7076 -0.2697
 1360TIP3    H225640   4.717   2.702   1.775  0.5702 -0.0155  0.2955
 1361TIP3   OH225641   3.054   5.480   1.516  0.0717 -0.1477 -0.1759
 1361TIP3    H125642   2.979   5.446   1.565  1.1699 -0.7225  1.1874
 1361TIP3    H225643   3.129   5.466   1.574  1.0376  1.8031 -0.8519
 1362TIP3   OH225644   6.642   1.552   1.375 -0.2225  0.1924  0.1019
 1362TIP3    H125645   6.603   1.638   1.361  0.9071  0.8246  0.7021
 1362TIP3    H225646   6.671   1.553   1.466  0.7635 -0.4234 -0.1888
 1363TIP3   OH225647   3.084   4.212   1.457  0.1109  0.2000 -0.4600
 1363TIP3    H125648   3.162   4.157   1.456  0.0292  0.0801 -0.2997
 1363TIP3    H225649   3.110   4.291   1.410  0.7847  0.7788  0.8356
 1364TIP3   OH225650   0.188   3.386   1.847 -0.1675  0.0371 -0.3768
 1364TIP3    H125651   0.215   3.307   1.800  0.9763 -0.0054  0.3066
 1364TIP3    H225652   0.211   3.458   1.788  1.0638 -0.0255  0.0046
 1365TIP3   OH225653   1.079   6.702   7.872  0.1264  0.0522 -0.0257
 1365TIP3    H125654   1.155   6.756   7.849  1.2004 -2.0396 -1.7706
 1365TIP3    H225655   1.011   6.731   7.811  0.1170  0.6128  0.2400
 1366TIP3   OH225656   2.655   4.308   1.694  0.2069  0.3172 -0.1715
 1366TIP3    H125657   2.685   4.286   1.781  0.6766 -0.4061 -0.5143
 1366TIP3    H225658   2.601   4.234   1.667 -1.8247  1.5095  0.3723
 1367TIP3   OH225659   6.143   6.388   0.198  0.1041  0.2109  0.0168
 1367TIP3    H125660   6.146   6.297   0.169  3.9124  0.2911 -0.3182
 1367TIP3    H225661   6.187   6.388   0.283  2.2721  1.9327 -0.9939
 1368TIP3   OH225662   2.815   1.675   6.559 -0.0626 -0.3438  0.0483
 1368TIP3    H125663   2.875   1.602   6.547 -0.7358 -0.9604  0.4013
 1368TIP3    H225664   2.761   1.651   6.635 -0.1097  0.6369  0.3370
 1369TIP3   OH225665   2.280   5.611   7.495  0.7990  0.1533 -0.2048
 1369TIP3    H125666   2.354   5.597   7.436  0.2318  0.7389 -1.0904
 1369TIP3    H225667   2.286   5.541   7.560  1.8564 -0.0745 -0.5400
 1370TIP3   OH225668   6.627   2.482   8.062 -0.0333  0.5588  0.9456
 1370TIP3    H125669   6.589   2.472   7.974 -0.2736  0.9724  1.0013
 1370TIP3    H225670   6.553   2.468   8.121 -0.3477  2.3562  1.0422
 1371TIP3   OH225671   5.965   5.238   2.458  0.6478 -0.0338  0.6946
 1371TIP3    H125672   5.942   5.306   2.521 -0.2781  0.4476 -0.1283
 1371TIP3    H225673   5.903   5.167   2.475 -0.4117  0.5817 -0.4212
 1372TIP3   OH225674   5.332   5.059   1.898  0.1622  0.1526 -0.1969
 1372TIP3    H125675   5.345   5.045   1.804 -0.9329  1.2461 -0.5291
 1372TIP3    H225676   5.247   5.019   1.916 -0.6553  1.8406 -0.1440
 1373TIP3   OH225677   2.043   0.625   8.135 -0.0892  1.0201  0.2357
 1373TIP3    H125678   2.036   0.563   8.208  0.4778 -0.4236 -0.9008
 1373TIP3    H225679   2.133   0.657   8.139 -0.3289  1.6773  0.7087
 1374TIP3   OH225680   2.665   3.838   0.999 -0.2255  0.2090 -0.2798
 1374TIP3    H125681   2.747   3.868   1.038 -0.6749  1.5300 -0.3150
 1374TIP3    H225682   2.671   3.862   0.907 -1.4177  2.1250  0.0742
 1375TIP3   OH225683   2.589   3.530   6.652 -0.4404 -0.1579  0.4901
 1375TIP3    H125684   2.583   3.625   6.639 -0.6031 -0.3585 -1.2126
 1375TIP3    H225685   2.683   3.511   6.647 -0.4920 -0.2162 -0.4180
 1376TIP3   OH225686   4.502   5.501   8.377 -0.1076  0.1112 -0.3592
 1376TIP3    H125687   4.430   5.550   8.339 -0.7725 -1.1601 -0.7952
 1376TIP3    H225688   4.529   5.552   8.454 -2.1759  0.0683  0.4362
 1377TIP3   OH225689   6.415   3.298   7.992  0.4930  0.0160  0.6381
 1377TIP3    H125690   6.395   3.209   7.964  0.1895  0.5580 -0.9332
 1377TIP3    H225691   6.331   3.343   7.994  0.7063  0.4116  0.9198
 1378TIP3   OH225692   1.102   1.532   0.495  0.3098 -0.3738  0.4038
 1378TIP3    H125693   1.178   1.558   0.443  0.7786 -1.9112  0.2769
 1378TIP3    H225694   1.138   1.511   0.582 -0.6657  3.8573  2.0690
 1379TIP3   OH225695   1.646   0.540   7.948  0.8136  0.3899  0.1118
 1379TIP3    H125696   1.574   0.513   7.891  1.5990 -2.8949  0.5081
 1379TIP3    H225697   1.723   0.499   7.909  2.0569  1.6490  1.1880
 1380TIP3   OH225698   4.189   0.888   0.218  0.4188 -0.0953  0.1817
 1380TIP3    H125699   4.215   0.962   0.164  1.1364 -1.3657 -1.2858
 1380TIP3    H225700   4.250   0.818   0.196  0.4819 -0.8240  2.3649
 1381TIP3   OH225701   5.425   2.069   2.409 -0.0030  0.5061 -0.3450
 1381TIP3    H125702   5.461   2.056   2.497  0.5422 -0.1852 -0.6585
 1381TIP3    H225703   5.338   2.030   2.414  0.2704 -0.1129 -0.2827
 1382TIP3   OH225704   3.209   1.265   1.641  0.7341  0.2578  0.1982
 1382TIP3    H125705   3.237   1.222   1.560 -0.8577 -0.9439  0.2378
 1382TIP3    H225706   3.243   1.354   1.634  1.1824 -0.0158 -1.4962
 1383TIP3   OH225707   4.189   3.721   0.311 -0.0391 -0.1774  0.0263
 1383TIP3    H125708   4.212   3.813   0.324 -0.0273 -0.3140  1.0406
 1383TIP3    H225709   4.269   3.680   0.277  0.4154 -0.1082  0.9913
 1384TIP3   OH225710   2.246   1.175   7.662 -0.8013 -0.0535  0.3980
 1384TIP3    H125711   2.152   1.162   7.678 -1.1025  1.4297 -0.0065
 1384TIP3    H225712   2.258   1.270   7.670  0.5707 -0.1717 -0.1034
 1385TIP3   OH225713   4.254   1.979   7.947 -0.7603 -0.0653  0.8921
 1385TIP3    H125714   4.271   1.893   7.986 -3.0118 -1.9308 -1.8362
 1385TIP3    H225715   4.336   2.001   7.903 -0.8967 -2.1596 -0.5596
 1386TIP3   OH225716   5.455   4.683   0.475  0.8299 -0.0552 -0.1374
 1386TIP3    H125717   5.544   4.663   0.506  0.3810  0.7252  1.8307
 1386TIP3    H225718   5.407   4.706   0.555 -0.7564  0.9813 -1.3299
 1387TIP3   OH225719   1.267   5.938   0.868  0.4649  0.2564 -0.4100
 1387TIP3    H125720   1.192   5.906   0.919  0.5049  0.4966 -0.2001
 1387TIP3    H225721   1.235   5.938   0.777  1.3822 -3.2129 -0.8756
 1388TIP3   OH225722   5.745   5.891   8.504  0.0211 -0.0798 -0.1364
 1388TIP3    H125723   5.735   5.803   8.468  2.2092 -0.5407  0.2001
 1388TIP3    H225724   5.719   5.882   8.596 -0.3663 -0.2206 -0.2574
 1389TIP3   OH225725   2.393   5.712   8.050 -0.2212  0.7800 -0.5903
 1389TIP3    H125726   2.342   5.749   7.979  0.7162  0.1549 -1.6234
 1389TIP3    H225727   2.328   5.685   8.115 -1.1702  0.5067 -1.6207
 1390TIP3   OH225728   6.704   5.784   2.002 -0.0483  0.1785  0.5782
 1390TIP3    H125729   6.618   5.772   1.962 -0.2165 -0.1355  1.0203
 1390TIP3    H225730   6.722   5.878   1.992 -0.9690  0.4764  1.5000
 1391TIP3   OH225731   6.747   5.327   1.060  0.1454  0.5217 -0.4820
 1391TIP3    H125732   6.831   5.306   1.102 -0.1949  1.2511  0.6088
 1391TIP3    H225733   6.760   5.304   0.968  0.7287 -1.7215  0.0986
 1392TIP3   OH225734   3.467   0.129   0.735  0.6451 -0.4793  0.0162
 1392TIP3    H125735   3.390   0.074   0.737 -0.1370  0.5989  0.6093
 1392TIP3    H225736   3.531   0.084   0.790  0.1291 -0.9351  0.2459
 1393TIP3   OH225737   3.145   0.318   1.626  0.0995 -0.2970 -0.1930
 1393TIP3    H125738   3.107   0.232   1.649  0.5812 -0.6721 -0.7760
 1393TIP3    H225739   3.191   0.345   1.706  0.6006 -0.9462 -0.2585
 1394TIP3   OH225740   1.001   2.660   1.013 -0.5477 -0.2442  0.4613
 1394TIP3    H125741   0.976   2.644   1.104  1.6718 -1.3339  0.9542
 1394TIP3    H225742   1.014   2.755   1.008 -1.5530 -0.0609  1.0082
 1395TIP3   OH225743   0.095   2.980   2.251 -0.3287  0.1586 -0.1469
 1395TIP3    H125744   0.006   2.952   2.230 -0.3053  0.6602 -0.9445
 1395TIP3    H225745   0.106   3.063   2.205  0.8498 -0.3156 -0.7903
 1396TIP3   OH225746   4.885   5.981   2.067  0.1118  0.1751  0.1150
 1396TIP3    H125747   4.879   6.042   2.140  0.3670  0.0548  0.2379
 1396TIP3    H225748   4.800   5.937   2.066  0.4852 -0.5943  1.0275
 1397TIP3   OH225749   5.905   5.859   1.432 -0.0546 -0.4777 -0.2880
 1397TIP3    H125750   5.863   5.945   1.434  0.8384 -0.0290 -0.2282
 1397TIP3    H225751   5.846   5.802   1.482  0.6485  0.7230  2.0554
 1398TIP3   OH225752   1.956   4.262   7.498 -0.1362  0.6600  0.3993
 1398TIP3    H125753   1.949   4.345   7.545  0.0019  0.1481  1.3677
 1398TIP3    H225754   1.870   4.221   7.507  0.4466 -0.3168  1.9600
 1399TIP3   OH225755   0.900   0.890   1.002  0.0085  0.1690 -0.3471
 1399TIP3    H125756   0.953   0.970   0.999  0.1205  0.1140  0.1463
 1399TIP3    H225757   0.824   0.910   0.948 -0.6064  1.0706  0.8194
 1400TIP3   OH225758   3.473   1.644   2.555  0.7339 -1.1751 -0.1007
 1400TIP3    H125759   3.529   1.581   2.601  1.3972 -1.1051 -0.7944
 1400TIP3    H225760   3.453   1.601   2.472 -0.3149 -1.2293  0.1734
 1401TIP3   OH225761   5.917   3.970   0.387 -0.0560  0.2739 -0.0256
 1401TIP3    H125762   5.953   3.937   0.304 -0.8640  1.1667 -0.7475
 1401TIP3    H225763   5.981   3.943   0.453  0.8919  0.0454 -1.0098
 1402TIP3   OH225764   3.123   1.770   0.050  0.5994  0.0671  0.2761
 1402TIP3    H125765   3.136   1.839   0.115  0.8218  0.2574  0.0334
 1402TIP3    H225766   3.126   1.689   0.099 -0.4147  0.2561  0.6906
 1403TIP3   OH225767   6.396   4.850   2.500 -0.2584 -0.0895 -1.3838
 1403TIP3    H125768   6.447   4.885   2.427  0.8084 -1.7629 -1.4915
 1403TIP3    H225769   6.364   4.928   2.546  2.6306  1.1102 -1.1594
 1404TIP3   OH225770   1.126   2.490   1.966 -0.5411 -0.0159 -0.5045
 1404TIP3    H125771   1.156   2.580   1.978 -1.3892  0.1486  0.5054
 1404TIP3    H225772   1.139   2.449   2.051 -1.9936 -0.2828 -0.3893
 1405TIP3   OH225773   1.519   5.362   0.452  0.1634 -0.0781  0.7011
 1405TIP3    H125774   1.443   5.341   0.506  0.6056  0.2239  1.4602
 1405TIP3    H225775   1.562   5.277   0.438  0.0451 -0.1598  0.8273
 1406TIP3   OH225776   2.825   0.032   1.687 -0.3787  0.5326  0.2316
 1406TIP3    H125777   2.920   0.022   1.696 -0.5680 -1.9577  0.2543
 1406TIP3    H225778   2.792   0.029   1.776 -0.5539  0.0431  0.1547
 1407TIP3   OH225779   2.270   5.003   2.594 -0.0593 -0.4030  0.1204
 1407TIP3    H125780   2.256   4.964   2.680 -1.0893 -1.9773 -0.7210
 1407TIP3    H225781   2.202   5.069   2.586  0.0214 -0.2723  0.4876
 1408TIP3   OH225782   5.450   5.540   0.456  0.1886 -0.4427 -0.8144
 1408TIP3    H125783   5.488   5.518   0.541 -1.4534 -0.0998  0.0632
 1408TIP3    H225784   5.367   5.583   0.478  0.1125  0.4063 -2.5852
 1409TIP3   OH225785   2.491   4.395   1.338 -0.3605  0.0783  0.5367
 1409TIP3    H125786   2.521   4.309   1.308 -0.9450  0.1380 -0.2607
 1409TIP3    H225787   2.556   4.457   1.304  0.2644 -0.0674  1.4263
 1410TIP3   OH225788   4.341   5.027   8.745  0.2250 -0.7137  0.0755
 1410TIP3    H125789   4.412   5.005   8.684 -0.2468 -0.6201 -0.5225
 1410TIP3    H225790   4.286   4.949   8.747  1.2643 -1.4592  1.9144
 1411TIP3   OH225791   1.767   0.303   7.705  0.2716  0.2687  0.1729
 1411TIP3    H125792   1.737   0.389   7.676 -0.7295  0.0736  0.6004
 1411TIP3    H225793   1.797   0.316   7.795  2.0101  0.5680 -0.4120
 1412TIP3   OH225794   4.598   2.081   7.567  0.0028 -0.0077 -0.2284
 1412TIP3    H125795   4.539   2.034   7.626 -1.7594  1.0261 -1.0855
 1412TIP3    H225796   4.663   2.016   7.540 -0.5923 -1.1227  0.9380
 1413TIP3   OH225797   0.824   4.495   0.538 -0.1042  0.2620 -0.3915
 1413TIP3    H125798   0.769   4.421   0.513 -0.4662  0.0556  0.9397
 1413TIP3    H225799   0.794   4.567   0.482 -1.2403 -0.0345 -0.1946
 1414TIP3   OH225800   1.041   6.037   1.724 -0.1726 -0.6260  0.4380
 1414TIP3    H125801   1.016   6.116   1.773  0.6462 -1.3901  2.1627
 1414TIP3    H225802   1.114   6.066   1.669  0.5526 -0.3012  1.5438
 1415TIP3   OH225803   2.752   0.803   8.169 -0.3246  0.1737  0.0655
 1415TIP3    H125804   2.737   0.799   8.263 -0.3417  1.1776  0.1152
 1415TIP3    H225805   2.707   0.882   8.141 -2.2318 -1.2543 -1.1607
 1416TIP3   OH225806   3.267   2.822   8.666  0.3132  0.4405  0.3876
 1416TIP3    H125807   3.334   2.884   8.637  1.0790 -0.1355  0.8863
 1416TIP3    H225808   3.295   2.796   8.754 -0.5826  0.2113  0.6155
 1417TIP3   OH225809   2.157   0.226   8.714  0.5460  0.2431 -0.5912
 1417TIP3    H125810   2.119   0.255   8.797  2.2000  1.4654 -0.2037
 1417TIP3    H225811   2.093   0.165   8.678 -2.1234  2.7037 -0.3387
 1418TIP3   OH225812   3.954   6.191   1.247 -0.1202 -0.2158 -0.8600
 1418TIP3    H125813   3.889   6.184   1.176 -0.7812  0.6174 -0.3541
 1418TIP3    H225814   3.917   6.138   1.318  1.7584 -3.2409 -1.9457
 1419TIP3   OH225815   5.008   5.743   1.380  0.1433  0.1957 -0.1856
 1419TIP3    H125816   4.920   5.770   1.353  0.6191  1.5816 -0.4286
 1419TIP3    H225817   5.063   5.759   1.303  0.4640 -1.6640 -0.4048
 1420TIP3   OH225818   2.477   2.121   0.074 -0.0823 -0.6376  0.0084
 1420TIP3    H125819   2.474   2.037   0.027 -1.2149  0.5172 -2.1104
 1420TIP3    H225820   2.561   2.159   0.049  1.1216 -1.7085  2.1544
 1421TIP3   OH225821   6.740   6.777   0.138  0.3229  0.1407  0.0948
 1421TIP3    H125822   6.805   6.742   0.076  0.7325  0.5127  0.3037
 1421TIP3    H225823   6.694   6.845   0.088  0.9024  0.6978  0.2936
 1422TIP3   OH225824   3.371   2.674   8.086  0.1951 -0.0490  0.2001
 1422TIP3    H125825   3.444   2.720   8.045  0.0458  0.3885  0.4179
 1422TIP3    H225826   3.347   2.606   8.023  1.0552 -0.4649  0.3004
 1423TIP3   OH225827   5.273   5.730   2.541  0.5808 -0.1073 -0.0466
 1423TIP3    H125828   5.265   5.661   2.606  3.0398 -0.1554  0.3097
 1423TIP3    H225829   5.183   5.759   2.524 -0.1426  0.8489  4.3394
 1424TIP3   OH225830   3.680   2.060   0.187  0.1222  0.0883  0.0533
 1424TIP3    H125831   3.687   2.035   0.095 -2.6704  0.2439 -0.2869
 1424TIP3    H225832   3.736   1.997   0.233  1.0744 -0.3929 -1.6655
 1425TIP3   OH225833   4.778   5.830   0.040  0.1178 -0.0355 -0.6688
 1425TIP3    H125834   4.792   5.766  -0.029  1.6161  0.6918 -1.0835
 1425TIP3    H225835   4.852   5.818   0.100 -0.1426  0.6035 -0.2041
 1426TIP3   OH225836   3.207   2.994   1.282  0.7911 -0.0081  0.0106
 1426TIP3    H125837   3.156   2.917   1.257  1.3760 -0.3840 -0.0585
 1426TIP3    H225838   3.229   3.037   1.199 -2.5842  2.3159  0.1353
 1427TIP3   OH225839   2.625   3.633   7.900 -0.1894 -0.1504 -0.0158
 1427TIP3    H125840   2.619   3.719   7.858  1.0483  0.3391  0.7523
 1427TIP3    H225841   2.631   3.571   7.828 -0.6049  0.4445 -0.5772
 1428TIP3   OH225842   5.215   5.103   2.367 -0.2129 -0.6361  0.1996
 1428TIP3    H125843   5.260   5.179   2.329 -0.8763  0.5508  1.6737
 1428TIP3    H225844   5.182   5.134   2.452 -0.8096 -2.4823  0.6975
 1429TIP3   OH225845   0.726   2.360   0.298  0.0288 -0.3438  0.3405
 1429TIP3    H125846   0.777   2.292   0.255 -0.3740 -0.9665  0.8359
 1429TIP3    H225847   0.643   2.318   0.321 -0.6467  0.5961 -0.2901
 1430TIP3   OH225848   6.461   4.016   2.297  0.0624  0.6335 -0.2521
 1430TIP3    H125849   6.472   4.029   2.202  1.8131  0.3675 -0.1311
 1430TIP3    H225850   6.529   4.072   2.336  0.5286 -0.5956  0.7488
 1431TIP3   OH225851   1.225   3.771   1.238  0.0036 -0.2056  0.0708
 1431TIP3    H125852   1.314   3.765   1.205 -0.2065 -0.9841 -0.3765
 1431TIP3    H225853   1.233   3.754   1.332  0.5121  1.3053  0.3306
 1432TIP3   OH225854   0.851   0.748   8.340  0.6086 -0.3838 -0.3811
 1432TIP3    H125855   0.775   0.798   8.370 -0.1711 -0.5876 -1.8658
 1432TIP3    H225856   0.925   0.808   8.349 -0.1403  0.6932 -1.1492
 1433TIP3   OH225857   0.736   2.553   2.013 -0.2436  0.4577 -0.6478
 1433TIP3    H125858   0.712   2.505   2.092  2.8765 -1.4775 -0.7176
 1433TIP3    H225859   0.780   2.632   2.045  0.9772 -0.3021 -0.4056
 1434TIP3   OH225860   0.845   5.371   1.934  0.2194 -0.2345  0.2370
 1434TIP3    H125861   0.824   5.407   1.847 -1.3871  0.4070  0.8501
 1434TIP3    H225862   0.888   5.443   1.980 -0.6775  0.0867  0.5996
 1435TIP3   OH225863   0.932   3.694   1.543  0.2691 -0.1696  0.2917
 1435TIP3    H125864   0.921   3.737   1.628  0.5562 -1.7809  1.1837
 1435TIP3    H225865   1.000   3.628   1.558  1.2944  0.4088 -1.5539
 1436TIP3   OH225866   5.732   3.046   1.251 -0.0628 -0.3713 -0.2502
 1436TIP3    H125867   5.704   3.045   1.343  1.1146 -0.9737  0.1198
 1436TIP3    H225868   5.668   3.102   1.208  0.1097  1.0128  1.1740
 1437TIP3   OH225869   6.676   4.025   0.439 -0.2718  0.0408 -0.3576
 1437TIP3    H125870   6.752   4.070   0.403 -0.0960  1.0114  1.1385
 1437TIP3    H225871   6.692   4.022   0.533 -0.4404 -2.9184 -0.3320
 1438TIP3   OH225872   4.545   1.414   2.227 -0.2295  0.2471 -0.7143
 1438TIP3    H125873   4.611   1.402   2.159  1.1400  1.5430  0.3136
 1438TIP3    H225874   4.482   1.475   2.189  0.5100  0.9397 -0.8427
 1439TIP3   OH225875   3.925   1.010   7.596 -0.3766  0.5817  0.7681
 1439TIP3    H125876   3.945   1.092   7.550 -2.0927  0.5260 -0.1466
 1439TIP3    H225877   3.896   0.950   7.527  0.4753 -0.6905  1.4819
 1440TIP3   OH225878   2.739   1.391   8.371 -0.1939 -0.5135 -0.4241
 1440TIP3    H125879   2.739   1.296   8.384 -1.7711 -0.6778 -1.3704
 1440TIP3    H225880   2.740   1.426   8.460 -0.7801 -1.4483 -0.0234
 1441TIP3   OH225881   3.382   5.386   1.179  0.4220  0.5253 -0.0058
 1441TIP3    H125882   3.405   5.322   1.112  0.4519  1.0857 -0.5407
 1441TIP3    H225883   3.378   5.336   1.260 -0.8019 -0.3783 -0.6055
 1442TIP3   OH225884   2.278   3.741   7.798 -0.2246 -0.1125  0.6613
 1442TIP3    H125885   2.339   3.768   7.867  2.0541 -1.2281 -0.7858
 1442TIP3    H225886   2.298   3.798   7.724 -1.0753 -0.3757  0.2192
 1443TIP3   OH225887   1.833   6.601   1.703 -0.1839  0.0669  0.1311
 1443TIP3    H125888   1.788   6.538   1.648  1.3258  0.8348 -2.1237
 1443TIP3    H225889   1.868   6.666   1.642  1.5102  1.0376  2.0081
 1444TIP3   OH225890   4.893   5.271   7.909  0.2758  0.6512 -0.6982
 1444TIP3    H125891   4.798   5.281   7.900  0.0279 -0.5271  0.3717
 1444TIP3    H225892   4.914   5.194   7.856  0.5626  0.6078 -0.5221
 1445TIP3   OH225893   5.220   3.759   1.193  0.0502  0.1880  0.1741
 1445TIP3    H125894   5.265   3.709   1.261  1.2308 -0.7949 -1.2755
 1445TIP3    H225895   5.134   3.716   1.185 -0.8246  1.3978  2.1874
 1446TIP3   OH225896   2.065   4.308   2.136  0.0318  0.5869 -0.5159
 1446TIP3    H125897   2.095   4.301   2.227  0.0797  1.5483 -0.4442
 1446TIP3    H225898   1.971   4.295   2.140  0.4537 -4.6832 -0.9964
 1447TIP3   OH225899   6.379   4.715   0.048 -0.7761 -0.3673  0.0793
 1447TIP3    H125900   6.359   4.793   0.099  1.8798  0.1461  0.4732
 1447TIP3    H225901   6.404   4.649   0.112 -1.3500 -1.0324 -0.3572
 1448TIP3   OH225902   4.110   4.482   0.721  0.4525 -0.8367  0.1020
 1448TIP3    H125903   4.185   4.442   0.677  1.3655  0.2811  0.5874
 1448TIP3    H225904   4.128   4.470   0.815  0.6856  0.5627  0.2536
 1449TIP3   OH225905   0.697   0.239   1.430 -0.0170  0.3027  0.3223
 1449TIP3    H125906   0.663   0.149   1.424  0.6352 -0.0505  1.4936
 1449TIP3    H225907   0.737   0.255   1.345 -2.7073  0.6018 -0.9905
 1450TIP3   OH225908   1.351   0.165   0.018 -0.3323  0.4536 -0.2340
 1450TIP3    H125909   1.415   0.093   0.018 -2.0810 -1.2152 -1.7434
 1450TIP3    H225910   1.268   0.123   0.040 -1.3435  2.0976 -0.7466
 1451TIP3   OH225911   4.577   2.733   3.437 -0.1730  0.3087 -0.1423
 1451TIP3    H125912   4.489   2.722   3.474 -0.2078  1.0673  0.0281
 1451TIP3    H225913   4.610   2.644   3.427 -0.1058  0.0437  1.8987
 1452TIP3   OH225914   3.939   4.195   1.251  0.0128  0.1380 -0.7906
 1452TIP3    H125915   3.856   4.177   1.297  0.1451 -0.9389 -0.9579
 1452TIP3    H225916   3.942   4.290   1.245 -0.6914  0.2408  0.1912
 1453TIP3   OH225917   4.489   4.242   1.445 -0.3956 -0.3272  0.7359
 1453TIP3    H125918   4.514   4.158   1.483  0.0328  0.2029  1.6755
 1453TIP3    H225919   4.459   4.221   1.357 -0.5924 -1.4983  1.0619
 1454TIP3   OH225920   2.494   2.721   2.556  0.0137 -0.4066  0.2261
 1454TIP3    H125921   2.406   2.741   2.588 -0.9400 -2.8417 -0.6213
 1454TIP3    H225922   2.491   2.628   2.534  2.5829 -0.3743 -0.6059
 1455TIP3   OH225923   1.786   0.782   8.639  0.3462 -0.5632  0.7144
 1455TIP3    H125924   1.778   0.873   8.668 -0.2948 -0.8130  1.3279
 1455TIP3    H225925   1.879   0.773   8.617  0.4087  0.2507  0.5936
 1456TIP3   OH225926   2.863   4.932   8.182 -0.5369  0.4756  0.0890
 1456TIP3    H125927   2.953   4.959   8.162 -0.7711  2.3115  1.3140
 1456TIP3    H225928   2.811   4.961   8.108 -0.3250  0.5694 -0.0241
 1457TIP3   OH225929   2.667   4.697   7.745  0.5334  0.1481  0.1553
 1457TIP3    H125930   2.624   4.695   7.831  1.5515 -1.7315  0.6735
 1457TIP3    H225931   2.595   4.697   7.682 -0.2241  0.3078  0.9925
 1458TIP3   OH225932   5.494   4.730   7.873 -0.0009  0.4124 -0.2319
 1458TIP3    H125933   5.453   4.663   7.927 -0.9545  0.3997 -0.9513
 1458TIP3    H225934   5.476   4.704   7.783 -1.1835  2.0888 -0.5330
 1459TIP3   OH225935   1.224   4.909   7.647  0.4641 -0.4914 -0.1387
 1459TIP3    H125936   1.301   4.893   7.702  0.2486  0.2236  0.3910
 1459TIP3    H225937   1.259   4.949   7.568  0.9214 -2.6834 -1.1238
 1460TIP3   OH225938   1.442   4.730   1.534 -0.4892 -0.2552  0.0403
 1460TIP3    H125939   1.372   4.665   1.529 -0.1105 -0.6947  0.3850
 1460TIP3    H225940   1.522   4.680   1.520 -0.2637  0.3119 -0.8157
 1461TIP3   OH225941   2.924   1.175   2.494  0.2270  0.2000  0.0148
 1461TIP3    H125942   2.845   1.229   2.488  0.3731  0.7007  2.0315
 1461TIP3    H225943   2.892   1.086   2.485 -0.4619  0.4394 -0.0165
 1462TIP3   OH225944   3.488   4.866   0.434  0.2640 -0.4166 -0.0076
 1462TIP3    H125945   3.493   4.804   0.362 -1.9167 -1.0483  0.3084
 1462TIP3    H225946   3.503   4.952   0.394 -2.3441 -0.5888 -1.5443
 1463TIP3   OH225947   0.220   4.817   2.980 -0.6615 -0.5596 -0.5121
 1463TIP3    H125948   0.233   4.876   2.906  0.4740 -0.0156  0.0951
 1463TIP3    H225949   0.164   4.866   3.040  0.0888 -0.1861 -0.1122
 1464TIP3   OH225950   0.703   1.565   0.563 -0.4063 -0.0226 -0.1608
 1464TIP3    H125951   0.610   1.559   0.542 -0.0380 -0.6571 -1.7366
 1464TIP3    H225952   0.723   1.658   0.557 -0.4733 -0.1001 -2.1153
 1465TIP3   OH225953   6.516   5.257   1.501  0.0955 -0.0113 -0.2768
 1465TIP3    H125954   6.450   5.326   1.496  0.5020  0.4022  0.0764
 1465TIP3    H225955   6.512   5.226   1.591  0.7802  0.4068 -0.1000
 1466TIP3   OH225956   1.147   5.948   0.622 -0.2323  0.2299 -0.7226
 1466TIP3    H125957   1.079   6.016   0.624 -0.6313 -0.1214  1.9967
 1466TIP3    H225958   1.099   5.866   0.625  0.1238 -0.0243  2.5271
 1467TIP3   OH225959   1.465   0.011   0.737 -0.0041  0.4505  0.1295
 1467TIP3    H125960   1.411  -0.064   0.710  0.8283  0.5228 -1.9160
 1467TIP3    H225961   1.537  -0.029   0.786  1.5438 -0.4420 -2.6292
 1468TIP3   OH225962   2.788   6.276   2.299 -0.3089  0.2362 -0.0119
 1468TIP3    H125963   2.729   6.343   2.333  1.2535  1.7210 -0.0759
 1468TIP3    H225964   2.838   6.247   2.375 -0.1329  0.0260 -0.2052
 1469TIP3   OH225965   6.056   5.818   0.844 -0.1141  0.2318 -0.1548
 1469TIP3    H125966   5.966   5.798   0.870 -0.4159  1.9624  0.2543
 1469TIP3    H225967   6.110   5.782   0.915 -0.5721  0.3123  0.2406
 1470TIP3   OH225968   0.364   1.353   0.456 -0.4337  0.0277  0.4067
 1470TIP3    H125969   0.289   1.331   0.401 -1.0289 -2.3687  1.9858
 1470TIP3    H225970   0.347   1.307   0.539  2.0857  0.5746  1.3218
 1471TIP3   OH225971   0.699   2.734   0.673  0.1649  0.4164 -0.1268
 1471TIP3    H125972   0.727   2.825   0.663  0.1410  0.7786  2.4742
 1471TIP3    H225973   0.780   2.685   0.688  0.1397  0.0549 -1.1047
 1472TIP3   OH225974   6.592   5.618   0.622  0.4575  0.1340  0.3137
 1472TIP3    H125975   6.511   5.668   0.619 -0.5171 -1.3272  1.2055
 1472TIP3    H225976   6.659   5.682   0.646 -0.2719  1.5062 -1.1070
 1473TIP3   OH225977   4.348   5.505   2.425  0.2474  0.0715 -0.0883
 1473TIP3    H125978   4.329   5.456   2.505  1.4977  2.0089  1.4906
 1473TIP3    H225979   4.419   5.565   2.450  1.6405 -0.1802 -3.0421
 1474TIP3   OH225980   0.499   4.360   2.623  0.4871  0.7345 -0.4685
 1474TIP3    H125981   0.427   4.411   2.660 -0.7564 -1.0115 -0.3706
 1474TIP3    H225982   0.528   4.304   2.694  1.2708  0.6945 -0.8093
 1475TIP3   OH225983   6.147   5.217   2.042  0.0700  0.0818 -0.0480
 1475TIP3    H125984   6.105   5.263   1.968 -1.9578 -0.9332  0.3912
 1475TIP3    H225985   6.097   5.245   2.119 -1.4290 -2.8994  0.2150
 1476TIP3   OH225986   6.250   2.580   0.540 -0.2683 -0.0824 -0.1942
 1476TIP3    H125987   6.330   2.601   0.589 -0.4377 -0.6307  0.3429
 1476TIP3    H225988   6.277   2.511   0.479 -0.3048 -0.1883 -0.0910
 1477TIP3   OH225989   3.586   4.399   0.301  0.0537  0.1165  0.3212
 1477TIP3    H125990   3.507   4.389   0.248  1.6361 -1.2557 -1.9902
 1477TIP3    H225991   3.555   4.433   0.384 -3.1258 -1.4374 -0.0566
 1478TIP3   OH225992   0.731   6.618   1.248 -0.9421 -0.3236 -0.5192
 1478TIP3    H125993   0.713   6.524   1.247 -1.0021 -0.3941  1.6457
 1478TIP3    H225994   0.658   6.657   1.201 -0.7441 -1.3686 -1.7267
 1479TIP3   OH225995   1.996   6.764   2.433 -0.2958 -0.4790  0.1282
 1479TIP3    H125996   2.006   6.858   2.450  0.4862 -0.4643 -0.3838
 1479TIP3    H225997   1.971   6.727   2.518  0.6770  0.0086  0.6479
 1480TIP3   OH225998   2.276   6.160   8.485  0.1485  0.3023 -0.3318
 1480TIP3    H125999   2.308   6.196   8.567 -1.3170  3.2190 -0.8764
 1480TIP3    H226000   2.348   6.171   8.423  0.7761 -0.6239  0.2207
 1481TIP3   OH226001   5.167   1.932   2.421 -0.0613 -0.1016 -0.0774
 1481TIP3    H126002   5.164   1.950   2.327  1.0648 -0.4689 -0.1955
 1481TIP3    H226003   5.183   1.838   2.427  2.1659  0.2595  0.4301
 1482TIP3   OH226004   6.035   1.192   2.863  0.0689  0.0870 -0.0580
 1482TIP3    H126005   6.074   1.105   2.849  0.2616  0.3581 -1.3164
 1482TIP3    H226006   5.975   1.179   2.936  0.7060 -0.9124  0.3299
 1483TIP3   OH226007   3.197   4.723   7.180 -0.1215  0.3538  0.3085
 1483TIP3    H126008   3.130   4.751   7.118 -0.4133  1.0802  0.9360
 1483TIP3    H226009   3.280   4.742   7.137 -0.2933 -0.5629 -0.4819
 1484TIP3   OH226010   4.235   3.713   2.200  0.6465  0.5922  0.2439
 1484TIP3    H126011   4.313   3.747   2.157  2.0048 -2.0677  0.3753
 1484TIP3    H226012   4.258   3.623   2.223 -1.9423  0.2021  1.6898
 1485TIP3   OH226013   3.226   6.612   7.353 -0.2928 -0.0995  0.0351
 1485TIP3    H126014   3.292   6.649   7.294  0.3176  1.3589  1.5624
 1485TIP3    H226015   3.244   6.518   7.353  0.9144  0.1082 -0.6055
 1486TIP3   OH226016   5.038   3.544   7.957 -0.3589  0.2571 -0.3787
 1486TIP3    H126017   5.048   3.466   7.902  0.3475 -0.1517  0.3272
 1486TIP3    H226018   5.126   3.579   7.966 -0.0613 -1.0284  2.4547
 1487TIP3   OH226019   2.204   5.732   6.882  0.0654 -0.3919 -0.3692
 1487TIP3    H126020   2.158   5.648   6.889  0.0619 -0.4588 -1.1870
 1487TIP3    H226021   2.140   5.796   6.912 -0.1378 -0.6176 -0.3118
 1488TIP3   OH226022   3.421   3.961   8.147 -0.3330  0.2046 -0.4308
 1488TIP3    H126023   3.368   3.882   8.134 -1.7985  0.9648  0.6781
 1488TIP3    H226024   3.479   3.939   8.220 -0.3219 -0.0335 -0.5090
 1489TIP3   OH226025   2.194   6.598   0.131  0.3192  0.2899  0.4959
 1489TIP3    H126026   2.223   6.508   0.116 -0.0797 -0.1490  2.1377
 1489TIP3    H226027   2.264   6.652   0.094  1.1304 -0.7082  0.5168
 1490TIP3   OH226028   2.650   4.957   7.451 -0.0799  0.0093  0.2058
 1490TIP3    H126029   2.716   4.956   7.521 -0.4357  0.1657  0.5437
 1490TIP3    H226030   2.648   4.867   7.419 -1.0920 -0.4656  1.5043
 1491TIP3   OH226031   3.396   2.986   6.840 -0.1297  0.3075  0.1170
 1491TIP3    H126032   3.395   3.068   6.792 -1.3998 -0.0047 -0.4238
 1491TIP3    H226033   3.384   3.011   6.932 -1.9372  0.6583 -0.1898
 1492TIP3   OH226034   2.025   3.843   7.879 -0.3797 -0.3699  0.2051
 1492TIP3    H126035   1.949   3.797   7.844 -0.0275  1.0287 -2.7655
 1492TIP3    H226036   2.100   3.798   7.839  0.3957 -1.3113  2.5590
 1493TIP3   OH226037   2.363   3.736   8.656  0.3694  0.2219  0.0178
 1493TIP3    H126038   2.427   3.665   8.648  0.2983  0.2241 -0.6562
 1493TIP3    H226039   2.333   3.731   8.747  0.1905 -0.7655 -0.0790
 1494TIP3   OH226040   3.598   0.928   2.189  0.4344 -0.2352  0.5995
 1494TIP3    H126041   3.673   0.895   2.237 -0.1543  1.1497  2.6234
 1494TIP3    H226042   3.522   0.885   2.230  0.0036 -0.6082 -0.5259
 1495TIP3   OH226043   5.417   6.411   1.928 -0.5822 -1.0025 -0.0411
 1495TIP3    H126044   5.434   6.501   1.902 -3.3521  0.0336  1.3316
 1495TIP3    H226045   5.410   6.363   1.845 -0.0607  0.2420 -0.8265
 1496TIP3   OH226046   2.048   2.830   8.051  0.2567 -0.0519 -0.5973
 1496TIP3    H126047   2.107   2.881   7.995 -0.0464  1.8640  0.7138
 1496TIP3    H226048   1.960   2.856   8.023  0.1013  0.3849  0.2680
 1497TIP3   OH226049   3.542   1.866   6.907 -0.5765  0.0649 -0.5240
 1497TIP3    H126050   3.516   1.813   6.983  1.0183 -0.7824 -0.5041
 1497TIP3    H226051   3.604   1.810   6.860  0.2517  1.4708 -1.1724
 1498TIP3   OH226052   5.545   3.193   1.105  0.0292 -0.4190  0.5160
 1498TIP3    H126053   5.540   3.289   1.103 -0.6505 -0.4510  0.5896
 1498TIP3    H226054   5.566   3.169   1.015  0.8649 -0.1693  0.6385
 1499TIP3   OH226055   1.420   6.378   8.471  0.2688  0.1210 -0.3115
 1499TIP3    H126056   1.491   6.407   8.528 -0.9490 -0.1821  1.4319
 1499TIP3    H226057   1.355   6.342   8.530 -1.7069  1.1098 -1.7582
 1500TIP3   OH226058   5.008   0.841   2.248  0.2776  0.0239 -0.2985
 1500TIP3    H126059   4.997   0.850   2.343 -0.2026 -1.1188 -0.2293
 1500TIP3    H226060   5.016   0.931   2.217 -0.1989  0.4554  0.7539
 1501TIP3   OH226061   3.930   4.929   8.719  0.1469 -0.2759  0.1470
 1501TIP3    H126062   3.871   4.902   8.648  1.3201 -0.0455 -0.9672
 1501TIP3    H226063   3.874   4.932   8.797 -2.0986  2.9730 -1.3661
 1502TIP3   OH226064   5.879   0.169   0.803  0.1887  0.3890  0.4366
 1502TIP3    H126065   5.787   0.152   0.786  0.6413  0.4810 -2.7251
 1502TIP3    H226066   5.879   0.249   0.855 -1.5201  0.9183 -0.2977
 1503TIP3   OH226067   4.985   5.818   0.740 -0.6650  0.6705 -0.3798
 1503TIP3    H126068   5.004   5.724   0.749 -1.6493  0.6345  2.6951
 1503TIP3    H226069   5.069   5.857   0.718  0.0070 -0.8402 -0.6471
 1504TIP3   OH226070   4.267   3.068   0.527 -0.9959 -0.1053  0.3007
 1504TIP3    H126071   4.312   3.147   0.558 -0.7840  0.0443 -0.3797
 1504TIP3    H226072   4.337   3.003   0.518 -1.4441 -1.1164  3.0649
 1505TIP3   OH226073   3.100   1.146   8.711 -0.1546  0.1347 -0.1438
 1505TIP3    H126074   3.122   1.131   8.619 -1.5239 -0.2048 -0.4422
 1505TIP3    H226075   3.174   1.109   8.760  1.1022  1.2904 -1.1125
 1506TIP3   OH226076   1.154   3.510   1.304  0.2735  0.3908 -0.0738
 1506TIP3    H126077   1.082   3.550   1.255 -0.4224 -0.7532 -0.0276
 1506TIP3    H226078   1.129   3.418   1.313  0.6438  0.4197  1.8930
 1507TIP3   OH226079   3.227   1.343   8.053  0.0417 -0.1077  0.3183
 1507TIP3    H126080   3.214   1.431   8.018  1.8341  0.6673  1.4484
 1507TIP3    H226081   3.277   1.297   7.986 -1.6910 -0.6236 -0.6845
 1508TIP3   OH226082   3.598   2.453   8.155 -0.6446 -0.2424 -0.1846
 1508TIP3    H126083   3.510   2.487   8.171 -0.6473 -0.3720  0.0866
 1508TIP3    H226084   3.597   2.427   8.063 -0.4677  1.0154 -0.5645
 1509TIP3   OH226085   1.393   0.711   0.294 -0.2027 -0.0756 -0.6991
 1509TIP3    H126086   1.332   0.707   0.368  1.0805 -0.2202  0.3887
 1509TIP3    H226087   1.399   0.804   0.273  1.1694  0.2373  0.9210
 1510TIP3   OH226088   5.197   0.812   8.260  0.3981 -0.0791 -0.5155
 1510TIP3    H126089   5.134   0.852   8.319  0.6315 -0.6713  0.1432
 1510TIP3    H226090   5.143   0.768   8.194  0.1394  0.6971 -0.8364
 1511TIP3   OH226091   2.471   6.476   1.591  0.2385  0.1546  0.0402
 1511TIP3    H126092   2.497   6.539   1.524 -0.1457 -0.8414 -1.0701
 1511TIP3    H226093   2.553   6.439   1.623  0.3711 -0.7236 -1.2420
 1512TIP3   OH226094   3.876   4.829   1.134  0.0657 -0.5802  0.0601
 1512TIP3    H126095   3.897   4.755   1.077 -0.3890  1.0487 -2.3783
 1512TIP3    H226096   3.902   4.906   1.083  0.7381  0.9669  2.5817
 1513TIP3   OH226097   3.568   3.619   0.543  0.1842 -0.2286 -0.2730
 1513TIP3    H126098   3.647   3.613   0.489  0.7476 -3.7348  0.7092
 1513TIP3    H226099   3.598   3.653   0.627 -0.2726  2.8019 -1.2010
 1514TIP3   OH226100   5.692   4.943   2.205 -0.5129 -0.7077  0.3030
 1514TIP3    H126101   5.672   4.938   2.112 -0.0569 -2.4773  0.2615
 1514TIP3    H226102   5.766   5.004   2.211 -1.3268  0.3771 -0.3237
 1515TIP3   OH226103   3.436   2.370   7.687 -0.0361  0.4956  0.4755
 1515TIP3    H126104   3.381   2.448   7.679 -1.5029 -0.5208  0.1053
 1515TIP3    H226105   3.486   2.368   7.605  0.5784  1.4253  0.8089
 1516TIP3   OH226106   2.062   3.563   1.247 -0.3316  0.4551 -0.1124
 1516TIP3    H126107   2.007   3.499   1.292  0.3355  1.2193  1.9028
 1516TIP3    H226108   2.147   3.555   1.289  0.3665  1.1782 -1.3234
 1517TIP3   OH226109   2.279   2.503   8.005  0.5319  0.1706 -0.3775
 1517TIP3    H126110   2.322   2.552   8.075 -0.8678  0.0033  0.6446
 1517TIP3    H226111   2.332   2.424   7.995  1.4776  0.7965 -0.4165
 1518TIP3   OH226112   0.910   2.446   8.067  0.1238  0.1052 -0.2998
 1518TIP3    H126113   0.881   2.516   8.126 -0.9765 -2.0160  1.8897
 1518TIP3    H226114   0.853   2.454   7.991 -0.2335  1.3338  0.0664
 1519TIP3   OH226115   1.063   2.056   7.990  0.1470  0.0294 -0.2756
 1519TIP3    H126116   1.064   2.135   8.044  0.6040  0.0074 -0.2536
 1519TIP3    H226117   1.111   1.991   8.041  0.4182 -0.0448 -0.6268
 1520TIP3   OH226118   4.106   0.935   2.438  0.0065  0.1349 -0.1661
 1520TIP3    H126119   4.175   0.870   2.428 -0.0779  0.1622 -0.9488
 1520TIP3    H226120   4.025   0.886   2.428 -0.0701  0.6817 -3.2598
 1521TIP3   OH226121   6.806   4.902   1.664 -0.7402  0.0303  0.1240
 1521TIP3    H126122   6.805   4.984   1.712 -1.8667 -0.7656  1.5221
 1521TIP3    H226123   6.745   4.845   1.711 -0.9633 -1.1975 -1.5507
 1522TIP3   OH226124   3.125   5.563   2.580  0.0545 -0.4048 -0.6128
 1522TIP3    H126125   3.135   5.468   2.583 -2.6240 -0.7491  0.6919
 1522TIP3    H226126   3.179   5.595   2.652  0.9689 -0.9240 -1.0540
 1523TIP3   OH226127   4.850   2.367   6.896 -0.0727 -0.6946 -0.0165
 1523TIP3    H126128   4.793   2.290   6.892 -1.4329  0.2265  0.6343
 1523TIP3    H226129   4.872   2.385   6.805 -0.0956 -1.5849 -0.2102
 1524TIP3   OH226130   2.168   4.929   2.825 -0.1602 -0.2858 -0.4741
 1524TIP3    H126131   2.111   4.865   2.867  2.2862 -0.3812  3.0729
 1524TIP3    H226132   2.144   5.013   2.865 -0.1486  0.2633 -1.5799
 1525TIP3   OH226133   6.002   1.275   7.186  0.5037  0.4299  0.2176
 1525TIP3    H126134   5.984   1.275   7.280 -0.0185  1.3326  0.1261
 1525TIP3    H226135   6.084   1.322   7.177 -0.1516  1.5934  0.1141
 1526TIP3   OH226136   5.850   5.669   7.723 -0.1715 -0.2806  0.2353
 1526TIP3    H126137   5.830   5.668   7.630  0.9434  0.6593 -0.0445
 1526TIP3    H226138   5.865   5.577   7.746 -0.6632 -0.5351 -0.4554
 1527TIP3   OH226139   1.346   4.022   1.969 -0.0272 -0.1754  0.4411
 1527TIP3    H126140   1.414   4.006   1.902  0.1944 -1.7635  0.9965
 1527TIP3    H226141   1.328   4.116   1.962 -1.5832 -0.5574 -3.3523
 1528TIP3   OH226142   6.101   0.907   8.105  0.1873  0.0469 -0.2872
 1528TIP3    H126143   6.053   0.863   8.175  1.5117  0.4381  0.9158
 1528TIP3    H226144   6.083   0.855   8.027 -0.5808 -0.9551  0.5293
 1529TIP3   OH226145   2.130   3.126   1.411  0.0744 -0.3027  1.0988
 1529TIP3    H126146   2.219   3.159   1.398 -0.0958 -0.7720 -2.0092
 1529TIP3    H226147   2.074   3.204   1.405  0.0586 -0.4042 -1.1475
 1530TIP3   OH226148   1.732   6.583   7.064  0.0769 -0.2833  0.4169
 1530TIP3    H126149   1.715   6.615   7.152  0.9767  2.2114 -0.2360
 1530TIP3    H226150   1.794   6.512   7.076  1.4120  1.0342  1.7389
 1531TIP3   OH226151   4.581   1.057   0.231 -0.2304 -0.2851 -0.4350
 1531TIP3    H126152   4.623   1.067   0.146  0.4749  2.0948  0.1077
 1531TIP3    H226153   4.565   1.147   0.261 -1.4662 -1.0605  1.4673
 1532TIP3   OH226154   1.158   3.991   7.565 -0.6124 -0.0899 -0.1262
 1532TIP3    H126155   1.234   3.936   7.549 -0.1079  0.3205  0.7559
 1532TIP3    H226156   1.143   4.036   7.482  1.4878  1.4811  0.2537
 1533TIP3   OH226157   5.594   2.581   1.132 -0.0467 -0.0380  0.5469
 1533TIP3    H126158   5.525   2.646   1.125 -0.7458 -0.7645  0.5791
 1533TIP3    H226159   5.674   2.632   1.143 -0.6542  0.8000  1.1826
 1534TIP3   OH226160   1.166   6.774   2.372  0.2746  0.0801  0.6175
 1534TIP3    H126161   1.102   6.769   2.442 -0.3843 -0.6685 -0.0182
 1534TIP3    H226162   1.238   6.717   2.401  0.4789  0.6067  1.1514
 1535TIP3   OH226163   2.246   2.873   8.592 -0.2590 -0.5078  0.8999
 1535TIP3    H126164   2.156   2.859   8.623 -1.7016 -0.6345 -2.9155
 1535TIP3    H226165   2.252   2.823   8.510  3.9090 -1.9054  1.7758
 1536TIP3   OH226166   2.600   3.719   2.926 -0.2614 -0.0904  0.2019
 1536TIP3    H126167   2.583   3.651   2.861 -0.1577  0.5557 -0.5144
 1536TIP3    H226168   2.670   3.683   2.981  0.3345 -0.2533 -0.6432
 1537TIP3   OH226169   0.555   3.069   1.542  0.2251 -0.3493 -0.0440
 1537TIP3    H126170   0.644   3.101   1.560 -0.6055  2.5334 -0.5464
 1537TIP3    H226171   0.506   3.089   1.622 -0.2576 -0.6960 -0.2523
 1538TIP3   OH226172   0.942   1.262   1.548 -0.0961  0.1995  0.2386
 1538TIP3    H126173   0.935   1.205   1.625 -1.4080 -0.4809 -0.3482
 1538TIP3    H226174   1.025   1.237   1.507  0.6864  0.6706  1.4979
 1539TIP3   OH226175   3.549   5.275   8.473 -0.5868  0.2214  0.2143
 1539TIP3    H126176   3.492   5.350   8.488 -1.6423 -0.2595 -1.1124
 1539TIP3    H226177   3.542   5.258   8.379  0.3417 -0.9710  0.3327
 1540TIP3   OH226178   4.580   2.420   1.490  0.5027  0.3981  0.0431
 1540TIP3    H126179   4.591   2.502   1.539 -0.5519  0.8900 -0.5264
 1540TIP3    H226180   4.489   2.421   1.461  0.3913 -1.1168  0.2555
 1541TIP3   OH226181   4.747   6.115   1.514 -0.3994  0.4591  0.3397
 1541TIP3    H126182   4.736   6.158   1.429 -1.0023  0.1948  0.2820
 1541TIP3    H226183   4.745   6.186   1.578  1.7459  0.8559  0.0292
 1542TIP3   OH226184   6.827   2.197   3.017 -0.7707 -0.3680 -0.2803
 1542TIP3    H126185   6.769   2.212   3.092  1.0867  0.1366  1.1479
 1542TIP3    H226186   6.769   2.194   2.942 -2.5292  1.6724  0.8682
 1543TIP3   OH226187   0.565   4.791   8.449  0.5947 -0.0207  0.4068
 1543TIP3    H126188   0.470   4.789   8.461  0.5249 -0.5218 -0.1789
 1543TIP3    H226189   0.578   4.843   8.369  0.8165  0.0903  0.5143
 1544TIP3   OH226190   6.252   3.155   6.806 -0.1862  0.1558 -0.0367
 1544TIP3    H126191   6.190   3.223   6.831 -0.1830 -0.3734  1.4963
 1544TIP3    H226192   6.302   3.137   6.886  0.5264 -0.9000 -0.6940
 1545TIP3   OH226193   6.709   3.150   7.173 -0.1700  0.1338  0.0592
 1545TIP3    H126194   6.803   3.136   7.184  0.0834  2.8869  3.6242
 1545TIP3    H226195   6.700   3.186   7.085  2.3361  0.9694  0.0699
 1546TIP3   OH226196   0.620   5.202   7.535 -0.1716  0.6897 -0.3809
 1546TIP3    H126197   0.703   5.240   7.564 -0.3933  0.0727  1.1399
 1546TIP3    H226198   0.594   5.143   7.606 -0.0069 -2.1296 -2.4915
 1547TIP3   OH226199   3.197   6.755   8.095 -0.3562 -0.0195  0.5558
 1547TIP3    H126200   3.162   6.834   8.053  0.7771 -0.0407 -0.4853
 1547TIP3    H226201   3.268   6.727   8.037  0.9075 -0.3806  2.2186
 1548TIP3   OH226202   2.123   4.318   1.597 -0.4686  0.0016  0.0901
 1548TIP3    H126203   2.043   4.369   1.586  1.1588  2.9918  1.0921
 1548TIP3    H226204   2.132   4.308   1.691 -0.6825 -2.2136 -0.0677
 1549TIP3   OH226205   1.195   1.290   1.875 -0.3709  0.6252 -0.0259
 1549TIP3    H126206   1.239   1.231   1.936  0.1018  1.2068  0.2052
 1549TIP3    H226207   1.130   1.235   1.831  1.4351 -0.5896 -1.3050
 1550TIP3   OH226208   3.162   1.525   0.161  0.2999  0.3455  0.4945
 1550TIP3    H126209   3.241   1.471   0.167 -0.7548 -1.2825  0.1352
 1550TIP3    H226210   3.131   1.512   0.072 -0.5536  0.7281  0.7330
 1551TIP3   OH226211   3.380   1.309   8.267  0.2357  0.0547 -0.1924
 1551TIP3    H126212   3.295   1.319   8.224  0.7574 -0.3542 -1.3648
 1551TIP3    H226213   3.433   1.260   8.204  1.7627  1.4664 -0.0882
 1552TIP3   OH226214   0.451   0.410   2.448  0.3760  0.2490  0.0901
 1552TIP3    H126215   0.490   0.342   2.503 -0.7082 -0.2192  0.2959
 1552TIP3    H226216   0.491   0.492   2.480  1.1757 -0.2096  0.2960
 1553TIP3   OH226217   5.366   3.343   2.362  0.1086  0.3744 -0.5336
 1553TIP3    H126218   5.322   3.262   2.336 -0.4517 -0.2456  2.1084
 1553TIP3    H226219   5.459   3.322   2.357 -0.0262 -0.8669  1.1631
 1554TIP3   OH226220   0.011   2.304   8.094  0.0294 -0.4620 -0.1328
 1554TIP3    H126221   0.061   2.315   8.012  1.0913 -2.2220  0.2350
 1554TIP3    H226222  -0.061   2.367   8.086  0.5973  0.0249 -2.0316
 1555TIP3   OH226223   2.516   1.650   8.212  0.1145 -0.2159  0.1756
 1555TIP3    H126224   2.458   1.726   8.203 -0.0146 -0.4829 -1.6064
 1555TIP3    H226225   2.547   1.633   8.124 -0.6209 -2.8178  0.3261
 1556TIP3   OH226226   4.198   0.060   8.727  0.6617 -0.2632 -0.4773
 1556TIP3    H126227   4.165  -0.010   8.670  0.5012 -0.4820 -0.1152
 1556TIP3    H226228   4.122   0.115   8.745  0.4243 -0.9231  0.5849
 1557TIP3   OH226229   3.938   0.811   7.380 -0.0788  0.0852 -0.2148
 1557TIP3    H126230   3.905   0.811   7.290  0.3089 -2.3797 -0.4306
 1557TIP3    H226231   4.033   0.817   7.370 -0.0226 -0.3977 -0.0007
 1558TIP3   OH226232   3.752   5.506   0.042 -0.4038 -0.0146  0.5984
 1558TIP3    H126233   3.794   5.581  -0.001 -1.5865  1.0404  1.2362
 1558TIP3    H226234   3.777   5.431  -0.013 -0.5585  1.0590 -1.0215
 1559TIP3   OH226235   5.823   0.862   2.354  1.3918  0.0281 -0.7798
 1559TIP3    H126236   5.734   0.896   2.350  0.9474 -0.5460  2.0310
 1559TIP3    H226237   5.879   0.938   2.339  0.4457  0.5961 -1.5417
 1560TIP3   OH226238   0.715   5.087   7.867  0.1407  0.2881 -0.3210
 1560TIP3    H126239   0.802   5.125   7.856  0.4333 -0.5303 -0.9719
 1560TIP3    H226240   0.707   5.025   7.795 -0.2149 -1.0759  0.8611
 1561TIP3   OH226241   1.325   2.692   8.615 -0.2423 -0.7863 -0.3782
 1561TIP3    H126242   1.419   2.711   8.609 -0.1196 -1.5670 -1.1912
 1561TIP3    H226243   1.293   2.749   8.685  0.6727  0.1213 -0.6768
 1562TIP3   OH226244   0.878   1.351   2.046 -0.2925  0.4514  0.0917
 1562TIP3    H126245   0.898   1.258   2.033  1.4397  0.6607  0.9618
 1562TIP3    H226246   0.905   1.393   1.964  0.4017  0.3821  0.2815
 1563TIP3   OH226247   3.510   2.096   7.371  0.4555  0.2833 -0.1698
 1563TIP3    H126248   3.424   2.083   7.409  1.1324  0.8964  1.6978
 1563TIP3    H226249   3.494   2.121   7.281 -1.2202 -1.9286 -0.5675
 1564TIP3   OH226250   2.222   4.521   0.505  0.7039  0.3602  0.4129
 1564TIP3    H126251   2.274   4.594   0.541  0.0368  0.5489  1.0277
 1564TIP3    H226252   2.158   4.564   0.447  1.6516  0.0716 -0.8801
 1565TIP3   OH226253   5.507   1.974   0.841  0.2413  0.2219  0.4199
 1565TIP3    H126254   5.471   1.952   0.927 -0.0335 -0.3778  0.1583
 1565TIP3    H226255   5.563   1.900   0.819  0.2651  0.3455  0.0546
 1566TIP3   OH226256   3.805   4.417   3.062 -0.9178 -0.0994  0.1116
 1566TIP3    H126257   3.737   4.363   3.022  0.8755 -1.6768 -0.9720
 1566TIP3    H226258   3.848   4.359   3.125 -1.0192  1.0989  1.3266
 1567TIP3   OH226259   4.192   2.473   8.440 -0.2670  0.4981 -0.4350
 1567TIP3    H126260   4.201   2.388   8.484 -0.0134  0.7390 -0.0177
 1567TIP3    H226261   4.114   2.463   8.385 -0.3341  0.0495 -0.2647
 1568TIP3   OH226262   1.872   2.083   2.148 -0.0839  0.0100  0.6392
 1568TIP3    H126263   1.808   2.141   2.188 -0.1172 -0.3847  1.1670
 1568TIP3    H226264   1.822   2.029   2.087 -0.1108  0.2919  0.4120
 1569TIP3   OH226265   1.414   4.279   2.561 -0.8942  0.4304 -0.1167
 1569TIP3    H126266   1.495   4.288   2.612 -1.5479  0.1570  0.9977
 1569TIP3    H226267   1.422   4.344   2.492 -0.3013  1.3360  0.7745
 1570TIP3   OH226268   5.813   4.583   1.799  0.0629  0.3191 -0.5597
 1570TIP3    H126269   5.767   4.667   1.802 -0.9566  0.0325 -3.7601
 1570TIP3    H226270   5.761   4.525   1.854 -1.2626  0.9641 -1.0888
 1571TIP3   OH226271   5.196   5.392   7.382 -0.2295  0.2054 -0.5684
 1571TIP3    H126272   5.186   5.471   7.329 -2.1275  0.6464  0.3402
 1571TIP3    H226273   5.106   5.365   7.401  0.3919 -1.2493  0.4904
 1572TIP3   OH226274   1.818   0.478   0.593 -0.2543 -0.5719  0.0113
 1572TIP3    H126275   1.876   0.548   0.622  0.1031 -1.0946  0.5893
 1572TIP3    H226276   1.769   0.516   0.520 -1.6173  1.0041  1.6294
 1573TIP3   OH226277   0.407   0.918   0.950 -0.6613  0.2661 -0.4058
 1573TIP3    H126278   0.440   0.872   1.028  2.6601 -0.8424 -2.2964
 1573TIP3    H226279   0.370   0.999   0.985  0.7715 -0.1237  2.3493
 1574TIP3   OH226280   6.347   0.727   3.230  0.2802 -0.1787  0.4902
 1574TIP3    H126281   6.322   0.680   3.151  0.9487  0.8578 -0.3613
 1574TIP3    H226282   6.280   0.794   3.241  0.0163 -0.5124  1.0015
 1575TIP3   OH226283   2.824   3.969   8.206 -0.1656  0.3755  0.4319
 1575TIP3    H126284   2.910   3.958   8.247 -0.9155  2.7665  2.9034
 1575TIP3    H226285   2.844   3.982   8.113  2.2170  1.3564  0.9945
 1576TIP3   OH226286   4.602   0.215   1.714 -0.0010  0.4166  0.2970
 1576TIP3    H126287   4.520   0.195   1.760 -0.2737 -0.9180 -0.7077
 1576TIP3    H226288   4.667   0.158   1.755 -0.2324 -0.7342 -0.8732
 1577TIP3   OH226289   1.937   0.034   8.661  0.0177  0.1265  0.5319
 1577TIP3    H126290   1.966  -0.057   8.653 -1.8428 -0.5323  0.7098
 1577TIP3    H226291   1.924   0.064   8.571 -1.3440 -0.5134  0.4820
 1578TIP3   OH226292   1.458   1.158   0.706  0.3430 -0.2194 -0.5941
 1578TIP3    H126293   1.507   1.116   0.636  0.4114  0.6390 -1.0754
 1578TIP3    H226294   1.511   1.233   0.732  0.5434 -0.7823  0.7111
 1579TIP3   OH226295   5.360   3.723   2.552  0.5617  0.1709  0.1829
 1579TIP3    H126296   5.430   3.696   2.612  1.0312 -1.6060 -1.0668
 1579TIP3    H226297   5.360   3.818   2.557  1.2896  0.1207  2.1780
 1580TIP3   OH226298   2.968   1.677   1.661 -0.7425 -0.3370 -0.0878
 1580TIP3    H126299   2.913   1.751   1.686  0.2347  0.7791 -1.0866
 1580TIP3    H226300   3.056   1.714   1.653 -0.6662 -0.9110 -3.3410
 1581TIP3   OH226301   1.374   4.091   7.839 -0.2669  0.0433 -0.2686
 1581TIP3    H126302   1.356   4.164   7.780  1.5610  0.7610 -0.0099
 1581TIP3    H226303   1.469   4.091   7.849 -0.4049 -0.9308  1.5656
 1582TIP3   OH226304   5.717   4.749   0.086 -0.4146  0.2955  0.1155
 1582TIP3    H126305   5.769   4.827   0.106  1.0689 -0.3301 -1.1016
 1582TIP3    H226306   5.772   4.676   0.115 -1.2748 -0.3394  0.1731
 1583TIP3   OH226307   3.455   0.934   8.560 -0.3333  0.8035  0.2633
 1583TIP3    H126308   3.507   0.862   8.593  0.8011  0.6619 -1.6628
 1583TIP3    H226309   3.404   0.965   8.635 -0.4538 -1.6262  1.2542
 1584TIP3   OH226310   4.509   2.479   2.212 -0.0563 -0.6109 -0.0780
 1584TIP3    H126311   4.436   2.424   2.181 -0.4920 -1.0448  1.5784
 1584TIP3    H226312   4.479   2.513   2.297  0.6782  1.2830 -0.5266
 1585TIP3   OH226313   3.789   5.019   2.569  0.3251  0.4596 -0.1814
 1585TIP3    H126314   3.834   4.936   2.583  0.5919  0.4774 -0.8967
 1585TIP3    H226315   3.775   5.023   2.475  2.2507  2.2051 -0.4639
 1586TIP3   OH226316   3.438   1.177   7.870 -0.4277  0.2627  0.2005
 1586TIP3    H126317   3.497   1.121   7.818  0.4551 -0.1414  1.5832
 1586TIP3    H226318   3.479   1.263   7.867  0.7574 -0.1964  1.8553
 1587TIP3   OH226319   5.564   0.322   7.223 -0.2698  0.1380 -0.6561
 1587TIP3    H126320   5.611   0.342   7.142 -0.7067  0.8928 -0.7328
 1587TIP3    H226321   5.484   0.279   7.193  0.1468 -0.7294 -0.5496
 1588TIP3   OH226322   6.228   1.374   1.528  0.3298 -0.4625  0.5743
 1588TIP3    H126323   6.141   1.401   1.559  0.1716  0.3653 -0.5494
 1588TIP3    H226324   6.248   1.296   1.581 -0.9089 -0.4351  1.1394
 1589TIP3   OH226325   5.625   6.067   6.924  0.5025  0.0724 -0.1203
 1589TIP3    H126326   5.570   6.000   6.965  0.5183  0.0501 -0.1355
 1589TIP3    H226327   5.700   6.018   6.888  1.2684  0.2595  1.1444
 1590TIP3   OH226328   2.319   4.516   1.140 -0.2403  0.5227 -0.8137
 1590TIP3    H126329   2.363   4.487   1.219  1.3626  2.6628 -0.8256
 1590TIP3    H226330   2.283   4.436   1.101 -0.3837 -0.6723  1.6160
 1591TIP3   OH226331   5.008   4.944   1.268  0.1774  0.2163 -0.2272
 1591TIP3    H126332   5.018   4.871   1.329  1.4836  0.6612  0.1215
 1591TIP3    H226333   4.983   4.902   1.185 -1.8571 -0.3604  0.6280
 1592TIP3   OH226334   6.471   5.513   7.471  0.3507 -0.2628 -0.5773
 1592TIP3    H126335   6.426   5.561   7.541 -0.4935 -1.6985 -0.0761
 1592TIP3    H226336   6.562   5.510   7.498  0.1053 -0.4176  0.2535
 1593TIP3   OH226337   2.700   0.750   2.255  0.2679 -0.3882 -0.2954
 1593TIP3    H126338   2.625   0.729   2.311  0.4326 -2.0682 -0.6625
 1593TIP3    H226339   2.777   0.729   2.308  0.5190  1.2721  0.0576
 1594TIP3   OH226340   4.461   5.156   0.202  0.0639 -0.3155 -0.4534
 1594TIP3    H126341   4.372   5.144   0.235  1.0365 -4.1604  1.3727
 1594TIP3    H226342   4.458   5.124   0.112 -0.6126  0.8156 -0.8501
 1595TIP3   OH226343   0.519   3.640   7.257 -0.7545 -0.7339  0.2823
 1595TIP3    H126344   0.426   3.627   7.271 -0.9898  0.6810  0.2204
 1595TIP3    H226345   0.547   3.564   7.205 -2.2484 -0.3019 -1.2332
 1596TIP3   OH226346   2.017   1.076   1.204  0.1227  0.2166 -0.0865
 1596TIP3    H126347   2.098   1.029   1.222  0.2182  1.0326  1.9111
 1596TIP3    H226348   2.044   1.165   1.183 -0.1968  0.0926 -1.0849
 1597TIP3   OH226349   3.776   3.092   2.646 -0.4199  0.3085  0.2869
 1597TIP3    H126350   3.730   3.105   2.563  1.0479  1.3877 -0.4107
 1597TIP3    H226351   3.784   2.997   2.655 -0.4239  0.1754 -0.9213
 1598TIP3   OH226352   0.430   3.958   0.411  0.0420 -0.3096  0.5721
 1598TIP3    H126353   0.402   3.977   0.321  1.9620 -0.5761 -0.1460
 1598TIP3    H226354   0.387   4.025   0.464  0.0061  0.7714 -0.7643
 1599TIP3   OH226355   4.467   1.187   2.023  0.7278 -0.9457 -0.3002
 1599TIP3    H126356   4.448   1.175   2.116 -1.0783 -1.2033 -0.6744
 1599TIP3    H226357   4.439   1.276   2.003  2.7794 -0.2389 -0.2419
 1600TIP3   OH226358   3.268   3.896   1.707 -0.1862  0.2936 -0.0813
 1600TIP3    H126359   3.225   3.838   1.644 -0.3111  0.0472  0.2293
 1600TIP3    H226360   3.348   3.924   1.663 -0.6797  0.7903 -0.6820
 1601TIP3   OH226361   2.398   3.490   6.832 -0.4274  0.0588  0.7794
 1601TIP3    H126362   2.493   3.492   6.819 -0.2429 -1.0909  1.8739
 1601TIP3    H226363   2.365   3.436   6.760 -0.3105  0.7771  0.1720
 1602TIP3   OH226364   4.040   1.699   2.717 -0.4997 -0.3125  0.4490
 1602TIP3    H126365   4.063   1.791   2.706  0.4287 -0.5848 -0.0211
 1602TIP3    H226366   3.954   1.700   2.757 -0.5001  0.7627  0.4412
 1603TIP3   OH226367   0.147   1.957   8.037 -0.4415 -0.4794 -0.1087
 1603TIP3    H126368   0.073   2.015   8.055  0.2774  1.1697 -2.1722
 1603TIP3    H226369   0.153   1.954   7.942  2.7726  0.2960 -0.0487
 1604TIP3   OH226370   6.475   1.474   0.553  0.1239  0.4068 -0.2041
 1604TIP3    H126371   6.416   1.435   0.487 -0.3123 -0.7593  0.8373
 1604TIP3    H226372   6.416   1.510   0.619  0.5670  1.4939 -0.3810
 1605TIP3   OH226373   5.269   3.673   2.043  0.0736 -0.0599 -0.4477
 1605TIP3    H126374   5.285   3.649   2.134  1.0701 -0.7520 -0.7844
 1605TIP3    H226375   5.196   3.619   2.015  0.9300 -1.1951 -0.5700
 1606TIP3   OH226376   1.771   6.022   2.110 -0.0910  0.2081  0.3390
 1606TIP3    H126377   1.788   6.095   2.051 -0.4895 -1.0883 -1.4940
 1606TIP3    H226378   1.806   6.050   2.195 -0.2603  2.4899 -0.2831
 1607TIP3   OH226379   1.435   2.400   7.789  0.0210 -0.1155  0.3977
 1607TIP3    H126380   1.362   2.460   7.805  0.1906  0.7196 -1.6434
 1607TIP3    H226381   1.464   2.374   7.876 -2.5450 -0.2910  1.2809
 1608TIP3   OH226382   2.690   2.233   2.082 -0.0375 -0.2372 -0.1376
 1608TIP3    H126383   2.735   2.251   1.999  0.8100  0.4579  0.4523
 1608TIP3    H226384   2.719   2.302   2.141 -0.3474 -0.9154  0.8459
 1609TIP3   OH226385   0.017   1.822   0.201 -0.1527  0.2128 -0.5654
 1609TIP3    H126386  -0.022   1.909   0.208 -1.1307 -0.2914  0.5311
 1609TIP3    H226387  -0.054   1.766   0.171 -0.3490 -0.7358  1.5280
 1610TIP3   OH226388   4.461   5.896   0.390  0.1367  0.2237  0.2010
 1610TIP3    H126389   4.481   5.964   0.454  2.0551 -0.4129  0.3534
 1610TIP3    H226390   4.512   5.920   0.312  0.3754 -0.6886  0.0569
 1611TIP3   OH226391   6.368   3.626   1.795  0.3952  0.2031  0.3013
 1611TIP3    H126392   6.353   3.658   1.884  2.3403  2.0978  0.0434
 1611TIP3    H226393   6.437   3.560   1.804  0.2874  0.0827  0.2462
 1612TIP3   OH226394   1.803   0.895   1.930  0.2922 -0.3357  0.4495
 1612TIP3    H126395   1.899   0.897   1.931  0.2749  0.6486  0.6943
 1612TIP3    H226396   1.781   0.802   1.921  1.2724 -0.5283 -0.1090
 1613TIP3   OH226397   6.435   1.265   1.022  0.0810  0.3603  0.0285
 1613TIP3    H126398   6.421   1.281   1.116  0.8824  0.7895  0.0877
 1613TIP3    H226399   6.355   1.297   0.980  0.8889  3.0781  0.3135
 1614TIP3   OH226400   0.076   3.688   8.277  0.0369 -0.1045 -0.6960
 1614TIP3    H126401   0.133   3.742   8.331  2.0741 -2.5108 -0.2380
 1614TIP3    H226402   0.063   3.608   8.329 -2.2896 -0.3835 -1.5955
 1615TIP3   OH226403   6.400   4.957   7.003  0.4754  0.0622 -0.1753
 1615TIP3    H126404   6.387   4.864   7.022  1.7394 -0.0547  0.1365
 1615TIP3    H226405   6.488   4.976   7.033  0.5469  1.1644 -1.0317
 1616TIP3   OH226406   3.592   4.301   7.863  0.4460  0.0517 -0.0235
 1616TIP3    H126407   3.622   4.366   7.928 -0.4425  0.5676 -0.1105
 1616TIP3    H226408   3.627   4.218   7.895  1.6463  0.5682  0.0705
 1617TIP3   OH226409   3.151   3.526   1.909  0.4283  0.5512  0.1486
 1617TIP3    H126410   3.138   3.503   1.817 -0.7966 -1.3361  0.7386
 1617TIP3    H226411   3.172   3.620   1.908 -0.0900  0.6837 -2.0036
 1618TIP3   OH226412   0.841   2.282   7.056 -0.5461 -0.2263  0.2633
 1618TIP3    H126413   0.843   2.357   7.115  0.8618 -0.3271  0.3730
 1618TIP3    H226414   0.911   2.299   6.993  1.9766 -2.8964  2.1350
 1619TIP3   OH226415   5.698   6.086   1.446 -0.1195 -0.6651 -0.3627
 1619TIP3    H126416   5.715   6.177   1.427 -1.4959  0.0573  1.4771
 1619TIP3    H226417   5.629   6.061   1.385  1.0643 -0.8754 -1.6634
 1620TIP3   OH226418   0.914   5.010   0.578 -0.7403  0.0682 -0.2477
 1620TIP3    H126419   0.952   5.093   0.607 -0.2351 -0.4673  0.6598
 1620TIP3    H226420   0.989   4.957   0.551 -1.0989  0.0580 -1.2405
 1621TIP3   OH226421   1.248   2.468   8.461 -0.3977  0.5168 -0.8277
 1621TIP3    H126422   1.277   2.523   8.534  3.2390 -1.2678 -0.7083
 1621TIP3    H226423   1.207   2.529   8.400 -0.9719  2.5128  1.3987
 1622TIP3   OH226424   2.839   5.273   0.841 -0.1341 -0.2398 -0.6697
 1622TIP3    H126425   2.878   5.324   0.912 -1.6201  0.3902 -0.2595
 1622TIP3    H226426   2.766   5.327   0.810  0.4880 -0.4900 -2.7148
 1623TIP3   OH226427   0.470   0.494   7.272  0.0487 -0.1393 -0.1539
 1623TIP3    H126428   0.409   0.563   7.248 -1.1299 -1.1853 -0.2819
 1623TIP3    H226429   0.548   0.511   7.219 -0.9737 -0.0539 -1.6959
 1624TIP3   OH226430   2.804   3.093   2.546  0.2288 -0.1718  0.8867
 1624TIP3    H126431   2.771   3.009   2.516 -1.6572  0.2894  1.4934
 1624TIP3    H226432   2.795   3.152   2.471  1.2816 -0.4154  0.5497
 1625TIP3   OH226433   4.186   4.881   7.816 -0.0735  0.1421  0.5023
 1625TIP3    H126434   4.144   4.798   7.793 -1.5304  0.2573  2.5102
 1625TIP3    H226435   4.178   4.935   7.738  0.5904 -1.4522 -0.7254
 1626TIP3   OH226436   4.436   2.546   0.677  0.0112 -0.1253 -0.0401
 1626TIP3    H126437   4.346   2.572   0.697  0.1310  0.0204  0.3162
 1626TIP3    H226438   4.443   2.556   0.582 -0.7267 -1.3343 -0.2450
 1627TIP3   OH226439   1.207   6.147   1.291 -0.3372 -0.2276  0.0982
 1627TIP3    H126440   1.121   6.155   1.250 -0.1421 -1.2765 -0.5527
 1627TIP3    H226441   1.267   6.134   1.218  0.3852  0.4834  0.5484
 1628TIP3   OH226442   3.734   5.003   7.732  0.1612 -0.2157 -0.3557
 1628TIP3    H126443   3.766   4.930   7.679 -0.6276  0.9201 -2.5557
 1628TIP3    H226444   3.708   4.964   7.815  1.0264 -2.1840 -0.9593
 1629TIP3   OH226445   4.817   1.274   7.777 -0.1836  0.2218 -0.2886
 1629TIP3    H126446   4.800   1.214   7.704 -1.4649 -1.3722  1.2397
 1629TIP3    H226447   4.890   1.234   7.824 -0.3123  0.4593  0.1127
 1630TIP3   OH226448   1.810   3.162   1.182 -0.3470 -0.0056  0.0152
 1630TIP3    H126449   1.821   3.068   1.194  2.7042  0.6013  3.4749
 1630TIP3    H226450   1.831   3.177   1.089  0.1487 -2.5750 -0.3666
 1631TIP3   OH226451   3.973   0.156   2.752 -0.0042  0.0330 -0.0974
 1631TIP3    H126452   3.944   0.068   2.774  1.4483 -0.3763  0.3201
 1631TIP3    H226453   4.067   0.156   2.771  0.3600  1.1759 -1.6532
 1632TIP3   OH226454   5.439   5.723   2.286  0.5137 -0.0924 -0.4464
 1632TIP3    H126455   5.416   5.677   2.367  0.9419  0.9904  0.3175
 1632TIP3    H226456   5.365   5.707   2.228 -0.4041  0.1776  0.6193
 1633TIP3   OH226457   6.755   4.091   3.075 -0.7039  0.2964 -0.0354
 1633TIP3    H126458   6.836   4.139   3.064 -1.2269  1.0430 -0.7196
 1633TIP3    H226459   6.770   4.007   3.031 -0.8003  1.0042 -1.4504
 1634TIP3   OH226460   4.627   5.317   2.032 -0.0940 -0.1150  0.3878
 1634TIP3    H126461   4.676   5.365   1.965  1.5922 -3.3583 -0.9178
 1634TIP3    H226462   4.547   5.288   1.986 -0.3537  0.0930  0.7021
 1635TIP3   OH226463   3.848   0.082   0.327  0.2067 -0.0311 -0.2831
 1635TIP3    H126464   3.861  -0.004   0.286  1.2221  0.7860 -1.7502
 1635TIP3    H226465   3.885   0.073   0.414 -2.3460 -1.9400  0.7357
 1636TIP3   OH226466   2.000   6.699   1.188  0.3523  0.2894 -1.0435
 1636TIP3    H126467   2.001   6.677   1.095 -1.3470 -0.5731 -0.9042
 1636TIP3    H226468   1.920   6.659   1.221  1.3519 -0.1743  0.9871
 1637TIP3   OH226469   3.917   1.080   0.802 -0.0168  0.4914  0.4046
 1637TIP3    H126470   3.980   1.031   0.854 -0.9490 -1.4970 -0.2113
 1637TIP3    H226471   3.969   1.144   0.753  0.9816  1.7084  2.9093
 1638TIP3   OH226472   1.090   6.709   7.348  0.5693  0.3967 -0.1659
 1638TIP3    H126473   1.100   6.637   7.411  0.3564  0.4034 -0.1236
 1638TIP3    H226474   1.100   6.668   7.262  0.1036  0.2538 -0.1555
 1639TIP3   OH226475   5.697   6.777   1.284  0.0131  0.1292 -0.0746
 1639TIP3    H126476   5.761   6.708   1.302 -0.5447 -0.0302  1.3879
 1639TIP3    H226477   5.638   6.738   1.219 -0.7935 -1.1186  1.3437
 1640TIP3   OH226478   6.745   1.597   7.638  0.3760  0.0279 -0.0286
 1640TIP3    H126479   6.772   1.534   7.704  1.7190  1.3947  0.7778
 1640TIP3    H226480   6.651   1.581   7.626  0.2685 -0.7497  1.6452
 1641TIP3   OH226481   0.736   5.912   8.095  0.2109  0.7396 -0.0789
 1641TIP3    H126482   0.740   5.821   8.065  1.0433  0.8165 -0.2245
 1641TIP3    H226483   0.793   5.960   8.035 -0.2326  1.3648 -0.0100
 1642TIP3   OH226484   6.333   4.183   3.175  0.4610  0.3464 -0.2497
 1642TIP3    H126485   6.305   4.257   3.122  1.8547 -0.9842 -3.0945
 1642TIP3    H226486   6.317   4.210   3.265 -0.0584  3.6429 -1.1998
 1643TIP3   OH226487   1.814   5.445   8.042 -0.5402 -0.6328 -0.0768
 1643TIP3    H126488   1.751   5.490   8.098 -0.3859  0.7896 -0.9976
 1643TIP3    H226489   1.855   5.381   8.100  0.1384  1.2591  1.6646
 1644TIP3   OH226490   4.143   1.089   2.658  0.4794  0.1590 -0.0669
 1644TIP3    H126491   4.134   1.025   2.588 -1.3477 -1.0975  1.2117
 1644TIP3    H226492   4.160   1.172   2.614  1.2191 -0.9086 -1.8687
 1645TIP3   OH226493   4.293   4.025   0.864  0.7816  0.0688  0.2182
 1645TIP3    H126494   4.285   3.931   0.877  3.5485 -0.1324  0.9729
 1645TIP3    H226495   4.203   4.054   0.846 -0.1808 -2.6373  0.1918
 1646TIP3   OH226496   6.446   3.393   8.499  0.0245 -0.0596 -0.1047
 1646TIP3    H126497   6.526   3.434   8.465  1.5638 -1.5043  1.5125
 1646TIP3    H226498   6.419   3.333   8.430  2.1602 -1.7641  0.4026
 1647TIP3   OH226499   3.530   6.537   1.972  0.1877  0.4588  0.2509
 1647TIP3    H126500   3.435   6.529   1.971  0.2562 -0.9341  1.7968
 1647TIP3    H226501   3.557   6.498   2.055  2.1125  0.8710 -0.1342
 1648TIP3   OH226502   5.779   0.018   7.467  0.1806  0.1233  0.0593
 1648TIP3    H126503   5.692   0.015   7.427 -0.4993  1.8708  1.2698
 1648TIP3    H226504   5.828   0.082   7.414  0.4841 -0.2724 -0.1459
 1649TIP3   OH226505   3.029   0.243   7.481  0.8949  0.5153  0.0456
 1649TIP3    H126506   3.036   0.154   7.447 -0.7192  0.8422 -1.2738
 1649TIP3    H226507   3.113   0.260   7.522  0.0753 -3.0352  3.9270
 1650TIP3   OH226508   0.048   5.122   7.128 -0.5169 -0.2291 -0.4020
 1650TIP3    H126509   0.018   5.210   7.151 -1.7511 -0.1973 -1.9294
 1650TIP3    H226510   0.141   5.133   7.109 -0.3963  0.5001  0.5380
 1651TIP3   OH226511   1.374   3.360   8.055  0.0654 -0.3077 -0.2958
 1651TIP3    H126512   1.314   3.416   8.104  0.2448 -0.1799 -0.2228
 1651TIP3    H226513   1.417   3.306   8.121  2.3257  1.7433  0.0285
 1652TIP3   OH226514   4.008   4.046   1.643 -0.6165 -0.1302  0.7999
 1652TIP3    H126515   3.919   4.015   1.628 -0.2530 -1.1904  0.7975
 1652TIP3    H226516   4.063   3.993   1.585  0.1667 -0.4311  1.7793
 1653TIP3   OH226517   5.240   6.499   1.533  0.1321 -0.4493  0.1298
 1653TIP3    H126518   5.335   6.507   1.534  0.1121 -0.2905  1.2236
 1653TIP3    H226519   5.224   6.406   1.516  0.4717 -0.4403 -0.2645
 1654TIP3   OH226520   0.559   4.508   8.748  0.2923  0.2674 -0.6064
 1654TIP3    H126521   0.500   4.584   8.745  0.6873  0.5618 -1.4974
 1654TIP3    H226522   0.599   4.507   8.661  1.0714 -0.3463 -0.2455
 1655TIP3   OH226523   4.739   0.981   1.348  0.6984 -0.3624  0.3499
 1655TIP3    H126524   4.741   0.935   1.264  1.0431  2.0727 -1.0906
 1655TIP3    H226525   4.831   0.996   1.368  0.6247 -1.1396  1.3182
 1656TIP3   OH226526   4.367   5.253   7.155 -0.4639  0.7109  0.4150
 1656TIP3    H126527   4.359   5.260   7.250 -1.5272  0.0524  0.3905
 1656TIP3    H226528   4.457   5.282   7.136 -0.2109  0.7623  1.6192
 1657TIP3   OH226529   5.895   4.166   7.733  0.3943 -0.2606 -0.5374
 1657TIP3    H126530   5.965   4.124   7.782  0.8080  0.6860 -0.2863
 1657TIP3    H226531   5.904   4.259   7.753 -0.3536 -0.0189 -1.2415
 1658TIP3   OH226532   2.137   2.613   2.390 -0.1990 -0.2308  0.1144
 1658TIP3    H126533   2.077   2.565   2.333  0.3062  0.5362 -1.0879
 1658TIP3    H226534   2.163   2.548   2.456 -0.2639 -1.3387 -0.9182
 1659TIP3   OH226535   3.622   0.821   3.230  0.7747 -0.0503 -0.6782
 1659TIP3    H126536   3.663   0.736   3.238  2.4590  0.8188  0.5513
 1659TIP3    H226537   3.536   0.803   3.191  1.3484 -2.1968 -1.0577
 1660TIP3   OH226538   4.100   6.534   0.999 -0.2886  0.4175 -0.7387
 1660TIP3    H126539   4.071   6.590   0.927  0.3007  1.3444 -0.2783
 1660TIP3    H226540   4.169   6.585   1.043 -1.0535  0.1493  0.8552
 1661TIP3   OH226541   1.031   5.650   6.939  0.3873 -0.4773 -0.1561
 1661TIP3    H126542   1.078   5.723   6.900  3.9632 -2.2019  0.5046
 1661TIP3    H226543   1.000   5.599   6.864 -2.0347  1.4592 -0.6193
 1662TIP3   OH226544   5.046   4.707   1.405 -0.3560  0.4401  0.0954
 1662TIP3    H126545   5.001   4.655   1.471 -2.2443  0.8343 -0.7843
 1662TIP3    H226546   5.134   4.721   1.440  0.1580 -2.9844  0.5121
 1663TIP3   OH226547   5.807   3.316   8.235 -0.2518 -0.3501  0.3799
 1663TIP3    H126548   5.814   3.270   8.319 -1.3588  0.5531  0.9897
 1663TIP3    H226549   5.727   3.282   8.195 -0.6377  0.4349  0.4673
 1664TIP3   OH226550   2.650   0.789   8.425 -0.2598 -0.0048  0.4267
 1664TIP3    H126551   2.651   0.711   8.480 -0.3418  0.6232  1.3579
 1664TIP3    H226552   2.656   0.862   8.487  0.2939  0.7194 -0.4449
 1665TIP3   OH226553   5.552   1.575   2.165 -0.1208 -0.2941 -0.5560
 1665TIP3    H126554   5.617   1.583   2.234 -0.4336 -0.7436 -0.2035
 1665TIP3    H226555   5.548   1.481   2.146 -0.8716 -0.3079 -0.3734
 1666TIP3   OH226556   4.604   2.469   8.273 -0.7551 -0.4231  0.5455
 1666TIP3    H126557   4.641   2.547   8.315  1.6309 -0.6627 -0.9119
 1666TIP3    H226558   4.550   2.503   8.202 -1.0137 -0.0751  0.9092
 1667TIP3   OH226559   2.991   2.245   8.270 -0.1916 -0.4338 -0.7077
 1667TIP3    H126560   3.005   2.338   8.251 -1.9896  0.0965  0.3731
 1667TIP3    H226561   3.080   2.209   8.275  0.7137  1.7697  1.3433
 1668TIP3   OH226562   3.545   5.272   7.804  0.3975  0.0434 -0.1489
 1668TIP3    H126563   3.505   5.309   7.726 -0.9615 -0.0249  0.4799
 1668TIP3    H226564   3.600   5.342   7.838  1.6901 -0.2222 -1.6091
 1669TIP3   OH226565   2.046   5.731   7.749  0.2560  0.1288 -0.1317
 1669TIP3    H126566   1.976   5.795   7.759  0.5299  0.4134 -0.0016
 1669TIP3    H226567   2.001   5.648   7.733 -0.1755  0.0087  1.5111
 1670TIP3   OH226568   3.361   0.585   7.599  0.3848 -0.0631  0.2772
 1670TIP3    H126569   3.323   0.628   7.522  0.8099  0.5811  0.4203
 1670TIP3    H226570   3.447   0.556   7.569 -0.2619 -1.6961 -0.1078
 1671TIP3   OH226571   3.467   1.870   2.400 -0.8953  0.0925  0.5897
 1671TIP3    H126572   3.472   1.779   2.430 -0.5958 -0.7259 -1.7388
 1671TIP3    H226573   3.558   1.899   2.395 -0.7830 -0.4082 -1.1086
 1672TIP3   OH226574   5.336   1.528   7.728 -0.2001 -0.1034 -0.4343
 1672TIP3    H126575   5.314   1.516   7.821 -0.4662  0.0922 -0.4717
 1672TIP3    H226576   5.431   1.521   7.725 -0.0956  0.9344  0.0107
 1673TIP3   OH226577   4.577   1.640   1.618 -0.2174  0.0634 -0.6458
 1673TIP3    H126578   4.582   1.735   1.630  0.4561 -0.0324 -0.0926
 1673TIP3    H226579   4.651   1.605   1.669  0.8540 -0.6174 -2.5663
 1674TIP3   OH226580   4.090   1.181   7.747 -0.4178 -0.1631 -0.0813
 1674TIP3    H126581   4.043   1.107   7.709 -0.9658  0.9962 -1.7396
 1674TIP3    H226582   4.026   1.251   7.752 -0.0301  0.1272  1.9113
 1675TIP3   OH226583   3.575   4.693   6.692 -0.2261 -0.1962 -0.3317
 1675TIP3    H126584   3.540   4.604   6.692 -0.3037 -0.4167  4.0170
 1675TIP3    H226585   3.500   4.749   6.673 -0.8008 -0.9894 -0.4428
 1676TIP3   OH226586   5.234   0.699   8.588 -0.2424  0.4120 -0.1082
 1676TIP3    H126587   5.166   0.754   8.548 -0.8894 -0.2491  0.0643
 1676TIP3    H226588   5.232   0.723   8.681 -0.7139 -0.0916  0.0144
 1677TIP3   OH226589   6.147   0.204   7.469  0.2690 -0.2560 -0.2718
 1677TIP3    H126590   6.141   0.293   7.434  1.7294  0.2418  0.6779
 1677TIP3    H226591   6.234   0.174   7.444 -0.3697 -1.6106 -0.9616
 1678TIP3   OH226592   3.175   1.390   2.655  0.7226 -0.4878 -0.1038
 1678TIP3    H126593   3.258   1.359   2.692  1.1164 -0.4147 -0.9040
 1678TIP3    H226594   3.167   1.343   2.572  1.9994  2.4346 -2.0188
 1679TIP3   OH226595   6.280   6.522   8.265  0.1912  0.8079 -0.0715
 1679TIP3    H126596   6.192   6.489   8.244  0.2693  0.3380  0.3445
 1679TIP3    H226597   6.325   6.524   8.181 -0.0788  0.6416 -0.2227
 1680TIP3   OH226598   2.333   3.511   1.395  0.2081 -0.0635  0.0184
 1680TIP3    H126599   2.351   3.418   1.408  0.4867 -0.1410 -0.8151
 1680TIP3    H226600   2.308   3.544   1.481 -0.1146 -0.9603  0.2749
 1681TIP3   OH226601   2.942   2.166   7.413  0.0994 -0.2136 -1.1692
 1681TIP3    H126602   2.901   2.245   7.377 -2.7548  0.2549  2.4946
 1681TIP3    H226603   2.886   2.094   7.384 -0.9484 -0.0803  0.4246
 1682TIP3   OH226604   4.377   5.629   1.651 -0.1983  0.4935 -0.1713
 1682TIP3    H126605   4.467   5.608   1.677  1.2320  2.5914 -2.8652
 1682TIP3    H226606   4.362   5.718   1.684 -1.8408 -0.2603  1.3038
 1683TIP3   OH226607   3.116   2.652   7.078  0.0715 -0.2200  0.0471
 1683TIP3    H126608   3.112   2.670   6.983  0.1929 -0.0181  0.0795
 1683TIP3    H226609   3.166   2.725   7.114 -0.5588  0.0723  0.3570
 1684TIP3   OH226610   4.160   0.521   0.624 -0.3310  0.1663 -0.3813
 1684TIP3    H126611   4.157   0.597   0.567 -0.3303 -0.8234 -1.7624
 1684TIP3    H226612   4.194   0.451   0.568  0.2420 -0.7082  1.0076
 1685TIP3   OH226613   2.767   3.315   8.655  0.5400  0.2662  0.0908
 1685TIP3    H126614   2.792   3.223   8.663 -0.5030  0.0167  0.7181
 1685TIP3    H226615   2.795   3.355   8.738 -1.0647 -0.0218  0.8092
 1686TIP3   OH226616   6.283   2.361   7.750 -0.2453  0.3449  0.1125
 1686TIP3    H126617   6.340   2.378   7.675  0.3273  1.2895  0.7366
 1686TIP3    H226618   6.295   2.438   7.807  0.4281 -0.9579  1.8506
 1687TIP3   OH226619   0.034   0.598   0.306  0.4104  0.0810  0.0060
 1687TIP3    H126620   0.098   0.664   0.283 -0.7133  1.5359  0.8650
 1687TIP3    H226621  -0.043   0.618   0.253 -0.9752  1.3550  2.2920
 1688TIP3   OH226622   0.574   5.125   2.145 -0.4181 -0.5674 -0.2419
 1688TIP3    H126623   0.630   5.202   2.157 -0.2892 -0.2908 -2.2079
 1688TIP3    H226624   0.514   5.127   2.219 -0.3851  1.4130 -0.2066
 1689TIP3   OH226625   6.435   5.378   7.712 -0.5330  0.8856  0.5507
 1689TIP3    H126626   6.437   5.343   7.623 -1.0493 -0.1659  0.9422
 1689TIP3    H226627   6.516   5.347   7.752 -1.4719 -0.7779  1.2229
 1690TIP3   OH226628   0.125   1.146   0.897  0.2198  0.4713 -0.8527
 1690TIP3    H126629   0.055   1.118   0.837  1.1133 -3.0535 -0.4661
 1690TIP3    H226630   0.106   1.101   0.979  2.2538  0.4323 -0.3516
 1691TIP3   OH226631   0.276   1.531   2.633  0.9262 -0.5375  0.1416
 1691TIP3    H126632   0.213   1.513   2.702  0.6772 -0.8549 -0.1671
 1691TIP3    H226633   0.326   1.606   2.665  0.0084  0.0840  0.1355
 1692TIP3   OH226634   5.309   4.582   1.036 -0.0598 -0.2025  0.4936
 1692TIP3    H126635   5.355   4.663   1.056  0.9538 -0.3454 -1.0706
 1692TIP3    H226636   5.257   4.603   0.958 -1.2892 -0.5386  1.2083
 1693TIP3   OH226637   2.967   0.085   0.276 -0.1235 -0.3015  0.1216
 1693TIP3    H126638   2.878   0.101   0.247  0.2352  0.0125 -0.8409
 1693TIP3    H226639   3.019   0.151   0.230  0.4971  0.1070  1.3490
 1694TIP3   OH226640   2.913   5.208   1.596 -0.3779 -0.0413 -0.2078
 1694TIP3    H126641   2.839   5.147   1.589 -1.1116  0.6952  0.9272
 1694TIP3    H226642   2.881   5.278   1.652  1.2069  0.2704  0.3415
 1695TIP3   OH226643   0.733   6.386   1.962  0.1235  0.3114  0.0351
 1695TIP3    H126644   0.687   6.466   1.988  1.5589  0.8547  0.9981
 1695TIP3    H226645   0.786   6.362   2.038  0.3345 -1.1169 -0.5256
 1696TIP3   OH226646   5.305   0.241   1.404 -0.1760  0.7079 -0.4893
 1696TIP3    H126647   5.315   0.162   1.458  0.6533  0.9367 -0.2922
 1696TIP3    H226648   5.284   0.310   1.467 -2.4475  0.3860 -0.8133
 1697TIP3   OH226649   1.315   3.819   7.454 -0.1478  0.2673 -0.8050
 1697TIP3    H126650   1.400   3.797   7.491 -1.6845 -2.1028  1.7033
 1697TIP3    H226651   1.314   3.776   7.368  0.9167 -0.2958 -0.5448
 1698TIP3   OH226652   4.966   5.482   0.444  0.5131  0.3455  0.1962
 1698TIP3    H126653   4.957   5.388   0.463  0.6448  0.6487  1.9088
 1698TIP3    H226654   4.879   5.508   0.414  0.3722 -0.2615  0.0565
 1699TIP3   OH226655   5.005   1.856   8.578 -0.5670 -0.2035  0.7204
 1699TIP3    H126656   4.974   1.920   8.513 -0.7179 -0.6888  0.3038
 1699TIP3    H226657   4.932   1.795   8.588 -0.1167 -0.7999  0.4660
 1700TIP3   OH226658   5.984   2.894   1.136  0.0069 -0.4021 -0.0500
 1700TIP3    H126659   5.900   2.895   1.183  0.4293 -0.7593  0.7260
 1700TIP3    H226660   6.042   2.843   1.192  1.3438  1.5677  0.4466
 1701TIP3   OH226661   3.675   1.996   7.647  0.1958 -0.9164  0.2700
 1701TIP3    H126662   3.603   2.054   7.622  0.6118 -0.0630  0.9783
 1701TIP3    H226663   3.634   1.932   7.706  0.4133  1.1273  2.8391
 1702TIP3   OH226664   4.903   1.328   7.164 -0.6089 -0.0362 -0.0442
 1702TIP3    H126665   4.884   1.421   7.151  0.2572  0.0734 -0.6056
 1702TIP3    H226666   4.841   1.283   7.107 -0.8649  0.2043  0.0394
 1703TIP3   OH226667   0.984   5.526   8.446  0.1140  0.4036 -0.0559
 1703TIP3    H126668   0.983   5.618   8.473 -1.2727  0.3922  0.0196
 1703TIP3    H226669   0.961   5.478   8.525  0.0215  0.0664 -0.2851
 1704TIP3   OH226670   4.233   2.615   0.023 -0.5065  0.4797 -0.1654
 1704TIP3    H126671   4.288   2.594  -0.053 -0.7427 -1.0389  0.0425
 1704TIP3    H226672   4.295   2.620   0.096 -0.3238  1.5791 -0.3814
 1705TIP3   OH226673   0.993   2.593   1.463  0.8946 -0.3051 -0.0470
 1705TIP3    H126674   1.073   2.644   1.472  0.4072  0.5226 -0.3025
 1705TIP3    H226675   0.970   2.568   1.553  0.2160  1.3987  0.2899
 1706TIP3   OH226676   0.122   3.312   0.212 -0.0331  0.3301  0.2772
 1706TIP3    H126677   0.093   3.249   0.277  2.7423 -0.2790  1.0529
 1706TIP3    H226678   0.186   3.366   0.258  0.7639  0.9734 -1.5058
 1707TIP3   OH226679   4.667   3.111   8.160  0.2469 -0.0400  0.0523
 1707TIP3    H126680   4.578   3.121   8.192  0.6773  0.2102  1.2280
 1707TIP3    H226681   4.702   3.200   8.155  0.1900 -0.0769 -1.1378
 1708TIP3   OH226682   2.662   1.524   1.921  0.2447  0.2538 -0.4749
 1708TIP3    H126683   2.754   1.502   1.910  0.3969 -0.6208  1.8706
 1708TIP3    H226684   2.658   1.572   2.004 -1.4696 -0.3281 -0.1632
 1709TIP3   OH226685   1.117   0.536   0.147 -0.0044 -0.2285 -0.0998
 1709TIP3    H126686   1.117   0.618   0.098 -1.0656  0.6910  1.3507
 1709TIP3    H226687   1.077   0.472   0.087  0.3642  0.4031 -1.0505
 1710TIP3   OH226688   4.992   2.746   0.439  0.0794  0.0488 -0.3341
 1710TIP3    H126689   4.973   2.820   0.382  1.3290 -1.1511 -2.4706
 1710TIP3    H226690   5.072   2.708   0.403 -0.4298 -2.2550  0.7354
 1711TIP3   OH226691   2.975   0.536   7.579 -0.4080  0.0421 -0.5138
 1711TIP3    H126692   3.007   0.545   7.668 -0.8318  2.2522 -0.5356
 1711TIP3    H226693   2.925   0.454   7.579  1.6162 -1.2595  0.6074
 1712TIP3   OH226694   5.749   2.607   8.027 -0.6099  0.4480 -0.1148
 1712TIP3    H126695   5.827   2.604   8.083 -0.2496 -1.7159 -0.6339
 1712TIP3    H226696   5.783   2.626   7.940 -0.9797  2.0147  0.0478
 1713TIP3   OH226697   3.940   6.607   8.321  0.4290  0.3047  0.1782
 1713TIP3    H126698   3.935   6.525   8.271  0.9243 -0.3309  1.1234
 1713TIP3    H226699   3.866   6.659   8.289  0.4620 -0.2642 -0.8714
 1714TIP3   OH226700   5.403   5.678   1.042  0.0627  0.2382  0.5552
 1714TIP3    H126701   5.471   5.681   1.108  1.7405  1.4720 -1.1200
 1714TIP3    H226702   5.424   5.749   0.982 -0.9067 -1.2591 -1.7227
 1715TIP3   OH226703   4.084   4.045   2.472 -0.2678  0.4695 -0.5927
 1715TIP3    H126704   4.178   4.048   2.456 -0.5494  0.4291 -2.4498
 1715TIP3    H226705   4.076   4.019   2.564  1.5285  1.8856  0.0121
 1716TIP3   OH226706   2.096   4.246   0.390  0.1858 -0.1657 -0.1077
 1716TIP3    H126707   2.037   4.305   0.344 -0.4483 -0.1500  0.7080
 1716TIP3    H226708   2.082   4.161   0.349  1.3192  0.2765 -1.4908
 1717TIP3   OH226709   6.098   0.409   7.689 -0.0749 -0.0763 -0.7778
 1717TIP3    H126710   6.123   0.317   7.694  1.6224  0.3854  0.0681
 1717TIP3    H226711   6.010   0.408   7.651 -0.5890 -2.1014  0.3003
 1718TIP3   OH226712   6.545   0.438   0.870  0.2460  0.4178  0.3127
 1718TIP3    H126713   6.530   0.431   0.775  0.1855 -1.0555  0.4090
 1718TIP3    H226714   6.640   0.437   0.880  0.2809  1.5289  0.2252
 1719TIP3   OH226715   1.650   2.746   1.244  0.2825 -0.0954 -0.3369
 1719TIP3    H126716   1.555   2.733   1.250 -0.1043  1.8711 -1.4761
 1719TIP3    H226717   1.680   2.676   1.185 -0.2201 -1.5514  1.0789
 1720TIP3   OH226718   4.690   2.238   2.228  0.2659 -0.1526  0.1632
 1720TIP3    H126719   4.625   2.175   2.259 -0.6490  0.3447 -0.6806
 1720TIP3    H226720   4.639   2.317   2.210  0.9633 -0.0400 -1.4195
 1721TIP3   OH226721   3.194   1.976   0.228 -0.0784 -0.3422 -0.1328
 1721TIP3    H126722   3.180   2.047   0.166  0.6002  0.9426  1.1179
 1721TIP3    H226723   3.284   1.988   0.258 -0.0129 -1.6254  0.2629
 1722TIP3   OH226724   5.939   1.241   0.340 -0.2122  0.0192  0.0771
 1722TIP3    H126725   5.946   1.336   0.338  0.8511 -0.0465  0.2598
 1722TIP3    H226726   5.853   1.224   0.379 -0.5993  0.8983 -0.3740
 1723TIP3   OH226727   1.071   4.229   2.044  0.1678  0.4699  0.3504
 1723TIP3    H126728   1.037   4.258   1.959 -0.0997  0.0768  0.3233
 1723TIP3    H226729   1.001   4.175   2.081  1.0206 -0.9370 -0.0178
 1724TIP3   OH226730   3.096   5.933   0.071 -0.2868  0.1898 -0.2135
 1724TIP3    H126731   3.121   5.964   0.158  0.1997  0.2597 -0.3758
 1724TIP3    H226732   3.106   6.010   0.014  1.0753 -0.2833 -0.6444
 1725TIP3   OH226733   6.350   0.291   0.340 -0.0097 -0.5040 -0.4163
 1725TIP3    H126734   6.255   0.284   0.343  0.1036 -2.1180  0.9741
 1725TIP3    H226735   6.381   0.201   0.344  1.5866 -0.0071 -0.8528
 1726TIP3   OH226736   6.197   4.279   2.042 -0.5580  0.0265  0.3162
 1726TIP3    H126737   6.271   4.223   2.018 -1.2101 -0.5218 -0.4549
 1726TIP3    H226738   6.236   4.351   2.092  0.3993 -0.6540  0.5653
 1727TIP3   OH226739   6.020   6.094   0.267 -0.2922 -0.1075  0.0957
 1727TIP3    H126740   6.087   6.102   0.199 -0.1258  0.4105  0.3143
 1727TIP3    H226741   5.998   6.001   0.268  0.7888 -0.3698  0.3597
 1728TIP3   OH226742   3.124   2.746   6.811  1.0698  0.2114 -0.1705
 1728TIP3    H126743   3.095   2.829   6.772  0.2545  0.1779  0.3481
 1728TIP3    H226744   3.206   2.726   6.766  2.6470  2.5646  1.4143
 1729TIP3   OH226745   2.506   2.518   8.258  0.2702 -0.0542  0.0950
 1729TIP3    H126746   2.600   2.522   8.278  0.0414  0.2530  1.1494
 1729TIP3    H226747   2.494   2.431   8.221  0.7440 -0.6187  1.2180
 1730TIP3   OH226748   3.511   3.971   1.148  0.1734  0.2033  0.5017
 1730TIP3    H126749   3.448   4.017   1.203 -1.2885  0.0284 -0.9454
 1730TIP3    H226750   3.576   4.037   1.126 -0.6577  0.9796  0.3006
 1731TIP3   OH226751   4.889   2.433   0.238 -0.1120  0.2932  0.1367
 1731TIP3    H126752   4.930   2.347   0.245 -0.9486  0.0406  3.3496
 1731TIP3    H226753   4.828   2.424   0.165  0.7474 -1.3979 -0.4372
 1732TIP3   OH226754   1.672   2.794   1.508 -0.1940  0.2348  0.1520
 1732TIP3    H126755   1.676   2.767   1.416 -1.6757  0.2619  0.0570
 1732TIP3    H226756   1.616   2.871   1.508 -1.3906 -0.5978  1.2386
 1733TIP3   OH226757   6.099   1.673   1.990 -0.2805 -0.4031 -0.0754
 1733TIP3    H126758   6.154   1.623   1.929 -0.6444 -1.2618  0.2912
 1733TIP3    H226759   6.154   1.685   2.068 -0.3052 -0.4937 -0.0447
 1734TIP3   OH226760   5.703   1.380   7.442 -0.8244  0.2341  0.2986
 1734TIP3    H126761   5.702   1.442   7.369 -0.2456 -0.3747 -0.2438
 1734TIP3    H226762   5.795   1.353   7.449 -1.1520 -0.9760  0.1570
 1735TIP3   OH226763   0.558   4.330   1.467  0.5820  0.2467  0.0804
 1735TIP3    H126764   0.573   4.403   1.407 -0.3008  1.7749  1.6356
 1735TIP3    H226765   0.600   4.357   1.549  1.7666 -1.7901  0.2261
 1736TIP3   OH226766   4.527   1.058   0.948  0.3615 -0.5470 -0.0921
 1736TIP3    H126767   4.500   0.971   0.977 -0.2702 -0.0951  0.6964
 1736TIP3    H226768   4.487   1.068   0.862 -0.9690 -0.3892  0.5238
 1737TIP3   OH226769   2.435   6.485   0.747 -1.1232  0.1577  0.0418
 1737TIP3    H126770   2.428   6.577   0.771  0.6614  0.1313  0.7984
 1737TIP3    H226771   2.389   6.438   0.816 -0.0658  0.3652  0.9021
 1738TIP3   OH226772   6.577   4.847   2.781 -0.0937 -0.3374 -0.7084
 1738TIP3    H126773   6.607   4.803   2.861  1.1998  0.1290 -0.9259
 1738TIP3    H226774   6.613   4.935   2.787 -1.2321  0.1710 -1.1102
 1739TIP3   OH226775   2.291   6.786   8.713  0.0690 -0.1298  0.1837
 1739TIP3    H126776   2.244   6.860   8.751 -0.2877 -0.1507 -0.2110
 1739TIP3    H226777   2.383   6.805   8.731 -0.1207 -0.5144  1.7295
 1740TIP3   OH226778   2.683   0.800   7.139  0.5458 -0.3456 -0.0619
 1740TIP3    H126779   2.769   0.797   7.181  0.5154  0.4807  0.0861
 1740TIP3    H226780   2.659   0.893   7.141 -0.8142 -0.6783  0.8440
 1741TIP3   OH226781   4.379   0.685   3.051 -0.2844 -0.0546  0.2387
 1741TIP3    H126782   4.380   0.613   2.988  0.5284  0.2624 -0.1260
 1741TIP3    H226783   4.286   0.699   3.071 -0.4758 -0.9087 -0.0132
 1742TIP3   OH226784   6.198   1.019   7.400  0.0308 -0.3108  0.0919
 1742TIP3    H126785   6.172   0.934   7.435  0.2479 -0.3106  0.2559
 1742TIP3    H226786   6.187   1.010   7.305  2.2776 -1.3107 -0.1378
 1743TIP3   OH226787   5.224   1.380   3.012 -0.0287  0.2280 -0.2458
 1743TIP3    H126788   5.307   1.391   3.059  0.1747  0.8242 -0.7325
 1743TIP3    H226789   5.159   1.421   3.069 -0.1239 -0.9154  0.4994
 1744TIP3   OH226790   6.418   1.810   8.157  0.3778  0.6013 -0.0566
 1744TIP3    H126791   6.408   1.766   8.241  1.1392  1.1505  0.3382
 1744TIP3    H226792   6.455   1.896   8.179  0.2792  0.8757 -0.9224
 1745TIP3   OH226793   1.528   1.636   2.308 -0.1035 -0.0151  0.5150
 1745TIP3    H126794   1.437   1.639   2.336 -0.1451  2.2499  0.3325
 1745TIP3    H226795   1.562   1.554   2.344 -2.6233 -1.7928 -0.8581
 1746TIP3   OH226796   5.206   0.848   1.527  0.2339  0.7422  0.0740
 1746TIP3    H126797   5.133   0.886   1.575  0.4628  0.9052  0.3002
 1746TIP3    H226798   5.166   0.797   1.457 -0.0882  1.0303  0.0476
 1747TIP3   OH226799   6.489   0.910   1.485  0.0821  0.0214  0.9071
 1747TIP3    H126800   6.394   0.903   1.476  0.1494 -1.6827  1.0921
 1747TIP3    H226801   6.503   0.939   1.575 -0.2601  0.3832  0.8462
 1748TIP3   OH226802   6.482   4.481   8.361  0.1628  0.2703 -0.4007
 1748TIP3    H126803   6.391   4.454   8.365  0.6779 -1.5005  2.5836
 1748TIP3    H226804   6.493   4.539   8.437  2.2824 -2.7451  1.8363
 1749TIP3   OH226805   3.737   0.777   1.245 -0.7921  0.7772  0.2234
 1749TIP3    H126806   3.828   0.760   1.270 -0.4987  1.9459 -0.0084
 1749TIP3    H226807   3.701   0.690   1.226  0.3217  0.3167  0.1425
 1750TIP3   OH226808   3.713   6.405   1.030  0.1686  0.6302  0.2015
 1750TIP3    H126809   3.773   6.414   1.104 -0.6878  1.3897  0.8250
 1750TIP3    H226810   3.626   6.399   1.070 -0.1245 -1.4789 -0.6313
 1751TIP3   OH226811   4.052   2.321   1.976 -0.2778 -0.4874  0.3303
 1751TIP3    H126812   4.101   2.334   1.895 -0.3794 -0.4956  0.2676
 1751TIP3    H226813   4.052   2.226   1.990 -1.3750 -0.6108 -0.3574
 1752TIP3   OH226814   3.487   4.086   0.292 -0.7948 -0.0686  0.0525
 1752TIP3    H126815   3.438   4.022   0.240  1.0076  1.5762 -4.1546
 1752TIP3    H226816   3.440   4.169   0.279  0.7788  0.7543 -0.8035
 1753TIP3   OH226817   0.348   0.514   1.655  0.3608 -0.9283 -0.2273
 1753TIP3    H126818   0.300   0.454   1.598  0.9431 -1.5951 -0.0390
 1753TIP3    H226819   0.297   0.515   1.736  0.3402 -1.1555 -0.2373
 1754TIP3   OH226820   2.294   0.636   0.203  0.2669  0.1285 -0.5289
 1754TIP3    H126821   2.346   0.684   0.267  0.7489 -1.3774  0.2639
 1754TIP3    H226822   2.316   0.544   0.219 -2.0787 -0.5111 -0.6931
 1755TIP3   OH226823   3.388   1.223   7.162 -0.1332 -0.7444 -0.5283
 1755TIP3    H126824   3.402   1.128   7.162  0.3975 -0.6734  0.4854
 1755TIP3    H226825   3.293   1.233   7.171 -0.0493 -1.1860  1.1875
 1756TIP3   OH226826   1.643   0.266   1.215  0.0382  0.6218 -0.1271
 1756TIP3    H126827   1.611   0.297   1.131 -0.4181  0.7858  0.1043
 1756TIP3    H226828   1.579   0.201   1.243  1.0817 -0.6906 -0.6895
 1757TIP3   OH226829   1.018   2.656   0.375  0.2877  0.7170 -0.0502
 1757TIP3    H126830   1.052   2.597   0.308  0.1657  0.2389  0.3039
 1757TIP3    H226831   0.993   2.735   0.327  2.3475  1.2984 -0.2674
 1758TIP3   OH226832   5.780   5.055   8.275 -0.3363  0.5154 -0.0951
 1758TIP3    H126833   5.737   4.971   8.260 -1.5393  0.5652  2.5547
 1758TIP3    H226834   5.856   5.054   8.217 -0.9606 -1.8963 -0.9666
 1759TIP3   OH226835   2.390   4.098   2.271  0.9418 -0.4609 -0.2836
 1759TIP3    H126836   2.448   4.167   2.237  0.4273  0.4009  0.5119
 1759TIP3    H226837   2.429   4.016   2.239  3.5733 -0.0732  1.5604
 1760TIP3   OH226838   1.393   1.579   8.415 -0.2309  0.8530 -0.3623
 1760TIP3    H126839   1.398   1.504   8.357  1.2051  0.8788 -0.3053
 1760TIP3    H226840   1.303   1.611   8.405 -1.3172 -1.6182  0.5988
 1761TIP3   OH226841   0.258   0.367   0.591 -0.2844  0.0352  0.1760
 1761TIP3    H126842   0.296   0.426   0.526 -0.1746  1.4098  1.4364
 1761TIP3    H226843   0.163   0.383   0.587 -0.5050 -1.3314 -0.9861
 1762TIP3   OH226844   2.926   3.597   0.568  0.6579  0.2026  0.2223
 1762TIP3    H126845   2.840   3.628   0.542  0.3392  2.4649  3.3548
 1762TIP3    H226846   2.987   3.644   0.511 -0.1102  0.2790 -0.5481
 1763TIP3   OH226847   4.344   4.940   0.948 -0.1157 -0.1265  0.3348
 1763TIP3    H126848   4.352   4.877   1.020 -0.8090 -0.5895  0.0227
 1763TIP3    H226849   4.326   4.886   0.871 -0.9299  0.4573  0.1034
 1764TIP3   OH226850   3.427   6.327   8.198 -0.6319  0.2885 -0.0970
 1764TIP3    H126851   3.414   6.267   8.125 -2.5859  0.9512 -0.3522
 1764TIP3    H226852   3.513   6.365   8.183  0.6210 -2.2496 -0.0186
 1765TIP3   OH226853   4.903   3.724   0.715 -0.0693  0.7258  0.4285
 1765TIP3    H126854   4.869   3.693   0.631  2.2015 -1.7457  0.3065
 1765TIP3    H226855   4.970   3.788   0.690 -0.4365  1.1283  0.4522
 1766TIP3   OH226856   4.551   1.557   0.909 -0.3620 -0.1871 -0.2625
 1766TIP3    H126857   4.544   1.652   0.916  1.5479 -0.0302  0.0636
 1766TIP3    H226858   4.534   1.525   0.998 -3.1556 -0.3824 -0.7767
 1767TIP3   OH226859   4.025   3.621   2.650  0.0332  0.2147 -0.0378
 1767TIP3    H126860   3.993   3.532   2.646  1.1084 -0.1862 -0.1356
 1767TIP3    H226861   4.024   3.651   2.559  0.3189  0.0631 -0.0905
 1768TIP3   OH226862   1.515   6.822   0.175  0.0063 -0.3972 -0.0150
 1768TIP3    H126863   1.575   6.796   0.105 -0.0347  1.9937 -1.0511
 1768TIP3    H226864   1.558   6.793   0.256  1.1286 -1.2895 -0.9056
 1769TIP3   OH226865   5.810   4.753   2.365 -0.3038  0.7363 -0.4176
 1769TIP3    H126866   5.752   4.815   2.321  0.8986  1.7924 -0.5908
 1769TIP3    H226867   5.785   4.667   2.331 -1.8613  1.1409 -0.3400
 1770TIP3   OH226868   3.417   1.023   1.953 -0.3272  0.9488 -0.2087
 1770TIP3    H126869   3.334   1.069   1.940 -0.7909  0.5634  1.1797
 1770TIP3    H226870   3.427   1.020   2.048 -0.5089 -2.1593 -0.1980
 1771TIP3   OH226871   3.935   0.511   6.801  0.0488 -0.1902 -0.0241
 1771TIP3    H126872   3.916   0.476   6.888 -0.9494  2.2911  0.8472
 1771TIP3    H226873   3.977   0.595   6.818 -0.8767  0.7106 -1.9268
 1772TIP3   OH226874   6.665   6.668   8.056  0.1942  0.0275 -0.1942
 1772TIP3    H126875   6.662   6.607   8.130  1.0614  0.3450  0.1162
 1772TIP3    H226876   6.720   6.624   7.991  0.8619  0.4815  0.0485
 1773TIP3   OH226877   5.708   1.134   2.324 -0.1930  0.3938  0.7696
 1773TIP3    H126878   5.684   1.191   2.250  3.5926 -0.4820 -1.4416
 1773TIP3    H226879   5.776   1.183   2.370  2.1530 -1.5601 -0.3651
 1774TIP3   OH226880   2.393   0.948   1.114 -0.2933  0.2987 -0.3176
 1774TIP3    H126881   2.352   0.911   1.036  0.9723 -1.3169 -0.2716
 1774TIP3    H226882   2.482   0.912   1.114 -0.0245  0.8493  1.4752
 1775TIP3   OH226883   0.716   0.494   1.588  0.4823  0.0383  0.3797
 1775TIP3    H126884   0.788   0.451   1.634  1.7257 -0.9329 -2.2597
 1775TIP3    H226885   0.708   0.445   1.506 -2.6215  0.7010  0.1894
 1776TIP3   OH226886   0.018   1.559   2.063 -0.0072 -0.0150  0.7272
 1776TIP3    H126887   0.032   1.654   2.071 -0.3393 -0.0566  2.1163
 1776TIP3    H226888   0.071   1.533   1.988 -0.1295  1.3174  0.1539
 1777TIP3   OH226889   1.911   2.127   6.684 -0.0633 -0.4236 -0.3044
 1777TIP3    H126890   1.932   2.220   6.695 -0.6346 -0.2279 -0.7942
 1777TIP3    H226891   1.816   2.122   6.697  0.0919 -1.0901  0.6415
 1778TIP3   OH226892   5.663   5.929   0.042 -0.0900  0.3714  0.0160
 1778TIP3    H126893   5.686   5.875   0.117  2.8378  0.4404 -0.7368
 1778TIP3    H226894   5.741   5.981   0.024 -0.6129  0.2963 -3.1153
 1779TIP3   OH226895   1.916   5.199   7.493  0.1500 -0.1059  0.9224
 1779TIP3    H126896   1.840   5.170   7.443  1.3424 -2.3002  0.2401
 1779TIP3    H226897   1.915   5.294   7.485 -3.2769  0.0851  2.1579
 1780TIP3   OH226898   4.297   5.842   1.368  0.5761 -0.0760 -0.0265
 1780TIP3    H126899   4.387   5.831   1.398  0.1393 -0.0723  1.3775
 1780TIP3    H226900   4.290   5.934   1.344  0.8489  0.0030  0.1935
 1781TIP3   OH226901   0.285   4.151   8.483 -0.2853  0.6116  0.2655
 1781TIP3    H126902   0.193   4.169   8.462 -1.1571 -0.6198  2.5558
 1781TIP3    H226903   0.301   4.200   8.564  1.1537  0.9777 -0.2228
 1782TIP3   OH226904   6.560   3.834   7.871  0.5514  0.4271 -0.5832
 1782TIP3    H126905   6.551   3.883   7.789  1.1517  0.8149 -0.4252
 1782TIP3    H226906   6.655   3.828   7.885  0.4881 -0.9057 -0.6623
 1783TIP3   OH226907   5.869   3.709   0.823  0.2265  0.3275  0.3533
 1783TIP3    H126908   5.902   3.715   0.733 -0.3604 -0.0674  0.0986
 1783TIP3    H226909   5.901   3.788   0.866  0.3889  0.5981 -0.2520
 1784TIP3   OH226910   2.222   3.708   7.424  0.2093  0.3387 -0.2965
 1784TIP3    H126911   2.302   3.741   7.383  0.1039  1.1073  0.0867
 1784TIP3    H226912   2.180   3.655   7.356  0.9107  0.1457 -0.5871
 1785TIP3   OH226913   4.194   5.851   7.961  0.2096 -0.1485  0.0114
 1785TIP3    H126914   4.201   5.906   7.884 -1.6050  0.6444  0.3443
 1785TIP3    H226915   4.199   5.912   8.035 -2.0735 -0.3066  0.3800
 1786TIP3   OH226916   6.164   5.694   8.629  0.0608 -0.2457 -0.0160
 1786TIP3    H126917   6.090   5.636   8.608 -0.5996  0.5449  0.0883
 1786TIP3    H226918   6.129   5.755   8.693  1.0653 -0.4069  0.7048
 1787TIP3   OH226919   2.482   0.992   8.329 -0.2784 -0.0904 -0.2457
 1787TIP3    H126920   2.560   0.948   8.297  0.1730  0.3833  0.1973
 1787TIP3    H226921   2.427   0.921   8.365 -0.5817 -0.5680 -1.6004
 1788TIP3   OH226922   3.163   3.127   1.030 -0.1077 -0.3851  0.2055
 1788TIP3    H126923   3.151   3.169   0.945 -0.2096  1.4483  1.0680
 1788TIP3    H226924   3.258   3.128   1.043 -0.0590 -1.0899 -0.0828
 1789TIP3   OH226925   6.776   5.826   8.599 -0.1604 -0.4755 -0.3659
 1789TIP3    H126926   6.720   5.751   8.580  0.9723 -0.8877 -2.4145
 1789TIP3    H226927   6.861   5.789   8.619 -0.2909  0.1909  1.6587
 1790TIP3   OH226928   4.142   5.282   1.995 -0.0638  0.1608 -0.3860
 1790TIP3    H126929   4.206   5.276   2.066 -0.1907  1.3792 -0.1395
 1790TIP3    H226930   4.186   5.332   1.926 -0.1248 -0.5633 -0.9635
 1791TIP3   OH226931   5.862   3.672   2.160 -1.0187 -0.2215 -0.3402
 1791TIP3    H126932   5.928   3.659   2.229 -1.4148 -0.5215 -0.0127
 1791TIP3    H226933   5.908   3.652   2.079 -0.2814  1.0507 -0.2524
 1792TIP3   OH226934   0.336   1.930   2.514  0.5331  0.4741  0.7180
 1792TIP3    H126935   0.359   1.907   2.604 -2.2503 -1.2970  1.0986
 1792TIP3    H226936   0.394   1.877   2.459 -0.2792 -1.3687  1.5576
 1793TIP3   OH226937   1.088   5.997   0.081 -0.3915 -0.0006  0.0477
 1793TIP3    H126938   1.174   6.034   0.101 -0.2223 -1.0853  1.5575
 1793TIP3    H226939   1.051   6.055   0.015  0.9693  1.2330  0.3221
 1794TIP3   OH226940   2.704   4.620   1.093 -0.2521  0.3287 -0.8012
 1794TIP3    H126941   2.756   4.680   1.147 -0.7654 -0.3726  0.5418
 1794TIP3    H226942   2.740   4.534   1.113 -0.2473  0.0813 -1.8583
 1795TIP3   OH226943   6.615   1.909   1.956  0.0944  0.3642 -0.2707
 1795TIP3    H126944   6.710   1.901   1.956 -0.0490 -1.9509  0.1044
 1795TIP3    H226945   6.586   1.845   1.891 -1.2271  0.5438  0.1136
 1796TIP3   OH226946   0.491   0.111   1.252 -0.1822  0.2112 -0.4938
 1796TIP3    H126947   0.445   0.027   1.252  0.1090  0.0394 -1.4852
 1796TIP3    H226948   0.495   0.136   1.159  2.8566 -0.4107 -0.6477
 1797TIP3   OH226949   4.021   0.880   8.158  0.1624 -0.4115 -0.5440
 1797TIP3    H126950   4.018   0.817   8.086 -0.7391  1.2529 -2.0482
 1797TIP3    H226951   4.104   0.926   8.146  0.4801 -0.8119  0.1045
 1798TIP3   OH226952   1.134   2.800   7.677  0.5872 -0.6262  0.1135
 1798TIP3    H126953   1.156   2.858   7.750 -1.3906  0.7441 -0.2859
 1798TIP3    H226954   1.113   2.860   7.605  3.0762 -1.9116 -1.8592
 1799TIP3   OH226955   0.702   0.656   2.302 -0.1238 -0.6700 -0.9439
 1799TIP3    H126956   0.664   0.631   2.386  0.0532 -0.5941 -0.8394
 1799TIP3    H226957   0.633   0.703   2.256 -0.9080 -2.4652 -1.6784
 1800TIP3   OH226958   1.103   1.817   8.123 -0.0137  0.0038  0.6266
 1800TIP3    H126959   1.018   1.792   8.159 -0.7965 -1.0840 -1.7373
 1800TIP3    H226960   1.127   1.743   8.067  0.1572  2.2775 -2.5491
 1801TIP3   OH226961   6.267   5.311   8.597  0.0090 -0.2782 -0.1322
 1801TIP3    H126962   6.298   5.229   8.635  0.6247 -0.6375 -1.3664
 1801TIP3    H226963   6.343   5.370   8.604 -0.1031 -0.1313 -0.1576
 1802TIP3   OH226964   2.985   3.114   0.279  0.4909 -0.3024 -0.0736
 1802TIP3    H126965   2.893   3.115   0.254  0.3694  1.1328  0.3257
 1802TIP3    H226966   2.985   3.093   0.372  0.5666 -0.2322 -0.0577
 1803TIP3   OH226967   0.311   2.342   1.437  0.3489  0.1261  0.5703
 1803TIP3    H126968   0.388   2.336   1.381  0.5085 -0.1112  0.8113
 1803TIP3    H226969   0.268   2.257   1.428  1.0379 -0.3737  1.7496
 1804TIP3   OH226970   0.914   0.037   8.177 -0.4443  0.1944 -0.4053
 1804TIP3    H126971   0.888  -0.016   8.102 -0.6334 -2.0501  1.1319
 1804TIP3    H226972   0.964  -0.023   8.232  1.8720  2.4392  0.1301
 1805TIP3   OH226973   1.202   3.062   8.107 -0.1082  0.0237  0.1361
 1805TIP3    H126974   1.119   3.015   8.099 -0.2102  0.4146 -1.6892
 1805TIP3    H226975   1.180   3.142   8.156 -0.3185 -0.9112  1.6021
 1806TIP3   OH226976   2.375   2.930   7.296 -0.3604 -0.4171  0.7710
 1806TIP3    H126977   2.365   2.988   7.220 -0.8525 -0.4439  0.8104
 1806TIP3    H226978   2.462   2.892   7.286  0.9206  1.9840  1.8837
 1807TIP3   OH226979   4.463   4.929   7.453  0.3207 -0.1163  0.5643
 1807TIP3    H126980   4.426   4.949   7.368 -0.5540  2.6188  1.4769
 1807TIP3    H226981   4.524   5.001   7.470  0.7176 -0.7743  2.1228
 1808TIP3   OH226982   5.667   1.058   6.875  0.2759  0.3250 -0.1653
 1808TIP3    H126983   5.752   1.074   6.835  0.4944  0.5558  0.3849
 1808TIP3    H226984   5.628   0.989   6.821  0.5256  0.6856 -0.8237
 1809TIP3   OH226985   2.348   2.003   2.973  0.1994 -0.2678  0.4633
 1809TIP3    H126986   2.386   1.918   2.952  2.7711  1.5777 -3.4275
 1809TIP3    H226987   2.422   2.055   3.005 -0.2398  1.7560 -1.6121
 1810TIP3   OH226988   3.706   3.163   1.168  0.0579 -0.1002 -0.5109
 1810TIP3    H126989   3.745   3.217   1.099  1.3034 -0.4036 -0.0542
 1810TIP3    H226990   3.662   3.226   1.226  0.7706  0.3513 -0.4545
 1811TIP3   OH226991   5.479   3.885   0.514 -0.4841 -0.1635  0.4797
 1811TIP3    H126992   5.514   3.884   0.603  0.4352 -2.0780  0.1548
 1811TIP3    H226993   5.499   3.798   0.480 -0.6192  0.6096 -1.6923
 1812TIP3   OH226994   6.442   1.485   8.502 -0.1253  0.2976 -0.3434
 1812TIP3    H126995   6.366   1.438   8.468  0.2036 -1.1415  0.8250
 1812TIP3    H226996   6.514   1.458   8.444 -0.3069  0.9140 -0.8658
 1813TIP3   OH226997   3.922   3.123   3.212 -0.7141  0.2034 -0.5132
 1813TIP3    H126998   3.829   3.114   3.195 -0.9447  0.6796  0.4269
 1813TIP3    H226999   3.933   3.094   3.303  0.3313 -1.5223 -1.1363
 1814TIP3   OH227000   6.696   4.985   8.584 -0.4296 -0.2868 -0.0627
 1814TIP3    H127001   6.667   4.917   8.644 -2.1527  0.6119  0.2054
 1814TIP3    H227002   6.736   4.937   8.511  0.8987 -1.4222  1.3436
 1815TIP3   OH227003   3.717   0.809   0.381 -0.5447 -0.2215  0.3368
 1815TIP3    H127004   3.753   0.862   0.452 -1.1329  1.7192 -0.7596
 1815TIP3    H227005   3.779   0.819   0.309 -0.8460 -0.7533 -0.0103
 1816TIP3   OH227006   4.827   3.932   8.734  0.0093 -0.0117  0.1957
 1816TIP3    H127007   4.832   4.014   8.685 -2.3462 -0.1913 -0.4495
 1816TIP3    H227008   4.880   3.948   8.812  0.9269  1.5295 -0.7037
 1817TIP3   OH227009   4.006   5.816   8.418  0.1067 -0.3970  0.3390
 1817TIP3    H127010   4.062   5.802   8.495 -1.1402 -1.1708  1.1368
 1817TIP3    H227011   4.052   5.770   8.347  0.5800 -0.8805  0.9421
 1818TIP3   OH227012   5.223   6.378   0.268  0.6017 -0.1028  0.2068
 1818TIP3    H127013   5.195   6.366   0.359 -1.0808 -0.5913 -0.3350
 1818TIP3    H227014   5.284   6.451   0.271 -0.3537  0.6884  1.5649
 1819TIP3   OH227015   5.309   4.631   1.632  0.0170 -0.4639 -0.1159
 1819TIP3    H127016   5.328   4.545   1.669 -0.5412 -0.6556 -0.2558
 1819TIP3    H227017   5.213   4.634   1.627  0.0525 -0.0926 -0.7112
 1820TIP3   OH227018   5.344   3.401   0.823  1.1408  0.1299 -0.5516
 1820TIP3    H127019   5.280   3.470   0.809 -0.5988 -1.4343 -0.6364
 1820TIP3    H227020   5.399   3.433   0.895 -0.7512  0.8361  0.6342
 1821TIP3   OH227021   2.687   3.952   0.755  0.1431  0.2149  0.3062
 1821TIP3    H127022   2.612   3.968   0.698  0.1004  1.1782  0.6232
 1821TIP3    H227023   2.760   3.997   0.712  0.4686 -0.4032  0.1930
 1822TIP3   OH227024   5.756   6.755   8.100  0.1131 -0.0673  0.7041
 1822TIP3    H127025   5.687   6.797   8.049 -0.1454 -1.3068 -0.0218
 1822TIP3    H227026   5.823   6.731   8.036  0.8348  0.3577  1.2784
 1823TIP3   OH227027   4.088   0.920   2.154 -0.4107 -0.4708 -0.1756
 1823TIP3    H127028   4.112   0.867   2.078  0.0892  0.6074 -0.7817
 1823TIP3    H227029   4.099   0.860   2.229 -0.2153 -1.3268 -0.8716
 1824TIP3   OH227030   5.395   2.956   2.033  0.8570 -0.2259 -0.4355
 1824TIP3    H127031   5.386   2.992   1.945 -0.5373 -0.1474 -0.2939
 1824TIP3    H227032   5.380   2.862   2.022 -0.6216 -0.0477 -0.1321
 1825TIP3   OH227033   4.082   1.905   7.701 -0.2649 -0.2593 -0.1624
 1825TIP3    H127034   4.106   1.948   7.618  0.5366  0.6896  0.5338
 1825TIP3    H227035   4.157   1.921   7.758 -0.5986 -1.3374  0.6025
 1826TIP3   OH227036   3.475   5.873   7.120 -0.1275 -0.2480 -0.1067
 1826TIP3    H127037   3.380   5.889   7.115  0.1172  1.0253 -1.5545
 1826TIP3    H227038   3.514   5.956   7.092  1.3650 -2.0142 -3.7993
 1827TIP3   OH227039   3.155   6.645   8.681 -0.3088 -0.1332  0.2138
 1827TIP3    H127040   3.216   6.629   8.608 -0.4134  1.8712 -0.3726
 1827TIP3    H227041   3.082   6.585   8.665 -0.4137  0.3963 -1.4624
 1828TIP3   OH227042   0.788   2.953   1.719  0.1504 -0.2375 -0.4333
 1828TIP3    H127043   0.836   2.971   1.638 -0.1860  1.7514 -0.2285
 1828TIP3    H227044   0.741   2.872   1.700  1.0717 -0.5115 -1.7634
 1829TIP3   OH227045   6.073   3.791   1.668 -0.3082 -0.4179  0.3780
 1829TIP3    H127046   6.149   3.832   1.709 -0.8845  1.8218 -0.6747
 1829TIP3    H227047   6.078   3.817   1.576 -2.3169 -0.2795  0.2676
 1830TIP3   OH227048   5.341   3.471   7.678  0.2676 -0.2594  0.0365
 1830TIP3    H127049   5.301   3.407   7.620  0.6910 -1.8758  1.4235
 1830TIP3    H227050   5.417   3.504   7.630 -1.8903  1.9866 -2.1514
 1831TIP3   OH227051   1.407   2.149   1.860 -0.2687  0.1848 -0.3424
 1831TIP3    H127052   1.370   2.235   1.880 -0.5094  0.1729 -0.7363
 1831TIP3    H227053   1.332   2.091   1.853 -0.2159  0.2305 -1.5014
 1832TIP3   OH227054   5.353   3.385   8.737 -0.1300  0.5631 -0.4431
 1832TIP3    H127055   5.447   3.385   8.751 -0.1566  2.1748 -0.1446
 1832TIP3    H227056   5.340   3.333   8.657  1.1491  1.5333 -1.3153
 1833TIP3   OH227057   0.573   2.954   1.026 -0.6837 -0.3571 -0.0440
 1833TIP3    H127058   0.589   2.913   0.940 -1.9877  0.1858 -0.5637
 1833TIP3    H227059   0.484   2.989   1.020 -0.3912  0.6498  1.1620
 1834TIP3   OH227060   3.357   2.638   2.694  0.1854 -0.3439 -0.3924
 1834TIP3    H127061   3.323   2.726   2.684  1.3336  0.1590 -0.0344
 1834TIP3    H227062   3.447   2.650   2.725 -0.1886 -1.6476  1.3948
 1835TIP3   OH227063   3.103   4.596   1.234  0.3034 -0.0980  0.3338
 1835TIP3    H127064   3.123   4.670   1.291 -0.5305  2.0800 -1.9991
 1835TIP3    H227065   3.009   4.606   1.214  0.2844 -1.5128 -0.3947
 1836TIP3   OH227066   6.370   0.058   8.550 -0.1506  1.0823 -0.4508
 1836TIP3    H127067   6.363   0.046   8.645 -0.4599  0.3241 -0.5587
 1836TIP3    H227068   6.458   0.028   8.528 -0.7810 -0.7448 -0.6630
 1837TIP3   OH227069   4.398   5.133   8.154  0.1102 -0.6134 -0.3657
 1837TIP3    H127070   4.395   5.068   8.085 -4.7380 -1.1466 -0.0218
 1837TIP3    H227071   4.344   5.205   8.122 -0.5293  0.0495  1.9664
 1838TIP3   OH227072   6.233   0.527   8.514  0.8907 -0.0609 -0.0093
 1838TIP3    H127073   6.307   0.526   8.454 -1.1351  1.0769 -2.6849
 1838TIP3    H227074   6.195   0.439   8.507  0.7519  0.0199 -0.2762
 1839TIP3   OH227075   5.400   4.104   8.570 -0.2107  0.0230  0.1753
 1839TIP3    H127076   5.329   4.105   8.634 -0.4103  2.6055  0.0308
 1839TIP3    H227077   5.357   4.092   8.485 -0.8752  3.6561 -0.1549
 1840TIP3   OH227078   5.111   0.126   2.114  0.6484 -0.2752  0.5289
 1840TIP3    H127079   5.091   0.101   2.205  0.4283 -1.3708  0.1967
 1840TIP3    H227080   5.199   0.161   2.118  0.1225  1.0210  1.3914
 1841TIP3   OH227081   2.305   6.196   1.534  0.2368 -0.2821 -0.0277
 1841TIP3    H127082   2.320   6.269   1.593 -1.8784  0.3827 -0.2414
 1841TIP3    H227083   2.304   6.119   1.591  0.2582  0.1173  0.5185
 1842TIP3   OH227084   5.531   5.072   2.854 -0.5470  0.1905  0.2497
 1842TIP3    H127085   5.444   5.088   2.890 -0.5711 -1.3477  0.9226
 1842TIP3    H227086   5.591   5.085   2.927 -0.3406 -0.1604  0.1471
 1843TIP3   OH227087   0.279   5.388   0.831  0.3625  0.2363  0.0919
 1843TIP3    H127088   0.334   5.312   0.809 -0.3469 -0.2433 -0.0758
 1843TIP3    H227089   0.338   5.449   0.874  0.8854 -0.5500  0.5069
 1844TIP3   OH227090   3.230   6.832   0.754 -0.1308  0.1729 -0.1277
 1844TIP3    H127091   3.180   6.751   0.755  0.2922 -0.1393  2.1730
 1844TIP3    H227092   3.178   6.894   0.806  1.4782  0.0170  1.8052
 1845TIP3   OH227093   4.585   3.391   7.547  0.3482 -0.3791  0.2230
 1845TIP3    H127094   4.531   3.442   7.606  3.1632  1.2091  1.6406
 1845TIP3    H227095   4.560   3.421   7.459 -0.9850  0.3200  0.8168
 1846TIP3   OH227096   5.693   5.812   2.708 -0.3079  0.4012  0.0103
 1846TIP3    H127097   5.697   5.755   2.632 -1.5625  1.8489 -1.2139
 1846TIP3    H227098   5.692   5.901   2.671 -2.4894  1.1208  1.6184
 1847TIP3   OH227099   3.169   1.122   1.887 -0.2627 -0.4621  0.3383
 1847TIP3    H127100   3.200   1.200   1.842 -0.3193  0.1603  1.3486
 1847TIP3    H227101   3.075   1.119   1.867 -0.4386  0.2394  1.0174
 1848TIP3   OH227102   4.892   3.578   0.133  0.4128  0.4599 -0.0615
 1848TIP3    H127103   4.972   3.532   0.109  0.7436  1.2585 -0.5562
 1848TIP3    H227104   4.824   3.511   0.134  0.8033  0.0325 -1.1177
 1849TIP3   OH227105   2.884   4.332   7.925 -0.1820  0.5442 -0.1110
 1849TIP3    H127106   2.843   4.391   7.987 -1.1936  0.1405 -0.3759
 1849TIP3    H227107   2.818   4.320   7.856  0.7387  0.6166 -1.0251
 1850TIP3   OH227108   3.234   3.758   8.347  0.5485 -0.0772 -0.5586
 1850TIP3    H127109   3.259   3.735   8.257  0.2481  0.8304 -0.8842
 1850TIP3    H227110   3.313   3.741   8.399  0.6390 -0.8674 -0.9437
 1851TIP3   OH227111   1.726   2.676   8.000 -0.5717  1.2533  0.1322
 1851TIP3    H127112   1.729   2.757   7.948 -0.0536  0.7338 -0.6788
 1851TIP3    H227113   1.634   2.653   8.004 -0.5306  0.6356 -1.6652
 1852TIP3   OH227114   4.420   1.859   2.057  0.7710  0.4016  0.5614
 1852TIP3    H127115   4.490   1.921   2.035  0.2060  0.7028 -0.4054
 1852TIP3    H227116   4.463   1.773   2.057  1.0752  0.5511 -0.3251
 1853TIP3   OH227117   2.180   5.324   7.315  0.3861  0.4336  0.6026
 1853TIP3    H127118   2.105   5.372   7.350 -1.6406 -2.2926  0.3404
 1853TIP3    H227119   2.170   5.329   7.220  2.3343  2.5168  0.4058
 1854TIP3   OH227120   3.719   0.538   2.259 -0.7011 -0.0566 -0.4181
 1854TIP3    H127121   3.633   0.566   2.229 -0.4808  0.4431 -0.5929
 1854TIP3    H227122   3.716   0.544   2.354 -1.1372 -0.8692 -0.3702
 1855TIP3   OH227123   5.504   3.888   1.721 -0.8126 -0.1747  0.8066
 1855TIP3    H127124   5.494   3.972   1.677  0.0167  0.7153  2.2167
 1855TIP3    H227125   5.599   3.875   1.727 -0.9299 -1.1176  0.7944
 1856TIP3   OH227126   5.688   3.591   1.593  0.7061 -0.0998  0.1339
 1856TIP3    H127127   5.623   3.523   1.612  2.1060 -1.3301  0.7290
 1856TIP3    H227128   5.670   3.659   1.658  0.7246 -0.9590  1.0798
 1857TIP3   OH227129   5.958   1.936   8.672  0.1228  0.0945  0.5230
 1857TIP3    H127130   5.987   1.858   8.625 -2.5339 -0.9817  0.4909
 1857TIP3    H227131   6.032   1.996   8.668  1.4355 -1.5428 -1.4610
 1858TIP3   OH227132   0.594   2.415   1.223 -0.1005  0.1065  0.0223
 1858TIP3    H127133   0.623   2.327   1.244 -1.9549 -0.2298  1.3697
 1858TIP3    H227134   0.575   2.455   1.307 -0.2621  1.4555 -0.6255
 1859TIP3   OH227135   0.006   3.265   8.125  0.1000  0.0999 -0.1393
 1859TIP3    H127136   0.083   3.321   8.112  0.4038 -0.1666  0.5004
 1859TIP3    H227137  -0.005   3.219   8.042  0.7689 -0.0307 -0.1593
 1860TIP3   OH227138   6.340   3.500   0.253  0.4844 -0.3501  0.1646
 1860TIP3    H127139   6.369   3.524   0.341  1.9155 -2.0424  0.2236
 1860TIP3    H227140   6.367   3.573   0.198 -0.2788  0.6585  1.0905
 1861TIP3   OH227141   6.608   4.454   2.809  0.0535  0.5685  0.0609
 1861TIP3    H127142   6.532   4.453   2.751 -0.2273 -0.1932  0.4259
 1861TIP3    H227143   6.682   4.439   2.751 -0.0530  1.4983 -0.3218
 1862TIP3   OH227144   0.681   0.241   0.590  0.1959 -0.3804 -0.5720
 1862TIP3    H127145   0.705   0.238   0.497  0.6545  1.2555 -0.5349
 1862TIP3    H227146   0.698   0.332   0.616  0.5946 -0.9419  1.2520
 1863TIP3   OH227147   5.462   4.341   1.000 -0.0081  0.0574 -0.1089
 1863TIP3    H127148   5.382   4.292   0.982 -0.6217  0.9697  0.1181
 1863TIP3    H227149   5.435   4.432   1.008  1.2646  0.5943 -1.4768
 1864TIP3   OH227150   0.017   4.670   0.834 -0.5072  0.1428  0.3728
 1864TIP3    H127151  -0.077   4.685   0.837 -0.9337 -2.0423  0.2051
 1864TIP3    H227152   0.044   4.665   0.925 -0.6723  0.2185  0.4255
 1865TIP3   OH227153   3.238   5.350   8.476 -0.2347  0.0188  0.0275
 1865TIP3    H127154   3.150   5.316   8.460 -0.5436  0.5167  0.6348
 1865TIP3    H227155   3.271   5.298   8.549  0.4146 -0.9152 -0.9000
 1866TIP3   OH227156   1.575   3.524   8.122  0.2587 -0.3197  0.2913
 1866TIP3    H127157   1.514   3.501   8.052  1.0195 -2.2472  0.1941
 1866TIP3    H227158   1.612   3.440   8.150  1.9764  0.6801  1.1663
 1867TIP3   OH227159   6.407   3.102   7.655 -0.1229  0.3191  1.0725
 1867TIP3    H127160   6.371   3.167   7.596 -0.4691 -0.1178  0.7937
 1867TIP3    H227161   6.362   3.117   7.738 -2.1492 -1.1829  0.3462
 1868TIP3   OH227162   5.180   4.966   1.605 -0.2991  0.1843  0.4733
 1868TIP3    H127163   5.115   5.033   1.585 -1.2464 -0.7076  0.5171
 1868TIP3    H227164   5.156   4.933   1.691 -0.3031 -0.7346  0.1367
 1869TIP3   OH227165   6.399   2.412   2.783  0.2626  0.3671 -0.9472
 1869TIP3    H127166   6.486   2.393   2.819  0.2653 -0.7214 -1.4922
 1869TIP3    H227167   6.416   2.443   2.695  0.0639 -0.8836 -1.4455
 1870TIP3   OH227168   3.735   4.870   8.004  0.1604 -0.1529 -0.2926
 1870TIP3    H127169   3.784   4.825   8.073  1.6334  1.4118 -0.2561
 1870TIP3    H227170   3.701   4.800   7.949  0.7237 -1.3636  0.8422
 1871TIP3   OH227171   0.155   6.372   0.185 -0.3207  0.0785  0.0410
 1871TIP3    H127172   0.142   6.443   0.246 -0.4518 -0.0645  0.1783
 1871TIP3    H227173   0.076   6.371   0.130 -0.8385 -0.6904  0.7767
 1872TIP3   OH227174   1.114   0.013   1.315 -0.4910  0.4559  0.5144
 1872TIP3    H127175   1.050   0.009   1.244 -1.6666  2.2001  1.3949
 1872TIP3    H227176   1.086   0.087   1.368  1.3189  0.2278  1.8873
 1873TIP3   OH227177   4.960   5.333   1.848 -0.1719 -0.4329  0.0048
 1873TIP3    H127178   5.021   5.396   1.887  0.5247 -0.0136 -1.6813
 1873TIP3    H227179   4.932   5.279   1.922  1.7156 -0.1980  0.9608
 1874TIP3   OH227180   2.740   2.754   8.719 -0.2467  0.3464 -0.1545
 1874TIP3    H127181   2.827   2.781   8.749 -0.4573 -0.0999  0.8706
 1874TIP3    H227182   2.692   2.734   8.799 -0.7687 -1.0317 -0.7813
 1875TIP3   OH227183   0.476   4.246   2.337  0.3153 -0.1642 -0.1339
 1875TIP3    H127184   0.429   4.186   2.395  0.3561 -0.0095  0.0625
 1875TIP3    H227185   0.469   4.331   2.381 -0.1822  0.0721 -0.6639
 1876TIP3   OH227186   0.178   1.759   8.741 -0.1895  0.7356 -0.5082
 1876TIP3    H127187   0.117   1.767   8.815  1.5749  2.7087  0.8681
 1876TIP3    H227188   0.224   1.842   8.740  3.7580 -1.2273 -0.2321
 1877TIP3   OH227189   0.998   5.308   1.183 -0.6527 -0.0131  0.1805
 1877TIP3    H127190   1.034   5.249   1.249 -1.5158 -3.2049 -1.9365
 1877TIP3    H227191   1.069   5.321   1.121  0.0053  2.5707  1.3701
 1878TIP3   OH227192   0.954   4.325   8.475 -0.2395  0.2612  0.1278
 1878TIP3    H127193   1.001   4.403   8.507  0.8333 -0.7464  1.0909
 1878TIP3    H227194   0.937   4.344   8.383 -0.4645  1.8528  0.4545
 1879TIP3   OH227195   3.903   3.411   1.931 -0.1775  0.1213 -0.3102
 1879TIP3    H127196   3.947   3.368   1.858 -1.3540  1.6827 -2.0426
 1879TIP3    H227197   3.916   3.353   2.005  0.3072 -2.0043 -1.9658
 1880TIP3   OH227198   4.735   2.764   8.121 -0.1710 -0.2459 -0.3746
 1880TIP3    H127199   4.687   2.753   8.039 -0.3031  0.4850 -0.4075
 1880TIP3    H227200   4.675   2.813   8.177  0.3113  0.1577 -0.2062
 1881TIP3   OH227201   0.493   2.125   1.883 -0.1578 -0.1541  0.1743
 1881TIP3    H127202   0.533   2.201   1.841 -0.5013  0.2116  0.4948
 1881TIP3    H227203   0.448   2.079   1.812 -0.4180  0.2488  0.0761
 1882TIP3   OH227204   5.450   4.942   1.494  0.5282 -0.7989  0.2883
 1882TIP3    H127205   5.357   4.927   1.483  0.6883 -1.9484  0.4445
 1882TIP3    H227206   5.484   4.861   1.533  1.1702  0.4713  2.5848
 1883TIP3   OH227207   0.362   6.185   0.158 -0.0524  0.2160 -0.3231
 1883TIP3    H127208   0.442   6.204   0.208 -0.4881  0.6235  0.2282
 1883TIP3    H227209   0.305   6.260   0.175 -1.0538 -0.6824  0.3151
 1884TIP3   OH227210   6.150   0.975   0.194  0.2355 -0.6871 -0.2969
 1884TIP3    H127211   6.195   0.896   0.165 -0.3606 -0.9611 -0.4827
 1884TIP3    H227212   6.074   0.943   0.243  0.0970 -0.2299 -0.2054
 1885TIP3   OH227213   2.013   0.871   1.545 -0.2178  0.0568  0.1826
 1885TIP3    H127214   2.068   0.800   1.578  0.9693  1.0755  0.5034
 1885TIP3    H227215   2.057   0.900   1.464 -0.2475  0.8992  0.4535
 1886TIP3   OH227216   1.771   3.808   1.379 -0.3704 -0.0464 -0.6493
 1886TIP3    H127217   1.779   3.750   1.303  0.9770 -0.0247 -0.5538
 1886TIP3    H227218   1.856   3.801   1.423 -1.5292 -1.0367  1.5805
 1887TIP3   OH227219   1.423   4.309   0.515  0.8778  0.4095 -0.5106
 1887TIP3    H127220   1.512   4.327   0.484  1.7806 -2.3103  0.2002
 1887TIP3    H227221   1.417   4.355   0.599  1.5084  0.8002 -0.6733
 1888TIP3   OH227222   3.518   1.079   1.712 -0.1037 -0.4977  0.1820
 1888TIP3    H127223   3.459   1.042   1.777 -0.9270  0.9950  0.3352
 1888TIP3    H227224   3.538   1.006   1.653 -0.9391 -1.3801  0.9616
 1889TIP3   OH227225   2.558   0.479   0.923 -0.2155 -0.7918 -0.3156
 1889TIP3    H127226   2.558   0.570   0.894 -1.0644 -0.6741  0.0202
 1889TIP3    H227227   2.650   0.452   0.918  0.0558  0.1019 -0.3458
 1890TIP3   OH227228   5.043   1.345   8.622 -0.4203 -0.5627 -0.0316
 1890TIP3    H127229   5.055   1.423   8.676 -0.4408 -0.9545  0.5485
 1890TIP3    H227230   5.131   1.323   8.591 -0.4788 -0.0573 -0.5448
 1891TIP3   OH227231   4.923   6.707   8.683  0.4965  0.4043  0.6459
 1891TIP3    H127232   4.988   6.721   8.614  1.5137  1.5912  1.7913
 1891TIP3    H227233   4.965   6.644   8.742  0.0488  0.1709  0.7202
 1892TIP3   OH227234   4.077   3.694   0.053  0.2704 -0.4280  0.2725
 1892TIP3    H127235   4.153   3.750   0.032  1.5375 -1.5857  1.5405
 1892TIP3    H227236   4.080   3.686   0.149 -1.8416 -0.0144  0.4105
 1893TIP3   OH227237   2.115   6.452   8.339  0.2466 -0.5140 -0.4829
 1893TIP3    H127238   2.174   6.402   8.283  0.9678 -1.3372  0.9603
 1893TIP3    H227239   2.170   6.486   8.409 -1.0615 -2.0626  1.4233
 1894TIP3   OH227240   1.091   3.744   0.910 -0.0955  0.5966  0.4678
 1894TIP3    H127241   1.058   3.655   0.921 -1.1258  0.6643 -1.5401
 1894TIP3    H227242   1.030   3.798   0.961  0.5378  0.1906  1.6981
 1895TIP3   OH227243   4.698   5.234   8.183  0.3524  0.1957 -0.1583
 1895TIP3    H127244   4.638   5.295   8.226 -1.7509 -1.4424 -0.6159
 1895TIP3    H227245   4.687   5.253   8.089 -1.1178 -1.4979 -0.3757
 1896TIP3   OH227246   2.186   0.015   7.228  0.3307 -0.1514 -0.2458
 1896TIP3    H127247   2.172  -0.039   7.150 -0.3824 -0.4440  0.0787
 1896TIP3    H227248   2.191  -0.048   7.300  0.6540  0.1405 -0.0098
 1897TIP3   OH227249   1.027   3.062   2.506  0.0921 -0.6125  0.4367
 1897TIP3    H127250   1.055   3.082   2.417  0.4270  1.8335  1.0305
 1897TIP3    H227251   1.017   3.147   2.548 -2.4966 -1.5991  2.0337
 1898TIP3   OH227252   1.791   5.444   0.732  0.3329 -0.5954  0.2420
 1898TIP3    H127253   1.701   5.472   0.749 -0.6982 -3.6582  0.5930
 1898TIP3    H227254   1.797   5.357   0.772  2.8246 -1.3453 -1.4659
 1899TIP3   OH227255   1.870   4.001   2.402  0.2721 -0.0667 -0.2908
 1899TIP3    H127256   1.950   4.005   2.454  0.4786  0.3744 -0.6284
 1899TIP3    H227257   1.804   4.043   2.456  0.8144  1.7268 -0.9292
 1900TIP3   OH227258   1.723   0.415   0.839 -0.0271  0.1295 -0.0515
 1900TIP3    H127259   1.656   0.482   0.827 -0.0349  0.2444  0.5817
 1900TIP3    H227260   1.769   0.411   0.755 -1.6766 -0.8972 -0.9524
 1901TIP3   OH227261   5.401   0.516   1.434  0.2310 -0.2288  0.5411
 1901TIP3    H127262   5.465   0.460   1.479 -1.2417 -0.4462  2.5378
 1901TIP3    H227263   5.384   0.587   1.497 -1.0304  0.1397 -0.1868
 1902TIP3   OH227264   3.615   6.783   2.122  0.2510 -0.6622 -0.0956
 1902TIP3    H127265   3.688   6.833   2.086  0.0739 -0.8748 -0.7724
 1902TIP3    H227266   3.603   6.711   2.061 -1.4009  0.1273 -0.7658
 1903TIP3   OH227267   5.293   4.511   2.157  0.5199  0.4462 -0.0213
 1903TIP3    H127268   5.381   4.545   2.172  1.0812 -1.3352  1.0560
 1903TIP3    H227269   5.301   4.416   2.172 -0.8630 -0.2842 -3.1409
 1904TIP3   OH227270   1.013   1.220   1.236  0.0722  0.5033 -0.2172
 1904TIP3    H127271   0.989   1.171   1.156  0.7224  1.4383 -1.0081
 1904TIP3    H227272   1.096   1.181   1.262  0.9305  1.5900 -1.2325
 1905TIP3   OH227273   1.637   6.457   0.968  0.0286  0.0125 -0.0795
 1905TIP3    H127274   1.561   6.453   1.027 -0.5477 -0.3389 -0.8152
 1905TIP3    H227275   1.703   6.403   1.011  0.0936  0.8341  0.8807
 1906TIP3   OH227276   5.800   4.613   7.694  0.0347  0.7497 -0.0737
 1906TIP3    H127277   5.873   4.553   7.708  1.0258  1.5899 -1.4175
 1906TIP3    H227278   5.729   4.579   7.750  1.0276 -0.8100  0.2760
 1907TIP3   OH227279   2.993   2.849   8.734 -0.4379 -0.1986 -0.1897
 1907TIP3    H127280   3.045   2.786   8.785 -0.4220 -0.0318  0.0011
 1907TIP3    H227281   3.056   2.891   8.676 -0.4585 -0.4021 -0.3591
 1908TIP3   OH227282   5.040   3.527   2.315 -0.7975 -0.1618  0.7868
 1908TIP3    H127283   5.002   3.590   2.375  0.4114  0.3760  1.0288
 1908TIP3    H227284   5.128   3.561   2.298 -1.3119  0.0795 -1.8313
 1909TIP3   OH227285   4.159   2.692   8.137  0.0757 -0.5215 -0.0728
 1909TIP3    H127286   4.160   2.759   8.069 -0.5445  0.5106  0.9110
 1909TIP3    H227287   4.139   2.611   8.090  0.2338  0.0629 -1.1934
 1910TIP3   OH227288   0.625   0.598   2.899  0.4647 -0.2811 -0.1029
 1910TIP3    H127289   0.687   0.610   2.827  0.8745 -0.4197  0.2229
 1910TIP3    H227290   0.576   0.519   2.875  1.0487 -0.7044  0.0880
 1911TIP3   OH227291   1.441   5.235   1.926  0.0095  0.2231 -0.1236
 1911TIP3    H127292   1.501   5.203   1.994 -0.9609 -1.1593  0.1287
 1911TIP3    H227293   1.480   5.206   1.844  0.2404  0.2940 -0.0417
 1912TIP3   OH227294   0.822   5.965   8.602  0.3978  0.2000 -0.0753
 1912TIP3    H127295   0.737   5.937   8.636  0.5812  0.8825  1.0025
 1912TIP3    H227296   0.870   5.884   8.587 -0.2117 -0.1700 -0.0439
 1913TIP3   OH227297   2.263   3.546   0.577  0.3118  0.3459 -0.3984
 1913TIP3    H127298   2.296   3.589   0.499  0.5917  1.3602  0.2588
 1913TIP3    H227299   2.341   3.517   0.624  0.3116  2.3229  0.9215
 1914TIP3   OH227300   4.595   0.210   2.803 -0.0424 -0.6156 -0.3021
 1914TIP3    H127301   4.561   0.140   2.858  0.5585  1.0665  2.4157
 1914TIP3    H227302   4.517   0.259   2.777 -0.3909 -1.7883 -1.5712
 1915TIP3   OH227303   0.509   4.281   0.834 -0.7354  0.4687  0.3567
 1915TIP3    H127304   0.455   4.358   0.818  0.3074  1.2504  0.4567
 1915TIP3    H227305   0.514   4.274   0.930  0.2636  1.0985  0.3665
 1916TIP3   OH227306   3.936   5.681   7.056  0.1896 -0.2189 -0.3624
 1916TIP3    H127307   3.977   5.599   7.028 -1.1132 -0.3758 -1.9912
 1916TIP3    H227308   3.842   5.663   7.051 -0.1093  1.3376 -0.6388
 1917TIP3   OH227309   4.159   1.856   8.236  0.0573 -0.2467 -0.4901
 1917TIP3    H127310   4.111   1.938   8.237 -0.5294 -0.5438 -1.7585
 1917TIP3    H227311   4.114   1.801   8.300  0.1483  0.2451  0.0058
 1918TIP3   OH227312   6.767   3.677   1.441 -0.3569  0.0267 -0.1122
 1918TIP3    H127313   6.778   3.766   1.475 -2.3914  0.0383  0.6450
 1918TIP3    H227314   6.700   3.638   1.497 -1.4684 -1.0778 -2.0929
 1919TIP3   OH227315   4.823   3.415   2.189 -0.2475  0.1638 -0.3407
 1919TIP3    H127316   4.777   3.366   2.257 -0.2479  1.1074  0.3620
 1919TIP3    H227317   4.905   3.442   2.229 -0.3547  0.9421 -0.6152
 1920TIP3   OH227318   1.532   1.251   2.183  0.1410  0.3324 -0.2314
 1920TIP3    H127319   1.538   1.179   2.247  1.5305  0.0022 -0.6956
 1920TIP3    H227320   1.605   1.309   2.205 -0.9021  1.5842  0.0679
 1921TIP3   OH227321   4.023   6.386   8.161  0.2168 -0.0135 -0.0101
 1921TIP3    H127322   4.114   6.384   8.189  0.1425 -2.2334  0.2289
 1921TIP3    H227323   4.018   6.322   8.090 -1.0358  0.5091 -0.4244
 1922TIP3   OH227324   2.468   0.929   1.529  0.6796 -0.1991 -0.2584
 1922TIP3    H127325   2.383   0.930   1.485 -0.3860  0.5717  1.7134
 1922TIP3    H227326   2.516   1.002   1.490 -0.4287  0.7880  0.1593
 1923TIP3   OH227327   5.276   2.739   8.131 -0.4767 -0.2049  0.4901
 1923TIP3    H127328   5.307   2.726   8.042  0.7378  2.1660  0.4804
 1923TIP3    H227329   5.184   2.764   8.120  0.1534  1.9853 -0.3344
 1924TIP3   OH227330   2.755   3.388   0.170 -0.1515 -0.2128 -0.1953
 1924TIP3    H127331   2.760   3.474   0.211 -0.0583  0.0119 -0.6594
 1924TIP3    H227332   2.693   3.338   0.223  0.7216 -0.2693  0.7980
 1925TIP3   OH227333   0.313   0.649   0.127 -0.1668  0.1632  0.2322
 1925TIP3    H127334   0.403   0.667   0.099  0.6495 -0.5027  2.2719
 1925TIP3    H227335   0.267   0.733   0.117  1.0985  0.9289  0.6713
 1926TIP3   OH227336   2.499   5.644   7.318  0.0377 -0.2163  0.5274
 1926TIP3    H127337   2.572   5.695   7.355  1.7642 -1.0877 -1.4986
 1926TIP3    H227338   2.461   5.701   7.251  0.5036 -0.7085 -0.1638
 1927TIP3   OH227339   1.365   0.610   0.974 -0.3688 -0.0162 -0.1690
 1927TIP3    H127340   1.433   0.570   1.028  0.1232  0.1818 -0.6444
 1927TIP3    H227341   1.331   0.682   1.028 -1.0980 -0.9005  0.5952
 1928TIP3   OH227342   0.593   2.949   7.274  0.3499 -0.1371 -0.6179
 1928TIP3    H127343   0.541   3.018   7.314 -1.2779 -1.2201 -0.7351
 1928TIP3    H227344   0.529   2.882   7.249  1.7087 -1.1349 -1.6541
 1929TIP3   OH227345   2.025   1.689   8.063 -0.1537  0.2666 -0.0847
 1929TIP3    H127346   2.003   1.766   8.116  1.0825  0.3407  0.3366
 1929TIP3    H227347   1.993   1.615   8.113 -0.8777  0.4586 -0.2441
 1930TIP3   OH227348   3.559   5.571   8.551  0.2090 -0.2650 -0.2779
 1930TIP3    H127349   3.639   5.520   8.536  0.8073  0.7143 -0.5317
 1930TIP3    H227350   3.590   5.661   8.560 -0.7933  0.0152  0.4940
 1931TIP3   OH227351   3.369   4.936   2.214 -0.2230  0.0018  0.1670
 1931TIP3    H127352   3.418   4.974   2.287  0.5593  2.0436 -1.3294
 1931TIP3    H227353   3.436   4.900   2.157 -0.5551  1.1481 -0.9894
 1932TIP3   OH227354   1.216   2.536   3.169 -0.3279 -0.0077 -0.6132
 1932TIP3    H127355   1.289   2.495   3.123 -1.3928 -0.6368 -1.7963
 1932TIP3    H227356   1.211   2.488   3.252  1.4321  0.9635  0.1389
 1933TIP3   OH227357   4.883   5.047   7.240 -0.0793  0.0892 -0.3098
 1933TIP3    H127358   4.795   5.021   7.213 -0.1316 -1.3628  1.0839
 1933TIP3    H227359   4.941   5.013   7.172 -0.3926 -1.4669  0.1659
 1934TIP3   OH227360   3.573   2.687   1.306 -0.2254  0.0996 -0.1430
 1934TIP3    H127361   3.653   2.644   1.335 -0.0478  0.4492 -0.1130
 1934TIP3    H227362   3.516   2.687   1.383 -0.2010 -0.0219 -0.1254
 1935TIP3   OH227363   2.859   2.090   2.339 -0.2851 -0.3572  0.4179
 1935TIP3    H127364   2.953   2.104   2.348 -0.0163 -1.7642  0.0233
 1935TIP3    H227365   2.826   2.170   2.299  0.5465  0.6156  1.6263
 1936TIP3   OH227366   0.262   6.549   7.612 -0.6980  0.6788 -0.0502
 1936TIP3    H127367   0.167   6.544   7.622 -0.6916  1.5522  0.5188
 1936TIP3    H227368   0.281   6.493   7.537 -1.3826 -1.6000  1.3820
 1937TIP3   OH227369   1.502   0.901   7.465 -0.3540 -0.2155 -0.1996
 1937TIP3    H127370   1.427   0.959   7.472 -0.5918 -0.6568  1.3328
 1937TIP3    H227371   1.471   0.828   7.412 -0.4102  0.4842 -1.1493
 1938TIP3   OH227372   0.699   1.981   2.504  0.1905 -0.3702  0.0815
 1938TIP3    H127373   0.759   1.967   2.578  0.9573  1.2923 -0.1719
 1938TIP3    H227374   0.660   2.067   2.521  0.5085  0.1161 -1.5173
 1939TIP3   OH227375   3.604   6.088   1.285 -0.0497  0.6331 -0.6122
 1939TIP3    H127376   3.589   6.115   1.376  0.5409  0.8742 -0.5825
 1939TIP3    H227377   3.591   5.993   1.286  1.4207  0.4015  0.0563
 1940TIP3   OH227378   4.552   1.468   1.171  0.3391 -0.1041  0.0910
 1940TIP3    H127379   4.503   1.489   1.250  0.1554 -2.9855  0.8308
 1940TIP3    H227380   4.643   1.486   1.195  0.3663 -1.5674  1.2583
 1941TIP3   OH227381   6.186   4.778   2.043  0.0880 -0.0049  0.4263
 1941TIP3    H127382   6.278   4.778   2.016  0.5905  0.8121  2.0148
 1941TIP3    H227383   6.183   4.837   2.118 -1.5571 -0.7781  1.0166
 1942TIP3   OH227384   5.725   2.011   2.072  0.5248  0.1447 -0.3168
 1942TIP3    H127385   5.726   2.093   2.121 -0.5982 -0.2355  0.3798
 1942TIP3    H227386   5.801   1.963   2.103 -0.3025 -0.1923  1.2763
 1943TIP3   OH227387   6.202   4.951   8.307 -0.3165 -0.4415  0.5682
 1943TIP3    H127388   6.173   5.041   8.295  0.4104 -0.2412  0.3119
 1943TIP3    H227389   6.209   4.939   8.402 -0.9518 -0.4049  0.6234
 1944TIP3   OH227390   4.496   3.878   8.535 -0.4035  0.4034  0.3380
 1944TIP3    H127391   4.551   3.840   8.466  1.3812 -0.1545  1.9862
 1944TIP3    H227392   4.534   3.964   8.551 -1.3563  0.8949  0.0750
 1945TIP3   OH227393   3.724   3.594   7.642 -0.3632  0.0595  0.0204
 1945TIP3    H127394   3.759   3.586   7.731  1.6643 -0.0484 -0.7496
 1945TIP3    H227395   3.640   3.547   7.646 -0.7286  0.7389  2.0503
 1946TIP3   OH227396   1.136   2.603   2.500 -0.6238  0.2204 -0.1427
 1946TIP3    H127397   1.040   2.602   2.500 -0.6393 -1.0139 -1.6410
 1946TIP3    H227398   1.159   2.669   2.435 -0.4595  0.1880 -0.1174
 1947TIP3   OH227399   2.842   3.489   8.002  0.3800 -0.6655  0.1365
 1947TIP3    H127400   2.764   3.440   8.028  0.0044 -0.7761 -1.1615
 1947TIP3    H227401   2.808   3.572   7.969  0.8487 -0.5349 -0.0240
 1948TIP3   OH227402   1.136   2.110   7.361  0.3652  0.2160 -0.2329
 1948TIP3    H127403   1.207   2.081   7.304  2.4932  2.2767  1.1755
 1948TIP3    H227404   1.161   2.199   7.387 -2.2258  0.6235  1.1905
 1949TIP3   OH227405   4.036   1.206   7.439  0.5131 -0.6935 -0.3753
 1949TIP3    H127406   4.072   1.283   7.484 -2.1678 -0.0204  0.7738
 1949TIP3    H227407   4.003   1.240   7.356 -0.6725 -0.5641  0.1326
 1950TIP3   OH227408   0.654   6.244   8.732  0.1136  0.2584 -0.5870
 1950TIP3    H127409   0.643   6.335   8.703  0.3384  0.9566  1.3821
 1950TIP3    H227410   0.713   6.251   8.807  0.2772 -1.5614 -0.5219
 1951TIP3   OH227411   2.570   6.101   2.484 -0.4997 -0.4284 -0.5329
 1951TIP3    H127412   2.641   6.061   2.434  0.4708  0.3814  0.1334
 1951TIP3    H227413   2.614   6.168   2.537 -1.2389 -2.0174  2.3172
 1952TIP3   OH227414   5.640   0.225   8.055  0.0668 -0.1874 -0.1818
 1952TIP3    H127415   5.590   0.293   8.099 -0.3743 -0.3016 -0.5085
 1952TIP3    H227416   5.579   0.152   8.045  0.8164 -1.0197  1.0758
 1953TIP3   OH227417   2.841   2.045   0.142  0.2889 -0.5106  0.3134
 1953TIP3    H127418   2.792   2.094   0.075  0.0331 -2.2466 -0.8392
 1953TIP3    H227419   2.875   2.113   0.200  0.9362  1.1468 -1.8350
 1954TIP3   OH227420   3.322   3.909   0.165  0.8089  0.3880 -0.1287
 1954TIP3    H127421   3.302   3.819   0.190 -0.0706  1.1331  2.1401
 1954TIP3    H227422   3.236   3.948   0.147  1.0964  0.9841 -0.2315
 1955TIP3   OH227423   0.227   3.014   0.785  0.2089 -0.2324  0.1077
 1955TIP3    H127424   0.179   3.027   0.704 -1.0553  0.2827  0.9175
 1955TIP3    H227425   0.239   2.919   0.791  2.0625 -0.1688 -1.6272
 1956TIP3   OH227426   6.785   3.166   0.363  0.0726  0.0433 -0.1869
 1956TIP3    H127427   6.765   3.073   0.351 -1.6316  0.3277  0.1361
 1956TIP3    H227428   6.704   3.211   0.336  0.4298  1.3558  0.8473
 1957TIP3   OH227429   0.574   3.655   7.739 -0.2839  0.1003 -0.6167
 1957TIP3    H127430   0.483   3.630   7.723 -0.4417  0.0475  0.2995
 1957TIP3    H227431   0.569   3.749   7.758 -0.8175 -0.6077  3.7952
 1958TIP3   OH227432   2.088   0.963   2.002  0.1192  0.8431  0.3716
 1958TIP3    H127433   2.129   0.902   2.063  1.5355 -0.0561 -1.3766
 1958TIP3    H227434   2.162   1.001   1.953 -0.8347  2.8133  0.3382
 1959TIP3   OH227435   2.186   4.299   1.868 -0.7635 -0.4164 -0.1240
 1959TIP3    H127436   2.249   4.227   1.856  0.9763  1.3697 -2.7647
 1959TIP3    H227437   2.181   4.311   1.963  2.8673 -0.7559  0.2471
 1960TIP3   OH227438   6.002   4.704   8.315  0.5498 -0.8099 -0.6907
 1960TIP3    H127439   5.994   4.764   8.389  2.0670 -1.2200 -0.1569
 1960TIP3    H227440   6.012   4.761   8.239 -0.6734 -0.3900 -0.5616
 1961TIP3   OH227441   4.033   4.001   2.739  0.1053  0.3863  0.5563
 1961TIP3    H127442   3.959   4.031   2.792 -1.6083 -1.0824 -0.8540
 1961TIP3    H227443   4.069   3.927   2.788  0.7418  1.1536  1.2835
 1962TIP3   OH227444   0.040   4.806   0.214  0.5072 -0.6925 -0.2271
 1962TIP3    H127445   0.101   4.837   0.146 -1.0576  1.3554 -0.8245
 1962TIP3    H227446   0.066   4.854   0.293 -0.4543  0.4630 -0.5696
 1963TIP3   OH227447   0.835   5.340   7.623 -0.6212  0.4105  0.1781
 1963TIP3    H127448   0.897   5.303   7.560 -0.5138  0.9938 -0.0602
 1963TIP3    H227449   0.865   5.306   7.708 -0.8948 -0.5522 -0.0958
 1964TIP3   OH227450   5.028   4.103   0.702  0.3852 -0.1286  0.5114
 1964TIP3    H127451   5.063   4.185   0.668 -0.3016  0.4760  1.2128
 1964TIP3    H227452   4.988   4.127   0.786  2.3952 -1.6220  1.9895
 1965TIP3   OH227453   0.006   2.174   0.657  0.2337  0.0986 -0.4721
 1965TIP3    H127454   0.041   2.170   0.746 -0.8881  1.6095  0.0833
 1965TIP3    H227455  -0.068   2.113   0.657  0.5079 -0.2405 -0.5246
 1966TIP3   OH227456   4.835   6.543   1.135 -0.3046  0.0340  0.2731
 1966TIP3    H127457   4.795   6.512   1.054  1.1734 -0.1843 -0.4149
 1966TIP3    H227458   4.929   6.526   1.123 -0.2452 -1.9615  2.8918
 1967TIP3   OH227459   5.597   3.554   2.213 -0.0456 -0.4014 -0.6435
 1967TIP3    H127460   5.542   3.515   2.144  0.4608 -1.0272 -0.6925
 1967TIP3    H227461   5.681   3.569   2.171  0.2279 -0.6684 -0.1883
 1968TIP3   OH227462   6.588   4.310   1.995 -0.3409 -0.4229 -0.7114
 1968TIP3    H127463   6.518   4.357   2.039  0.2135 -1.0237  0.9134
 1968TIP3    H227464   6.667   4.333   2.045  0.3249 -1.1461 -1.4018
 1969TIP3   OH227465   3.152   5.107   2.268  0.1263  0.3790  0.1495
 1969TIP3    H127466   3.223   5.077   2.212  0.5653  1.4132  0.1286
 1969TIP3    H227467   3.083   5.043   2.256  1.1684 -0.8453  0.4223
 1970TIP3   OH227468   3.403   3.785   0.920  0.3217 -0.7096 -0.5825
 1970TIP3    H127469   3.490   3.746   0.907  1.0968  0.8032 -0.1647
 1970TIP3    H227470   3.406   3.867   0.869 -0.9488 -0.7587 -0.7598
 1971TIP3   OH227471   3.074   2.499   2.583 -0.7102 -0.6031 -0.1359
 1971TIP3    H127472   2.993   2.448   2.575 -1.4674  0.2427  1.7184
 1971TIP3    H227473   3.132   2.445   2.636 -0.4881 -0.6893 -0.4609
 1972TIP3   OH227474   6.631   3.298   1.436 -0.3938  0.3783 -0.6141
 1972TIP3    H127475   6.637   3.368   1.501  0.0273 -0.2850  0.0867
 1972TIP3    H227476   6.549   3.314   1.390 -0.3885  1.2226 -0.3434
 1973TIP3   OH227477   2.195   4.161   7.863 -0.1057 -0.2724 -0.1485
 1973TIP3    H127478   2.131   4.092   7.847 -0.6620  0.4286 -1.0960
 1973TIP3    H227479   2.218   4.193   7.775  0.3016  0.5886  0.2585
 1974TIP3   OH227480   6.757   5.304   2.273 -0.0140  0.7389  0.2909
 1974TIP3    H127481   6.791   5.275   2.358 -0.5587 -0.0862  0.2393
 1974TIP3    H227482   6.726   5.393   2.289  1.3606  1.1869  0.5494
 1975TIP3   OH227483   1.169   5.434   7.733 -0.3659 -0.0183  0.3255
 1975TIP3    H127484   1.214   5.462   7.653 -0.0856 -0.5822  0.2801
 1975TIP3    H227485   1.177   5.339   7.733 -2.2212 -0.2151 -0.0736
 1976TIP3   OH227486   5.595   3.624   8.589  0.4096 -0.3905  0.3120
 1976TIP3    H127487   5.609   3.542   8.636  1.1460 -0.9436 -0.8342
 1976TIP3    H227488   5.615   3.692   8.653  1.9105 -1.1190  0.6607
 1977TIP3   OH227489   2.981   6.192   2.471 -0.4548  0.0214  0.4462
 1977TIP3    H127490   2.938   6.214   2.554  0.3918 -1.3377  1.2805
 1977TIP3    H227491   3.071   6.223   2.482 -0.4801  0.3561 -0.2130
 1978TIP3   OH227492   1.055   3.264   8.595 -0.0715  0.3398 -0.0958
 1978TIP3    H127493   1.008   3.305   8.523  0.0183  0.0132 -0.3399
 1978TIP3    H227494   1.143   3.302   8.591 -0.2191  0.7216  0.1735
 1979TIP3   OH227495   2.523   3.108   2.646 -0.2984  0.1578 -0.7122
 1979TIP3    H127496   2.607   3.135   2.608 -0.1031  2.1033  0.9038
 1979TIP3    H227497   2.479   3.190   2.668 -1.3091 -0.8233  1.2085
 1980TIP3   OH227498   2.098   0.531   1.945  0.6863  0.5449  0.5440
 1980TIP3    H127499   2.104   0.521   2.040  0.6956  1.5937  0.6676
 1980TIP3    H227500   2.008   0.560   1.930  0.3694 -0.5941  0.1211
 1981TIP3   OH227501   4.557   3.540   1.700 -0.3276 -0.1745  0.1256
 1981TIP3    H127502   4.611   3.554   1.623  1.4731  1.0106  1.5114
 1981TIP3    H227503   4.616   3.500   1.764 -1.0648  1.0836  1.6799
 1982TIP3   OH227504   5.152   1.107   2.984 -0.1372 -0.2240 -0.3052
 1982TIP3    H127505   5.160   1.202   2.991 -2.9139  0.0388  0.7746
 1982TIP3    H227506   5.100   1.093   2.904 -1.6047 -0.6350  0.6791
 1983TIP3   OH227507   4.450   6.040   0.947 -0.4254 -0.3347 -0.1802
 1983TIP3    H127508   4.397   6.105   0.994  1.7540  0.4105  1.4048
 1983TIP3    H227509   4.517   6.093   0.902  0.3397 -1.3678 -0.2802
 1984TIP3   OH227510   1.949   4.001   6.804 -0.3804 -0.1935  0.3133
 1984TIP3    H127511   2.031   4.042   6.834 -0.0344 -1.1958  0.7882
 1984TIP3    H227512   1.976   3.948   6.729 -0.6574 -0.2635  0.2647
 1985TIP3   OH227513   6.007   0.775   8.391  0.2950 -0.0257  0.0248
 1985TIP3    H127514   6.005   0.693   8.440 -2.0586  0.5716  1.0497
 1985TIP3    H227515   6.019   0.843   8.458 -2.0400  0.7353 -0.2670
 1986TIP3   OH227516   2.177   3.285   0.263 -0.0325 -0.4405  0.0154
 1986TIP3    H127517   2.177   3.342   0.340  0.1141 -0.1101 -0.2237
 1986TIP3    H227518   2.217   3.338   0.194 -2.6376  0.3215 -1.0478
 1987TIP3   OH227519   2.014   6.077   8.473  0.0865 -0.1291  0.2032
 1987TIP3    H127520   2.106   6.104   8.476  0.1208 -0.2141 -0.0639
 1987TIP3    H227521   1.972   6.127   8.544  0.5044 -0.7310  0.8854
 1988TIP3   OH227522   1.198   4.833   0.132 -0.4209  0.1211  0.1244
 1988TIP3    H127523   1.217   4.827   0.039 -0.2873 -0.1094  0.1658
 1988TIP3    H227524   1.254   4.904   0.164  0.0566 -0.2688  0.1636
 1989TIP3   OH227525   4.308   5.296   6.910 -1.0391  0.2901 -0.3857
 1989TIP3    H127526   4.392   5.311   6.867 -1.5799 -1.4784 -2.2202
 1989TIP3    H227527   4.332   5.273   7.000  0.4608 -0.2462 -0.8819
 1990TIP3   OH227528   6.418   0.038   0.371 -0.2462 -0.0824 -0.0826
 1990TIP3    H127529   6.425  -0.055   0.349  0.4857  0.0137 -0.2772
 1990TIP3    H227530   6.372   0.040   0.455 -0.7528 -0.5863 -0.3421
 1991TIP3   OH227531   1.457   1.625   0.786  0.4447 -0.3595  0.7876
 1991TIP3    H127532   1.490   1.701   0.833  1.6812 -1.7839  2.3262
 1991TIP3    H227533   1.487   1.637   0.696  0.0122  1.2856  0.8437
 1992TIP3   OH227534   1.781   0.552   1.631  0.3346 -0.3113 -0.1880
 1992TIP3    H127535   1.700   0.532   1.585 -0.1121 -1.3915  0.9948
 1992TIP3    H227536   1.849   0.505   1.581  0.0757 -0.3128 -0.5428
 1993TIP3   OH227537   2.650   5.670   0.390 -0.2897 -0.1308  0.2457
 1993TIP3    H127538   2.639   5.722   0.310 -1.3750 -2.3953 -1.1667
 1993TIP3    H227539   2.738   5.634   0.383 -0.4253 -0.4183  0.0031
 1994TIP3   OH227540   6.443   2.497   2.520  0.1059  0.5210  0.1110
 1994TIP3    H127541   6.445   2.559   2.447  1.6045  1.6127  1.0288
 1994TIP3    H227542   6.501   2.426   2.492 -2.8421 -1.3826 -1.6221
 1995TIP3   OH227543   3.106   4.284   2.008  0.1284 -0.3535 -0.1781
 1995TIP3    H127544   3.109   4.194   1.976 -1.1756  0.0108 -1.4431
 1995TIP3    H227545   3.053   4.280   2.087 -0.3705 -0.6353 -0.5208
 1996TIP3   OH227546   2.488   1.290   7.513 -0.0167  0.1831  0.2139
 1996TIP3    H127547   2.547   1.257   7.445 -0.2848  0.1113  0.0172
 1996TIP3    H227548   2.449   1.212   7.550  0.5224  0.1878  0.8124
 1997TIP3   OH227549   6.196   2.568   8.636  0.0706 -0.3313  0.2774
 1997TIP3    H127550   6.148   2.582   8.554  0.9433 -0.5248 -0.2916
 1997TIP3    H227551   6.144   2.612   8.703  0.7429  2.3088 -0.8106
 1998TIP3   OH227552   4.238   0.064   2.794 -0.7349 -0.3355  0.1183
 1998TIP3    H127553   4.272   0.032   2.711 -1.4785  0.1505 -0.3795
 1998TIP3    H227554   4.308   0.047   2.857 -0.1651 -0.6907 -0.6064
 1999TIP3   OH227555   5.595   2.243   0.331  0.4876  0.3362  0.0726
 1999TIP3    H127556   5.501   2.237   0.345  0.4016  0.2859 -0.5357
 1999TIP3    H227557   5.622   2.317   0.386 -0.0334  0.8714 -0.3798
 2000TIP3   OH227558   5.217   2.750   0.959  0.0990 -0.6762 -0.6417
 2000TIP3    H127559   5.200   2.813   0.889 -0.0293  0.0178  0.0062
 2000TIP3    H227560   5.159   2.677   0.940  1.1599 -1.1760 -2.1260
 2001TIP3   OH227561   4.404   4.574   0.519 -0.1756 -0.2027  0.3680
 2001TIP3    H127562   4.403   4.500   0.579  1.2840  0.3028  1.0732
 2001TIP3    H227563   4.471   4.552   0.454  0.0016  0.3293  0.3663
 2002TIP3   OH227564   1.860   1.145   1.536  0.4912  0.9276  0.4957
 2002TIP3    H127565   1.864   1.202   1.613 -0.1049 -0.2474  1.4320
 2002TIP3    H227566   1.815   1.066   1.567  0.2701  0.4097 -1.0580
 2003TIP3   OH227567   2.867   6.108   2.862  0.3103 -0.2060  0.2951
 2003TIP3    H127568   2.836   6.128   2.950 -0.1023  0.4714 -0.0000
 2003TIP3    H227569   2.852   6.188   2.812 -1.4207 -1.2103 -0.9286
 2004TIP3   OH227570   5.976   4.619   2.059  0.7140 -0.3986  0.1901
 2004TIP3    H127571   6.054   4.674   2.061  0.8736 -0.6160  2.1624
 2004TIP3    H227572   5.950   4.617   1.967  2.1356  0.9229 -0.2805
 2005TIP3   OH227573   5.935   5.436   7.124 -0.1246 -0.2341 -0.2739
 2005TIP3    H127574   5.874   5.422   7.197  0.3270  0.1649  0.1872
 2005TIP3    H227575   5.919   5.526   7.097  2.0508  0.7962  1.5718
 2006TIP3   OH227576   0.999   5.007   0.282 -0.2893 -0.3950  0.1852
 2006TIP3    H127577   1.010   4.986   0.374  0.4367  1.4217  0.5561
 2006TIP3    H227578   1.043   4.936   0.235  1.0340 -0.3521  1.3012
 2007TIP3   OH227579   4.114   3.559   1.497  0.0562  0.0006  0.4323
 2007TIP3    H127580   4.178   3.589   1.432  0.8292  1.2775  1.7196
 2007TIP3    H227581   4.049   3.629   1.501 -1.4410 -1.2555 -0.8078
 2008TIP3   OH227582   0.653   5.603   2.981  0.3778  0.2541  0.6522
 2008TIP3    H127583   0.628   5.676   2.923  1.1577  0.4779  0.5927
 2008TIP3    H227584   0.746   5.617   2.999  0.2704 -0.1083  1.5385
 2009TIP3   OH227585   6.706   0.529   8.257 -0.4561 -0.1211 -0.5162
 2009TIP3    H127586   6.740   0.608   8.214  0.2489 -1.3144 -2.2707
 2009TIP3    H227587   6.611   0.538   8.252 -0.6097  2.5413  3.1040
 2010TIP3   OH227588   0.136   6.596   1.799  0.3643 -0.1183 -0.3176
 2010TIP3    H127589   0.060   6.565   1.749 -0.6711 -0.7728  1.5821
 2010TIP3    H227590   0.112   6.685   1.825 -0.6116 -0.9408  1.8084
 2011TIP3   OH227591   1.044   3.602   0.541 -0.4004 -0.4050  0.2998
 2011TIP3    H127592   1.066   3.685   0.498 -0.4063  0.7451  2.3839
 2011TIP3    H227593   1.128   3.570   0.574 -0.3049 -1.5719 -0.9746
 2012TIP3   OH227594   0.913   1.122   2.280 -0.1476 -0.3033 -0.2589
 2012TIP3    H127595   0.882   1.054   2.339 -0.3836  0.4027  0.4445
 2012TIP3    H227596   1.007   1.128   2.298  0.1190 -1.3061 -1.2250
 2013TIP3   OH227597   3.208   4.089   7.967 -0.1021  0.0337  0.4771
 2013TIP3    H127598   3.222   4.148   7.893  0.1524 -1.4699 -0.7250
 2013TIP3    H227599   3.294   4.053   7.986 -0.5550 -1.4781 -0.1710
 2014TIP3   OH227600   3.276   3.200   2.825  1.1379 -0.0890 -0.3525
 2014TIP3    H127601   3.235   3.249   2.754 -0.0825  0.0773  0.4532
 2014TIP3    H227602   3.316   3.267   2.881  0.8035 -0.1178 -0.0784
 2015TIP3   OH227603   5.028   4.281   1.164 -0.0035  0.3903  0.2544
 2015TIP3    H127604   4.948   4.290   1.215 -0.1894 -0.4665  0.1295
 2015TIP3    H227605   5.058   4.192   1.182  1.0137  0.7527  0.4248
 2016TIP3   OH227606   6.057   5.673   8.319  0.8203 -0.4390  0.1123
 2016TIP3    H127607   5.963   5.680   8.335  0.6820 -0.4794 -0.6553
 2016TIP3    H227608   6.095   5.750   8.362  0.3293  0.1068 -0.4194
 2017TIP3   OH227609   2.664   5.194   0.325  0.3470  0.5876 -0.3971
 2017TIP3    H127610   2.695   5.156   0.407 -1.0883  1.0679  0.3997
 2017TIP3    H227611   2.673   5.123   0.261  3.0720  0.7136 -0.2641
 2018TIP3   OH227612   3.431   1.417   0.837  0.2448 -0.0240 -0.0936
 2018TIP3    H127613   3.481   1.374   0.768 -0.0356  1.3882 -1.2254
 2018TIP3    H227614   3.348   1.440   0.796  1.1013  3.3621 -0.2421
 2019TIP3   OH227615   1.049   6.546   0.078 -0.0327 -0.4690  0.2354
 2019TIP3    H127616   1.003   6.567   0.159 -1.2815  2.2793 -1.0352
 2019TIP3    H227617   1.138   6.577   0.092  0.0137 -0.8712  0.8559
 2020TIP3   OH227618   3.170   3.779   7.779  0.7349  0.2544 -0.5742
 2020TIP3    H127619   3.129   3.843   7.722  0.6967  0.0326 -0.7990
 2020TIP3    H227620   3.121   3.698   7.762  0.7583  0.1761 -0.2672
 2021TIP3   OH227621   1.231   0.327   7.470  0.3261 -0.7521 -0.3010
 2021TIP3    H127622   1.137   0.339   7.483  0.2230 -1.8992  0.1934
 2021TIP3    H227623   1.267   0.415   7.473 -0.7545 -0.2674 -0.7413
 2022TIP3   OH227624   3.993   4.888   0.293 -0.3955 -0.8960  0.0580
 2022TIP3    H127625   4.013   4.953   0.360  0.9096 -1.0857 -0.1298
 2022TIP3    H227626   3.907   4.914   0.259 -1.8850 -1.6874  2.8646
 2023TIP3   OH227627   0.658   6.715   1.966 -0.0412  0.3981 -0.9232
 2023TIP3    H127628   0.653   6.800   2.009  0.7655  1.1581 -2.2872
 2023TIP3    H227629   0.647   6.652   2.037  0.8176  1.6137  0.3297
 2024TIP3   OH227630   1.394   1.843   7.734 -0.1425  0.4214  0.2025
 2024TIP3    H127631   1.300   1.859   7.739  0.1864  2.3720  0.7277
 2024TIP3    H227632   1.406   1.797   7.650 -1.5427  0.1042  0.1523
 2025TIP3   OH227633   5.915   4.274   1.290 -0.1275 -0.0572 -0.1589
 2025TIP3    H127634   5.823   4.282   1.264  0.1957 -1.5712 -1.9916
 2025TIP3    H227635   5.964   4.292   1.210  1.0982 -1.1770  0.2956
 2026TIP3   OH227636   0.575   5.074   8.609 -0.9013  0.2507  0.1084
 2026TIP3    H127637   0.565   5.168   8.623 -1.0439  0.5595 -1.8366
 2026TIP3    H227638   0.522   5.055   8.532 -0.3737 -1.3212  0.0914
 2027TIP3   OH227639   5.035   2.437   1.080 -0.0087  0.2891  0.1508
 2027TIP3    H127640   5.036   2.346   1.110  0.5888 -0.6481 -2.4811
 2027TIP3    H227641   5.018   2.432   0.986  1.1665  2.8308 -0.2871
 2028TIP3   OH227642   2.334   4.894   7.607  0.0719  0.6755  0.6185
 2028TIP3    H127643   2.343   4.831   7.536  1.6165 -0.9749  2.1659
 2028TIP3    H227644   2.373   4.975   7.573 -0.5567  0.4008 -0.8620
 2029TIP3   OH227645   4.322   0.110   1.474 -0.7031  0.3388 -0.2884
 2029TIP3    H127646   4.318   0.187   1.531  2.6227 -0.0824  0.7351
 2029TIP3    H227647   4.399   0.126   1.419 -0.6938 -1.7026 -0.9246
 2030TIP3   OH227648   5.181   1.226   1.446 -0.0312 -0.4676 -0.0295
 2030TIP3    H127649   5.241   1.221   1.520 -0.5242 -3.2162  0.2970
 2030TIP3    H227650   5.104   1.270   1.480  0.6475  0.4235  0.3841
 2031TIP3   OH227651   6.403   4.546   2.606  0.0170  0.1995  0.3711
 2031TIP3    H127652   6.402   4.639   2.583 -0.7884 -0.1525 -1.1402
 2031TIP3    H227653   6.373   4.543   2.697 -1.1988  1.3119  0.0251
 2032TIP3   OH227654   2.871   0.514   2.426 -0.3246  0.3012  0.7843
 2032TIP3    H127655   2.919   0.500   2.344 -1.1209 -0.0561  0.3672
 2032TIP3    H227656   2.787   0.471   2.412 -0.5175  0.3443  1.7541
 2033TIP3   OH227657   3.584   5.840   1.976 -0.7942 -0.0342 -0.9080
 2033TIP3    H127658   3.500   5.826   2.018 -0.6528  0.4941 -0.4400
 2033TIP3    H227659   3.648   5.808   2.040 -0.5702  0.9345 -0.6270
 2034TIP3   OH227660   4.319   0.805   2.527 -0.3170 -0.2840  0.4328
 2034TIP3    H127661   4.401   0.848   2.550  0.5067 -0.5191 -1.7586
 2034TIP3    H227662   4.308   0.736   2.592  0.4371  0.6894  1.6211
 2035TIP3   OH227663   5.701   5.183   7.218  0.3320  0.1562 -1.0796
 2035TIP3    H127664   5.713   5.263   7.269 -1.0486 -1.2044  1.5871
 2035TIP3    H227665   5.787   5.142   7.217  0.3119  0.0218  0.5871
 2036TIP3   OH227666   1.977   5.625   2.818 -0.1569 -0.4744  0.0403
 2036TIP3    H127667   2.066   5.593   2.805  0.5974 -0.2943  3.6967
 2036TIP3    H227668   1.976   5.712   2.778  0.4886 -1.3829 -2.1297
 2037TIP3   OH227669   2.074   5.003   7.388 -0.2750 -0.1141 -0.6639
 2037TIP3    H127670   2.085   4.942   7.462  1.6903 -0.3150 -1.0668
 2037TIP3    H227671   2.043   5.084   7.429  0.8221 -0.2048  0.4209
 2038TIP3   OH227672   1.862   3.298   1.911 -0.5012 -0.2964 -0.4072
 2038TIP3    H127673   1.948   3.302   1.953 -0.4086  0.9334 -0.6709
 2038TIP3    H227674   1.815   3.231   1.959  0.4019 -0.5632  0.1344
 2039TIP3   OH227675   5.875   3.082   8.711  0.1253 -0.2611 -0.3749
 2039TIP3    H127676   5.879   3.142   8.786 -1.5417 -0.2590 -0.2539
 2039TIP3    H227677   5.953   3.028   8.720  0.0661 -0.1322  1.2765
 2040TIP3   OH227678   2.184   1.379   1.693 -0.6823  0.2071 -0.4495
 2040TIP3    H127679   2.184   1.283   1.696 -1.3228  0.2214  1.4575
 2040TIP3    H227680   2.276   1.403   1.688 -0.2385 -0.5284  2.3186
 2041TIP3   OH227681   2.236   0.910   2.849 -0.1074 -0.3735  0.0940
 2041TIP3    H127682   2.242   0.905   2.753  0.7952 -1.6638  0.1898
 2041TIP3    H227683   2.289   0.987   2.872 -1.8102  1.0395 -0.5289
 2042TIP3   OH227684   0.863   4.178   8.072 -0.7011  0.7453  0.0285
 2042TIP3    H127685   0.935   4.237   8.052  0.1006 -0.2905 -0.2114
 2042TIP3    H227686   0.888   4.136   8.154  0.3681 -1.7095 -1.4660
 2043TIP3   OH227687   0.206   2.873   1.959  0.4900 -0.3917  0.3262
 2043TIP3    H127688   0.127   2.926   1.963  0.5478 -0.2806 -0.0037
 2043TIP3    H227689   0.178   2.785   1.986  0.4441 -0.1442  1.0956
 2044TIP3   OH227690   6.483   4.522   1.802  0.0744 -0.1986 -0.1548
 2044TIP3    H127691   6.548   4.479   1.746  0.3495 -0.6641  0.4959
 2044TIP3    H227692   6.493   4.478   1.887  0.6337  1.4317  0.6540
 2045TIP3   OH227693   0.446   1.217   1.852 -0.3427 -0.7257  0.7781
 2045TIP3    H127694   0.508   1.145   1.838 -1.6795 -2.0217  1.2707
 2045TIP3    H227695   0.441   1.226   1.947 -0.7591 -0.4841  0.7345
 2046TIP3   OH227696   3.915   3.779   1.185 -0.0256 -0.6741 -0.2896
 2046TIP3    H127697   3.928   3.686   1.203 -0.0369 -1.1752 -2.5784
 2046TIP3    H227698   3.876   3.814   1.266 -1.1158 -2.8752  0.2153
 2047TIP3   OH227699   2.935   3.349   1.769  0.9036 -0.1024 -0.2545
 2047TIP3    H127700   2.917   3.439   1.797 -1.3196 -0.1085 -1.4478
 2047TIP3    H227701   2.881   3.337   1.691  0.3659 -2.7985  0.4203
 2048TIP3   OH227702   0.015   2.991   1.662  0.5423  0.6425  0.2302
 2048TIP3    H127703   0.065   2.913   1.636  0.6933  1.0024 -0.5657
 2048TIP3    H227704  -0.055   2.956   1.717  0.8444 -0.0169  0.2153
 2049TIP3   OH227705   0.080   2.126   8.341 -0.6229  0.3339  0.1188
 2049TIP3    H127706   0.110   2.217   8.344  1.1483 -0.2366  1.1891
 2049TIP3    H227707   0.015   2.120   8.411 -0.0658  0.5504  0.6557
 2050TIP3   OH227708   4.337   5.907   2.809 -0.2330  0.1995 -0.1755
 2050TIP3    H127709   4.336   5.999   2.781 -0.1511 -0.1222 -1.2718
 2050TIP3    H227710   4.359   5.858   2.730 -0.3472 -0.7785  0.3834
 2051TIP3   OH227711   2.003   1.914   6.812 -0.3638  0.3209 -0.2107
 2051TIP3    H127712   2.096   1.892   6.806 -0.2847  0.6749 -0.2708
 2051TIP3    H227713   1.995   1.996   6.765 -0.8737 -0.1815 -1.0156
 2052TIP3   OH227714   4.990   3.829   0.177  0.1871  0.1541  0.4796
 2052TIP3    H127715   5.024   3.829   0.266  2.3770 -0.3300 -0.2814
 2052TIP3    H227716   4.934   3.752   0.171 -0.0553  0.2509  1.4529
 2053TIP3   OH227717   2.979   1.167   2.805 -0.1608 -0.0286  0.5966
 2053TIP3    H127718   3.043   1.213   2.859 -1.6453  0.6909  1.8145
 2053TIP3    H227719   3.025   1.151   2.722  1.1174  1.7035  0.9177
 2054TIP3   OH227720   1.540   6.684   7.975 -0.4813  0.0489 -0.2335
 2054TIP3    H127721   1.555   6.591   7.956 -0.1523 -0.7335  3.2118
 2054TIP3    H227722   1.456   6.685   8.022  0.1539  1.2740  0.9486
 2055TIP3   OH227723   2.208   4.223   7.598  0.3580 -0.6696 -0.2268
 2055TIP3    H127724   2.218   4.307   7.553  1.5900 -0.2593  0.7482
 2055TIP3    H227725   2.115   4.202   7.589 -0.4689  1.8722  1.3351
 2056TIP3   OH227726   3.678   3.554   1.941 -0.3277  0.4320  0.1292
 2056TIP3    H127727   3.617   3.490   1.906 -0.2097 -0.9385  2.2432
 2056TIP3    H227728   3.765   3.517   1.921 -0.1635  1.6260 -1.5425
 2057TIP3   OH227729   4.884   5.206   0.519 -0.5377  0.0902 -0.0423
 2057TIP3    H127730   4.839   5.182   0.438  0.5236  1.7849 -1.2077
 2057TIP3    H227731   4.815   5.241   0.575 -1.1905 -0.5047 -0.4541
 2058TIP3   OH227732   5.837   0.212   6.728  0.3510  0.3626 -0.2456
 2058TIP3    H127733   5.781   0.228   6.803  1.2584  0.9851  0.3183
 2058TIP3    H227734   5.906   0.277   6.735  1.1557 -0.3857 -0.9084
 2059TIP3   OH227735   4.167   5.023   7.089 -0.1844  0.8534 -0.0998
 2059TIP3    H127736   4.207   5.021   7.001 -1.1761 -0.5686 -0.5473
 2059TIP3    H227737   4.231   5.070   7.143  1.1677  0.3982 -1.2383
 2060TIP3   OH227738   0.260   1.062   2.256 -0.5242 -0.1683 -0.0526
 2060TIP3    H127739   0.185   1.006   2.272 -0.6327  0.5118  2.3301
 2060TIP3    H227740   0.336   1.008   2.279 -0.4909  0.0099  0.2666
 2061TIP3   OH227741   4.728   0.708   0.863 -0.2046 -0.1560 -0.2445
 2061TIP3    H127742   4.820   0.692   0.839 -0.4389 -0.2353 -1.1515
 2061TIP3    H227743   4.686   0.731   0.780 -1.0287 -0.2083  0.1491
 2062TIP3   OH227744   3.998   6.771   8.532  0.3913 -0.3962 -0.5676
 2062TIP3    H127745   3.983   6.722   8.451 -1.6263 -1.3583  0.3101
 2062TIP3    H227746   3.924   6.747   8.588  1.4632  0.6257  1.3801
 2063TIP3   OH227747   3.011   3.896   0.669  0.3443 -0.3160 -0.4688
 2063TIP3    H127748   3.017   3.990   0.686 -0.6681 -0.3801  0.2985
 2063TIP3    H227749   3.005   3.890   0.573  3.6405  0.1909 -0.8280
 2064TIP3   OH227750   2.937   5.605   0.636 -0.1785  0.0285  0.0292
 2064TIP3    H127751   3.006   5.558   0.683  0.2485  1.0499  0.4476
 2064TIP3    H227752   2.873   5.537   0.614  1.1434 -1.0240 -0.7618
 2065TIP3   OH227753   4.319   1.590   1.714 -0.1869  0.5263  0.3821
 2065TIP3    H127754   4.307   1.672   1.761  0.8721 -0.1109  1.8738
 2065TIP3    H227755   4.407   1.597   1.677 -0.0160  0.0144  0.6772
 2066TIP3   OH227756   2.225   3.229   1.072  0.3384  0.6706  0.4239
 2066TIP3    H127757   2.222   3.300   1.009 -3.1085  1.0484  0.8234
 2066TIP3    H227758   2.317   3.221   1.095  1.6355  1.1115 -3.8830
 2067TIP3   OH227759   4.566   4.384   1.661 -0.3560  0.3205 -0.2531
 2067TIP3    H127760   4.536   4.339   1.582  1.0787  0.3758 -0.8604
 2067TIP3    H227761   4.486   4.405   1.709 -1.1207 -2.1312 -0.3491
 2068TIP3   OH227762   4.785   6.315   7.358  0.3669  1.0288  0.1718
 2068TIP3    H127763   4.696   6.290   7.334  1.0329  0.3808 -1.8648
 2068TIP3    H227764   4.817   6.243   7.412  0.3378  0.2417 -0.8418
 2069TIP3   OH227765   2.786   2.499   8.284 -0.2082 -0.1193 -0.2649
 2069TIP3    H127766   2.825   2.482   8.370 -0.3549 -0.3775 -0.2488
 2069TIP3    H227767   2.858   2.486   8.222  0.1145  0.8935 -0.1235
 2070TIP3   OH227768   5.685   6.126   1.982  0.7348  0.0495  0.3892
 2070TIP3    H127769   5.678   6.093   1.893  0.3931  0.2180  0.3521
 2070TIP3    H227770   5.758   6.188   1.980 -1.0506  2.2293 -0.4539
 2071TIP3   OH227771   6.471   6.832   1.813  0.4150 -0.1650  0.4909
 2071TIP3    H127772   6.539   6.807   1.875 -0.2752  0.4035  1.5079
 2071TIP3    H227773   6.389   6.807   1.856 -0.0377 -0.5955 -0.5927
 2072TIP3   OH227774   4.310   0.002   0.217 -0.4573  0.8351  0.7550
 2072TIP3    H127775   4.298  -0.002   0.122  1.6118 -1.9429  0.5032
 2072TIP3    H227776   4.247  -0.060   0.252  0.3606  0.1143  0.9730
 2073TIP3   OH227777   3.108   2.427   0.516 -0.1297  0.1251  0.0057
 2073TIP3    H127778   3.017   2.455   0.507  0.0094  0.6479  0.1621
 2073TIP3    H227779   3.107   2.367   0.590 -0.0783  1.4573  1.1259
 2074TIP3   OH227780   6.799   6.157   7.275  0.1378  0.2846 -0.4846
 2074TIP3    H127781   6.822   6.065   7.285 -1.9771 -0.0893  2.0816
 2074TIP3    H227782   6.754   6.162   7.191 -0.3976 -1.2333 -0.3225
 2075TIP3   OH227783   1.803   0.988   7.799  0.1690  0.6415 -0.0038
 2075TIP3    H127784   1.757   0.934   7.734  0.4737 -1.0562  1.1402
 2075TIP3    H227785   1.810   0.932   7.876  0.5914  2.3143  1.2132
 2076TIP3   OH227786   6.132   6.266   0.442 -0.5803 -0.4489  0.4692
 2076TIP3    H127787   6.222   6.254   0.471 -0.9068 -0.0049  1.7609
 2076TIP3    H227788   6.110   6.185   0.395  0.4562 -0.5807  0.1860
 2077TIP3   OH227789   0.818   0.686   1.222 -0.5546 -0.0838  0.0441
 2077TIP3    H127790   0.830   0.765   1.274  1.0307  0.3498 -0.9250
 2077TIP3    H227791   0.896   0.680   1.167 -0.0482 -2.9611  0.8845
 2078TIP3   OH227792   4.704   6.449   8.107 -0.0744 -0.3170 -0.9765
 2078TIP3    H127793   4.689   6.520   8.168  0.8348  0.8136 -2.0098
 2078TIP3    H227794   4.780   6.477   8.056  0.2083 -1.9591 -1.5269
 2079TIP3   OH227795   1.445   2.392   3.046 -0.0231  0.2678  0.0727
 2079TIP3    H127796   1.510   2.455   3.015 -0.2078  0.5312  0.2242
 2079TIP3    H227797   1.496   2.331   3.100 -0.0107  0.8487  0.7240
 2080TIP3   OH227798   2.417   5.171   7.531  0.2768 -0.3484 -0.1383
 2080TIP3    H127799   2.445   5.261   7.544  2.1628 -0.7880 -0.8507
 2080TIP3    H227800   2.375   5.171   7.445  1.6182 -0.3882 -0.8289
 2081TIP3   OH227801   0.644   3.358   8.453  0.7586  0.1739  0.8609
 2081TIP3    H127802   0.568   3.410   8.479  1.2800  0.5031  1.7674
 2081TIP3    H227803   0.618   3.267   8.468 -0.5178  0.0532 -1.6701
 2082TIP3   OH227804   0.677   3.206   7.584  0.0998 -0.1324 -0.7457
 2082TIP3    H127805   0.628   3.207   7.502  0.8039 -0.1582 -1.1717
 2082TIP3    H227806   0.754   3.261   7.568 -0.5236  1.1516  0.3922
 2083TIP3   OH227807   2.210   4.746   8.428 -0.6140  0.2430  0.3483
 2083TIP3    H127808   2.196   4.761   8.335 -1.4903  0.9084  0.5721
 2083TIP3    H227809   2.280   4.681   8.432  0.5231  1.3461 -0.7514
 2084TIP3   OH227810   0.757   0.982   2.029 -0.5497  0.7254  0.0147
 2084TIP3    H127811   0.686   0.966   1.967 -1.1190 -0.6978  0.9825
 2084TIP3    H227812   0.715   1.028   2.102 -0.0232  1.7799 -0.3243
 2085TIP3   OH227813   0.432   2.286   0.729 -0.1252  0.0513 -0.2614
 2085TIP3    H127814   0.520   2.296   0.694  0.0259  0.0821  0.1238
 2085TIP3    H227815   0.444   2.243   0.814 -0.5091 -0.2800 -0.3722
 2086TIP3   OH227816   1.617   5.894   1.336  0.3126 -0.1160 -0.3636
 2086TIP3    H127817   1.629   5.950   1.259  2.1166 -1.0097 -0.8018
 2086TIP3    H227818   1.543   5.837   1.313 -0.3471  0.8449 -0.6607
 2087TIP3   OH227819   3.006   0.318   1.324 -0.2636  0.1925 -0.2088
 2087TIP3    H127820   2.969   0.232   1.345 -0.9719  0.1680 -1.4452
 2087TIP3    H227821   3.041   0.350   1.407  0.7677 -1.6440  0.1151
 2088TIP3   OH227822   6.628   5.245   7.485  0.0953 -0.0242 -0.0645
 2088TIP3    H127823   6.624   5.159   7.443  0.7316 -1.1666  2.0449
 2088TIP3    H227824   6.719   5.254   7.512  0.2239  1.7113 -0.9354
 2089TIP3   OH227825   0.054   4.353   8.409 -0.0213 -0.4117  0.2656
 2089TIP3    H127826   0.018   4.422   8.353 -0.8647 -0.9713  0.1059
 2089TIP3    H227827   0.039   4.272   8.360  1.2420 -0.6914  0.3110
 2090TIP3   OH227828   4.131   4.552   1.793 -0.2466  0.0874  0.5413
 2090TIP3    H127829   4.094   4.471   1.757 -0.1205 -1.1566  3.0134
 2090TIP3    H227830   4.212   4.565   1.743 -0.4213 -1.1255 -0.1179
 2091TIP3   OH227831   5.356   2.782   7.856 -0.0871  0.0042  0.4867
 2091TIP3    H127832   5.336   2.705   7.803 -0.6469  0.9361 -0.7215
 2091TIP3    H227833   5.429   2.824   7.810 -1.4200  1.5247 -0.3359
 2092TIP3   OH227834   6.430   1.388   7.058  0.5113  0.5532  0.1116
 2092TIP3    H127835   6.344   1.428   7.069 -0.1866 -0.1892 -2.0209
 2092TIP3    H227836   6.485   1.459   7.025 -0.4430  0.1626 -2.6100
 2093TIP3   OH227837   4.079   2.034   3.252 -0.3865  0.3250 -0.2628
 2093TIP3    H127838   3.999   2.004   3.296  0.6014  1.2080  2.3540
 2093TIP3    H227839   4.075   2.129   3.259  0.4515  0.4232 -1.0168
 2094TIP3   OH227840   3.967   1.462   1.057 -0.4010  0.0058 -0.4795
 2094TIP3    H127841   4.018   1.518   1.116 -1.3941  0.8569 -0.3933
 2094TIP3    H227842   4.031   1.402   1.019  1.0566  2.3142 -1.9199
 2095TIP3   OH227843   1.618   1.025   8.100  0.4697  0.3487 -0.1519
 2095TIP3    H127844   1.691   0.989   8.151 -0.8723  0.0023  1.6011
 2095TIP3    H227845   1.642   1.116   8.084  1.6065  0.0484 -0.2502
 2096TIP3   OH227846   4.954   4.048   0.443 -0.0564 -0.2641  0.4545
 2096TIP3    H127847   5.007   3.971   0.423 -0.5227 -0.0344 -2.1285
 2096TIP3    H227848   4.966   4.063   0.536  1.7747 -2.1636  0.5941
 2097TIP3   OH227849   0.910   3.615   7.927 -0.4961  0.3067  0.1869
 2097TIP3    H127850   0.827   3.656   7.905 -1.0673 -0.3229  1.1030
 2097TIP3    H227851   0.975   3.662   7.875 -1.3645  1.1119 -0.1859
 2098TIP3   OH227852   1.801   2.910   7.890 -0.4220  0.2024 -0.1314
 2098TIP3    H127853   1.736   2.978   7.870 -0.7473 -0.6412 -2.2267
 2098TIP3    H227854   1.885   2.950   7.867 -0.3872  0.6055  0.6679
 2099TIP3   OH227855   1.015   0.536   1.088  0.5685  0.0690  0.4360
 2099TIP3    H127856   0.986   0.549   0.997 -0.5122 -1.0616  0.6002
 2099TIP3    H227857   1.110   0.538   1.083  0.5149  1.2025 -0.5416
 2100TIP3   OH227858   4.639   4.223   8.196  0.0839  0.1604  0.2980
 2100TIP3    H127859   4.632   4.262   8.283 -1.7729 -0.5849  0.5256
 2100TIP3    H227860   4.586   4.279   8.139 -0.2542 -0.4106  0.0413
 2101TIP3   OH227861   1.233   1.048   1.253 -0.2387  0.0228 -0.5739
 2101TIP3    H127862   1.266   0.962   1.226 -1.4599 -0.6749  0.0349
 2101TIP3    H227863   1.308   1.091   1.293  0.1083 -1.2881  0.2671
 2102TIP3   OH227864   0.716   4.834   0.665 -0.1064  0.1727 -0.5308
 2102TIP3    H127865   0.783   4.899   0.647  0.1046  0.1988  0.2881
 2102TIP3    H227866   0.670   4.867   0.742 -0.6636 -0.1462 -0.7170
 2103TIP3   OH227867   4.349   1.744   7.503  0.7517  0.5478  1.0445
 2103TIP3    H127868   4.436   1.742   7.464  0.0569 -1.0314 -0.5363
 2103TIP3    H227869   4.362   1.786   7.588  2.8032  1.5574  0.2923
 2104TIP3   OH227870   2.849   2.485   1.348 -0.1111 -0.4430  0.0400
 2104TIP3    H127871   2.893   2.408   1.313 -1.4604 -0.8982 -0.7289
 2104TIP3    H227872   2.912   2.556   1.336  0.7501 -1.2269 -0.2020
 2105TIP3   OH227873   5.931   0.936   0.400  0.0278  0.3538 -0.0724
 2105TIP3    H127874   5.904   1.027   0.393 -0.2775  0.5523  2.5095
 2105TIP3    H227875   5.914   0.913   0.492  0.1982 -2.2714 -0.6112
 2106TIP3   OH227876   6.226   0.680   7.696 -0.4666  0.1168 -0.0425
 2106TIP3    H127877   6.168   0.604   7.691 -1.4869  0.9289 -0.9596
 2106TIP3    H227878   6.222   0.708   7.787 -0.3552 -0.7001  0.2238
 2107TIP3   OH227879   1.908   0.582   2.288  0.5136 -0.0024  0.4779
 2107TIP3    H127880   1.947   0.648   2.231  0.1885 -0.9816 -0.9329
 2107TIP3    H227881   1.982   0.549   2.340  1.0403  0.0858 -0.1998
 2108TIP3   OH227882   2.615   0.057   0.378 -0.0892 -0.3622 -0.6857
 2108TIP3    H127883   2.640   0.017   0.461 -1.3817 -0.4442 -0.3245
 2108TIP3    H227884   2.522   0.040   0.370 -0.1995  0.5994 -1.6301
 2109TIP3   OH227885   1.637   0.591   2.859 -0.4373 -0.3627  0.2215
 2109TIP3    H127886   1.593   0.510   2.832  0.4646 -0.8176  0.0793
 2109TIP3    H227887   1.573   0.636   2.914 -0.0823 -2.3261  2.3563
 2110TIP3   OH227888   4.918   3.601   1.688 -0.0329 -0.1537 -0.1969
 2110TIP3    H127889   4.866   3.614   1.609 -2.1850  0.3999  1.2383
 2110TIP3    H227890   4.892   3.514   1.720 -0.3138  0.2555  0.7020
 2111TIP3   OH227891   3.208   5.856   7.222 -0.0381  0.2641 -0.2936
 2111TIP3    H127892   3.123   5.886   7.189  0.2286  0.7298 -0.5719
 2111TIP3    H227893   3.201   5.760   7.225 -1.2578  0.3679  1.5720
 2112TIP3   OH227894   5.243   2.657   1.423 -0.5491  0.1233  0.0388
 2112TIP3    H127895   5.171   2.651   1.360  0.4765 -2.1357 -1.0501
 2112TIP3    H227896   5.202   2.641   1.508 -1.4862 -0.1415 -0.4504
 2113TIP3   OH227897   2.051   2.831   2.502 -0.4980 -0.4353  0.2779
 2113TIP3    H127898   2.134   2.855   2.543  0.8181  0.0726 -2.4752
 2113TIP3    H227899   2.068   2.747   2.460 -1.6376 -0.7057  0.3263
 2114TIP3   OH227900   3.333   4.985   8.597  0.5563 -0.2478 -0.4560
 2114TIP3    H127901   3.344   5.079   8.610 -2.7535  0.0435  1.3192
 2114TIP3    H227902   3.326   4.974   8.502 -0.5421  1.5638 -0.6227
 2115TIP3   OH227903   4.856   5.889   1.781 -0.1109 -0.5091  0.4710
 2115TIP3    H127904   4.915   5.934   1.720 -1.1693  0.8723  0.4187
 2115TIP3    H227905   4.912   5.828   1.828  1.3972  0.8394  0.5061
 2116TIP3   OH227906   6.462   6.586   2.999  0.0964  0.1651  0.1392
 2116TIP3    H127907   6.500   6.609   2.914 -0.4635 -0.6297 -0.3400
 2116TIP3    H227908   6.477   6.492   3.007  0.8233  0.3592  1.2811
 2117TIP3   OH227909   6.245   6.692   1.406 -0.0043 -0.1058  0.4447
 2117TIP3    H127910   6.203   6.771   1.373  0.3681  0.0375  0.3172
 2117TIP3    H227911   6.194   6.669   1.484  1.7428  2.0603  2.3976
 2118TIP3   OH227912   4.497   3.359   1.312  0.0659 -0.2165  0.4709
 2118TIP3    H127913   4.541   3.292   1.259  1.7157  0.8466  0.4233
 2118TIP3    H227914   4.568   3.415   1.344 -1.2139  1.1834  0.9822
 2119TIP3   OH227915   6.570   4.725   0.794 -0.0996 -0.6057  0.2639
 2119TIP3    H127916   6.553   4.722   0.888  0.0766 -0.4554  0.3023
 2119TIP3    H227917   6.584   4.818   0.775  1.0205 -0.7524  0.3019
 2120TIP3   OH227918   5.551   5.393   7.918 -0.3925 -0.1838 -0.2247
 2120TIP3    H127919   5.520   5.386   8.008  0.4246  4.4625  0.6897
 2120TIP3    H227920   5.625   5.332   7.913 -1.2740 -1.5151  1.7905
 2121TIP3   OH227921   3.555   2.571   0.677 -0.1690 -0.0760  0.1574
 2121TIP3    H127922   3.505   2.523   0.743  0.3847  0.5302  1.0375
 2121TIP3    H227923   3.525   2.661   0.685  2.2874  0.7036  2.0233
 2122TIP3   OH227924   2.523   6.768   1.411 -0.3444  0.7021 -0.8556
 2122TIP3    H127925   2.561   6.813   1.335  2.3313  0.1297  0.0480
 2122TIP3    H227926   2.597   6.726   1.453 -1.8012  0.7374  1.9412
 2123TIP3   OH227927   1.431   2.798   7.817 -0.0484  0.1512 -0.2215
 2123TIP3    H127928   1.411   2.784   7.909  0.4919 -1.4341 -0.3040
 2123TIP3    H227929   1.405   2.888   7.799  1.0238  0.9289  1.8023
 2124TIP3   OH227930   2.335   5.755   7.136  0.3475 -0.0483 -0.0878
 2124TIP3    H127931   2.296   5.841   7.154 -1.2840 -0.9930  1.0911
 2124TIP3    H227932   2.296   5.728   7.053  1.2369  0.5357 -0.7115
 2125TIP3   OH227933   0.845   3.414   7.452  0.0259  0.3775  0.3581
 2125TIP3    H127934   0.930   3.419   7.408  0.0470  0.6332  0.4273
 2125TIP3    H227935   0.820   3.505   7.468 -0.3425  0.3121  0.1816
 2126TIP3   OH227936   5.366   5.969   2.481  0.9469 -0.4194  0.1572
 2126TIP3    H127937   5.358   5.874   2.489  1.5184 -0.3619  1.6576
 2126TIP3    H227938   5.278   6.002   2.497  0.8325 -0.6782  0.0619
 2127TIP3   OH227939   5.956   0.685   0.257  0.5151 -0.7960 -0.0577
 2127TIP3    H127940   5.949   0.766   0.308 -0.1234 -0.0380 -1.3031
 2127TIP3    H227941   6.021   0.633   0.304  0.3668  0.1049  1.2038
 2128TIP3   OH227942   6.211   3.758   8.729  0.0243  0.2698 -0.1371
 2128TIP3    H127943   6.188   3.829   8.669  0.4881  1.7763  1.3854
 2128TIP3    H227944   6.306   3.756   8.728  0.0452  0.4749  0.7027
 2129TIP3   OH227945   4.565   1.816   1.238  0.0770 -0.5118 -0.4536
 2129TIP3    H127946   4.657   1.790   1.231  0.6945  1.6508 -1.3236
 2129TIP3    H227947   4.531   1.809   1.148 -0.5723 -1.1568 -0.1635
 2130TIP3   OH227948   3.332   0.002   1.855 -0.2338  0.0693 -0.2553
 2130TIP3    H127949   3.336  -0.063   1.785  2.6871 -0.2512  0.0562
 2130TIP3    H227950   3.398   0.067   1.830  0.2010  0.4280  1.6869
 2131TIP3   OH227951   2.216   0.094   0.593  0.7960 -0.2485 -0.4567
 2131TIP3    H127952   2.304   0.069   0.622  1.6029  1.4118 -1.3495
 2131TIP3    H227953   2.169   0.113   0.674  0.3945 -3.5207  0.2475
 2132TIP3   OH227954   4.187   0.908   1.345 -0.3713 -0.2306  0.1604
 2132TIP3    H127955   4.207   0.971   1.414  0.1105 -0.8448  0.5952
 2132TIP3    H227956   4.249   0.837   1.358 -1.8039 -1.4709  0.5897
 2133TIP3   OH227957   4.758   4.263   1.841 -0.2266 -0.7346  0.3618
 2133TIP3    H127958   4.772   4.174   1.808  0.1833 -0.7742  0.6298
 2133TIP3    H227959   4.685   4.296   1.790 -0.3405 -1.2045  0.2111
 2134TIP3   OH227960   3.218   2.887   0.617 -0.1655 -0.1179  0.5996
 2134TIP3    H127961   3.245   2.910   0.706  1.6032 -2.5724  0.7859
 2134TIP3    H227962   3.254   2.957   0.562  0.5574  0.3080  1.5839
 2135TIP3   OH227963   3.002   1.662   0.777 -0.5067  0.6708 -0.4390
 2135TIP3    H127964   2.980   1.754   0.796  1.0782  0.7406  1.3777
 2135TIP3    H227965   2.941   1.611   0.829  0.2408  0.7681  0.5567
 2136TIP3   OH227966   4.468   5.474   1.366  0.2681  0.0465 -0.4863
 2136TIP3    H127967   4.511   5.539   1.421  0.6966 -0.0861 -0.6623
 2136TIP3    H227968   4.458   5.517   1.281  0.4876 -0.0918 -0.5826
 2137TIP3   OH227969   1.529   0.580   0.743 -0.3543  0.1453  0.5798
 2137TIP3    H127970   1.577   0.654   0.779 -1.7037  1.9203 -1.0264
 2137TIP3    H227971   1.446   0.579   0.791 -0.3320 -0.3461  0.6117
 2138TIP3   OH227972   4.426   3.351   1.941  0.3937 -0.1565  0.4901
 2138TIP3    H127973   4.482   3.289   1.893 -0.1440 -0.2226 -0.0585
 2138TIP3    H227974   4.376   3.395   1.874  1.2677  1.4069  0.8138
 2139TIP3   OH227975   4.688   1.333   0.524  0.0451 -0.3799  0.2507
 2139TIP3    H127976   4.599   1.338   0.490 -0.5881  1.2097  1.9472
 2139TIP3    H227977   4.678   1.297   0.612  0.7811  1.6912  1.2559
 2140TIP3   OH227978   0.524   3.980   2.222  0.3951  0.1397 -0.2418
 2140TIP3    H127979   0.589   3.910   2.229 -0.1090 -0.3197 -0.0168
 2140TIP3    H227980   0.575   4.060   2.210  0.9683 -0.3297 -1.0177
 2141TIP3   OH227981   3.602   6.419   2.208 -0.3518  0.0947  0.1570
 2141TIP3    H127982   3.559   6.338   2.234  0.8597 -0.8047 -0.5291
 2141TIP3    H227983   3.680   6.424   2.262  0.3472  0.0299 -0.8168
 2142TIP3   OH227984   4.841   1.245   1.709  0.1325 -0.2452  0.3633
 2142TIP3    H127985   4.748   1.220   1.712  0.5498 -1.8632  1.2045
 2142TIP3    H227986   4.863   1.268   1.799  0.9451 -1.5860  0.5411
 2143TIP3   OH227987   5.163   2.944   8.407  0.5122  0.2796 -0.5759
 2143TIP3    H127988   5.083   2.988   8.378  1.1853  1.0081 -1.4140
 2143TIP3    H227989   5.213   2.930   8.326  0.9478 -0.7544 -0.1455
 2144TIP3   OH227990   0.080   1.774   7.411 -0.2236 -0.0333 -0.3037
 2144TIP3    H127991   0.143   1.706   7.434  0.8107  0.7244 -0.7574
 2144TIP3    H227992   0.087   1.838   7.481  2.3101  1.8616 -2.0800
 2145TIP3   OH227993   1.109   4.004   8.721  0.3514  0.3371 -0.1453
 2145TIP3    H127994   1.099   4.063   8.647 -1.0762  0.6171  0.2349
 2145TIP3    H227995   1.056   3.927   8.699 -1.0780  0.9300  1.0540
 2146TIP3   OH227996   3.411   2.115   0.580 -0.4283  0.5053  0.5320
 2146TIP3    H127997   3.439   2.068   0.501 -0.4075  1.7092 -0.2055
 2146TIP3    H227998   3.488   2.163   0.608 -0.4110  0.0228  1.3634
 2147TIP3   OH227999   2.039   2.297   8.410  0.3110  0.0980 -0.2241
 2147TIP3    H128000   1.989   2.301   8.491  0.0255 -1.1707 -0.3215
 2147TIP3    H228001   2.116   2.245   8.433  0.6946  0.5150 -0.5420
 2148TIP3   OH228002   2.726   2.835   2.458  1.1404 -0.2223  0.7239
 2148TIP3    H128003   2.771   2.780   2.394 -1.7719 -0.4437 -1.3580
 2148TIP3    H228004   2.657   2.778   2.494 -1.5577  1.7099 -1.0365
 2149TIP3   OH228005   4.904   2.948   2.097 -0.2030  0.5669  0.3554
 2149TIP3    H128006   4.950   2.866   2.081 -1.7376 -0.4767  1.1127
 2149TIP3    H228007   4.922   2.969   2.189 -0.7209  0.4996  0.4712
 2150TIP3   OH228008   3.953   6.236   2.008  0.0809 -0.3645 -0.6080
 2150TIP3    H128009   3.931   6.173   1.939 -0.1105 -0.5686 -0.3619
 2150TIP3    H228010   4.020   6.192   2.060  0.2586 -0.1913 -0.6856
 2151TIP3   OH228011   3.829   4.544   1.468 -0.2064  0.1803  0.4323
 2151TIP3    H128012   3.866   4.481   1.529 -2.6458  0.8434  2.8008
 2151TIP3    H228013   3.828   4.627   1.516 -1.1473  1.0046 -0.9243
 2152TIP3   OH228014   3.060   2.075   0.451 -0.0006  0.2870  0.0823
 2152TIP3    H128015   2.991   2.133   0.420 -0.7815 -0.2546  0.7580
 2152TIP3    H228016   3.097   2.038   0.371  0.0289  1.1548 -0.3240
 2153TIP3   OH228017   1.232   1.576   8.053  0.9194 -0.1325 -0.0092
 2153TIP3    H128018   1.294   1.562   7.981  0.4730 -0.2338 -0.3877
 2153TIP3    H228019   1.231   1.492   8.100  0.4685 -0.4076 -0.4926
 2154TIP3   OH228020   1.889   4.230   8.052  0.3513  0.0410  0.5212
 2154TIP3    H128021   1.902   4.286   7.975 -2.9805  0.2578 -0.0432
 2154TIP3    H228022   1.825   4.165   8.023  0.5508 -1.1538  2.5737
 2155TIP3   OH228023   4.767   4.522   7.820  0.1039 -0.3511  0.4818
 2155TIP3    H128024   4.816   4.604   7.811  0.9176 -0.8016  0.7545
 2155TIP3    H228025   4.736   4.503   7.732 -0.9248  0.7486  0.5798
 2156TIP3   OH228026   4.412   5.077   0.554 -0.4139  0.2808  0.9246
 2156TIP3    H128027   4.322   5.108   0.540 -0.8556 -1.6317 -1.1247
 2156TIP3    H228028   4.413   4.990   0.515  2.7450  0.8217 -0.4569
 2157TIP3   OH228029   4.269   6.633   7.935  0.4520 -0.0737 -0.2161
 2157TIP3    H128030   4.234   6.656   8.022  1.9830 -0.3308  0.4915
 2157TIP3    H228031   4.345   6.690   7.924  0.2845 -0.0629 -1.3970
 2158TIP3   OH228032   2.988   6.207   1.840 -0.6420 -0.2043  0.1460
 2158TIP3    H128033   3.038   6.129   1.863  1.9071  1.3327  0.1233
 2158TIP3    H228034   3.001   6.266   1.914 -0.0236  1.3114 -1.1305
 2159TIP3   OH228035   1.086   1.268   8.468  0.5312 -0.5169  0.4685
 2159TIP3    H128036   1.150   1.300   8.532 -0.6432 -0.5169  1.7056
 2159TIP3    H228037   1.042   1.196   8.514  0.7752 -1.6293 -0.9789
 2160TIP3   OH228038   2.727   3.084   1.056 -0.4887 -0.5776 -0.4118
 2160TIP3    H128039   2.781   3.129   1.121 -1.5319  0.7796 -0.4382
 2160TIP3    H228040   2.694   3.007   1.103 -0.7447  0.0627  0.4955
 2161TIP3   OH228041   4.946   2.164   7.575  0.1440  0.1790  0.3088
 2161TIP3    H128042   4.874   2.192   7.632  0.4309  2.4725 -0.3632
 2161TIP3    H228043   5.020   2.152   7.635 -0.6108 -1.6853  0.9337
 2162TIP3   OH228044   4.566   4.410   8.005 -0.4656  0.5589 -0.0113
 2162TIP3    H128045   4.471   4.415   7.999 -0.3908  1.1548 -0.8463
 2162TIP3    H228046   4.597   4.446   7.922  0.4338 -1.7184 -0.7394
 2163TIP3   OH228047   6.446   2.309   2.126 -0.0733  0.4872 -0.7333
 2163TIP3    H128048   6.384   2.298   2.054  1.0128  0.4356 -1.6819
 2163TIP3    H228049   6.483   2.222   2.140 -0.1273  0.5379 -0.2419
 2164TIP3   OH228050   6.142   4.047   7.857 -0.6139 -0.3729 -0.3597
 2164TIP3    H128051   6.207   4.115   7.843 -2.5082  1.3674 -1.1690
 2164TIP3    H228052   6.172   3.974   7.803  0.2478  0.6787 -1.3547
 2165TIP3   OH228053   6.329   6.239   8.003 -0.1946  0.6403  0.2395
 2165TIP3    H128054   6.243   6.279   7.992 -0.1962  1.1421  1.8783
 2165TIP3    H228055   6.391   6.312   7.993  0.0485  0.3269 -0.6719
 2166TIP3   OH228056   0.793   6.131   2.696 -0.5645 -0.2320 -0.7114
 2166TIP3    H128057   0.751   6.048   2.671 -3.1110  0.9965 -0.8582
 2166TIP3    H228058   0.771   6.191   2.624  0.8423  0.7057 -0.3912
 2167TIP3   OH228059   4.423   2.911   1.494  0.1795 -0.1745 -0.3522
 2167TIP3    H128060   4.367   2.964   1.550 -1.7488 -0.9655 -1.4202
 2167TIP3    H228061   4.484   2.973   1.454 -1.6213  1.1944 -1.1190
 2168TIP3   OH228062   5.117   3.098   7.650 -0.0160  0.4975 -0.5650
 2168TIP3    H128063   5.086   3.063   7.566  1.4329  1.4587 -1.5666
 2168TIP3    H228064   5.212   3.092   7.644  0.1239  0.9019  0.8908
 2169TIP3   OH228065   1.930   3.488   7.873 -0.1422 -0.1996  0.8546
 2169TIP3    H128066   1.880   3.529   7.802 -1.4994 -1.8124  0.8087
 2169TIP3    H228067   1.894   3.528   7.952  0.0102  0.2122  0.7162
 2170TIP3   OH228068   1.649   4.586   1.417  0.0819 -0.2991  0.2902
 2170TIP3    H128069   1.642   4.625   1.330 -1.4624 -0.9854  0.0648
 2170TIP3    H228070   1.710   4.513   1.406  2.5524  1.5953  0.5930
 2171TIP3   OH228071   2.392   4.340   7.992  0.2559 -0.9417  0.1784
 2171TIP3    H128072   2.381   4.308   7.902  0.0486  0.6743 -0.4151
 2171TIP3    H228073   2.315   4.307   8.039 -2.1607  1.8896 -1.4287
 2172TIP3   OH228074   3.100   5.702   7.801  0.1297  0.0688  0.2818
 2172TIP3    H128075   3.079   5.639   7.732 -1.0352 -0.6111  1.2160
 2172TIP3    H228076   3.047   5.779   7.781  1.0352  0.5035 -0.4806
 2173TIP3   OH228077   5.437   6.267   6.807 -0.1373  0.2647  0.5166
 2173TIP3    H128078   5.462   6.358   6.789  1.4312 -0.4385 -1.2342
 2173TIP3    H228079   5.518   6.225   6.836 -0.1190 -1.2191 -1.4968
 2174TIP3   OH228080   0.467   2.585   0.679  0.3448  0.5852 -0.4302
 2174TIP3    H128081   0.472   2.494   0.711 -2.5985  0.2511 -0.6432
 2174TIP3    H228082   0.539   2.629   0.724  2.6148 -2.0336 -1.1682
 2175TIP3   OH228083   5.702   5.421   1.822 -0.0302  0.1613  0.2985
 2175TIP3    H128084   5.691   5.395   1.914 -1.0008  3.2831  1.1830
 2175TIP3    H228085   5.793   5.450   1.816  0.2281 -0.6689  0.0635
 2176TIP3   OH228086   5.407   1.227   0.413 -0.3526  0.1002 -0.0956
 2176TIP3    H128087   5.431   1.196   0.326  2.2334  1.9539 -0.1592
 2176TIP3    H228088   5.413   1.322   0.407  0.7226  0.2501  2.2829
 2177TIP3   OH228089   1.317   1.854   2.590  0.1303  0.0556  0.0974
 2177TIP3    H128090   1.377   1.914   2.634 -0.3986  0.7611 -0.1259
 2177TIP3    H228091   1.282   1.799   2.660 -0.3911  0.8973  0.5204
 2178TIP3   OH228092   2.894   4.362   1.014 -0.1982 -0.6087 -0.4525
 2178TIP3    H128093   2.943   4.314   1.081 -0.3748  0.5400  0.5293
 2178TIP3    H228094   2.811   4.315   1.007  0.0220 -1.0388 -0.2514
 2179TIP3   OH228095   5.573   6.264   0.351  0.7207  0.2669  0.1675
 2179TIP3    H128096   5.666   6.263   0.330  0.8978  1.4497  0.7771
 2179TIP3    H228097   5.529   6.261   0.266  1.3908  3.1282 -0.3923
 2180TIP3   OH228098   1.858   6.619   7.476 -0.5885 -0.0138  0.0181
 2180TIP3    H128099   1.803   6.603   7.553 -0.5718  0.5929  0.1619
 2180TIP3    H228100   1.930   6.673   7.509  0.4103 -1.2521 -0.0474
 2181TIP3   OH228101   5.404   4.844   1.096  0.6037  0.2143  0.2608
 2181TIP3    H128102   5.493   4.873   1.078  0.1081  1.0954 -0.8947
 2181TIP3    H228103   5.374   4.903   1.166  0.4889  0.8061 -0.2759
 2182TIP3   OH228104   5.737   0.333   1.934  0.2449  0.0186 -0.2236
 2182TIP3    H128105   5.662   0.283   1.900  1.4118  0.3965 -3.7344
 2182TIP3    H228106   5.812   0.275   1.921  0.9169  0.6593  0.7448
 2183TIP3   OH228107   2.542   6.726   2.997  0.6004  0.1269 -0.1925
 2183TIP3    H128108   2.448   6.730   2.979  0.7333 -0.6517 -1.1749
 2183TIP3    H228109   2.563   6.633   2.991  1.1072  0.0613  1.9150
 2184TIP3   OH228110   4.680   6.322   1.255 -0.1911  0.0391  0.0260
 2184TIP3    H128111   4.636   6.397   1.215 -1.5535 -0.3591  0.7249
 2184TIP3    H228112   4.611   6.258   1.270  0.2216  0.0818  2.7736
 2185TIP3   OH228113   6.167   1.991   0.721 -0.1858  0.2201  0.9162
 2185TIP3    H128114   6.181   2.085   0.706  0.1356  0.2783  1.5436
 2185TIP3    H228115   6.142   1.985   0.813  1.4747 -0.4684  1.3481
 2186TIP3   OH228116   1.344   3.906   8.494  0.0521 -0.0457 -0.3209
 2186TIP3    H128117   1.311   3.976   8.551  0.6736  1.8078 -2.0784
 2186TIP3    H228118   1.267   3.855   8.470 -0.2320 -0.8242  2.0199
 2187TIP3   OH228119   5.996   4.536   0.580  0.2158  0.0621  0.2336
 2187TIP3    H128120   6.027   4.581   0.659 -0.2323  2.4138 -0.8502
 2187TIP3    H228121   6.076   4.503   0.539  0.6381  0.4249  0.7373
 2188TIP3   OH228122   2.428   6.175   1.271 -1.0693  0.9179 -0.3256
 2188TIP3    H128123   2.352   6.184   1.328  0.5188  0.7855  1.9396
 2188TIP3    H228124   2.494   6.232   1.310  0.4936 -0.1357 -1.3254
 2189TIP3   OH228125   3.654   3.229   0.315 -0.0655  0.2848 -0.6387
 2189TIP3    H128126   3.668   3.202   0.406  0.2322 -1.7297 -1.2355
 2189TIP3    H228127   3.576   3.181   0.287  0.2124  0.3839 -1.6268
 2190TIP3   OH228128   4.650   5.736   1.732  0.2102 -0.1266  0.4550
 2190TIP3    H128129   4.605   5.762   1.812 -0.5602  2.8787 -0.7978
 2190TIP3    H228130   4.728   5.792   1.729 -0.8816  1.4158 -1.8470
 2191TIP3   OH228131   0.155   6.298   1.842  0.1396 -0.2846 -0.0060
 2191TIP3    H128132   0.079   6.344   1.806  0.6326  2.1504  1.8410
 2191TIP3    H228133   0.128   6.270   1.929  1.4230  1.0174  0.8660
 2192TIP3   OH228134   4.287   3.568   6.879  0.1236  0.5200  0.2900
 2192TIP3    H128135   4.290   3.569   6.783  1.9130 -0.3247  0.2959
 2192TIP3    H228136   4.373   3.535   6.905 -0.6002  0.0115  2.1723
 2193TIP3   OH228137   4.851   2.624   2.327 -0.3775  0.0798  0.2167
 2193TIP3    H128138   4.878   2.559   2.262 -0.3787 -0.4266  0.7175
 2193TIP3    H228139   4.925   2.683   2.335 -1.3077  1.7546 -2.2085
 2194TIP3   OH228140   0.229   3.535   1.638 -0.0132 -0.8797  0.6809
 2194TIP3    H128141   0.251   3.618   1.594  1.0757 -1.1589  0.6744
 2194TIP3    H228142   0.185   3.483   1.571  0.4582 -0.7952  0.3010
 2195TIP3   OH228143   2.607   6.281   1.981 -0.2553  0.2129  0.2239
 2195TIP3    H128144   2.615   6.204   2.037 -0.8640  0.7028  0.9984
 2195TIP3    H228145   2.524   6.268   1.935  0.5864 -0.5416 -1.1358
 2196TIP3   OH228146   1.325   4.394   0.225  0.3117 -0.2402 -0.1477
 2196TIP3    H128147   1.343   4.391   0.131 -2.0757 -1.2246 -0.6501
 2196TIP3    H228148   1.269   4.472   0.235  0.3567 -0.2825  0.4069
 2197TIP3   OH228149   1.894   3.861   8.525 -0.0858  0.0001  0.7768
 2197TIP3    H128150   1.917   3.847   8.617  1.8579 -0.5487  0.2783
 2197TIP3    H228151   1.890   3.956   8.515 -0.0838  0.0686  1.3887
 2198TIP3   OH228152   0.062   4.448   8.009  0.3524 -0.3032  0.7352
 2198TIP3    H128153   0.146   4.406   8.029  1.8093  2.7638  1.6112
 2198TIP3    H228154   0.033   4.485   8.092 -0.9898  0.1922  0.0743
 2199TIP3   OH228155   6.257   4.551   0.940 -0.1381  0.2415 -0.4312
 2199TIP3    H128156   6.256   4.610   1.015  0.5452 -0.4263  0.1243
 2199TIP3    H228157   6.322   4.485   0.963 -0.2205 -0.2056 -1.4398
 2200TIP3   OH228158   6.264   1.467   0.246 -0.5382  0.4025  0.5558
 2200TIP3    H128159   6.256   1.421   0.330  0.1823 -1.6937 -0.4677
 2200TIP3    H228160   6.289   1.399   0.184  0.3545  2.1656 -1.1015
 2201TIP3   OH228161   3.496   6.711   2.557 -0.2599  0.2440  0.7340
 2201TIP3    H128162   3.525   6.754   2.638  1.3605  1.9441 -0.6464
 2201TIP3    H228163   3.424   6.766   2.525 -0.1693  0.2129  0.4719
 2202TIP3   OH228164   1.694   1.533   8.102 -0.0297 -0.0296 -0.2932
 2202TIP3    H128165   1.766   1.520   8.164 -1.9053  0.8745  2.2357
 2202TIP3    H228166   1.719   1.610   8.052  1.0152 -0.0721  0.1328
 2203TIP3   OH228167   1.131   2.492   1.247 -0.1017 -0.4688  0.4876
 2203TIP3    H128168   1.202   2.443   1.288  1.5278  0.6009 -0.8915
 2203TIP3    H228169   1.074   2.518   1.319  1.0515 -1.1528  1.6770
 2204TIP3   OH228170   2.349   5.032   1.909 -0.0068  0.0145 -0.0575
 2204TIP3    H128171   2.282   5.073   1.856  0.1756 -0.9603 -1.0866
 2204TIP3    H228172   2.364   4.947   1.867 -0.1056 -0.9450  1.7507
 2205TIP3   OH228173   0.934   1.856   0.983  0.1065  0.3656 -0.0222
 2205TIP3    H128174   1.010   1.807   0.951  0.3220  1.0761 -0.6116
 2205TIP3    H228175   0.908   1.911   0.910 -0.0975  1.1791  0.6408
 2206TIP3   OH228176   1.247   4.518   7.800  0.3903  0.0521 -0.3442
 2206TIP3    H128177   1.299   4.590   7.835 -0.0185  0.9218 -1.4566
 2206TIP3    H228178   1.307   4.471   7.743  0.2589  0.4165 -0.7894
 2207TIP3   OH228179   6.771   0.533   3.064  0.6133 -0.1082  0.0463
 2207TIP3    H128180   6.817   0.472   3.007 -0.1079 -0.4235 -0.2128
 2207TIP3    H228181   6.687   0.491   3.082 -0.2759  1.1594 -0.8558
 2208TIP3   OH228182   6.768   4.428   3.184  0.0461  0.0406  0.0659
 2208TIP3    H128183   6.689   4.384   3.154 -0.5306 -0.5385  2.2877
 2208TIP3    H228184   6.794   4.483   3.109 -1.9736 -0.3529 -1.0051
 2209TIP3   OH228185   2.630   1.121   0.392 -0.1746  0.5148  0.3684
 2209TIP3    H128186   2.585   1.172   0.324  0.5431  1.8839  0.8801
 2209TIP3    H228187   2.570   1.050   0.412 -0.1692 -0.2659 -2.0943
 2210TIP3   OH228188   0.094   1.693   0.526 -0.4109  0.5179  0.4740
 2210TIP3    H128189   0.114   1.787   0.517  1.1599  0.3112  1.5448
 2210TIP3    H228190   0.058   1.685   0.615  2.3503 -0.3040  1.6038
 2211TIP3   OH228191   0.501   5.634   8.175 -0.2120  0.3105 -0.3001
 2211TIP3    H128192   0.446   5.693   8.123  0.2892 -0.3285 -1.5782
 2211TIP3    H228193   0.588   5.641   8.136 -0.0794 -1.0600 -0.2960
 2212TIP3   OH228194   2.413   3.130   0.152 -0.1108 -0.1411  0.2535
 2212TIP3    H128195   2.339   3.162   0.203 -0.6417 -0.0054 -0.5796
 2212TIP3    H228196   2.490   3.151   0.205 -0.5199  1.5309  0.2306
 2213TIP3   OH228197   1.285   2.744   0.290  0.1721 -0.0531  0.6630
 2213TIP3    H128198   1.357   2.748   0.227 -0.8635  0.8665 -0.4997
 2213TIP3    H228199   1.266   2.651   0.299  0.4762 -0.2097 -0.2408
 2214TIP3   OH228200   0.280   2.075   0.307  0.0994  0.4589  0.0684
 2214TIP3    H128201   0.348   2.022   0.265 -0.0652 -1.3356  1.8637
 2214TIP3    H228202   0.236   2.120   0.235  2.2465  0.5637 -1.2698
 2215TIP3   OH228203   6.652   2.998   1.187  0.0945 -0.5058  0.1318
 2215TIP3    H128204   6.591   2.947   1.133 -1.1711  1.2989 -0.2536
 2215TIP3    H228205   6.612   2.997   1.274  0.9226 -1.4679  0.5271
 2216TIP3   OH228206   3.899   0.399   7.970 -0.0743 -0.4269 -0.2687
 2216TIP3    H128207   3.850   0.412   7.889 -0.0489  0.0661 -0.2036
 2216TIP3    H228208   3.842   0.344   8.024  0.0644 -1.0720 -0.7632
 2217TIP3   OH228209   2.616   2.711   8.038  0.3137 -0.2923 -0.2204
 2217TIP3    H128210   2.574   2.653   8.102  1.6299 -1.9968 -0.8269
 2217TIP3    H228211   2.573   2.796   8.051 -3.1956 -1.8339 -0.6899
 2218TIP3   OH228212   6.713   4.032   0.962  0.4259  0.2385 -0.3302
 2218TIP3    H128213   6.745   3.988   1.041  0.2853  1.1255  0.2254
 2218TIP3    H228214   6.720   4.125   0.981 -1.1442  0.4733 -0.7265
 2219TIP3   OH228215   0.230   6.221   1.476  0.6443  0.0845 -0.0313
 2219TIP3    H128216   0.182   6.160   1.421 -0.2787  0.9980 -0.2690
 2219TIP3    H228217   0.263   6.168   1.548 -1.4357 -0.4465  0.5813
 2220TIP3   OH228218   0.704   4.881   8.129 -0.2024  0.1746  0.1621
 2220TIP3    H128219   0.726   4.904   8.220 -0.3917 -0.2618  0.3229
 2220TIP3    H228220   0.757   4.941   8.076 -1.3459  1.5977  0.5535
 2221TIP3   OH228221   2.462   6.753   2.574  0.4792 -0.5491  0.3015
 2221TIP3    H128222   2.478   6.847   2.566  3.4570 -0.9227  0.9068
 2221TIP3    H228223   2.472   6.720   2.485  2.2500 -0.6038  0.4844
 2222TIP3   OH228224   6.818   2.749   0.088  0.0066  0.2019 -0.2648
 2222TIP3    H128225   6.894   2.692   0.079  0.1051  0.5648 -2.1648
 2222TIP3    H228226   6.743   2.692   0.068  0.0741  0.5782 -1.7370
 2223TIP3   OH228227   4.467   1.459   7.576 -0.6944  0.2407 -0.1939
 2223TIP3    H128228   4.428   1.456   7.489  0.9996  1.0496 -1.0278
 2223TIP3    H228229   4.423   1.389   7.625  0.5080 -2.3793 -2.6312
 2224TIP3   OH228230   3.506   0.595   1.275 -0.4253  0.1048 -0.6421
 2224TIP3    H128231   3.418   0.556   1.276 -0.3663 -0.0334 -0.6896
 2224TIP3    H228232   3.494   0.683   1.309 -0.4960 -0.0915 -0.1479
 2225TIP3   OH228233   2.617   0.372   8.081  0.2515  0.3693 -0.1091
 2225TIP3    H128234   2.570   0.433   8.138 -0.7373  0.6166 -1.1528
 2225TIP3    H228235   2.573   0.288   8.094  1.4926 -0.1168  1.1861
 2226TIP3   OH228236   4.695   0.339   2.595 -0.1556 -0.3492  0.5325
 2226TIP3    H128237   4.651   0.301   2.671 -1.8981  0.1253 -0.1863
 2226TIP3    H228238   4.714   0.264   2.538 -0.0162 -0.5660  0.8641
 2227TIP3   OH228239   4.153   4.670   1.205 -0.3113  0.0598 -0.1562
 2227TIP3    H128240   4.086   4.736   1.186 -0.1246 -0.1096 -1.5538
 2227TIP3    H228241   4.104   4.593   1.234 -0.5878  0.5114  0.6027
 2228TIP3   OH228242   3.968   2.309   7.950  0.1725 -0.4567 -0.0460
 2228TIP3    H128243   3.913   2.239   7.913 -1.9829  1.3104 -0.4289
 2228TIP3    H228244   3.939   2.317   8.041  1.2441 -0.8331  0.3358
 2229TIP3   OH228245   4.021   4.562   2.126 -0.1619 -0.0037 -0.1216
 2229TIP3    H128246   3.941   4.614   2.128 -0.4956 -0.5164  1.4755
 2229TIP3    H228247   4.001   4.489   2.067 -1.2769 -0.6743  1.0161
 2230TIP3   OH228248   5.854   0.486   0.692 -0.7454  0.2767 -0.4950
 2230TIP3    H128249   5.894   0.470   0.777  0.8181  1.3824 -0.9804
 2230TIP3    H228250   5.824   0.577   0.696 -0.5899  0.3618 -1.1485
 2231TIP3   OH228251   6.179   3.800   0.941  0.2215 -0.4725 -0.0852
 2231TIP3    H128252   6.118   3.873   0.931  0.3945 -0.4456 -1.0472
 2231TIP3    H228253   6.264   3.836   0.914  0.1838 -1.1994 -1.2495
 2232TIP3   OH228254   1.661   2.931   7.510 -0.1640 -0.4880  0.1106
 2232TIP3    H128255   1.661   2.940   7.415 -1.2390 -1.0572  0.0503
 2232TIP3    H228256   1.626   2.843   7.527  1.8588 -1.2083  0.9796
 2233TIP3   OH228257   0.507   4.892   2.037  0.1167 -0.6414 -0.1108
 2233TIP3    H128258   0.501   4.826   2.106  0.5322  0.7013  1.2499
 2233TIP3    H228259   0.555   4.965   2.077 -1.4185  1.0227 -1.1365
 2234TIP3   OH228260   5.066   4.189   2.459 -0.1558 -0.1914 -0.0178
 2234TIP3    H128261   5.074   4.098   2.432  0.5864  0.0149 -0.5044
 2234TIP3    H228262   5.156   4.220   2.468 -0.3683  0.1032  1.5086
 2235TIP3   OH228263   2.785   0.671   1.485 -0.2509  0.0627  0.5253
 2235TIP3    H128264   2.831   0.601   1.531  1.1656  0.3488 -0.3940
 2235TIP3    H228265   2.854   0.726   1.449 -1.3247  0.9250 -0.3035
 2236TIP3   OH228266   0.818   3.894   2.710 -0.4917 -0.0961  0.3205
 2236TIP3    H128267   0.807   3.806   2.747  0.7085  0.5820  2.4763
 2236TIP3    H228268   0.871   3.882   2.632 -0.3618 -1.2911  0.5833
 2237TIP3   OH228269   4.165   6.158   0.283  0.3047 -0.3967 -0.4988
 2237TIP3    H128270   4.084   6.181   0.237  0.3518 -0.0619 -0.4210
 2237TIP3    H228271   4.198   6.242   0.317 -0.2544 -0.7498  1.0182
 2238TIP3   OH228272   6.154   0.252   8.487  0.0889  0.4045 -0.1579
 2238TIP3    H128273   6.103   0.244   8.407  1.0104  0.2486 -0.7471
 2238TIP3    H228274   6.221   0.184   8.480  1.3021  1.5518 -0.1285
 2239TIP3   OH228275   5.631   3.590   0.609  0.5908  0.1559 -0.2514
 2239TIP3    H128276   5.683   3.633   0.541  1.6659 -0.3727  0.2173
 2239TIP3    H228277   5.541   3.602   0.581  0.9892  0.4637 -1.4620
 2240TIP3   OH228278   5.005   1.179   1.088  0.7042  0.4462 -0.1888
 2240TIP3    H128279   4.975   1.158   0.999  1.0614  0.0487 -0.2206
 2240TIP3    H228280   5.061   1.256   1.076  0.2411  0.7866 -0.2168
 2241TIP3   OH228281   1.509   3.661   7.826  0.5559  0.5234  0.0916
 2241TIP3    H128282   1.484   3.576   7.789  0.4336  0.7962 -0.4712
 2241TIP3    H228283   1.444   3.678   7.894  0.2834  0.3915 -0.1319
 2242TIP3   OH228284   3.494   5.516   1.975 -0.2766  0.1853  0.2715
 2242TIP3    H128285   3.517   5.492   2.065  0.1822 -0.7516 -0.0776
 2242TIP3    H228286   3.497   5.433   1.927 -0.6372  0.6568 -0.5806
 2243TIP3   OH228287   1.346   0.491   8.293 -0.3632  0.4670  0.7571
 2243TIP3    H128288   1.310   0.577   8.310  0.6510  0.9792  0.4248
 2243TIP3    H228289   1.380   0.461   8.377  0.8911  1.1837  0.5284
 2244TIP3   OH228290   5.397   3.104   7.623  0.2159  0.0394  0.3816
 2244TIP3    H128291   5.484   3.138   7.603  0.5349 -0.5970  0.6425
 2244TIP3    H228292   5.413   3.037   7.690 -0.5243  0.2310  0.7565
 2245TIP3   OH228293   5.615   5.890   7.393  0.8217  0.1832 -0.0017
 2245TIP3    H128294   5.681   5.944   7.349 -0.0553  0.2600 -1.2899
 2245TIP3    H228295   5.651   5.801   7.390  1.3853  0.3931  0.3594
 2246TIP3   OH228296   2.451   4.883   2.431  0.2748 -0.1550 -0.2628
 2246TIP3    H128297   2.523   4.942   2.409  1.1608 -1.0453  0.1738
 2246TIP3    H228298   2.401   4.931   2.497  0.1416  0.6917 -0.9567
 2247TIP3   OH228299   3.591   2.882   0.191 -0.1110  0.5284 -0.0265
 2247TIP3    H128300   3.685   2.885   0.171 -0.5127  0.1466 -2.2016
 2247TIP3    H228301   3.587   2.846   0.280  1.7359 -2.3807 -0.9605
 2248TIP3   OH228302   2.627   2.028   0.688 -0.5553 -0.0851 -0.0647
 2248TIP3    H128303   2.584   1.976   0.756 -0.4248 -2.2495 -1.5488
 2248TIP3    H228304   2.693   2.079   0.735  0.2081 -2.2432  1.3659
 2249TIP3   OH228305   0.766   3.289   1.219  0.0381  0.4077 -0.3409
 2249TIP3    H128306   0.797   3.198   1.227 -0.5036  0.2478  0.0686
 2249TIP3    H228307   0.741   3.298   1.127  0.3092  0.2116 -0.4351
 2250TIP3   OH228308   0.530   4.070   8.357 -0.3755  0.0706  0.9166
 2250TIP3    H128309   0.591   4.006   8.394 -1.9101 -1.4240  0.9803
 2250TIP3    H228310   0.486   4.108   8.433 -0.2551  0.3964  0.8246
 2251TIP3   OH228311   4.912   6.065   0.825  0.4976  0.1135 -0.6261
 2251TIP3    H128312   4.924   5.976   0.792 -0.3206 -0.5286  0.6866
 2251TIP3    H228313   4.929   6.058   0.919 -1.4471  0.8940 -0.1503
 2252TIP3   OH228314   0.661   5.883   0.772 -0.2132 -0.3407  0.4971
 2252TIP3    H128315   0.706   5.964   0.796 -0.9151  0.0805  0.4063
 2252TIP3    H228316   0.715   5.846   0.703  0.7783 -0.5834  1.3664
 2253TIP3   OH228317   1.621   1.752   8.332  0.0890 -0.7723  0.2710
 2253TIP3    H128318   1.542   1.761   8.279 -1.3409 -1.8815  2.0970
 2253TIP3    H228319   1.648   1.661   8.319  1.6291 -0.1901 -0.9903
 2254TIP3   OH228320   1.416   4.165   1.621 -0.5224  0.5911  0.2347
 2254TIP3    H128321   1.490   4.104   1.630 -0.3223  1.0284  1.8042
 2254TIP3    H228322   1.423   4.222   1.697 -1.2068  2.0528 -0.7560
 2255TIP3   OH228323   6.650   4.489   2.289  0.0470 -0.1893 -0.6438
 2255TIP3    H128324   6.696   4.532   2.362 -2.6108  1.0525  0.4222
 2255TIP3    H228325   6.587   4.431   2.332  0.1655 -1.3884 -2.0380
 2256TIP3   OH228326   6.555   5.786   0.898 -0.3931  0.0038  0.2103
 2256TIP3    H128327   6.630   5.768   0.841 -0.6300 -0.2627 -0.0157
 2256TIP3    H228328   6.536   5.879   0.882 -0.2634  0.0111  0.0892
 2257TIP3   OH228329   2.970   1.137   6.934 -0.0062 -0.5468 -0.2680
 2257TIP3    H128330   3.009   1.085   6.863  0.9769  1.4308 -1.2718
 2257TIP3    H228331   2.989   1.087   7.013  1.8001 -1.2387 -1.0725
 2258TIP3   OH228332   3.123   5.979   1.954 -0.2957 -0.2946  0.3675
 2258TIP3    H128333   3.189   5.983   2.024  1.5333  0.9985 -1.2986
 2258TIP3    H228334   3.100   5.887   1.948  1.4513 -0.8180  0.9904
 2259TIP3   OH228335   6.512   5.288   2.110  0.6820 -0.1352  0.1058
 2259TIP3    H128336   6.454   5.363   2.102  0.5551 -0.2976 -0.5835
 2259TIP3    H228337   6.578   5.315   2.173 -0.7963 -0.3754  1.8352
 2260TIP3   OH228338   2.268   6.574   8.528  0.6391 -0.0354 -0.7021
 2260TIP3    H128339   2.359   6.589   8.500  0.7937  1.9244  0.6265
 2260TIP3    H228340   2.253   6.640   8.596 -1.1161 -1.7366  0.6531
 2261TIP3   OH228341   0.051   2.743   8.581 -0.3672  0.2255  0.4075
 2261TIP3    H128342   0.136   2.785   8.565 -0.2659 -0.4176 -0.8669
 2261TIP3    H228343   0.032   2.763   8.672  1.5365 -0.2909  0.9795
 2262TIP3   OH228344   3.579   3.430   6.829  0.3645  0.2352 -0.4358
 2262TIP3    H128345   3.569   3.488   6.904 -1.0920 -0.9123  0.3372
 2262TIP3    H228346   3.612   3.348   6.866  1.1909  0.1590 -1.3038
 2263TIP3   OH228347   4.040   3.752   2.894 -0.5176  0.0891  0.3890
 2263TIP3    H128348   4.043   3.717   2.805 -0.3638  2.8053 -0.7881
 2263TIP3    H228349   3.950   3.735   2.923 -0.9486  0.2491 -0.7916
 2264TIP3   OH228350   3.084   5.600   2.330 -0.4157 -0.2055 -0.7585
 2264TIP3    H128351   3.110   5.620   2.419 -0.5507 -0.1305 -0.7353
 2264TIP3    H228352   3.155   5.546   2.295 -0.0271  0.3408 -0.8349
 2265TIP3   OH228353   1.918   4.604   1.002  0.3479 -0.3089 -0.4355
 2265TIP3    H128354   1.921   4.616   0.907  0.3365  1.6024 -0.2211
 2265TIP3    H228355   1.883   4.515   1.013 -1.5408  0.1276 -2.2080
 2266TIP3   OH228356   1.099   0.760   8.717  0.0694  0.4688  0.0363
 2266TIP3    H128357   1.130   0.843   8.753  1.8338 -1.1021  2.4691
 2266TIP3    H228358   1.179   0.712   8.697 -0.8753 -1.3367  0.4254
 2267TIP3   OH228359   6.832   3.514   1.227 -0.7658 -0.6957 -0.7859
 2267TIP3    H128360   6.810   3.577   1.296 -0.2523 -3.2251  1.8923
 2267TIP3    H228361   6.762   3.450   1.230 -1.0903 -0.5523 -3.1997
 2268TIP3   OH228362   0.552   3.735   1.543  0.0746  0.1401  0.0118
 2268TIP3    H128363   0.572   3.669   1.609  0.2472  0.5121  0.3321
 2268TIP3    H228364   0.632   3.742   1.491  0.3705  0.7435  0.5359
 2269TIP3   OH228365   2.409   1.206   1.651 -0.4374  0.0654 -0.8551
 2269TIP3    H128366   2.349   1.132   1.659  0.9537 -1.0773 -0.4946
 2269TIP3    H228367   2.488   1.178   1.697  0.4726  1.4158 -1.5089
 2270TIP3   OH228368   5.830   3.730   7.353 -0.5370 -0.1697 -0.4544
 2270TIP3    H128369   5.801   3.648   7.313  0.7497 -1.1173  0.4415
 2270TIP3    H228370   5.762   3.751   7.417 -1.6688  0.3516 -1.7801
 2271TIP3   OH228371   6.099   1.558   8.303 -0.3487  0.1843 -0.2390
 2271TIP3    H128372   6.041   1.608   8.245 -1.4441 -2.0602 -1.1765
 2271TIP3    H228373   6.161   1.515   8.244  1.9210  1.9425  0.6964
 2272TIP3   OH228374   4.254   1.479   2.686 -0.0859  0.3035  0.1427
 2272TIP3    H128375   4.188   1.541   2.653  0.8866  0.6016 -1.3216
 2272TIP3    H228376   4.221   1.453   2.772 -2.4899 -0.1125 -0.8238
 2273TIP3   OH228377   5.224   0.406   1.197 -0.3643 -0.3522  0.1077
 2273TIP3    H128378   5.257   0.336   1.253  1.0297 -1.1853 -1.6641
 2273TIP3    H228379   5.278   0.482   1.218 -0.5491 -0.3597  0.6164
 2274TIP3   OH228380   3.674   3.147   2.233 -0.4919 -0.3021  0.5670
 2274TIP3    H128381   3.618   3.163   2.309  0.5236  0.8333  1.1046
 2274TIP3    H228382   3.640   3.066   2.195 -0.6927 -1.1937  2.5302
 2275TIP3   OH228383   4.502   6.134   8.057  0.4011 -0.3047  0.1444
 2275TIP3    H128384   4.534   6.134   8.147 -0.4343  0.0398  0.4567
 2275TIP3    H228385   4.463   6.221   8.045 -0.6731 -0.8060 -0.1109
 2276TIP3   OH228386   4.714   4.520   0.898 -0.2172 -0.3763  0.0198
 2276TIP3    H128387   4.659   4.485   0.968 -0.7537  0.4032  0.0043
 2276TIP3    H228388   4.803   4.510   0.930 -0.4824  0.5215  1.0893
 2277TIP3   OH228389   5.458   2.506   1.631  0.1465 -0.5470  0.3417
 2277TIP3    H128390   5.494   2.487   1.544 -1.6998 -2.7667 -0.0533
 2277TIP3    H228391   5.476   2.427   1.682 -1.0820 -0.3418  1.1362
 2278TIP3   OH228392   0.665   1.809   1.553 -0.5404 -0.0649  0.4607
 2278TIP3    H128393   0.587   1.864   1.542  1.2055  2.0997 -2.8990
 2278TIP3    H228394   0.724   1.863   1.607  0.3647  0.4776 -1.0282
 2279TIP3   OH228395   6.551   0.943   7.231 -0.0604 -0.2510  0.4547
 2279TIP3    H128396   6.614   0.872   7.230  0.6327  0.2872 -2.5113
 2279TIP3    H228397   6.600   1.020   7.202 -1.3626  0.9153  1.1906
 2280TIP3   OH228398   3.739   6.262   2.402 -0.1034 -0.2170  0.4892
 2280TIP3    H128399   3.733   6.199   2.330 -0.3473 -0.2639  0.5498
 2280TIP3    H228400   3.817   6.236   2.451  0.2483  0.0063  0.0609
 2281TIP3   OH228401   5.405   0.608   0.767  0.0568 -0.5712  0.3386
 2281TIP3    H128402   5.317   0.637   0.793 -0.7223 -1.5558 -1.0319
 2281TIP3    H228403   5.391   0.520   0.732  1.4991 -0.5059 -0.4688
 2282TIP3   OH228404   2.776   5.730   8.603 -0.1530  0.1834  0.1233
 2282TIP3    H128405   2.846   5.765   8.548  0.3494 -0.1594  0.5326
 2282TIP3    H228406   2.771   5.790   8.677  0.5663 -0.4592  0.7193
 2283TIP3   OH228407   6.220   2.223   7.379  0.2182  0.3599  0.0485
 2283TIP3    H128408   6.254   2.313   7.375 -0.5771  0.6354 -2.4388
 2283TIP3    H228409   6.129   2.231   7.350  0.9142 -1.5132 -3.0763
 2284TIP3   OH228410   3.527   1.730   1.667  0.5951  0.0903 -0.0740
 2284TIP3    H128411   3.581   1.798   1.708 -0.2432  0.9450 -0.3485
 2284TIP3    H228412   3.571   1.648   1.689  1.7595  0.7284  0.0739
 2285TIP3   OH228413   2.705   1.513   0.131 -0.3252  0.4481 -0.4324
 2285TIP3    H128414   2.714   1.551   0.218  0.5601  0.2732 -0.4417
 2285TIP3    H228415   2.695   1.589   0.073  1.0860  0.6675 -0.4081
 2286TIP3   OH228416   4.808   3.292   8.540 -0.4572  0.3424  0.7004
 2286TIP3    H128417   4.898   3.278   8.568 -0.1030  1.8694  0.4038
 2286TIP3    H228418   4.814   3.309   8.446 -1.1861 -0.6081  0.4670
 2287TIP3   OH228419   4.829   6.017   8.392  0.8712 -1.1305 -0.3134
 2287TIP3    H128420   4.768   6.069   8.340  1.3316  0.6359  0.8206
 2287TIP3    H228421   4.907   6.009   8.337  1.5472  1.1629  0.1899
 2288TIP3   OH228422   2.340   0.489   2.516  0.3883  0.1021  0.7048
 2288TIP3    H128423   2.326   0.438   2.596  1.4651 -0.5781  0.4817
 2288TIP3    H228424   2.260   0.474   2.465  0.6342 -1.3177  0.6892
 2289TIP3   OH228425   3.669   3.597   2.770 -0.1766  0.0828 -0.0458
 2289TIP3    H128426   3.681   3.502   2.762 -0.0172  0.2554 -2.5481
 2289TIP3    H228427   3.713   3.633   2.693 -0.3387  2.2009  0.7964
 2290TIP3   OH228428   1.331   6.094   0.172  0.2830 -0.6549  0.0666
 2290TIP3    H128429   1.342   6.073   0.264  0.8295  0.1532  0.1883
 2290TIP3    H228430   1.361   6.184   0.163  2.1133 -1.3150 -1.2382
 2291TIP3   OH228431   2.831   5.711   1.800 -0.0942 -0.2150  0.6172
 2291TIP3    H128432   2.743   5.706   1.836 -0.8879  0.0297 -1.2000
 2291TIP3    H228433   2.849   5.805   1.793 -0.6079 -0.2022 -1.0423
 2292TIP3   OH228434   3.335   2.126   1.685  0.8210 -0.5282  0.7957
 2292TIP3    H128435   3.394   2.158   1.617  0.3802 -1.1281  0.1133
 2292TIP3    H228436   3.353   2.182   1.761  1.1125  0.3442  0.1026
 2293TIP3   OH228437   4.337   4.829   0.459 -0.4703  0.2797 -0.3593
 2293TIP3    H128438   4.355   4.742   0.494 -2.3808  0.8626  2.3381
 2293TIP3    H228439   4.315   4.814   0.367 -1.8186 -2.2550  0.2918
 2294TIP3   OH228440   6.453   2.081   7.432  0.2690  0.3592  0.0055
 2294TIP3    H128441   6.371   2.126   7.415  0.9285  1.9181  0.6986
 2294TIP3    H228442   6.428   1.997   7.471 -0.9842  0.7967  0.1681
 2295TIP3   OH228443   6.511   3.628   8.265 -0.0232 -0.8025 -0.4469
 2295TIP3    H128444   6.517   3.549   8.212  0.0530 -0.3500 -1.1334
 2295TIP3    H228445   6.586   3.624   8.323  0.2762 -0.9824 -0.8420
 2296TIP3   OH228446   0.017   6.265   0.904  0.4756 -0.3928 -0.2058
 2296TIP3    H128447   0.091   6.315   0.870  0.5151  0.8993  1.6316
 2296TIP3    H228448   0.049   6.175   0.909  1.4329 -0.0961 -0.7579
 2297TIP3   OH228449   5.005   4.564   1.647 -0.4522  0.1141 -0.0486
 2297TIP3    H128450   4.911   4.548   1.636 -0.2375 -2.9210  1.3994
 2297TIP3    H228451   5.046   4.481   1.623  1.7937  1.0419  0.3384
 2298TIP3   OH228452   5.729   2.491   2.011 -0.1867 -0.2457 -1.1324
 2298TIP3    H128453   5.718   2.586   2.016 -2.9221 -0.4564 -1.9831
 2298TIP3    H228454   5.686   2.458   2.090 -1.9947 -0.8877 -2.3196
 2299TIP3   OH228455   1.914   2.545   2.256 -0.1431 -0.2390  0.0036
 2299TIP3    H128456   1.852   2.615   2.273  1.1483  1.1250 -0.6664
 2299TIP3    H228457   1.860   2.468   2.237 -1.5997  0.8349 -0.3299
 2300TIP3   OH228458   3.978   5.273   8.493 -0.3558 -0.2083  0.0968
 2300TIP3    H128459   3.949   5.225   8.415 -2.1812 -0.1685  0.7026
 2300TIP3    H228460   4.072   5.255   8.499 -0.2295 -0.4419 -1.9330
 2301TIP3   OH228461   0.477   4.159   7.873 -0.2754  0.0961  0.0897
 2301TIP3    H128462   0.529   4.198   7.802  0.5245 -1.3245 -0.1485
 2301TIP3    H228463   0.513   4.197   7.953  0.5890 -0.2442 -0.1233
 2302TIP3   OH228464   2.401   1.603   2.719  0.4694  0.3528 -0.0703
 2302TIP3    H128465   2.411   1.519   2.764  2.1765  0.6783  0.2401
 2302TIP3    H228466   2.399   1.580   2.626 -0.2689 -0.1061  0.0482
 2303TIP3   OH228467   5.931   5.655   2.196  0.0185 -0.3418 -0.8003
 2303TIP3    H128468   5.920   5.731   2.253 -2.2018  0.5936 -2.3637
 2303TIP3    H228469   5.998   5.682   2.133 -0.1775  0.0019 -0.8610
 2304TIP3   OH228470   1.905   3.601   6.824  0.0582  0.1721 -0.9190
 2304TIP3    H128471   1.915   3.513   6.859 -1.5994  0.1508 -0.4201
 2304TIP3    H228472   1.836   3.592   6.757  0.2963  0.9738 -1.2779
 2305TIP3   OH228473   1.412   5.008   0.145 -0.4723 -0.2386  0.1291
 2305TIP3    H128474   1.501   5.044   0.145  0.0204 -1.3153 -1.8064
 2305TIP3    H228475   1.358   5.077   0.106 -0.8092  0.9608  2.5270
 2306TIP3   OH228476   4.920   6.402   1.422  0.1957 -0.0105 -0.1397
 2306TIP3    H128477   4.875   6.403   1.337 -1.4901 -2.0332  0.6402
 2306TIP3    H228478   4.936   6.309   1.439  0.5711  0.3549  1.7222
 2307TIP3   OH228479   5.416   5.495   0.117  0.3392  0.1769  0.6805
 2307TIP3    H128480   5.373   5.425   0.068 -0.9364  0.1430  1.7696
 2307TIP3    H228481   5.485   5.451   0.166  0.6520 -0.0320  0.0570
 2308TIP3   OH228482   6.571   6.443   6.949 -0.6187 -0.3341 -0.5120
 2308TIP3    H128483   6.638   6.495   6.904  1.3645 -2.1096  0.2241
 2308TIP3    H228484   6.530   6.504   7.010  0.2499  0.8258 -1.0514
 2309TIP3   OH228485   1.213   3.012   7.834 -0.2806  0.1853 -0.1603
 2309TIP3    H128486   1.284   3.072   7.810 -1.4579  1.4537 -0.6605
 2309TIP3    H228487   1.174   3.053   7.911 -0.6800 -0.3111 -0.1020
 2310TIP3   OH228488   2.693   6.653   1.579  0.1272  0.2678  0.5478
 2310TIP3    H128489   2.713   6.570   1.623  0.7778  0.4937  0.6814
 2310TIP3    H228490   2.755   6.716   1.615  1.9821  0.0752 -2.0079
 2311TIP3   OH228491   1.526   2.639   0.152  0.3349 -0.3180 -0.6014
 2311TIP3    H128492   1.466   2.567   0.172 -0.4421  0.2019 -1.0139
 2311TIP3    H228493   1.551   2.624   0.061  1.8798 -1.2643 -0.0537
 2312TIP3   OH228494   1.480   3.958   1.341  0.4710 -0.4509 -0.5347
 2312TIP3    H128495   1.522   4.013   1.407  0.3416  1.9286 -2.3068
 2312TIP3    H228496   1.429   3.895   1.392  1.9203 -0.0061  1.6224
 2313TIP3   OH228497   3.426   5.977   8.433 -0.1204 -0.4675 -0.0342
 2313TIP3    H128498   3.433   5.957   8.339  2.0099  2.0617 -0.5236
 2313TIP3    H228499   3.514   5.966   8.466 -0.6356 -0.2641  1.4727
 2314TIP3   OH228500   6.649   0.408   2.380 -0.4625 -0.2404  0.0356
 2314TIP3    H128501   6.668   0.316   2.399  0.5286 -0.1486 -0.4600
 2314TIP3    H228502   6.555   0.409   2.364 -0.4178 -1.2493 -0.4050
 2315TIP3   OH228503   0.923   4.232   1.446  0.2863 -0.2522 -0.9432
 2315TIP3    H128504   0.866   4.163   1.481 -0.1572  1.0819  1.1706
 2315TIP3    H228505   1.011   4.206   1.473  0.0814  0.1594  0.1589
 2316TIP3   OH228506   6.827   5.467   7.796 -0.6230 -0.7084  0.4299
 2316TIP3    H128507   6.878   5.419   7.731  0.2188  0.2360  0.3687
 2316TIP3    H228508   6.892   5.509   7.852 -1.3257  0.3079  0.5212
 2317TIP3   OH228509   3.743   5.109   0.451  0.0072 -0.2915  0.3328
 2317TIP3    H128510   3.655   5.146   0.461 -0.6887 -1.2259 -1.8239
 2317TIP3    H228511   3.777   5.105   0.541 -0.2080  4.4796  0.8844
 2318TIP3   OH228512   5.821   4.392   8.466 -0.0373  0.1263  0.4688
 2318TIP3    H128513   5.803   4.469   8.413 -1.9578 -0.2540  0.4715
 2318TIP3    H228514   5.805   4.420   8.556  1.1492  0.2124  0.6662
 2319TIP3   OH228515   4.714   2.779   8.444 -0.1090  0.0535  0.1326
 2319TIP3    H128516   4.769   2.829   8.505 -1.8209  0.5279  1.3589
 2319TIP3    H228517   4.731   2.688   8.467  0.6759  0.1709  0.0355
 2320TIP3   OH228518   3.928   2.664   0.570 -0.1277 -0.2293 -0.4763
 2320TIP3    H128519   3.870   2.734   0.600 -1.2557 -1.6684  0.8776
 2320TIP3    H228520   3.879   2.622   0.499  0.5679  0.3589 -1.3215
 2321TIP3   OH228521   4.847   3.320   7.653  0.1231  0.3630  0.0932
 2321TIP3    H128522   4.898   3.347   7.730  0.0142 -0.5933  0.5289
 2321TIP3    H228523   4.796   3.397   7.629  1.4894  1.2200 -0.1170
 2322TIP3   OH228524   2.882   2.235   0.356 -0.7043 -0.1330  0.4217
 2322TIP3    H128525   2.894   2.328   0.376 -1.8337  0.0728  0.2105
 2322TIP3    H228526   2.802   2.210   0.403 -1.4046 -0.5400 -0.9433
 2323TIP3   OH228527   1.438   2.081   8.182  0.2386 -0.0125  0.1847
 2323TIP3    H128528   1.384   2.149   8.222  1.8644  1.2380  0.3328
 2323TIP3    H228529   1.502   2.058   8.249  2.3010  1.3075 -1.2064
 2324TIP3   OH228530   1.867   2.940   7.003 -0.2770  0.3450  0.0415
 2324TIP3    H128531   1.797   2.949   6.939  0.6747  0.5033 -1.0188
 2324TIP3    H228532   1.854   3.012   7.064 -0.0390  1.4449 -1.1567
 2325TIP3   OH228533   3.418   6.411   1.621  0.5193 -0.2651  0.2487
 2325TIP3    H128534   3.336   6.415   1.572  0.5096  2.2653  0.3648
 2325TIP3    H228535   3.480   6.369   1.561 -0.5226 -1.0094 -0.3280
 2326TIP3   OH228536   6.537   3.551   1.520  0.4821  0.1104  0.4900
 2326TIP3    H128537   6.494   3.523   1.601  1.9534  0.4132  1.4105
 2326TIP3    H228538   6.488   3.629   1.493  0.0552  0.0937  1.1712
 2327TIP3   OH228539   2.766   3.409   1.106  0.0458 -0.0956 -0.5127
 2327TIP3    H128540   2.834   3.342   1.117  0.5514  0.6795  1.5792
 2327TIP3    H228541   2.773   3.463   1.185 -2.3398  0.6361 -0.7296
 2328TIP3   OH228542   1.559   2.690   2.070  0.0857 -0.0948 -0.0359
 2328TIP3    H128543   1.591   2.677   2.160 -2.2077 -0.9538  0.7199
 2328TIP3    H228544   1.539   2.601   2.039  0.2908  0.2489 -1.1926
 2329TIP3   OH228545   3.560   3.218   2.475  0.0352 -0.0467 -0.9433
 2329TIP3    H128546   3.490   3.283   2.474  1.2509  1.3094 -1.8832
 2329TIP3    H228547   3.515   3.133   2.470 -1.5154  0.7870 -1.7266
 2330TIP3   OH228548   3.992   2.307   0.463 -0.3378  0.3198 -0.6643
 2330TIP3    H128549   4.078   2.278   0.432  0.4975  1.2180  0.6903
 2330TIP3    H228550   3.976   2.388   0.414 -0.3945  0.1676 -0.8970
 2331TIP3   OH228551   4.415   4.704   1.117  0.3974  0.6206  0.1858
 2331TIP3    H128552   4.451   4.653   1.190 -1.1921 -0.3054  0.3852
 2331TIP3    H228553   4.322   4.712   1.138  0.1051  1.2254 -1.2491
 2332TIP3   OH228554   1.695   6.743   8.742 -0.2925  0.4061  0.1474
 2332TIP3    H128555   1.681   6.743   8.647 -0.6867  2.0275  0.1749
 2332TIP3    H228556   1.785   6.776   8.753 -0.7631  1.6747  0.3612
 2333TIP3   OH228557   1.562   3.395   2.149 -0.6169 -0.1702 -0.2002
 2333TIP3    H128558   1.535   3.461   2.212  0.2307  1.6186 -1.5876
 2333TIP3    H228559   1.562   3.441   2.065 -2.0347 -2.5271 -1.6004
 2334TIP3   OH228560   2.255   6.739   2.973  0.0956 -0.3398  0.2602
 2334TIP3    H128561   2.177   6.705   3.018 -0.4137  0.0892 -0.2871
 2334TIP3    H228562   2.221   6.777   2.892  0.4356  2.7092  1.4210
 2335TIP3   OH228563   2.597   2.987   8.079  0.0602 -0.0130 -0.4873
 2335TIP3    H128564   2.503   2.986   8.058 -0.1020 -2.6467 -0.0311
 2335TIP3    H228565   2.634   3.055   8.023 -2.0128  0.6681 -1.1219
 2336TIP3   OH228566   6.506   5.406   8.648  0.2828 -0.5315 -0.1327
 2336TIP3    H128567   6.554   5.326   8.668  0.4447 -0.0325  1.6041
 2336TIP3    H228568   6.534   5.469   8.714 -3.6541 -0.5638  1.9126
 2337TIP3   OH228569   2.712   4.497   8.094 -0.4418 -0.2695  0.2651
 2337TIP3    H128570   2.631   4.546   8.082  0.3754  0.6307 -2.3197
 2337TIP3    H228571   2.779   4.564   8.105  0.1169 -0.9636  1.1611
 2338TIP3   OH228572   1.941   4.073   0.606  0.5193 -0.0435  0.5171
 2338TIP3    H128573   1.974   3.987   0.631 -1.2543 -0.1614  2.9072
 2338TIP3    H228574   2.019   4.125   0.588  1.6134 -2.3641 -2.1650
 2339TIP3   OH228575   4.682   1.458   2.795 -0.3990 -0.4473 -0.3374
 2339TIP3    H128576   4.725   1.372   2.798 -0.0612 -0.2681  1.7517
 2339TIP3    H228577   4.702   1.497   2.881 -0.3412  1.8187 -1.3139
 2340TIP3   OH228578   3.827   0.468   1.685 -0.2669  0.2299  0.3636
 2340TIP3    H128579   3.806   0.378   1.710  1.1969 -0.4208 -0.5969
 2340TIP3    H228580   3.922   0.470   1.681 -0.2157  2.1993  1.6219
 2341TIP3   OH228581   0.865   1.856   2.994 -0.4842  0.0325 -0.4448
 2341TIP3    H128582   0.783   1.845   2.946 -0.5913  0.1375 -0.2866
 2341TIP3    H228583   0.852   1.809   3.076  0.7423 -2.6988 -1.6845
 2342TIP3   OH228584   2.473   2.517   1.071  0.5561  0.5516 -0.3061
 2342TIP3    H128585   2.493   2.425   1.090 -4.2546 -0.4659  1.1379
 2342TIP3    H228586   2.495   2.526   0.978  0.0641 -2.4758 -0.8400
 2343TIP3   OH228587   2.158   4.278   8.108 -0.1545  0.1886  0.1644
 2343TIP3    H128588   2.083   4.327   8.139 -1.2266 -0.7493 -0.8331
 2343TIP3    H228589   2.143   4.268   8.014  1.9982  1.2818 -0.3558
 2344TIP3   OH228590   1.909   3.569   0.825  0.0956  0.5768  0.0457
 2344TIP3    H128591   1.909   3.664   0.831 -0.3197  0.5002  1.8274
 2344TIP3    H228592   1.817   3.545   0.825  0.2035  0.1602 -0.0041
 2345TIP3   OH228593   6.205   3.089   1.251  0.6506  0.3353  0.0219
 2345TIP3    H128594   6.267   3.062   1.184  1.6471  1.3298  0.5109
 2345TIP3    H228595   6.179   3.008   1.295  2.1662 -0.0442  0.2795
 2346TIP3   OH228596   6.195   6.485   8.528  0.4882  0.0349 -0.3131
 2346TIP3    H128597   6.284   6.481   8.562  0.1459  0.5057  0.6710
 2346TIP3    H228598   6.206   6.513   8.437  1.3488 -0.0026 -0.2316
 2347TIP3   OH228599   2.622   4.582   0.825 -0.3569 -0.1416 -0.2461
 2347TIP3    H128600   2.630   4.584   0.921  1.3137  0.1381 -0.3515
 2347TIP3    H228601   2.539   4.624   0.807 -0.5034  0.1827  1.0798
 2348TIP3   OH228602   1.044   4.379   8.199  0.4164 -0.3763  0.6137
 2348TIP3    H128603   0.986   4.448   8.168  1.3550  0.1842  0.0491
 2348TIP3    H228604   1.124   4.389   8.146  0.6995 -1.6741  0.7571
 2349TIP3   OH228605   4.181   0.581   0.299  0.0559  0.4502 -0.2320
 2349TIP3    H128606   4.212   0.629   0.375  0.5563 -1.0296  0.5313
 2349TIP3    H228607   4.255   0.584   0.237  1.8979 -2.9160  1.5102
 2350TIP3   OH228608   3.258   2.791   7.782 -0.4790  0.7063 -0.9493
 2350TIP3    H128609   3.172   2.830   7.796  0.3389  2.9185 -1.6403
 2350TIP3    H228610   3.241   2.709   7.736 -2.3079  0.0190  0.7975
 2351TIP3   OH228611   0.373   5.372   2.082 -0.0021  0.2382 -0.4048
 2351TIP3    H128612   0.423   5.293   2.105  0.3174 -0.4828 -3.2386
 2351TIP3    H228613   0.435   5.444   2.091  0.3519 -0.1154  0.0141
 2352TIP3   OH228614   3.822   0.858   7.123 -0.2114  0.4463  0.1441
 2352TIP3    H128615   3.761   0.909   7.177  1.0634  0.5244  1.6134
 2352TIP3    H228616   3.774   0.778   7.101 -1.6136  1.4873 -0.6745
 2353TIP3   OH228617   0.399   5.752   0.658 -0.4727 -0.7465 -0.3202
 2353TIP3    H128618   0.453   5.819   0.700 -0.2871  0.2652 -2.0656
 2353TIP3    H228619   0.353   5.709   0.730  1.8229 -0.9234  1.1422
 2354TIP3   OH228620   2.012   1.257   8.203 -0.1721 -0.1796 -0.6046
 2354TIP3    H128621   2.104   1.238   8.185  0.2288  0.8533  0.2574
 2354TIP3    H228622   1.971   1.263   8.117  0.8970  0.8991 -1.0587
 2355TIP3   OH228623   4.477   2.772   7.046  0.6844  0.0436  0.6150
 2355TIP3    H128624   4.462   2.821   6.965  0.1800 -1.6721 -0.3693
 2355TIP3    H228625   4.407   2.800   7.104 -2.2692 -2.5472 -1.4280
 2356TIP3   OH228626   5.789   6.500   8.228 -0.1132  0.0690  0.2396
 2356TIP3    H128627   5.759   6.585   8.195 -1.1790 -0.8256 -1.1699
 2356TIP3    H228628   5.740   6.435   8.178  1.9265 -1.4378  0.0685
 2357TIP3   OH228629   5.153   1.562   1.711 -0.8549 -0.2277 -0.7348
 2357TIP3    H128630   5.106   1.639   1.744 -0.3983 -0.4651  0.5150
 2357TIP3    H228631   5.197   1.593   1.631 -0.9596  0.7124 -0.4350
 2358TIP3   OH228632   0.202   2.890   7.012 -0.6563  0.1025 -0.1054
 2358TIP3    H128633   0.162   2.968   7.050  0.8759  1.1243 -0.4925
 2358TIP3    H228634   0.193   2.902   6.918 -3.9024 -2.1335 -0.2438
 2359TIP3   OH228635   5.258   0.361   2.326  0.4297  0.2115  0.6113
 2359TIP3    H128636   5.330   0.332   2.382  0.0817 -0.5091  0.7101
 2359TIP3    H228637   5.180   0.324   2.367  0.1160  0.0996 -0.0627
 2360TIP3   OH228638   2.908   3.715   8.759  0.0280 -0.3858 -0.4371
 2360TIP3    H128639   2.855   3.644   8.795 -0.5466  0.1702 -0.1426
 2360TIP3    H228640   2.922   3.692   8.668 -2.7311  0.5201 -1.2157
 2361TIP3   OH228641   0.355   2.412   1.055 -0.6516  0.3060 -0.9563
 2361TIP3    H128642   0.425   2.350   1.033 -1.2717 -0.1303 -1.7859
 2361TIP3    H228643   0.397   2.478   1.110 -0.2758 -1.5808  1.1092
 2362TIP3   OH228644   6.046   5.733   7.468 -0.1106 -0.2072  0.0559
 2362TIP3    H128645   5.953   5.708   7.472  0.4402 -2.3677  0.5471
 2362TIP3    H228646   6.089   5.658   7.428  1.0350  2.1577 -3.6335
 2363TIP3   OH228647   4.457   3.167   2.931 -0.2225 -0.2793 -0.2421
 2363TIP3    H128648   4.369   3.149   2.899 -0.6089  0.9471  0.0820
 2363TIP3    H228649   4.466   3.262   2.925  1.0388 -0.3785 -0.1633
 2364TIP3   OH228650   6.553   3.862   1.794  0.1374  0.2012 -0.8901
 2364TIP3    H128651   6.502   3.782   1.787 -0.0273  0.2746 -0.5276
 2364TIP3    H228652   6.638   3.835   1.828 -0.4659  0.3776  0.8747
 2365TIP3   OH228653   2.200   2.253   2.280  0.6111 -0.4473  0.2198
 2365TIP3    H128654   2.275   2.268   2.337  2.4951 -0.6376 -2.0448
 2365TIP3    H228655   2.123   2.264   2.337  2.2415  1.9203  2.1826
 2366TIP3   OH228656   5.501   2.128   7.926  0.7010 -0.3310 -0.4818
 2366TIP3    H128657   5.551   2.206   7.899  0.2392 -0.0966 -0.6641
 2366TIP3    H228658   5.500   2.073   7.847 -1.2150  0.6462 -1.1894
 2367TIP3   OH228659   0.861   0.309   1.202  0.1300  0.2804  0.1469
 2367TIP3    H128660   0.872   0.222   1.164 -0.7652  0.2307 -0.0053
 2367TIP3    H228661   0.927   0.363   1.159  0.9021 -0.3837  0.4656
 2368TIP3   OH228662   0.372   3.716   1.971 -0.2419  0.0910 -0.0430
 2368TIP3    H128663   0.357   3.792   2.028 -0.6175  0.3344 -0.4564
 2368TIP3    H228664   0.371   3.753   1.883  1.0256 -0.1729 -0.1746
 2369TIP3   OH228665   3.792   1.610   1.530  0.0412 -0.5883  0.2916
 2369TIP3    H128666   3.718   1.584   1.475  0.4211 -0.7987 -0.1190
 2369TIP3    H228667   3.764   1.586   1.619 -1.2463  1.2444  0.4301
 2370TIP3   OH228668   5.343   5.688   1.661 -0.1150  0.0406 -0.0972
 2370TIP3    H128669   5.376   5.634   1.733 -0.7568  0.2439  0.3604
 2370TIP3    H228670   5.374   5.645   1.582  0.6720 -0.1417  0.3024
 2371TIP3   OH228671   6.563   6.001   6.827  0.5113  0.4781  0.0422
 2371TIP3    H128672   6.481   6.049   6.837  1.0844  1.5117 -0.0978
 2371TIP3    H228673   6.537   5.913   6.802 -0.5413  0.9144 -0.4237
 2372TIP3   OH228674   5.576   2.874   2.273  0.7035 -0.0686 -0.0418
 2372TIP3    H128675   5.548   2.905   2.187  3.7603 -1.8220 -1.8414
 2372TIP3    H228676   5.622   2.948   2.312  0.8436  0.1847 -0.6781
 2373TIP3   OH228677   4.451   2.046   7.331 -0.2298  0.1768 -0.6633
 2373TIP3    H128678   4.522   2.067   7.391  1.2373 -1.7486 -1.6034
 2373TIP3    H228679   4.476   2.089   7.249  0.9798 -2.0648 -1.5717
 2374TIP3   OH228680   5.841   5.456   1.390 -0.3209  0.2844  0.3323
 2374TIP3    H128681   5.751   5.467   1.420 -0.5660 -1.0252  0.1442
 2374TIP3    H228682   5.882   5.402   1.458  0.1876  0.4841  0.1867
 2375TIP3   OH228683   1.577   4.913   1.356  0.0522  0.2488 -0.3302
 2375TIP3    H128684   1.527   4.843   1.398  3.6293 -2.4351 -0.0254
 2375TIP3    H228685   1.584   4.886   1.265  1.4168  0.1582 -0.2258
 2376TIP3   OH228686   6.780   3.905   2.100  0.0577 -0.4908  0.2135
 2376TIP3    H128687   6.816   3.981   2.055 -2.2638  1.3972  1.2897
 2376TIP3    H228688   6.760   3.938   2.188 -2.7665 -1.7514  0.1235
 2377TIP3   OH228689   5.907   6.110   8.762  0.2707  0.1841  0.5929
 2377TIP3    H128690   5.994   6.087   8.794 -0.1489 -0.9961  0.9382
 2377TIP3    H228691   5.923   6.150   8.677  1.0498 -1.9798 -0.3634
 2378TIP3   OH228692   2.334   1.422   8.188 -0.1907  0.0542  0.2703
 2378TIP3    H128693   2.422   1.457   8.202  0.3884 -1.1063 -0.3729
 2378TIP3    H228694   2.284   1.454   8.262  0.5965  1.3018  0.2947
 2379TIP3   OH228695   3.073   6.814   7.420  0.0962 -0.5023  0.0215
 2379TIP3    H128696   3.016   6.823   7.343  0.3918  0.1843 -0.1251
 2379TIP3    H228697   3.117   6.730   7.407 -0.5246 -0.8169 -0.1004
 2380TIP3   OH228698   3.213   2.988   0.180 -0.1702  0.4841 -0.1933
 2380TIP3    H128699   3.127   3.018   0.208 -0.2263  2.0886 -1.8812
 2380TIP3    H228700   3.196   2.901   0.142 -0.5044 -0.5213  2.1241
 2381TIP3   OH228701   1.407   2.507   1.615 -0.3824 -0.1924 -0.1475
 2381TIP3    H128702   1.494   2.537   1.588 -0.4928 -0.9403 -1.3584
 2381TIP3    H228703   1.387   2.562   1.691  2.0282 -1.4231  1.5149
 2382TIP3   OH228704   5.117   0.456   6.910  0.3058 -0.3994 -0.1051
 2382TIP3    H128705   5.178   0.484   6.978 -0.4905 -0.5307  0.6686
 2382TIP3    H228706   5.170   0.458   6.830  1.2123 -0.0953  0.4761
 2383TIP3   OH228707   1.572   0.227   0.956 -0.2543 -0.3853 -0.1790
 2383TIP3    H128708   1.496   0.199   0.905  0.4285 -0.8816 -0.9402
 2383TIP3    H228709   1.623   0.282   0.897 -0.0611  0.0295  0.3576
 2384TIP3   OH228710   1.817   0.419   8.386  0.4072  0.0857 -0.4164
 2384TIP3    H128711   1.754   0.490   8.399  0.3807 -0.1954  1.1067
 2384TIP3    H228712   1.903   0.461   8.392  0.3931 -0.0258  0.6089
 2385TIP3   OH228713   0.182   3.120   3.130  0.3247 -0.4062 -0.4594
 2385TIP3    H128714   0.117   3.154   3.192  1.1909 -1.1525  0.9219
 2385TIP3    H228715   0.247   3.190   3.123  0.5366 -0.5471 -0.0085
 2386TIP3   OH228716   5.312   0.764   2.140 -0.3111  0.0157  0.0366
 2386TIP3    H128717   5.321   0.669   2.139 -0.9974 -0.0996  1.8518
 2386TIP3    H228718   5.226   0.780   2.177  0.0959  1.3642  0.4690
 2387TIP3   OH228719   2.126   3.367   1.787  0.2621 -0.0350  0.3563
 2387TIP3    H128720   2.123   3.274   1.763  1.2369 -0.1894  0.7690
 2387TIP3    H228721   2.036   3.397   1.780  0.0360 -0.8549 -0.4239
 2388TIP3   OH228722   5.037   1.483   0.102  0.3175 -0.3888 -0.3099
 2388TIP3    H128723   4.965   1.423   0.122 -0.4541 -0.1104 -2.1264
 2388TIP3    H228724   5.004   1.570   0.124  0.5768 -0.3867  0.0803
 2389TIP3   OH228725   2.246   2.643   1.590  0.1417  0.4484 -0.4208
 2389TIP3    H128726   2.302   2.716   1.564  1.3339 -0.9271 -1.8922
 2389TIP3    H228727   2.286   2.566   1.551 -1.0516 -1.0435  1.1113
 2390TIP3   OH228728   4.731   2.436   7.999 -0.1324  0.4928  0.1813
 2390TIP3    H128729   4.722   2.443   8.094 -0.2637  0.4359  0.1740
 2390TIP3    H228730   4.722   2.526   7.967 -2.2483  0.2791  0.0459
 2391TIP3   OH228731   6.194   3.926   1.989 -0.2146 -0.6435  0.2860
 2391TIP3    H128732   6.257   3.994   2.011 -0.5592 -0.2252 -0.0117
 2391TIP3    H228733   6.237   3.844   2.017  0.6028 -0.4039 -0.2164
 2392TIP3   OH228734   0.990   1.042   0.688 -0.1475  0.2840 -0.7120
 2392TIP3    H128735   0.954   1.059   0.600  0.3647  0.0208 -0.9736
 2392TIP3    H228736   1.049   0.968   0.676  0.3366  0.5905 -0.2405
 2393TIP3   OH228737   1.233   5.312   1.682  0.6024  0.7305  0.0564
 2393TIP3    H128738   1.299   5.281   1.620 -1.1605  0.2851 -1.6979
 2393TIP3    H228739   1.224   5.241   1.745  0.7720  0.1643 -0.5476
 2394TIP3   OH228740   6.708   2.700   3.084  0.2405 -0.0190  1.0589
 2394TIP3    H128741   6.624   2.703   3.131 -1.8635  1.6937 -2.4026
 2394TIP3    H228742   6.767   2.751   3.139 -1.3053 -0.1467  2.9807
 2395TIP3   OH228743   0.058   5.438   1.326 -0.1989 -0.4136 -0.1019
 2395TIP3    H128744   0.101   5.402   1.248 -0.6330 -2.6595  0.6351
 2395TIP3    H228745   0.079   5.376   1.396 -3.7284 -1.0788  0.5336
 2396TIP3   OH228746   5.515   2.320   2.705 -0.0216 -0.1573  0.3414
 2396TIP3    H128747   5.472   2.315   2.791  1.2029  2.3828  1.2108
 2396TIP3    H228748   5.509   2.413   2.682  2.6851 -0.1696 -0.6867
 2397TIP3   OH228749   2.918   1.814   0.271  0.2259  0.0191  0.1943
 2397TIP3    H128750   2.853   1.799   0.340  0.1290  0.0589  0.1119
 2397TIP3    H228751   2.892   1.897   0.232  1.5991  1.1736  1.5972
 2398TIP3   OH228752   1.075   6.341   1.747 -0.7277  0.1923 -0.8192
 2398TIP3    H128753   1.103   6.385   1.827  0.1400  0.1196 -1.0688
 2398TIP3    H228754   0.993   6.298   1.770  0.9975 -2.4105  0.9523
 2399TIP3   OH228755   1.220   4.429   1.780  0.2262 -0.4668  0.0651
 2399TIP3    H128756   1.299   4.399   1.826  0.9982  1.7430  0.3191
 2399TIP3    H228757   1.240   4.520   1.757 -2.4977  0.3824  0.7135
 2400TIP3   OH228758   3.563   1.087   0.244 -1.1358 -0.1998  0.1556
 2400TIP3    H128759   3.525   1.030   0.310 -0.9612  0.0641  0.4838
 2400TIP3    H228760   3.554   1.175   0.279 -1.2875 -0.0333 -0.2915
 2401TIP3   OH228761   6.460   1.752   8.413 -0.0781  1.0181 -0.0311
 2401TIP3    H128762   6.441   1.659   8.426 -2.6540  1.5351  0.5639
 2401TIP3    H228763   6.501   1.781   8.494  4.1113 -0.2122 -1.4606
 2402TIP3   OH228764   4.058   4.662   8.070 -0.3018  0.5268 -0.0131
 2402TIP3    H128765   4.063   4.688   7.978 -1.8482  1.2851  0.0933
 2402TIP3    H228766   4.110   4.581   8.074  1.4753  1.5289 -1.1134
 2403TIP3   OH228767   6.182   1.221   2.599 -0.0765 -0.0570  0.3959
 2403TIP3    H128768   6.146   1.309   2.608 -0.0913 -0.2138  2.1864
 2403TIP3    H228769   6.149   1.173   2.675  0.7887 -1.3060  0.0217
 2404TIP3   OH228770   0.107   4.111   0.361  0.4175 -0.4698 -0.2521
 2404TIP3    H128771   0.164   4.150   0.295  0.3144 -1.7374 -1.1241
 2404TIP3    H228772   0.160   4.110   0.441  1.2218 -0.6121 -0.7724
 2405TIP3   OH228773   0.842   6.104   0.198 -0.8064 -0.2270  0.7187
 2405TIP3    H128774   0.915   6.047   0.221 -0.9836 -0.1869  1.3832
 2405TIP3    H228775   0.781   6.047   0.150 -0.9697 -0.5887  1.3510
 2406TIP3   OH228776   1.969   2.211   1.935 -0.4355  0.4825  0.0517
 2406TIP3    H128777   1.920   2.159   1.999 -2.8304  2.3206 -0.1242
 2406TIP3    H228778   1.903   2.269   1.897  1.3502  0.9927 -2.4984
 2407TIP3   OH228779   6.463   1.093   2.269 -0.3725 -0.1574  0.5388
 2407TIP3    H128780   6.431   1.078   2.358  1.0053  0.0728  1.0844
 2407TIP3    H228781   6.496   1.008   2.241  0.6660  0.1301  0.8619
 2408TIP3   OH228782   3.265   1.108   1.251 -0.0400  0.3360  0.2798
 2408TIP3    H128783   3.211   1.187   1.250 -0.8278 -0.1909 -0.1796
 2408TIP3    H228784   3.354   1.140   1.234 -0.0354  1.3231  1.9776
 2409TIP3   OH228785   2.840   6.467   1.969 -0.4383  0.2836 -0.1811
 2409TIP3    H128786   2.761   6.414   1.980 -1.2395  1.3571 -0.6033
 2409TIP3    H228787   2.821   6.549   2.015  0.0432  0.9303 -1.1008
 2410TIP3   OH228788   4.026   4.721   0.831 -0.0059 -0.3353 -0.2886
 2410TIP3    H128789   4.100   4.778   0.812 -0.8835  0.5922 -1.0465
 2410TIP3    H228790   4.050   4.637   0.793  0.3586  0.1525 -1.1600
 2411TIP3   OH228791   4.214   3.331   1.329  0.1670  0.5850 -0.0291
 2411TIP3    H128792   4.280   3.290   1.384 -0.3959  2.8299  2.5113
 2411TIP3    H228793   4.249   3.417   1.308 -1.0525  1.0103 -0.4314
 2412TIP3   OH228794   3.330   1.859   7.260 -1.1690 -0.1443  0.0723
 2412TIP3    H128795   3.401   1.921   7.240 -2.3505  0.6270 -2.1873
 2412TIP3    H228796   3.334   1.795   7.189 -3.0060  0.2218 -0.4160
 2413TIP3   OH228797   4.279   2.753   2.812 -0.2323  0.2109  0.0384
 2413TIP3    H128798   4.286   2.662   2.781 -0.1725  0.3757 -0.4426
 2413TIP3    H228799   4.195   2.756   2.857 -0.8761  0.2463 -1.1206
 2414TIP3   OH228800   1.445   2.584   0.810  0.1924 -0.9476 -0.0723
 2414TIP3    H128801   1.462   2.530   0.733 -2.5946 -0.0301 -1.4418
 2414TIP3    H228802   1.412   2.523   0.876 -2.1318 -1.1317 -1.3273
 2415TIP3   OH228803   3.966   3.686   2.096 -0.5423  0.0553 -0.4856
 2415TIP3    H128804   3.966   3.607   2.041 -0.0127  0.3882 -0.9726
 2415TIP3    H228805   4.056   3.694   2.126 -0.3153  1.1175 -1.3820
 2416TIP3   OH228806   3.800   3.250   7.959  0.4259 -0.5262  0.8110
 2416TIP3    H128807   3.711   3.246   7.926  0.3922 -0.4618  0.8929
 2416TIP3    H228808   3.790   3.268   8.053  0.5405  0.2761  0.6735
 2417TIP3   OH228809   3.230   3.238   1.457  0.0137 -0.0640 -0.2515
 2417TIP3    H128810   3.259   3.291   1.383  0.3227  0.6216  0.3545
 2417TIP3    H228811   3.221   3.150   1.421  2.3320 -0.2129 -0.6156
 2418TIP3   OH228812   0.077   4.645   8.670  0.2334 -0.1612 -0.2710
 2418TIP3    H128813   0.162   4.652   8.713  0.9428 -1.4422 -1.3820
 2418TIP3    H228814   0.020   4.706   8.717  2.0335  1.5078 -0.1656
 2419TIP3   OH228815   1.779   3.597   1.161  0.0065 -0.2875  0.4994
 2419TIP3    H128816   1.873   3.591   1.148 -0.2365 -0.8263 -1.3005
 2419TIP3    H228817   1.749   3.660   1.095 -0.7964  0.6538  1.7094
 2420TIP3   OH228818   3.043   2.396   7.056  0.4165  0.2061 -0.0757
 2420TIP3    H128819   3.064   2.489   7.065 -0.7132  0.5155 -0.3720
 2420TIP3    H228820   3.122   2.350   7.084  1.5082  1.2651 -1.2861
 2421TIP3   OH228821   2.225   5.108   0.294 -0.2782 -0.3440 -0.3318
 2421TIP3    H128822   2.256   5.127   0.206 -4.3540 -0.7601 -2.0869
 2421TIP3    H228823   2.190   5.019   0.289 -0.4455 -0.4511  1.7817
 2422TIP3   OH228824   5.023   6.671   0.346 -0.3415 -0.0888 -0.1491
 2422TIP3    H128825   4.959   6.739   0.323  0.3531  0.2122 -1.2683
 2422TIP3    H228826   4.978   6.589   0.328 -0.4773  0.1133 -0.7401
 2423TIP3   OH228827   5.463   0.962   1.095  0.2189 -0.1933 -0.4515
 2423TIP3    H128828   5.447   0.876   1.135 -2.1064  0.7686  0.8939
 2423TIP3    H228829   5.376   1.001   1.088  1.3129  2.5075 -0.0222
 2424TIP3   OH228830   3.794   0.534   0.960  0.7093 -0.0212  0.6437
 2424TIP3    H128831   3.724   0.479   0.925  0.5380  0.0439  0.8799
 2424TIP3    H228832   3.874   0.487   0.940  0.6650  0.3041 -0.3824
 2425TIP3   OH228833   0.070   6.315   2.587  0.7492 -0.3096 -0.0513
 2425TIP3    H128834   0.051   6.409   2.582  1.1489 -0.1885  0.4802
 2425TIP3    H228835   0.148   6.310   2.643  0.2572 -1.0136  0.5863
 2426TIP3   OH228836   5.732   1.686   2.610  0.3385  0.5127  0.4227
 2426TIP3    H128837   5.814   1.670   2.658  0.7217  2.0249  0.3295
 2426TIP3    H228838   5.735   1.779   2.589 -1.0504  0.4172 -0.2847
 2427TIP3   OH228839   6.124   2.147   8.361  0.2222 -0.0845  0.5464
 2427TIP3    H128840   6.042   2.101   8.346 -0.9660  2.1536 -0.4108
 2427TIP3    H228841   6.099   2.240   8.362  3.0329  0.8913 -2.2780
 2428TIP3   OH228842   3.230   5.853   2.470 -0.0995 -0.0072  0.0881
 2428TIP3    H128843   3.298   5.798   2.430 -1.6898 -1.2346 -1.0561
 2428TIP3    H228844   3.224   5.821   2.560  1.9374  1.2500  0.7513
 2429TIP3   OH228845   2.945   4.081   1.666  0.4424 -0.4827  0.1998
 2429TIP3    H128846   2.976   4.161   1.624 -0.7473 -0.4240 -0.6172
 2429TIP3    H228847   3.007   4.066   1.738  0.2267  1.6410  0.9144
 2430TIP3   OH228848   4.739   6.802   1.238 -0.2220  0.2774 -0.0932
 2430TIP3    H128849   4.771   6.714   1.218 -0.7384  0.5661 -2.5069
 2430TIP3    H228850   4.807   6.840   1.293  1.9046 -0.3596 -2.1145
 2431TIP3   OH228851   0.645   5.878   2.557 -0.0099  0.1385  0.1920
 2431TIP3    H128852   0.616   5.833   2.636  1.2262 -1.8860 -0.4546
 2431TIP3    H228853   0.572   5.870   2.496 -1.1975  2.1969  1.2189
 2432TIP3   OH228854   4.496   0.883   2.057  0.3817  0.0756  0.7024
 2432TIP3    H128855   4.510   0.816   2.124 -0.8095 -1.7903 -0.8235
 2432TIP3    H228856   4.464   0.960   2.105  0.0905 -1.0219  2.3198
 2433TIP3   OH228857   0.328   0.547   0.387 -0.5759  0.1056 -0.1406
 2433TIP3    H128858   0.296   0.635   0.404  2.1638  1.3183 -0.7638
 2433TIP3    H228859   0.373   0.553   0.303 -1.0951 -2.1360 -0.6418
 2434TIP3   OH228860   5.600   0.797   0.625 -0.2791 -0.1383 -0.1164
 2434TIP3    H128861   5.576   0.758   0.541 -1.4177  0.3005 -0.0097
 2434TIP3    H228862   5.540   0.757   0.688  0.0179  0.1512  0.3538
 2435TIP3   OH228863   0.392   4.791   0.276 -1.0370 -0.3132  0.0677
 2435TIP3    H128864   0.347   4.853   0.333 -0.3414  1.0092 -0.7435
 2435TIP3    H228865   0.425   4.846   0.204  0.7904 -1.4052  0.0163
 2436TIP3   OH228866   6.801   6.559   7.605  0.5209 -0.0888  1.1546
 2436TIP3    H128867   6.752   6.629   7.562 -0.5792 -0.8288  1.1768
 2436TIP3    H228868   6.770   6.478   7.563  0.1221 -0.7461  2.6760
 2437TIP3   OH228869   2.996   5.133   0.624 -0.3235 -0.5910  0.4502
 2437TIP3    H128870   2.944   5.194   0.676 -1.8176 -1.9368  0.6135
 2437TIP3    H228871   2.952   5.132   0.538  2.1264  1.6345 -0.9678
 2438TIP3   OH228872   2.863   3.444   8.309 -1.0836  0.2593  0.1673
 2438TIP3    H128873   2.824   3.518   8.261  0.4609 -0.8361 -3.0495
 2438TIP3    H228874   2.802   3.372   8.295 -1.0002  0.1039  0.5864
 2439TIP3   OH228875   6.681   4.687   0.384  0.2484  0.1471 -0.8019
 2439TIP3    H128876   6.762   4.714   0.339  0.9115  0.4658  0.5337
 2439TIP3    H228877   6.638   4.770   0.406  0.6140  0.0539  0.3325
 2440TIP3   OH228878   5.738   2.305   2.915  0.3375 -0.2368 -0.0381
 2440TIP3    H128879   5.817   2.251   2.922  0.3513 -0.1751  0.3503
 2440TIP3    H228880   5.752   2.360   2.838 -0.2853 -1.7572 -1.2732
 2441TIP3   OH228881   1.834   4.867   0.197 -0.3832  0.4519 -0.3369
 2441TIP3    H128882   1.812   4.779   0.229  1.4148  0.7550  1.9923
 2441TIP3    H228883   1.848   4.855   0.103 -0.9376 -1.5945 -0.2107
 2442TIP3   OH228884   4.394   6.140   2.621 -0.1863  0.4708  0.2959
 2442TIP3    H128885   4.305   6.130   2.585 -0.4718  0.8716  0.8837
 2442TIP3    H228886   4.395   6.228   2.658  0.8227  0.8991 -0.7037
 2443TIP3   OH228887   6.488   2.015   1.635 -0.1457  1.1262 -0.1142
 2443TIP3    H128888   6.514   1.934   1.678  1.8543  2.5856  1.6188
 2443TIP3    H228889   6.519   2.006   1.545 -0.6886 -0.3169 -0.1788
 2444TIP3   OH228890   6.260   1.194   0.038 -0.4419  0.3851  0.4147
 2444TIP3    H128891   6.275   1.113   0.087 -1.2502  0.4412  0.7747
 2444TIP3    H228892   6.254   1.166  -0.053 -1.0103 -0.0053  0.5670
 2445TIP3   OH228893   5.355   3.919   8.208  0.0325  0.0782  0.5760
 2445TIP3    H128894   5.397   3.850   8.157  2.9207 -0.1354  2.9442
 2445TIP3    H228895   5.290   3.873   8.262  0.3532 -0.4532  0.5203
 2446TIP3   OH228896   1.090   3.208   1.418  0.4498 -0.0603  0.2061
 2446TIP3    H128897   1.033   3.160   1.358  0.8360 -0.3799  0.0972
 2446TIP3    H228898   1.036   3.282   1.448 -0.0918 -0.4675  0.2537
 2447TIP3   OH228899   3.549   6.022   0.647  0.4429  0.0737  0.0685
 2447TIP3    H128900   3.508   5.948   0.601 -1.0048  0.9901 -0.2016
 2447TIP3    H228901   3.597   5.982   0.719 -3.1695 -1.0286  2.1412
 2448TIP3   OH228902   6.594   1.707   1.750  0.3287 -0.2194 -0.8928
 2448TIP3    H128903   6.668   1.674   1.699 -0.7743 -0.7002 -2.2519
 2448TIP3    H228904   6.518   1.663   1.713 -0.5907 -0.2083  0.8868
 2449TIP3   OH228905   1.739   1.952   1.201  0.6693 -0.0404  0.3687
 2449TIP3    H128906   1.728   1.956   1.296  2.1240  0.9557  0.5280
 2449TIP3    H228907   1.822   1.905   1.189  0.2412 -0.6200 -0.4363
 2450TIP3   OH228908   0.234   1.614   0.272  0.6780 -0.6422 -0.1370
 2450TIP3    H128909   0.195   1.528   0.252 -1.8169  0.6455 -1.3169
 2450TIP3    H228910   0.161   1.665   0.308  2.6316  0.3863  2.6646
 2451TIP3   OH228911   4.515   4.531   8.638  0.1074 -0.1650 -0.0109
 2451TIP3    H128912   4.483   4.620   8.652 -3.4589 -1.6860  2.8135
 2451TIP3    H228913   4.582   4.519   8.705 -1.3829 -0.4438  1.4617
 2452TIP3   OH228914   4.626   4.510   8.266  0.0129 -0.1790 -0.3049
 2452TIP3    H128915   4.563   4.581   8.276  0.3887  0.0620  0.3855
 2452TIP3    H228916   4.621   4.487   8.173 -0.3362  0.5307 -0.4700
 2453TIP3   OH228917   1.035   5.828   8.152  0.0170 -0.0324  0.3859
 2453TIP3    H128918   1.083   5.909   8.168 -0.0988  0.1625 -0.2176
 2453TIP3    H228919   1.043   5.814   8.057 -1.6471  0.3657  0.1474
 2454TIP3   OH228920   2.412   1.603   0.897 -0.1760 -0.2180 -0.1879
 2454TIP3    H128921   2.338   1.626   0.841 -0.4960 -0.2616  0.2168
 2454TIP3    H228922   2.436   1.515   0.870  0.8491  0.4262 -1.5270
 2455TIP3   OH228923   4.194   0.500   7.394  0.3398  0.2690 -0.4234
 2455TIP3    H128924   4.168   0.432   7.456  0.0690 -0.2833 -1.1346
 2455TIP3    H228925   4.207   0.454   7.311  0.9260  0.9638 -0.7282
 2456TIP3   OH228926   5.434   6.281   1.654  0.2985 -0.0867 -0.3240
 2456TIP3    H128927   5.357   6.225   1.650  0.5288 -0.4368 -0.0420
 2456TIP3    H228928   5.508   6.220   1.655  0.6321  0.2668 -1.6000
 2457TIP3   OH228929   3.723   3.011   8.399  0.4084  0.2128 -0.3037
 2457TIP3    H128930   3.771   2.962   8.466  1.7143  2.8017  0.8208
 2457TIP3    H228931   3.779   3.006   8.321  0.1035 -0.7483 -0.4747
 2458TIP3   OH228932   5.535   4.328   0.699 -0.3533 -0.0213 -0.1591
 2458TIP3    H128933   5.618   4.363   0.668 -0.5711  1.4884  0.8227
 2458TIP3    H228934   5.530   4.356   0.790 -1.7652 -0.4129 -0.0946
 2459TIP3   OH228935   5.064   5.965   7.263 -0.4772 -0.6959  0.3189
 2459TIP3    H128936   5.136   5.931   7.316  1.2670  1.2464 -0.6488
 2459TIP3    H228937   4.994   5.982   7.326  1.0589  0.3087  1.8662
 2460TIP3   OH228938   3.648   5.727   7.415 -0.2056  0.0847  0.3018
 2460TIP3    H128939   3.667   5.814   7.380  1.6225 -0.6692 -0.7474
 2460TIP3    H228940   3.590   5.687   7.351 -0.0526  0.1095  0.1460
 2461TIP3   OH228941   5.725   2.275   2.511 -0.2784  0.2811 -0.1440
 2461TIP3    H128942   5.804   2.266   2.564 -0.7232 -0.5483  0.3991
 2461TIP3    H228943   5.658   2.305   2.573  0.1083  3.2764 -1.0316
 2462TIP3   OH228944   4.151   2.640   7.673 -0.3620 -0.4216  0.0736
 2462TIP3    H128945   4.154   2.552   7.712 -1.9317 -0.7531 -0.4802
 2462TIP3    H228946   4.146   2.624   7.578 -2.4311  0.1784  0.0377
 2463TIP3   OH228947   6.088   1.929   1.908 -0.2414 -0.1157 -0.6865
 2463TIP3    H128948   6.181   1.953   1.905 -0.7248  1.9210 -0.8766
 2463TIP3    H228949   6.088   1.840   1.942  1.7516  0.0074 -0.1889
 2464TIP3   OH228950   2.737   2.283   7.246 -0.2542  0.2769  0.6789
 2464TIP3    H128951   2.737   2.377   7.262 -1.4181  0.2531  0.9335
 2464TIP3    H228952   2.742   2.275   7.151 -2.9506  0.7150  0.4232
 2465TIP3   OH228953   2.576   3.646   1.449 -0.8606  0.2415 -0.6220
 2465TIP3    H128954   2.573   3.690   1.534  1.0354 -1.6690  0.5294
 2465TIP3    H228955   2.486   3.615   1.436 -1.2377  0.7459  0.5726
 2466TIP3   OH228956   1.301   5.586   8.199 -0.0319  0.3125  0.6662
 2466TIP3    H128957   1.328   5.548   8.282  2.9113 -1.3134 -0.8593
 2466TIP3    H228958   1.348   5.670   8.195  0.5464 -0.0202  0.3087
 2467TIP3   OH228959   1.230   0.196   0.942 -0.4824  0.3418 -0.2227
 2467TIP3    H128960   1.182   0.263   0.893  0.5096  1.4128  0.2010
 2467TIP3    H228961   1.179   0.116   0.931 -2.5057  1.4734  0.4113
 2468TIP3   OH228962   1.768   6.108   8.182 -0.0479  0.0950  0.4967
 2468TIP3    H128963   1.788   6.201   8.196  0.0890  0.3027 -0.9115
 2468TIP3    H228964   1.853   6.066   8.177 -0.1023 -0.4864  3.1491
 2469TIP3   OH228965   2.779   2.687   1.575 -0.1754 -0.1798  0.6163
 2469TIP3    H128966   2.858   2.636   1.592  0.8217  1.0295 -0.0990
 2469TIP3    H228967   2.741   2.647   1.497 -0.7392 -1.2778  1.4452
 2470TIP3   OH228968   1.707   2.757   2.326  0.2312  0.0084 -0.5727
 2470TIP3    H128969   1.682   2.844   2.294 -0.1681  0.4185  0.7702
 2470TIP3    H228970   1.687   2.760   2.420  0.2523 -1.5294 -0.5014
 2471TIP3   OH228971   5.932   4.011   1.947  0.3238  0.4107  0.0469
 2471TIP3    H128972   6.021   3.977   1.955  0.4983  0.6480 -0.7751
 2471TIP3    H228973   5.937   4.099   1.982  0.3049  0.2547  0.4392
 2472TIP3   OH228974   1.702   2.979   7.250  0.2416 -0.0050  0.3098
 2472TIP3    H128975   1.659   2.931   7.179 -0.2648 -1.0063  1.2707
 2472TIP3    H228976   1.746   3.052   7.206  0.3896 -0.9073 -1.0879
 2473TIP3   OH228977   4.645   3.746   1.860 -0.2282 -0.6094 -0.2639
 2473TIP3    H128978   4.675   3.676   1.917 -2.2389  0.3432  2.1446
 2473TIP3    H228979   4.582   3.704   1.801 -1.6288 -0.8575  1.3398
 2474TIP3   OH228980   1.051   3.345   2.639  0.0367 -0.2369  0.1835
 2474TIP3    H128981   1.102   3.411   2.591  1.4104 -0.6652  0.9954
 2474TIP3    H228982   0.965   3.386   2.652  1.0796  1.7729  1.3477
 2475TIP3   OH228983   2.683   1.919   8.242  0.2777 -0.6113  0.0761
 2475TIP3    H128984   2.625   1.876   8.180  1.2397  2.6466 -3.4741
 2475TIP3    H228985   2.632   1.992   8.276  0.8539 -0.4149  0.5464
 2476TIP3   OH228986   6.268   6.683   7.501 -0.0951 -0.0597 -0.0821
 2476TIP3    H128987   6.190   6.672   7.446  0.9230 -0.4820 -1.4701
 2476TIP3    H228988   6.299   6.772   7.481  2.1746 -1.3053 -2.8422
 2477TIP3   OH228989   1.654   1.962   1.475 -0.2236  0.1996  0.5073
 2477TIP3    H128990   1.661   2.026   1.546  0.9918 -0.0096  0.6036
 2477TIP3    H228991   1.569   1.921   1.488 -0.1917  0.4536  1.6056
 2478TIP3   OH228992   1.140   1.890   7.775  0.2388  0.6250 -0.5013
 2478TIP3    H128993   1.071   1.825   7.786  1.4573 -0.7069 -0.3796
 2478TIP3    H228994   1.120   1.957   7.840 -1.5716  0.8725 -1.2654
 2479TIP3   OH228995   3.139   4.028   1.931  0.4554 -0.8110  0.3125
 2479TIP3    H128996   3.158   3.977   1.852 -0.3649  0.3339 -0.6599
 2479TIP3    H228997   3.136   3.963   2.001  0.7106 -1.9267 -0.6769
 2480TIP3   OH228998   3.439   0.499   1.909  0.4368 -1.0580  0.1059
 2480TIP3    H128999   3.488   0.425   1.875  1.1546 -0.0362 -1.1868
 2480TIP3    H229000   3.506   0.562   1.935 -0.1646 -0.2986 -0.1457
 2481TIP3   OH229001   5.581   2.372   7.142 -0.6255  0.3276 -0.6967
 2481TIP3    H129002   5.676   2.365   7.130 -0.6144 -0.4424 -0.2578
 2481TIP3    H229003   5.551   2.281   7.143 -1.0201  0.4201  1.7593
 2482TIP3   OH229004   4.614   2.986   1.966  0.3174  0.3596 -0.2088
 2482TIP3    H129005   4.703   2.992   2.002  0.6827  1.7451 -1.2307
 2482TIP3    H229006   4.602   2.894   1.945  1.0316 -0.0533  1.1023
 2483TIP3   OH229007   3.262   4.930   8.334 -0.2429 -0.2059 -0.0356
 2483TIP3    H129008   3.305   4.886   8.261  0.0202  1.0252 -0.6504
 2483TIP3    H229009   3.205   4.995   8.293 -2.3152 -1.4111  0.7772
 2484TIP3   OH229010   5.626   1.033   0.879 -0.2458 -0.2397  0.1812
 2484TIP3    H129011   5.571   1.012   0.954  1.3676  0.2945  1.5834
 2484TIP3    H229012   5.596   1.119   0.850 -1.0844 -0.5884 -0.0162
 2485TIP3   OH229013   0.891   3.405   1.448  0.1538  0.9862 -0.0200
 2485TIP3    H129014   0.815   3.348   1.432  1.1198 -0.2806 -0.2574
 2485TIP3    H229015   0.860   3.492   1.425 -1.4059  0.5922  0.4133
 2486TIP3   OH229016   3.645   1.519   0.317  0.0762 -0.2322  0.2902
 2486TIP3    H129017   3.647   1.516   0.221 -2.3062  0.7492  0.1337
 2486TIP3    H229018   3.612   1.433   0.343  2.8357 -1.3383  0.4389
 2487TIP3   OH229019   2.168   1.800   8.342  0.0796  0.9201  0.0378
 2487TIP3    H129020   2.173   1.850   8.424 -0.9003  0.8369  0.1608
 2487TIP3    H229021   2.095   1.740   8.355 -0.7136  1.5520 -1.2462
 2488TIP3   OH229022   0.135   6.030   1.294 -0.2699 -0.3065 -0.1602
 2488TIP3    H129023   0.070   6.013   1.363 -0.5952  0.8633 -0.1589
 2488TIP3    H229024   0.083   6.047   1.216  0.0606 -0.1923 -0.3567
 2489TIP3   OH229025   5.760   4.445   1.519  0.4277 -0.3273  0.2382
 2489TIP3    H129026   5.838   4.395   1.493  0.4581  0.2785 -0.8719
 2489TIP3    H229027   5.763   4.445   1.615  1.6950 -0.4625  0.2157
 2490TIP3   OH229028   5.590   1.083   0.006 -0.4136 -0.2210 -1.1283
 2490TIP3    H129029   5.676   1.042   0.018 -0.9813 -1.4315 -0.9938
 2490TIP3    H229030   5.610   1.171  -0.025  0.9700  0.5229  1.5346
 2491TIP3   OH229031   2.480   4.770   1.779  0.4800  0.6187 -0.1252
 2491TIP3    H129032   2.551   4.755   1.841  0.2798 -1.6893 -0.3585
 2491TIP3    H229033   2.451   4.682   1.754 -2.2838  1.4729 -0.2666
 2492TIP3   OH229034   3.526   5.133   2.387  0.4281  0.2345 -0.1855
 2492TIP3    H129035   3.621   5.140   2.378  0.5622 -1.9483 -1.3155
 2492TIP3    H229036   3.490   5.184   2.314  0.6775  1.6265  0.6404
 2493TIP3   OH229037   2.429   6.531   0.028 -0.0827 -0.0313  1.2042
 2493TIP3    H129038   2.466   6.553   0.114  0.7218  1.9480  0.4031
 2493TIP3    H229039   2.455   6.603  -0.029 -3.0255  0.1793 -0.0663
 2494TIP3   OH229040   4.082   1.837   0.159 -0.2574  0.0600 -0.1126
 2494TIP3    H129041   4.106   1.812   0.070 -0.2198 -0.2126 -0.0268
 2494TIP3    H229042   3.987   1.847   0.157 -0.1933  0.6778 -0.3372
 2495TIP3   OH229043   0.143   4.765   1.184 -0.1521 -0.6683  0.1556
 2495TIP3    H129044   0.158   4.808   1.269  2.1896  0.7352 -0.8908
 2495TIP3    H229045   0.078   4.820   1.141  0.4083 -0.0293  0.1180
 2496TIP3   OH229046   6.414   6.209   1.254  0.0282 -0.2096 -0.1735
 2496TIP3    H129047   6.370   6.260   1.186 -1.1205  0.1407  0.8067
 2496TIP3    H229048   6.503   6.198   1.221 -0.0718  1.2670 -1.0163
 2497TIP3   OH229049   4.428   1.820   0.982 -0.3569  0.5529 -0.3630
 2497TIP3    H129050   4.355   1.841   1.041  0.4655  0.2437  0.7943
 2497TIP3    H229051   4.410   1.871   0.903 -1.9983  0.2299 -0.2322
 2498TIP3   OH229052   1.312   5.371   7.282  0.1250  0.2052  0.4299
 2498TIP3    H129053   1.344   5.281   7.282  0.3217  0.2592  1.4199
 2498TIP3    H229054   1.327   5.402   7.193  2.8873  0.2336  0.8201
 2499TIP3   OH229055   1.671   5.104   0.057 -0.1502  0.2231 -0.3818
 2499TIP3    H129056   1.763   5.128   0.059  0.8988 -3.2278  0.9388
 2499TIP3    H229057   1.645   5.115  -0.035  2.6411 -1.8787 -1.5791
 2500TIP3   OH229058   3.008   1.107   8.113 -0.6554 -0.3643  0.3790
 2500TIP3    H129059   2.951   1.123   8.037 -0.3246  1.0035  0.3930
 2500TIP3    H229060   3.028   1.195   8.147  1.8302 -0.7375  0.0988
 2501TIP3   OH229061   6.067   0.725   7.172  0.2654  0.5609  0.0968
 2501TIP3    H129062   6.134   0.787   7.145 -0.3037  0.6428 -1.2237
 2501TIP3    H229063   6.010   0.717   7.096 -0.1627 -0.9340  0.5333
 2502TIP3   OH229064   6.020   1.914   2.872 -0.2831  0.0324 -0.1454
 2502TIP3    H129065   5.995   1.822   2.873  0.0822 -0.0758  1.1699
 2502TIP3    H229066   6.046   1.933   2.963  0.1053  1.3019 -0.4973
 2503TIP3   OH229067   3.440   4.086   8.671 -0.1344 -0.7623 -0.4732
 2503TIP3    H129068   3.535   4.085   8.659 -0.0854  0.2872 -0.2505
 2503TIP3    H229069   3.425   4.027   8.746  0.4648  0.0103  0.2764
 2504TIP3   OH229070   6.813   6.299   7.905  0.2855  0.0479  0.5770
 2504TIP3    H129071   6.808   6.246   7.826  0.9217  1.4776 -0.4690
 2504TIP3    H229072   6.905   6.324   7.912 -0.0351  1.2217  0.8786
 2505TIP3   OH229073   3.421   4.545   7.410 -0.2861 -0.9384  0.3212
 2505TIP3    H129074   3.407   4.632   7.447  1.1123 -0.5226 -0.0898
 2505TIP3    H229075   3.471   4.498   7.478 -0.6403 -1.2821  0.3506
 2506TIP3   OH229076   1.547   0.931   8.369 -0.7223  0.5685  0.0920
 2506TIP3    H129077   1.632   0.969   8.347 -0.6775  0.0690 -0.6065
 2506TIP3    H229078   1.511   0.991   8.435  0.1971  0.7491  0.4481
 2507TIP3   OH229079   2.517   2.255   1.127 -0.2380 -0.1021 -0.1770
 2507TIP3    H129080   2.533   2.167   1.092  0.8152  0.3261 -0.8243
 2507TIP3    H229081   2.510   2.242   1.221 -3.7347 -1.3790 -0.4492
 2508TIP3   OH229082   5.378   0.359   8.170 -0.2389  0.1429  0.2886
 2508TIP3    H129083   5.297   0.368   8.219  0.4366  0.6894  1.3562
 2508TIP3    H229084   5.398   0.447   8.139 -0.3714 -0.1012 -0.5114
 2509TIP3   OH229085   1.781   2.240   8.580  0.0620  0.1678 -0.7639
 2509TIP3    H129086   1.781   2.336   8.573 -0.2396  0.5909  2.8668
 2509TIP3    H229087   1.689   2.218   8.596  0.4423 -0.4092  0.7709
 2510TIP3   OH229088   4.960   5.971   1.551  0.1899  0.2638 -0.2146
 2510TIP3    H129089   4.972   5.908   1.481 -1.2719 -0.5308  0.1925
 2510TIP3    H229090   4.878   6.017   1.529 -0.5816 -0.3556  1.1801
 2511TIP3   OH229091   0.206   3.508   0.021  0.0362  0.0379  0.2184
 2511TIP3    H129092   0.179   3.419   0.044 -0.2167  0.1287  0.2735
 2511TIP3    H229093   0.198   3.557   0.103  0.4998  0.0343  0.2687
 2512TIP3   OH229094   0.687   3.678   7.462  0.0537  0.5365 -0.3294
 2512TIP3    H129095   0.620   3.676   7.393 -0.0103 -3.0063 -0.3716
 2512TIP3    H229096   0.641   3.651   7.541  1.0580 -0.3448 -0.0159
 2513TIP3   OH229097   2.515   0.695   1.647  0.1372  0.3008  0.0576
 2513TIP3    H129098   2.567   0.650   1.580 -2.2955 -0.9237 -1.1367
 2513TIP3    H229099   2.496   0.781   1.610  2.4487  1.3694  1.1514
 2514TIP3   OH229100   6.739   4.173   3.327 -0.4076 -0.0816 -0.1881
 2514TIP3    H129101   6.737   4.130   3.242  1.5156 -0.1031 -0.2508
 2514TIP3    H229102   6.740   4.266   3.307 -0.9242 -0.0660 -0.1531
 2515TIP3   OH229103   6.035   5.164   0.042 -0.3590 -0.8544  0.1985
 2515TIP3    H129104   6.100   5.129  -0.019 -1.2843 -3.1475  0.4222
 2515TIP3    H229105   5.985   5.227  -0.010  0.1527 -1.2870 -0.8554
 2516TIP3   OH229106   4.690   2.584   0.800  0.0306 -0.0161 -0.4675
 2516TIP3    H129107   4.603   2.547   0.788 -0.3567  0.5625  0.4811
 2516TIP3    H229108   4.734   2.567   0.717 -0.6940 -1.0664 -0.6628
 2517TIP3   OH229109   6.472   1.640   0.216  0.5089  0.5790 -0.1924
 2517TIP3    H129110   6.392   1.596   0.244  0.6349  0.4158 -0.0877
 2517TIP3    H229111   6.478   1.621   0.122  0.4672  0.5237 -0.1842
 2518TIP3   OH229112   1.034   5.241   0.137  0.3001  0.2033 -0.1391
 2518TIP3    H129113   0.994   5.180   0.200 -1.9260  0.9286 -0.7539
 2518TIP3    H229114   1.119   5.263   0.175 -0.9056  0.5412  2.5827
 2519TIP3   OH229115   2.792   2.230   2.804  0.9670 -0.5736 -0.3957
 2519TIP3    H129116   2.800   2.296   2.735 -2.7077  0.5772  0.0562
 2519TIP3    H229117   2.711   2.253   2.849  1.0120 -3.8009  1.6134
 2520TIP3   OH229118   6.585   5.505   7.967 -0.7905  0.2779  0.3877
 2520TIP3    H129119   6.517   5.509   7.899  0.2291  1.1835 -0.6275
 2520TIP3    H229120   6.667   5.501   7.919 -0.0605  0.3383  1.5848
 2521TIP3   OH229121   1.275   2.351   7.396 -0.1594  0.0964  0.1592
 2521TIP3    H129122   1.207   2.418   7.385  1.0354  1.2535 -0.5221
 2521TIP3    H229123   1.269   2.326   7.488 -1.4120  0.2648  0.1372
 2522TIP3   OH229124   0.714   6.405   1.541  0.4696 -0.5320 -0.1922
 2522TIP3    H129125   0.766   6.485   1.555  0.3444 -0.6493  1.0683
 2522TIP3    H229126   0.650   6.429   1.474 -0.0524  0.6717  0.7015
 2523TIP3   OH229127   2.522   4.911   0.247  0.4104  0.0554 -0.1650
 2523TIP3    H129128   2.542   4.871   0.331 -0.2632  0.6305  0.2860
 2523TIP3    H229129   2.429   4.936   0.254  0.4055  0.3120 -0.9920
 2524TIP3   OH229130   0.031   5.523   0.486 -0.0667  0.3845  0.2792
 2524TIP3    H129131   0.125   5.525   0.503  0.0024 -2.1918  0.5637
 2524TIP3    H229132   0.021   5.570   0.403  1.4752  0.6261  0.1904
 2525TIP3   OH229133   1.717   0.248   1.690 -0.2149  0.2822 -0.5334
 2525TIP3    H129134   1.802   0.286   1.667 -0.1175 -0.0481 -0.7285
 2525TIP3    H229135   1.655   0.321   1.683 -0.4629 -0.0895 -3.3768
 2526TIP3   OH229136   4.995   3.918   1.971  0.1703  0.2779 -0.0090
 2526TIP3    H129137   4.922   3.869   2.009 -0.4046  2.1836  1.5296
 2526TIP3    H229138   4.954   3.983   1.915  0.9339 -1.0979 -2.3040
 2527TIP3   OH229139   1.391   0.803   1.163 -0.0655  0.3816 -0.2122
 2527TIP3    H129140   1.475   0.796   1.117 -0.4568  0.1795 -0.9149
 2527TIP3    H229141   1.414   0.815   1.255  0.7424  1.1529 -0.5105
 2528TIP3   OH229142   1.312   3.299   1.099 -0.1522  0.4367  0.6553
 2528TIP3    H129143   1.335   3.206   1.108  0.8722  0.6028 -0.2318
 2528TIP3    H229144   1.334   3.321   1.009 -0.2968  1.5780  0.8894
 2529TIP3   OH229145   5.033   1.292   0.521  0.0330  0.1965  0.0323
 2529TIP3    H129146   5.058   1.376   0.483 -0.8227  0.9397  1.0279
 2529TIP3    H229147   5.064   1.296   0.612  0.8148 -0.9641 -0.1596
 2530TIP3   OH229148   2.412   4.875   1.486 -0.0921 -0.1858 -0.1762
 2530TIP3    H129149   2.420   4.829   1.570  1.3708  1.2114  0.5001
 2530TIP3    H229150   2.320   4.865   1.462 -0.7744  0.1648  2.0650
 2531TIP3   OH229151   3.248   1.829   1.652  0.1257 -0.8166  0.0846
 2531TIP3    H129152   3.282   1.811   1.739 -2.5151  1.1052  1.6788
 2531TIP3    H229153   3.286   1.913   1.628 -1.1669 -0.0618  0.6017
 2532TIP3   OH229154   1.292   3.619   7.963  0.2189  0.0366  0.5181
 2532TIP3    H129155   1.253   3.532   7.954  1.3007 -0.2869 -1.4194
 2532TIP3    H229156   1.241   3.674   7.903 -1.1219  1.0378  2.4651
 2533TIP3   OH229157   1.337   2.976   7.185 -0.0148  0.3576 -0.4065
 2533TIP3    H129158   1.383   2.892   7.181  0.9255  0.7876  0.6878
 2533TIP3    H229159   1.260   2.964   7.130  0.3325 -1.0724 -0.6233
 2534TIP3   OH229160   1.834   6.504   0.471 -0.8096 -0.5789  0.1076
 2534TIP3    H129161   1.903   6.439   0.481  0.2111  0.3692 -0.5023
 2534TIP3    H229162   1.866   6.581   0.518  0.0057  0.9181 -2.6482
 2535TIP3   OH229163   2.611   3.351   8.095  0.3485 -0.0627  0.4485
 2535TIP3    H129164   2.641   3.284   8.156 -0.3842 -0.0248  0.8500
 2535TIP3    H229165   2.548   3.403   8.145 -0.3368 -0.0930 -0.3728
 2536TIP3   OH229166   3.213   2.136   7.420  0.2055  0.2882  0.3112
 2536TIP3    H129167   3.210   2.166   7.329 -0.9183 -0.5346  0.0556
 2536TIP3    H229168   3.127   2.160   7.456  0.0683 -0.7288  0.6957
 2537TIP3   OH229169   6.570   3.362   7.364 -0.3428  0.3029  0.1228
 2537TIP3    H129170   6.547   3.433   7.423 -2.3639  0.4526 -0.7759
 2537TIP3    H229171   6.526   3.383   7.282  2.2662  0.0274 -1.4704
 2538TIP3   OH229172   2.108   5.440   8.490 -0.3503  0.2595  0.4633
 2538TIP3    H129173   2.189   5.487   8.509  0.2099 -0.3616 -0.3106
 2538TIP3    H229174   2.042   5.508   8.480  0.3787  0.8624 -0.3402
 2539TIP3   OH229175   5.316   5.981   1.676  0.3475  0.1174 -0.2765
 2539TIP3    H129176   5.262   5.992   1.754 -1.7653  0.0732 -1.6606
 2539TIP3    H229177   5.331   5.886   1.671 -1.6975 -0.2245 -1.2232
 2540TIP3   OH229178   2.878   1.935   6.567  0.0208 -0.1671  0.1211
 2540TIP3    H129179   2.901   1.961   6.478  1.4403 -1.3636  0.0925
 2540TIP3    H229180   2.859   1.841   6.560 -1.7379  0.1002  0.7720
 2541TIP3   OH229181   5.503   3.409   1.626  0.0774  0.8490  0.1501
 2541TIP3    H129182   5.457   3.339   1.580  1.8257 -1.0132  1.0685
 2541TIP3    H229183   5.482   3.396   1.718  0.6178  1.3835  0.3618
 2542TIP3   OH229184   6.487   4.167   8.021  0.9607 -0.0617 -0.1016
 2542TIP3    H129185   6.453   4.136   7.937  1.4187 -0.5601 -0.1133
 2542TIP3    H229186   6.569   4.119   8.033  1.0542  0.2272  0.4893
 2543TIP3   OH229187   2.320   5.242   0.831  0.5701  0.3951  0.1114
 2543TIP3    H129188   2.365   5.161   0.855 -1.7892 -0.7623  1.0104
 2543TIP3    H229189   2.316   5.240   0.736  3.9716  1.5308 -0.1743
 2544TIP3   OH229190   0.473   0.777   7.488  0.1030 -0.3286 -0.2044
 2544TIP3    H129191   0.394   0.724   7.498 -0.4488  0.2195 -1.4764
 2544TIP3    H229192   0.536   0.739   7.550 -0.6029 -1.8106 -0.3722
 2545TIP3   OH229193   3.013   2.862   0.977  0.2445 -0.2604 -0.2554
 2545TIP3    H129194   3.079   2.931   0.968 -1.3307  1.3938  0.2975
 2545TIP3    H229195   3.023   2.830   1.066  1.3567 -1.2011 -0.6903
 2546TIP3   OH229196   4.114   2.387   0.871  0.4752  0.2069  0.3440
 2546TIP3    H129197   4.205   2.402   0.897  0.6861 -1.3459  0.6460
 2546TIP3    H229198   4.063   2.452   0.919  1.2285 -0.2856  1.8732
 2547TIP3   OH229199   2.347   6.506   7.808 -0.6619 -0.0898 -0.0713
 2547TIP3    H129200   2.413   6.555   7.759  0.0954  0.4318  1.4033
 2547TIP3    H229201   2.357   6.415   7.778  0.7807 -0.0317  0.1592
 2548TIP3   OH229202   4.110   6.677   0.351  0.4278  0.0465 -0.3071
 2548TIP3    H129203   4.130   6.611   0.285  0.9525  0.9204 -1.0347
 2548TIP3    H229204   4.041   6.637   0.404  0.0469 -0.6901 -1.3269
 2549TIP3   OH229205   1.367   5.287   0.168  0.4771 -0.2325 -0.7454
 2549TIP3    H129206   1.350   5.314   0.078  1.6909 -2.0805 -1.5977
 2549TIP3    H229207   1.436   5.346   0.198  0.3802  0.1125 -1.1987
 2550TIP3   OH229208   6.576   6.660   1.614 -0.3276 -0.0837  0.3184
 2550TIP3    H129209   6.537   6.745   1.637 -2.6875 -1.4338  1.6639
 2550TIP3    H229210   6.523   6.628   1.542  1.0132 -0.1509 -0.6737
 2551TIP3   OH229211   4.774   0.071   7.105 -1.4022 -0.0489  0.0901
 2551TIP3    H129212   4.686   0.041   7.125 -1.3991  0.0024  0.1786
 2551TIP3    H229213   4.781   0.062   7.010 -2.0328  1.4164 -0.1099
 2552TIP3   OH229214   5.717   4.835   8.003 -0.0632  0.8988 -0.6900
 2552TIP3    H129215   5.652   4.781   7.958  0.7359 -1.2621  0.6232
 2552TIP3    H229216   5.793   4.835   7.945  0.6095 -1.0516  0.1125
 2553TIP3   OH229217   1.001   2.461   0.820  0.0544 -0.0690  0.1215
 2553TIP3    H129218   0.998   2.503   0.734  0.0385 -0.6580 -0.1756
 2553TIP3    H229219   1.030   2.530   0.880 -1.1191  0.6803 -0.1454
 2554TIP3   OH229220   4.056   3.766   2.401  0.2590  0.0788 -0.0677
 2554TIP3    H129221   4.111   3.760   2.323  0.1141 -1.5439 -0.0799
 2554TIP3    H229222   4.022   3.856   2.400  1.9690  0.7526 -0.6779
 2555TIP3   OH229223   3.929   4.315   2.708  0.1403  0.3230  0.1065
 2555TIP3    H129224   4.025   4.324   2.715  0.0542  0.3225  2.1257
 2555TIP3    H229225   3.911   4.227   2.742 -0.5110 -0.2121 -1.5205
 2556TIP3   OH229226   2.978   4.878   2.287  0.3867 -0.5592  0.1319
 2556TIP3    H129227   2.896   4.862   2.239 -0.3537 -0.8955  1.4586
 2556TIP3    H229228   3.043   4.822   2.245 -0.6368 -2.1199  0.5478
 2557TIP3   OH229229   2.409   5.918   8.540 -0.0537 -0.3279 -0.0283
 2557TIP3    H129230   2.463   5.919   8.462 -0.5062 -0.7487 -0.3536
 2557TIP3    H229231   2.341   5.984   8.524 -0.2434 -0.5288 -0.0691
 2558TIP3   OH229232   5.668   5.335   2.071 -0.7301 -0.0259 -0.1497
 2558TIP3    H129233   5.614   5.258   2.090  0.1477 -0.4198  0.7711
 2558TIP3    H229234   5.665   5.387   2.151 -0.2265  0.2516 -0.3102
 2559TIP3   OH229235   3.835   5.926   6.974 -0.2497  0.2612 -0.5493
 2559TIP3    H129236   3.909   5.968   6.931  0.7618 -1.1421 -0.2521
 2559TIP3    H229237   3.872   5.848   7.015 -1.5213  0.5524  1.2847
 2560TIP3   OH229238   3.768   5.282   8.662  0.0212  0.0334 -0.4334
 2560TIP3    H129239   3.845   5.268   8.606 -0.1774  0.7824 -0.9111
 2560TIP3    H229240   3.693   5.271   8.603 -0.1730  1.6432 -0.5245
 2561TIP3   OH229241   3.054   5.488   0.252  0.1329  0.4269 -0.6256
 2561TIP3    H129242   2.977   5.545   0.249 -0.8617 -0.5883  2.1648
 2561TIP3    H229243   3.090   5.492   0.163 -1.0240  3.7465 -1.0881
 2562TIP3   OH229244   5.081   4.642   2.289  0.0188 -0.4561 -0.3530
 2562TIP3    H129245   5.143   4.578   2.254 -1.3914 -2.5663  0.7899
 2562TIP3    H229246   5.022   4.591   2.345 -1.4443  1.7961  0.3209
 2563TIP3   OH229247   0.452   1.542   1.056  0.0010  0.0283  0.1566
 2563TIP3    H129248   0.375   1.499   1.019  1.6753 -2.8151 -0.3813
 2563TIP3    H229249   0.482   1.601   0.988 -0.4563 -0.5207 -0.5356
 2564TIP3   OH229250   4.122   2.961   0.254  0.2817 -0.4549  0.1559
 2564TIP3    H129251   4.161   3.042   0.287 -0.5486 -0.9936  2.6223
 2564TIP3    H229252   4.030   2.981   0.241  0.2380 -0.7676 -0.0412
 2565TIP3   OH229253   5.990   1.318   8.579  0.5910  0.0711 -0.3074
 2565TIP3    H129254   6.069   1.313   8.526  0.4140 -1.3554 -0.4667
 2565TIP3    H229255   5.918   1.304   8.517  0.1251  1.9370 -0.2773
 2566TIP3   OH229256   6.494   3.581   7.504 -0.8910 -0.2509  0.5735
 2566TIP3    H129257   6.414   3.631   7.488 -0.3833  0.5501  0.4758
 2566TIP3    H229258   6.486   3.550   7.594 -1.9988 -1.4740  0.0801
 2567TIP3   OH229259   4.254   6.154   0.623  0.1379  0.0906  0.0328
 2567TIP3    H129260   4.197   6.186   0.552 -0.1671  0.6149  0.5090
 2567TIP3    H229261   4.198   6.095   0.673  0.5350 -0.7709 -0.5086
 2568TIP3   OH229262   0.081   1.813   8.437  0.3712 -0.1244 -0.3620
 2568TIP3    H129263   0.051   1.902   8.457 -0.5596 -0.4283 -0.3719
 2568TIP3    H229264   0.053   1.761   8.512  2.5492 -0.0893  0.5331
 2569TIP3   OH229265   2.202   1.758   2.457  0.1057  0.1643 -0.5201
 2569TIP3    H129266   2.262   1.789   2.390  0.9833  0.5225  0.4145
 2569TIP3    H229267   2.115   1.784   2.425  0.3978 -0.4719 -1.9444
 2570TIP3   OH229268   1.189   4.909   1.072 -0.7288  0.0661  0.0939
 2570TIP3    H129269   1.098   4.915   1.042 -0.9153  0.7882  0.7562
 2570TIP3    H229270   1.187   4.945   1.160  0.4825  1.6906 -0.4798
 2571TIP3   OH229271   2.508   3.936   0.553 -0.5147  0.3233  0.9259
 2571TIP3    H129272   2.549   4.010   0.507 -1.0955  0.6104  0.8572
 2571TIP3    H229273   2.417   3.964   0.565 -0.6181 -0.1884  1.3231
 2572TIP3   OH229274   5.731   1.978   2.516  0.1131  0.6550  0.2529
 2572TIP3    H129275   5.791   2.041   2.556 -0.2490  1.1663  0.0046
 2572TIP3    H229276   5.644   2.018   2.527  0.1231  1.6295 -2.4938
 2573TIP3   OH229277   5.607   0.137   6.944 -0.6850  0.2924  0.2415
 2573TIP3    H129278   5.521   0.155   6.905  0.6310  1.3883 -2.3608
 2573TIP3    H229279   5.640   0.224   6.968  0.6683  0.1771 -1.0624
 2574TIP3   OH229280   2.494   3.280   1.132  0.0147  0.1214  0.0150
 2574TIP3    H129281   2.448   3.362   1.116 -0.2706  0.1936  1.1164
 2574TIP3    H229282   2.587   3.301   1.119  0.0303  0.8690  1.1404
 2575TIP3   OH229283   4.855   1.432   2.518  0.8988  0.5120  0.4084
 2575TIP3    H129284   4.851   1.338   2.535 -0.3499 -0.0926 -2.6105
 2575TIP3    H229285   4.787   1.469   2.574 -1.8117 -1.0703 -1.6130
 2576TIP3   OH229286   5.622   4.502   2.215  0.1559  0.2031  0.1498
 2576TIP3    H129287   5.570   4.570   2.257 -0.1673  0.5747 -0.8191
 2576TIP3    H229288   5.666   4.457   2.287 -0.6848  0.5646  0.9042
 2577TIP3   OH229289   3.861   3.076   0.231 -0.8955 -0.1950  0.4733
 2577TIP3    H129290   3.916   3.121   0.296  0.7018 -2.0721  0.5198
 2577TIP3    H229291   3.793   3.139   0.210  1.3205  2.3396  0.3464
 2578TIP3   OH229292   0.740   3.304   8.065  0.0754 -0.3205 -0.0314
 2578TIP3    H129293   0.746   3.385   8.116 -0.6304 -0.3503  0.1077
 2578TIP3    H229294   0.687   3.329   7.988 -0.9062 -0.8508  0.4488
 2579TIP3   OH229295   2.508   1.759   0.151  0.4322  0.0990 -0.1327
 2579TIP3    H129296   2.568   1.757   0.226  0.8362 -0.9433 -0.4652
 2579TIP3    H229297   2.549   1.820   0.090  0.3866  0.5294  0.2630
 2580TIP3   OH229298   3.527   2.713   8.361 -0.0634 -0.1370 -0.3004
 2580TIP3    H129299   3.432   2.717   8.355 -0.3479 -0.8796  2.3772
 2580TIP3    H229300   3.551   2.635   8.311 -0.4100  1.8043 -3.7807
 2581TIP3   OH229301   1.075   6.483   0.836  0.6644  0.2746  0.0734
 2581TIP3    H129302   1.138   6.418   0.866  0.3369  0.5882  1.5497
 2581TIP3    H229303   1.032   6.513   0.916 -0.6874  0.7640 -0.7980
 2582TIP3   OH229304   5.515   5.150   1.650 -0.1394  0.6918  0.3922
 2582TIP3    H129305   5.511   5.066   1.605 -1.2479  0.1606  1.4350
 2582TIP3    H229306   5.594   5.144   1.705  0.7947  1.0594 -0.8532
 2583TIP3   OH229307   3.231   4.626   0.257  0.6583 -0.3557  0.3778
 2583TIP3    H129308   3.244   4.532   0.271  2.2720 -0.2220  0.0096
 2583TIP3    H229309   3.202   4.633   0.166  1.1374 -0.4667  0.2127
 2584TIP3   OH229310   2.966   0.864   8.358 -0.0115 -0.3855  0.4418
 2584TIP3    H129311   2.996   0.880   8.269 -0.0397 -0.5082  0.4092
 2584TIP3    H229312   3.023   0.794   8.390  1.4234  1.0882  1.2719
 2585TIP3   OH229313   4.984   5.621   7.469 -0.2651 -0.1090  0.2542
 2585TIP3    H129314   5.056   5.637   7.408  0.7467 -0.5579  1.2887
 2585TIP3    H229315   4.906   5.615   7.414  0.9199 -2.9476 -1.3365
 2586TIP3   OH229316   0.589   1.471   1.914  0.5337  0.0024  0.5977
 2586TIP3    H129317   0.597   1.397   1.974  0.8917  0.3894  1.0302
 2586TIP3    H229318   0.639   1.541   1.956  0.9435  0.2194 -0.2464
 2587TIP3   OH229319   3.172   5.097   0.330 -0.1529  0.3390  0.0768
 2587TIP3    H129320   3.230   5.080   0.255 -0.5602  0.2059 -0.2111
 2587TIP3    H229321   3.195   5.029   0.394  0.2466  0.4965  0.1053
 2588TIP3   OH229322   1.559   1.050   2.365  0.6099 -0.4429 -0.1596
 2588TIP3    H129323   1.480   1.003   2.391 -0.4634  1.1457 -0.3760
 2588TIP3    H229324   1.608   1.061   2.447 -1.1840  1.6961  0.7543
 2589TIP3   OH229325   3.792   2.573   1.596 -0.5243 -0.7327 -0.3393
 2589TIP3    H129326   3.833   2.659   1.584 -0.5048 -0.6494  0.3096
 2589TIP3    H229327   3.782   2.539   1.507 -0.6028 -0.0246 -0.6086
 2590TIP3   OH229328   1.341   1.363   8.623 -0.6868 -0.1050  0.7746
 2590TIP3    H129329   1.288   1.374   8.702 -2.3825  2.0019 -0.5518
 2590TIP3    H229330   1.361   1.453   8.595 -2.6192 -0.5969 -2.7294
 2591TIP3   OH229331   5.064   0.218   7.348 -0.0813 -0.1021  0.1571
 2591TIP3    H129332   5.068   0.184   7.259 -0.2558 -0.1670  0.1753
 2591TIP3    H229333   5.094   0.309   7.340 -2.1296  0.5820 -0.3118
 2592TIP3   OH229334   3.381   4.633   7.792 -0.0059  0.3084  0.6040
 2592TIP3    H129335   3.422   4.616   7.708 -0.2687  2.0281  0.0778
 2592TIP3    H229336   3.344   4.721   7.783 -1.5680 -0.1539  1.9236
 2593TIP3   OH229337   1.414   6.651   7.542  0.5985  0.3931  0.6647
 2593TIP3    H129338   1.384   6.605   7.620 -2.0277  0.8965  0.0516
 2593TIP3    H229339   1.365   6.734   7.543  1.7708  1.1531 -0.6465
 2594TIP3   OH229340   2.997   5.754   0.944  0.0483 -0.0514  0.3568
 2594TIP3    H129341   3.032   5.816   1.007 -2.5778  1.1608  0.7508
 2594TIP3    H229342   2.929   5.802   0.897  0.7685 -1.4097 -2.2930
 2595TIP3   OH229343   6.396   0.766   8.361 -0.0948 -0.1666 -0.0336
 2595TIP3    H129344   6.406   0.710   8.284 -0.7308  0.7361 -0.7966
 2595TIP3    H229345   6.304   0.755   8.387  0.9706 -3.7773  3.2779
 2596TIP3   OH229346   1.706   4.027   2.606 -0.1301  0.3098 -0.0915
 2596TIP3    H129347   1.758   3.984   2.674  1.4949  0.1573 -1.3622
 2596TIP3    H229348   1.682   4.111   2.645 -0.6000 -0.4065  1.2413
 2597TIP3   OH229349   3.368   5.857   7.854 -0.1162 -0.2424  0.2158
 2597TIP3    H129350   3.462   5.851   7.834 -0.1953 -1.4105  0.1687
 2597TIP3    H229351   3.340   5.937   7.809  0.3011 -1.2756 -1.9933
 2598TIP3   OH229352   6.583   6.238   0.274 -0.2348 -0.2995 -0.4594
 2598TIP3    H129353   6.562   6.160   0.222  1.1167 -1.2184  0.3148
 2598TIP3    H229354   6.643   6.288   0.220 -2.2081  1.0198 -1.5792
 2599TIP3   OH229355   2.026   0.192   6.970 -0.7090  0.1512 -0.2112
 2599TIP3    H129356   1.963   0.129   6.935 -0.4447  0.4999 -1.3629
 2599TIP3    H229357   2.108   0.170   6.926  0.5742 -1.6418  2.7667
 2600TIP3   OH229358   2.364   3.946   1.323  0.0497 -0.2963 -0.1136
 2600TIP3    H129359   2.330   4.033   1.344  3.8577  1.3205  0.2572
 2600TIP3    H229360   2.343   3.893   1.400 -0.3865  0.9396  0.6474
 2601TIP3   OH229361   4.323   6.474   2.156  0.0716 -0.7864  0.2714
 2601TIP3    H129362   4.379   6.515   2.090 -0.8858 -0.6907 -0.4941
 2601TIP3    H229363   4.332   6.530   2.233 -0.1795  0.1080 -0.3344
 2602TIP3   OH229364   2.540   6.678   1.889 -0.5636  0.1237 -0.0886
 2602TIP3    H129365   2.473   6.740   1.919 -1.4561 -1.4628  1.3478
 2602TIP3    H229366   2.490   6.606   1.850  0.4447  0.1257 -1.4634
 2603TIP3   OH229367   4.159   5.857   2.503  0.0777  0.7136  0.4607
 2603TIP3    H129368   4.248   5.851   2.540  1.6299  2.3606 -2.6299
 2603TIP3    H229369   4.147   5.950   2.483 -1.1553  0.1585 -1.7551
 2604TIP3   OH229370   4.137   0.491   1.177  0.8653 -0.2109  0.0557
 2604TIP3    H129371   4.124   0.487   1.083  0.4926 -0.8587  0.1250
 2604TIP3    H229372   4.208   0.429   1.195  1.7920  0.8341  0.0658
 2605TIP3   OH229373   2.710   4.759   2.766 -0.1773  0.3240  0.2648
 2605TIP3    H129374   2.662   4.842   2.768  0.1503  0.5227 -0.0307
 2605TIP3    H229375   2.748   4.755   2.679 -0.7525 -0.4693  0.0381
 2606TIP3   OH229376   1.703   6.397   1.577 -0.1182  0.0395 -0.3985
 2606TIP3    H129377   1.615   6.397   1.612  0.0991  1.3682  0.1797
 2606TIP3    H229378   1.703   6.325   1.513 -1.4242 -0.3589  0.0220
 2607TIP3   OH229379   4.584   6.510   0.371 -0.1583  0.1833  0.5906
 2607TIP3    H129380   4.545   6.449   0.308 -0.2967  0.6780  0.1984
 2607TIP3    H229381   4.592   6.592   0.324 -2.5392  1.2728  1.9403
 2608TIP3   OH229382   3.922   0.834   0.178 -0.2068 -0.0291  0.7851
 2608TIP3    H129383   3.886   0.922   0.165  0.4473  0.2688  0.9173
 2608TIP3    H229384   4.013   0.850   0.205  0.9517 -0.7498 -2.2414
 2609TIP3   OH229385   0.535   1.689   7.816  0.2309  0.0908 -0.1360
 2609TIP3    H129386   0.615   1.639   7.830  0.8226  0.5457 -1.6876
 2609TIP3    H229387   0.547   1.729   7.730 -1.6463  0.2168 -0.3683
 2610TIP3   OH229388   1.741   4.248   8.677  0.1856  0.4362 -0.0637
 2610TIP3    H129389   1.779   4.315   8.733 -0.0781  0.5335 -0.0004
 2610TIP3    H229390   1.788   4.256   8.594  0.2347  0.6188 -0.0179
 2611TIP3   OH229391   0.103   5.347   1.619  0.2727 -0.1617  0.3354
 2611TIP3    H129392   0.069   5.436   1.609  0.8611 -0.0457 -0.7470
 2611TIP3    H229393   0.177   5.356   1.679  0.2626  0.0656  0.3138
 2612TIP3   OH229394   0.968   6.598   1.068 -0.3980 -0.1542  0.0284
 2612TIP3    H129395   1.026   6.543   1.120  0.3681  1.9593  1.5705
 2612TIP3    H229396   0.885   6.597   1.115  0.4392  2.1570  1.7235
 2613TIP3   OH229397   4.992   0.506   1.594  0.0632  0.3055 -0.1319
 2613TIP3    H129398   5.026   0.572   1.534  0.1188 -1.1675 -1.7835
 2613TIP3    H229399   5.068   0.478   1.645  0.7468 -0.7162 -1.6336
 2614TIP3   OH229400   4.512   1.939   6.811 -0.5294 -0.0961 -0.1704
 2614TIP3    H129401   4.429   1.974   6.780 -0.3039  0.7863  0.1966
 2614TIP3    H229402   4.487   1.878   6.881 -0.8355  1.0348  0.7462
 2615TIP3   OH229403   4.247   2.235   0.371 -0.2928 -0.3656 -0.1152
 2615TIP3    H129404   4.284   2.266   0.454  0.2411 -1.0257 -0.0978
 2615TIP3    H229405   4.275   2.300   0.306 -1.8620  0.8939  0.4282
 2616TIP3   OH229406   2.571   6.242   8.399  0.0204 -0.5456  0.0025
 2616TIP3    H129407   2.624   6.194   8.462  2.6603  0.4813 -1.2836
 2616TIP3    H229408   2.632   6.304   8.359 -2.1996  0.7442 -1.5848
 2617TIP3   OH229409   4.475   2.299   3.473 -0.2775  0.2411 -0.1420
 2617TIP3    H129410   4.507   2.220   3.428 -0.3527 -0.0356  0.2829
 2617TIP3    H229411   4.550   2.358   3.473  0.4255 -0.5748  1.2431
 2618TIP3   OH229412   0.663   4.664   0.388  1.0188  0.1067  0.0782
 2618TIP3    H129413   0.717   4.730   0.344  1.8012  0.0093  0.8741
 2618TIP3    H229414   0.618   4.712   0.457 -0.7271  0.3977 -1.1871
 2619TIP3   OH229415   3.931   3.637   7.467 -0.3523 -0.4416  0.1374
 2619TIP3    H129416   3.849   3.617   7.511 -0.9475  1.5582  0.0303
 2619TIP3    H229417   3.947   3.563   7.409 -3.5620  0.3111 -1.9690
 2620TIP3   OH229418   0.654   3.547   8.214 -0.4229  0.2897 -0.4679
 2620TIP3    H129419   0.671   3.489   8.288  0.7115  1.3644  0.1457
 2620TIP3    H229420   0.563   3.574   8.225 -1.8895 -3.2448 -2.1544
 2621TIP3   OH229421   0.241   0.821   2.478  0.2397 -0.3962  0.1502
 2621TIP3    H129422   0.257   0.797   2.570  1.9061 -0.0195 -0.0039
 2621TIP3    H229423   0.155   0.862   2.478 -0.6903 -2.2301  1.1904
 2622TIP3   OH229424   1.336   6.464   7.725 -0.2893  0.2492  0.0563
 2622TIP3    H129425   1.343   6.368   7.729 -2.0422  0.1085  0.5261
 2622TIP3    H229426   1.334   6.491   7.816  1.3827  0.8913 -0.0520
 2623TIP3   OH229427   3.467   0.012   0.416  0.1137  0.0685  0.3909
 2623TIP3    H129428   3.382   0.015   0.372  0.0029  0.4225  0.6225
 2623TIP3    H229429   3.446   0.020   0.509  0.4779  1.8480  0.3699
 2624TIP3   OH229430   1.472   0.197   8.005 -0.1779 -0.4906 -0.3460
 2624TIP3    H129431   1.427   0.115   8.028 -0.9558 -0.1473 -0.6232
 2624TIP3    H229432   1.540   0.206   8.072 -1.2351 -0.4554  0.7712
 2625TIP3   OH229433   0.289   4.260   8.737 -0.8928 -0.1506  0.5243
 2625TIP3    H129434   0.337   4.343   8.741  0.6066 -0.9008 -0.9746
 2625TIP3    H229435   0.206   4.279   8.781 -0.6128  2.1465  0.1843
 2626TIP3   OH229436   2.872   0.852   1.013  0.0588 -0.7136 -0.3188
 2626TIP3    H129437   2.877   0.806   0.929 -0.7461 -0.6894 -0.3905
 2626TIP3    H229438   2.960   0.887   1.027  0.2206 -0.7807 -1.1188
 2627TIP3   OH229439   3.614   3.313   8.492  0.7349  0.7444  0.2973
 2627TIP3    H129440   3.541   3.275   8.540  0.0902  0.8088 -0.5982
 2627TIP3    H229441   3.690   3.263   8.520  0.0093 -0.8037 -0.3614
 2628TIP3   OH229442   3.583   1.745   0.079 -0.3026  0.4830  0.6628
 2628TIP3    H129443   3.563   1.655   0.053 -0.9161  0.6332  0.5804
 2628TIP3    H229444   3.553   1.798   0.004  0.7512  0.7042  0.3835
 2629TIP3   OH229445   6.802   3.935   1.504 -0.2691  0.0157 -0.0460
 2629TIP3    H129446   6.887   3.936   1.547 -0.7731 -2.3061  1.2006
 2629TIP3    H229447   6.756   4.011   1.539  0.4929 -0.0081  1.0357
 2630TIP3   OH229448   0.304   2.869   8.489 -0.2998 -0.3183  0.4600
 2630TIP3    H129449   0.241   2.940   8.503 -0.9433 -0.9725  0.9051
 2630TIP3    H229450   0.365   2.905   8.425 -0.0868  0.9713  1.3434
 2631TIP3   OH229451   1.250   6.170   1.553  0.0283  0.1812  0.0235
 2631TIP3    H129452   1.191   6.245   1.555 -2.3145 -1.5332 -0.4027
 2631TIP3    H229453   1.259   6.149   1.460  1.1712  0.2851  0.0964
 2632TIP3   OH229454   4.927   0.426   8.405 -0.0988  0.0936 -0.4712
 2632TIP3    H129455   4.838   0.398   8.384  0.0250 -0.5087 -0.2369
 2632TIP3    H229456   4.924   0.448   8.498 -0.1285  0.6051 -0.5905
 2633TIP3   OH229457   5.449   1.467   1.003  0.2171  0.5718  0.5344
 2633TIP3    H129458   5.474   1.411   1.076  0.3000  0.2490  0.2617
 2633TIP3    H229459   5.377   1.520   1.036  0.7772  0.9910  1.1004
 2634TIP3   OH229460   0.920   1.262   7.904 -0.5445  0.0245 -0.3452
 2634TIP3    H129461   0.942   1.170   7.919 -3.2540 -0.7556 -0.6692
 2634TIP3    H229462   0.971   1.286   7.826  0.2505 -1.1558 -0.2162
 2635TIP3   OH229463   2.498   6.001   0.615  0.6142 -0.5445 -0.4566
 2635TIP3    H129464   2.582   5.975   0.578  0.7845  1.2791 -1.4121
 2635TIP3    H229465   2.520   6.040   0.700  0.7588  0.1029 -0.7891
 2636TIP3   OH229466   1.982   4.882   8.451  0.2221  0.0199  0.4076
 2636TIP3    H129467   2.009   4.963   8.407  0.7337 -0.2535  0.2061
 2636TIP3    H229468   2.059   4.825   8.446 -0.7487 -1.2471 -1.2581
 2637TIP3   OH229469   5.811   5.851   0.274 -0.5401  0.4288 -0.0758
 2637TIP3    H129470   5.801   5.760   0.299 -0.9238  1.2107  3.1067
 2637TIP3    H229471   5.779   5.900   0.350  0.0610  3.2089 -1.4874
 2638TIP3   OH229472   4.284   5.617   7.787 -0.5428  0.2574  0.4874
 2638TIP3    H129473   4.265   5.652   7.875 -1.8739  2.1516 -0.4645
 2638TIP3    H229474   4.262   5.689   7.728  0.1427 -1.0328 -1.4321
 2639TIP3   OH229475   2.651   4.262   3.366 -0.3520  0.3172  0.4592
 2639TIP3    H129476   2.649   4.358   3.358  0.6948  0.3500  0.4530
 2639TIP3    H229477   2.581   4.232   3.309 -0.1293  1.0455 -0.2129
 2640TIP3   OH229478   0.456   0.594   1.413 -0.1568 -0.3412 -0.3570
 2640TIP3    H129479   0.423   0.507   1.391  0.8259 -1.1785  1.3070
 2640TIP3    H229480   0.436   0.605   1.506  3.6265 -0.7339  0.7026
 2641TIP3   OH229481   0.392   5.817   8.021  0.4501 -0.5298  0.8886
 2641TIP3    H129482   0.455   5.869   7.971  0.3685 -1.5184 -0.2735
 2641TIP3    H229483   0.323   5.879   8.045  0.5654 -0.0016 -0.1090
 2642TIP3   OH229484   2.843   5.985   7.981  0.1204 -0.0566  0.2667
 2642TIP3    H129485   2.892   6.013   8.058  3.0196 -3.5329 -0.0731
 2642TIP3    H229486   2.909   5.977   7.911 -1.9561  0.4263 -1.9010
 2643TIP3   OH229487   0.788   2.249   2.599 -0.2432 -0.3553  0.4361
 2643TIP3    H129488   0.767   2.239   2.692 -1.0922  1.3775  0.4745
 2643TIP3    H229489   0.790   2.344   2.585  1.1960 -0.5633 -1.0421
 2644TIP3   OH229490   1.935   0.332   1.039 -0.5540  0.1405 -0.7497
 2644TIP3    H129491   1.953   0.365   1.127  1.2860  0.4210 -1.2014
 2644TIP3    H229492   1.855   0.378   1.013  0.2771  1.9954 -0.1857
 2645TIP3   OH229493   4.399   6.415   1.641 -0.0410 -0.1210  0.0993
 2645TIP3    H129494   4.363   6.498   1.609 -0.9083 -0.4523  0.1860
 2645TIP3    H229495   4.449   6.381   1.567 -0.5470 -0.0208 -0.2896
 2646TIP3   OH229496   3.932   3.246   7.711 -0.4378  0.2800 -0.4328
 2646TIP3    H129497   3.872   3.232   7.784 -0.8317  1.2393 -0.5559
 2646TIP3    H229498   3.894   3.320   7.663  0.0126 -0.1058 -1.3967
 2647TIP3   OH229499   2.891   4.769   1.201 -0.9088  0.4845 -0.4565
 2647TIP3    H129500   2.962   4.828   1.174 -1.3329  1.8713  1.2805
 2647TIP3    H229501   2.840   4.821   1.263 -1.4140 -1.6798  1.0272
 2648TIP3   OH229502   3.674   2.631   8.632 -0.1002  0.1135  0.2843
 2648TIP3    H129503   3.633   2.683   8.563 -1.5896 -1.5572 -0.1515
 2648TIP3    H229504   3.767   2.655   8.628 -0.3312  0.8319 -1.5995
 2649TIP3   OH229505   2.467   1.275   1.961  0.2328 -0.0855 -0.3073
 2649TIP3    H129506   2.459   1.328   1.882 -0.2458 -0.5407 -0.5693
 2649TIP3    H229507   2.379   1.273   1.998 -0.2353 -2.3151 -1.3621
 2650TIP3   OH229508   0.767   5.715   2.278  0.1086 -0.0487  0.7886
 2650TIP3    H129509   0.822   5.740   2.203 -0.8796  0.5609  0.2528
 2650TIP3    H229510   0.814   5.750   2.354  1.7727 -1.7450  0.6225
 2651TIP3   OH229511   4.683   4.795   1.390 -0.2005 -0.5129  0.2452
 2651TIP3    H129512   4.696   4.875   1.441 -0.1687 -0.4625  0.1585
 2651TIP3    H229513   4.740   4.806   1.314 -0.5157 -0.4251  0.0160
 2652TIP3   OH229514   3.217   2.296   0.036  0.1661 -0.6922 -0.2075
 2652TIP3    H129515   3.130   2.334   0.031 -0.0946 -1.3658 -0.9103
 2652TIP3    H229516   3.249   2.321   0.124 -0.4754  0.0691 -0.1777
 2653TIP3   OH229517   2.457   2.172   1.409 -0.6387  0.0525  0.0850
 2653TIP3    H129518   2.431   2.128   1.489  0.8663  1.4672  1.4312
 2653TIP3    H229519   2.553   2.165   1.408 -0.4852  1.7370 -0.5482
 2654TIP3   OH229520   6.256   5.048   8.695  0.1909  0.3894 -0.7651
 2654TIP3    H129521   6.341   5.031   8.654  1.2298  0.2883  1.2987
 2654TIP3    H229522   6.204   4.970   8.675  0.9827 -0.0703 -1.0779
 2655TIP3   OH229523   6.300   4.476   0.668  0.4223  0.1626 -0.3082
 2655TIP3    H129524   6.295   4.524   0.751  0.7152 -0.4036  0.0455
 2655TIP3    H229525   6.391   4.485   0.640  0.0012  1.5310 -1.2968
 2656TIP3   OH229526   5.928   5.865   2.360  0.0577  0.8027  0.0693
 2656TIP3    H129527   5.969   5.944   2.396 -0.9741  2.0900 -1.4120
 2656TIP3    H229528   5.834   5.882   2.366 -0.2527 -1.0988  1.3058
 2657TIP3   OH229529   2.140   5.711   0.344  0.1265  0.1462 -0.1000
 2657TIP3    H129530   2.154   5.771   0.418 -1.1867  2.0225 -1.2700
 2657TIP3    H229531   2.046   5.718   0.325  0.3170 -0.7603 -1.5623
 2658TIP3   OH229532   3.305   4.464   0.517 -0.0697 -0.0923  0.6110
 2658TIP3    H129533   3.297   4.390   0.457 -0.3060  0.0852  0.4213
 2658TIP3    H229534   3.393   4.499   0.502  0.4659 -1.0175  1.4981
 2659TIP3   OH229535   5.287   6.438   8.101 -0.1982 -0.3549  0.5026
 2659TIP3    H129536   5.334   6.361   8.135 -1.5222 -1.7368 -0.7049
 2659TIP3    H229537   5.216   6.402   8.049 -0.2510  1.7078 -0.9580
 2660TIP3   OH229538   2.437   4.379   7.669 -0.2065  0.1245  0.2132
 2660TIP3    H129539   2.361   4.326   7.644  0.6479 -0.3489 -1.4715
 2660TIP3    H229540   2.406   4.469   7.664 -0.5732 -0.0500 -0.8132
 2661TIP3   OH229541   4.410   1.770   7.003 -0.0060 -0.3715  0.7970
 2661TIP3    H129542   4.486   1.771   7.062  0.7871 -1.7329 -0.1325
 2661TIP3    H229543   4.337   1.742   7.059  0.4116 -0.1676  1.4574
 2662TIP3   OH229544   0.495   3.219   7.372 -0.2211  0.3207  0.0847
 2662TIP3    H129545   0.527   3.270   7.297  0.8050  1.0393  0.9666
 2662TIP3    H229546   0.402   3.240   7.378 -0.1852  0.7081 -0.6458
 2663TIP3   OH229547   6.818   4.977   1.064  0.3887  0.0721  0.1199
 2663TIP3    H129548   6.842   5.024   0.985 -0.0932 -2.3290 -1.5771
 2663TIP3    H229549   6.728   5.006   1.082  0.9825  1.6690  0.6588
 2664TIP3   OH229550   4.208   3.192   2.855 -0.1201 -0.0665 -0.3872
 2664TIP3    H129551   4.176   3.149   2.776 -2.1881 -1.6356  1.1948
 2664TIP3    H229552   4.129   3.209   2.907  1.1250  1.2935  1.1746
 2665TIP3   OH229553   2.348   5.191   2.788  0.0430  0.7633 -0.1645
 2665TIP3    H129554   2.276   5.213   2.846 -0.6852  1.5564 -1.3186
 2665TIP3    H229555   2.364   5.271   2.738  2.1972  0.8294  0.5242
 2666TIP3   OH229556   6.574   2.918   7.942 -0.0220  0.0176  0.4751
 2666TIP3    H129557   6.652   2.952   7.898  1.1080 -2.6996  0.2179
 2666TIP3    H229558   6.606   2.886   8.026 -1.5218  1.8300  1.8177
 2667TIP3   OH229559   4.072   6.053   0.812  0.8029 -0.3776 -0.2007
 2667TIP3    H129560   4.026   6.134   0.836  1.9372 -0.3058  1.9330
 2667TIP3    H229561   4.039   5.988   0.874  0.1318 -1.5347 -1.6989
 2668TIP3   OH229562   0.083   1.757   1.372  0.0353  0.6204 -0.4531
 2668TIP3    H129563   0.003   1.726   1.328 -1.7429 -0.2297  3.0363
 2668TIP3    H229564   0.062   1.847   1.398  1.4621  1.4827 -2.0466
 2669TIP3   OH229565   0.541   2.748   7.843 -0.2083  0.9346 -0.3109
 2669TIP3    H129566   0.593   2.823   7.871 -0.7989  1.3297 -0.2730
 2669TIP3    H229567   0.526   2.762   7.750 -0.6775  1.0828 -0.2150
 2670TIP3   OH229568   5.669   3.480   0.856  0.6608 -0.2218  0.0180
 2670TIP3    H129569   5.671   3.530   0.774 -0.4289 -0.5557 -0.2312
 2670TIP3    H229570   5.655   3.545   0.924 -2.3936 -0.2658 -0.4529
 2671TIP3   OH229571   1.159   5.136   1.375 -0.4053  0.2005  0.0934
 2671TIP3    H129572   1.234   5.192   1.398  1.0902 -0.8227 -2.0403
 2671TIP3    H229573   1.196   5.049   1.367 -2.1167 -0.5776  0.2658
 2672TIP3   OH229574   5.081   6.282   8.423 -0.3667  0.4780  0.3873
 2672TIP3    H129575   5.108   6.231   8.500 -2.4162  0.3554  1.1091
 2672TIP3    H229576   5.004   6.331   8.453 -1.0412  0.6701 -1.5137
 2673TIP3   OH229577   2.556   5.609   7.706 -0.3027  0.4430  0.4196
 2673TIP3    H129578   2.595   5.599   7.792 -0.8805  1.0063  0.7545
 2673TIP3    H229579   2.620   5.661   7.657  0.0472  0.0836  0.4817
 2674TIP3   OH229580   5.890   5.237   7.545  0.2118  0.2192  0.4048
 2674TIP3    H129581   5.839   5.313   7.515  0.8364  0.2446 -0.6258
 2674TIP3    H229582   5.979   5.254   7.515  0.0251 -1.7994 -1.6091
 2675TIP3   OH229583   5.410   0.884   6.998  0.1344 -0.3182  0.0514
 2675TIP3    H129584   5.462   0.887   6.917 -0.5158  0.9260 -0.3524
 2675TIP3    H229585   5.347   0.814   6.983 -1.6959  1.5582 -1.6645
 2676TIP3   OH229586   2.461   0.702   2.407 -0.3574 -0.2134 -0.3315
 2676TIP3    H129587   2.441   0.613   2.436  2.8251 -1.0008 -0.1916
 2676TIP3    H229588   2.392   0.756   2.446 -0.8447 -2.2816  1.8923
 2677TIP3   OH229589   6.730   1.018   2.515  0.0667 -0.3468 -0.1797
 2677TIP3    H129590   6.660   1.005   2.579  0.0419  1.8935  0.3330
 2677TIP3    H229591   6.731   1.113   2.499  3.3145 -0.1892  0.2406
 2678TIP3   OH229592   3.700   3.652   1.682 -0.1856  0.0034 -0.1419
 2678TIP3    H129593   3.725   3.633   1.773 -0.7397  2.7734  0.7019
 2678TIP3    H229594   3.607   3.627   1.678  0.0479 -0.8740 -0.2027
 2679TIP3   OH229595   2.435   5.797   1.026 -0.0669 -0.4432  0.0719
 2679TIP3    H129596   2.411   5.889   1.018 -2.1206 -0.9219  0.1661
 2679TIP3    H229597   2.518   5.798   1.073  0.8736  1.4133 -1.4637
 2680TIP3   OH229598   2.903   2.584   7.769  0.3799  0.0199 -0.0802
 2680TIP3    H129599   2.878   2.556   7.681  3.0675  0.9671 -1.2234
 2680TIP3    H229600   2.933   2.674   7.758 -1.5636  1.0708  2.2965
 2681TIP3   OH229601   0.906   3.169   7.912 -0.5058  0.4041 -0.5740
 2681TIP3    H129602   0.842   3.183   7.982 -0.2698 -2.3336  0.3073
 2681TIP3    H229603   0.937   3.257   7.890 -1.0148  1.4400  2.3635
 2682TIP3   OH229604   0.801   2.647   1.255  0.4541  0.1535 -0.5440
 2682TIP3    H129605   0.719   2.599   1.265  1.2586 -1.2599 -0.4248
 2682TIP3    H229606   0.842   2.643   1.342  1.6263 -1.0592 -1.1228
 2683TIP3   OH229607   4.129   4.033   0.057 -0.5990  0.1385  0.4841
 2683TIP3    H129608   4.193   3.992   0.115 -1.7965 -0.9982  1.0744
 2683TIP3    H229609   4.066   4.073   0.117 -2.6017 -2.2038  0.1091
 2684TIP3   OH229610   6.022   3.348   0.504  0.2998 -0.5221  0.3591
 2684TIP3    H129611   5.933   3.335   0.471  0.8961 -1.0606 -1.1469
 2684TIP3    H229612   6.018   3.323   0.596 -0.5415 -3.1640 -0.3163
 2685TIP3   OH229613   3.693   4.680   0.290 -0.1176  0.0696 -0.0526
 2685TIP3    H129614   3.632   4.694   0.218  0.6474  1.8418 -0.4372
 2685TIP3    H229615   3.761   4.624   0.253 -0.8903 -0.9238  0.0121
 2686TIP3   OH229616   5.586   0.011   0.980 -0.0741  0.2292  0.1457
 2686TIP3    H129617   5.589   0.105   0.964  0.4432  0.0941 -0.5791
 2686TIP3    H229618   5.586  -0.029   0.893  0.0559 -0.4522  0.4462
 2687TIP3   OH229619   3.580   0.039   2.771  0.4288  0.3460  0.2106
 2687TIP3    H129620   3.605   0.093   2.845 -0.4196  1.1785 -0.0918
 2687TIP3    H229621   3.538   0.100   2.710 -0.9734 -0.7275  0.0626
 2688TIP3   OH229622   0.613   3.983   0.993 -0.4889  0.3376  0.2209
 2688TIP3    H129623   0.695   3.936   1.008 -0.7646 -0.5729 -0.9830
 2688TIP3    H229624   0.574   3.991   1.080  0.9235  0.9080  0.8317
 2689TIP3   OH229625   3.454   4.728   8.620  0.1255 -0.1897  0.0132
 2689TIP3    H129626   3.390   4.799   8.622 -1.1835 -1.3199  1.7742
 2689TIP3    H229627   3.427   4.673   8.547  1.9751  1.7048 -2.2885
 2690TIP3   OH229628   6.007   3.257   7.615 -0.3194  0.1654 -0.7688
 2690TIP3    H129629   5.935   3.319   7.627 -0.3948 -0.0716  0.0317
 2690TIP3    H229630   5.998   3.195   7.687 -0.3093 -0.8536 -1.6144
 2691TIP3   OH229631   5.099   4.339   1.513 -0.1335 -0.0928  0.0232
 2691TIP3    H129632   5.159   4.271   1.544 -0.0165  0.3126  0.7223
 2691TIP3    H229633   5.141   4.375   1.435 -0.7462 -1.5785 -1.0345
 2692TIP3   OH229634   4.338   5.477   2.840  0.2618  0.1970 -0.1744
 2692TIP3    H129635   4.418   5.495   2.891  1.4945  0.6379 -2.1454
 2692TIP3    H229636   4.366   5.413   2.774 -1.0933  0.1417 -0.7172
 2693TIP3   OH229637   0.674   1.051   1.583 -0.4233  1.1431 -0.1818
 2693TIP3    H129638   0.580   1.057   1.565 -0.2823 -1.0710 -2.0765
 2693TIP3    H229639   0.688   0.959   1.605  1.1705  1.6848  1.3115
 2694TIP3   OH229640   0.924   4.296   1.785 -0.1873 -0.3945  0.1230
 2694TIP3    H129641   0.852   4.333   1.734  0.1769  1.0112  0.5916
 2694TIP3    H229642   1.003   4.320   1.737  0.2160  1.6619  1.7044
 2695TIP3   OH229643   1.793   3.145   0.111  0.0101 -0.8670 -0.5020
 2695TIP3    H129644   1.832   3.212   0.056 -1.2795  1.4860  1.2464
 2695TIP3    H229645   1.858   3.128   0.179  0.3539 -1.4782 -0.9685
 2696TIP3   OH229646   2.660   1.882   8.741 -0.0833 -0.2380  0.1356
 2696TIP3    H129647   2.718   1.815   8.703 -1.1278 -0.9963 -0.1715
 2696TIP3    H229648   2.717   1.932   8.799  0.8155 -1.1701  0.0985
 2697TIP3   OH229649   2.912   3.710   2.181  0.4412 -0.3200  0.1691
 2697TIP3    H129650   2.830   3.686   2.138  1.2235 -0.6578 -1.2009
 2697TIP3    H229651   2.911   3.661   2.263 -1.1996  0.5148  0.6849
 2698TIP3   OH229652   5.933   5.410   7.754 -0.2167  0.4997  0.6906
 2698TIP3    H129653   6.028   5.415   7.740 -0.4240  2.0079 -0.2913
 2698TIP3    H229654   5.907   5.330   7.708  0.6422 -0.2561  1.4712
 2699TIP3   OH229655   5.642   5.696   1.195  0.5748  0.0529  0.1773
 2699TIP3    H129656   5.718   5.711   1.138 -0.2025  2.2073 -0.3857
 2699TIP3    H229657   5.676   5.706   1.284  1.4388 -1.5838  0.0673
 2700TIP3   OH229658   2.494   5.396   0.240 -0.1078 -0.1965 -0.0662
 2700TIP3    H129659   2.533   5.314   0.269 -1.4387 -1.3302 -1.3549
 2700TIP3    H229660   2.528   5.462   0.302 -0.7299 -2.0214  2.3828
 2701TIP3   OH229661   3.682   5.366   7.403  0.5537  1.0673  0.3041
 2701TIP3    H129662   3.656   5.282   7.441 -1.6788  2.0250  1.0713
 2701TIP3    H229663   3.681   5.352   7.309 -1.2246  0.5621  0.3653
 2702TIP3   OH229664   4.170   3.024   7.988  0.7592 -0.1695 -0.0555
 2702TIP3    H129665   4.169   3.097   8.049  1.6407  0.5595 -0.8720
 2702TIP3    H229666   4.256   2.983   8.001  0.9487 -0.0145 -0.7831
 2703TIP3   OH229667   3.117   4.020   7.623 -0.3929 -0.0743 -0.2064
 2703TIP3    H129668   3.117   4.110   7.657 -1.4977  0.0573 -0.5189
 2703TIP3    H229669   3.088   4.029   7.532  1.2381 -0.5692 -0.8070
 2704TIP3   OH229670   2.331   0.867   1.828  0.0388  0.0556  0.8315
 2704TIP3    H129671   2.424   0.874   1.807  0.0117  1.4086  1.1109
 2704TIP3    H229672   2.328   0.823   1.913  0.3388 -1.3599  0.1345
 2705TIP3   OH229673   5.243   0.014   1.564 -0.2212  0.1737  0.5069
 2705TIP3    H129674   5.224  -0.041   1.640  0.8162 -0.2710  0.4509
 2705TIP3    H229675   5.204  -0.032   1.490 -1.8074  0.9276  0.8266
 2706TIP3   OH229676   1.499   4.515   2.439  0.2141  0.0921  0.0096
 2706TIP3    H129677   1.582   4.562   2.448  0.0433  1.3041 -3.3278
 2706TIP3    H229678   1.432   4.582   2.458  0.0021  0.7054 -2.6131
 2707TIP3   OH229679   6.598   0.696   0.601  0.1036  0.1387 -0.0071
 2707TIP3    H129680   6.551   0.654   0.529 -1.2393  0.8929  0.4019
 2707TIP3    H229681   6.551   0.777   0.617  1.8365  1.1738  0.1282
 2708TIP3   OH229682   5.417   4.162   1.677 -0.2584 -0.5628  0.1115
 2708TIP3    H129683   5.348   4.200   1.732  0.1334 -0.8155  0.7846
 2708TIP3    H229684   5.410   4.211   1.595 -1.5687 -0.9290 -0.0315
 2709TIP3   OH229685   1.711   6.183   1.393  0.7334 -0.1989 -0.1291
 2709TIP3    H129686   1.693   6.181   1.299 -0.0820 -1.2933  0.0197
 2709TIP3    H229687   1.677   6.100   1.426  0.7660  0.2687  1.1799
 2710TIP3   OH229688   5.009   5.416   8.559 -0.1533  0.2853  0.3413
 2710TIP3    H129689   5.003   5.489   8.620  0.6468  0.3878  0.3142
 2710TIP3    H229690   4.954   5.348   8.596  0.1725  0.4183  1.0737
 2711TIP3   OH229691   5.467   4.854   2.700  0.3788  0.0732  0.1904
 2711TIP3    H129692   5.381   4.838   2.738  1.3474 -1.5852  1.9064
 2711TIP3    H229693   5.506   4.920   2.758  0.5799  0.1868 -0.0738
 2712TIP3   OH229694   0.653   5.588   0.490  0.8599 -0.2594  0.3892
 2712TIP3    H129695   0.711   5.658   0.460  2.2253 -1.0711  1.0524
 2712TIP3    H229696   0.597   5.631   0.555  1.3432  0.3296  0.4274
 2713TIP3   OH229697   4.907   0.180   1.394  0.0212  0.2320  0.0819
 2713TIP3    H129698   4.975   0.193   1.460  0.9455 -1.0932 -0.5792
 2713TIP3    H229699   4.916   0.255   1.335  1.3964 -0.2977 -0.4051
 2714TIP3   OH229700   1.304   5.290   0.591  0.1364 -0.5996 -0.6562
 2714TIP3    H129701   1.213   5.299   0.619  0.2938  2.4115 -0.7231
 2714TIP3    H229702   1.324   5.197   0.602 -2.7272 -1.2427 -0.0433
 2715TIP3   OH229703   2.750   1.083   8.362  0.1244  0.0166 -0.2667
 2715TIP3    H129704   2.755   1.081   8.267 -0.8772 -1.8626 -0.3165
 2715TIP3    H229705   2.796   1.005   8.391  0.5797  0.6653  0.8148
 2716TIP3   OH229706   4.240   0.575   8.144  0.2727  0.2630 -0.0861
 2716TIP3    H129707   4.180   0.634   8.099  0.4486 -0.1619 -0.8871
 2716TIP3    H229708   4.211   0.487   8.119  0.1125 -0.0011  0.9627
 2717TIP3   OH229709   5.863   2.813   0.101  0.2032  0.3635 -0.5834
 2717TIP3    H129710   5.844   2.901   0.136  0.7337  0.3617 -0.2790
 2717TIP3    H229711   5.785   2.762   0.123  0.2473  0.5389  0.0011
 2718TIP3   OH229712   3.927   0.222   0.111  0.0034 -0.6068 -0.6463
 2718TIP3    H129713   3.904   0.167   0.185 -0.0855 -0.7851 -0.8061
 2718TIP3    H229714   3.851   0.218   0.053 -0.1341 -0.0620 -0.5119
 2719TIP3   OH229715   3.171   3.983   2.515 -0.3585  0.1482 -0.4522
 2719TIP3    H129716   3.117   3.956   2.441  1.3918  0.7608 -2.0247
 2719TIP3    H229717   3.125   4.058   2.553 -1.8761 -0.8896 -0.1287
 2720TIP3   OH229718   3.931   5.105   1.705  0.1593 -0.4045 -0.0822
 2720TIP3    H129719   3.966   5.158   1.634 -0.8731  0.7161  0.2038
 2720TIP3    H229720   3.838   5.095   1.683 -0.5141  1.1345  1.7331
 2721TIP3   OH229721   6.095   0.952   2.729  0.0659 -0.1006 -0.0048
 2721TIP3    H129722   6.000   0.955   2.727  0.0125 -1.2282 -0.2108
 2721TIP3    H229723   6.115   0.860   2.749  1.1045  0.4641  1.7213
 2722TIP3   OH229724   1.844   6.727   2.174  0.2841 -0.2357  0.3469
 2722TIP3    H129725   1.890   6.731   2.258 -0.1354 -3.4829  0.8673
 2722TIP3    H229726   1.906   6.682   2.116 -0.7784 -1.2677 -0.0172
 2723TIP3   OH229727   4.725   4.512   2.728 -0.0086 -0.3713  0.2899
 2723TIP3    H129728   4.745   4.422   2.752  1.4677 -0.4762 -1.2088
 2723TIP3    H229729   4.809   4.557   2.732 -0.6268  0.8188  0.4259
 2724TIP3   OH229730   6.013   0.134   2.306 -1.1651  0.2767  0.4009
 2724TIP3    H129731   5.956   0.192   2.357 -1.8440  0.5637 -0.6492
 2724TIP3    H229732   6.011   0.170   2.217 -0.4467 -0.5205  0.0482
 2725TIP3   OH229733   6.319   3.694   0.683 -0.2674  0.1791 -0.4324
 2725TIP3    H129734   6.377   3.726   0.753 -0.1573  0.3437 -0.5958
 2725TIP3    H229735   6.358   3.729   0.603 -0.2844 -0.1672 -0.5935
 2726TIP3   OH229736   6.693   3.802   8.671 -0.0239 -0.3433  0.3448
 2726TIP3    H129737   6.721   3.853   8.747 -1.9197  0.2060  0.7496
 2726TIP3    H229738   6.770   3.753   8.644  1.2581  1.0767  1.3102
 2727TIP3   OH229739   4.470   2.002   8.584  0.0853  0.8741 -0.2517
 2727TIP3    H129740   4.442   1.967   8.500  3.3042 -0.5775 -0.8626
 2727TIP3    H229741   4.511   2.086   8.564 -0.6642  1.3610  0.1662
 2728TIP3   OH229742   4.405   1.634   7.944 -0.7357 -0.0549 -0.4352
 2728TIP3    H129743   4.318   1.636   7.985  0.3136  0.5389  1.9198
 2728TIP3    H229744   4.414   1.545   7.910 -0.7972 -1.4336  2.8231
 2729TIP3   OH229745   1.103   4.085   1.073 -0.2199  0.5295 -0.1629
 2729TIP3    H129746   1.089   4.033   1.152 -0.4404 -0.6949 -0.9767
 2729TIP3    H229747   1.079   4.174   1.098  0.3509  0.3005  1.3300
 2730TIP3   OH229748   6.048   6.439   8.140  0.2599  0.0384 -0.2918
 2730TIP3    H129749   5.958   6.467   8.158  0.4679  1.5050 -1.3138
 2730TIP3    H229750   6.060   6.455   8.047  1.1681 -1.4278 -0.4627
 2731TIP3   OH229751   6.462   6.542   1.375  0.0419 -0.1527 -0.5485
 2731TIP3    H129752   6.433   6.461   1.418 -0.4642  1.4424  2.3748
 2731TIP3    H229753   6.387   6.601   1.382  1.3521  1.5294  0.1523
 2732TIP3   OH229754   5.013   5.814   2.474  0.4598 -0.1244  0.2790
 2732TIP3    H129755   4.994   5.784   2.384  1.3985  0.7439 -0.2204
 2732TIP3    H229756   4.988   5.906   2.474 -1.7668 -0.6407  1.6192
 2733TIP3   OH229757   6.485   1.654   7.056 -0.1671  0.1476 -0.2207
 2733TIP3    H129758   6.413   1.679   7.114 -1.6319 -1.1648 -1.3942
 2733TIP3    H229759   6.555   1.716   7.077 -1.8122  1.8253  0.5740
 2734TIP3   OH229760   1.487   5.795   0.933  0.4028  0.3008 -0.0979
 2734TIP3    H129761   1.460   5.790   1.025 -0.0668 -1.2509 -0.2759
 2734TIP3    H229762   1.418   5.845   0.890  0.2377  0.3974  0.2752
 2735TIP3   OH229763   2.310   4.249   8.743  0.3061 -0.1487  0.0119
 2735TIP3    H129764   2.400   4.216   8.739  0.0508 -0.7908 -0.8980
 2735TIP3    H229765   2.297   4.274   8.834  0.8403 -1.6788  0.5390
 2736TIP3   OH229766   1.595   4.597   7.638  0.2167 -0.5135 -0.0335
 2736TIP3    H129767   1.562   4.510   7.614  0.6753 -0.6832 -0.0488
 2736TIP3    H229768   1.547   4.657   7.580  1.0468 -0.8896 -1.1539
 2737TIP3   OH229769   4.009   2.191   7.263  0.5927 -0.7163  0.4875
 2737TIP3    H129770   4.092   2.177   7.309 -0.1920 -0.2845  2.1085
 2737TIP3    H229771   3.947   2.133   7.307 -0.4412  0.5710  0.8057
 2738TIP3   OH229772   6.397   3.324   2.063  0.2489 -0.3077  0.1176
 2738TIP3    H129773   6.395   3.333   1.967 -2.1634 -1.7958 -0.0639
 2738TIP3    H229774   6.359   3.406   2.095  1.0667  0.1993 -0.1759
 2739TIP3   OH229775   5.098   4.599   8.341  0.4486  0.0902 -0.3856
 2739TIP3    H129776   5.125   4.636   8.425  1.1866  0.1052 -0.6291
 2739TIP3    H229777   5.041   4.526   8.364  0.4529  0.2463  0.1238
 2740TIP3   OH229778   0.794   2.883   8.668 -0.0738  0.0437 -0.4965
 2740TIP3    H129779   0.884   2.851   8.669 -0.3927 -0.8764 -0.5161
 2740TIP3    H229780   0.740   2.804   8.673 -0.8777  0.6315  0.3104
 2741TIP3   OH229781   6.580   5.078   1.724 -0.1851 -0.5643  0.3471
 2741TIP3    H129782   6.606   5.125   1.802 -1.6650 -1.5259  1.4736
 2741TIP3    H229783   6.628   4.995   1.729 -0.2888 -0.6311  0.2446
 2742TIP3   OH229784   0.283   6.736   2.796 -0.2616  0.6234  0.3811
 2742TIP3    H129785   0.253   6.725   2.706  0.6086  1.7548 -0.0551
 2742TIP3    H229786   0.358   6.678   2.804  1.7564  2.9471 -0.6767
 2743TIP3   OH229787   0.268   4.530   0.871  0.2044  0.9730  0.0351
 2743TIP3    H129788   0.338   4.576   0.823  0.4144  0.2865 -0.3243
 2743TIP3    H229789   0.187   4.570   0.838  0.4296  2.1364  0.8293
 2744TIP3   OH229790   2.044   5.245   1.188 -0.0041  0.2373 -0.2433
 2744TIP3    H129791   2.101   5.232   1.264  2.1480 -1.4304 -2.0305
 2744TIP3    H229792   2.054   5.338   1.167 -0.0094  0.5400  0.9881
 2745TIP3   OH229793   2.994   0.749   2.521  0.5115  0.2827 -0.1727
 2745TIP3    H129794   3.071   0.729   2.467 -0.1032 -0.8595 -0.6521
 2745TIP3    H229795   2.944   0.668   2.522 -1.1238  1.2383 -0.5724
 2746TIP3   OH229796   1.980   3.324   2.419 -0.0896 -0.2394 -0.4141
 2746TIP3    H129797   1.956   3.328   2.512 -0.8490 -0.1118 -0.6078
 2746TIP3    H229798   1.896   3.320   2.373  0.2923 -1.4475 -1.0497
 2747TIP3   OH229799   5.674   0.633   1.837  0.4656 -0.3057 -0.5538
 2747TIP3    H129800   5.710   0.546   1.853 -1.0392 -0.8459  0.0541
 2747TIP3    H229801   5.675   0.642   1.742  0.1033 -1.2208 -0.6514
 2748TIP3   OH229802   3.826   2.331   0.043 -0.1896  0.1926  0.0042
 2748TIP3    H129803   3.794   2.411   0.084  1.6005  1.6144 -1.2109
 2748TIP3    H229804   3.759   2.308  -0.021 -1.1611  0.1402  1.0090
 2749TIP3   OH229805   6.783   6.425   2.906  0.2680 -0.3445  0.6611
 2749TIP3    H129806   6.699   6.406   2.863 -0.4192  0.5587  1.5550
 2749TIP3    H229807   6.824   6.490   2.849  1.5409 -2.5487 -1.1147
 2750TIP3   OH229808   3.200   3.267   1.739  0.6385 -0.1384  0.4435
 2750TIP3    H129809   3.206   3.301   1.649  0.7630  1.9608  1.1938
 2750TIP3    H229810   3.107   3.264   1.757  0.4774 -2.5400 -0.3953
 2751TIP3   OH229811   3.923   5.088   0.986  0.3607  0.2829  0.4230
 2751TIP3    H129812   3.943   5.077   0.893 -2.0480 -5.9525  0.1203
 2751TIP3    H229813   3.849   5.149   0.988 -0.4867 -0.5544 -1.9907
 2752TIP3   OH229814   5.664   3.071   8.110 -0.2002 -0.0733 -0.1545
 2752TIP3    H129815   5.740   3.061   8.168  1.6755 -0.8244 -2.5726
 2752TIP3    H229816   5.594   3.023   8.155  0.4136  1.3092  2.5496
 2753TIP3   OH229817   2.491   0.673   0.719 -0.5228  0.5777 -0.1967
 2753TIP3    H129818   2.467   0.613   0.649  1.1216 -1.3066  0.7639
 2753TIP3    H229819   2.578   0.705   0.695 -0.1824  0.3462  0.6738
 2754TIP3   OH229820   3.974   1.743   1.388 -0.2915 -0.1163  0.2995
 2754TIP3    H129821   3.968   1.831   1.424  0.7645 -0.9728  2.8782
 2754TIP3    H229822   3.914   1.691   1.443  2.3516 -1.7497  1.8666
 2755TIP3   OH229823   1.075   5.231   7.466 -0.3507 -0.4419 -0.3166
 2755TIP3    H129824   1.157   5.181   7.466 -0.4358 -0.6293  1.6057
 2755TIP3    H229825   1.009   5.169   7.435 -0.7946 -2.2674  3.7044
 2756TIP3   OH229826   0.481   2.337   8.380 -0.0446  0.1877 -0.2775
 2756TIP3    H129827   0.388   2.334   8.358  0.0081  0.2772 -0.5111
 2756TIP3    H229828   0.524   2.291   8.308 -0.0234 -1.0404  0.4902
 2757TIP3   OH229829   3.267   6.725   1.585 -0.6377  0.4193 -0.2081
 2757TIP3    H129830   3.317   6.739   1.505  2.4492  1.1897  1.6980
 2757TIP3    H229831   3.284   6.633   1.609 -2.8740 -0.3274 -1.1578
 2758TIP3   OH229832   4.443   4.555   0.813  0.5057 -0.0466  0.2382
 2758TIP3    H129833   4.536   4.558   0.791  0.7472  2.8187  1.2122
 2758TIP3    H229834   4.442   4.531   0.906  0.3336  0.5397  0.3912
 2759TIP3   OH229835   6.257   3.761   8.360  0.0264 -1.4028  0.3274
 2759TIP3    H129836   6.310   3.708   8.301  1.3944  1.6294 -1.4037
 2759TIP3    H229837   6.320   3.813   8.410 -1.0665  1.9857 -1.4766
 2760TIP3   OH229838   2.503   2.186   3.087  0.1142  0.1502  0.5680
 2760TIP3    H129839   2.566   2.200   3.157  3.5004 -1.3202 -1.9018
 2760TIP3    H229840   2.491   2.272   3.047  1.7821  0.2290  0.1856
 2761TIP3   OH229841   1.006   6.097   8.392  0.1219 -0.1110 -0.3346
 2761TIP3    H129842   0.987   6.026   8.453 -1.4139  1.2468  0.8815
 2761TIP3    H229843   0.922   6.115   8.349  1.2860 -1.5478 -3.5889
 2762TIP3   OH229844   1.950   4.061   1.268 -0.0989 -0.3634  0.1626
 2762TIP3    H129845   1.855   4.053   1.252 -0.0606 -1.1133  0.2572
 2762TIP3    H229846   1.990   4.002   1.204  0.2777 -0.4258  0.4521
 2763TIP3   OH229847   5.755   6.546   8.635 -0.1654  0.3403  0.1774
 2763TIP3    H129848   5.788   6.502   8.714  0.8315 -1.5159 -1.1779
 2763TIP3    H229849   5.799   6.631   8.635  2.3620 -0.8821  0.0116
 2764TIP3   OH229850   1.449   2.033   0.410 -0.0550  0.4728  0.5670
 2764TIP3    H129851   1.543   2.016   0.414 -0.1668  0.0382  1.5739
 2764TIP3    H229852   1.409   1.950   0.434 -0.7190  0.5125 -0.3442
 2765TIP3   OH229853   2.675   1.065   8.094  0.4664 -0.7744  0.0965
 2765TIP3    H129854   2.690   1.160   8.094  0.0819 -0.7065  1.2674
 2765TIP3    H229855   2.586   1.055   8.061  0.4773 -0.7321  0.0522
 2766TIP3   OH229856   1.844   3.923   1.743  0.0947 -0.5960 -0.1007
 2766TIP3    H129857   1.879   3.878   1.819 -0.2177 -2.2365 -0.8745
 2766TIP3    H229858   1.907   3.993   1.724  1.0639 -1.2534  0.6320
 2767TIP3   OH229859   5.513   3.146   7.337 -0.3612 -0.3743  0.0665
 2767TIP3    H129860   5.427   3.187   7.329  0.2010  1.1500  1.4213
 2767TIP3    H229861   5.563   3.204   7.394  1.4206 -1.4912 -0.2716
 2768TIP3   OH229862   6.179   0.224   2.701 -0.0874 -0.0662  0.0847
 2768TIP3    H129863   6.112   0.291   2.686  0.2657 -0.0939 -1.8589
 2768TIP3    H229864   6.261   0.272   2.702  0.1723 -0.4504 -1.3821
 2769TIP3   OH229865   3.624   5.145   1.086  0.0097 -0.0816  0.2010
 2769TIP3    H129866   3.602   5.086   1.014 -0.4026  0.6518 -0.2962
 2769TIP3    H229867   3.669   5.218   1.044 -0.3970  0.4419  0.6632
 2770TIP3   OH229868   4.700   0.550   1.133 -0.1873 -0.4965  0.0847
 2770TIP3    H129869   4.683   0.635   1.093  0.0482 -0.0405  0.9173
 2770TIP3    H229870   4.728   0.494   1.061  3.5501  1.1740 -0.0107
 2771TIP3   OH229871   4.042   2.558   0.288  0.2668  1.0548 -0.1811
 2771TIP3    H129872   3.994   2.621   0.235 -0.4824  0.4908 -0.1761
 2771TIP3    H229873   4.122   2.605   0.313  0.3916  1.5033 -1.3596
 2772TIP3   OH229874   4.577   5.859   1.486  0.1524  0.7984 -0.0816
 2772TIP3    H129875   4.642   5.929   1.499  0.2903  0.3552  1.8600
 2772TIP3    H229876   4.584   5.805   1.565 -2.8327  0.9288  0.3756
 2773TIP3   OH229877   2.236   5.214   8.117 -0.0081 -0.2683  0.1483
 2773TIP3    H129878   2.288   5.271   8.173  0.0626  1.0111 -1.1440
 2773TIP3    H229879   2.281   5.216   8.032 -0.8292 -1.0811 -0.3272
 2774TIP3   OH229880   1.215   5.722   2.516 -0.6511  0.0268  0.1297
 2774TIP3    H129881   1.175   5.635   2.511  1.6475 -1.1026  0.0285
 2774TIP3    H229882   1.280   5.714   2.586  0.3956  1.3040 -0.6593
 2775TIP3   OH229883   3.841   2.449   2.047 -0.1051 -0.3332  0.2054
 2775TIP3    H129884   3.789   2.370   2.060  0.9269 -1.2511 -0.9533
 2775TIP3    H229885   3.926   2.416   2.019  0.1492  1.2072 -0.9221
 2776TIP3   OH229886   5.945   2.655   8.216  0.0374 -0.1162 -0.4785
 2776TIP3    H129887   6.003   2.731   8.220 -1.5277  1.0989  0.4442
 2776TIP3    H229888   5.906   2.649   8.304  0.1036 -2.0029 -0.5211
 2777TIP3   OH229889   2.506   1.262   8.414  0.1164  0.1299  0.4344
 2777TIP3    H129890   2.529   1.171   8.399 -1.0125  0.1920 -2.1495
 2777TIP3    H229891   2.587   1.310   8.399  0.2335 -0.2926 -0.3206
 2778TIP3   OH229892   2.546   5.341   1.106  0.1194 -0.3967  0.2041
 2778TIP3    H129893   2.589   5.258   1.084 -0.8660 -0.6584 -0.8334
 2778TIP3    H229894   2.484   5.318   1.176  0.9625 -0.2060  1.0305
 2779TIP3   OH229895   0.793   1.515   1.176 -0.3573 -0.3199 -0.4130
 2779TIP3    H129896   0.774   1.608   1.188  1.9722 -0.0535  2.0779
 2779TIP3    H229897   0.807   1.505   1.081 -0.1929  1.9490 -0.6681
 2780TIP3   OH229898   4.151   4.940   1.760  0.3762  0.0717 -0.2360
 2780TIP3    H129899   4.229   4.993   1.774  0.5336 -0.0985 -0.4525
 2780TIP3    H229900   4.083   5.002   1.733 -0.3011  0.6169  2.4517
 2781TIP3   OH229901   3.012   1.397   2.150 -0.5297  0.8400 -0.4116
 2781TIP3    H129902   2.981   1.400   2.060 -0.7793  0.3565 -0.3476
 2781TIP3    H229903   2.951   1.453   2.198 -1.2733 -0.0393 -0.3019
 2782TIP3   OH229904   2.809   4.041   8.515 -0.0047 -0.2689 -0.0605
 2782TIP3    H129905   2.892   3.997   8.499 -0.6864 -1.6158  0.0128
 2782TIP3    H229906   2.777   4.003   8.597 -0.4822  0.5661  0.1515
 2783TIP3   OH229907   0.604   4.386   7.131  0.0415 -0.8339 -0.4139
 2783TIP3    H129908   0.642   4.466   7.094  0.6421  0.3583  2.4753
 2783TIP3    H229909   0.678   4.341   7.171 -0.0941 -3.4931 -2.8033
 2784TIP3   OH229910   0.003   6.768   1.123 -0.0198  0.1998 -0.3668
 2784TIP3    H129911   0.061   6.829   1.170 -0.4348 -0.7228  1.4303
 2784TIP3    H229912  -0.082   6.812   1.122 -0.0998  0.0659  0.1163
 2785TIP3   OH229913   0.826   2.817   6.936 -0.1847  0.2498  0.6122
 2785TIP3    H129914   0.826   2.725   6.909 -0.3470  0.6167 -0.6779
 2785TIP3    H229915   0.799   2.865   6.858  1.3045  1.5274  0.8287
 2786TIP3   OH229916   5.027   0.199   0.250 -0.1366 -0.1549 -0.3614
 2786TIP3    H129917   5.057   0.165   0.165  0.3251  0.5326 -0.4843
 2786TIP3    H229918   5.073   0.283   0.260  0.6866 -0.7490  1.0937
 2787TIP3   OH229919   0.008   6.514   8.463 -0.5625  0.1030  0.0194
 2787TIP3    H129920   0.024   6.608   8.457 -0.0018  0.2832  2.8352
 2787TIP3    H229921   0.076   6.482   8.522 -2.1384 -1.6409  1.0057
 2788TIP3   OH229922   2.782   5.452   1.657  0.3579 -0.1868 -0.1222
 2788TIP3    H129923   2.769   5.544   1.635 -2.0534 -0.3172  0.5023
 2788TIP3    H229924   2.788   5.450   1.753 -1.2527 -0.8007 -0.0042
 2789TIP3   OH229925   6.433   4.909   1.538  0.2356  0.0106 -0.4264
 2789TIP3    H129926   6.464   4.955   1.617 -2.0764  2.7110 -0.9236
 2789TIP3    H229927   6.377   4.839   1.572  0.5632  0.1037  0.3449
 2790TIP3   OH229928   0.482   1.555   0.156 -0.0142  0.3086 -0.3373
 2790TIP3    H129929   0.391   1.567   0.184 -0.2740  1.6755 -1.6039
 2790TIP3    H229930   0.484   1.588   0.066  0.7178 -3.9285 -2.1429
 2791TIP3   OH229931   6.704   1.030   0.802  0.5683 -0.0557 -0.3131
 2791TIP3    H129932   6.687   1.102   0.741  0.3792  0.0955 -0.0816
 2791TIP3    H229933   6.620   1.012   0.843  0.7858  0.1454  0.2298
 2792TIP3   OH229934   0.734   5.834   0.389  0.0184  0.2233 -0.2015
 2792TIP3    H129935   0.822   5.857   0.360  0.0781  0.3921  0.1009
 2792TIP3    H229936   0.689   5.919   0.399 -0.3924  0.1057 -1.0124
 2793TIP3   OH229937   4.922   3.061   8.280 -0.3208  0.0600  0.6301
 2793TIP3    H129938   4.932   3.153   8.255 -1.9172  0.3784  1.0506
 2793TIP3    H229939   4.828   3.044   8.273 -0.1096 -1.4188  1.0024
 2794TIP3   OH229940   2.058   0.754   8.707  0.5253 -0.2100 -0.5651
 2794TIP3    H129941   2.139   0.711   8.675  0.0222 -0.9028 -0.9464
 2794TIP3    H229942   2.030   0.699   8.780 -0.1482 -0.5750 -1.0848
 2795TIP3   OH229943   5.082   0.462   2.801  0.9067  0.2998  0.4735
 2795TIP3    H129944   5.031   0.472   2.721  0.0606  0.7629  1.0596
 2795TIP3    H229945   5.130   0.380   2.788 -0.6622 -0.6293  0.2648
 2796TIP3   OH229946   4.434   2.387   2.495  0.2683 -0.1321 -0.0684
 2796TIP3    H129947   4.360   2.327   2.493  0.7536 -0.7305 -0.9152
 2796TIP3    H229948   4.447   2.406   2.587 -1.5759  0.8088  0.0371
 2797TIP3   OH229949   3.113   2.800   2.297  0.1696  0.3688  0.4789
 2797TIP3    H129950   3.184   2.809   2.234 -0.1415  1.2629  0.2400
 2797TIP3    H229951   3.072   2.887   2.300  0.7538  0.6143  2.6180
 2798TIP3   OH229952   0.127   0.647   2.134 -0.1031 -0.3880  0.0693
 2798TIP3    H129953   0.210   0.626   2.177 -0.4207 -0.9988  0.4009
 2798TIP3    H229954   0.067   0.669   2.206  0.0304  1.0311 -0.2255
 2799TIP3   OH229955   5.693   0.205   7.789  0.3019 -0.2892  0.3268
 2799TIP3    H129956   5.619   0.147   7.808 -1.0265  1.8087  2.0593
 2799TIP3    H229957   5.734   0.221   7.875  0.4293  1.4972 -0.0188
 2800TIP3   OH229958   2.545   5.886   7.832 -0.4758 -0.3971 -0.1783
 2800TIP3    H129959   2.593   5.822   7.884 -0.7333 -0.1513  0.3649
 2800TIP3    H229960   2.464   5.841   7.807 -1.3760  0.2089  1.5023
 2801TIP3   OH229961   6.781   2.331   2.673 -0.3560  0.0379 -0.6783
 2801TIP3    H129962   6.747   2.269   2.737  2.6755 -2.1652 -0.9947
 2801TIP3    H229963   6.833   2.393   2.724 -0.8225  0.4148 -0.6624
 2802TIP3   OH229964   3.868   2.529   8.115  0.2251 -0.4666  0.2946
 2802TIP3    H129965   3.773   2.520   8.121  0.1382  0.1097 -0.1306
 2802TIP3    H229966   3.884   2.566   8.028  0.8338 -0.4978  0.3850
 2803TIP3   OH229967   0.830   6.246   1.750 -0.0759  0.3800 -0.4675
 2803TIP3    H129968   0.790   6.296   1.679 -1.2146  2.1911  1.3566
 2803TIP3    H229969   0.787   6.277   1.829 -0.8448 -3.4876  0.8748
 2804TIP3   OH229970   2.236   3.947   7.611  0.3455  0.2318  0.0880
 2804TIP3    H129971   2.222   4.041   7.624 -0.1354  0.3142 -0.9571
 2804TIP3    H229972   2.264   3.939   7.520  0.9731 -0.5904  0.3388
 2805TIP3   OH229973   4.106   0.913   2.847 -0.1247 -0.4961 -0.1858
 2805TIP3    H129974   4.137   0.974   2.781  1.5762 -0.8113  0.2702
 2805TIP3    H229975   4.012   0.932   2.856 -0.0394  0.6627 -1.4670
 2806TIP3   OH229976   5.675   5.434   8.483 -0.0516 -0.0121 -0.4311
 2806TIP3    H129977   5.678   5.495   8.410  0.6039  1.9051  1.1175
 2806TIP3    H229978   5.617   5.475   8.547  1.5037 -0.2618  1.2444
 2807TIP3   OH229979   4.153   0.497   0.024  0.2766  0.5006 -0.6393
 2807TIP3    H129980   4.107   0.503  -0.059  1.3857  2.3553 -1.1736
 2807TIP3    H229981   4.232   0.447   0.004  0.0968  0.1281 -0.4504
 2808TIP3   OH229982   0.455   3.421   1.505  0.1405 -0.3507 -0.1382
 2808TIP3    H129983   0.420   3.494   1.453 -2.4318 -0.6406  1.0506
 2808TIP3    H229984   0.499   3.464   1.578  0.0630  0.0255 -0.3053
 2809TIP3   OH229985   5.257   1.966   0.644  0.0251 -0.6225 -0.1164
 2809TIP3    H129986   5.353   1.962   0.637 -0.1179 -1.5483 -2.7127
 2809TIP3    H229987   5.227   1.966   0.553 -2.4818 -0.8898  0.6533
 2810TIP3   OH229988   2.262   2.955   2.613  0.1050  0.1164  0.5411
 2810TIP3    H129989   2.234   2.914   2.695  0.0719  1.2355  1.1185
 2810TIP3    H229990   2.349   2.991   2.634 -0.1908  0.9921  0.2997
 2811TIP3   OH229991   1.494   0.894   1.853  0.5548 -0.2622 -0.0984
 2811TIP3    H129992   1.453   0.842   1.784  1.6466 -0.0242 -0.9487
 2811TIP3    H229993   1.529   0.830   1.914 -0.1695 -0.4775  0.1057
 2812TIP3   OH229994   0.302   0.157   6.967  0.5399 -0.3913 -0.0922
 2812TIP3    H129995   0.257   0.237   6.993  0.7241 -0.4443  0.3908
 2812TIP3    H229996   0.365   0.186   6.900  0.8205 -0.0783  0.2998
 2813TIP3   OH229997   0.041   0.059   8.392 -0.5943 -0.5459  0.2126
 2813TIP3    H129998   0.033   0.062   8.297 -0.0060  0.1886  0.1731
 2813TIP3    H229999   0.119   0.005   8.408 -0.0825  0.1905  0.2338
 2814TIP3   OH230000   0.914   3.967   7.925  0.7242  0.2511 -0.4280
 2814TIP3    H130001   0.905   4.055   7.963  1.1278  1.1820 -2.3573
 2814TIP3    H230002   0.856   3.912   7.978  1.1718  1.4655  1.4108
 2815TIP3   OH230003   2.031   6.313   0.504  0.0877 -0.3084  0.3597
 2815TIP3    H130004   2.098   6.367   0.545  1.0556 -0.8375 -0.4557
 2815TIP3    H230005   2.079   6.262   0.438 -1.3060  0.1398 -1.0687
 2816TIP3   OH230006   4.057   2.896   2.520  0.1524  0.6660  0.2415
 2816TIP3    H130007   4.016   2.820   2.561  0.8082  0.9982  1.5448
 2816TIP3    H230008   3.993   2.924   2.454 -0.1316 -0.9565 -0.2265
 2817TIP3   OH230009   4.326   2.298   2.086 -0.8522 -0.3439 -0.2280
 2817TIP3    H130010   4.345   2.218   2.037 -0.7240  0.3648 -1.3875
 2817TIP3    H230011   4.251   2.336   2.041 -0.8442  0.2410  0.2412
 2818TIP3   OH230012   5.249   4.442   1.258  0.1160 -0.3601 -0.5202
 2818TIP3    H130013   5.286   4.479   1.178  1.6739 -2.2300 -0.7483
 2818TIP3    H230014   5.183   4.380   1.227  0.4606 -0.8088 -0.3815
 2819TIP3   OH230015   3.861   3.454   1.372 -0.0714  1.0406 -0.7054
 2819TIP3    H130016   3.823   3.370   1.398  1.1619  0.4378 -0.7891
 2819TIP3    H230017   3.946   3.455   1.415 -0.6241  2.8935  0.4789
 2820TIP3   OH230018   2.799   6.778   1.100 -0.0754  0.0194  0.3591
 2820TIP3    H130019   2.801   6.712   1.170 -0.6921  0.8355  1.1689
 2820TIP3    H230020   2.750   6.851   1.137 -0.3875  0.4901 -0.9224
 2821TIP3   OH230021   1.825   6.140   0.485 -0.1490  0.4775  0.7789
 2821TIP3    H130022   1.894   6.205   0.501  2.0162 -1.5505  0.1375
 2821TIP3    H230023   1.812   6.099   0.571  0.9684 -0.5154  0.4995
 2822TIP3   OH230024   1.765   2.316   2.258 -0.0532 -0.4483  0.3122
 2822TIP3    H130025   1.709   2.369   2.314  0.6055  0.9599 -0.3278
 2822TIP3    H230026   1.720   2.313   2.173 -1.0450 -2.5668  0.8402
 2823TIP3   OH230027   6.269   3.137   0.688 -0.1872 -0.0749 -0.5940
 2823TIP3    H130028   6.183   3.142   0.728  0.7312  1.3003  1.3845
 2823TIP3    H230029   6.300   3.227   0.686  1.5723 -0.6339 -0.3897
 2824TIP3   OH230030   1.270   5.378   2.299 -0.1945 -0.1978  0.6958
 2824TIP3    H130031   1.248   5.302   2.245  0.5951  0.2008 -0.2058
 2824TIP3    H230032   1.185   5.416   2.322 -0.5454  0.8996 -2.1287
 2825TIP3   OH230033   5.968   6.747   7.927 -0.0064  0.2442 -0.3895
 2825TIP3    H130034   6.049   6.720   7.884  2.3727 -0.0036  3.6455
 2825TIP3    H230035   5.975   6.842   7.934  0.9848  0.0997  1.4728
 2826TIP3   OH230036   2.466   5.941   8.264 -0.0885  0.0367 -0.1450
 2826TIP3    H130037   2.430   5.890   8.191 -0.0203 -0.8316  0.4050
 2826TIP3    H230038   2.523   6.005   8.223 -0.9151  0.2973 -0.9247
 2827TIP3   OH230039   3.557   6.521   7.716 -0.6533  0.1956  0.5283
 2827TIP3    H130040   3.586   6.431   7.699  1.6381  0.8685  0.5017
 2827TIP3    H230041   3.635   6.574   7.700 -2.4153  2.4178 -1.3529
 2828TIP3   OH230042   2.573   4.693   0.077 -0.0930  0.4447  0.3420
 2828TIP3    H130043   2.667   4.689   0.061 -0.2950  1.5830 -1.4353
 2828TIP3    H230044   2.559   4.780   0.114 -0.7515  1.5465 -2.2936
 2829TIP3   OH230045   1.113   4.109   8.447 -0.3657 -0.0041 -0.2701
 2829TIP3    H130046   1.052   4.182   8.450 -1.6079 -1.0432  0.2902
 2829TIP3    H230047   1.108   4.077   8.357  0.7948  1.0686 -0.7519
 2830TIP3   OH230048   0.687   5.636   0.207  0.1618  0.0816  0.4487
 2830TIP3    H130049   0.706   5.708   0.266 -0.3774  0.4387  0.2009
 2830TIP3    H230050   0.765   5.581   0.209  0.9699  1.1788 -0.1084
 2831TIP3   OH230051   4.840   0.067   0.400 -0.3699 -0.1063 -0.3367
 2831TIP3    H130052   4.744   0.061   0.391 -0.7070  1.1661  1.7871
 2831TIP3    H230053   4.870   0.096   0.314 -1.9904  0.3516 -0.7883
 2832TIP3   OH230054   1.191   1.944   1.735 -0.0690 -0.4589  0.2319
 2832TIP3    H130055   1.098   1.965   1.733 -0.2488 -1.1389 -1.7997
 2832TIP3    H230056   1.199   1.877   1.803 -0.9773 -0.0349  0.7705
 2833TIP3   OH230057   3.088   0.074   1.743  0.6367  0.3113 -0.1212
 2833TIP3    H130058   3.157   0.013   1.717  0.3861 -0.4763  0.9831
 2833TIP3    H230059   3.127   0.126   1.814  0.6731  1.1051 -0.7027
 2834TIP3   OH230060   4.441   3.972   1.433  0.5600 -0.5308 -0.4557
 2834TIP3    H130061   4.392   3.933   1.505  2.2315 -3.5037 -0.7447
 2834TIP3    H230062   4.415   3.921   1.356  0.3931  1.1715 -1.5881
 2835TIP3   OH230063   3.736   2.619   1.863 -0.4895  0.2769 -0.1535
 2835TIP3    H130064   3.792   2.591   1.791 -2.2589  0.3257 -1.6075
 2835TIP3    H230065   3.778   2.584   1.942  0.5490 -1.3037 -1.3730
 2836TIP3   OH230066   1.913   2.332   7.584  0.6390  0.3194  0.5616
 2836TIP3    H130067   1.853   2.273   7.538 -0.4160  1.9469 -0.2729
 2836TIP3    H230068   1.857   2.376   7.649  0.8087  2.0537 -0.4032
 2837TIP3   OH230069   2.818   0.299   7.686 -0.0411 -0.1771 -0.0878
 2837TIP3    H130070   2.841   0.253   7.605 -0.0998 -0.6178  0.1422
 2837TIP3    H230071   2.763   0.238   7.734 -0.3775  0.2575  0.0879
 2838TIP3   OH230072   0.988   6.804   0.419 -0.3338 -0.5742  0.4755
 2838TIP3    H130073   0.986   6.870   0.488  0.6775 -0.4671  0.4143
 2838TIP3    H230074   1.080   6.778   0.413 -0.3334 -0.2613 -1.1332
 2839TIP3   OH230075   3.784   3.721   2.998 -0.6900 -0.7596  0.5190
 2839TIP3    H130076   3.733   3.800   3.016 -0.9858 -0.9403  0.4758
 2839TIP3    H230077   3.742   3.682   2.921 -1.3638 -1.6747  1.3327
 2840TIP3   OH230078   6.054   4.636   1.643 -0.0832  0.4541 -0.0047
 2840TIP3    H130079   6.038   4.686   1.562  0.2185  1.0347  0.2920
 2840TIP3    H230080   5.968   4.632   1.685  0.1466  1.9190  0.6451
 2841TIP3   OH230081   1.328   0.524   1.320 -0.1997  0.4553 -0.3183
 2841TIP3    H130082   1.305   0.449   1.264  0.4175  1.0918 -1.4701
 2841TIP3    H230083   1.245   0.569   1.335 -0.8202 -1.1643  1.5289
 2842TIP3   OH230084   0.732   5.298   1.193 -0.0616  0.0131  0.2776
 2842TIP3    H130085   0.827   5.303   1.183  0.1222  1.2345  2.2601
 2842TIP3    H230086   0.718   5.286   1.287 -1.8552 -1.3943 -0.1077
 2843TIP3   OH230087   5.790   5.005   7.448  0.6241 -0.0709  0.3927
 2843TIP3    H130088   5.849   5.079   7.434  0.2308  0.0901 -0.4919
 2843TIP3    H230089   5.709   5.031   7.406 -0.0613 -0.3360  1.5083
 2844TIP3   OH230090   4.269   1.933   2.508  0.3518 -0.0676 -0.1877
 2844TIP3    H130091   4.262   2.023   2.539 -0.7710 -0.2677  0.1974
 2844TIP3    H230092   4.292   1.882   2.586 -1.8348 -0.4793  0.2724
 2845TIP3   OH230093   6.739   5.111   1.324  0.1988  0.0895  0.0313
 2845TIP3    H130094   6.680   5.127   1.250  0.8817  0.1419 -0.5090
 2845TIP3    H230095   6.706   5.168   1.393  0.9041  1.8048 -0.9589
 2846TIP3   OH230096   5.001   2.362   0.816  0.1388 -0.0128 -0.0714
 2846TIP3    H130097   5.085   2.324   0.793  0.7221  1.0578  0.2157
 2846TIP3    H230098   4.950   2.359   0.735  0.4460 -0.6710 -0.2446
 2847TIP3   OH230099   1.587   1.386   0.784  0.6812 -0.5845  1.1097
 2847TIP3    H130100   1.652   1.363   0.851  0.5532 -0.5689  1.2388
 2847TIP3    H230101   1.558   1.474   0.808  2.2499  0.3469 -0.2184
 2848TIP3   OH230102   0.439   1.608   0.499  0.4668 -0.0422  0.5238
 2848TIP3    H130103   0.369   1.645   0.445 -0.8794  0.5394  2.5436
 2848TIP3    H230104   0.423   1.514   0.498  0.8445 -0.1016 -0.5827
 2849TIP3   OH230105   0.676   0.769   0.306 -0.3079  0.1174  0.2700
 2849TIP3    H130106   0.753   0.807   0.265 -0.8032  0.2677 -0.5442
 2849TIP3    H230107   0.669   0.681   0.268 -0.1350 -0.1638  0.8763
 2850TIP3   OH230108   1.278   3.313   0.017 -0.4853  0.2692 -0.1575
 2850TIP3    H130109   1.347   3.372  -0.014 -0.7106  1.6105  1.7174
 2850TIP3    H230110   1.322   3.256   0.080 -0.8429  0.3645  0.1837
 2851TIP3   OH230111   3.470   6.123   1.529  0.2671  0.2281 -0.2382
 2851TIP3    H130112   3.375   6.127   1.536  0.2432 -0.9393  0.1944
 2851TIP3    H230113   3.499   6.081   1.610  1.2856  1.9811  0.3585
 2852TIP3   OH230114   4.224   0.235   0.927 -0.7328  0.0151 -0.2611
 2852TIP3    H130115   4.316   0.227   0.901 -0.3794  0.8877  0.6455
 2852TIP3    H230116   4.227   0.232   1.023 -1.8541 -1.9054 -0.2432
 2853TIP3   OH230117   1.053   0.917   0.427 -1.0420  0.4827 -0.1447
 2853TIP3    H130118   1.080   0.825   0.425  0.8438  0.9865  0.3409
 2853TIP3    H230119   1.012   0.931   0.341  1.3333 -0.0927 -1.4733
 2854TIP3   OH230120   1.986   2.198   0.981 -0.2367 -0.1148  0.1595
 2854TIP3    H130121   1.902   2.169   0.946  0.1325 -2.0947  0.7561
 2854TIP3    H230122   1.985   2.170   1.073 -0.6433  3.7150  1.4992
 2855TIP3   OH230123   6.731   3.534   0.468  0.3861 -0.1112  0.3595
 2855TIP3    H130124   6.651   3.481   0.476  0.7153 -0.7038 -0.1838
 2855TIP3    H230125   6.719   3.605   0.530  0.7180 -1.7976  2.4664
 2856TIP3   OH230126   3.860   4.824   1.587 -0.0908  0.1510 -0.0895
 2856TIP3    H130127   3.847   4.829   1.681 -1.6473 -1.3615 -0.1718
 2856TIP3    H230128   3.954   4.834   1.575 -0.0501  2.5046  1.4117
 2857TIP3   OH230129   6.230   1.720   0.910 -0.1987  0.1495 -0.1307
 2857TIP3    H130130   6.170   1.794   0.910  1.0707  1.2590  1.5912
 2857TIP3    H230131   6.316   1.759   0.892  0.7182 -0.6267  2.1646
 2858TIP3   OH230132   5.837   3.013   0.695 -0.2383  0.1336  0.3236
 2858TIP3    H130133   5.773   3.036   0.762  0.5669 -0.8287  1.4517
 2858TIP3    H230134   5.895   3.089   0.690 -0.4667  0.3214  0.4924
 2859TIP3   OH230135   1.866   5.534   1.015 -0.1612  0.2530 -0.4578
 2859TIP3    H130136   1.955   5.533   0.980  0.0314  2.1491 -0.1063
 2859TIP3    H230137   1.820   5.466   0.965  1.2517 -0.1616 -1.2438
 2860TIP3   OH230138   5.347   1.804   1.925  0.0343  0.3303 -0.0080
 2860TIP3    H130139   5.436   1.793   1.892 -0.0118  0.8975 -0.3405
 2860TIP3    H230140   5.352   1.882   1.980  0.6419 -1.8285  3.2813
 2861TIP3   OH230141   5.401   6.083   7.399  0.0871 -0.0837 -0.5292
 2861TIP3    H130142   5.483   6.035   7.393  0.8733  1.1627 -0.0630
 2861TIP3    H230143   5.417   6.165   7.353 -0.7270  0.3991  0.0106
 2862TIP3   OH230144   6.227   6.243   2.237 -0.5270  0.2378 -0.0377
 2862TIP3    H130145   6.261   6.155   2.256 -0.1886  0.0074 -1.5664
 2862TIP3    H230146   6.139   6.227   2.201 -0.1706  0.4389 -1.0496
 2863TIP3   OH230147   2.850   1.468   0.529  0.1030 -0.1526  0.2917
 2863TIP3    H130148   2.930   1.520   0.519 -1.0557  1.7810  0.5070
 2863TIP3    H230149   2.855   1.402   0.461  1.1370  0.9749 -0.7691
 2864TIP3   OH230150   6.790   4.999   8.303 -0.6546 -0.1062 -0.7033
 2864TIP3    H130151   6.714   4.942   8.287 -1.1043 -0.0449  1.0450
 2864TIP3    H230152   6.858   4.966   8.244 -0.8074 -2.6307  0.4479
 2865TIP3   OH230153   3.978   6.762   8.069  0.3305  0.1020 -0.4309
 2865TIP3    H130154   4.012   6.725   7.987  0.8406  0.9192 -0.5909
 2865TIP3    H230155   3.896   6.714   8.084  1.3620 -1.6968 -0.1985
 2866TIP3   OH230156   6.191   0.964   3.020 -0.1052 -0.2255 -0.1583
 2866TIP3    H130157   6.150   0.899   2.963 -2.2912 -0.0920  1.1152
 2866TIP3    H230158   6.145   0.954   3.104 -0.9112  3.2517 -0.0330
 2867TIP3   OH230159   4.836   1.426   8.111 -1.0165  0.3376  0.3050
 2867TIP3    H130160   4.816   1.483   8.036  0.9341  1.7410  0.7821
 2867TIP3    H230161   4.760   1.435   8.168 -1.1365  1.8235 -0.0387
 2868TIP3   OH230162   1.732   2.271   7.394  0.3507  0.1406 -0.7383
 2868TIP3    H130163   1.714   2.295   7.304  0.0346 -0.0889 -0.7341
 2868TIP3    H230164   1.650   2.236   7.427  0.7321 -0.6906 -0.6579
 2869TIP3   OH230165   1.922   3.542   0.158  0.2437  0.5157  0.3371
 2869TIP3    H130166   1.957   3.605   0.095  2.4771 -1.0387 -0.0926
 2869TIP3    H230167   1.887   3.471   0.103 -1.4569  0.9204  0.8307
 2870TIP3   OH230168   6.331   6.037   1.937 -0.3777  0.1555  0.1470
 2870TIP3    H130169   6.253   6.090   1.952  0.6173  1.7918 -0.2152
 2870TIP3    H230170   6.404   6.096   1.955  0.7945 -1.3714  0.6282
 2871TIP3   OH230171   3.933   1.579   2.476  0.1392 -0.1514  0.9232
 2871TIP3    H130172   3.898   1.491   2.468  0.8950 -0.4668  0.9491
 2871TIP3    H230173   3.929   1.598   2.570  3.5013 -1.7187  1.5617
 2872TIP3   OH230174   5.132   1.944   3.063  0.2971  0.3984  0.1904
 2872TIP3    H130175   5.081   1.949   3.144 -1.7330  0.3264 -1.0149
 2872TIP3    H230176   5.110   1.859   3.025  2.9167 -0.5568  0.5403
 2873TIP3   OH230177   4.431   2.582   8.085  0.6028 -0.1557  0.6410
 2873TIP3    H130178   4.346   2.541   8.069  1.0468 -1.1908  0.8519
 2873TIP3    H230179   4.412   2.676   8.091 -0.6140 -0.4206  1.2775
 2874TIP3   OH230180   5.424   4.360   1.465 -0.3178  0.0787  0.6429
 2874TIP3    H130181   5.511   4.343   1.427  0.3338  0.6034  1.8283
 2874TIP3    H230182   5.378   4.411   1.398  0.0058 -0.8415 -0.3108
 2875TIP3   OH230183   1.661   4.350   0.396  0.0289 -0.5689  0.3966
 2875TIP3    H130184   1.651   4.274   0.339  0.6353  0.4801 -1.1978
 2875TIP3    H230185   1.742   4.333   0.444 -0.3915 -1.3894  0.8317
 2876TIP3   OH230186   4.692   1.352   7.454 -0.2574 -0.5525 -0.3531
 2876TIP3    H130187   4.661   1.348   7.364  1.5646  0.3237 -1.0685
 2876TIP3    H230188   4.621   1.395   7.502 -0.8938 -0.2292 -1.5421
 2877TIP3   OH230189   6.357   1.007   2.525  0.1276  0.0445  0.7385
 2877TIP3    H130190   6.306   0.928   2.508 -0.3082  0.6289 -0.9089
 2877TIP3    H230191   6.294   1.069   2.561  0.4484 -0.3023  1.9375
 2878TIP3   OH230192   6.012   6.167   0.854 -0.3112 -0.4360  0.3157
 2878TIP3    H130193   6.094   6.122   0.833 -0.3467 -1.7590  2.6155
 2878TIP3    H230194   5.972   6.112   0.921 -2.3178  1.0341  0.3924
 2879TIP3   OH230195   0.805   0.010   0.228  0.6093 -0.4231  0.0445
 2879TIP3    H130196   0.722  -0.029   0.256  0.1480 -0.1442 -0.8842
 2879TIP3    H230197   0.858   0.013   0.307 -0.7232  0.5819  0.9487
 2880TIP3   OH230198   6.149   0.606   0.847 -0.5191  0.1745  0.0374
 2880TIP3    H130199   6.067   0.655   0.840  0.0798  1.1509 -0.2570
 2880TIP3    H230200   6.182   0.602   0.757 -0.2319 -0.2158  0.1539
 2881TIP3   OH230201   5.297   6.763   7.447  0.0355  0.3756 -0.4176
 2881TIP3    H130202   5.294   6.667   7.441  0.8082  0.1857  1.5212
 2881TIP3    H230203   5.206   6.790   7.451 -0.1848 -0.3084 -0.7711
 2882TIP3   OH230204   3.646   0.525   8.305 -0.2712  0.9297  0.2002
 2882TIP3    H130205   3.618   0.485   8.222 -0.1534 -0.8258  0.9552
 2882TIP3    H230206   3.567   0.566   8.339 -1.3590 -1.5937  0.9703
 2883TIP3   OH230207   1.154   1.795   2.164  0.2084 -0.4411  0.2768
 2883TIP3    H130208   1.191   1.744   2.236 -2.4127 -0.4805  1.7013
 2883TIP3    H230209   1.072   1.830   2.198  0.5318  2.4575 -1.5871
 2884TIP3   OH230210   5.976   5.251   1.524  0.3893  0.0830  0.0987
 2884TIP3    H130211   6.029   5.234   1.447 -0.1505  0.2202 -0.3052
 2884TIP3    H230212   5.910   5.181   1.524  1.1827 -0.7191  1.1767
 2885TIP3   OH230213   4.989   1.464   3.115 -0.1097 -0.3943 -0.2175
 2885TIP3    H130214   4.911   1.408   3.109  0.0133 -0.5715 -0.1770
 2885TIP3    H230215   4.954   1.553   3.126 -0.3064 -0.4424 -0.4490
 2886TIP3   OH230216   2.928   5.353   7.840 -0.5297  0.6398 -0.2262
 2886TIP3    H130217   2.966   5.352   7.752  0.4638 -0.7257  0.1830
 2886TIP3    H230218   2.990   5.404   7.892 -0.7487  0.8456 -0.1675
 2887TIP3   OH230219   2.839   1.908   7.358 -0.0067 -0.0006  0.5842
 2887TIP3    H130220   2.771   1.861   7.310 -1.7826  0.7176  2.2752
 2887TIP3    H230221   2.915   1.850   7.354 -0.5373 -0.6096 -1.7552
 2888TIP3   OH230222   4.267   6.236   8.271 -0.2509  0.2344  0.0721
 2888TIP3    H130223   4.324   6.288   8.215 -3.0481  3.1405 -0.3723
 2888TIP3    H230224   4.290   6.260   8.360 -0.1666  0.6882 -0.0732
 2889TIP3   OH230225   1.005   6.634   1.924  0.3813  0.4971 -0.4323
 2889TIP3    H130226   1.045   6.715   1.955 -0.9935  0.3836  1.8016
 2889TIP3    H230227   0.925   6.662   1.879  0.7256  0.4568 -1.0829
 2890TIP3   OH230228   1.959   1.176   7.702  0.5786 -0.0570 -0.8907
 2890TIP3    H130229   1.915   1.189   7.618  0.2879  0.8642 -0.6095
 2890TIP3    H230230   1.925   1.092   7.733  1.1444 -0.7013 -1.9530
 2891TIP3   OH230231   4.386   2.704   3.182 -0.1144  0.1689  0.1271
 2891TIP3    H130232   4.316   2.768   3.188 -0.7179 -0.4623 -0.0698
 2891TIP3    H230233   4.463   2.755   3.157 -1.1748  0.4941 -2.9168
 2892TIP3   OH230234   0.610   2.749   1.492 -0.3648 -0.3090 -0.1313
 2892TIP3    H130235   0.629   2.843   1.499  1.5665 -0.5783 -1.0072
 2892TIP3    H230236   0.556   2.741   1.414 -1.2360  0.1543  0.4180
 2893TIP3   OH230237   5.131   0.783   7.780 -0.3391  0.0265 -0.2773
 2893TIP3    H130238   5.131   0.729   7.701 -0.1209 -0.9966  0.3932
 2893TIP3    H230239   5.060   0.846   7.766 -0.3047 -0.1460 -1.2769
 2894TIP3   OH230240   3.074   2.253   2.297 -0.3735  0.1234 -0.0297
 2894TIP3    H130241   3.078   2.214   2.210  2.5472  0.4316 -0.1221
 2894TIP3    H230242   3.129   2.331   2.291 -0.0516  0.1212  2.0936
 2895TIP3   OH230243   3.232   2.408   2.789 -0.3927 -0.2844  0.4955
 2895TIP3    H130244   3.285   2.386   2.866  0.0283 -1.2175 -0.0482
 2895TIP3    H230245   3.276   2.484   2.751  0.7160 -1.1713 -0.0692
 2896TIP3   OH230246   2.288   3.771   1.846  0.3319 -0.0329  0.0395
 2896TIP3    H130247   2.200   3.806   1.831  0.3389 -0.1451 -0.2835
 2896TIP3    H230248   2.280   3.720   1.927  0.0892 -0.0738 -0.0083
 2897TIP3   OH230249   5.877   5.288   0.255 -0.5981  0.4164 -1.1887
 2897TIP3    H130250   5.948   5.264   0.196 -0.3647  0.0145 -0.7550
 2897TIP3    H230251   5.799   5.287   0.201 -0.7638 -2.2658 -1.0408
 2898TIP3   OH230252   0.893   1.896   2.684 -0.2334  0.6069  0.4747
 2898TIP3    H130253   0.930   1.840   2.751  0.8529  2.7599  1.7891
 2898TIP3    H230254   0.808   1.924   2.719 -1.4293 -1.1628 -0.7830
 2899TIP3   OH230255   4.949   0.178   7.723 -0.0885 -0.2905 -0.4266
 2899TIP3    H130256   5.032   0.179   7.677 -0.3072 -0.5555 -0.8331
 2899TIP3    H230257   4.922   0.086   7.722  0.2110 -0.4082  0.7870
 2900TIP3   OH230258   5.339   5.220   1.454 -0.2474  0.3438  0.3407
 2900TIP3    H130259   5.254   5.239   1.495 -1.0979  1.3044 -1.6975
 2900TIP3    H230260   5.399   5.206   1.527 -1.4809  2.6844  1.9283
 2901TIP3   OH230261   6.202   2.251   2.619 -0.3534  0.6862  0.1141
 2901TIP3    H130262   6.143   2.256   2.544 -0.0709  0.9915 -0.0856
 2901TIP3    H230263   6.251   2.333   2.618  2.2087 -0.7158 -1.4695
 2902TIP3   OH230264   5.532   0.822   1.982  0.4742 -0.7689 -0.4833
 2902TIP3    H130265   5.575   0.743   1.951  0.8827 -0.7200 -0.0413
 2902TIP3    H230266   5.464   0.791   2.042  0.8138 -0.7650 -0.1007
 2903TIP3   OH230267   4.545   6.486   6.725  0.0369 -0.0949 -0.1549
 2903TIP3    H130268   4.627   6.532   6.744  0.3999  1.0443 -3.7394
 2903TIP3    H230269   4.488   6.552   6.685 -0.8917 -1.8322 -1.8981
 2904TIP3   OH230270   1.680   1.625   1.312  0.2907  0.0908  0.3471
 2904TIP3    H130271   1.676   1.705   1.364  1.1800  0.5410 -0.2458
 2904TIP3    H230272   1.769   1.592   1.326 -0.0961 -0.8412  0.6546
 2905TIP3   OH230273   4.013   3.478   2.334 -0.0490  0.1386 -0.4940
 2905TIP3    H130274   4.061   3.430   2.401 -1.4696 -0.4767  0.1278
 2905TIP3    H230275   4.043   3.568   2.343  1.1054 -0.2515 -0.2586
 2906TIP3   OH230276   6.673   4.798   0.018  0.1125 -0.3837 -0.3287
 2906TIP3    H130277   6.584   4.800   0.055  0.2747 -2.3328  0.3006
 2906TIP3    H230278   6.731   4.799   0.094  0.5631 -0.9261 -0.6598
 2907TIP3   OH230279   4.273   5.076   8.413  0.1440 -0.1029  0.3507
 2907TIP3    H130280   4.320   5.086   8.330  0.8678  0.1970  0.7881
 2907TIP3    H230281   4.337   5.100   8.480 -0.5278 -0.0445  0.9830
 2908TIP3   OH230282   2.635   2.186   0.470 -0.4098 -0.2657  0.4479
 2908TIP3    H130283   2.613   2.160   0.559 -0.1325  0.3074  0.6896
 2908TIP3    H230284   2.574   2.136   0.415 -1.3147  0.1769  1.0172
 2909TIP3   OH230285   2.854   1.892   1.748  0.1655 -0.1117 -0.2048
 2909TIP3    H130286   2.796   1.894   1.824 -0.7941 -1.3739 -0.8773
 2909TIP3    H230287   2.932   1.939   1.777 -1.0825  1.4658  0.7850
 2910TIP3   OH230288   6.004   2.853   2.468 -0.0315 -0.3492  0.4633
 2910TIP3    H130289   5.941   2.925   2.476 -0.8368 -0.8582 -0.8355
 2910TIP3    H230290   6.019   2.824   2.558 -2.8670 -1.1962  0.7771
 2911TIP3   OH230291   2.442   1.289   2.331  0.0094  0.5215  0.7611
 2911TIP3    H130292   2.369   1.275   2.271 -0.3347  1.4394  0.9495
 2911TIP3    H230293   2.520   1.275   2.277 -0.2953 -0.3632  0.5344
 2912TIP3   OH230294   0.301   1.991   8.325  0.1294 -0.4496  0.5589
 2912TIP3    H130295   0.257   1.907   8.312  1.4592 -0.8646 -1.7421
 2912TIP3    H230296   0.229   2.055   8.329 -0.7939 -1.2681 -1.6581
 2913TIP3   OH230297   6.108   1.987   1.009  0.0918  0.4749 -0.0726
 2913TIP3    H130298   6.196   1.970   1.045  0.7864  0.3255 -1.7547
 2913TIP3    H230299   6.053   1.919   1.047  1.2175 -0.8813 -0.7912
 2914TIP3   OH230300   4.794   3.977   1.782 -0.1573  0.2871 -0.2506
 2914TIP3    H130301   4.778   3.962   1.689  2.9827 -0.1384 -0.8387
 2914TIP3    H230302   4.756   3.901   1.826 -0.1232 -0.4119 -1.3951
 2915TIP3   OH230303   5.802   3.731   0.462  0.1614 -0.1586 -0.3340
 2915TIP3    H130304   5.854   3.807   0.436 -0.8430  0.7292  0.1907
 2915TIP3    H230305   5.814   3.668   0.390  1.1985  0.3852 -0.6610
 2916TIP3   OH230306   5.567   6.296   7.886  0.1908  0.2385  0.6445
 2916TIP3    H130307   5.634   6.234   7.916 -0.6361 -1.5361 -0.9813
 2916TIP3    H230308   5.488   6.272   7.934 -0.2959 -0.4132 -0.4593
 2917TIP3   OH230309   5.010   0.720   2.519 -0.2313  0.3540 -0.2643
 2917TIP3    H130310   5.104   0.718   2.502 -0.0046 -0.6405  0.9644
 2917TIP3    H230311   4.985   0.628   2.526 -1.3310  0.6010 -0.7286
 2918TIP3   OH230312   4.126   4.730   1.512  0.1806 -0.1178  0.0115
 2918TIP3    H130313   4.145   4.644   1.474 -3.7139 -1.2066  0.1139
 2918TIP3    H230314   4.186   4.737   1.586  0.4940 -2.8411  0.1203
 2919TIP3   OH230315   4.183   5.712   8.657 -0.2233  0.0721  0.3285
 2919TIP3    H130316   4.242   5.736   8.585  0.1392 -0.7000  0.3660
 2919TIP3    H230317   4.207   5.771   8.728  0.1729  0.0909  0.1808
 2920TIP3   OH230318   0.977   4.312   1.180  1.0313 -0.4408  0.1203
 2920TIP3    H130319   0.948   4.302   1.271  1.2200 -1.1780  0.1016
 2920TIP3    H230320   0.896   4.305   1.129  1.0487 -1.0626  0.1661
 2921TIP3   OH230321   4.764   4.526   1.544  0.2896  0.2045  0.5582
 2921TIP3    H130322   4.737   4.617   1.539  0.0012  0.0529 -1.9504
 2921TIP3    H230323   4.685   4.478   1.569 -0.1469  0.4511 -0.2926
 2922TIP3   OH230324   2.142   4.856   1.409  0.6025  0.1324 -0.5564
 2922TIP3    H130325   2.084   4.831   1.337 -1.0971  0.1918  0.7427
 2922TIP3    H230326   2.121   4.794   1.479  1.0951  1.0439  0.4206
 2923TIP3   OH230327   3.491   4.528   0.822 -0.4558  1.0231 -0.3129
 2923TIP3    H130328   3.401   4.561   0.825 -0.6371  0.4656  0.7571
 2923TIP3    H230329   3.520   4.529   0.913  0.0750 -0.2700 -0.4519
 2924TIP3   OH230330   4.068   3.231   2.526 -0.0261 -0.7776 -0.6571
 2924TIP3    H130331   4.017   3.152   2.544  0.6009 -1.7433 -2.7711
 2924TIP3    H230332   4.138   3.202   2.469  2.6410  0.6115  1.6482
 2925TIP3   OH230333   3.064   4.231   0.389  0.2980 -0.2461 -0.3185
 2925TIP3    H130334   3.145   4.221   0.339  1.5239 -0.4315  1.6138
 2925TIP3    H230335   3.048   4.325   0.390  1.2321 -0.0802  0.3672
 2926TIP3   OH230336   4.523   6.375   7.608 -0.2983 -0.2506  0.0285
 2926TIP3    H130337   4.486   6.309   7.666  0.8421 -0.5648  0.4272
 2926TIP3    H230338   4.487   6.354   7.522  0.4914 -1.7815  0.0264
 2927TIP3   OH230339   5.868   0.730   2.037  0.0851  0.2128 -0.2005
 2927TIP3    H130340   5.873   0.826   2.040 -0.6406  0.2339  1.2803
 2927TIP3    H230341   5.774   0.711   2.032  0.2165 -0.4199 -0.3500
 2928TIP3   OH230342   0.758   4.707   2.402 -0.0008  0.1402 -0.0384
 2928TIP3    H130343   0.749   4.681   2.494  0.8983  2.0184  0.6450
 2928TIP3    H230344   0.748   4.802   2.403 -1.2349  0.0912 -2.0955
 2929TIP3   OH230345   0.500   5.578   0.917 -0.2313  0.5403  0.0625
 2929TIP3    H130346   0.508   5.674   0.912  0.3101  0.6522  2.0239
 2929TIP3    H230347   0.584   5.549   0.952 -0.6210 -0.5854  0.0991
 2930TIP3   OH230348   2.656   4.646   2.007  0.0746  0.5358 -0.1683
 2930TIP3    H130349   2.689   4.702   2.077  1.7483  0.4722 -0.8579
 2930TIP3    H230350   2.726   4.583   1.991 -1.8838 -2.0449  0.8080
 2931TIP3   OH230351   4.932   5.074   8.224  0.4906 -0.2426  0.5875
 2931TIP3    H130352   4.858   5.114   8.178  1.9145  0.5820 -1.1282
 2931TIP3    H230353   4.996   5.145   8.230  0.7731 -0.6295  3.0058
 2932TIP3   OH230354   2.073   2.543   7.858  0.2018  0.5250 -0.3622
 2932TIP3    H130355   2.010   2.504   7.918 -0.2923  1.0062 -0.5516
 2932TIP3    H230356   2.159   2.517   7.891 -0.0767  0.5194  0.3616
 2933TIP3   OH230357   1.648   5.390   8.553  0.0699  0.0613 -0.3444
 2933TIP3    H130358   1.731   5.400   8.506  0.0566 -2.5832 -1.0888
 2933TIP3    H230359   1.590   5.455   8.514  1.2385  0.6570 -1.1439
 2934TIP3   OH230360   5.541   4.339   7.672  0.2648  0.0836 -0.2499
 2934TIP3    H130361   5.546   4.353   7.766  0.5251  0.1499 -0.2730
 2934TIP3    H230362   5.540   4.428   7.635 -1.5053  0.1154 -0.2362
 2935TIP3   OH230363   4.670   2.106   7.152 -0.1940  0.0965  0.1348
 2935TIP3    H130364   4.690   2.108   7.059 -0.0621  1.1292  0.1709
 2935TIP3    H230365   4.753   2.130   7.195 -0.4510  0.3852  0.4778
 2936TIP3   OH230366   2.107   1.390   8.598 -0.0723 -0.1494  0.0327
 2936TIP3    H130367   2.175   1.436   8.550  1.4251 -1.8949  0.3662
 2936TIP3    H230368   2.030   1.394   8.542  0.7963  0.3814 -1.1517
 2937TIP3   OH230369   4.774   2.346   1.285  0.2537  0.1057  0.0388
 2937TIP3    H130370   4.722   2.279   1.239 -0.8848  1.1644 -0.2718
 2937TIP3    H230371   4.715   2.379   1.352  1.0653  0.2976  0.6634
 2938TIP3   OH230372   4.768   1.777   2.125 -0.0368  0.0584 -0.0869
 2938TIP3    H130373   4.746   1.870   2.133 -1.2458 -0.2587  0.5472
 2938TIP3    H230374   4.841   1.775   2.063  0.9719  1.5337  1.0088
 2939TIP3   OH230375   2.834   4.344   8.338  0.2046  0.3895 -0.1013
 2939TIP3    H130376   2.784   4.421   8.309 -1.9404 -0.4979  1.0151
 2939TIP3    H230377   2.890   4.322   8.264 -1.7957  0.8942 -1.8520
 2940TIP3   OH230378   4.929   3.212   1.981 -0.3830 -0.4791 -0.2470
 2940TIP3    H130379   4.896   3.260   2.057 -2.1979 -0.1673 -1.1760
 2940TIP3    H230380   4.901   3.122   1.995 -1.2426 -0.3146 -0.7765
 2941TIP3   OH230381   1.441   2.694   7.229 -0.0157  0.0665 -0.0930
 2941TIP3    H130382   1.483   2.609   7.212 -0.0732  0.5414 -3.1369
 2941TIP3    H230383   1.400   2.683   7.315  3.2116 -1.6462  1.4321
 2942TIP3   OH230384   5.850   1.262   0.637  0.1978  0.2551 -0.7808
 2942TIP3    H130385   5.817   1.350   0.658 -0.0300  0.0379 -0.1934
 2942TIP3    H230386   5.944   1.268   0.652 -0.1681 -0.5351  2.9450
 2943TIP3   OH230387   3.342   4.006   0.775 -0.2168  0.0216  0.1467
 2943TIP3    H130388   3.277   4.022   0.706  0.1738  0.1741 -0.1905
 2943TIP3    H230389   3.425   4.035   0.737  0.5180 -2.6010 -0.4343
 2944TIP3   OH230390   4.967   1.984   1.325  0.5676  1.2591 -0.2613
 2944TIP3    H130391   4.997   2.046   1.391  0.4979  0.0196  0.9608
 2944TIP3    H230392   4.965   1.900   1.369 -2.1540  0.8239 -1.0498
 2945TIP3   OH230393   6.046   2.443   1.928 -0.1089 -0.0606  0.0219
 2945TIP3    H130394   6.077   2.391   2.002 -0.7035  0.0335  0.3446
 2945TIP3    H230395   5.951   2.430   1.927 -0.0580 -0.4834 -1.0529
 2946TIP3   OH230396   4.569   5.042   8.579 -0.0548 -0.1233  0.3016
 2946TIP3    H130397   4.624   5.009   8.508 -0.3753  1.2927 -0.6498
 2946TIP3    H230398   4.541   5.128   8.549 -1.4506 -0.1317  1.4973
 2947TIP3   OH230399   3.490   6.339   8.755 -0.0271 -0.5360  0.7232
 2947TIP3    H130400   3.514   6.431   8.743 -0.4403 -0.5854 -0.6279
 2947TIP3    H230401   3.478   6.306   8.666 -2.2934 -1.2666  1.2352
 2948TIP3   OH230402   5.816   5.013   1.743 -0.2252 -0.1405 -0.4161
 2948TIP3    H130403   5.761   5.043   1.815 -0.4760 -2.1630  0.3103
 2948TIP3    H230404   5.901   4.996   1.783  0.0834  0.1993 -0.9212
 2949TIP3   OH230405   3.104   1.080   8.437 -0.6872 -0.2582  0.5118
 2949TIP3    H130406   3.038   1.014   8.415 -1.5598  0.5068  0.7787
 2949TIP3    H230407   3.062   1.163   8.417  0.0282  0.2583  1.1372
 2950TIP3   OH230408   3.513   3.045   1.453 -0.6093  0.3524  0.2129
 2950TIP3    H130409   3.581   3.002   1.504 -0.2214 -0.1877 -0.7279
 2950TIP3    H230410   3.435   2.990   1.466  0.2089 -1.5400 -2.0634
 2951TIP3   OH230411   6.104   6.052   2.509  0.0556  0.2126 -0.0732
 2951TIP3    H130412   6.199   6.046   2.496  0.0648  0.1318  0.0300
 2951TIP3    H230413   6.090   6.141   2.542  0.1002  0.2117 -0.0508
 2952TIP3   OH230414   1.041   0.649   1.689  0.4116  0.5666 -0.1849
 2952TIP3    H130415   0.972   0.678   1.749  2.0461 -0.8377  2.5939
 2952TIP3    H230416   1.010   0.565   1.655  0.3140  0.4136  0.2774
 2953TIP3   OH230417   0.698   3.533   0.253 -0.8254  0.4834 -0.3942
 2953TIP3    H130418   0.697   3.569   0.342 -0.6314 -1.0989  0.2866
 2953TIP3    H230419   0.745   3.449   0.261 -0.4202  0.5025 -2.0746
 2954TIP3   OH230420   2.762   5.756   7.456  0.2547  0.1784 -0.0437
 2954TIP3    H130421   2.792   5.693   7.522 -1.0707  0.1033  0.5323
 2954TIP3    H230422   2.815   5.834   7.471  1.0646 -0.3816  0.0555
 2955TIP3   OH230423   2.304   1.387   7.925  0.0775 -0.2014  0.3206
 2955TIP3    H130424   2.299   1.395   8.020 -0.1392 -0.7728  0.3625
 2955TIP3    H230425   2.392   1.353   7.908 -0.5364 -1.9948  0.4740
 2956TIP3   OH230426   0.219   1.688   7.701 -0.6386 -0.2039  0.7538
 2956TIP3    H130427   0.289   1.668   7.639  0.3956  1.4127  1.3410
 2956TIP3    H230428   0.176   1.603   7.716 -0.1052 -0.8573 -1.1484
 2957TIP3   OH230429   2.782   1.537   2.280 -0.4155 -0.2015  0.3942
 2957TIP3    H130430   2.754   1.449   2.254 -0.2545 -0.1624  0.0859
 2957TIP3    H230431   2.705   1.575   2.323 -0.6167 -0.3424  0.1586
 2958TIP3   OH230432   2.453   5.379   7.341  0.1755 -0.2879 -0.1106
 2958TIP3    H130433   2.367   5.383   7.299  0.0154  0.8313  0.2856
 2958TIP3    H230434   2.489   5.467   7.330  1.3121 -0.7625 -0.3409
 2959TIP3   OH230435   4.437   2.096   2.739 -0.3696 -0.5792 -0.5589
 2959TIP3    H130436   4.359   2.107   2.794 -0.8190 -1.5247 -0.9924
 2959TIP3    H230437   4.460   2.185   2.713 -1.0413 -0.2534 -0.0639
 2960TIP3   OH230438   2.287   1.057   0.455 -0.0263  0.3558 -0.7581
 2960TIP3    H130439   2.340   1.091   0.528 -0.3576 -0.7706  0.0263
 2960TIP3    H230440   2.342   0.990   0.415 -0.7356 -0.6399 -0.0999
 2961TIP3   OH230441   1.123   5.513   0.455  0.0269  0.4543 -0.6748
 2961TIP3    H130442   1.096   5.422   0.472 -1.7921  1.1382  0.3346
 2961TIP3    H230443   1.208   5.521   0.499  0.8290 -1.0842 -1.8420
 2962TIP3   OH230444   5.237   5.310   8.082  0.3921  0.1391  0.3473
 2962TIP3    H130445   5.204   5.308   8.172  0.3169  2.4905  0.4331
 2962TIP3    H230446   5.228   5.219   8.051 -0.9135 -0.4296  2.2162
 2963TIP3   OH230447   4.803   5.024   0.344 -0.7072 -0.0096  0.0380
 2963TIP3    H130448   4.743   4.980   0.405 -1.6201 -0.0580 -0.8801
 2963TIP3    H230449   4.756   5.025   0.261  0.9042 -0.8169 -0.9285
 2964TIP3   OH230450   6.252   5.084   2.776 -0.2524 -0.2207 -0.3784
 2964TIP3    H130451   6.189   5.129   2.833 -1.9557 -0.0487 -2.2588
 2964TIP3    H230452   6.259   4.996   2.813  1.4303  0.8320  2.0723
 2965TIP3   OH230453   3.944   2.177   2.375 -0.0622  0.5328  0.2036
 2965TIP3    H130454   3.921   2.208   2.462 -1.5009 -0.4649  0.2089
 2965TIP3    H230455   3.889   2.227   2.315 -1.3706 -0.9087  0.1216
 2966TIP3   OH230456   2.765   3.911   1.830  0.1383  0.0387 -0.2776
 2966TIP3    H130457   2.802   3.947   1.750 -2.3840  0.1185 -1.5013
 2966TIP3    H230458   2.736   3.989   1.879 -0.0260 -0.0834 -0.1805
 2967TIP3   OH230459   5.204   0.163   0.507  0.3331  0.0843 -0.0300
 2967TIP3    H130460   5.147   0.193   0.437 -0.6048 -0.4452  0.4878
 2967TIP3    H230461   5.266   0.104   0.463  0.9423  1.1857 -0.7054
 2968TIP3   OH230462   6.785   3.007   2.922  0.2324 -1.0282  0.3304
 2968TIP3    H130463   6.716   2.993   2.987 -1.8995  1.0208 -1.3327
 2968TIP3    H230464   6.862   3.030   2.973 -1.1904 -0.1444  2.1895
 2969TIP3   OH230465   6.090   1.029   1.961 -0.0422 -0.0838  0.7281
 2969TIP3    H130466   6.150   0.979   1.906  0.0988  1.5653 -0.6867
 2969TIP3    H230467   6.004   0.990   1.944  0.2136 -0.5457  0.4878
 2970TIP3   OH230468   1.800   5.481   0.465 -0.0424 -0.1910  0.4649
 2970TIP3    H130469   1.708   5.461   0.448 -0.1155  1.1882 -1.0212
 2970TIP3    H230470   1.806   5.489   0.560 -1.8914  1.4864  0.5031
 2971TIP3   OH230471   3.236   5.219   0.950  0.0691  0.0711  0.7309
 2971TIP3    H130472   3.190   5.288   0.997 -3.0944 -0.9255 -0.6315
 2971TIP3    H230473   3.261   5.156   1.018 -1.4866  0.2146  1.4735
 2972TIP3   OH230474   4.213   5.011   7.579 -0.1032 -0.1292  0.5693
 2972TIP3    H130475   4.304   5.002   7.553  0.2227 -0.4531  1.8011
 2972TIP3    H230476   4.163   4.988   7.499  0.8733  0.8989 -0.3646
 2973TIP3   OH230477   0.228   4.661   7.197 -0.4713 -0.1686 -0.5633
 2973TIP3    H130478   0.319   4.632   7.209 -0.5855 -0.7153 -0.9704
 2973TIP3    H230479   0.175   4.588   7.229 -0.7662 -0.0838 -0.8542
 2974TIP3   OH230480   1.102   1.813   1.468  0.3524  0.5147  0.4771
 2974TIP3    H130481   1.141   1.888   1.424  0.2840 -0.0340 -0.5442
 2974TIP3    H230482   1.103   1.836   1.561  0.7993  1.5546  0.2221
 2975TIP3   OH230483   4.876   3.713   1.133 -0.0295  0.0147 -0.3050
 2975TIP3    H130484   4.833   3.641   1.086 -0.5985 -0.2062  0.5236
 2975TIP3    H230485   4.883   3.681   1.223 -1.0553  1.3094  0.2664
 2976TIP3   OH230486   2.589   2.601   1.319  0.0067 -0.0076  0.6120
 2976TIP3    H130487   2.666   2.545   1.332 -0.5998 -0.6203  1.7167
 2976TIP3    H230488   2.551   2.571   1.237 -0.1047 -0.9809  1.0102
 2977TIP3   OH230489   6.185   6.140   0.016 -0.1957  0.1206  0.1305
 2977TIP3    H130490   6.275   6.114  -0.006  0.9167  2.7050  1.1916
 2977TIP3    H230491   6.155   6.188  -0.062 -0.0130  0.7289  0.4358
 2978TIP3   OH230492   4.692   2.103   1.073 -0.3119  0.8633 -0.8056
 2978TIP3    H130493   4.642   2.170   1.027 -2.1686 -0.0312 -0.2203
 2978TIP3    H230494   4.649   2.097   1.159  1.6309  0.9169  0.2146
 2979TIP3   OH230495   2.764   4.399   8.766 -0.4100 -0.0677  0.2728
 2979TIP3    H130496   2.850   4.402   8.808  0.3658 -0.2740 -1.2243
 2979TIP3    H230497   2.773   4.333   8.697 -1.4299  0.6796 -0.6111
 2980TIP3   OH230498   5.168   4.373   0.714  0.0684  0.5315 -0.2441
 2980TIP3    H130499   5.181   4.468   0.718 -0.0588  0.5050  1.3695
 2980TIP3    H230500   5.217   4.339   0.789  0.2514 -0.7055 -0.8986
 2981TIP3   OH230501   0.214   2.557   7.396 -0.1597  0.2229 -0.2656
 2981TIP3    H130502   0.229   2.523   7.308 -0.8539 -0.2199 -0.2219
 2981TIP3    H230503   0.192   2.480   7.448 -1.1560  0.6526 -0.0270
 2982TIP3   OH230504   0.016   4.510   2.111 -0.8549  0.0306 -0.6816
 2982TIP3    H130505   0.079   4.474   2.173 -1.4314  0.3116  0.0817
 2982TIP3    H230506  -0.065   4.518   2.161 -1.5582 -0.5102 -1.6958
 2983TIP3   OH230507   3.819   6.414   0.343 -0.2685  0.2521  0.0315
 2983TIP3    H130508   3.859   6.441   0.426  0.9618 -2.9637  0.6020
 2983TIP3    H230509   3.734   6.378   0.368 -1.3047  2.1566 -0.5596
 2984TIP3   OH230510   6.450   2.517   0.339  0.0678 -0.1233  0.3008
 2984TIP3    H130511   6.520   2.521   0.274 -1.3359 -0.3441 -1.3026
 2984TIP3    H230512   6.481   2.571   0.412  1.0001  1.5585 -1.2606
 2985TIP3   OH230513   1.514   5.138   8.601 -0.4084 -0.4372  0.0399
 2985TIP3    H130514   1.536   5.218   8.553 -0.8757  0.2893  1.0008
 2985TIP3    H230515   1.500   5.073   8.533  1.3605 -0.0833 -0.7229
 2986TIP3   OH230516   0.650   4.088   1.598  0.0791 -0.3844 -0.0760
 2986TIP3    H130517   0.587   4.125   1.535 -0.7486 -1.2184  0.2378
 2986TIP3    H230518   0.614   4.112   1.684 -0.9352 -2.5710  0.1623
 2987TIP3   OH230519   4.804   4.177   0.926  0.3641  0.1246 -0.1885
 2987TIP3    H130520   4.841   4.092   0.950  2.6081  0.9626 -0.4349
 2987TIP3    H230521   4.774   4.215   1.009  1.3456 -0.0142  0.2391
 2988TIP3   OH230522   5.759   4.867   2.944  0.1293 -0.3138  0.4052
 2988TIP3    H130523   5.723   4.931   3.006  0.7707 -0.3837  0.8594
 2988TIP3    H230524   5.699   4.794   2.947 -0.2363 -0.0162  0.4038
 2989TIP3   OH230525   6.778   1.311   0.109 -0.4031 -0.1165 -0.5499
 2989TIP3    H130526   6.701   1.296   0.163 -0.6500  0.2153 -0.8092
 2989TIP3    H230527   6.757   1.272   0.024  0.0121 -0.6979 -0.3896
 2990TIP3   OH230528   2.228   4.334   8.503  0.2219 -0.2100 -0.4378
 2990TIP3    H130529   2.299   4.355   8.442  1.4102 -1.3667  0.4846
 2990TIP3    H230530   2.273   4.304   8.582 -1.2940 -1.0734  0.1348
 2991TIP3   OH230531   5.565   2.305   1.810 -0.1246 -0.4298  0.1669
 2991TIP3    H130532   5.602   2.367   1.872  1.9410 -0.5985 -0.7985
 2991TIP3    H230533   5.528   2.235   1.864 -0.9848  0.7935  1.2235
 2992TIP3   OH230534   3.759   6.092   1.069 -0.0189  0.5271  0.2287
 2992TIP3    H130535   3.706   6.052   1.000  0.4731  0.5345 -0.1597
 2992TIP3    H230536   3.699   6.101   1.143 -1.5979  3.7683 -1.2606
 2993TIP3   OH230537   6.189   5.735   0.256 -0.3098  0.4116  0.5268
 2993TIP3    H130538   6.263   5.775   0.303  0.4984 -0.0748 -0.3065
 2993TIP3    H230539   6.228   5.667   0.203 -1.1160  1.2888 -1.2929
 2994TIP3   OH230540   6.584   0.837   2.201 -0.8139  0.4033 -0.2352
 2994TIP3    H130541   6.518   0.768   2.188  1.2842 -1.6996 -0.3682
 2994TIP3    H230542   6.649   0.821   2.132  1.2957  0.4939  1.6182
 2995TIP3   OH230543   4.865   0.807   0.352 -0.1483  0.7777 -0.0787
 2995TIP3    H130544   4.899   0.862   0.423 -2.0978  1.9335  0.0356
 2995TIP3    H230545   4.889   0.853   0.272  2.9118 -1.0109 -0.3676
 2996TIP3   OH230546   0.283   2.697   0.485  0.4561  0.0474  0.7753
 2996TIP3    H130547   0.316   2.786   0.471  2.2119 -0.6379  0.3565
 2996TIP3    H230548   0.356   2.651   0.526  0.5659 -1.9396 -1.5155
 2997TIP3   OH230549   4.305   4.157   2.207 -0.0221 -0.8045 -0.5527
 2997TIP3    H130550   4.322   4.107   2.286  1.7792 -1.9207 -1.5762
 2997TIP3    H230551   4.347   4.242   2.222 -1.8570 -0.0567  0.6250
 2998TIP3   OH230552   3.916   3.436   0.908 -0.2677  0.3139 -0.3900
 2998TIP3    H130553   3.929   3.523   0.869  2.3074  1.4969  2.6593
 2998TIP3    H230554   3.822   3.431   0.926 -0.3848  2.8646  0.0851
 2999TIP3   OH230555   0.963   5.195   7.819  0.3615  0.2052 -0.1173
 2999TIP3    H130556   1.054   5.188   7.791  0.2063 -0.0966 -0.5616
 2999TIP3    H230557   0.964   5.259   7.889  0.7172  1.2421 -1.0477
 3000TIP3   OH230558   5.234   2.267   0.692 -0.9362 -0.0173 -0.2300
 3000TIP3    H130559   5.245   2.174   0.673 -2.7394 -0.7968  1.9631
 3000TIP3    H230560   5.302   2.287   0.756 -0.2676  0.3074 -1.0337
 3001TIP3   OH230561   2.799   6.726   0.586  0.0816  0.0014  0.6122
 3001TIP3    H130562   2.831   6.663   0.521 -0.8018  1.7754 -1.6624
 3001TIP3    H230563   2.714   6.692   0.613 -0.3928  0.1586 -0.6089
 3002TIP3   OH230564   1.337   3.739   1.947 -0.3383 -0.0836  0.3765
 3002TIP3    H130565   1.324   3.833   1.930 -1.8372 -0.5671 -1.5996
 3002TIP3    H230566   1.253   3.710   1.982  0.0804 -0.7168  0.8737
 3003TIP3   OH230567   1.669   4.275   2.707 -0.5688  0.2734 -0.4735
 3003TIP3    H130568   1.727   4.340   2.668  2.0589 -1.0043  1.0846
 3003TIP3    H230569   1.650   4.309   2.795 -2.7455  0.9415 -1.1314
 3004TIP3   OH230570   1.524   5.609   8.455  0.2737 -0.3286 -1.0499
 3004TIP3    H130571   1.555   5.594   8.366  1.8410  2.3172 -1.0537
 3004TIP3    H230572   1.588   5.669   8.493 -1.7444  0.6951  0.9925
 3005TIP3   OH230573   3.469   4.731   0.154 -0.1366 -0.0349  0.1177
 3005TIP3    H130574   3.463   4.724   0.059 -0.4084  2.7053 -0.1492
 3005TIP3    H230575   3.384   4.701   0.186 -0.8899  1.1245 -0.7118
 3006TIP3   OH230576   3.223   2.880   8.220 -0.0276 -0.0160  0.4455
 3006TIP3    H130577   3.265   2.825   8.153 -3.2369  0.7224 -2.4368
 3006TIP3    H230578   3.237   2.832   8.302 -0.6619 -4.0138 -1.5409
 3007TIP3   OH230579   2.564   0.517   7.698 -0.3001 -0.0419 -0.0618
 3007TIP3    H130580   2.512   0.438   7.684 -1.2063  0.5461 -0.1138
 3007TIP3    H230581   2.540   0.574   7.625  0.1265  0.3939  0.1320
 3008TIP3   OH230582   5.594   1.560   8.096  0.0795 -0.1503 -0.0183
 3008TIP3    H130583   5.638   1.645   8.100  1.7062 -0.9354 -0.4963
 3008TIP3    H230584   5.502   1.582   8.082  0.3171  1.5509  0.7897
 3009TIP3   OH230585   3.667   5.644   7.105  0.4638 -0.0892 -0.3110
 3009TIP3    H130586   3.625   5.558   7.103  1.5037 -0.6329  0.1134
 3009TIP3    H230587   3.597   5.706   7.086 -0.5474 -0.9421  0.5566
 3010TIP3   OH230588   3.696   1.528   1.773  0.2009  0.1697 -0.3029
 3010TIP3    H130589   3.742   1.574   1.843  0.9246  1.5550 -1.6331
 3010TIP3    H230590   3.645   1.461   1.818  0.3520  1.2414  1.5731
 3011TIP3   OH230591   2.535   4.059   1.571 -0.2163 -0.1472 -0.8234
 3011TIP3    H130592   2.440   4.072   1.562 -0.6812 -0.4861  2.3446
 3011TIP3    H230593   2.545   3.965   1.579  0.0971 -0.0140  0.7082
 3012TIP3   OH230594   6.746   3.702   3.247  0.8086  0.0001  0.1412
 3012TIP3    H130595   6.717   3.612   3.234 -0.6906  0.6317 -1.3145
 3012TIP3    H230596   6.767   3.733   3.159 -3.5311  2.5478 -0.3110
 3013TIP3   OH230597   3.287   0.319   7.540 -0.1884 -0.5241  0.5005
 3013TIP3    H130598   3.261   0.406   7.571  0.1477 -0.5674  0.9225
 3013TIP3    H230599   3.362   0.335   7.483  0.2378 -0.5726  1.0292
 3014TIP3   OH230600   3.357   4.839   8.097 -1.3136  0.0770 -0.1651
 3014TIP3    H130601   3.349   4.760   8.044 -0.2320  0.9188 -1.6599
 3014TIP3    H230602   3.337   4.911   8.037  2.0747  1.2194 -0.1145
 3015TIP3   OH230603   4.966   2.160   0.998  0.2571  0.1267  0.4286
 3015TIP3    H130604   4.957   2.237   0.942 -1.4758 -0.5217 -0.2643
 3015TIP3    H230605   4.876   2.130   1.011  0.8009 -1.0140  1.7840
 3016TIP3   OH230606   2.112   5.495   0.924 -0.2682 -0.2477 -0.2303
 3016TIP3    H130607   2.089   5.527   0.836  0.0275 -0.6547 -0.4634
 3016TIP3    H230608   2.176   5.425   0.907  0.8511  0.5909  0.3688
 3017TIP3   OH230609   1.162   3.942   2.195  0.1867 -0.1902  0.3429
 3017TIP3    H130610   1.235   3.997   2.169 -0.3496  0.1804 -0.4124
 3017TIP3    H230611   1.128   3.906   2.113  0.4854 -1.6015  0.8151
 3018TIP3   OH230612   6.433   5.738   8.664  0.4438 -0.2156 -0.3038
 3018TIP3    H130613   6.465   5.815   8.616  0.4988 -0.1442 -0.1530
 3018TIP3    H230614   6.339   5.736   8.647  0.3726  0.1359  0.0475
 3019TIP3   OH230615   0.035   2.661   1.167 -0.5487 -0.2541 -0.0999
 3019TIP3    H130616  -0.014   2.692   1.091  0.5642 -0.4905 -0.9357
 3019TIP3    H230617   0.011   2.722   1.237 -0.4122  0.9298 -1.0370
 3020TIP3   OH230618   4.837   6.197   2.823 -0.3859  0.2519 -0.2458
 3020TIP3    H130619   4.883   6.138   2.883 -0.9684 -1.2579 -1.2362
 3020TIP3    H230620   4.761   6.147   2.793  0.0883  0.7874 -2.5367
 3021TIP3   OH230621   2.957   5.194   8.525 -0.2635  0.0573  0.0933
 3021TIP3    H130622   2.922   5.259   8.586 -1.8666 -1.1444  0.5203
 3021TIP3    H230623   3.016   5.140   8.579 -0.5067 -0.0745  0.2302
 3022TIP3   OH230624   0.157   1.496   8.645  0.1144  0.0440 -0.4905
 3022TIP3    H130625   0.170   1.582   8.684  0.9274  0.2760 -1.2550
 3022TIP3    H230626   0.245   1.467   8.621 -0.0278 -1.3648  0.5047
 3023TIP3   OH230627   0.545   3.110   8.057 -0.0839 -0.6827 -0.6752
 3023TIP3    H130628   0.632   3.147   8.072 -0.1844 -0.5971 -0.2994
 3023TIP3    H230629   0.540   3.099   7.962 -0.1254  0.4504 -0.8221
 3024TIP3   OH230630   1.795   1.110   0.510 -0.1039 -0.6174  0.0298
 3024TIP3    H130631   1.807   1.171   0.583  0.4376  0.8376 -1.2106
 3024TIP3    H230632   1.874   1.121   0.457  0.0178 -2.4430 -0.2529
 3025TIP3   OH230633   5.520   6.045   8.289 -0.1200  0.3481 -0.5989
 3025TIP3    H130634   5.496   6.052   8.381  1.4834  1.1317 -0.2116
 3025TIP3    H230635   5.522   5.951   8.272  0.5626  0.1558  0.4540
 3026TIP3   OH230636   5.433   0.805   8.382 -0.2593 -0.0388 -0.4635
 3026TIP3    H130637   5.380   0.776   8.456 -0.7289 -0.4531 -0.9611
 3026TIP3    H230638   5.371   0.847   8.322 -0.3778 -2.1354 -1.9064
 3027TIP3   OH230639   1.696   0.572   7.639  0.2922  0.2118 -0.0129
 3027TIP3    H130640   1.661   0.628   7.709  1.3310 -0.0081  0.7027
 3027TIP3    H230641   1.619   0.535   7.597 -0.3908 -1.2776  2.3413
 3028TIP3   OH230642   1.201   1.262   1.495  0.4587 -0.1430  0.4606
 3028TIP3    H130643   1.229   1.342   1.540 -0.5636  1.6565 -1.9113
 3028TIP3    H230644   1.282   1.223   1.463  0.9223  0.2451  1.1368
 3029TIP3   OH230645   0.123   1.361   1.171 -0.1029  0.0156 -0.2121
 3029TIP3    H130646   0.081   1.409   1.099 -2.8504 -1.5669  0.1607
 3029TIP3    H230647   0.055   1.356   1.238  0.9457 -2.1543  0.7747
 3030TIP3   OH230648   0.817   3.821   1.011  1.0637 -0.0272  0.4167
 3030TIP3    H130649   0.853   3.768   1.082 -0.8523 -1.3032  0.5090
 3030TIP3    H230650   0.798   3.758   0.942 -1.8079  0.3823  0.7346
 3031TIP3   OH230651   0.272   1.258   8.539  0.2003 -0.2216  0.2644
 3031TIP3    H130652   0.215   1.335   8.543  0.7046  0.1280  1.1818
 3031TIP3    H230653   0.355   1.291   8.506  0.9037 -0.0184  2.0910
 3032TIP3   OH230654   5.870   1.340   6.965  0.8231 -0.5240  0.6084
 3032TIP3    H130655   5.947   1.370   6.916  0.7543  2.8923  2.2470
 3032TIP3    H230656   5.905   1.309   7.048  0.5317 -0.1223  0.8841
 3033TIP3   OH230657   2.645   1.750   7.214 -0.4258  0.0107  0.2458
 3033TIP3    H130658   2.620   1.807   7.142  0.2044 -1.9691 -1.6259
 3033TIP3    H230659   2.656   1.664   7.175  2.0514 -0.7516  2.2987
 3034TIP3   OH230660   0.614   1.090   0.536  0.0386 -0.0440 -0.0123
 3034TIP3    H130661   0.687   1.152   0.535  1.1194 -1.2716 -0.4034
 3034TIP3    H230662   0.603   1.067   0.628  0.7811 -0.5578 -0.0442
 3035TIP3   OH230663   5.079   0.856   0.591  0.4757 -0.0408 -0.2483
 3035TIP3    H130664   5.119   0.787   0.539  0.0236 -0.0139 -0.6466
 3035TIP3    H230665   5.087   0.827   0.682 -2.1949 -2.0087 -0.5079
 3036TIP3   OH230666   0.286   3.715   7.027 -0.2014  0.1033 -0.3615
 3036TIP3    H130667   0.309   3.711   7.119  1.5978  2.2578 -0.6374
 3036TIP3    H230668   0.212   3.654   7.018  0.3694 -1.0961  2.2092
 3037TIP3   OH230669   6.221   4.553   8.018 -0.6589  0.2113 -0.2390
 3037TIP3    H130670   6.308   4.520   8.040 -1.9843 -4.1117 -0.5527
 3037TIP3    H230671   6.211   4.533   7.925 -1.9787  0.6997 -0.2223
 3038TIP3   OH230672   3.307   1.522   1.545  0.4353  0.1198  0.8105
 3038TIP3    H130673   3.253   1.560   1.476 -1.0605 -0.1972  1.7708
 3038TIP3    H230674   3.372   1.589   1.564 -0.1669  0.8843  0.2473
 3039TIP3   OH230675   6.081   2.492   1.645  0.2324 -0.4100  0.1003
 3039TIP3    H130676   5.995   2.470   1.608  0.9905 -2.7587 -0.5013
 3039TIP3    H230677   6.079   2.456   1.734  0.0171  1.0755  0.7098
 3040TIP3   OH230678   0.897   4.433   0.808 -0.8714 -0.6354 -0.6611
 3040TIP3    H130679   0.870   4.427   0.716  0.2713 -0.6901 -1.0070
 3040TIP3    H230680   0.954   4.357   0.821 -0.1120 -0.0077 -0.2349
 3041TIP3   OH230681   4.309   0.692   7.684  0.1190 -0.0098 -0.0196
 3041TIP3    H130682   4.227   0.687   7.634 -0.8998 -1.2989  1.6669
 3041TIP3    H230683   4.307   0.780   7.724 -1.2966 -0.5941  1.2972
 3042TIP3   OH230684   1.081   5.595   1.333 -0.9748 -0.0361 -0.7536
 3042TIP3    H130685   1.043   5.518   1.376 -2.6527 -0.3547 -2.6643
 3042TIP3    H230686   1.174   5.590   1.354 -1.3410 -1.4638  0.8043
 3043TIP3   OH230687   1.678   2.670   1.768  0.5319  0.2952 -0.7459
 3043TIP3    H130688   1.635   2.708   1.692  0.0008  0.3389 -0.4346
 3043TIP3    H230689   1.705   2.745   1.821  1.1325  0.2698 -1.0154
 3044TIP3   OH230690   4.658   0.750   0.606  0.0682  0.5964 -0.6777
 3044TIP3    H130691   4.630   0.684   0.542  0.0621 -1.2296  1.1268
 3044TIP3    H230692   4.618   0.832   0.575 -0.3747 -0.3268 -2.6776
 3045TIP3   OH230693   4.072   0.138   8.205 -0.1535  0.1513 -0.4773
 3045TIP3    H130694   3.997   0.177   8.250 -0.3872 -2.8844  2.0762
 3045TIP3    H230695   4.035   0.065   8.155  0.9937 -0.9609  0.2518
 3046TIP3   OH230696   3.305   0.171   7.290 -0.0677 -0.2541  0.1197
 3046TIP3    H130697   3.240   0.225   7.245  0.9714  2.0899  1.2263
 3046TIP3    H230698   3.254   0.110   7.343 -1.3289  0.4380 -0.2593
 3047TIP3   OH230699   2.792   1.943   2.052  0.2055 -0.4020  0.1161
 3047TIP3    H130700   2.846   1.870   2.083  0.8100 -0.3177 -0.6977
 3047TIP3    H230701   2.801   2.011   2.119  0.8168 -0.5287  0.1620
 3048TIP3   OH230702   0.433   1.229   0.017  0.3119  0.1881 -0.1720
 3048TIP3    H130703   0.340   1.215  -0.001 -0.0752 -1.0218  2.3384
 3048TIP3    H230704   0.455   1.308  -0.032 -1.7895  0.0031 -1.5478
 3049TIP3   OH230705   3.646   0.034   1.585 -0.0496  0.0042 -0.4144
 3049TIP3    H130706   3.602  -0.047   1.609 -1.5947  0.4751 -1.4585
 3049TIP3    H230707   3.708   0.050   1.656 -1.4844 -0.7763  1.0961
 3050TIP3   OH230708   6.601   2.364   7.813 -0.1891  0.7929 -0.3751
 3050TIP3    H130709   6.564   2.382   7.727  0.5288 -0.4117 -0.9637
 3050TIP3    H230710   6.566   2.278   7.837  1.3247  0.1347 -0.4509
 3051TIP3   OH230711   3.668   2.116   2.499  0.3974  0.2027  0.1780
 3051TIP3    H130712   3.728   2.165   2.555 -0.5470 -0.1021  1.5113
 3051TIP3    H230713   3.709   2.030   2.488  0.1111 -0.1006  1.3199
 3052TIP3   OH230714   1.338   6.501   8.242  0.2684 -0.1729 -0.4406
 3052TIP3    H130715   1.343   6.452   8.324  0.6608  2.9205  1.5601
 3052TIP3    H230716   1.429   6.526   8.224 -0.1525  2.0066  0.1471
 3053TIP3   OH230717   0.404   3.174   2.094 -0.5960 -0.0366  0.5345
 3053TIP3    H130718   0.465   3.141   2.159  0.3695  1.7788  0.6284
 3053TIP3    H230719   0.321   3.181   2.140 -1.0371 -2.8839  0.3035
 3054TIP3   OH230720   6.747   5.293   8.239 -0.1220  0.3504 -0.9193
 3054TIP3    H130721   6.711   5.205   8.241  0.7175  0.0201 -0.0020
 3054TIP3    H230722   6.672   5.350   8.260 -0.8165 -0.0594 -2.1387
 3055TIP3   OH230723   4.115   5.753   1.553  0.7645  0.0346  0.3290
 3055TIP3    H130724   4.179   5.777   1.485  0.1265  0.5090 -0.1117
 3055TIP3    H230725   4.081   5.837   1.584 -0.0947 -0.2322  0.1244
 3056TIP3   OH230726   0.983   0.386   1.620  0.0478  0.1556 -0.4386
 3056TIP3    H130727   1.002   0.387   1.527 -0.3875  0.0091 -0.5329
 3056TIP3    H230728   1.034   0.313   1.655  1.2765  1.0423 -0.3210
 3057TIP3   OH230729   6.396   2.677   7.418 -0.5766  0.2646  0.2629
 3057TIP3    H130730   6.406   2.708   7.508 -1.4262  2.5123 -0.3185
 3057TIP3    H230731   6.301   2.672   7.406 -0.4925  0.9540 -0.7753
 3058TIP3   OH230732   5.972   1.254   1.464 -0.3907  0.0855  0.2214
 3058TIP3    H130733   5.935   1.302   1.390  0.6506  0.4262 -0.0979
 3058TIP3    H230734   6.014   1.177   1.424 -1.0718 -0.4995  0.6136
 3059TIP3   OH230735   1.552   2.802   8.593  0.0546 -0.0455  0.1849
 3059TIP3    H130736   1.603   2.836   8.666  0.3056  2.0038 -0.8878
 3059TIP3    H230737   1.595   2.836   8.515 -0.8638 -1.2564 -0.9082
 3060TIP3   OH230738   0.780   3.579   0.523 -0.0039 -0.0939  0.4096
 3060TIP3    H130739   0.875   3.572   0.519  0.0877 -0.1807  1.9892
 3060TIP3    H230740   0.764   3.672   0.539 -0.1768 -0.0929  0.2296
 3061TIP3   OH230741   4.563   6.376   1.911  0.5132  0.2297 -0.2883
 3061TIP3    H130742   4.547   6.289   1.875 -1.5644  0.1395  0.7069
 3061TIP3    H230743   4.589   6.361   2.001  0.7565  0.6324 -0.2882
 3062TIP3   OH230744   3.523   4.167   0.660  0.0578  0.0154 -0.6042
 3062TIP3    H130745   3.471   4.236   0.619  1.2853  1.3930  0.0262
 3062TIP3    H230746   3.592   4.215   0.707 -0.4276 -1.5136  1.8377
 3063TIP3   OH230747   4.207   5.398   1.370 -0.2697 -0.2552 -0.0047
 3063TIP3    H130748   4.172   5.466   1.312 -0.5229  0.9431  1.4795
 3063TIP3    H230749   4.302   5.412   1.369  0.1490 -2.4108 -2.6857
 3064TIP3   OH230750   3.404   3.800   7.311 -0.4223  0.1613 -0.3883
 3064TIP3    H130751   3.464   3.864   7.273  0.1615 -0.8028 -1.1341
 3064TIP3    H230752   3.398   3.825   7.403  1.3582  0.1501 -0.2181
 3065TIP3   OH230753   3.795   5.675   0.263  0.0192 -0.0616 -0.2576
 3065TIP3    H130754   3.808   5.602   0.202  1.0694 -0.1334  0.0288
 3065TIP3    H230755   3.855   5.657   0.335  0.4056  1.1619 -0.2534
 3066TIP3   OH230756   1.881   1.498   8.501  0.0115  0.2194 -0.0115
 3066TIP3    H130757   1.852   1.589   8.495 -1.0210 -0.0749  0.3763
 3066TIP3    H230758   1.809   1.452   8.543  0.9377 -0.5971  0.7423
 3067TIP3   OH230759   2.622   6.018   0.325  0.0280 -0.1804  0.5236
 3067TIP3    H130760   2.565   5.982   0.393 -0.9873  1.4942  0.6263
 3067TIP3    H230761   2.705   6.034   0.369 -0.1722 -0.4538  1.0052
 3068TIP3   OH230762   6.445   5.184   0.459  0.1398  0.2237  0.9878
 3068TIP3    H130763   6.383   5.163   0.529  1.0265 -0.3322  1.6248
 3068TIP3    H230764   6.396   5.243   0.402 -2.0166 -2.4816 -0.1757
 3069TIP3   OH230765   2.548   2.468   0.808  0.1260 -0.2086  0.1993
 3069TIP3    H130766   2.623   2.418   0.841  0.4776  0.3652  0.2828
 3069TIP3    H230767   2.582   2.514   0.732 -0.1064  0.1623  0.3180
 3070TIP3   OH230768   5.151   6.556   6.647  0.4135 -0.6057  0.4275
 3070TIP3    H130769   5.097   6.617   6.696  1.5147 -0.4172  1.4668
 3070TIP3    H230770   5.108   6.471   6.659  0.2930 -0.4506  1.1656
 3071TIP3   OH230771   4.921   3.320   8.154 -0.4922 -0.2056  0.0695
 3071TIP3    H130772   5.006   3.310   8.112 -0.2789  0.7792  0.2438
 3071TIP3    H230773   4.932   3.393   8.214 -1.1935 -0.6953  0.8171
 3072TIP3   OH230774   0.959   1.508   8.125  0.0456 -0.2830 -0.6062
 3072TIP3    H130775   0.955   1.413   8.109 -0.1531 -0.0347 -2.1830
 3072TIP3    H230776   1.052   1.526   8.139 -0.0424 -0.8673  0.9001
 3073TIP3   OH230777   0.171   4.024   1.669  0.2908 -0.0138 -0.4907
 3073TIP3    H130778   0.241   3.964   1.695  0.8413  0.4938 -0.7916
 3073TIP3    H230779   0.211   4.080   1.603 -0.0883  0.9792  0.1101
 3074TIP3   OH230780   1.684   6.723   7.311  0.6439 -0.4242  0.1026
 3074TIP3    H130781   1.615   6.657   7.320 -0.4916  0.7010 -0.0262
 3074TIP3    H230782   1.752   6.694   7.371  0.2931 -1.8552 -0.1537
 3075TIP3   OH230783   2.916   3.187   1.238 -0.6232 -0.0434 -0.2171
 3075TIP3    H130784   2.901   3.168   1.331 -1.2234  1.1200 -0.0597
 3075TIP3    H230785   3.005   3.155   1.222 -0.8507 -1.1240  0.4995
 3076TIP3   OH230786   1.280   4.007   8.077 -0.1572  0.2175 -0.2220
 3076TIP3    H130787   1.300   4.016   7.984 -1.3912  1.7231 -0.3842
 3076TIP3    H230788   1.284   4.096   8.111  0.4846 -0.3421  1.2277
 3077TIP3   OH230789   2.884   3.692   8.466 -0.0402  0.3810  0.3711
 3077TIP3    H130790   2.877   3.612   8.414 -0.6781 -0.6148  1.9185
 3077TIP3    H230791   2.834   3.757   8.417  0.2978 -0.2111 -0.8047
 3078TIP3   OH230792   4.600   0.741   2.289  0.8132  0.2223  0.6111
 3078TIP3    H130793   4.571   0.666   2.340  1.0948 -0.4869 -0.2381
 3078TIP3    H230794   4.669   0.781   2.341 -0.9870  1.4042  2.2428
 3079TIP3   OH230795   3.956   4.811   8.263 -0.3852  0.3315  0.1101
 3079TIP3    H130796   3.971   4.761   8.183  2.3806  2.7263 -1.0578
 3079TIP3    H230797   4.041   4.813   8.307 -1.4505  0.4253  2.3562
 3080TIP3   OH230798   0.990   3.804   2.489 -0.6093  0.3341  0.1273
 3080TIP3    H130799   0.914   3.747   2.477  0.4193 -1.4548  1.6083
 3080TIP3    H230800   1.058   3.766   2.434  0.2087 -0.1520  1.4375
 3081TIP3   OH230801   6.591   4.786   8.349 -0.0150 -0.9705  0.2089
 3081TIP3    H130802   6.511   4.780   8.296 -2.3453  1.4299  3.1011
 3081TIP3    H230803   6.560   4.777   8.439  3.2283 -1.2031  1.4173
 3082TIP3   OH230804   1.280   0.087   1.570 -0.1671  0.6553  0.2093
 3082TIP3    H130805   1.200   0.039   1.589 -0.2565  0.3694 -0.8058
 3082TIP3    H230806   1.339   0.067   1.643 -0.7505  0.2455  0.5673
 3083TIP3   OH230807   5.108   2.579   7.895  0.5015 -0.3753  0.0919
 3083TIP3    H130808   5.169   2.596   7.824  0.1917 -1.4888 -0.4533
 3083TIP3    H230809   5.023   2.567   7.852  0.2568 -0.7465  0.6641
 3084TIP3   OH230810   3.820   4.491   0.159 -0.7584 -0.2271  0.2893
 3084TIP3    H130811   3.839   4.486   0.065  2.0456 -1.1993  0.8216
 3084TIP3    H230812   3.744   4.434   0.171 -0.2755 -1.2441 -1.1973
 3085TIP3   OH230813   2.163   1.688   0.796  0.1169  0.7048  0.2070
 3085TIP3    H130814   2.144   1.782   0.799 -0.0201  0.6647  0.7113
 3085TIP3    H230815   2.136   1.655   0.882 -1.0648 -0.0408 -0.4296
 3086TIP3   OH230816   0.930   3.368   2.364  0.0155  0.0445 -0.1910
 3086TIP3    H130817   0.885   3.428   2.304  1.6905  1.8971  0.2841
 3086TIP3    H230818   0.887   3.382   2.448  0.5562  0.8160 -0.0279
 3087TIP3   OH230819   0.695   3.854   1.350 -0.1755 -0.2252 -0.0005
 3087TIP3    H130820   0.786   3.877   1.368  0.4938 -1.6107 -1.4275
 3087TIP3    H230821   0.699   3.766   1.312 -2.3867 -1.7967  2.9752
 3088TIP3   OH230822   5.271   5.209   0.881 -0.0577  0.6904 -0.1855
 3088TIP3    H130823   5.326   5.214   0.803 -0.4686  0.5544 -0.4871
 3088TIP3    H230824   5.243   5.117   0.885  1.1181  0.3523  0.9277
 3089TIP3   OH230825   6.678   0.853   0.266 -0.5393 -0.0982  0.1872
 3089TIP3    H130826   6.689   0.857   0.361 -2.6235 -2.0726  0.5946
 3089TIP3    H230827   6.649   0.763   0.249 -0.4075  0.2568 -2.3206
 3090TIP3   OH230828   4.978   2.023   0.457 -0.7027 -0.3090 -0.2162
 3090TIP3    H130829   4.886   2.026   0.483 -0.2793  0.2316  1.3335
 3090TIP3    H230830   4.988   2.099   0.399 -1.1542 -0.1604 -0.1087
 3091TIP3   OH230831   6.461   1.850   0.367 -0.1999 -0.2805  0.3052
 3091TIP3    H130832   6.470   1.775   0.308 -0.4439  1.1934 -1.7296
 3091TIP3    H230833   6.544   1.897   0.357 -0.5076  0.3380  0.6130
 3092TIP3   OH230834   3.880   5.240   7.780  0.1616  0.3774  0.9394
 3092TIP3    H130835   3.930   5.269   7.703 -0.3221  0.9740  0.8407
 3092TIP3    H230836   3.848   5.153   7.757  2.0970 -0.5242  1.4470
 3093TIP3   OH230837   6.786   5.353   7.222 -0.8212  0.2856 -0.6548
 3093TIP3    H130838   6.784   5.447   7.239  0.2155  0.2439 -0.2211
 3093TIP3    H230839   6.695   5.330   7.202 -0.8357  1.6299 -2.2618
 3094TIP3   OH230840   1.103   1.392   7.307 -0.1766  0.2202  0.4584
 3094TIP3    H130841   1.104   1.317   7.248 -0.6059 -0.2772  1.0752
 3094TIP3    H230842   1.182   1.383   7.360 -0.9702 -0.6296  1.5422
 3095TIP3   OH230843   4.651   4.669   6.947  0.2107 -0.4738  0.0368
 3095TIP3    H130844   4.587   4.612   6.989 -0.2403 -1.1522 -1.5164
 3095TIP3    H230845   4.656   4.638   6.857  2.3039 -0.0591 -0.0404
 3096TIP3   OH230846   3.686   3.637   2.416 -0.1989  0.0367 -0.1409
 3096TIP3    H130847   3.618   3.675   2.361 -0.9863  0.7269  1.2374
 3096TIP3    H230848   3.767   3.647   2.366 -1.0492 -0.5339 -1.6860
 3097TIP3   OH230849   2.721   1.052   1.648 -0.1454  0.5320 -0.6536
 3097TIP3    H130850   2.658   0.982   1.661 -1.1828  1.5767  0.2371
 3097TIP3    H230851   2.732   1.058   1.553 -1.3506  0.2907 -0.8178
 3098TIP3   OH230852   6.174   4.043   2.665 -0.1910  0.1190  0.2499
 3098TIP3    H130853   6.136   3.956   2.657 -0.2241  0.1657 -0.1505
 3098TIP3    H230854   6.136   4.079   2.746 -0.5264 -0.0681  0.1792
 3099TIP3   OH230855   6.032   5.068   1.030 -0.0500  0.3337  0.4432
 3099TIP3    H130856   5.965   5.122   0.987 -0.0941 -0.7521 -0.9364
 3099TIP3    H230857   6.115   5.105   0.999 -0.0734 -0.0732 -0.1220
 3100TIP3   OH230858   6.476   4.660   7.904  0.2141 -0.0565 -0.3167
 3100TIP3    H130859   6.479   4.600   7.978  0.7309  0.2748 -0.0619
 3100TIP3    H230860   6.444   4.607   7.831  1.1396 -0.7757 -0.2204
 3101TIP3   OH230861   6.389   0.224   1.158  0.1733 -0.7403 -0.0947
 3101TIP3    H130862   6.317   0.168   1.187  0.7947 -2.0831 -1.0423
 3101TIP3    H230863   6.345   0.302   1.123 -0.7582 -1.0213  0.4026
 3102TIP3   OH230864   4.971   4.413   7.367 -0.0889 -0.0523 -0.0636
 3102TIP3    H130865   4.876   4.403   7.365 -0.0819 -0.0835 -0.1962
 3102TIP3    H230866   4.986   4.504   7.343 -0.0330 -0.2988 -0.9822
 3103TIP3   OH230867   5.248   5.043   2.890  0.2821 -0.3629  0.6686
 3103TIP3    H130868   5.205   4.968   2.847 -0.7527  1.5378 -1.8829
 3103TIP3    H230869   5.177   5.105   2.907  1.5399  1.7794 -1.2569
 3104TIP3   OH230870   0.818   3.263   1.809 -0.0047 -0.4865  0.6462
 3104TIP3    H130871   0.856   3.190   1.760  1.3186 -0.0798  1.0331
 3104TIP3    H230872   0.893   3.314   1.839 -0.8183 -0.1063  2.1607
 3105TIP3   OH230873   1.414   0.343   2.115 -0.6653  0.0750  0.9665
 3105TIP3    H130874   1.326   0.307   2.108 -0.4930 -0.2219  0.0647
 3105TIP3    H230875   1.409   0.408   2.184 -1.3341 -0.6970  1.6680
 3106TIP3   OH230876   5.397   0.610   1.728 -0.3208  0.2400  0.2547
 3106TIP3    H130877   5.481   0.628   1.770  0.1881  0.4915 -0.8405
 3106TIP3    H230878   5.341   0.683   1.755 -0.2352  0.0113  1.0777
 3107TIP3   OH230879   1.382   4.527   7.295 -0.4387  0.7921 -0.3803
 3107TIP3    H130880   1.356   4.563   7.210  0.6204  1.7941 -0.2911
 3107TIP3    H230881   1.464   4.482   7.279  0.4037  2.0183  0.3264
 3108TIP3   OH230882   6.704   2.105   7.598  0.0005 -0.0782  0.3919
 3108TIP3    H130883   6.636   2.090   7.532  0.8666  2.5415 -1.2578
 3108TIP3    H230884   6.786   2.087   7.551  0.5689 -1.4295  1.8192
 3109TIP3   OH230885   2.480   4.023   8.378  0.5006  0.0448 -0.2896
 3109TIP3    H130886   2.453   4.115   8.371  1.0951  0.1661 -1.2337
 3109TIP3    H230887   2.415   3.975   8.326 -0.6881 -0.2815  1.4240
 3110TIP3   OH230888   2.689   1.022   2.211 -0.3899 -0.0601  0.3457
 3110TIP3    H130889   2.707   0.928   2.204  0.0492 -0.0528  1.2255
 3110TIP3    H230890   2.634   1.030   2.289  0.8274  0.5453  1.1937
 3111TIP3   OH230891   6.527   6.242   1.923  0.2035 -0.0703  0.1577
 3111TIP3    H130892   6.541   6.308   1.991 -0.2288  1.0872 -0.8448
 3111TIP3    H230893   6.516   6.292   1.842 -2.2867 -1.2352 -0.3214
 3112TIP3   OH230894   5.645   6.492   7.356  0.4561  0.1804  0.1813
 3112TIP3    H130895   5.636   6.476   7.262 -0.6397 -1.0728  0.4805
 3112TIP3    H230896   5.615   6.582   7.368  0.0039  0.1370 -0.5707
 3113TIP3   OH230897   4.024   4.108   2.198 -0.0005 -0.4450  0.2786
 3113TIP3    H130898   4.112   4.126   2.163 -1.0329  0.9108 -1.8460
 3113TIP3    H230899   4.034   4.116   2.293  1.4481  3.7337  0.0081
 3114TIP3   OH230900   0.425   4.547   8.220 -0.4459 -0.3703  0.2889
 3114TIP3    H130901   0.368   4.576   8.292 -2.1963  1.1759 -1.6146
 3114TIP3    H230902   0.507   4.593   8.236 -1.4327  1.4780  0.3202
 3115TIP3   OH230903   3.113   4.330   0.831  0.0791 -0.6361 -0.0560
 3115TIP3    H130904   3.035   4.375   0.864  0.0184 -0.0773 -0.9213
 3115TIP3    H230905   3.186   4.387   0.855  0.0453 -0.2854 -0.7308
 3116TIP3   OH230906   2.088   0.819   2.260 -0.0777  0.1711  0.3964
 3116TIP3    H130907   2.064   0.874   2.334 -0.1115  0.0988  0.4398
 3116TIP3    H230908   2.178   0.844   2.239 -0.9539  2.1532 -1.2923
 3117TIP3   OH230909   1.019   5.503   2.247  1.4307 -0.4190  0.5544
 3117TIP3    H130910   0.998   5.410   2.257  0.4526 -0.1459  1.1339
 3117TIP3    H230911   0.975   5.545   2.320  1.3372  0.5841 -0.0710
 3118TIP3   OH230912   4.728   3.605   1.478 -0.1596  0.7071  0.1044
 3118TIP3    H130913   4.665   3.631   1.411  0.5782  0.6202 -0.6446
 3118TIP3    H230914   4.752   3.516   1.455  0.0311  0.6450  0.5430
 3119TIP3   OH230915   6.388   4.321   0.924 -0.0890  0.1157 -0.1441
 3119TIP3    H130916   6.438   4.316   0.843 -0.6021  1.0577 -0.5395
 3119TIP3    H230917   6.453   4.309   0.993 -0.0393 -3.7264 -0.6641
 3120TIP3   OH230918   2.238   0.892   1.342 -0.1545 -0.0837 -0.1040
 3120TIP3    H130919   2.227   0.797   1.352  0.3208 -0.2522 -1.0349
 3120TIP3    H230920   2.291   0.901   1.263  0.1504  0.9481  0.2067
 3121TIP3   OH230921   3.659   5.116   1.640  0.1903 -0.4025  0.0333
 3121TIP3    H130922   3.669   5.166   1.559  1.4215 -1.9360 -0.8108
 3121TIP3    H230923   3.578   5.066   1.628 -0.2724  0.2629  0.2858
 3122TIP3   OH230924   0.956   2.580   1.759  0.0105  0.0648 -0.0306
 3122TIP3    H130925   0.862   2.562   1.771 -0.3236  1.6357 -0.1248
 3122TIP3    H230926   0.997   2.544   1.838 -0.4810 -1.7438 -0.5455
 3123TIP3   OH230927   5.197   0.468   8.365  0.2452 -0.1636  0.1057
 3123TIP3    H130928   5.206   0.554   8.406  0.3097  0.1574 -0.5690
 3123TIP3    H230929   5.103   0.460   8.345  0.1798 -0.4074  0.4913
 3124TIP3   OH230930   1.157   3.729   8.402  0.5895 -0.3881 -0.2792
 3124TIP3    H130931   1.205   3.646   8.400  0.9467 -0.2797 -4.0640
 3124TIP3    H230932   1.080   3.713   8.346  0.5581  1.7397 -0.9208
 3125TIP3   OH230933   4.142   1.631   8.038  0.0939  0.5847 -0.0715
 3125TIP3    H130934   4.124   1.724   8.045  1.1461  0.7303  1.1737
 3125TIP3    H230935   4.185   1.608   8.121 -0.2220 -1.0217 -0.3048
 3126TIP3   OH230936   1.373   5.947   8.671 -0.6518  0.3091  0.1797
 3126TIP3    H130937   1.418   5.866   8.693 -1.1452 -0.0623 -0.1668
 3126TIP3    H230938   1.383   6.002   8.748  0.6319  0.3350  0.0099
 3127TIP3   OH230939   4.843   0.106   1.840 -0.1379  0.4322  0.1968
 3127TIP3    H130940   4.902   0.161   1.788 -0.7848  0.3139 -0.6849
 3127TIP3    H230941   4.884   0.020   1.840  0.5410  0.7391  1.0247
 3128TIP3   OH230942   5.311   1.082   7.180  0.0980 -0.1106 -0.0800
 3128TIP3    H130943   5.355   1.031   7.111  1.8002  0.4454  0.5353
 3128TIP3    H230944   5.239   1.027   7.209  0.6464 -1.2745 -0.8514
 3129TIP3   OH230945   2.624   2.222   7.890  0.1963 -0.0033 -0.7843
 3129TIP3    H130946   2.696   2.190   7.836 -0.1839  0.2535 -1.4631
 3129TIP3    H230947   2.545   2.186   7.849 -0.1971  1.2517 -1.1998
 3130TIP3   OH230948   0.969   0.112   7.267  0.2468  0.1836 -0.0985
 3130TIP3    H130949   1.023   0.038   7.294 -0.2117  0.4422  1.6920
 3130TIP3    H230950   0.892   0.072   7.227 -0.1039 -0.3465  1.0568
 3131TIP3   OH230951   3.648   6.350   3.082 -0.3275 -0.2859 -0.1434
 3131TIP3    H130952   3.739   6.376   3.093 -1.0003  1.2927  2.8761
 3131TIP3    H230953   3.640   6.269   3.133 -0.6119 -0.4361 -0.4216
 3132TIP3   OH230954   0.125   5.187   7.736 -0.1906 -0.1534 -0.8830
 3132TIP3    H130955   0.206   5.151   7.703  0.3295  0.9445 -0.8591
 3132TIP3    H230956   0.140   5.201   7.829 -0.9415 -1.3258 -0.5572
 3133TIP3   OH230957   5.727   0.190   8.369 -0.0261 -0.0699 -0.1462
 3133TIP3    H130958   5.763   0.151   8.449 -0.9845  0.9372  0.8261
 3133TIP3    H230959   5.702   0.115   8.315  1.2195 -0.7683  0.2199
 3134TIP3   OH230960   6.031   4.077   3.249 -0.3956 -0.2198  0.0195
 3134TIP3    H130961   5.971   4.052   3.320  0.6410  0.9783  1.3831
 3134TIP3    H230962   6.078   4.153   3.283  2.0296 -1.2006 -0.8965
 3135TIP3   OH230963   2.776   5.638   2.970 -0.7017 -0.1349  0.5234
 3135TIP3    H130964   2.853   5.609   2.920 -1.6788 -0.6214 -0.7484
 3135TIP3    H230965   2.765   5.571   3.037  0.4277  0.3473  1.2283
 3136TIP3   OH230966   3.141   2.559   2.035 -0.3756 -0.1970 -0.2924
 3136TIP3    H130967   3.111   2.531   2.121 -1.6493  1.7090 -0.0377
 3136TIP3    H230968   3.178   2.646   2.050  0.2926 -0.2439 -1.5270
 3137TIP3   OH230969   3.653   0.360   0.489  0.3767  0.0209  0.0297
 3137TIP3    H130970   3.684   0.272   0.508 -1.5902 -0.8480 -0.5076
 3137TIP3    H230971   3.558   0.355   0.501  0.2040  2.0827 -0.0009
 3138TIP3   OH230972   5.194   4.033   1.529 -0.3757 -0.3889  0.2263
 3138TIP3    H130973   5.134   3.977   1.481 -1.3186  0.0419  0.8778
 3138TIP3    H230974   5.201   3.992   1.615 -1.4187  0.6948  0.8578
 3139TIP3   OH230975   4.797   2.470   8.522  0.2600 -0.2032  0.5315
 3139TIP3    H130976   4.825   2.389   8.566 -0.2118 -0.7860 -0.2192
 3139TIP3    H230977   4.878   2.505   8.484  0.1821 -1.3450 -0.7613
 3140TIP3   OH230978   0.317   5.351   8.449 -0.2574 -0.3195 -0.8406
 3140TIP3    H130979   0.263   5.390   8.518  0.7491 -0.9692  0.3590
 3140TIP3    H230980   0.274   5.268   8.429  2.2325 -2.9064  3.0359
 3141TIP3   OH230981   6.578   4.334   1.130  0.0062 -0.1007  0.1513
 3141TIP3    H130982   6.580   4.408   1.191 -0.0358 -0.1443  0.2048
 3141TIP3    H230983   6.668   4.299   1.132  0.2919  0.5473 -0.6063
 3142TIP3   OH230984   3.728   1.985   8.572  0.2163 -0.3782  0.8069
 3142TIP3    H130985   3.661   2.051   8.592 -1.7933 -1.9628 -0.3821
 3142TIP3    H230986   3.770   2.018   8.492 -0.5954 -0.4019  0.3643
 3143TIP3   OH230987   5.504   3.335   2.955  0.3305 -0.6194 -0.2579
 3143TIP3    H130988   5.555   3.350   2.875  1.4671 -1.1689  0.3360
 3143TIP3    H230989   5.414   3.327   2.925  0.7354 -0.7595 -1.4833
 3144TIP3   OH230990   5.786   3.382   1.147  0.0807  0.5462  0.0789
 3144TIP3    H130991   5.821   3.330   1.219 -1.7141  0.3648  0.8708
 3144TIP3    H230992   5.750   3.318   1.086  1.5283  0.7035 -0.9832
 3145TIP3   OH230993   0.550   6.131   1.969  0.1888 -0.4308  0.5123
 3145TIP3    H130994   0.495   6.135   2.047  0.2142  0.2797  0.4948
 3145TIP3    H230995   0.639   6.119   2.002 -0.0285 -2.4316  0.5242
 3146TIP3   OH230996   2.788   0.936   2.518  0.2493 -0.0632 -0.1145
 3146TIP3    H130997   2.731   0.905   2.589  0.4746  0.5682  0.3578
 3146TIP3    H230998   2.854   0.867   2.508  0.1504 -0.2072  0.2164
 3147TIP3   OH230999   1.636   2.471   2.425  0.4090 -0.2422  0.2572
 3147TIP3    H131000   1.655   2.559   2.456  1.4250 -0.3173 -0.1318
 3147TIP3    H231001   1.565   2.441   2.482 -0.3604  1.0272  0.0107
 3148TIP3   OH231002   6.708   3.421   3.137 -0.4514  0.0740 -0.4870
 3148TIP3    H131003   6.756   3.435   3.056  0.1010 -0.0240 -0.1797
 3148TIP3    H231004   6.620   3.455   3.119 -0.2325  0.3708 -1.0121
 3149TIP3   OH231005   5.972   1.682   8.090 -0.0189 -0.3269 -0.0662
 3149TIP3    H131006   5.930   1.763   8.061  0.5118  0.0173  0.1059
 3149TIP3    H231007   5.963   1.622   8.016  0.1571  0.1042 -0.4379
 3150TIP3   OH231008   0.313   3.434   0.373  0.7857 -0.2691 -0.2157
 3150TIP3    H131009   0.311   3.530   0.370  0.8112 -0.2053  1.3038
 3150TIP3    H231010   0.404   3.412   0.392  0.8082 -0.6174 -0.6974
 3151TIP3   OH231011   0.898   3.389   8.417 -0.0317  0.0277 -0.2719
 3151TIP3    H131012   0.805   3.368   8.425 -0.2659  0.9554 -0.3691
 3151TIP3    H231013   0.915   3.450   8.489  0.4182  0.1099 -0.4460
 3152TIP3   OH231014   6.635   0.131   2.422 -0.4852  0.3076 -0.0506
 3152TIP3    H131015   6.597   0.077   2.492  2.0598  0.7299  1.8043
 3152TIP3    H231016   6.582   0.111   2.345 -1.4957 -2.6057  1.2434
 3153TIP3   OH231017   6.498   6.627   2.723  0.3803 -0.1086  0.4672
 3153TIP3    H131018   6.481   6.706   2.671 -0.5351 -1.3041 -1.1241
 3153TIP3    H231019   6.590   6.607   2.705  0.7826  0.8666  1.3155
 3154TIP3   OH231020   6.323   6.322   1.488 -0.4736 -0.0516  0.5493
 3154TIP3    H131021   6.263   6.354   1.421 -0.6154 -0.7065  0.3480
 3154TIP3    H231022   6.341   6.231   1.462  0.8158  0.2133  0.4612
 3155TIP3   OH231023   3.893   1.504   0.027 -0.2677 -0.4618  0.1346
 3155TIP3    H131024   3.856   1.536  -0.056 -1.0699  1.3623  1.1508
 3155TIP3    H231025   3.920   1.414   0.007 -1.5167 -0.4770 -1.7815
 3156TIP3   OH231026   5.911   3.305   0.098  0.0677 -0.2472  0.6094
 3156TIP3    H131027   5.895   3.396   0.074 -0.6598 -0.7899 -1.1365
 3156TIP3    H231028   5.992   3.307   0.148  1.0870  1.1676 -0.9937
 3157TIP3   OH231029   6.779   1.215   1.582  0.0662  0.3991 -0.2816
 3157TIP3    H131030   6.810   1.169   1.660  0.8214  1.9088  0.3397
 3157TIP3    H231031   6.690   1.243   1.603  0.8016  2.1613  0.7037
 3158TIP3   OH231032   4.264   2.389   1.770 -0.0293 -0.1052 -0.2386
 3158TIP3    H131033   4.198   2.391   1.700 -2.8906  1.9356  2.2722
 3158TIP3    H231034   4.293   2.480   1.777  0.6257 -0.3917  0.8690
 3159TIP3   OH231035   0.604   6.007   7.458 -0.0760  0.9087  0.1093
 3159TIP3    H131036   0.553   6.025   7.379 -0.2206 -2.5488 -0.7327
 3159TIP3    H231037   0.694   6.027   7.432 -0.2480  0.8659 -0.5470
 3160TIP3   OH231038   1.182   5.118   8.687 -0.3604 -0.1611 -0.2779
 3160TIP3    H131039   1.111   5.152   8.742  0.2880 -0.6118  0.8793
 3160TIP3    H231040   1.230   5.195   8.659  1.2791  0.0008  2.5639
 3161TIP3   OH231041   0.748   3.784   2.279  0.3246 -0.5632 -0.2037
 3161TIP3    H131042   0.773   3.718   2.214 -0.3948 -0.0923 -0.9870
 3161TIP3    H231043   0.748   3.737   2.362  1.5045 -1.1201 -0.5033
 3162TIP3   OH231044   4.177   3.164   2.068 -0.0442 -0.8905  0.2230
 3162TIP3    H131045   4.240   3.129   2.130  0.0649  0.6348  1.0208
 3162TIP3    H231046   4.100   3.186   2.122 -0.7549 -1.4671 -0.5206
 3163TIP3   OH231047   0.072   2.122   0.953  0.0110 -0.0359 -0.1323
 3163TIP3    H131048   0.117   2.205   0.936  1.0836 -0.2026  1.6762
 3163TIP3    H231049   0.128   2.076   1.015 -1.3068 -1.4838  0.0440
 3164TIP3   OH231050   2.197   0.303   7.919 -0.4532  0.0288 -0.4736
 3164TIP3    H131051   2.133   0.232   7.925  0.4215 -0.9354 -1.8567
 3164TIP3    H231052   2.179   0.343   7.834  0.3625  0.1470 -0.5999
 3165TIP3   OH231053   5.030   1.155   7.322 -0.0297  0.2288  0.1831
 3165TIP3    H131054   4.994   1.235   7.284  0.0264  0.3130  0.3050
 3165TIP3    H231055   5.044   1.097   7.247  1.0945  0.7930 -0.0613
 3166TIP3   OH231056   3.615   6.281   7.600 -0.2455  0.1945 -0.3288
 3166TIP3    H131057   3.693   6.276   7.655 -1.2541  0.4164  1.1900
 3166TIP3    H231058   3.570   6.198   7.614 -0.6058  0.3228 -0.6937
 3167TIP3   OH231059   6.402   0.687   1.279  0.0154 -0.2126 -0.3800
 3167TIP3    H131060   6.464   0.758   1.260 -0.4283  1.5788  3.6954
 3167TIP3    H231061   6.454   0.622   1.326 -0.4171 -0.6137 -0.4543
 3168TIP3   OH231062   0.159   3.793   7.786 -0.1107 -0.1199  0.4030
 3168TIP3    H131063   0.102   3.804   7.862 -0.4019 -1.8100  0.4846
 3168TIP3    H231064   0.245   3.820   7.816 -0.6125  1.2838  0.6571
 3169TIP3   OH231065   5.657   2.846   1.019 -0.2449  0.4614 -0.3564
 3169TIP3    H131066   5.568   2.852   0.983 -1.3246  1.4040  2.2372
 3169TIP3    H231067   5.661   2.917   1.083  1.9001 -0.4609  0.5905
 3170TIP3   OH231068   3.931   6.526   7.437 -0.8209  0.0728 -0.6268
 3170TIP3    H131069   3.892   6.442   7.412 -0.4630 -0.0104 -0.9239
 3170TIP3    H231070   3.896   6.588   7.373 -0.0701 -0.1003 -1.2229
 3171TIP3   OH231071   5.324   2.411   1.948 -0.4687 -0.4816 -0.1492
 3171TIP3    H131072   5.314   2.333   1.894 -0.8136 -0.3124 -0.3317
 3171TIP3    H231073   5.327   2.378   2.038 -1.8722 -0.6173 -0.1304
 3172TIP3   OH231074   1.982   2.184   1.274  0.6184 -0.4948  0.0321
 3172TIP3    H131075   2.017   2.096   1.292  0.8070 -0.2875  0.7135
 3172TIP3    H231076   2.027   2.240   1.336  0.9841  0.1978 -0.8446
 3173TIP3   OH231077   6.804   2.914   3.222  0.0106  0.3016 -0.2445
 3173TIP3    H131078   6.722   2.949   3.187  1.6627  2.5682 -2.1165
 3173TIP3    H231079   6.854   2.991   3.248  1.8951 -0.9634  0.0674
 3174TIP3   OH231080   6.101   4.862   1.437 -0.4811  0.1765  0.4517
 3174TIP3    H131081   6.161   4.925   1.478 -0.0323 -0.0053  0.0878
 3174TIP3    H231082   6.033   4.916   1.398 -1.7639  0.3095  2.6876
 3175TIP3   OH231083   5.151   2.508   2.565  0.0729 -0.2842  0.3321
 3175TIP3    H131084   5.205   2.554   2.629  1.8646 -0.0311 -1.2818
 3175TIP3    H231085   5.062   2.541   2.581  0.5868  0.3234  2.1635
 3176TIP3   OH231086   6.005   5.623   1.224  0.0518 -0.1395 -0.1507
 3176TIP3    H131087   6.017   5.709   1.183  0.5061  0.1262  0.5259
 3176TIP3    H231088   5.946   5.640   1.298 -2.4175 -0.9462 -1.7942
 3177TIP3   OH231089   3.238   6.276   2.535 -0.2058  0.4231  0.0998
 3177TIP3    H131090   3.223   6.269   2.629 -0.8005  1.5670  0.1079
 3177TIP3    H231091   3.325   6.315   2.527  0.4683 -1.0214  0.1372
 3178TIP3   OH231092   0.021   0.901   2.294  0.0424  0.3907  0.0614
 3178TIP3    H131093  -0.047   0.944   2.346  0.6039 -0.3239  1.4505
 3178TIP3    H231094   0.012   0.808   2.315  0.7563  0.1699 -0.5678
 3179TIP3   OH231095   1.205   3.125   0.619  0.2999 -0.5313 -0.4096
 3179TIP3    H131096   1.174   3.207   0.581 -1.3632  0.0013  1.8473
 3179TIP3    H231097   1.289   3.147   0.659 -1.4742  1.0620  2.8496
 3180TIP3   OH231098   6.823   3.322   0.655  0.2687 -0.2665  0.3248
 3180TIP3    H131099   6.803   3.397   0.599  0.0898  0.3382  1.1809
 3180TIP3    H231100   6.834   3.249   0.594 -1.7226 -0.0221 -0.3775
 3181TIP3   OH231101   2.248   0.635   7.037  0.3434  0.1093  0.2931
 3181TIP3    H131102   2.246   0.704   7.104 -3.3455  0.6250 -0.1548
 3181TIP3    H231103   2.283   0.678   6.960 -0.8951  1.2538  0.3260
 3182TIP3   OH231104   2.044   3.035   7.813 -0.5691  0.0241 -0.2591
 3182TIP3    H131105   2.052   3.006   7.723  2.5566 -0.0426 -0.0453
 3182TIP3    H231106   2.085   3.121   7.815 -0.7574  0.1114  1.0611
 3183TIP3   OH231107   5.209   4.145   0.004  0.6785  0.0750 -0.0949
 3183TIP3    H131108   5.185   4.053  -0.007  2.7547 -0.6561  1.0309
 3183TIP3    H231109   5.151   4.177   0.073  1.7719 -1.2262  1.5052
 3184TIP3   OH231110   3.263   2.816   2.053  0.4459 -0.7462 -0.1400
 3184TIP3    H131111   3.231   2.888   1.998 -1.2794 -1.9427 -0.7934
 3184TIP3    H231112   3.349   2.845   2.083 -0.0206  1.4085 -0.7009
 3185TIP3   OH231113   4.734   3.483   1.073  0.1633  0.6393 -0.6236
 3185TIP3    H131114   4.639   3.481   1.059 -0.1502  2.4994  0.8484
 3185TIP3    H231115   4.754   3.397   1.110 -0.8481  0.0482 -1.3832
 3186TIP3   OH231116   6.378   2.175   1.810 -0.1178  0.0840 -0.2981
 3186TIP3    H131117   6.387   2.265   1.779  1.0018  0.1219  0.0825
 3186TIP3    H231118   6.417   2.122   1.740 -0.0830 -0.0474 -0.1793
 3187TIP3   OH231119   3.908   0.693   0.543 -1.1429  0.5392 -0.1815
 3187TIP3    H131120   3.841   0.695   0.612 -0.1647  0.8750  0.7962
 3187TIP3    H231121   3.858   0.686   0.462 -2.3295 -0.3247  0.5671
 3188TIP3   OH231122   5.702   3.980   7.262 -0.6654  0.2151 -0.1293
 3188TIP3    H131123   5.656   3.996   7.344  1.2934  0.9262  0.8993
 3188TIP3    H231124   5.735   3.891   7.270 -0.9543  0.0813 -0.4033
 3189TIP3   OH231125   3.251   0.254   0.992  0.1259  0.3238 -0.8343
 3189TIP3    H131126   3.175   0.197   1.003 -0.2272  1.2413  2.5643
 3189TIP3    H231127   3.324   0.204   1.028  0.4973  0.7394 -0.9975
 3190TIP3   OH231128   0.602   1.375   0.329 -0.7380 -0.1276  0.2344
 3190TIP3    H131129   0.525   1.328   0.360 -1.7244 -0.4334 -2.4800
 3190TIP3    H231130   0.568   1.444   0.272  0.8664  1.8504  1.4992
 3191TIP3   OH231131   3.406   3.963   1.446 -0.0738 -0.4059 -0.3715
 3191TIP3    H131132   3.346   4.014   1.391 -1.8244 -0.8073  1.0542
 3191TIP3    H231133   3.453   4.028   1.498 -0.0578 -0.1246 -0.7380
 3192TIP3   OH231134   2.559   1.723   7.956  0.0141 -0.3863 -0.3539
 3192TIP3    H131135   2.616   1.783   7.908  0.2091 -0.9639 -0.8591
 3192TIP3    H231136   2.470   1.749   7.931  0.1183 -0.8498 -1.2531
 3193TIP3   OH231137   5.595   4.992   1.931 -0.6831 -0.1421 -0.3712
 3193TIP3    H131138   5.506   5.019   1.910 -0.8982  1.2999  2.0163
 3193TIP3    H231139   5.596   4.898   1.911 -2.3329  0.0440 -1.5900
 3194TIP3   OH231140   2.198   5.386   2.449 -0.1125 -0.2068 -0.3970
 3194TIP3    H131141   2.194   5.431   2.534 -2.0958  3.3647 -2.1487
 3194TIP3    H231142   2.122   5.328   2.450  0.4178 -0.9092  0.5817
 3195TIP3   OH231143   2.837   5.909   1.360 -0.2658 -0.3291 -0.1824
 3195TIP3    H131144   2.813   5.964   1.435 -0.0240 -0.6698  0.1497
 3195TIP3    H231145   2.883   5.968   1.300 -0.4154 -0.0651 -0.0386
 3196TIP3   OH231146   1.547   5.543   0.813 -0.2194 -0.1425  0.2017
 3196TIP3    H131147   1.464   5.506   0.782 -0.1916  0.9642 -1.3064
 3196TIP3    H231148   1.521   5.622   0.861 -0.0334  0.7338 -1.0814
 3197TIP3   OH231149   0.539   6.770   8.161  0.1243  0.2074 -0.1722
 3197TIP3    H131150   0.606   6.710   8.194 -0.1220 -0.7554 -1.3215
 3197TIP3    H231151   0.501   6.810   8.239 -1.5221 -3.1169  0.9251
 3198TIP3   OH231152   1.706   3.362   0.578 -0.2723 -0.3414 -0.3222
 3198TIP3    H131153   1.654   3.338   0.501  0.7122 -1.1040 -0.7789
 3198TIP3    H231154   1.705   3.283   0.632  0.1292 -0.2540 -0.1836
 3199TIP3   OH231155   6.647   2.477   1.976  0.0727 -0.0295  0.0740
 3199TIP3    H131156   6.711   2.406   1.990 -0.5038 -0.5484  0.1506
 3199TIP3    H231157   6.587   2.469   2.051 -1.3452 -0.9440 -1.1100
 3200TIP3   OH231158   6.454   3.861   0.481 -0.2036 -0.8439  0.3276
 3200TIP3    H131159   6.392   3.925   0.447 -0.5737 -0.7766  1.1040
 3200TIP3    H231160   6.540   3.903   0.470 -0.6048  1.1953  3.6140
 3201TIP3   OH231161   6.669   2.322   1.110  0.7018 -0.1123  0.0272
 3201TIP3    H131162   6.760   2.314   1.137  0.6864 -0.2433  0.0457
 3201TIP3    H231163   6.622   2.262   1.168  0.5465  0.2713  0.3048
 3202TIP3   OH231164   6.478   0.306   8.464 -0.1598 -0.1783 -0.2848
 3202TIP3    H131165   6.571   0.283   8.474 -0.0797  0.3302  0.2586
 3202TIP3    H231166   6.435   0.265   8.539  0.0021  1.4464  0.7459
 3203TIP3   OH231167   0.685   3.570   1.269  0.4400  0.2772 -0.3741
 3203TIP3    H131168   0.673   3.476   1.256 -2.3599  0.4606  0.3369
 3203TIP3    H231169   0.605   3.610   1.236  0.5563  2.2010  1.4392
 3204TIP3   OH231170   3.874   4.566   1.007 -0.5114  0.3351 -0.1374
 3204TIP3    H131171   3.939   4.594   0.942 -0.3951  0.1384 -0.1075
 3204TIP3    H231172   3.831   4.491   0.966  1.1625 -1.3010  0.9445
 3205TIP3   OH231173   4.083   3.324   8.738 -0.1311 -0.1404  0.0825
 3205TIP3    H131174   4.102   3.357   8.649 -1.5533 -0.1378 -0.2453
 3205TIP3    H231175   3.988   3.330   8.745 -0.1219 -1.1217  1.2398
 3206TIP3   OH231176   3.180   4.284   7.415  0.2921 -0.0389 -0.1748
 3206TIP3    H131177   3.122   4.208   7.429  0.5037 -0.8641 -3.1218
 3206TIP3    H231178   3.263   4.246   7.387  0.9557  1.2567 -0.0377
 3207TIP3   OH231179   1.482   6.272   2.274  0.0864 -0.6766 -0.1893
 3207TIP3    H131180   1.453   6.348   2.223  0.8221 -1.0893 -1.2564
 3207TIP3    H231181   1.549   6.307   2.333  1.2195 -0.6680 -1.4476
 3208TIP3   OH231182   4.699   6.225   8.279 -0.4727  0.2103  0.0009
 3208TIP3    H131183   4.725   6.280   8.352  0.1430  0.2984 -0.2851
 3208TIP3    H231184   4.681   6.286   8.207 -1.6802  0.1703  0.2501
 3209TIP3   OH231185   6.764   3.540   2.172  0.0365  0.1490  0.0784
 3209TIP3    H131186   6.831   3.578   2.228  0.4509  1.4187 -1.2176
 3209TIP3    H231187   6.765   3.594   2.093 -1.7036 -0.5305 -0.4620
 3210TIP3   OH231188   6.449   0.434   1.434  0.6610 -0.0512 -0.0628
 3210TIP3    H131189   6.388   0.406   1.502  1.7840 -1.0417  0.5620
 3210TIP3    H231190   6.517   0.367   1.432  1.1897  0.4725 -1.4781
 3211TIP3   OH231191   3.542   0.276   3.107  0.2511 -0.0301 -0.1456
 3211TIP3    H131192   3.456   0.286   3.147  0.1558 -0.8608 -0.1393
 3211TIP3    H231193   3.532   0.311   3.019 -0.4607 -1.3522 -0.6076
 3212TIP3   OH231194   0.935   4.992   2.641  0.5804  0.4749  0.1717
 3212TIP3    H131195   0.980   5.076   2.644  2.3393 -0.4346  2.8546
 3212TIP3    H231196   0.991   4.936   2.586 -0.0437  0.7225 -0.7446
 3213TIP3   OH231197   2.662   1.665   2.508  0.2290 -0.0652  0.1215
 3213TIP3    H131198   2.584   1.622   2.544 -0.2849  1.2652  0.6526
 3213TIP3    H231199   2.729   1.654   2.575  0.6982 -1.6469 -0.5416
 3214TIP3   OH231200   4.681   6.594   0.021  0.7725 -0.2158  0.1554
 3214TIP3    H131201   4.730   6.651  -0.037 -0.2246 -0.5297 -1.0655
 3214TIP3    H231202   4.747   6.541   0.065  1.6512  1.2305  0.6396
 3215TIP3   OH231203   4.448   4.104   1.075  0.0136  0.6170  0.7841
 3215TIP3    H131204   4.385   4.107   1.003 -0.4014  0.8977  1.1524
 3215TIP3    H231205   4.516   4.044   1.045 -1.2427 -1.0062  1.0173
 3216TIP3   OH231206   5.386   0.264   8.435 -0.5535  0.0398 -0.0559
 3216TIP3    H131207   5.407   0.321   8.361  2.0296 -0.3872  0.2516
 3216TIP3    H231208   5.376   0.177   8.397 -1.4756  0.1714 -0.1448
 3217TIP3   OH231209   0.794   3.642   0.824 -0.0969  0.2541  0.0416
 3217TIP3    H131210   0.871   3.643   0.768  0.8020  1.1000  1.2547
 3217TIP3    H231211   0.733   3.583   0.779  2.3955 -3.0819  0.6456
 3218TIP3   OH231212   3.977   4.817   7.075  0.3067  0.6767 -0.3533
 3218TIP3    H131213   3.937   4.793   6.992  2.0040  0.6876 -1.2339
 3218TIP3    H231214   4.035   4.890   7.053  0.4839  0.9512  0.9310
 3219TIP3   OH231215   2.393   1.711   7.665  0.4273  0.2391  0.0597
 3219TIP3    H131216   2.478   1.668   7.658  0.4840  0.1665  0.9844
 3219TIP3    H231217   2.368   1.700   7.757  0.2382  1.7792  0.2294
 3220TIP3   OH231218   1.630   0.744   1.009  0.4236 -0.3463 -0.4491
 3220TIP3    H131219   1.684   0.806   1.059 -0.0925  0.0297 -0.3579
 3220TIP3    H231220   1.630   0.665   1.063 -3.0182  1.1126  2.0210
 3221TIP3   OH231221   0.726   6.812   8.487  0.2678 -0.0615 -0.2557
 3221TIP3    H131222   0.732   6.839   8.579 -3.4122 -1.4394  0.5512
 3221TIP3    H231223   0.678   6.882   8.444 -1.3171 -1.0402 -0.1874
 3222TIP3   OH231224   2.732   3.488   0.844  0.1679 -0.4642  0.1496
 3222TIP3    H131225   2.690   3.404   0.825 -2.3247  0.5237  0.8459
 3222TIP3    H231226   2.758   3.482   0.936 -1.5427  0.0454  0.7097
 3223TIP3   OH231227   3.360   0.364   8.469  0.8847  0.1353 -0.0476
 3223TIP3    H131228   3.365   0.377   8.374  1.1025  0.1095 -0.0408
 3223TIP3    H231229   3.341   0.450   8.504 -5.1686 -0.6057 -0.4988
 3224TIP3   OH231230   4.550   0.588   1.983 -0.3973 -0.0604 -0.0318
 3224TIP3    H131231   4.624   0.643   2.008  0.4604 -0.0509 -2.3098
 3224TIP3    H231232   4.491   0.590   2.058  1.1643  1.2542  1.2134
 3225TIP3   OH231233   3.348   5.562   8.177  0.5268  0.1975 -0.7297
 3225TIP3    H131234   3.325   5.599   8.263 -0.6855  1.4102 -1.5277
 3225TIP3    H231235   3.381   5.475   8.196 -1.9223 -0.4850  0.8164
 3226TIP3   OH231236   4.843   6.214   2.202  0.1071  0.2282 -0.4505
 3226TIP3    H131237   4.764   6.265   2.186  0.4459  0.4344 -1.6142
 3226TIP3    H231238   4.912   6.280   2.213  0.3515  0.0426 -0.8328
 3227TIP3   OH231239   2.672   6.070   2.155 -0.2376 -0.4849 -0.2206
 3227TIP3    H131240   2.580   6.071   2.178  0.0328  0.9020  0.9061
 3227TIP3    H231241   2.711   6.141   2.205  1.3112 -0.5423 -1.2545
 3228TIP3   OH231242   0.621   0.407   1.159 -0.3477  0.2052 -0.0654
 3228TIP3    H131243   0.691   0.384   1.220  0.3216  0.3920 -0.7466
 3228TIP3    H231244   0.608   0.501   1.171 -0.2337  0.2372 -0.1918
 3229TIP3   OH231245   1.212   2.364   0.651  0.3817  0.0766 -0.2408
 3229TIP3    H131246   1.121   2.361   0.682  0.2448  0.6895 -0.5666
 3229TIP3    H231247   1.222   2.453   0.616  0.5458 -0.5681 -1.9130
 3230TIP3   OH231248   4.713   5.248   8.737 -0.1388  0.9899  0.4562
 3230TIP3    H131249   4.757   5.279   8.815  0.4565  0.7929  0.2018
 3230TIP3    H231250   4.777   5.194   8.692 -0.3217  1.4491 -0.3937
 3231TIP3   OH231251   6.553   3.365   1.101 -0.7552  0.9149 -0.3012
 3231TIP3    H131252   6.513   3.321   1.027  1.3581 -0.2888 -0.8076
 3231TIP3    H231253   6.493   3.349   1.174 -0.4277 -2.3586 -0.5941
 3232TIP3   OH231254   5.069   2.049   7.850  0.3911 -0.0049 -0.2659
 3232TIP3    H131255   5.030   1.976   7.899  0.2629 -0.1559 -0.5901
 3232TIP3    H231256   5.156   2.060   7.888  0.4703 -0.4307 -0.3223
 3233TIP3   OH231257   6.306   2.794   2.085  0.1149 -0.1982  0.0341
 3233TIP3    H131258   6.304   2.714   2.034  0.4056 -0.5072  0.4964
 3233TIP3    H231259   6.336   2.861   2.024  2.0965 -0.8760  0.1872
 3234TIP3   OH231260   0.822   0.866   7.446  0.0939 -0.5124  0.1323
 3234TIP3    H131261   0.744   0.826   7.408 -0.6938  1.6784 -0.7301
 3234TIP3    H231262   0.845   0.936   7.385  1.7979 -0.0948  1.1945
 3235TIP3   OH231263   3.771   0.146   3.052 -0.4928 -0.1015  0.2517
 3235TIP3    H131264   3.707   0.138   3.123 -1.2491  0.0930 -0.3928
 3235TIP3    H231265   3.783   0.240   3.041 -1.1794 -0.0927 -0.5621
 3236TIP3   OH231266   4.404   3.567   0.250 -0.5999 -0.3848  0.4219
 3236TIP3    H131267   4.464   3.525   0.188 -0.5272  0.0950  0.1659
 3236TIP3    H231268   4.428   3.530   0.335  0.1276 -0.1234  0.3361
 3237TIP3   OH231269   4.621   3.129   7.753 -0.6966  0.3298  0.1769
 3237TIP3    H131270   4.663   3.046   7.774 -1.6295  0.0882  1.1559
 3237TIP3    H231271   4.692   3.184   7.720  0.2556 -0.2684  1.1846
 3238TIP3   OH231272   3.380   2.975   2.660 -0.1689 -0.1984  0.0313
 3238TIP3    H131273   3.367   3.045   2.724  1.5647 -0.8480  1.1955
 3238TIP3    H231274   3.467   2.941   2.680 -0.4604 -1.8724 -1.3005
 3239TIP3   OH231275   1.313   0.755   6.976 -0.0916 -0.2482 -0.1281
 3239TIP3    H131276   1.373   0.733   7.047 -0.6654 -1.2445  0.0677
 3239TIP3    H231277   1.321   0.683   6.914  0.2115  0.4905 -0.9631
 3240TIP3   OH231278   1.929   0.881   0.197 -0.0371  0.3619  0.0113
 3240TIP3    H131279   1.965   0.793   0.185 -0.8378 -0.1913  1.4274
 3240TIP3    H231280   1.941   0.924   0.112  0.6781 -0.9931 -0.5973
 3241TIP3   OH231281   0.083   2.103   2.582  0.8320 -0.2144 -0.8468
 3241TIP3    H131282   0.034   2.179   2.615  0.9671 -0.2650 -0.5269
 3241TIP3    H231283   0.162   2.100   2.637  1.8356  0.6229 -2.1761
 3242TIP3   OH231284   3.642   3.616   7.260  0.3788 -0.2530  0.0836
 3242TIP3    H131285   3.696   3.541   7.285  0.8144  0.5363  1.6392
 3242TIP3    H231286   3.604   3.647   7.342 -1.8158 -0.2724 -0.8581
 3243TIP3   OH231287   5.030   3.564   8.381 -0.5357 -0.0940  0.2190
 3243TIP3    H131288   4.957   3.567   8.444  0.4863 -0.8467  1.4941
 3243TIP3    H231289   4.991   3.591   8.298 -2.7705 -2.3319  0.4048
 3244TIP3   OH231290   0.158   4.094   1.136  0.6124 -0.4674  0.1066
 3244TIP3    H131291   0.178   4.054   1.052 -0.9450 -0.1939 -0.4210
 3244TIP3    H231292   0.123   4.180   1.115  1.1960  0.0276  1.0943
 3245TIP3   OH231293   5.638   5.471   2.293 -0.2108  0.1498  0.2444
 3245TIP3    H131294   5.710   5.499   2.349 -0.4736  0.8443  0.2539
 3245TIP3    H231295   5.583   5.549   2.284 -1.0603 -0.4146  0.3895
 3246TIP3   OH231296   2.273   5.833   0.575 -0.3157 -0.3216  0.4887
 3246TIP3    H131297   2.349   5.891   0.570 -0.5295 -0.0045  0.8645
 3246TIP3    H231298   2.282   5.789   0.660 -1.5126  1.0787  1.3804
 3247TIP3   OH231299   1.482   1.576   1.776 -0.2681 -0.4211  0.1500
 3247TIP3    H131300   1.511   1.506   1.834  1.6661  1.1121  1.1281
 3247TIP3    H231301   1.555   1.589   1.716 -1.1241 -0.0861 -0.8487
 3248TIP3   OH231302   0.153   1.461   7.813  0.2330  0.1593  0.1884
 3248TIP3    H131303   0.137   1.515   7.890 -0.5153  0.3921 -0.1159
 3248TIP3    H231304   0.243   1.430   7.823  0.1841  0.2831  1.0921
 3249TIP3   OH231305   1.521   1.919   1.996  0.6372  0.4204 -0.5267
 3249TIP3    H131306   1.476   1.998   1.967  2.1733  3.0195  3.3795
 3249TIP3    H231307   1.453   1.851   1.997 -1.0596  1.9496 -2.7578
 3250TIP3   OH231308   3.163   6.219   0.423 -0.4335  0.3729  0.2856
 3250TIP3    H131309   3.239   6.237   0.479 -0.0285  0.3912 -0.2698
 3250TIP3    H231310   3.159   6.123   0.418 -1.1084  0.3373  1.2079
 3251TIP3   OH231311   6.493   4.024   1.318  0.0613 -0.2159 -0.2785
 3251TIP3    H131312   6.535   4.100   1.358  1.2583 -0.0842 -1.6699
 3251TIP3    H231313   6.417   4.061   1.271 -0.5958 -0.1990  0.7706
 3252TIP3   OH231314   1.702   3.646   8.689  0.1759  0.5454 -0.0662
 3252TIP3    H131315   1.670   3.733   8.665  1.2297  0.9372 -0.1323
 3252TIP3    H231316   1.798   3.655   8.689  0.2814 -0.2913  1.0968
 3253TIP3   OH231317   1.289   4.816   8.630  0.0260  0.0553  0.0070
 3253TIP3    H131318   1.308   4.901   8.590  1.1955  0.2722  0.9620
 3253TIP3    H231319   1.375   4.782   8.656 -0.6136 -0.4004  1.6353
 3254TIP3   OH231320   5.889   0.085   1.597 -0.1548  0.4911 -0.5557
 3254TIP3    H131321   5.886   0.161   1.539  0.3517 -0.6499 -2.1359
 3254TIP3    H231322   5.939   0.115   1.673  0.4305  1.6059 -1.3521
 3255TIP3   OH231323   5.661   3.110   1.856  0.0228  0.5886  0.3150
 3255TIP3    H131324   5.636   3.146   1.941  0.6024 -0.7376  1.0713
 3255TIP3    H231325   5.579   3.098   1.809 -0.6468 -1.5567  1.8827
 3256TIP3   OH231326   2.587   6.236   7.509 -0.3264  0.0280  0.0163
 3256TIP3    H131327   2.649   6.208   7.441  0.1959 -0.0470  0.5125
 3256TIP3    H231328   2.562   6.325   7.484  1.4083  0.7847  0.7645
 3257TIP3   OH231329   3.982   2.673   7.404  0.2196  0.5658  0.1009
 3257TIP3    H131330   4.043   2.607   7.436  2.0018  1.7590 -0.7253
 3257TIP3    H231331   3.922   2.688   7.478 -0.4785 -2.1746  0.1797
 3258TIP3   OH231332   3.274   2.083   8.612  0.5501  0.5187 -0.0804
 3258TIP3    H131333   3.267   2.125   8.698  1.2866 -1.0915  0.8144
 3258TIP3    H231334   3.183   2.065   8.587  0.2495  2.1378 -0.2726
 3259TIP3   OH231335   4.397   1.920   0.170  0.2383 -0.0941 -0.1581
 3259TIP3    H131336   4.406   1.844   0.113 -0.3576  0.7137 -1.3706
 3259TIP3    H231337   4.324   1.970   0.133  1.0306  1.4052  0.2069
 3260TIP3   OH231338   3.137   1.815   7.739 -0.3680  0.1908 -0.3484
 3260TIP3    H131339   3.207   1.767   7.783 -0.5727 -0.8344 -1.0993
 3260TIP3    H231340   3.172   1.835   7.652 -1.0728 -0.5252 -0.8103
 3261TIP3   OH231341   5.039   3.559   1.942 -0.4771  0.4696 -1.4425
 3261TIP3    H131342   4.984   3.572   2.019  0.9429  0.6638 -0.4225
 3261TIP3    H231343   4.988   3.596   1.870 -1.4069  1.2065 -0.4385
 3262TIP3   OH231344   3.765   3.328   2.789  0.1239  0.0457 -0.1245
 3262TIP3    H131345   3.743   3.246   2.744 -1.0153  0.4599 -0.3334
 3262TIP3    H231346   3.855   3.314   2.820 -0.4587 -1.7421  0.8842
 3263TIP3   OH231347   3.955   4.402   0.391  0.0063 -0.5430 -0.6636
 3263TIP3    H131348   4.024   4.468   0.381 -1.1541  0.6167 -1.2544
 3263TIP3    H231349   3.878   4.442   0.352 -0.8271 -2.1230 -0.7036
 3264TIP3   OH231350   1.621   3.357   0.200 -0.2680  0.3630 -0.2967
 3264TIP3    H131351   1.625   3.414   0.123 -1.1162 -0.3586 -0.8892
 3264TIP3    H231352   1.686   3.289   0.183  1.7705  1.8290  1.0380
 3265TIP3   OH231353   3.028   4.228   8.155  0.1917  0.2392 -0.3822
 3265TIP3    H131354   3.110   4.181   8.139 -0.3241 -1.1412  0.8137
 3265TIP3    H231355   2.989   4.239   8.068 -0.5295 -3.2605 -0.6438
 3266TIP3   OH231356   4.635   5.445   1.756  0.0303 -0.3668 -0.5691
 3266TIP3    H131357   4.665   5.532   1.729  0.8911  0.1751  1.8755
 3266TIP3    H231358   4.707   5.387   1.734  0.0437 -0.2134 -0.9278
 3267TIP3   OH231359   5.126   5.248   8.340 -0.3271  0.7463  0.2069
 3267TIP3    H131360   5.202   5.238   8.397 -1.2385 -1.3517  1.1799
 3267TIP3    H231361   5.066   5.303   8.391 -1.1147 -1.0759  1.3472
 3268TIP3   OH231362   6.677   1.221   8.616 -0.2424 -0.0951 -0.0638
 3268TIP3    H131363   6.682   1.147   8.677  0.8601 -0.9762 -1.1567
 3268TIP3    H231364   6.662   1.180   8.530 -0.2482  1.0046 -0.6081
 3269TIP3   OH231365   6.149   1.433   2.344  0.6894  0.3657 -0.3251
 3269TIP3    H131366   6.113   1.472   2.424  1.6559  1.5479 -0.4472
 3269TIP3    H231367   6.108   1.346   2.340 -2.4275  1.6915 -0.6307
 3270TIP3   OH231368   6.284   2.578   1.945 -0.4482  0.7632 -0.2459
 3270TIP3    H131369   6.199   2.534   1.938 -0.8749  1.7698 -1.9891
 3270TIP3    H231370   6.326   2.564   1.860  0.9711  0.6375  0.4469
 3271TIP3   OH231371   0.429   0.861   7.230  0.3554  0.4524  0.6930
 3271TIP3    H131372   0.428   0.842   7.324 -0.4478 -1.5173  0.3171
 3271TIP3    H231373   0.506   0.917   7.219 -0.0591  1.5175  2.6430
 3272TIP3   OH231374   0.966   2.485   2.245  0.2026 -0.2757  0.6966
 3272TIP3    H131375   0.992   2.577   2.254 -0.8638  0.4075 -1.9467
 3272TIP3    H231376   0.874   2.483   2.273 -0.4286  0.0037 -1.1754
 3273TIP3   OH231377   6.134   6.446   1.263 -0.3880  0.2431 -0.1562
 3273TIP3    H131378   6.172   6.449   1.175 -1.2463  0.4792 -0.5221
 3273TIP3    H231379   6.093   6.532   1.274 -1.1988 -0.1700  0.0598
 3274TIP3   OH231380   6.593   0.294   7.935 -0.1344  0.2908  0.3213
 3274TIP3    H131381   6.630   0.265   7.852 -0.3431  2.2870 -0.5276
 3274TIP3    H231382   6.517   0.348   7.910  1.3563  3.2508  1.5829
 3275TIP3   OH231383   2.058   2.790   0.580 -0.3181 -0.5145 -0.3087
 3275TIP3    H131384   2.033   2.706   0.619 -0.8057 -0.1175  0.2350
 3275TIP3    H231385   1.992   2.852   0.609  0.7562  0.3510  0.3899
 3276TIP3   OH231386   5.344   2.748   1.711 -0.3079 -0.4532 -1.1652
 3276TIP3    H131387   5.363   2.725   1.802  0.0064 -1.0516 -1.3764
 3276TIP3    H231388   5.383   2.677   1.660  0.0562  0.1910 -1.7965
 3277TIP3   OH231389   1.668   6.062   8.616 -0.2039 -0.0095 -0.1991
 3277TIP3    H131390   1.620   6.103   8.688  0.5766  0.2567  0.1859
 3277TIP3    H231391   1.754   6.041   8.653  0.7332  1.4302 -1.4176
 3278TIP3   OH231392   2.243   6.062   0.236 -0.0222 -0.2572  0.4713
 3278TIP3    H131393   2.223   6.106   0.153 -0.7920  0.9751  1.2770
 3278TIP3    H231394   2.328   6.021   0.221 -0.1321 -0.0272 -0.9186
 3279TIP3   OH231395   4.332   5.285   7.435  0.2664  0.1067 -0.5643
 3279TIP3    H131396   4.263   5.223   7.459  0.3541  0.6391  1.2542
 3279TIP3    H231397   4.304   5.368   7.474  0.8632  0.8813 -1.7104
 3280TIP3   OH231398   0.100   2.375   1.164 -0.3105 -0.5559 -0.2330
 3280TIP3    H131399   0.187   2.373   1.123 -0.5574  0.8478 -0.8857
 3280TIP3    H231400   0.077   2.468   1.167 -1.5737 -0.8675  0.4056
 3281TIP3   OH231401   2.813   0.771   1.850  0.2851 -0.3661 -0.1437
 3281TIP3    H131402   2.842   0.721   1.775 -0.6710  0.7204 -1.2873
 3281TIP3    H231403   2.726   0.736   1.871  1.0611 -1.5305  1.3034
 3282TIP3   OH231404   5.589   4.431   1.939 -0.1609  0.2443 -0.4667
 3282TIP3    H131405   5.561   4.340   1.929 -0.7907  0.5267 -1.4245
 3282TIP3    H231406   5.618   4.438   2.031 -2.9391 -0.1569  0.5221
 3283TIP3   OH231407   1.553   4.302   8.068  0.8708  0.1992 -0.3230
 3283TIP3    H131408   1.587   4.261   7.988 -2.3960 -0.5205 -1.5116
 3283TIP3    H231409   1.584   4.247   8.139  0.9456 -1.2721 -1.4568
 3284TIP3   OH231410   3.436   4.241   8.185 -0.4819  0.2881  0.2770
 3284TIP3    H131411   3.444   4.150   8.156  0.0189  0.2356  0.5778
 3284TIP3    H231412   3.469   4.241   8.275 -0.8048  0.7042  0.4015
 3285TIP3   OH231413   5.788   4.422   2.425  0.8007 -0.2928  0.0569
 3285TIP3    H131414   5.875   4.462   2.419  0.1264  1.7031  2.2184
 3285TIP3    H231415   5.787   4.379   2.511 -0.6200  0.4931  0.4598
 3286TIP3   OH231416   5.279   6.494   7.465  0.1382  0.0794  0.0725
 3286TIP3    H131417   5.196   6.452   7.486 -0.3054  1.1366  0.5219
 3286TIP3    H231418   5.343   6.449   7.521 -0.2810 -0.1551  0.3726
 3287TIP3   OH231419   6.232   0.668   2.007  0.8197  0.2208 -0.2790
 3287TIP3    H131420   6.189   0.593   1.965  0.2449  0.3883  0.0017
 3287TIP3    H231421   6.254   0.727   1.935  0.1786  0.3331 -0.3888
 3288TIP3   OH231422   1.428   0.480   7.777  0.0512 -0.5685 -0.0067
 3288TIP3    H131423   1.382   0.458   7.859  0.2726 -0.0981  0.2462
 3288TIP3    H231424   1.358   0.489   7.713 -0.0738 -1.6053 -0.0240
 3289TIP3   OH231425   5.831   1.285   1.994 -0.7104 -0.3821 -0.4618
 3289TIP3    H131426   5.852   1.284   1.900  1.2056  0.5354 -0.0793
 3289TIP3    H231427   5.851   1.374   2.022  1.5301 -1.3618  1.3870
 3290TIP3   OH231428   3.191   1.829   2.065 -0.0975  0.3614  0.3397
 3290TIP3    H131429   3.249   1.905   2.061  0.1412  0.5743  4.2736
 3290TIP3    H231430   3.250   1.754   2.055  0.7266  0.6199  2.7754
 3291TIP3   OH231431   1.924   2.180   8.050  0.1132 -0.0150 -0.0823
 3291TIP3    H131432   1.873   2.258   8.025 -0.2238  0.4010  1.7416
 3291TIP3    H231433   2.002   2.216   8.092 -0.0756 -0.6371  0.8309
 3292TIP3   OH231434   3.911   1.561   2.983 -0.1718 -0.3227  0.3198
 3292TIP3    H131435   3.825   1.526   2.961  0.4539 -0.0406 -3.2897
 3292TIP3    H231436   3.898   1.655   2.991 -0.2520 -0.3090  0.0312
 3293TIP3   OH231437   2.069   0.219   0.386 -0.8981 -0.4906 -0.0676
 3293TIP3    H131438   1.980   0.185   0.400 -1.1364  0.2135  0.1314
 3293TIP3    H231439   2.119   0.181   0.458 -1.0104 -0.9550 -0.2243
 3294TIP3   OH231440   1.150   0.644   0.395  0.2661  0.2329 -0.0889
 3294TIP3    H131441   1.144   0.594   0.313  0.2871  0.0983 -0.0095
 3294TIP3    H231442   1.145   0.577   0.463 -0.9148  0.4385  0.0490
 3295TIP3   OH231443   6.388   0.836   0.859 -0.4697  0.3257 -0.1516
 3295TIP3    H131444   6.400   0.834   0.764  1.6252 -0.2407  0.0887
 3295TIP3    H231445   6.299   0.804   0.872 -1.4900  2.1712 -2.0052
 3296TIP3   OH231446   6.829   2.936   7.805  0.3818  0.1714  0.2409
 3296TIP3    H131447   6.847   2.850   7.767  0.8781  0.8472 -1.1202
 3296TIP3    H231448   6.892   2.945   7.876  1.9461  0.3400 -1.1053
 3297TIP3   OH231449   1.063   2.753   3.051 -1.0459  0.1923 -0.3891
 3297TIP3    H131450   1.116   2.692   3.102  0.3905  2.3814  0.9000
 3297TIP3    H231451   1.006   2.697   2.999  0.3000 -2.2266  0.5661
 3298TIP3   OH231452   1.655   2.223   0.662  0.3096 -0.6478  0.9408
 3298TIP3    H131453   1.578   2.177   0.695 -0.5569 -0.2237 -0.4361
 3298TIP3    H231454   1.623   2.309   0.637  1.4528 -0.0885  1.3166
 3299TIP3   OH231455   0.455   5.003   0.092  0.0975  0.4608 -0.2570
 3299TIP3    H131456   0.497   5.037   0.014  1.7862 -0.3018  0.2671
 3299TIP3    H231457   0.507   5.037   0.165 -0.5968  0.0190  0.4710
 3300TIP3   OH231458   6.453   1.805   0.664 -0.0174  0.5037  0.2182
 3300TIP3    H131459   6.513   1.732   0.649 -1.2627 -0.9742  1.9233
 3300TIP3    H231460   6.462   1.824   0.758 -0.0197  2.3084 -0.1126
 3301TIP3   OH231461   1.303   0.015   8.087  0.0573 -0.3699 -0.2169
 3301TIP3    H131462   1.225   0.055   8.048 -0.2193 -1.1808 -0.5368
 3301TIP3    H231463   1.282   0.007   8.180 -0.5208 -1.1782 -0.4056
 3302TIP3   OH231464   0.932   6.066   7.942 -0.3192  0.1645 -0.0496
 3302TIP3    H131465   1.023   6.092   7.924 -0.4097 -0.3526 -1.3655
 3302TIP3    H231466   0.906   6.017   7.865 -1.8295  0.5532  0.1892
 3303TIP3   OH231467   4.586   2.162   1.325  0.6156  0.2576 -0.4488
 3303TIP3    H131468   4.629   2.110   1.392  1.7885  0.9004 -0.6844
 3303TIP3    H231469   4.509   2.198   1.368 -0.5391 -2.0500 -0.4113
 3304TIP3   OH231470   5.571   2.946   7.125 -0.4393  0.2530 -0.3198
 3304TIP3    H131471   5.506   2.877   7.138  0.5739 -0.7074 -0.2735
 3304TIP3    H231472   5.546   3.014   7.188  0.0479 -1.1669  1.4723
 3305TIP3   OH231473   1.977   3.246   2.158  0.0180  0.1407  0.6041
 3305TIP3    H131474   1.952   3.155   2.172 -0.0422  0.0456 -0.0874
 3305TIP3    H231475   1.985   3.283   2.246 -1.7106 -0.0481  0.8673
 3306TIP3   OH231476   3.641   2.099   6.990  0.1097 -0.4336 -0.6043
 3306TIP3    H131477   3.550   2.118   7.014  0.3556  0.4953 -0.3767
 3306TIP3    H231478   3.636   2.018   6.940 -0.7066 -1.1075  0.5077
 3307TIP3   OH231479   5.017   0.855   8.513 -0.5919 -0.0398  0.0502
 3307TIP3    H131480   4.947   0.805   8.555 -0.8298 -0.3517 -0.6960
 3307TIP3    H231481   5.002   0.946   8.540 -1.1085 -0.1472  0.1296
 3308TIP3   OH231482   2.875   2.669   8.021 -0.4750 -0.3356 -0.0439
 3308TIP3    H131483   2.781   2.680   8.036 -0.1926  0.9011  1.0334
 3308TIP3    H231484   2.882   2.632   7.933 -1.9554 -0.2949 -0.1968
 3309TIP3   OH231485   1.895   2.047   8.412  0.1397 -0.5668 -0.2042
 3309TIP3    H131486   1.841   2.110   8.458  0.5289  0.1368 -0.6928
 3309TIP3    H231487   1.946   2.099   8.350 -1.2807 -1.5785 -2.3446
 3310TIP3   OH231488   0.253   2.380   2.574 -0.6672 -0.0143  0.4744
 3310TIP3    H131489   0.268   2.382   2.668  1.4414 -0.2962  0.2064
 3310TIP3    H231490   0.311   2.447   2.539 -0.9837 -0.3145 -0.6676
 3311TIP3   OH231491   1.585   6.711   2.067 -0.1070 -0.0500  0.0034
 3311TIP3    H131492   1.604   6.800   2.037  1.6875  0.5480  2.5813
 3311TIP3    H231493   1.671   6.673   2.085 -0.7702 -2.7259 -1.9250
 3312TIP3   OH231494   0.417   0.482   8.247  0.2014 -0.2361 -0.3805
 3312TIP3    H131495   0.379   0.511   8.330  2.7580  0.9904  0.4497
 3312TIP3    H231496   0.386   0.391   8.237 -2.5504  0.5254  0.3525
 3313TIP3   OH231497   4.229   1.008   7.549  0.3401 -0.5706  0.3717
 3313TIP3    H131498   4.221   0.935   7.486 -0.1807  0.0494 -0.2940
 3313TIP3    H231499   4.189   1.082   7.504  0.6734  0.0779  1.1375
 3314TIP3   OH231500   5.415   3.960   1.376  0.8778  0.2966  0.5121
 3314TIP3    H131501   5.423   3.882   1.431  0.7429 -0.0442  0.0579
 3314TIP3    H231502   5.333   4.001   1.403  1.7879  1.2602  1.9753
 3315TIP3   OH231503   5.841   5.729   3.098 -0.2122  0.3270  0.9735
 3315TIP3    H131504   5.919   5.770   3.137 -0.7231  0.9367  1.3771
 3315TIP3    H231505   5.819   5.658   3.157  0.6207 -0.4904  0.3241
 3316TIP3   OH231506   4.020   5.823   2.091 -0.0105  0.1261  0.0843
 3316TIP3    H131507   4.065   5.908   2.099  1.2374 -0.2824 -2.0448
 3316TIP3    H231508   4.079   5.761   2.134  0.2905 -0.0377 -0.5608
 3317TIP3   OH231509   0.737   0.054   8.738  0.1129  0.4890  0.2747
 3317TIP3    H131510   0.658   0.104   8.759  0.9619  1.5709  1.0255
 3317TIP3    H231511   0.770   0.024   8.823  0.4946  0.0055 -0.0382
 3318TIP3   OH231512   1.899   2.557   0.933  0.1255 -0.0648 -0.5455
 3318TIP3    H131513   1.924   2.511   0.852  1.5067  0.1263 -0.2414
 3318TIP3    H231514   1.948   2.513   1.002  0.0048  0.6554  0.0110
 3319TIP3   OH231515   5.894   4.537   8.110  0.4756  0.4711 -0.6083
 3319TIP3    H131516   5.971   4.576   8.150 -0.2437  1.6699 -0.3296
 3319TIP3    H231517   5.839   4.612   8.085 -0.0446 -0.3082 -1.9433
 3320TIP3   OH231518   1.615   3.193   1.375  0.2530 -0.6799 -0.0761
 3320TIP3    H131519   1.584   3.283   1.376  3.5852  0.6061  1.3946
 3320TIP3    H231520   1.686   3.192   1.311  2.1270 -1.4273  1.8625
 3321TIP3   OH231521   6.748   3.453   0.111  0.0626  0.1753  0.0427
 3321TIP3    H131522   6.767   3.543   0.139 -0.6198  0.6274 -0.8727
 3321TIP3    H231523   6.811   3.399   0.158  0.3394  1.1110  0.7810
 3322TIP3   OH231524   4.586   5.266   0.415 -0.0588  0.8969 -0.3219
 3322TIP3    H131525   4.567   5.208   0.340  2.2639 -2.1703  1.2334
 3322TIP3    H231526   4.515   5.248   0.477 -0.2121  0.9518 -0.4786
 3323TIP3   OH231527   1.089   1.901   3.168 -0.2301  0.3074 -0.2437
 3323TIP3    H131528   1.010   1.927   3.121 -0.4652 -1.9446 -1.2124
 3323TIP3    H231529   1.072   1.810   3.194  0.9666  0.6342  1.9404
 3324TIP3   OH231530   1.448   3.283   2.415 -0.1580  0.5832 -0.0429
 3324TIP3    H131531   1.459   3.260   2.507 -0.2601  0.2735 -0.1058
 3324TIP3    H231532   1.472   3.376   2.410  1.6360  0.1567 -0.0248
 3325TIP3   OH231533   2.715   2.231   8.757  0.7908 -0.4903  0.4334
 3325TIP3    H131534   2.727   2.207   8.665 -0.7744 -1.0913  0.3621
 3325TIP3    H231535   2.697   2.325   8.756 -2.5085 -1.0140 -0.2659
 3326TIP3   OH231536   1.514   0.403   8.583  1.0893  0.1973 -0.2512
 3326TIP3    H131537   1.553   0.481   8.544  0.2664  0.5864 -0.3211
 3326TIP3    H231538   1.420   0.418   8.579  0.9471 -0.0316  1.2803
 3327TIP3   OH231539   0.371   0.317   8.574 -0.7381 -0.1399 -0.2255
 3327TIP3    H131540   0.317   0.260   8.630  0.6059 -0.7552  0.5144
 3327TIP3    H231541   0.324   0.400   8.572 -0.0266  0.5282  3.3639
 3328TIP3   OH231542   5.830   1.080   7.469  0.7712 -0.3107 -0.9625
 3328TIP3    H131543   5.793   1.167   7.486 -0.0085 -0.9553  0.7956
 3328TIP3    H231544   5.809   1.063   7.377 -1.7476  0.1423 -0.5585
 3329TIP3   OH231545   1.046   4.966   2.284  0.2027  0.9677 -0.3240
 3329TIP3    H131546   1.006   4.901   2.227 -0.0639  0.9418 -0.1080
 3329TIP3    H231547   1.074   4.917   2.361 -4.0440  1.6839  1.9902
 3330TIP3   OH231548   5.799   6.295   7.461  0.2449 -0.0567 -0.0750
 3330TIP3    H131549   5.763   6.365   7.407 -0.5826  0.5788  1.2697
 3330TIP3    H231550   5.722   6.252   7.499  0.8297 -0.2204  0.9409
 3331TIP3   OH231551   0.271   2.769   1.062  0.5600  0.1711 -0.1757
 3331TIP3    H131552   0.266   2.861   1.088 -0.5262  0.4212 -1.1694
 3331TIP3    H231553   0.198   2.727   1.108  2.0891 -0.6099  1.6815
 3332TIP3   OH231554   5.908   5.259   8.423 -0.3121 -0.2810 -0.4601
 3332TIP3    H131555   5.871   5.174   8.399  0.6002 -0.8410  0.0819
 3332TIP3    H231556   5.831   5.313   8.444 -0.8528 -1.3636  0.4498
 3333TIP3   OH231557   5.089   1.862   8.147 -0.4866  0.7870 -0.3510
 3333TIP3    H131558   5.125   1.951   8.149  1.4219  0.0711  0.5778
 3333TIP3    H231559   5.034   1.857   8.225 -2.5169  1.8228 -1.6446
 3334TIP3   OH231560   4.365   1.326   8.709 -0.0595 -0.0488 -0.0961
 3334TIP3    H131561   4.415   1.403   8.683  2.9231 -1.7578  0.1716
 3334TIP3    H231562   4.405   1.253   8.662  0.6773 -2.1710  3.4225
 3335TIP3   OH231563   0.913   4.628   1.039 -0.5543 -0.4088  0.1217
 3335TIP3    H131564   0.967   4.587   1.106 -2.1736 -1.0318  1.0878
 3335TIP3    H231565   0.914   4.567   0.966  0.5171 -0.1246 -0.1219
 3336TIP3   OH231566   0.521   1.830   2.338 -0.1676 -0.0942 -0.6983
 3336TIP3    H131567   0.582   1.879   2.394  0.2196 -0.0552 -1.1495
 3336TIP3    H231568   0.526   1.873   2.253 -1.3187  0.3079 -0.5816
 3337TIP3   OH231569   0.225   1.088   8.282  0.5329  0.3556 -0.5001
 3337TIP3    H131570   0.157   1.138   8.328  1.5981 -0.2293  1.8588
 3337TIP3    H231571   0.289   1.153   8.255  0.6751  0.5729  0.3176
 3338TIP3   OH231572   5.083   3.118   3.271  0.2179  0.1199 -0.1224
 3338TIP3    H131573   5.116   3.204   3.246  3.3958 -1.6266 -2.6528
 3338TIP3    H231574   5.029   3.090   3.197  1.1190 -0.9355 -0.4069
 3339TIP3   OH231575   0.731   5.783   8.346  0.1084 -0.6123  0.1565
 3339TIP3    H131576   0.715   5.822   8.260 -0.5895  1.6385  1.2385
 3339TIP3    H231577   0.825   5.770   8.349  0.2929  0.4431 -0.5062
 3340TIP3   OH231578   2.061   1.888   2.071 -0.8085  0.2544 -0.1020
 3340TIP3    H131579   1.989   1.840   2.030 -0.6357 -0.8476  0.8420
 3340TIP3    H231580   2.023   1.974   2.091 -1.5612  0.0256 -0.4989
 3341TIP3   OH231581   4.938   5.110   2.097  0.2816 -0.2182  0.2628
 3341TIP3    H131582   5.013   5.053   2.107 -1.1305 -2.3346 -0.4836
 3341TIP3    H231583   4.881   5.088   2.170  0.6461  1.8946  1.2576
 3342TIP3   OH231584   0.134   0.117   2.907 -0.2785 -0.2286 -0.2043
 3342TIP3    H131585   0.165   0.030   2.881 -0.1168 -0.4591  0.7076
 3342TIP3    H231586   0.200   0.149   2.968 -0.3513  0.5315 -0.5162
 3343TIP3   OH231587   3.307   4.993   3.143  0.4708  0.1644 -0.0614
 3343TIP3    H131588   3.230   5.027   3.189  1.5307 -0.2019  2.0750
 3343TIP3    H231589   3.319   4.905   3.178  1.5549  0.0095 -0.7812
 3344TIP3   OH231590   3.466   6.392   1.157  0.2399  0.1735 -0.3899
 3344TIP3    H131591   3.462   6.316   1.099 -0.0108 -0.1087 -0.0060
 3344TIP3    H231592   3.383   6.438   1.142 -1.0273 -1.2732  1.5817
 3345TIP3   OH231593   5.202   5.829   7.980  0.5784 -0.3542 -0.1356
 3345TIP3    H131594   5.215   5.758   7.917  2.1623 -0.1798 -0.0220
 3345TIP3    H231595   5.199   5.908   7.926  1.7479 -0.2244 -0.0314
 3346TIP3   OH231596   2.356   4.730   2.778  0.2572  0.2379 -0.2079
 3346TIP3    H131597   2.395   4.709   2.862 -0.0633  0.8048  0.0942
 3346TIP3    H231598   2.300   4.806   2.796 -0.5357 -0.2011 -0.7387
 3347TIP3   OH231599   4.494   6.096   1.864 -0.4559  0.2238 -0.5208
 3347TIP3    H131600   4.415   6.143   1.890 -0.6433  0.0241 -0.7269
 3347TIP3    H231601   4.530   6.064   1.947 -1.5723 -1.2339 -0.5455
 3348TIP3   OH231602   0.827   4.319   2.283  0.0819  0.4829  0.5924
 3348TIP3    H131603   0.847   4.226   2.283 -0.7586  0.2652 -0.9492
 3348TIP3    H231604   0.765   4.330   2.210 -1.3467  1.9230  1.9457
 3349TIP3   OH231605   4.966   1.396   2.267 -0.0176 -0.1985  0.0642
 3349TIP3    H131606   4.915   1.393   2.349 -0.1090 -0.6569 -0.0042
 3349TIP3    H231607   4.985   1.489   2.254  0.3793 -0.1586  0.8429
 3350TIP3   OH231608   6.541   1.067   2.718 -0.1238 -0.5055 -0.4426
 3350TIP3    H131609   6.466   1.053   2.660 -0.4924 -1.8400  0.3076
 3350TIP3    H231610   6.504   1.060   2.806  0.6645  0.1280 -0.0450
 3351TIP3   OH231611   1.246   4.878   1.392 -0.0907  0.5404  0.7413
 3351TIP3    H131612   1.305   4.856   1.463 -1.4918  2.2566  2.5481
 3351TIP3    H231613   1.175   4.814   1.400  0.1942  0.1606  0.2802
 3352TIP3   OH231614   2.463   6.466   2.940  0.1498 -0.0446 -0.1252
 3352TIP3    H131615   2.400   6.395   2.952 -0.0564  0.2642  0.6252
 3352TIP3    H231616   2.548   6.422   2.940 -0.0527 -0.4749 -1.2463
 3353TIP3   OH231617   4.054   1.901   2.337 -0.2493 -0.4199 -0.7036
 3353TIP3    H131618   4.004   1.983   2.345  1.8694  1.3027 -3.2876
 3353TIP3    H231619   4.110   1.899   2.414 -1.1437 -0.0687 -0.0266
 3354TIP3   OH231620   2.300   4.398   0.202  0.4409  0.4853  0.6860
 3354TIP3    H131621   2.244   4.392   0.280 -0.7320 -1.5911 -0.2538
 3354TIP3    H231622   2.389   4.389   0.237 -0.1153 -1.6675  1.7466
 3355TIP3   OH231623   1.412   4.066   0.333  0.2231 -0.8339 -0.2919
 3355TIP3    H131624   1.504   4.055   0.358  0.3493 -1.3812 -0.9362
 3355TIP3    H231625   1.413   4.058   0.237 -0.1076  2.0151 -0.6232
 3356TIP3   OH231626   6.633   5.652   8.464 -0.3948 -0.3569 -0.4905
 3356TIP3    H131627   6.598   5.564   8.477 -0.5479  0.0497  2.4491
 3356TIP3    H231628   6.608   5.675   8.374 -2.8675 -2.1655 -0.3507
 3357TIP3   OH231629   0.223   0.395   7.088  0.0538 -0.2606 -0.2111
 3357TIP3    H131630   0.318   0.399   7.093  0.1671 -1.3384 -1.0270
 3357TIP3    H231631   0.194   0.486   7.097  1.1634  0.1004 -0.1316
 3358TIP3   OH231632   4.611   3.105   1.160 -0.6551 -0.0024 -0.0481
 3358TIP3    H131633   4.617   3.107   1.256 -0.2932  1.1121 -0.0838
 3358TIP3    H231634   4.610   3.012   1.138 -3.7599 -0.3984  1.2312
 3359TIP3   OH231635   2.164   1.069   1.684  0.1154 -0.4433 -0.5716
 3359TIP3    H131636   2.183   0.998   1.746 -0.0317  1.3288  1.6470
 3359TIP3    H231637   2.109   1.029   1.618 -0.2953 -2.3260  0.8244
 3360TIP3   OH231638   5.351   0.333   0.689 -0.2700 -0.2965 -0.4595
 3360TIP3    H131639   5.437   0.292   0.700  0.6687  1.4957 -0.7221
 3360TIP3    H231640   5.314   0.292   0.611  0.0228 -1.5899  0.0626
 3361TIP3   OH231641   1.848   1.336   1.723 -0.3260 -0.5347  0.1215
 3361TIP3    H131642   1.838   1.431   1.726 -0.2590 -0.4005 -1.9379
 3361TIP3    H231643   1.822   1.305   1.809 -1.4160  1.2632  0.4696
 3362TIP3   OH231644   0.000   2.482   8.497  0.2846 -0.3333 -0.0419
 3362TIP3    H131645  -0.062   2.440   8.557  0.4538 -0.5783 -0.0376
 3362TIP3    H231646   0.037   2.554   8.548 -0.2761  0.0496 -0.1716
 3363TIP3   OH231647   3.086   3.039   7.577 -0.3364 -0.4776  0.4483
 3363TIP3    H131648   3.173   3.068   7.547 -0.4596 -0.2950  0.2675
 3363TIP3    H231649   3.026   3.104   7.542 -0.3310  0.7541  2.5345
 3364TIP3   OH231650   1.421   6.512   2.163 -0.7509 -0.5723  0.5338
 3364TIP3    H131651   1.364   6.492   2.088 -0.1947 -0.9233  0.1958
 3364TIP3    H231652   1.482   6.578   2.130  0.0435 -1.3458  0.4007
 3365TIP3   OH231653   1.139   2.135   0.110  0.1758  0.1310 -0.6788
 3365TIP3    H131654   1.137   2.213   0.055 -0.3448 -0.4341 -1.4730
 3365TIP3    H231655   1.070   2.079   0.075  1.0554 -1.0254 -0.6275
 3366TIP3   OH231656   3.220   1.008   2.190 -0.4197  0.5739  0.0442
 3366TIP3    H131657   3.271   0.982   2.267  0.0319  0.8052 -0.1747
 3366TIP3    H231658   3.173   0.929   2.165  0.0394  0.2847  0.0890
 3367TIP3   OH231659   1.159   2.417   1.641 -0.0379  0.5485 -0.1166
 3367TIP3    H131660   1.134   2.422   1.733  1.7634  1.2947  0.3733
 3367TIP3    H231661   1.253   2.430   1.641 -0.1045  1.3850 -2.1462
 3368TIP3   OH231662   0.585   3.901   2.514 -0.1472  0.5840  0.7805
 3368TIP3    H131663   0.639   3.857   2.450 -0.0195  1.2989  0.3846
 3368TIP3    H231664   0.624   3.878   2.599 -0.7802 -0.9925  0.6777
 3369TIP3   OH231665   6.462   6.459   0.382  0.0732  0.0025  0.3055
 3369TIP3    H131666   6.536   6.519   0.392 -0.1608  0.2782  0.4002
 3369TIP3    H231667   6.496   6.389   0.325  0.3822  0.1632  0.2863
 3370TIP3   OH231668   4.332   0.846   8.578 -0.3633  0.0705  0.0525
 3370TIP3    H131669   4.311   0.835   8.486  0.9946  2.1055 -0.5802
 3370TIP3    H231670   4.353   0.758   8.609 -0.3801 -0.5894 -1.7145
 3371TIP3   OH231671   3.014   6.752   8.284 -0.0215 -0.3136  0.1696
 3371TIP3    H131672   2.964   6.830   8.307 -1.3028 -1.1197  0.2251
 3371TIP3    H231673   3.064   6.777   8.206  0.4553  0.8875  0.8413
 3372TIP3   OH231674   6.588   4.799   1.798 -0.2752  0.2776 -0.2799
 3372TIP3    H131675   6.547   4.720   1.762  1.2561 -0.4076 -0.5947
 3372TIP3    H231676   6.551   4.807   1.886 -0.1326 -1.0425 -0.0803
 3373TIP3   OH231677   2.704   3.322   2.893  0.3304 -0.4863 -0.4767
 3373TIP3    H131678   2.636   3.388   2.878  1.2071  0.6969  0.4988
 3373TIP3    H231679   2.785   3.364   2.864  0.9331 -1.0464  0.3368
 3374TIP3   OH231680   2.328   0.883   2.572  0.0523  0.5266 -0.3193
 3374TIP3    H131681   2.264   0.934   2.523  0.6007  0.8126 -0.7456
 3374TIP3    H231682   2.412   0.908   2.536  0.4256  0.2760  0.3491
 3375TIP3   OH231683   0.456   3.606   0.715 -0.1784  0.5902 -0.2367
 3375TIP3    H131684   0.482   3.580   0.626 -3.3644  0.6013 -1.2914
 3375TIP3    H231685   0.385   3.546   0.738  0.3668  0.7840  2.2513
 3376TIP3   OH231686   5.030   1.736   2.009 -0.0743 -0.0430 -0.2596
 3376TIP3    H131687   5.053   1.677   2.082  0.5733  0.0840 -0.3504
 3376TIP3    H231688   5.111   1.742   1.958  0.2922  1.9650  0.4649
 3377TIP3   OH231689   0.207   2.732   0.776  0.6221  0.1362 -0.5911
 3377TIP3    H131690   0.236   2.751   0.865 -0.7771  1.4790 -0.3796
 3377TIP3    H231691   0.277   2.678   0.739  1.7115  0.4078  0.9720
 3378TIP3   OH231692   1.095   4.309   7.924  0.4862 -0.4352 -0.3395
 3378TIP3    H131693   1.132   4.387   7.883 -0.9143  0.7132  0.4729
 3378TIP3    H231694   1.159   4.284   7.990  0.5136  0.6308  0.0585
 3379TIP3   OH231695   2.790   6.627   1.327  0.3834  0.4895 -0.0710
 3379TIP3    H131696   2.780   6.650   1.419  3.5841  4.1007 -0.3896
 3379TIP3    H231697   2.864   6.566   1.325  0.7999  0.9936 -0.2772
 3380TIP3   OH231698   6.725   6.024   1.427  0.3165 -0.1314  0.3298
 3380TIP3    H131699   6.657   5.962   1.452 -0.9916  0.5440 -1.3386
 3380TIP3    H231700   6.728   6.086   1.500  0.2950 -1.0522  1.1403
 3381TIP3   OH231701   4.123   5.476   6.996 -0.3663 -0.1375  0.4373
 3381TIP3    H131702   4.155   5.559   6.962  1.9729 -0.5617  1.4131
 3381TIP3    H231703   4.184   5.411   6.963 -0.5227 -1.0904  1.9381
 3382TIP3   OH231704   5.116   4.944   7.627  0.2428  0.0216  0.3301
 3382TIP3    H131705   5.158   4.897   7.554 -2.4921 -1.8567 -0.1823
 3382TIP3    H231706   5.122   4.884   7.701  0.5663  0.7587  0.9151
 3383TIP3   OH231707   1.859   3.372   8.710  0.0955 -0.8969 -0.0366
 3383TIP3    H131708   1.930   3.392   8.649  0.8245 -0.0956  1.0380
 3383TIP3    H231709   1.786   3.343   8.654  0.1473  1.4347 -1.4544
 3384TIP3   OH231710   3.651   5.888   0.883 -0.3740  0.4618  0.0910
 3384TIP3    H131711   3.561   5.855   0.890 -0.7472  1.4810  0.3099
 3384TIP3    H231712   3.705   5.817   0.916 -1.2364  0.5400  1.7793
 3385TIP3   OH231713   5.812   6.132   2.339  0.0333  0.4119 -0.1951
 3385TIP3    H131714   5.882   6.125   2.274  0.6374  1.6478  0.2859
 3385TIP3    H231715   5.830   6.214   2.384 -0.0783 -0.6566  1.8863
 3386TIP3   OH231716   4.899   6.825   0.776  0.0843  0.2759  0.5601
 3386TIP3    H131717   4.987   6.838   0.811 -0.0840  0.4976  0.9017
 3386TIP3    H231718   4.910   6.761   0.706  0.5795  0.6161  0.3280
 3387TIP3   OH231719   2.598   2.372   2.907 -0.5265 -0.7246 -0.0049
 3387TIP3    H131720   2.512   2.394   2.872 -0.4909  1.1029  0.9220
 3387TIP3    H231721   2.641   2.457   2.919  0.0137 -1.3024  2.9204
 3388TIP3   OH231722   1.087   0.240   8.311 -0.7070 -0.0323 -0.5799
 3388TIP3    H131723   1.045   0.162   8.347 -0.1359  0.1752  0.5776
 3388TIP3    H231724   1.028   0.269   8.241 -1.9569 -0.3419  0.3056
 3389TIP3   OH231725   2.184   5.206   1.428  0.0096 -0.4780  0.7140
 3389TIP3    H131726   2.157   5.117   1.448  0.3681 -0.7164  0.1560
 3389TIP3    H231727   2.147   5.259   1.499 -2.6098 -0.6723 -0.3981
 3390TIP3   OH231728   2.676   3.231   8.365  0.0701 -0.3743  0.4116
 3390TIP3    H131729   2.624   3.242   8.444  0.1327 -0.3052  0.4433
 3390TIP3    H231730   2.743   3.167   8.389 -0.4972 -1.0909  0.1247
 3391TIP3   OH231731   2.300   2.312   0.788 -0.6971  0.5110  0.0126
 3391TIP3    H131732   2.383   2.361   0.793 -1.2878  1.5790 -0.2942
 3391TIP3    H231733   2.262   2.322   0.876  0.1529 -1.2240  0.6227
 3392TIP3   OH231734   6.005   3.759   1.199  0.5955  0.2418 -0.0899
 3392TIP3    H131735   5.954   3.724   1.272 -1.8047 -0.0178 -1.7834
 3392TIP3    H231736   5.996   3.854   1.207 -0.0553  0.1993 -0.3213
 3393TIP3   OH231737   2.386   3.248   1.393 -0.9068  0.3327 -0.2101
 3393TIP3    H131738   2.443   3.213   1.461 -0.8782 -0.4078 -0.6000
 3393TIP3    H231739   2.437   3.239   1.312 -1.6184 -0.4965 -0.5895
 3394TIP3   OH231740   5.783   2.930   8.322 -0.5781 -0.0635  0.0266
 3394TIP3    H131741   5.710   2.868   8.326  1.2327 -2.2525  1.5523
 3394TIP3    H231742   5.861   2.876   8.332  1.4780  1.9243 -3.4515
 3395TIP3   OH231743   2.218   5.435   7.694  0.0075 -0.1027  0.8555
 3395TIP3    H131744   2.198   5.341   7.698 -0.2301 -0.1259 -0.5837
 3395TIP3    H231745   2.164   5.473   7.764 -0.9953 -0.8608  0.5181
 3396TIP3   OH231746   4.363   4.724   1.740 -0.0983  0.3340  0.4531
 3396TIP3    H131747   4.333   4.804   1.784 -0.6355  0.3894 -0.0077
 3396TIP3    H231748   4.419   4.681   1.805 -1.2055  0.2103  1.3695
 3397TIP3   OH231749   2.548   1.036   2.453 -0.3411  0.2198  0.3680
 3397TIP3    H131750   2.529   1.127   2.477  1.3138  0.5029  0.7431
 3397TIP3    H231751   2.641   1.026   2.472 -0.0689 -1.0094 -1.3942
 3398TIP3   OH231752   2.119   4.015   2.151 -0.0276 -0.0289 -0.3277
 3398TIP3    H131753   2.178   4.046   2.219  0.2072 -1.0015 -0.0757
 3398TIP3    H231754   2.076   4.094   2.118 -0.5005  0.4098  1.2676
 3399TIP3   OH231755   2.106   0.430   7.700  0.4183  0.0343  0.2436
 3399TIP3    H131756   2.074   0.368   7.635  0.3306 -1.2464  1.4567
 3399TIP3    H231757   2.104   0.515   7.656 -5.0071  0.2492  0.2577
 3400TIP3   OH231758   3.666   2.256   1.198  0.2472  0.5602 -0.0083
 3400TIP3    H131759   3.624   2.179   1.236  1.1894  0.4334  0.8328
 3400TIP3    H231760   3.624   2.268   1.114 -0.1950 -0.6371  0.0266
 3401TIP3   OH231761   5.169   4.173   8.432  0.2394 -0.4478 -0.3370
 3401TIP3    H131762   5.090   4.133   8.469  0.3401 -0.3748 -0.0398
 3401TIP3    H231763   5.163   4.155   8.338  0.0891 -0.8256 -0.2586
 3402TIP3   OH231764   1.739   3.552   0.363 -0.1384  0.3841  0.4927
 3402TIP3    H131765   1.814   3.562   0.304 -0.1781 -0.5077  0.2756
 3402TIP3    H231766   1.686   3.483   0.323 -0.2079 -0.1874  1.5365
 3403TIP3   OH231767   2.346   1.475   8.482 -0.2067 -0.0494  0.1154
 3403TIP3    H131768   2.416   1.411   8.471 -0.6306 -0.3890 -0.6760
 3403TIP3    H231769   2.391   1.558   8.496  0.3620 -0.6313  2.0835
 3404TIP3   OH231770   4.988   1.000   1.736 -0.2716  0.0731 -0.7014
 3404TIP3    H131771   4.917   1.063   1.727  0.8315  1.6719  1.0368
 3404TIP3    H231772   5.053   1.044   1.790  0.8313 -2.3673  0.1216
 3405TIP3   OH231773   3.146   4.804   1.499  0.0644  0.1208  0.0712
 3405TIP3    H131774   3.182   4.716   1.512  0.6155  0.4243  0.5898
 3405TIP3    H231775   3.070   4.807   1.558 -0.9831 -0.5976 -1.1882
 3406TIP3   OH231776   2.957   5.259   0.366 -0.0158 -0.0107 -0.1097
 3406TIP3    H131777   2.992   5.335   0.320  1.4193 -0.8177 -0.4208
 3406TIP3    H231778   3.020   5.189   0.348 -0.2281 -0.7650  1.7984
 3407TIP3   OH231779   5.561   6.719   0.686 -0.2972 -0.2117 -0.1536
 3407TIP3    H131780   5.574   6.787   0.619 -0.9183 -0.0846 -0.1544
 3407TIP3    H231781   5.641   6.668   0.684 -0.1700 -0.0019 -0.7621
 3408TIP3   OH231782   2.766   2.440   2.622  0.0567  0.3243  1.0288
 3408TIP3    H131783   2.803   2.526   2.602 -0.9102  0.8677  1.4972
 3408TIP3    H231784   2.676   2.445   2.591  0.7070 -1.5065 -1.4914
 3409TIP3   OH231785   0.829   0.019   1.766 -0.6382 -0.1341 -0.2096
 3409TIP3    H131786   0.785  -0.014   1.844 -0.9653  1.1049  0.1613
 3409TIP3    H231787   0.767   0.081   1.728  0.5367  1.2639  0.0290
 3410TIP3   OH231788   6.642   3.196   2.155  0.2812  0.1819 -0.4908
 3410TIP3    H131789   6.685   3.274   2.122  0.5623  0.1945 -0.1046
 3410TIP3    H231790   6.548   3.214   2.146  0.2538  1.4896  1.5962
 3411TIP3   OH231791   5.777   6.447   1.134  0.3346  0.3567 -0.7243
 3411TIP3    H131792   5.807   6.478   1.048 -0.1789 -0.1404 -1.0964
 3411TIP3    H231793   5.833   6.492   1.197  0.1635  1.3758 -1.2793
 3412TIP3   OH231794   3.693   4.118   1.910 -0.5156 -0.0998  0.0584
 3412TIP3    H131795   3.613   4.135   1.959  0.1507  2.3256  0.4415
 3412TIP3    H231796   3.719   4.029   1.936 -3.1767 -1.0766 -0.3089
 3413TIP3   OH231797   1.263   1.033   7.434 -0.0376  0.5870 -0.4230
 3413TIP3    H131798   1.226   1.073   7.355 -1.5627 -1.3944 -0.7897
 3413TIP3    H231799   1.218   0.949   7.441  0.3747  0.5266  2.3479
 3414TIP3   OH231800   3.548   1.774   0.351 -0.1675 -0.7640 -0.0402
 3414TIP3    H131801   3.572   1.686   0.379 -0.1320 -0.6504  0.2986
 3414TIP3    H231802   3.555   1.772   0.256  2.4266 -0.3728  0.0686
 3415TIP3   OH231803   2.286   1.663   7.914  0.1014  0.0351 -0.7227
 3415TIP3    H131804   2.284   1.568   7.923  1.0582  0.1126  0.4832
 3415TIP3    H231805   2.221   1.695   7.977  1.2506  0.2576  0.3711
 3416TIP3   OH231806   0.138   4.739   1.815 -0.5757 -0.0486  0.1978
 3416TIP3    H131807   0.088   4.798   1.759 -1.0937  0.5780  1.2950
 3416TIP3    H231808   0.228   4.769   1.809 -0.6317  0.0194 -0.2881
 3417TIP3   OH231809   4.186   1.570   1.196  0.0784 -0.6934  0.2253
 3417TIP3    H131810   4.272   1.534   1.218  0.4251 -0.3132 -0.4646
 3417TIP3    H231811   4.168   1.633   1.266  0.1862 -1.0562  0.5811
 3418TIP3   OH231812   3.732   5.141   8.022  0.1650 -0.2205 -0.1072
 3418TIP3    H131813   3.734   5.046   8.009  1.5990 -0.1182 -0.8352
 3418TIP3    H231814   3.766   5.177   7.940  1.3919  0.8323  0.8278
 3419TIP3   OH231815   3.403   1.090   0.963  0.6386  0.4826 -1.0886
 3419TIP3    H131816   3.425   0.998   0.976  1.6837  0.8316 -0.2291
 3419TIP3    H231817   3.473   1.138   1.008 -1.6185  1.6920  1.3441
 3420TIP3   OH231818   2.533   0.745   7.521 -0.0566 -0.1542  0.3248
 3420TIP3    H131819   2.499   0.835   7.527  2.1233  0.8875 -1.5083
 3420TIP3    H231820   2.628   0.755   7.525  0.4439 -1.9493 -3.4022
 3421TIP3   OH231821   0.464   1.923   0.615  0.1265  0.0475 -0.3892
 3421TIP3    H131822   0.375   1.929   0.582 -0.1862  0.4010  0.4777
 3421TIP3    H231823   0.480   2.009   0.654  0.0523 -0.7055  1.3958
 3422TIP3   OH231824   4.038   2.431   1.617 -0.3352 -0.0621 -0.8158
 3422TIP3    H131825   4.013   2.522   1.602 -0.9068  0.1172  1.0357
 3422TIP3    H231826   4.033   2.390   1.530  1.5029  2.0011 -1.9864
 3423TIP3   OH231827   0.968   0.329   7.492 -0.1612 -0.0878 -0.0880
 3423TIP3    H131828   0.929   0.390   7.430  0.3976  1.3025  0.8853
 3423TIP3    H231829   0.920   0.247   7.478 -0.7655  0.4907 -1.5798
 3424TIP3   OH231830   2.567   4.761   8.233  0.0124 -0.1186 -0.3237
 3424TIP3    H131831   2.541   4.843   8.191  0.0796  1.3232  2.2653
 3424TIP3    H231832   2.644   4.783   8.285  0.7198 -2.1207 -0.4057
 3425TIP3   OH231833   2.246   0.480   2.209  0.4578  0.1918 -0.0259
 3425TIP3    H131834   2.331   0.522   2.196  0.1503  0.5766 -0.8516
 3425TIP3    H231835   2.257   0.429   2.290  1.0401  1.3270  0.6417
 3426TIP3   OH231836   0.362   2.408   1.717  0.4236  0.2627 -0.4833
 3426TIP3    H131837   0.279   2.430   1.758  0.1775 -0.6614 -0.4749
 3426TIP3    H231838   0.338   2.371   1.632  0.8393  0.2171 -0.5857
 3427TIP3   OH231839   2.182   2.801   2.822 -0.4039 -0.4949 -0.4218
 3427TIP3    H131840   2.125   2.728   2.797  0.6889 -1.2955 -0.6685
 3427TIP3    H231841   2.238   2.765   2.891  0.7592 -0.1919 -1.1741
 3428TIP3   OH231842   6.631   2.831   2.204 -0.7615  0.1212 -0.4366
 3428TIP3    H131843   6.543   2.868   2.206 -0.5400  0.7073  2.4756
 3428TIP3    H231844   6.618   2.737   2.221 -0.8678  0.0625 -0.8351
 3429TIP3   OH231845   6.301   1.349   3.274  0.4354  0.6656 -0.3244
 3429TIP3    H131846   6.238   1.417   3.298 -0.5406 -0.0502 -0.8273
 3429TIP3    H231847   6.302   1.350   3.179  0.8194  0.3295 -0.3267
 3430TIP3   OH231848   4.236   3.454   0.616  0.1980 -0.4361  0.1439
 3430TIP3    H131849   4.159   3.508   0.600 -0.3283 -1.0959  0.4432
 3430TIP3    H231850   4.308   3.504   0.577 -0.6554 -0.7470 -1.9492
 3431TIP3   OH231851   1.661   3.111   2.097 -0.0085 -0.5410 -0.3325
 3431TIP3    H131852   1.654   3.067   2.182  0.7305 -2.4069 -1.1833
 3431TIP3    H231853   1.587   3.172   2.095 -1.6415 -2.3902  0.5820
 3432TIP3   OH231854   0.161   4.709   7.814 -0.0419 -0.1581  0.1778
 3432TIP3    H131855   0.207   4.630   7.843  1.0183  1.0285  1.9034
 3432TIP3    H231856   0.077   4.706   7.858 -0.0016 -0.3231  0.2455
 3433TIP3   OH231857   6.742   5.736   7.745 -0.2917  0.3582 -0.2789
 3433TIP3    H131858   6.742   5.643   7.722 -0.0624  0.3010 -0.0566
 3433TIP3    H231859   6.742   5.782   7.661  3.3099  0.1808 -0.5510
 3434TIP3   OH231860   2.882   5.109   1.200 -0.1162  0.3378 -0.5657
 3434TIP3    H131861   2.967   5.067   1.192 -0.2754 -0.6300  1.9191
 3434TIP3    H231862   2.899   5.192   1.244 -0.5551 -0.5458  1.3620
 3435TIP3   OH231863   2.002   1.789   7.792 -0.5466  0.4407  0.3004
 3435TIP3    H131864   2.043   1.872   7.817  2.5805 -0.6654 -0.7337
 3435TIP3    H231865   1.986   1.745   7.875 -1.9581  1.8833  0.8489
 3436TIP3   OH231866   0.066   3.643   8.596 -0.2969  0.4081  0.6116
 3436TIP3    H131867   0.107   3.612   8.677  0.0371  0.3053  0.4048
 3436TIP3    H231868   0.134   3.696   8.554 -0.5922  0.7538  0.5715
 3437TIP3   OH231869   0.248   6.338   8.006 -0.4760 -0.1872  0.0561
 3437TIP3    H131870   0.291   6.271   8.060 -0.7033 -0.9079 -0.6398
 3437TIP3    H231871   0.222   6.406   8.068  1.6496  0.2893  0.5319
 3438TIP3   OH231872   5.411   4.394   2.904 -0.1149  0.2130  0.1139
 3438TIP3    H131873   5.465   4.450   2.848  0.0788  0.3540  0.4400
 3438TIP3    H231874   5.426   4.305   2.871 -1.5593  0.4802 -1.3610
 3439TIP3   OH231875   4.936   0.708   1.181 -0.7279 -0.0912  0.1024
 3439TIP3    H131876   4.856   0.658   1.194 -1.3571  0.4215 -1.5684
 3439TIP3    H231877   4.908   0.790   1.140  0.5011  0.7716  0.8894
 3440TIP3   OH231878   5.329   2.719   2.272  0.3033 -0.0007 -0.0537
 3440TIP3    H131879   5.391   2.785   2.302 -1.0072  1.2376  0.0441
 3440TIP3    H231880   5.280   2.694   2.350  0.8597 -1.1827 -0.0691
 3441TIP3   OH231881   4.564   1.619   2.040 -0.2351 -0.1315 -0.5958
 3441TIP3    H131882   4.632   1.673   2.081 -0.1224 -0.3535 -0.4893
 3441TIP3    H231883   4.612   1.547   1.999 -0.3924 -0.2028 -0.6554
 3442TIP3   OH231884   5.215   1.631   2.472 -0.1691 -0.0039  0.4178
 3442TIP3    H131885   5.278   1.636   2.400 -0.8854 -0.4131 -0.2612
 3442TIP3    H231886   5.267   1.648   2.551  0.8044 -0.4378 -0.1085
 3443TIP3   OH231887   3.446   3.118   0.179 -0.3154  0.0373 -0.0108
 3443TIP3    H131888   3.357   3.084   0.166 -0.1128 -0.5554  0.1127
 3443TIP3    H231889   3.503   3.043   0.162  0.1544  0.3702  0.0765
 3444TIP3   OH231890   4.964   5.400   1.180  0.3634  0.0038  0.1630
 3444TIP3    H131891   5.025   5.470   1.159 -0.0969  0.2312 -0.4565
 3444TIP3    H231892   4.955   5.351   1.099  0.5297 -0.6597  0.5385
 3445TIP3   OH231893   3.997   1.824   1.127 -0.1523 -0.2100 -0.6116
 3445TIP3    H131894   3.976   1.918   1.129 -0.5109 -0.2403 -1.9384
 3445TIP3    H231895   3.979   1.794   1.216  0.3984  1.0595 -0.0336
 3446TIP3   OH231896   5.038   4.495   3.026 -0.5672 -0.6105  0.2334
 3446TIP3    H131897   5.016   4.576   2.979  0.6994  1.5748  3.0689
 3446TIP3    H231898   4.956   4.470   3.070 -0.5698  0.1887  0.7141
 3447TIP3   OH231899   1.585   5.656   1.524  0.4659  0.2002 -0.2258
 3447TIP3    H131900   1.617   5.699   1.445 -0.6343  1.3945 -0.0671
 3447TIP3    H231901   1.560   5.729   1.582  0.7535 -0.6486  1.0152
 3448TIP3   OH231902   0.059   0.202   2.632 -0.3546 -0.2133  0.4755
 3448TIP3    H131903  -0.003   0.133   2.656  0.6251 -0.9069  1.0520
 3448TIP3    H231904   0.119   0.208   2.706  1.5732 -1.0376 -0.9387
 3449TIP3   OH231905   6.630   6.768   8.481 -0.5530  0.4333  0.2565
 3449TIP3    H131906   6.689   6.816   8.423  0.6822 -1.0972  0.1905
 3449TIP3    H231907   6.605   6.690   8.431 -2.6064  0.9820  0.3129
 3450TIP3   OH231908   0.459   4.273   1.114  0.4550 -0.0559 -0.2394
 3450TIP3    H131909   0.374   4.232   1.104  0.8811 -0.7612 -1.1524
 3450TIP3    H231910   0.504   4.219   1.179  0.0109  0.6683  0.6939
 3451TIP3   OH231911   2.244   6.571   7.349 -0.0572 -0.5972  0.7182
 3451TIP3    H131912   2.250   6.523   7.266 -0.3524 -1.6847  1.3021
 3451TIP3    H231913   2.334   6.574   7.381  0.2225  0.7900 -0.1544
 3452TIP3   OH231914   1.811   6.820   6.884  0.0634  0.1181 -0.0450
 3452TIP3    H131915   1.892   6.768   6.885 -0.5442 -0.8443  1.0693
 3452TIP3    H231916   1.749   6.769   6.935 -1.7543  0.0930 -2.1518
 3453TIP3   OH231917   2.550   3.670   8.166 -0.1261 -0.3365  0.3796
 3453TIP3    H131918   2.571   3.650   8.075  1.9292 -1.0280  0.9670
 3453TIP3    H231919   2.505   3.755   8.162  0.2522 -0.1827 -1.2334
 3454TIP3   OH231920   3.871   2.995   2.327 -0.0739  0.1530  0.0674
 3454TIP3    H131921   3.843   3.081   2.294 -0.8567 -0.7678 -1.8418
 3454TIP3    H231922   3.825   2.932   2.272 -0.0046 -1.5305  1.8208
 3455TIP3   OH231923   4.593   0.229   7.685  0.3561 -0.1611  0.0576
 3455TIP3    H131924   4.508   0.188   7.698 -0.2338  1.4935  1.8561
 3455TIP3    H231925   4.645   0.162   7.639 -1.3917 -1.8068  0.3448
 3456TIP3   OH231926   6.379   3.299   3.187 -0.5161 -0.8559 -0.0930
 3456TIP3    H131927   6.392   3.307   3.282  2.2045 -0.0997 -0.4657
 3456TIP3    H231928   6.356   3.387   3.158 -1.0472 -1.0229 -0.1902
 3457TIP3   OH231929   6.011   2.681   7.839 -0.1077 -0.4033 -0.1516
 3457TIP3    H131930   5.921   2.702   7.815 -0.1895 -0.8245 -0.2080
 3457TIP3    H231931   6.008   2.591   7.871 -0.0021  0.1163  1.4158
 3458TIP3   OH231932   1.418   0.100   1.315 -0.2832 -0.3650  0.3483
 3458TIP3    H131933   1.331   0.127   1.345 -0.0991  0.1672  0.4195
 3458TIP3    H231934   1.435   0.017   1.360 -0.4844 -0.1414  0.8405
 3459TIP3   OH231935   2.436   1.491   1.750  0.0953  0.1102 -0.1857
 3459TIP3    H131936   2.450   1.528   1.662  2.0628 -2.1408 -0.9348
 3459TIP3    H231937   2.523   1.464   1.778 -0.8977 -1.8688  1.2030
 3460TIP3   OH231938   6.260   6.804   8.325  0.3833  0.9167  0.5331
 3460TIP3    H131939   6.256   6.709   8.310 -1.3898  1.0673 -0.1671
 3460TIP3    H231940   6.288   6.813   8.416 -1.6059 -0.3505  1.3315
 3461TIP3   OH231941   6.047   2.304   0.981 -0.1627  0.2846 -0.2407
 3461TIP3    H131942   5.957   2.295   1.015 -0.6125  1.1552 -1.1549
 3461TIP3    H231943   6.102   2.271   1.052 -1.3056 -3.3800 -0.8104
 3462TIP3   OH231944   0.515   0.111   0.967  0.0680 -0.0328  0.4309
 3462TIP3    H131945   0.484   0.198   0.942 -0.5817  0.1246  1.7154
 3462TIP3    H231946   0.463   0.051   0.913 -2.0010  0.2589  1.9925
 3463TIP3   OH231947   1.372   6.054   0.449 -0.2010  0.3606 -0.2329
 3463TIP3    H131948   1.440   6.016   0.505  0.1225  0.3386 -0.6313
 3463TIP3    H231949   1.299   6.071   0.508 -0.4138 -1.0117 -0.0666
 3464TIP3   OH231950   2.048   6.022   8.216 -0.0151  0.3416  0.1888
 3464TIP3    H131951   2.097   6.102   8.200  1.5794 -0.4521  0.8566
 3464TIP3    H231952   2.016   6.031   8.306 -0.6050  0.5972 -0.0411
 3465TIP3   OH231953   4.067   6.421   8.573 -0.5301 -0.1261 -0.5716
 3465TIP3    H131954   4.163   6.428   8.573 -0.4386 -1.1163  0.5425
 3465TIP3    H231955   4.041   6.452   8.486  0.6167  2.2640 -0.1475
 3466TIP3   OH231956   3.787   6.186   7.789 -0.1343 -0.3053 -0.1448
 3466TIP3    H131957   3.856   6.230   7.838 -0.4056  0.2759 -0.2720
 3466TIP3    H231958   3.747   6.126   7.852  0.0882 -0.1945  0.1023
 3467TIP3   OH231959   5.455   0.851   1.417 -0.0439 -0.4526 -0.4261
 3467TIP3    H131960   5.469   0.946   1.416  0.8871 -0.5189  1.5414
 3467TIP3    H231961   5.366   0.841   1.449 -0.3636 -0.2543 -1.2206
 3468TIP3   OH231962   1.840   0.740   7.984  0.5776  0.5022  0.1001
 3468TIP3    H131963   1.887   0.691   8.052 -1.2410 -1.3267  0.1676
 3468TIP3    H231964   1.762   0.686   7.966 -0.5828  2.4948 -1.2179
 3469TIP3   OH231965   4.494   3.957   8.022 -0.2250 -0.1038 -0.4889
 3469TIP3    H131966   4.405   3.930   8.000 -1.5707  3.0230  0.5489
 3469TIP3    H231967   4.485   4.009   8.101  2.9148 -1.5612  1.0356
 3470TIP3   OH231968   3.279   5.414   2.265 -0.1799 -0.2292 -0.5912
 3470TIP3    H131969   3.366   5.374   2.256 -0.4287 -0.6854 -1.0205
 3470TIP3    H231970   3.225   5.345   2.304 -0.8222 -0.6335 -2.1096
 3471TIP3   OH231971   5.489   2.877   8.498  0.0868  0.2206 -0.6652
 3471TIP3    H131972   5.561   2.815   8.494  0.5868  0.8120 -1.0121
 3471TIP3    H231973   5.489   2.908   8.589  0.6037  0.6028 -0.7938
 3472TIP3   OH231974   2.415   5.208   2.451  0.5592 -0.3476  0.7873
 3472TIP3    H131975   2.362   5.287   2.460  1.6154  0.4468  0.2316
 3472TIP3    H231976   2.384   5.150   2.521  0.5077  0.9785  1.9030
 3473TIP3   OH231977   1.226   5.531   0.860 -0.5170 -0.0814  1.0066
 3473TIP3    H131978   1.160   5.557   0.925  0.0739 -0.3408  1.7210
 3473TIP3    H231979   1.192   5.565   0.777 -1.8886 -0.7712  1.2414
 3474TIP3   OH231980   0.848   6.642   1.493 -0.1620  0.4394  0.1890
 3474TIP3    H131981   0.785   6.702   1.534 -1.3017 -0.5230 -0.0870
 3474TIP3    H231982   0.813   6.628   1.405  0.5132 -0.0311 -0.0082
 3475TIP3   OH231983   0.966   6.203   0.674  0.0806 -0.1665 -0.5858
 3475TIP3    H131984   0.917   6.170   0.749 -0.4502  0.1890 -0.7684
 3475TIP3    H231985   0.901   6.247   0.620  0.8236  1.6166 -0.1057
 3476TIP3   OH231986   4.928   2.743   1.829 -0.0007 -0.3230  0.3210
 3476TIP3    H131987   4.990   2.797   1.781 -0.1341 -0.2340  0.2460
 3476TIP3    H231988   4.952   2.754   1.921  0.9679 -1.3751  0.2205
 3477TIP3   OH231989   1.998   1.032   2.925 -0.0957  0.4962 -0.3794
 3477TIP3    H131990   2.045   1.086   2.988  0.8364  0.0196 -0.6378
 3477TIP3    H231991   2.067   0.983   2.880 -0.9392 -1.5956  0.4775
 3478TIP3   OH231992   2.492   2.954   8.684 -0.0696 -0.0646  0.5922
 3478TIP3    H131993   2.411   2.904   8.675  0.6122 -1.5189  2.1345
 3478TIP3    H231994   2.479   3.009   8.761  0.4835 -0.4895  0.9996
 3479TIP3   OH231995   2.059   0.864   7.598 -0.1566 -0.5240  0.1375
 3479TIP3    H131996   1.969   0.892   7.610 -0.1234  0.3367 -1.3487
 3479TIP3    H231997   2.058   0.812   7.518  0.3870 -1.9878  1.0502
 3480TIP3   OH231998   1.457   4.695   2.121 -0.1451 -0.3983 -0.3741
 3480TIP3    H131999   1.433   4.783   2.092 -2.0088 -0.3845  0.9756
 3480TIP3    H232000   1.374   4.656   2.147  0.7451 -2.3218 -0.2782
 3481TIP3   OH232001   6.687   5.833   0.402 -0.0845 -0.6565  0.6660
 3481TIP3    H132002   6.680   5.764   0.336  1.3323 -0.6961  0.5161
 3481TIP3    H232003   6.779   5.860   0.398 -0.3923  0.5707  1.4021
 3482TIP3   OH232004   3.028   2.525   1.666  0.4409  0.1510  0.2550
 3482TIP3    H132005   3.053   2.571   1.586  1.8662 -1.3176 -0.2123
 3482TIP3    H232006   3.108   2.525   1.720 -0.7139  1.8393  2.0984
 3483TIP3   OH232007   0.595   5.962   0.108  0.2678  0.3435  0.3319
 3483TIP3    H132008   0.532   5.902   0.068  1.1549 -1.3025  1.3237
 3483TIP3    H232009   0.543   6.038   0.132 -0.9396 -0.1087 -0.7240
 3484TIP3   OH232010   3.687   4.011   8.614 -0.4287  0.1898 -0.0943
 3484TIP3    H132011   3.729   3.940   8.663 -0.9507 -0.1076 -0.0679
 3484TIP3    H232012   3.760   4.064   8.581 -0.0358 -0.2843 -0.0011
 3485TIP3   OH232013   3.483   3.723   1.335  1.3955  0.6738 -0.3925
 3485TIP3    H132014   3.417   3.730   1.267  0.1985 -1.7249  0.3931
 3485TIP3    H232015   3.489   3.811   1.373 -0.2766  1.2869 -1.4530
 3486TIP3   OH232016   3.971   1.539   0.737 -0.2477 -0.2223  0.7243
 3486TIP3    H132017   3.892   1.592   0.739 -0.8579 -1.0517 -0.2510
 3486TIP3    H232018   3.996   1.529   0.829 -1.1284  0.2555  1.0287
 3487TIP3   OH232019   5.255   1.982   8.624 -0.3657 -0.1401 -0.0108
 3487TIP3    H132020   5.281   2.026   8.543 -0.0789 -0.4995 -0.1167
 3487TIP3    H232021   5.180   1.928   8.598  1.0629 -1.9752 -0.5691
 3488TIP3   OH232022   2.257   6.671   0.921  0.5374  0.2909 -0.1014
 3488TIP3    H132023   2.168   6.662   0.886  0.2795  2.1135 -0.0092
 3488TIP3    H232024   2.301   6.729   0.859  1.5033 -0.1317  0.1697
 3489TIP3   OH232025   1.084   3.954   1.662  0.5147  0.1214  0.3100
 3489TIP3    H132026   0.989   3.961   1.673  0.2603  1.1536 -1.8341
 3489TIP3    H232027   1.114   4.045   1.657  1.8508 -0.1552  2.1809
 3490TIP3   OH232028   0.468   5.841   2.339  0.2154  0.7759 -0.4456
 3490TIP3    H132029   0.383   5.813   2.373  0.1310  2.4475  0.8548
 3490TIP3    H232030   0.449   5.920   2.288  1.0667  1.7733  0.7192
 3491TIP3   OH232031   5.653   1.328   8.657  0.3200 -0.6390 -1.0226
 3491TIP3    H132032   5.632   1.317   8.564 -1.0329  0.4649 -0.8943
 3491TIP3    H232033   5.712   1.402   8.660  0.3008 -0.6249 -0.9964
 3492TIP3   OH232034   6.317   1.983   1.207 -0.0004  0.7974  0.2429
 3492TIP3    H132035   6.391   2.039   1.230 -0.6559  2.1011 -0.7142
 3492TIP3    H232036   6.339   1.898   1.244  2.6399  0.7539 -1.1643
 3493TIP3   OH232037   4.112   4.915   7.360 -0.2731  0.2838  0.2452
 3493TIP3    H132038   4.130   4.962   7.279  0.4932 -3.1557 -1.7738
 3493TIP3    H232039   4.017   4.905   7.361 -0.1552 -1.9373 -1.8004
 3494TIP3   OH232040   0.263   4.893   2.414  0.5637 -0.1045 -0.0971
 3494TIP3    H132041   0.179   4.938   2.420  0.3968 -0.4863  0.5318
 3494TIP3    H232042   0.318   4.952   2.364  0.4311  0.9539  0.9464
 3495TIP3   OH232043   5.789   0.262   7.346  0.4371 -0.6845 -0.4810
 3495TIP3    H132044   5.708   0.306   7.319 -0.4112 -0.3930  2.1831
 3495TIP3    H232045   5.854   0.289   7.281 -1.0634  0.9953 -1.3766
 3496TIP3   OH232046   2.538   3.938   7.881  0.3838  0.0562  0.3078
 3496TIP3    H132047   2.500   3.967   7.798  1.2015 -0.7682 -0.3820
 3496TIP3    H232048   2.633   3.942   7.866  0.5284 -1.0519  0.8678
 3497TIP3   OH232049   4.628   6.049   2.741 -0.3399  0.1598 -0.1261
 3497TIP3    H132050   4.656   5.961   2.716  1.0850  0.4807  0.2540
 3497TIP3    H232051   4.549   6.065   2.689 -0.7424 -1.4030 -0.0542
 3498TIP3   OH232052   2.106   6.186   7.859  0.3852  0.4487 -0.4623
 3498TIP3    H132053   2.114   6.254   7.793 -3.6714  0.4264 -1.2164
 3498TIP3    H232054   2.064   6.113   7.813 -2.9241  0.5520  2.0763
 3499TIP3   OH232055   6.162   4.282   0.425 -0.2782 -0.2533  0.2116
 3499TIP3    H132056   6.225   4.353   0.412 -1.5558  1.3863  2.3213
 3499TIP3    H232057   6.113   4.279   0.343  2.4847 -1.6465 -1.5264
 3500TIP3   OH232058   2.461   2.949   2.360  0.2348 -0.2109 -0.2423
 3500TIP3    H132059   2.556   2.959   2.356  0.3358 -1.4356 -1.5120
 3500TIP3    H232060   2.447   2.868   2.409 -0.2453  0.7535  1.3111
 3501TIP3   OH232061   0.611   4.256   2.077 -0.0231  0.1266  0.0735
 3501TIP3    H132062   0.595   4.347   2.053  2.7037  0.5473 -0.4754
 3501TIP3    H232063   0.554   4.240   2.152 -1.2095  1.9862 -0.3719
 3502TIP3   OH232064   2.873   5.833   2.130  0.2984  0.4939 -0.2003
 3502TIP3    H132065   2.923   5.868   2.204 -1.1003  0.3747  0.8421
 3502TIP3    H232066   2.830   5.910   2.092  0.2852  0.4274 -0.3210
 3503TIP3   OH232067   4.035   5.902   0.333 -0.4962 -0.0413  0.0423
 3503TIP3    H132068   4.015   5.869   0.421  0.5496 -0.9227 -0.0227
 3503TIP3    H232069   4.104   5.967   0.348  0.9148 -1.4177 -0.2431
 3504TIP3   OH232070   4.137   3.247   8.171  1.1370  0.3942 -0.2485
 3504TIP3    H132071   4.105   3.302   8.100 -0.8751  0.9077  0.9893
 3504TIP3    H232072   4.148   3.306   8.245  0.9121 -0.5171  0.5359
 3505TIP3   OH232073   6.429   0.408   2.004 -0.1513 -0.1639  0.5211
 3505TIP3    H132074   6.513   0.367   2.023 -0.4085 -0.3293  1.3618
 3505TIP3    H232075   6.447   0.502   2.003  0.4079 -0.2451 -1.2364
 3506TIP3   OH232076   1.603   1.533   8.590  0.1751 -0.4296 -0.6920
 3506TIP3    H132077   1.633   1.605   8.645 -0.2570 -0.7351 -0.0498
 3506TIP3    H232078   1.524   1.566   8.547 -0.1552 -0.5935 -0.2196
 3507TIP3   OH232079   0.550   0.767   8.519  0.1207 -0.6720 -0.4686
 3507TIP3    H132080   0.507   0.851   8.526 -0.9948 -1.1446 -1.3052
 3507TIP3    H232081   0.484   0.703   8.544  1.5864 -1.2333  2.3264
 3508TIP3   OH232082   2.732   4.461   0.560 -0.0556 -0.1205  0.3215
 3508TIP3    H132083   2.670   4.398   0.524  0.5284  0.6142 -2.1072
 3508TIP3    H232084   2.685   4.502   0.633 -1.7013 -0.9052 -0.2559
 3509TIP3   OH232085   2.034   4.559   8.135 -0.1503  0.4275 -0.0024
 3509TIP3    H132086   2.116   4.603   8.158 -0.1028  0.1275  0.4064
 3509TIP3    H232087   2.041   4.545   8.040 -0.8433  2.6892 -0.4605
 3510TIP3   OH232088   0.786   1.720   0.047 -0.2985 -0.5536 -0.2193
 3510TIP3    H132089   0.729   1.689  -0.022  0.7793 -1.8263 -0.5814
 3510TIP3    H232090   0.866   1.667   0.038  1.8526  2.5320 -1.1092
 3511TIP3   OH232091   4.764   1.559   1.818  0.1840 -0.2412  0.0106
 3511TIP3    H132092   4.795   1.508   1.893  1.2102 -0.4344 -0.5324
 3511TIP3    H232093   4.774   1.650   1.846  1.2223 -0.3015 -0.1426
 3512TIP3   OH232094   4.259   2.948   7.547  0.2319 -0.7946  0.0088
 3512TIP3    H132095   4.304   3.030   7.526  1.3228 -1.7229 -1.4604
 3512TIP3    H232096   4.173   2.976   7.578  1.0695  0.9542  0.9567
 3513TIP3   OH232097   0.463   5.885   1.531  0.3288 -0.2105 -0.3736
 3513TIP3    H132098   0.427   5.797   1.526  0.0055 -0.0267 -2.5269
 3513TIP3    H232099   0.502   5.891   1.618 -1.7555 -1.6131  0.7167
 3514TIP3   OH232100   5.147   5.621   7.220  0.5822  0.4347 -0.5618
 3514TIP3    H132101   5.058   5.602   7.192 -1.4871  3.8070  2.8267
 3514TIP3    H232102   5.180   5.684   7.156  1.3515 -1.9828 -2.7291
 3515TIP3   OH232103   5.897   0.975   8.583 -0.1606 -0.8954 -0.1499
 3515TIP3    H132104   5.874   1.028   8.659 -1.1839  0.0459 -1.0739
 3515TIP3    H232105   5.817   0.928   8.560  0.4976 -2.1810  0.1229
 3516TIP3   OH232106   2.952   1.623   7.627 -0.3709  0.0635 -0.0248
 3516TIP3    H132107   3.021   1.660   7.683 -0.5056 -0.7313  0.6999
 3516TIP3    H232108   2.966   1.663   7.541 -1.0549  2.4582  0.9010
 3517TIP3   OH232109   2.224   2.186   2.006  0.2735  0.7390 -0.5888
 3517TIP3    H132110   2.217   2.196   2.101  0.4600 -1.8989 -0.2295
 3517TIP3    H232111   2.134   2.179   1.975  0.2459 -0.1627 -0.3397
 3518TIP3   OH232112   6.790   3.014   8.292  0.2373 -0.0293  0.1261
 3518TIP3    H132113   6.773   3.091   8.238  0.6849 -0.8322 -1.2205
 3518TIP3    H232114   6.769   2.940   8.235  0.6734 -0.9222  1.0900
 3519TIP3   OH232115   0.536   1.218   8.392 -0.2140  0.1197  0.0502
 3519TIP3    H132116   0.556   1.128   8.365 -0.8266  0.2263 -0.7833
 3519TIP3    H232117   0.498   1.259   8.315  1.5236  1.6022 -0.0948
 3520TIP3   OH232118   5.911   2.131   1.213  0.2250  0.6675  0.0553
 3520TIP3    H132119   5.912   2.080   1.293  1.2016  1.6426  0.6988
 3520TIP3    H232120   5.981   2.093   1.159  0.7999  1.1597  0.4401
 3521TIP3   OH232121   3.419   6.276   8.475  0.2297  0.2139 -0.2554
 3521TIP3    H132122   3.453   6.312   8.393 -2.3253  0.5400 -1.2667
 3521TIP3    H232123   3.415   6.182   8.460  2.2742 -0.0556  0.5609
 3522TIP3   OH232124   0.089   5.142   1.797  0.7150  0.3182  0.0322
 3522TIP3    H132125   0.176   5.103   1.807  0.2824 -0.9658 -0.8690
 3522TIP3    H232126   0.099   5.204   1.725  0.9343  0.3142  0.0593
 3523TIP3   OH232127   1.206   1.803   8.680  0.0080 -0.1613  0.3148
 3523TIP3    H132128   1.131   1.861   8.691  0.0213 -0.3076  1.3242
 3523TIP3    H232129   1.256   1.841   8.608 -0.3828  0.6473  0.4631
 3524TIP3   OH232130   4.795   3.638   8.555 -0.1551 -0.3310 -0.5376
 3524TIP3    H132131   4.797   3.732   8.573 -0.5369 -0.2173 -1.0554
 3524TIP3    H232132   4.719   3.605   8.603  1.3909 -0.8384  1.6916
 3525TIP3   OH232133   1.259   1.756   1.921 -0.3893  0.1280 -0.3247
 3525TIP3    H132134   1.205   1.729   1.995  1.2374  1.5968  1.4863
 3525TIP3    H232135   1.302   1.676   1.892 -0.7263 -0.4070  0.6127
 3526TIP3   OH232136   0.504   0.935   1.933 -0.4751 -0.0095  0.3577
 3526TIP3    H132137   0.500   0.859   1.991  0.6986 -0.1142  0.3322
 3526TIP3    H232138   0.421   0.935   1.886 -0.5290 -1.2140  0.4357
 3527TIP3   OH232139   4.852   1.293   0.273 -0.4614 -0.3413  0.2125
 3527TIP3    H132140   4.837   1.301   0.367  0.0835  0.8985  0.2107
 3527TIP3    H232141   4.892   1.207   0.262 -1.8979 -1.1226  0.9279
 3528TIP3   OH232142   3.252   6.349   0.858 -0.0915 -0.0006  0.0184
 3528TIP3    H132143   3.185   6.366   0.792 -0.4941  2.9045  1.0483
 3528TIP3    H232144   3.326   6.315   0.808 -1.2713 -0.4125 -1.5425
 3529TIP3   OH232145   5.170   0.464   0.290  0.0218  0.0649  0.5104
 3529TIP3    H132146   5.257   0.433   0.266  0.6203  1.9430  0.0971
 3529TIP3    H232147   5.149   0.530   0.224 -2.3091 -1.2858 -0.1989
 3530TIP3   OH232148   0.411   5.247   2.771 -0.3583 -0.4674  0.5530
 3530TIP3    H132149   0.442   5.261   2.860  1.3135  0.1001 -0.0755
 3530TIP3    H232150   0.421   5.152   2.757  0.0238 -0.4586  0.7544
 3531TIP3   OH232151   0.405   2.850   1.721  0.1114 -0.1509  0.7227
 3531TIP3    H132152   0.323   2.816   1.686 -0.6663  0.2606  2.0782
 3531TIP3    H232153   0.449   2.774   1.759  0.0862 -0.2670  0.5204
 3532TIP3   OH232154   6.215   1.154   8.165  0.5988  0.6673  0.1840
 3532TIP3    H132155   6.209   1.218   8.094  0.4834  0.4420 -0.0153
 3532TIP3    H232156   6.176   1.074   8.128  0.5988  0.5280  0.4790
 3533TIP3   OH232157   4.250   1.118   1.551 -0.0273 -0.0167 -0.5548
 3533TIP3    H132158   4.317   1.166   1.503 -0.1707  1.0140  0.2378
 3533TIP3    H232159   4.208   1.184   1.607 -0.4656 -0.9953  0.3107
 3534TIP3   OH232160   0.797   2.109   0.230  0.0446 -0.2762  0.2094
 3534TIP3    H132161   0.756   2.030   0.264 -1.5119  1.2338  2.0734
 3534TIP3    H232162   0.871   2.125   0.288 -0.4394  0.3450  0.6601
 3535TIP3   OH232163   3.438   1.427   8.516 -0.0572  0.0059 -0.4571
 3535TIP3    H132164   3.389   1.509   8.518  1.3585  0.8683  0.6007
 3535TIP3    H232165   3.420   1.390   8.429 -2.9788 -0.0253  0.0481
 3536TIP3   OH232166   5.856   1.820   0.135  0.2044 -0.2879  0.8876
 3536TIP3    H132167   5.935   1.766   0.143 -0.1630 -0.7796  1.3262
 3536TIP3    H232168   5.881   1.891   0.076  0.4671 -1.3834 -0.3809
 3537TIP3   OH232169   4.122   1.337   0.391  0.1168 -0.4502  0.5755
 3537TIP3    H132170   4.194   1.328   0.330  0.4524 -0.1437  0.9221
 3537TIP3    H232171   4.087   1.425   0.374  1.7329  0.6372  2.4300
 3538TIP3   OH232172   4.955   3.879   7.357  0.2812 -0.3983  0.4919
 3538TIP3    H132173   4.877   3.904   7.407  1.1170  0.9268  1.1904
 3538TIP3    H232174   5.016   3.848   7.423  0.0103 -2.4292 -0.1631
 3539TIP3   OH232175   1.431   6.706   1.061  0.0176  0.0759  0.7108
 3539TIP3    H132176   1.399   6.794   1.081  1.6290  1.0930 -0.9325
 3539TIP3    H232177   1.526   6.713   1.065  0.2428 -1.1065 -1.2977
 3540TIP3   OH232178   3.898   0.676   8.321  0.2297 -0.3043 -0.6036
 3540TIP3    H132179   3.917   0.736   8.249  0.2508  1.2954  0.6745
 3540TIP3    H232180   3.819   0.629   8.294 -0.3740  1.0347 -1.2345
 3541TIP3   OH232181   6.030   1.647   0.239 -0.4791 -0.6583 -0.7019
 3541TIP3    H132182   6.104   1.587   0.231  0.4395  0.2786  0.4012
 3541TIP3    H232183   5.981   1.615   0.316  0.0644  0.0215 -0.0539
 3542TIP3   OH232184   4.632   2.931   2.367  0.2286 -0.0112  0.4060
 3542TIP3    H132185   4.577   3.009   2.361 -0.5102 -0.6342 -3.1582
 3542TIP3    H232186   4.716   2.957   2.329  0.1302 -0.8164 -0.3854
 3543TIP3   OH232187   5.099   4.558   7.776 -0.8966 -0.0503  0.3367
 3543TIP3    H132188   5.099   4.587   7.867  0.3270  2.3207 -0.3165
 3543TIP3    H232189   5.012   4.582   7.743 -1.2593 -0.7039  0.8089
 3544TIP3   OH232190   4.860   6.633   8.236  0.0754 -1.1105  0.3060
 3544TIP3    H132191   4.951   6.611   8.215 -0.0864 -0.9986 -0.5836
 3544TIP3    H232192   4.864   6.725   8.262  0.3205 -1.3238  1.0504
 3545TIP3   OH232193   4.100   6.370   2.300  0.4500 -0.1150 -0.0589
 3545TIP3    H132194   4.181   6.395   2.256  0.6201 -2.9915 -1.6049
 3545TIP3    H232195   4.031   6.405   2.243  0.6282  0.1572 -0.1096
 3546TIP3   OH232196   4.173   6.543   0.132 -0.2128 -0.3671  0.3578
 3546TIP3    H132197   4.244   6.571   0.074 -0.8982  0.8429  0.0684
 3546TIP3    H232198   4.125   6.478   0.082  0.4203 -0.8636  0.3832
 3547TIP3   OH232199   4.575   0.671   7.608  0.4752 -0.3018 -0.4395
 3547TIP3    H132200   4.561   0.762   7.581  1.6316 -0.1245 -0.4869
 3547TIP3    H232201   4.487   0.637   7.625 -0.0211  0.6118 -1.1054
 3548TIP3   OH232202   5.309   2.658   2.731  0.0526 -0.2551  0.6319
 3548TIP3    H132203   5.304   2.687   2.822  1.5997  1.0496  0.3590
 3548TIP3    H232204   5.296   2.738   2.680 -0.5063 -0.9207 -0.3042
 3549TIP3   OH232205   3.097   1.979   1.378 -0.4836 -0.5937 -0.2529
 3549TIP3    H132206   3.075   2.000   1.288 -1.6836 -0.9531 -0.0558
 3549TIP3    H232207   3.020   2.005   1.429  0.6183  0.6918  0.8335
 3550TIP3   OH232208   0.436   5.577   1.449  0.3575  0.3672  0.3165
 3550TIP3    H132209   0.496   5.532   1.508 -1.5079 -2.2139  0.4226
 3550TIP3    H232210   0.396   5.506   1.398 -0.5686  2.2268 -1.6675
 3551TIP3   OH232211   2.519   2.441   2.274 -0.0812 -0.2765  0.0450
 3551TIP3    H132212   2.502   2.479   2.360 -2.9566 -2.2202  0.4612
 3551TIP3    H232213   2.602   2.395   2.285  0.0038  0.1632  1.5131
 3552TIP3   OH232214   4.503   1.506   2.595 -0.0500 -0.0052  0.9476
 3552TIP3    H132215   4.562   1.508   2.671 -0.5528  1.0908  1.3231
 3552TIP3    H232216   4.416   1.494   2.634 -0.3246  0.6918  0.5559
 3553TIP3   OH232217   4.391   2.621   8.542 -0.0255 -0.1918 -0.4505
 3553TIP3    H132218   4.325   2.567   8.498 -0.2244 -0.3576  0.0536
 3553TIP3    H232219   4.393   2.702   8.490  0.5996 -0.8456 -1.4788
 3554TIP3   OH232220   4.783   5.036   1.440  0.1687 -0.2857  0.6032
 3554TIP3    H132221   4.861   5.022   1.386 -0.7548 -0.4508 -0.7505
 3554TIP3    H232222   4.744   5.116   1.404 -0.4626 -0.3978  1.0271
 3555TIP3   OH232223   2.124   3.069   1.673 -0.1234 -0.3683 -0.9800
 3555TIP3    H132224   2.061   3.078   1.602  0.6901  1.1054 -1.5733
 3555TIP3    H232225   2.203   3.035   1.630 -0.0149 -0.6454 -0.5577
 3556TIP3   OH232226   6.780   3.010   1.995 -0.4173  0.4596 -0.1957
 3556TIP3    H132227   6.750   3.088   2.040  0.4504  1.4245 -1.2201
 3556TIP3    H232228   6.716   2.942   2.018  0.0315  0.8371  2.5433
 3557TIP3   OH232229   0.744   0.491   0.106 -0.7589  0.0881  0.4720
 3557TIP3    H132230   0.714   0.420   0.050  2.3841  0.7151 -2.3075
 3557TIP3    H232231   0.718   0.571   0.060 -2.1568  0.7878  2.3522
 3558TIP3   OH232232   5.193   3.925   0.879  0.1204 -0.0982  0.3589
 3558TIP3    H132233   5.284   3.953   0.887  0.0783  0.4388 -0.8199
 3558TIP3    H232234   5.158   3.977   0.807 -1.4252  0.4559  1.4602
 3559TIP3   OH232235   4.451   2.371   7.861 -0.6536  0.1805 -0.6853
 3559TIP3    H132236   4.498   2.402   7.939  0.6814 -2.8263 -0.1366
 3559TIP3    H232237   4.362   2.403   7.872 -0.1251  1.1298  1.2869
 3560TIP3   OH232238   6.170   0.407   7.258 -0.3008 -0.3550  1.0000
 3560TIP3    H132239   6.084   0.421   7.218  1.4160  1.0773 -2.6571
 3560TIP3    H232240   6.217   0.352   7.195  2.3123  1.1857  1.4675
 3561TIP3   OH232241   3.386   3.460   2.455  0.1613  0.3323  0.1736
 3561TIP3    H132242   3.353   3.443   2.366 -0.1111 -0.1162  0.3610
 3561TIP3    H232243   3.474   3.494   2.441  0.6961 -1.1446 -0.2250
 3562TIP3   OH232244   3.837   4.348   7.262 -0.4721  0.2178 -0.1770
 3562TIP3    H132245   3.870   4.366   7.174 -1.0301 -2.9589 -1.1828
 3562TIP3    H232246   3.755   4.301   7.247  0.6167 -2.6135  1.8781
 3563TIP3   OH232247   4.325   1.313   1.717  0.1055 -0.1995 -0.1740
 3563TIP3    H132248   4.314   1.314   1.812 -0.1208  2.6851 -0.1397
 3563TIP3    H232249   4.282   1.393   1.687 -3.5205 -2.9770 -3.2509
 3564TIP3   OH232250   6.541   4.707   1.057 -0.4228  0.1833  0.1879
 3564TIP3    H132251   6.465   4.664   1.095  0.5528 -0.6674  1.2741
 3564TIP3    H232252   6.554   4.786   1.109  1.4676 -1.4530  2.3823
 3565TIP3   OH232253   4.450   1.982   0.741  0.0905 -0.6716 -0.4493
 3565TIP3    H132254   4.490   2.059   0.781  3.5922 -2.3635 -0.3118
 3565TIP3    H232255   4.451   2.001   0.647  0.9091 -0.4879 -0.4160
 3566TIP3   OH232256   5.568   2.971   7.808 -0.2654 -0.0208  0.6750
 3566TIP3    H132257   5.626   3.034   7.766  0.2431 -0.0878  1.2581
 3566TIP3    H232258   5.605   2.960   7.896 -0.1035 -1.4339  0.4493
 3567TIP3   OH232259   2.735   6.361   0.919  0.2724  0.6183 -0.3389
 3567TIP3    H132260   2.714   6.447   0.883 -2.2719 -0.2071 -1.0401
 3567TIP3    H232261   2.785   6.379   0.999 -0.3966  2.7402 -0.3549
 3568TIP3   OH232262   0.622   6.721   7.903 -0.7482 -0.1281  0.3182
 3568TIP3    H132263   0.545   6.732   7.848 -0.8471  0.0345  0.4896
 3568TIP3    H232264   0.604   6.773   7.981 -0.5002 -0.1551  0.3948
 3569TIP3   OH232265   0.997   5.839   7.707 -0.0608  0.6706  0.0839
 3569TIP3    H132266   1.007   5.775   7.777 -0.8623 -1.3247 -1.5116
 3569TIP3    H232267   0.904   5.838   7.687  0.2421  0.6262 -1.4700
 3570TIP3   OH232268   5.082   5.251   1.608  0.3622 -0.2502  0.4617
 3570TIP3    H132269   5.030   5.316   1.560  0.7606  0.9544  1.5874
 3570TIP3    H232270   5.063   5.269   1.700  0.4663 -1.7768  0.8019
 3571TIP3   OH232271   2.614   0.957   8.616 -0.8989  0.3393  0.1066
 3571TIP3    H132272   2.669   1.026   8.652 -1.9160  1.5093 -0.4994
 3571TIP3    H232273   2.551   0.938   8.686 -0.6049 -0.0153  0.2822
 3572TIP3   OH232274   5.918   0.495   1.263  0.4985 -0.3888 -0.0748
 3572TIP3    H132275   5.863   0.559   1.309  1.4514  0.6775 -0.3699
 3572TIP3    H232276   6.008   0.525   1.279  0.8843 -0.1826 -2.2860
 3573TIP3   OH232277   4.651   3.386   0.709 -0.0944 -0.2246 -0.3941
 3573TIP3    H132278   4.588   3.315   0.697  0.8666 -1.0965 -0.4079
 3573TIP3    H232279   4.694   3.366   0.792  0.3635  0.2086 -0.5220
 3574TIP3   OH232280   4.070   1.429   1.575  0.1664 -0.5436  0.8076
 3574TIP3    H132281   4.069   1.399   1.484 -1.3525 -0.8604  0.9014
 3574TIP3    H232282   4.017   1.365   1.622 -1.4614  1.1349  1.3809
 3575TIP3   OH232283   6.231   4.044   0.791  0.4268 -0.1614 -0.3116
 3575TIP3    H132284   6.320   4.079   0.797  0.6181 -0.8210  1.7062
 3575TIP3    H232285   6.179   4.115   0.755  1.5571  0.6582 -0.3771
 3576TIP3   OH232286   1.696   2.047   7.724  0.0371 -0.4258 -0.0861
 3576TIP3    H132287   1.658   2.033   7.811 -0.5461 -1.8965 -0.5421
 3576TIP3    H232288   1.622   2.035   7.664  0.5863 -0.1549 -0.8285
 3577TIP3   OH232289   2.826   2.700   2.702 -0.2777  0.0350  0.0822
 3577TIP3    H132290   2.764   2.691   2.774  0.9331  0.4957  1.2283
 3577TIP3    H232291   2.793   2.772   2.649 -0.7321  0.2582  0.6648
 3578TIP3   OH232292   3.063   2.070   1.121  0.0096 -0.2109  0.7018
 3578TIP3    H132293   3.147   2.039   1.087  1.0291  1.6309  1.3771
 3578TIP3    H232294   3.023   2.116   1.047  0.8783  1.2325  1.0739
 3579TIP3   OH232295   6.369   0.750   0.211  0.2538  0.1508 -0.2095
 3579TIP3    H132296   6.394   0.710   0.294 -0.7315 -0.1309 -0.0382
 3579TIP3    H232297   6.372   0.679   0.147 -0.9049 -0.0885 -0.0219
 3580TIP3   OH232298   4.006   0.298   2.219 -0.4326 -0.1222  0.6611
 3580TIP3    H132299   4.093   0.334   2.201  0.4317 -0.6471  3.3328
 3580TIP3    H232300   3.946   0.352   2.168  1.2988  1.3896  0.1271
 3581TIP3   OH232301   5.395   4.172   8.129 -0.0541  0.1169  0.0836
 3581TIP3    H132302   5.367   4.085   8.157  0.7304  0.1424  1.0073
 3581TIP3    H232303   5.461   4.198   8.194 -0.0999  1.2958 -0.3179
 3582TIP3   OH232304   1.352   5.788   1.151 -0.2773  0.3287 -0.5456
 3582TIP3    H132305   1.268   5.829   1.127  0.1385  2.9882  1.9920
 3582TIP3    H232306   1.339   5.760   1.241  2.0837  2.6872  0.6547
 3583TIP3   OH232307   1.333   4.943   6.786 -0.7310 -0.4493  0.2358
 3583TIP3    H132308   1.331   5.035   6.757  1.2803 -0.4355 -0.0308
 3583TIP3    H232309   1.423   4.916   6.770 -0.5323 -1.6286  2.9488
 3584TIP3   OH232310   5.948   1.863   1.669 -0.2361 -0.2220  0.1673
 3584TIP3    H132311   6.000   1.894   1.743  0.3197  0.8106 -0.6344
 3584TIP3    H232312   5.887   1.935   1.651 -0.4489 -0.5175 -0.3032
 3585TIP3   OH232313   0.617   5.614   8.706 -0.3740  0.0755  0.0239
 3585TIP3    H132314   0.705   5.647   8.689 -0.8817  1.8586  0.6870
 3585TIP3    H232315   0.617   5.594   8.800 -0.0545 -2.0061 -0.3675
 3586TIP3   OH232316   0.106   6.103   8.129  0.0279  0.2757 -0.3421
 3586TIP3    H132317   0.125   6.193   8.154  1.3835  0.0385 -0.4323
 3586TIP3    H232318   0.056   6.068   8.203 -2.0195  1.5553 -1.0393
 3587TIP3   OH232319   2.102   5.147   8.460  0.2040  0.5771  0.4618
 3587TIP3    H132320   2.190   5.120   8.488  0.5670  2.5570  1.3952
 3587TIP3    H232321   2.104   5.243   8.463 -1.5652  0.7136 -0.8908
 3588TIP3   OH232322   1.945   5.225   7.141 -0.4038 -0.0380  0.2174
 3588TIP3    H132323   1.862   5.183   7.166  0.2578 -1.0432  0.7687
 3588TIP3    H232324   1.932   5.317   7.163 -2.0428  0.1791 -1.4340
 3589TIP3   OH232325   4.471   0.162   8.253 -0.5415 -0.0270  0.0035
 3589TIP3    H132326   4.393   0.175   8.308 -0.5827  1.0369 -0.2801
 3589TIP3    H232327   4.523   0.241   8.267  0.2648 -0.5133 -0.1901
 3590TIP3   OH232328   2.107   1.349   1.184 -0.8820 -0.7207 -0.3190
 3590TIP3    H132329   2.094   1.343   1.278 -1.2586 -0.1484 -0.3288
 3590TIP3    H232330   2.199   1.375   1.173 -1.6391  2.4101  0.0225
 3591TIP3   OH232331   4.674   1.622   7.646  0.2599  0.2153 -0.5308
 3591TIP3    H132332   4.581   1.613   7.629 -0.7523  3.3899  2.3040
 3591TIP3    H232333   4.710   1.656   7.564 -1.2926  0.1332 -1.2745
 3592TIP3   OH232334   5.895   6.587   2.052 -0.1537  0.4130  0.1626
 3592TIP3    H132335   5.891   6.493   2.034  1.0706  0.1994  0.9037
 3592TIP3    H232336   5.979   6.599   2.096  0.0993  1.9935 -0.6988
 3593TIP3   OH232337   2.300   0.067   0.236  0.0141 -0.6293 -0.3454
 3593TIP3    H132338   2.268   0.120   0.309  1.2380  0.4673 -0.5546
 3593TIP3    H232339   2.244  -0.010   0.236  0.7396 -1.2972  2.5381
 3594TIP3   OH232340   3.564   5.799   1.265  0.2345  0.2754  0.1421
 3594TIP3    H132341   3.499   5.772   1.330  0.5928  0.2462  0.4986
 3594TIP3    H232342   3.543   5.748   1.187 -1.3785  1.7073 -0.4122
 3595TIP3   OH232343   4.881   0.285   8.092 -0.5531  0.2055  0.2894
 3595TIP3    H132344   4.817   0.326   8.034  1.1274  1.0516 -1.0826
 3595TIP3    H232345   4.964   0.325   8.067  0.3782  0.0120  2.7832
 3596TIP3   OH232346   0.532   5.846   2.896 -0.6020  0.1257 -0.7160
 3596TIP3    H132347   0.490   5.923   2.932 -0.3537  0.7416 -1.7002
 3596TIP3    H232348   0.486   5.830   2.813 -2.5953 -2.5011  0.7265
 3597TIP3   OH232349   0.451   0.197   0.302 -0.4438 -0.1209  0.1462
 3597TIP3    H132350   0.371   0.249   0.300 -0.0048  0.5953  0.7693
 3597TIP3    H232351   0.518   0.256   0.336  0.3203 -0.7593 -0.1986
 3598TIP3   OH232352   3.153   5.140   8.171 -0.3787  0.5212  0.1061
 3598TIP3    H132353   3.160   5.094   8.087 -0.5971 -0.3660  0.5528
 3598TIP3    H232354   3.117   5.226   8.149 -1.6957 -0.1735 -0.5788
 3599TIP3   OH232355   3.466   5.639   1.057  0.0943  0.1366  0.6822
 3599TIP3    H132356   3.465   5.628   0.962  3.0677  1.0073  0.4347
 3599TIP3    H232357   3.419   5.563   1.091 -0.1380 -0.7394 -1.4590
 3600TIP3   OH232358   6.628   6.728   7.452  0.0231  0.2991  0.0862
 3600TIP3    H132359   6.646   6.809   7.500  0.8750  0.0057  0.2836
 3600TIP3    H232360   6.666   6.742   7.366  1.4817 -0.4086  0.5767
 3601TIP3   OH232361   5.129   6.765   7.736 -0.6528 -0.0858 -0.1599
 3601TIP3    H132362   5.210   6.811   7.758  0.2604 -1.7516  0.1485
 3601TIP3    H232363   5.107   6.794   7.648 -0.5393  1.4713  0.2990
 3602TIP3   OH232364   6.110   6.187   2.792 -0.6198 -0.0607  0.2852
 3602TIP3    H132365   6.036   6.154   2.842 -0.8362 -1.1438 -0.6982
 3602TIP3    H232366   6.186   6.140   2.826 -0.7655 -0.7909 -0.3685
 3603TIP3   OH232367   0.932   1.901   2.243  0.3940  0.5522  0.6405
 3603TIP3    H132368   0.900   1.858   2.322 -0.8003  0.3118  0.0470
 3603TIP3    H232369   0.863   1.963   2.219 -0.1219 -0.6526 -1.2049
 3604TIP3   OH232370   4.641   3.096   1.420 -0.7158 -0.2116 -0.2529
 3604TIP3    H132371   4.684   3.179   1.440 -0.9586 -0.3148  0.7592
 3604TIP3    H232372   4.688   3.032   1.474 -2.4459 -0.2456  1.2945
 3605TIP3   OH232373   3.477   5.145   0.344 -0.0393 -0.3746 -0.2177
 3605TIP3    H132374   3.391   5.183   0.361  0.5313  1.3788 -0.9410
 3605TIP3    H232375   3.503   5.182   0.259  1.4070 -0.8811 -0.0214
 3606TIP3   OH232376   2.122   1.444   0.609 -0.1352 -0.2115  0.0719
 3606TIP3    H132377   2.161   1.442   0.521  0.9621  1.7746  0.4508
 3606TIP3    H232378   2.186   1.400   0.665  0.0406  0.1573  0.1642
 3607TIP3   OH232379   2.072   4.807   1.762 -0.3609 -0.1346  0.3398
 3607TIP3    H132380   2.030   4.733   1.718  1.1235 -0.1057 -1.2098
 3607TIP3    H232381   2.137   4.767   1.820  1.0484 -0.0566 -1.1469
 3608TIP3   OH232382   1.987   3.437   0.572 -0.0290 -0.0075 -0.7220
 3608TIP3    H132383   1.895   3.419   0.554 -0.1222  0.0952 -0.3675
 3608TIP3    H232384   1.989   3.458   0.666  0.6731 -2.1075 -0.2152
 3609TIP3   OH232385   1.499   1.959   8.474 -0.2172 -0.0364 -0.0424
 3609TIP3    H132386   1.545   1.886   8.433 -1.1725  0.3879 -1.9742
 3609TIP3    H232387   1.410   1.954   8.439 -0.3040  2.0618 -0.2342
 3610TIP3   OH232388   4.242   3.534   8.612 -0.3462 -0.1438  0.7811
 3610TIP3    H132389   4.279   3.621   8.595 -1.8407  0.6686  1.4679
 3610TIP3    H232390   4.207   3.540   8.702  0.9050 -1.9692  1.4392
 3611TIP3   OH232391   3.165   6.400   8.116 -0.1635  0.4482  0.0441
 3611TIP3    H132392   3.255   6.379   8.143 -1.0856 -2.8941  0.9798
 3611TIP3    H232393   3.167   6.392   8.020  0.9920  2.7976 -0.1882
 3612TIP3   OH232394   5.435   2.449   0.003 -0.5873 -0.2991 -0.2292
 3612TIP3    H132395   5.390   2.506   0.065  0.3590  0.3333 -0.1068
 3612TIP3    H232396   5.429   2.495  -0.081  0.3899  0.1066 -0.0808
 3613TIP3   OH232397   3.138   6.463   1.074  0.1250 -0.0197 -0.2610
 3613TIP3    H132398   3.162   6.410   0.999  1.6792  0.0237  0.1761
 3613TIP3    H232399   3.047   6.440   1.092 -0.2657 -0.0465 -2.1133
 3614TIP3   OH232400   0.843   2.706   8.259  0.6538  0.3380  0.2378
 3614TIP3    H132401   0.805   2.641   8.319  1.8025 -0.4195  0.1852
 3614TIP3    H232402   0.769   2.761   8.233 -0.2960 -0.7241  0.5817
 3615TIP3   OH232403   5.009   4.479   0.248  0.6414  0.6046 -0.7374
 3615TIP3    H132404   5.099   4.487   0.281  0.2035  2.4113  0.1200
 3615TIP3    H232405   5.017   4.501   0.155  1.1540  0.2741 -0.7776
 3616TIP3   OH232406   2.227   1.420   0.344 -0.4366 -1.0211  0.0751
 3616TIP3    H132407   2.248   1.333   0.311  1.1450 -0.8247  0.5136
 3616TIP3    H232408   2.296   1.477   0.309  0.7589 -0.6269  2.8476
 3617TIP3   OH232409   0.836   0.763   1.878 -0.0585 -0.5591  0.5616
 3617TIP3    H132410   0.802   0.827   1.941 -0.4508 -0.3304  0.1210
 3617TIP3    H232411   0.852   0.684   1.930 -1.6945 -0.8320  0.7253
 3618TIP3   OH232412   5.719   5.304   0.506 -0.2535  0.6900  0.2822
 3618TIP3    H132413   5.778   5.365   0.550 -0.2001 -0.0108  1.2239
 3618TIP3    H232414   5.774   5.258   0.444 -0.0577  0.8369  0.3455
 3619TIP3   OH232415   0.544   4.881   0.876  0.6475 -0.2049 -0.1687
 3619TIP3    H132416   0.456   4.902   0.906  0.4532  0.1322 -0.9473
 3619TIP3    H232417   0.601   4.939   0.926  0.4318 -0.3939  0.3068
 3620TIP3   OH232418   6.049   0.286   0.370 -0.8275  0.3973 -0.2238
 3620TIP3    H132419   6.028   0.287   0.277 -2.2517  0.4104  0.0748
 3620TIP3    H232420   5.995   0.215   0.406 -0.1880  0.3014  0.5706
 3621TIP3   OH232421   1.850   1.781   8.482 -0.0363 -0.1842  0.3135
 3621TIP3    H132422   1.893   1.857   8.443 -0.7252  0.8686  1.5345
 3621TIP3    H232423   1.757   1.795   8.467 -0.1305 -1.1362 -0.0374
 3622TIP3   OH232424   3.229   6.425   0.106 -0.4003  0.2125  0.4129
 3622TIP3    H132425   3.312   6.392   0.072 -1.4922 -1.8561 -0.4279
 3622TIP3    H232426   3.221   6.513   0.068  0.7850 -0.0678 -0.5461
 3623TIP3   OH232427   4.206   3.298   0.213 -0.1427 -0.1712  0.1141
 3623TIP3    H132428   4.171   3.325   0.128  0.7092  1.1868  0.1621
 3623TIP3    H232429   4.131   3.302   0.272 -0.1405  1.8643  0.0479
 3624TIP3   OH232430   6.308   2.974   8.399 -0.1644 -0.3182  0.1837
 3624TIP3    H132431   6.395   2.949   8.430  0.2807 -0.5661 -1.2010
 3624TIP3    H232432   6.317   3.066   8.374 -0.2691 -0.3730 -0.0578
 3625TIP3   OH232433   6.783   0.458   1.916 -0.0358 -0.5037  0.0400
 3625TIP3    H132434   6.712   0.401   1.945  0.0206 -1.1701 -1.0602
 3625TIP3    H232435   6.850   0.449   1.984 -0.3328 -1.1732  0.2555
 3626TIP3   OH232436   0.028   5.485   0.809  0.6306  0.0159  0.2602
 3626TIP3    H132437   0.038   5.547   0.880  3.4643  1.9365 -1.5874
 3626TIP3    H232438   0.109   5.433   0.811  0.8872  0.2577 -1.5677
 3627TIP3   OH232439   4.907   2.191   7.294 -0.5117 -0.1834  0.3602
 3627TIP3    H132440   4.979   2.134   7.265 -0.0512  0.4885  0.1619
 3627TIP3    H232441   4.914   2.193   7.389  0.9412  1.3955  0.2660
 3628TIP3   OH232442   6.123   0.115   1.305 -0.0490 -0.0706  0.4414
 3628TIP3    H132443   6.043   0.121   1.356 -0.1583  0.7825  0.1724
 3628TIP3    H232444   6.095   0.130   1.214  0.1955 -1.2134  0.1528
 3629TIP3   OH232445   1.935   5.948   2.977  0.2211  0.5330  0.3061
 3629TIP3    H132446   2.015   5.995   3.001  0.0820  1.2982 -0.7033
 3629TIP3    H232447   1.947   5.923   2.886 -0.1033 -0.6076  0.5519
 3630TIP3   OH232448   1.645   3.953   8.677  0.1195  0.0479  0.1156
 3630TIP3    H132449   1.687   3.954   8.763  0.5000 -0.5247 -0.0579
 3630TIP3    H232450   1.553   3.971   8.696  0.2401  0.1570  0.6171
 3631TIP3   OH232451   1.993   5.039   0.678 -0.4925  0.0519  0.1584
 3631TIP3    H132452   2.005   4.970   0.612  0.3738 -0.0279  0.3818
 3631TIP3    H232453   2.033   5.117   0.639  1.7998 -0.4535  1.3118
 3632TIP3   OH232454   3.432   3.881   7.829 -0.0542  0.2786 -0.0049
 3632TIP3    H132455   3.365   3.814   7.819  0.9073 -0.7304  0.2066
 3632TIP3    H232456   3.510   3.835   7.860  0.7187  1.4382 -0.1172
 3633TIP3   OH232457   2.080   1.937   0.769 -0.0195 -0.1382  1.1217
 3633TIP3    H132458   2.103   1.986   0.848  0.0556  0.7763  0.5540
 3633TIP3    H232459   1.985   1.943   0.764 -0.0590 -0.5585  1.3688
 3634TIP3   OH232460   3.565   3.239   7.280  0.3452 -0.3115 -0.0167
 3634TIP3    H132461   3.640   3.298   7.280 -0.1420  0.3727  1.6442
 3634TIP3    H232462   3.496   3.288   7.234 -0.0146  0.4100  1.2307
 3635TIP3   OH232463   4.752   4.004   1.512 -0.1481 -0.5597 -0.2794
 3635TIP3    H132464   4.799   4.081   1.480 -0.0338 -1.1729 -1.6398
 3635TIP3    H232465   4.672   4.001   1.460 -1.5161  0.2021  1.6874
 3636TIP3   OH232466   6.286   1.728   1.419  0.5607  0.1915 -0.2057
 3636TIP3    H132467   6.216   1.780   1.460  0.0263 -0.8418  0.2335
 3636TIP3    H232468   6.242   1.681   1.349  0.9382 -0.0270 -0.2955
 3637TIP3   OH232469   6.180   1.359   7.929  0.3187 -0.2036  0.8062
 3637TIP3    H132470   6.269   1.386   7.951  0.3202 -0.8579  1.6476
 3637TIP3    H232471   6.184   1.336   7.836  0.5359  1.7035  0.3011
 3638TIP3   OH232472   3.703   2.995   7.247 -0.1273 -0.3333  0.5525
 3638TIP3    H132473   3.657   3.077   7.263  0.5141  0.2953 -0.6320
 3638TIP3    H232474   3.634   2.929   7.240 -0.6875  0.1955  0.9571
 3639TIP3   OH232475   2.066   0.317   7.471 -0.4513 -0.3706  0.3734
 3639TIP3    H132476   2.008   0.257   7.424 -0.8707  1.0644 -1.0136
 3639TIP3    H232477   2.117   0.360   7.403 -0.2752  0.9678  1.3069
 3640TIP3   OH232478   2.653   4.240   8.117  0.3457 -0.1293  0.1688
 3640TIP3    H132479   2.577   4.221   8.061  0.6543 -0.1762 -0.2374
 3640TIP3    H232480   2.665   4.335   8.111 -0.5830  0.0941  1.4115
 3641TIP3   OH232481   5.630   1.070   8.039 -0.1275  0.2880 -0.3455
 3641TIP3    H132482   5.689   1.094   8.110 -0.4194  1.2353 -0.4010
 3641TIP3    H232483   5.663   0.987   8.006  0.3353  0.1146  0.5373
 3642TIP3   OH232484   5.270   4.261   0.491  0.0097  0.2441 -0.3605
 3642TIP3    H132485   5.225   4.280   0.574 -1.1771 -0.3255 -0.8439
 3642TIP3    H232486   5.277   4.346   0.447  0.3258  0.4954  0.1735
 3643TIP3   OH232487   6.388   6.184   0.464 -0.1474 -0.8543 -0.6077
 3643TIP3    H132488   6.430   6.209   0.382  2.6289 -0.7783  0.7215
 3643TIP3    H232489   6.424   6.097   0.483 -0.1402 -0.5595  0.8644
 3644TIP3   OH232490   3.849   3.530   7.907 -0.0445  0.2139 -0.0242
 3644TIP3    H132491   3.779   3.471   7.934  0.2967 -1.1213 -1.8583
 3644TIP3    H232492   3.928   3.475   7.908  0.2339  0.4912 -2.0260
 3645TIP3   OH232493   1.986   0.355   0.152  0.4187  0.1686 -0.0913
 3645TIP3    H132494   2.003   0.300   0.228  1.6619 -0.2741 -0.6696
 3645TIP3    H232495   1.891   0.346   0.137  0.1911  0.1156  1.2684
 3646TIP3   OH232496   1.834   3.650   8.365  0.3687  0.0395 -0.2844
 3646TIP3    H132497   1.901   3.584   8.381  0.3074  0.2460  0.8559
 3646TIP3    H232498   1.858   3.724   8.421  0.1929  0.8245 -1.2089
 3647TIP3   OH232499   0.695   5.951   1.399  0.1656  0.5245  0.1911
 3647TIP3    H132500   0.743   6.029   1.427 -1.7879  1.3067  1.5329
 3647TIP3    H232501   0.633   5.934   1.470 -1.0526 -0.8608 -1.1407
 3648TIP3   OH232502   5.945   6.789   8.311 -0.2291  0.7315 -0.2411
 3648TIP3    H132503   6.004   6.863   8.298  1.4714 -0.3761  0.7246
 3648TIP3    H232504   5.891   6.786   8.232  1.4773  1.4094 -1.4849
 3649TIP3   OH232505   2.907   0.576   2.125  0.4311 -0.0503  0.2000
 3649TIP3    H132506   2.899   0.531   2.041  0.6039  0.8417 -0.3152
 3649TIP3    H232507   2.835   0.640   2.124  0.3431 -0.1354  0.7971
 3650TIP3   OH232508   5.636   3.963   8.226  0.3272 -0.5788  0.2791
 3650TIP3    H132509   5.633   4.051   8.264 -0.5898 -0.8087  0.7623
 3650TIP3    H232510   5.545   3.944   8.202  0.4094 -1.6471  0.7778
 3651TIP3   OH232511   2.079   5.355   2.148 -0.4294 -0.1054 -0.3234
 3651TIP3    H132512   2.057   5.276   2.099 -0.0287 -1.2371  1.2229
 3651TIP3    H232513   2.088   5.325   2.239 -1.1830  1.8868  0.4730
 3652TIP3   OH232514   5.940   1.103   7.948  0.1377  0.0460 -0.4921
 3652TIP3    H132515   5.912   1.195   7.948  2.7171  0.9109 -2.0665
 3652TIP3    H232516   5.941   1.079   8.041 -1.2262  1.3429 -0.0940
 3653TIP3   OH232517   5.808   2.503   2.739 -0.1438  0.6853 -0.4601
 3653TIP3    H132518   5.736   2.565   2.728 -0.5127  0.1504 -1.1228
 3653TIP3    H232519   5.879   2.539   2.686  0.7892  2.2304  1.6688
 3654TIP3   OH232520   4.111   5.030   8.138  0.2048  0.0874 -0.1252
 3654TIP3    H132521   4.202   5.002   8.125  0.4331  0.8777 -0.2965
 3654TIP3    H232522   4.068   4.954   8.176  0.5227 -0.9207 -1.6814
 3655TIP3   OH232523   4.164   2.387   7.758  0.1813  0.1921 -0.9154
 3655TIP3    H132524   4.190   2.331   7.685  2.7832  0.4811 -0.3230
 3655TIP3    H232525   4.075   2.360   7.779  0.6882 -2.4775 -1.8060
 3656TIP3   OH232526   4.644   5.623   8.644  0.2142 -0.6793 -0.2949
 3656TIP3    H132527   4.708   5.663   8.585  0.5992 -2.5278 -1.1789
 3656TIP3    H232528   4.689   5.548   8.682  0.4198  1.0626  3.3667
 3657TIP3   OH232529   4.692   2.473   3.406 -0.4212  0.5310 -0.0878
 3657TIP3    H132530   4.772   2.519   3.431  0.3709 -1.6068  1.5999
 3657TIP3    H232531   4.709   2.442   3.318  1.6359 -1.8350  1.0412
 3658TIP3   OH232532   6.136   2.949   1.639 -0.1481  0.7208 -0.0719
 3658TIP3    H132533   6.193   2.873   1.647 -0.8169  0.3291  1.3545
 3658TIP3    H232534   6.171   3.013   1.702 -1.4756  0.3005  1.1662
 3659TIP3   OH232535   4.241   3.629   1.243  0.1961  0.1528 -0.0511
 3659TIP3    H132536   4.227   3.586   1.159 -0.0613 -0.2543  0.1962
 3659TIP3    H232537   4.253   3.721   1.221  1.4369 -0.1324 -0.6488
 3660TIP3   OH232538   1.365   6.360   0.151  0.0819  0.2914 -0.3465
 3660TIP3    H132539   1.389   6.442   0.107  2.1584  0.1235  0.3496
 3660TIP3    H232540   1.377   6.379   0.244 -1.3479 -0.2406 -0.0343
 3661TIP3   OH232541   3.440   2.897   7.535  0.8637  0.3529 -0.1407
 3661TIP3    H132542   3.460   2.810   7.503  0.4968  0.4711 -0.7189
 3661TIP3    H232543   3.423   2.886   7.628  0.0523 -0.3242 -0.3597
 3662TIP3   OH232544   5.446   4.622   7.618  0.1231  0.1651  0.2361
 3662TIP3    H132545   5.502   4.687   7.577  0.9953  0.6383  2.0844
 3662TIP3    H232546   5.364   4.626   7.568  0.5217  1.9247 -0.3537
 3663TIP3   OH232547   5.757   2.669   7.752 -0.9146  0.3679 -0.1914
 3663TIP3    H132548   5.701   2.718   7.692 -1.8564 -0.7286 -0.2411
 3663TIP3    H232549   5.742   2.577   7.730  0.2481  0.0181  0.3897
 3664TIP3   OH232550   3.465   6.088   2.323  0.3054  0.2084  0.7036
 3664TIP3    H132551   3.384   6.072   2.276 -0.0305  0.4603  1.1902
 3664TIP3    H232552   3.523   6.017   2.297 -0.6838 -1.0309  1.7576
 3665TIP3   OH232553   4.681   3.521   2.840 -0.0054  0.1297 -0.1549
 3665TIP3    H132554   4.725   3.444   2.877 -1.3492 -1.0646 -0.9876
 3665TIP3    H232555   4.715   3.527   2.751 -1.9050 -1.1647 -1.0123
 3666TIP3   OH232556   1.167   0.260   2.079  0.0965  0.1417 -0.5764
 3666TIP3    H132557   1.101   0.307   2.029  0.2842 -0.6505 -1.5998
 3666TIP3    H232558   1.144   0.277   2.171  0.0416  2.0185 -0.9007
 3667TIP3   OH232559   3.803   2.224   1.686  0.0594 -0.1836 -0.0395
 3667TIP3    H132560   3.852   2.306   1.678 -1.2847  0.7419  0.8600
 3667TIP3    H232561   3.809   2.184   1.599  0.5668  0.9518 -0.5483
 3668TIP3   OH232562   6.129   6.702   1.109 -0.1016  0.1838 -0.8041
 3668TIP3    H132563   6.124   6.701   1.013  3.4001  2.2862 -1.1889
 3668TIP3    H232564   6.221   6.717   1.128 -0.6877  0.0039  2.9574
 3669TIP3   OH232565   3.874   5.734   7.570  0.7330 -0.1902  0.0454
 3669TIP3    H132566   3.851   5.663   7.511 -0.6544 -0.2028  0.5740
 3669TIP3    H232567   3.796   5.747   7.624  1.6305  0.4557  1.2339
 3670TIP3   OH232568   5.135   3.102   1.829 -0.2841  0.6746 -0.3277
 3670TIP3    H132569   5.155   3.189   1.793  0.8202  1.4395  1.9066
 3670TIP3    H232570   5.078   3.120   1.904  0.8698 -0.3833  0.8615
 3671TIP3   OH232571   5.606   3.884   0.768  0.5337 -0.4502 -0.0268
 3671TIP3    H132572   5.566   3.837   0.841  0.2599  0.6120  0.5258
 3671TIP3    H232573   5.678   3.827   0.740  0.1333 -1.2587  0.5267
 3672TIP3   OH232574   2.086   1.595   2.661  0.4159 -0.4203  0.3560
 3672TIP3    H132575   2.148   1.609   2.590  0.8908  0.6020  0.9392
 3672TIP3    H232576   2.095   1.674   2.715  0.6082 -1.4870  1.9418
 3673TIP3   OH232577   1.315   0.101   8.365  0.2945  0.3359 -0.7052
 3673TIP3    H132578   1.394   0.133   8.321  0.6186  2.8925  1.4875
 3673TIP3    H232579   1.244   0.155   8.330 -0.1446 -0.4001 -0.9877
 3674TIP3   OH232580   5.941   3.155   1.048 -0.0526 -1.0675 -0.1626
 3674TIP3    H132581   5.978   3.177   1.134  1.6678 -1.5346 -0.7336
 3674TIP3    H232582   5.956   3.061   1.039 -1.1125 -1.2152 -0.5880
 3675TIP3   OH232583   5.838   0.758   0.793  0.0101  0.7765  0.2381
 3675TIP3    H132584   5.797   0.814   0.726 -0.2990 -0.4470 -0.6283
 3675TIP3    H232585   5.765   0.718   0.839  0.2322  0.6553  0.4856
 3676TIP3   OH232586   4.741   0.602   8.044 -0.1127 -0.9890  0.2480
 3676TIP3    H132587   4.756   0.577   7.952  0.0517 -1.5725  0.4326
 3676TIP3    H232588   4.657   0.648   8.042  1.6408  2.5936 -0.8498
 3677TIP3   OH232589   5.884   3.492   3.079  0.4220  0.0891 -0.1320
 3677TIP3    H132590   5.809   3.439   3.107  0.2949  0.3904  0.0915
 3677TIP3    H232591   5.846   3.575   3.052  0.8449  0.9503  1.7744
 3678TIP3   OH232592   5.819   1.181   1.000  0.2704  0.2487 -0.4190
 3678TIP3    H132593   5.762   1.134   0.940 -2.5111  1.4618  1.0429
 3678TIP3    H232594   5.835   1.120   1.072 -2.6727  1.0667  1.0894
 3679TIP3   OH232595   1.121   2.034   2.042 -0.3948 -0.2618  0.7039
 3679TIP3    H132596   1.110   2.083   2.123  0.6800  2.1385 -0.5197
 3679TIP3    H232597   1.164   1.953   2.069  1.3621  1.1528  2.3875
 3680TIP3   OH232598   1.201   3.366   2.259  0.2852  0.0972 -0.2199
 3680TIP3    H132599   1.122   3.384   2.310  0.8987  0.6590  0.5634
 3680TIP3    H232600   1.271   3.364   2.325  0.8981 -0.5400 -0.8823
 3681TIP3   OH232601   0.069   1.329   8.367 -0.0761 -0.5901 -0.8193
 3681TIP3    H132602   0.001   1.385   8.405  1.4108  0.3062  0.6519
 3681TIP3    H232603   0.081   1.363   8.278 -0.8402 -0.1139 -0.7484
 3682TIP3   OH232604   0.393   6.732   0.845  0.7521  0.1706 -0.4370
 3682TIP3    H132605   0.390   6.781   0.763  1.6734 -1.6704 -1.6318
 3682TIP3    H232606   0.319   6.671   0.839  0.4259  0.4655  0.4240
 3683TIP3   OH232607   4.360   6.176   2.277 -0.4410  0.4170 -0.2326
 3683TIP3    H132608   4.429   6.185   2.342  0.5816 -0.6814 -1.1094
 3683TIP3    H232609   4.354   6.262   2.236 -0.6823  0.9462  0.8889
 3684TIP3   OH232610   2.964   3.232   8.029 -0.1297 -0.0191 -0.6014
 3684TIP3    H132611   2.942   3.325   8.024 -0.3888  0.0054  0.5966
 3684TIP3    H232612   3.059   3.231   8.039 -0.2679  0.2222  1.0033
 3685TIP3   OH232613   2.910   4.789   1.626  0.3481  0.5131  0.6149
 3685TIP3    H132614   2.889   4.833   1.708 -1.6244  0.6647  0.0846
 3685TIP3    H232615   2.861   4.707   1.631  0.3517  0.4482 -0.3349
 3686TIP3   OH232616   0.689   2.330   1.853  0.0740 -0.0188 -0.1286
 3686TIP3    H132617   0.673   2.363   1.942 -2.0144 -1.7757  0.2166
 3686TIP3    H232618   0.778   2.297   1.856  0.4637  1.0252  0.9367
 3687TIP3   OH232619   1.542   1.981   7.944 -0.4026 -0.0454  0.5451
 3687TIP3    H132620   1.488   1.996   8.022 -0.8646 -1.3144  0.4850
 3687TIP3    H232621   1.488   1.926   7.887  0.7361 -0.9110  0.2546
 3688TIP3   OH232622   3.975   4.757   1.870  0.0392 -0.2099 -0.3019
 3688TIP3    H132623   4.024   4.839   1.866  0.6666 -0.4526  1.4551
 3688TIP3    H232624   4.034   4.692   1.831 -0.0171 -0.0244 -0.7008
 3689TIP3   OH232625   5.125   3.055   7.365  0.1146 -0.3249  0.6637
 3689TIP3    H132626   5.104   3.098   7.282 -1.5401  0.8431  1.6381
 3689TIP3    H232627   5.143   2.964   7.340 -2.5537 -0.5603 -0.7746
 3690TIP3   OH232628   2.577   4.425   2.964  0.3528  0.2684  0.1360
 3690TIP3    H132629   2.672   4.420   2.958  0.3527 -0.9219  0.6638
 3690TIP3    H232630   2.559   4.515   2.990  1.5143 -0.0776  2.4565
 3691TIP3   OH232631   6.168   1.392   1.072  0.1335 -0.2128  0.3812
 3691TIP3    H132632   6.161   1.300   1.099  0.8530  0.1315  1.8770
 3691TIP3    H232633   6.217   1.434   1.143  1.4633  0.9648 -1.1491
 3692TIP3   OH232634   1.627   5.109   0.411  0.6700  0.0230 -0.1381
 3692TIP3    H132635   1.657   5.065   0.331  0.2999  1.0297 -0.8568
 3692TIP3    H232636   1.702   5.106   0.470  0.3219 -2.5397  0.2931
 3693TIP3   OH232637   5.591   3.491   1.318  0.1200 -0.5636  0.2506
 3693TIP3    H132638   5.625   3.506   1.407  2.1936  0.0214 -0.5653
 3693TIP3    H232639   5.669   3.468   1.267 -0.8539  0.1579 -1.6494
 3694TIP3   OH232640   0.252   2.141   3.068  0.6905 -0.0375  0.4471
 3694TIP3    H132641   0.219   2.092   3.143  0.9403 -0.0845  0.5277
 3694TIP3    H232642   0.177   2.194   3.039  0.8845  0.7574  1.3594
 3695TIP3   OH232643   2.595   3.924   2.613 -0.0723 -0.7032 -0.4846
 3695TIP3    H132644   2.557   3.965   2.690 -0.6784  0.6893 -1.4907
 3695TIP3    H232645   2.658   3.988   2.579 -0.2798 -1.0257 -1.5089
 3696TIP3   OH232646   5.111   0.199   8.755  0.2294  0.6297 -0.3078
 3696TIP3    H132647   5.087   0.167   8.668 -0.2121  2.1545 -0.7817
 3696TIP3    H232648   5.207   0.205   8.753  0.2040  0.9160 -0.7912
 3697TIP3   OH232649   2.540   5.979   1.441 -0.3649 -0.7412  0.0654
 3697TIP3    H132650   2.542   6.026   1.358  0.6147 -2.8094 -1.1613
 3697TIP3    H232651   2.450   5.948   1.448 -0.1355 -1.7057 -0.9544
 3698TIP3   OH232652   0.730   1.477   7.813  0.0487 -0.0443 -0.0677
 3698TIP3    H132653   0.779   1.485   7.731 -0.5052  0.0170 -0.3985
 3698TIP3    H232654   0.787   1.424   7.870  0.7385  0.4879 -0.2482
 3699TIP3   OH232655   6.571   6.318   0.860  0.4066  0.3518  0.0589
 3699TIP3    H132656   6.563   6.413   0.863 -0.6732  0.3044 -0.6837
 3699TIP3    H232657   6.663   6.301   0.878  0.9349  1.6142 -1.2912
 3700TIP3   OH232658   2.060   0.551   8.419  0.1852  0.3522 -0.3861
 3700TIP3    H132659   2.129   0.615   8.403  0.2345  0.2051 -0.7840
 3700TIP3    H232660   2.106   0.473   8.449  0.1978  0.2487 -0.6673
 3701TIP3   OH232661   1.665   2.022   2.511  0.3200 -0.3197  0.3728
 3701TIP3    H132662   1.619   2.011   2.428 -0.3536  0.9464  0.5596
 3701TIP3    H232663   1.699   2.112   2.509 -0.8191  0.2043  1.9752
 3702TIP3   OH232664   3.826   6.053   0.469  0.4893  0.3440  0.0101
 3702TIP3    H132665   3.880   6.001   0.410  3.6071  2.7765  0.4260
 3702TIP3    H232666   3.820   6.000   0.549  2.5883  0.0562  0.0332
 3703TIP3   OH232667   0.810   5.355   2.874 -0.4824 -0.2396  0.0521
 3703TIP3    H132668   0.896   5.395   2.887 -0.3302 -1.2251  2.6477
 3703TIP3    H232669   0.748   5.428   2.880  0.1151  0.5128 -2.0876
 3704TIP3   OH232670   3.619   1.051   7.718 -0.0708 -0.0376  0.0467
 3704TIP3    H132671   3.708   1.017   7.721 -0.1429 -0.3455 -0.8560
 3704TIP3    H232672   3.612   1.091   7.631 -0.3343  1.3412  0.6720
 3705TIP3   OH232673   5.571   5.161   0.908  0.5220  0.1649  0.8101
 3705TIP3    H132674   5.541   5.113   0.831  0.6052  0.6530  0.4672
 3705TIP3    H232675   5.493   5.208   0.939  0.4709 -0.0860  1.0694
 3706TIP3   OH232676   1.476   0.478   0.488 -0.0591  0.4411 -0.1205
 3706TIP3    H132677   1.503   0.391   0.519  0.0346  0.1016 -1.1071
 3706TIP3    H232678   1.512   0.539   0.552  2.3077 -0.0570 -0.8651
 3707TIP3   OH232679   1.824   4.311   1.623 -0.1021 -0.1026  0.6797
 3707TIP3    H132680   1.747   4.262   1.650 -0.6778 -0.1981 -1.0412
 3707TIP3    H232681   1.846   4.365   1.699 -1.3831 -0.6447  1.4630
 3708TIP3   OH232682   4.568   1.138   7.795 -0.5021  0.6536 -0.2952
 3708TIP3    H132683   4.659   1.166   7.783 -0.6668  1.4884  0.2740
 3708TIP3    H232684   4.550   1.079   7.722  0.5789  0.2701 -0.2603
 3709TIP3   OH232685   1.470   3.629   1.630  0.1796  0.2244 -0.4012
 3709TIP3    H132686   1.555   3.657   1.663 -0.2306  1.1675 -0.1242
 3709TIP3    H232687   1.459   3.540   1.663  0.3299  0.6947  0.9569
 3710TIP3   OH232688   2.346   3.501   1.096  0.0791 -0.0188  0.6383
 3710TIP3    H132689   2.370   3.590   1.121  0.2919  0.7037 -1.8636
 3710TIP3    H232690   2.292   3.469   1.168  0.5050  1.9028  1.8717
 3711TIP3   OH232691   3.131   0.886   1.636  0.0055  0.5163  0.0167
 3711TIP3    H132692   3.149   0.848   1.722  0.1668  0.7282  0.0763
 3711TIP3    H232693   3.128   0.980   1.651  1.8752  0.7123 -0.5291
 3712TIP3   OH232694   3.291   0.158   8.675  0.0311 -0.2801 -0.3429
 3712TIP3    H132695   3.334   0.078   8.643  0.2965 -0.2586 -0.0454
 3712TIP3    H232696   3.350   0.229   8.648 -0.3109 -0.1644 -0.7948
 3713TIP3   OH232697   5.617   0.439   2.163 -0.1395 -0.1276  0.4772
 3713TIP3    H132698   5.553   0.484   2.107  1.1017 -0.9905 -1.7110
 3713TIP3    H232699   5.672   0.389   2.103  1.5784 -0.7343  2.4357
 3714TIP3   OH232700   1.204   1.486   2.040 -0.0045 -0.5155 -0.8367
 3714TIP3    H132701   1.174   1.460   2.127 -1.1389  0.9463 -0.7450
 3714TIP3    H232702   1.191   1.407   1.986  0.2514 -1.2886  0.1946
 3715TIP3   OH232703   2.851   5.638   0.189  1.0001 -0.4824 -0.1715
 3715TIP3    H132704   2.791   5.600   0.125  0.8844  0.7488 -0.8165
 3715TIP3    H232705   2.865   5.728   0.160 -0.2463  0.6374  2.3603
 3716TIP3   OH232706   5.493   1.913   1.192  0.4776 -0.1468 -0.3722
 3716TIP3    H132707   5.437   1.981   1.232  0.1111 -0.8395  0.3259
 3716TIP3    H232708   5.540   1.875   1.266  0.4302 -0.8794 -0.7177
 3717TIP3   OH232709   1.131   4.784   6.860 -0.1581  0.3948 -0.3989
 3717TIP3    H132710   1.205   4.844   6.862  0.3448 -0.2276  0.2004
 3717TIP3    H232711   1.091   4.798   6.774  0.3173  1.1281 -0.5117
 3718TIP3   OH232712   0.281   4.143   7.630  0.1788 -0.3374 -0.6874
 3718TIP3    H132713   0.301   4.204   7.701 -1.1665 -1.5678  0.8260
 3718TIP3    H232714   0.241   4.197   7.563  1.5022  0.8646 -0.5470
 3719TIP3   OH232715   0.993   1.484   2.273  0.2479 -0.4538  0.1883
 3719TIP3    H132716   0.956   1.458   2.189  0.9003  1.4160 -0.7433
 3719TIP3    H232717   0.933   1.553   2.305  0.6039 -0.3822  0.7163
 3720TIP3   OH232718   3.930   2.260   7.589 -0.4557  0.2861 -0.8907
 3720TIP3    H132719   3.909   2.168   7.570 -0.9610 -0.1767  1.5522
 3720TIP3    H232720   4.019   2.272   7.555 -0.3998 -1.0785 -1.3044
 3721TIP3   OH232721   1.378   4.718   7.928 -0.1589  0.4049 -0.4221
 3721TIP3    H132722   1.434   4.703   8.004  0.2513 -0.6190 -0.9111
 3721TIP3    H232723   1.396   4.808   7.902  4.0807 -0.8345 -2.7409
 3722TIP3   OH232724   6.423   4.950   3.115 -0.3263  0.2993 -0.4517
 3722TIP3    H132725   6.439   4.910   3.029  1.3429  0.2218 -0.1383
 3722TIP3    H232726   6.437   4.879   3.178 -2.9386 -0.0298 -0.1099
 3723TIP3   OH232727   5.850   1.529   0.412  0.0254  0.4996 -0.1200
 3723TIP3    H132728   5.819   1.506   0.499  1.1225 -2.0534 -0.2985
 3723TIP3    H232729   5.783   1.588   0.377 -2.0786 -0.9363  1.2583
 3724TIP3   OH232730   1.010   2.202   1.499 -0.3371 -0.2033  0.0474
 3724TIP3    H132731   1.054   2.256   1.564 -0.1877 -2.4730  1.9738
 3724TIP3    H232732   0.917   2.227   1.506 -0.0487  1.0703 -0.4486
 3725TIP3   OH232733   1.048   3.437   1.854  0.2501  0.0436 -0.1351
 3725TIP3    H132734   1.052   3.501   1.783  0.3700  1.3374  0.9954
 3725TIP3    H232735   1.001   3.481   1.924 -2.1236 -2.0910 -0.2239
 3726TIP3   OH232736   1.979   3.167   0.828  0.4565 -0.2360  0.4645
 3726TIP3    H132737   2.007   3.109   0.757  2.3343 -0.5840  1.4482
 3726TIP3    H232738   2.056   3.220   0.849 -0.4457  0.7815  1.3881
 3727TIP3   OH232739   2.834   3.647   1.325  0.3658  0.0605 -0.3037
 3727TIP3    H132740   2.740   3.659   1.337  0.0284 -1.2871 -1.3670
 3727TIP3    H232741   2.871   3.735   1.337 -1.1377  0.8081 -0.8249
 3728TIP3   OH232742   3.773   1.102   8.077  0.3826  0.2232  0.3557
 3728TIP3    H132743   3.812   1.188   8.061 -0.9729  0.3749 -2.8891
 3728TIP3    H232744   3.847   1.042   8.075  0.9198  0.8576 -2.2757
 3729TIP3   OH232745   4.628   2.784   1.188  0.3523 -0.4890 -0.1208
 3729TIP3    H132746   4.670   2.699   1.199 -0.0790 -0.9636 -1.8378
 3729TIP3    H232747   4.593   2.782   1.099 -1.6325  0.6238  0.5715
 3730TIP3   OH232748   4.786   0.592   1.437  0.2085 -0.5487 -0.5245
 3730TIP3    H132749   4.818   0.532   1.370  0.5090  0.6532 -1.4937
 3730TIP3    H232750   4.834   0.568   1.516  0.1105 -1.7562 -0.8232
 3731TIP3   OH232751   4.626   6.592   7.030  0.6081 -0.1783 -0.2984
 3731TIP3    H132752   4.606   6.572   6.938 -2.5336 -0.7804  0.4028
 3731TIP3    H232753   4.622   6.688   7.034  1.8214 -0.0796 -0.9569
 3732TIP3   OH232754   4.271   4.777   0.732  0.0729 -0.0910  0.4000
 3732TIP3    H132755   4.289   4.816   0.646 -0.3612 -1.5120 -0.3672
 3732TIP3    H232756   4.327   4.699   0.735 -2.2095 -1.8454  0.0289
 3733TIP3   OH232757   3.280   5.201   0.681  0.9709  0.1361 -0.9038
 3733TIP3    H132758   3.259   5.217   0.773  0.6108 -3.6698 -0.1762
 3733TIP3    H232759   3.195   5.189   0.639  1.1942  0.3477 -1.4218
 3734TIP3   OH232760   5.153   1.118   1.941 -0.0015 -0.3017 -0.9854
 3734TIP3    H132761   5.201   1.129   2.023  0.0052  0.3916 -1.0731
 3734TIP3    H232762   5.127   1.207   1.917 -0.1835 -0.5250 -1.6278
 3735TIP3   OH232763   2.620   2.709   0.650  0.4115  0.0131 -0.4685
 3735TIP3    H132764   2.654   2.693   0.738 -1.4691 -0.7850  0.1651
 3735TIP3    H232765   2.535   2.751   0.665 -0.5294 -1.3114 -1.8543
 3736TIP3   OH232766   2.037   4.447   7.851  0.5992  0.3037 -0.6414
 3736TIP3    H132767   2.115   4.461   7.796  0.5296  0.1663 -0.7758
 3736TIP3    H232768   1.964   4.467   7.794  0.4738 -0.9993 -0.9749
 3737TIP3   OH232769   2.903   1.042   1.848 -0.0022 -0.1966  0.0470
 3737TIP3    H132770   2.890   0.947   1.856 -0.5991 -0.0991  0.2842
 3737TIP3    H232771   2.863   1.065   1.764  0.0996 -0.1435  0.0122
 3738TIP3   OH232772   1.213   0.450   1.841  0.0132  0.7516  0.8768
 3738TIP3    H132773   1.119   0.469   1.845  0.0505  0.8260  1.4949
 3738TIP3    H232774   1.245   0.506   1.770 -0.6705 -0.4387 -0.4190
 3739TIP3   OH232775   5.661   1.749   0.650 -0.0647  0.2045 -0.6254
 3739TIP3    H132776   5.605   1.786   0.582 -0.1115  2.1091  0.3742
 3739TIP3    H232777   5.609   1.679   0.689 -1.4353  1.3600 -0.3003
 3740TIP3   OH232778   6.762   0.881   1.524  0.1888  0.4452 -0.0639
 3740TIP3    H132779   6.721   0.968   1.530  0.4405  0.4689  1.6588
 3740TIP3    H232780   6.736   0.837   1.605  0.9149 -0.7240 -0.4524
 3741TIP3   OH232781   1.330   0.436   8.020  0.8294 -0.2866 -0.7632
 3741TIP3    H132782   1.330   0.437   8.116 -0.3749  0.1889 -0.7543
 3741TIP3    H232783   1.382   0.358   7.998  1.3099 -0.2846  0.2586
 3742TIP3   OH232784   1.758   5.773   7.507  0.1168  0.1370  0.7809
 3742TIP3    H132785   1.704   5.710   7.460  0.3889 -0.2982  1.0407
 3742TIP3    H232786   1.702   5.806   7.577 -0.0109  0.1353  0.6779
 3743TIP3   OH232787   2.300   3.454   7.746  0.3750  0.0416  0.0981
 3743TIP3    H132788   2.280   3.524   7.807  1.8504  0.5470  0.0334
 3743TIP3    H232789   2.396   3.450   7.743  0.3316 -1.0291 -0.9761
 3744TIP3   OH232790   4.571   1.349   0.229 -0.0382  0.9320  0.2351
 3744TIP3    H132791   4.654   1.348   0.278  0.9240  1.9686 -1.2716
 3744TIP3    H232792   4.596   1.373   0.140 -1.9061  0.6185 -0.4216
 3745TIP3   OH232793   5.051   6.518   0.052 -0.3742  0.3179 -0.1904
 3745TIP3    H132794   5.057   6.456   0.124  0.2050  0.2651 -0.2727
 3745TIP3    H232795   5.140   6.519   0.015 -0.2595  1.5037  0.0749
 3746TIP3   OH232796   3.377   6.282   1.873 -0.4226  0.1828  0.2386
 3746TIP3    H132797   3.415   6.196   1.891 -1.8357 -0.1042  2.0991
 3746TIP3    H232798   3.431   6.318   1.802  1.1466 -1.5863  0.4723
 3747TIP3   OH232799   4.567   6.521   1.455  0.5120  0.6429  0.0027
 3747TIP3    H132800   4.500   6.586   1.475  1.8222  2.5081 -1.2897
 3747TIP3    H232801   4.544   6.488   1.368  1.0763  1.0741 -0.3187
 3748TIP3   OH232802   2.794   1.100   8.740  0.2097  0.5323 -1.0076
 3748TIP3    H132803   2.886   1.125   8.731 -0.1227  1.6843 -1.3838
 3748TIP3    H232804   2.793   1.042   8.816  1.2152  0.6576 -0.8772
 3749TIP3   OH232805   3.656   3.458   0.950  0.0411 -0.2497 -0.3170
 3749TIP3    H132806   3.583   3.475   0.891  0.7193  1.7306 -0.6768
 3749TIP3    H232807   3.632   3.503   1.031  0.4126 -0.4393 -0.1019
 3750TIP3   OH232808   3.734   5.670   1.073  0.7433 -0.0531  0.2023
 3750TIP3    H132809   3.742   5.709   1.160 -1.6279  1.3603 -0.1087
 3750TIP3    H232810   3.648   5.628   1.074  1.7568 -2.3289 -0.6667
 3751TIP3   OH232811   1.725   3.296   2.375  0.8174 -0.3547  0.0996
 3751TIP3    H132812   1.684   3.310   2.290  2.2380  0.4236 -0.4990
 3751TIP3    H232813   1.667   3.339   2.437  0.7377  0.7732 -0.7232
 3752TIP3   OH232814   3.746   4.679   3.124 -0.0872  0.1120  0.5853
 3752TIP3    H132815   3.799   4.693   3.202  0.3174 -1.5838  0.6544
 3752TIP3    H232816   3.751   4.584   3.108 -0.6126  0.3405 -1.1706
 3753TIP3   OH232817   2.243   2.234   0.509 -0.1945  0.0551 -0.1411
 3753TIP3    H132818   2.278   2.303   0.453 -0.6611  0.4194  0.0113
 3753TIP3    H232819   2.271   2.257   0.597 -0.3377  0.0463 -0.0924
 3754TIP3   OH232820   6.679   6.619   0.339  0.0507  0.6956  1.0466
 3754TIP3    H132821   6.665   6.664   0.255 -1.8551  0.0773  0.9901
 3754TIP3    H232822   6.728   6.682   0.391  4.0765 -0.0051 -1.4552
 3755TIP3   OH232823   5.462   4.488   2.473  0.1616 -0.2552 -0.2045
 3755TIP3    H132824   5.390   4.425   2.479  0.7686 -1.0235 -0.8668
 3755TIP3    H232825   5.430   4.555   2.412 -0.6963  0.4016  0.9142
 3756TIP3   OH232826   2.590   1.312   2.595 -0.0423 -0.0339  0.2965
 3756TIP3    H132827   2.553   1.348   2.676  0.2863  0.9594  0.0080
 3756TIP3    H232828   2.523   1.329   2.529 -0.2688 -0.7613  0.3260
 3757TIP3   OH232829   5.319   5.557   8.060  0.2887 -0.3238 -0.5678
 3757TIP3    H132830   5.288   5.575   7.971 -0.1588 -1.7601 -0.7251
 3757TIP3    H232831   5.294   5.466   8.076 -0.6346  0.2305  1.4358
 3758TIP3   OH232832   2.438   0.148   8.021  0.0192 -0.1139  0.0619
 3758TIP3    H132833   2.374   0.176   8.086 -2.8923 -0.8764 -2.2474
 3758TIP3    H232834   2.440   0.053   8.028  0.3121 -0.1483 -0.4236
 3759TIP3   OH232835   2.377   3.817   3.028 -0.2481 -0.8105  0.1748
 3759TIP3    H132836   2.435   3.762   2.975  0.4122 -0.4195  0.4773
 3759TIP3    H232837   2.305   3.758   3.053  0.9509 -1.8507  1.3378
 3760TIP3   OH232838   1.854   4.517   7.640 -0.1313  0.2037  0.8087
 3760TIP3    H132839   1.896   4.576   7.577  1.4136 -0.8335  0.7984
 3760TIP3    H232840   1.777   4.565   7.670  0.9896  2.1939  0.7275
 3761TIP3   OH232841   3.518   1.467   7.094  0.2574  0.1932 -0.0970
 3761TIP3    H132842   3.467   1.523   7.035  1.2214  2.0605  0.7604
 3761TIP3    H232843   3.456   1.402   7.126 -0.6856  0.1669 -1.8490
 3762TIP3   OH232844   6.046   4.606   1.276  0.3013  0.1596  0.6744
 3762TIP3    H132845   6.061   4.694   1.310  1.3814 -0.0407  0.7730
 3762TIP3    H232846   5.952   4.592   1.285  0.2681  0.9086  1.6430
 3763TIP3   OH232847   4.570   1.463   3.143 -0.4134  0.1648  0.6226
 3763TIP3    H132848   4.590   1.487   3.233 -0.3112  1.2977  0.3183
 3763TIP3    H232849   4.638   1.401   3.118  0.6738  1.2693  0.7366
 3764TIP3   OH232850   0.422   5.875   0.313  0.3800  0.3352  0.1732
 3764TIP3    H132851   0.497   5.815   0.311 -0.3952 -0.6953  0.4911
 3764TIP3    H232852   0.386   5.872   0.224 -0.0551 -0.2203  0.3595
 3765TIP3   OH232853   5.328   1.945   0.117 -0.0347  0.4184  0.0707
 3765TIP3    H132854   5.289   1.961   0.031  0.5950  0.5146 -0.2029
 3765TIP3    H232855   5.418   1.917   0.098  0.0357  0.2063  0.6890
 3766TIP3   OH232856   1.745   3.859   8.132 -0.3495 -0.2124  0.0380
 3766TIP3    H132857   1.785   3.929   8.183 -1.0441 -0.2077  0.5970
 3766TIP3    H232858   1.709   3.903   8.055 -0.2976 -0.0430  0.1109
 3767TIP3   OH232859   1.327   1.671   1.388  0.4061 -0.0018 -0.3851
 3767TIP3    H132860   1.373   1.683   1.471 -0.3565  0.5353 -0.0311
 3767TIP3    H232861   1.241   1.710   1.402  0.0140 -0.5329 -1.1999
 3768TIP3   OH232862   1.720   1.510   0.557 -0.2320 -0.7802  0.5345
 3768TIP3    H132863   1.755   1.585   0.605 -0.3858 -0.6464  0.4353
 3768TIP3    H232864   1.734   1.436   0.617 -0.5308 -0.5969  0.8330
 3769TIP3   OH232865   6.230   1.250   1.836  0.4350  0.1906  0.3923
 3769TIP3    H132866   6.308   1.196   1.848  1.1931  1.5747  2.0479
 3769TIP3    H232867   6.163   1.210   1.891  0.0600 -0.7795 -0.7377
 3770TIP3   OH232868   1.141   1.018   8.076  0.1115 -0.0600  0.2197
 3770TIP3    H132869   1.184   0.941   8.041 -1.4630 -1.2607  0.8044
 3770TIP3    H232870   1.212   1.071   8.114  1.3784 -0.4924 -1.4550
 3771TIP3   OH232871   4.018   1.756   8.463 -0.4171 -0.2278  0.1733
 3771TIP3    H132872   3.962   1.824   8.499 -0.6580  0.2460 -1.0635
 3771TIP3    H232873   4.050   1.709   8.540 -0.6389  0.9594  1.0245
 3772TIP3   OH232874   4.336   0.367   0.459 -0.1415  0.3410  0.6601
 3772TIP3    H132875   4.416   0.413   0.436  0.5383 -0.1917  1.8507
 3772TIP3    H232876   4.366   0.289   0.506 -1.3163 -0.5028  0.0724
 3773TIP3   OH232877   4.031   4.199   8.546  0.0665  0.4501 -0.6485
 3773TIP3    H132878   3.995   4.283   8.517  0.1171  0.9057  0.5453
 3773TIP3    H232879   4.050   4.212   8.639  0.2924 -0.8183 -0.4998
 3774TIP3   OH232880   1.451   6.481   0.507  0.0893 -0.1446 -0.2280
 3774TIP3    H132881   1.377   6.428   0.536 -0.4244  0.2997 -0.7033
 3774TIP3    H232882   1.512   6.419   0.468 -0.8423 -0.3058 -1.4771
 3775TIP3   OH232883   5.817   3.898   8.032 -0.0363 -0.7104 -0.3379
 3775TIP3    H132884   5.740   3.937   8.074  0.6311  0.1312  0.1226
 3775TIP3    H232885   5.787   3.876   7.944 -1.5469 -2.7762  0.6065
 3776TIP3   OH232886   3.450   1.276   7.507 -0.0188  0.0224 -0.2981
 3776TIP3    H132887   3.405   1.337   7.566 -1.4529 -0.6697 -0.6213
 3776TIP3    H232888   3.419   1.301   7.420 -1.1457 -1.5500 -0.3870
 3777TIP3   OH232889   3.826   1.930   8.294  0.0187 -0.1781 -1.1628
 3777TIP3    H132890   3.906   1.974   8.265 -0.3684  1.2276 -0.2665
 3777TIP3    H232891   3.768   1.933   8.219  0.0589  0.7596 -1.1692
 3778TIP3   OH232892   3.478   6.639   0.242 -0.0962 -0.0416 -0.3918
 3778TIP3    H132893   3.410   6.706   0.249  0.4873  0.4308  1.5851
 3778TIP3    H232894   3.452   6.573   0.306  1.2484  0.1502  0.3998
 3779TIP3   OH232895   3.567   5.186   0.078  0.3304 -0.3507 -0.8903
 3779TIP3    H132896   3.602   5.270   0.048  2.0124 -0.6115  0.2082
 3779TIP3    H232897   3.604   5.122   0.018  0.3343 -0.4708 -0.7596
 3780TIP3   OH232898   0.250   4.187   2.011  0.1729  0.0117 -0.5350
 3780TIP3    H132899   0.222   4.188   2.102  0.2510  0.9487 -0.5111
 3780TIP3    H232900   0.168   4.188   1.961  0.0738 -2.5501 -0.5099
 3781TIP3   OH232901   6.319   2.828   0.138 -0.1090  0.3034  0.4461
 3781TIP3    H132902   6.381   2.791   0.074 -0.3392  1.8914 -0.7440
 3781TIP3    H232903   6.241   2.774   0.129  0.2731 -0.2297  0.2429
 3782TIP3   OH232904   1.417   2.152   0.150 -0.0845  0.7507 -0.3766
 3782TIP3    H132905   1.432   2.092   0.223 -0.0162  0.1152 -0.9159
 3782TIP3    H232906   1.324   2.173   0.155 -0.2580  0.0324 -0.6292
 3783TIP3   OH232907   5.831   5.686   0.982  0.3161 -0.1840 -0.0141
 3783TIP3    H132908   5.914   5.643   0.958  0.3800  0.4408 -0.9628
 3783TIP3    H232909   5.763   5.627   0.949  0.3956  0.9625 -2.4586
 3784TIP3   OH232910   5.638   6.800   0.414 -0.4403 -0.2085  0.3421
 3784TIP3    H132911   5.688   6.779   0.335 -1.6405 -2.7111  0.1471
 3784TIP3    H232912   5.592   6.881   0.393  1.5038  0.7617 -0.3954
 3785TIP3   OH232913   1.439   1.131   1.695 -0.0730 -0.1190 -0.3673
 3785TIP3    H132914   1.370   1.094   1.749  0.2240 -0.4932 -0.2423
 3785TIP3    H232915   1.519   1.087   1.724  0.0025 -0.8339 -1.5642
 3786TIP3   OH232916   0.477   5.160   0.579  0.6419  0.3704  0.2640
 3786TIP3    H132917   0.437   5.080   0.545 -1.7648  0.4851  2.5203
 3786TIP3    H232918   0.484   5.217   0.503  0.8034 -1.3398 -1.0724
 3787TIP3   OH232919   3.205   0.766   0.494  0.4840  0.4147 -0.3517
 3787TIP3    H132920   3.282   0.820   0.474  0.7434  0.9250  1.7106
 3787TIP3    H232921   3.139   0.829   0.523 -0.1790 -0.1529 -0.6021
 3788TIP3   OH232922   1.544   1.360   0.373 -0.1862 -0.0754 -0.0846
 3788TIP3    H132923   1.623   1.393   0.416  0.2328 -2.6871  1.3561
 3788TIP3    H232924   1.568   1.353   0.281  0.8858  0.2135  0.1555
 3789TIP3   OH232925   2.321   2.371   1.688 -0.4308 -0.1869 -0.1932
 3789TIP3    H132926   2.378   2.346   1.761  1.1543  1.5352 -0.7719
 3789TIP3    H232927   2.265   2.441   1.723  0.5817  0.8981 -0.6795
 3790TIP3   OH232928   0.718   4.952   2.774 -0.3073  0.1561  0.1033
 3790TIP3    H132929   0.806   4.972   2.740  1.2782 -1.6558  2.7737
 3790TIP3    H232930   0.704   5.017   2.842 -1.0946  0.4716 -0.3520
 3791TIP3   OH232931   5.249   4.770   2.467 -0.0136  0.6020 -0.0490
 3791TIP3    H132932   5.245   4.784   2.561 -0.9779  2.2989 -0.3062
 3791TIP3    H232933   5.171   4.719   2.447  0.2677  0.1149  0.0782
 3792TIP3   OH232934   4.381   5.083   1.751  0.0636 -0.4502  0.1376
 3792TIP3    H132935   4.382   5.142   1.676  0.0047 -0.1050  0.4023
 3792TIP3    H232936   4.409   5.138   1.825 -2.3036 -0.0920  0.8644
 3793TIP3   OH232937   3.385   0.879   1.303  0.0320  0.3512  0.0520
 3793TIP3    H132938   3.334   0.957   1.323  1.2505  1.2882 -0.3603
 3793TIP3    H232939   3.356   0.853   1.216 -0.9123 -0.1310  0.4889
 3794TIP3   OH232940   3.219   4.911   0.531 -0.0811 -0.8478 -0.0408
 3794TIP3    H132941   3.300   4.861   0.538  0.6617  0.5365  3.0135
 3794TIP3    H232942   3.235   4.991   0.581 -1.7004  1.8882 -3.4538
 3795TIP3   OH232943   4.014   0.743   7.664 -0.8032  0.1924  0.0540
 3795TIP3    H132944   3.926   0.737   7.626 -0.4545  0.9245 -0.9034
 3795TIP3    H232945   4.042   0.832   7.644  0.6685 -0.4287 -0.7812
 3796TIP3   OH232946   3.969   5.391   0.151 -0.0978  0.3975 -0.0765
 3796TIP3    H132947   3.995   5.313   0.102 -0.1768 -0.4809  1.2195
 3796TIP3    H232948   3.885   5.417   0.113 -1.2143 -1.5372  0.9329
 3797TIP3   OH232949   2.861   0.950   7.688 -0.1622 -0.2681  0.6577
 3797TIP3    H132950   2.773   0.988   7.693 -0.9679 -2.1372  1.7744
 3797TIP3    H232951   2.882   0.925   7.778  1.4978  0.0918  0.3977
 3798TIP3   OH232952   4.081   3.268   1.791 -0.3749  0.3771  0.2854
 3798TIP3    H132953   4.136   3.331   1.745  0.8141 -1.7135 -1.3582
 3798TIP3    H232954   4.122   3.257   1.876  0.4365  0.5464 -0.0783
 3799TIP3   OH232955   0.470   0.803   7.840  0.3335  0.3683 -0.3008
 3799TIP3    H132956   0.468   0.895   7.867 -1.3480  0.5545 -0.9565
 3799TIP3    H232957   0.550   0.795   7.787  1.5687  0.9360  1.3805
 3800TIP3   OH232958   3.344   5.707   1.422 -0.8457 -0.1301  0.5308
 3800TIP3    H132959   3.345   5.683   1.515 -0.1281 -1.5911  0.1791
 3800TIP3    H232960   3.251   5.705   1.399 -1.1320  1.2484  1.4298
 3801TIP3   OH232961   6.623   0.544   0.141 -0.1395  0.4308  0.4975
 3801TIP3    H132962   6.682   0.544   0.065  1.4994  1.3089  1.6868
 3801TIP3    H232963   6.600   0.452   0.153  2.2196 -0.1895  0.8335
 3802TIP3   OH232964   1.147   6.627   7.090  0.3541  0.1605 -0.2932
 3802TIP3    H132965   1.237   6.608   7.065 -0.4476 -1.1008 -2.4570
 3802TIP3    H232966   1.099   6.632   7.008 -1.7628 -0.2808  0.8407
 3803TIP3   OH232967   5.617   2.462   1.414  0.0649  0.3342  0.0829
 3803TIP3    H132968   5.574   2.479   1.330  0.9223  1.3230 -0.1797
 3803TIP3    H232969   5.708   2.441   1.391  0.3796  0.9026  0.7628
 3804TIP3   OH232970   4.245   2.713   2.070  0.2500  0.6056  0.1925
 3804TIP3    H132971   4.181   2.784   2.064 -0.0975  0.2526 -0.3491
 3804TIP3    H232972   4.256   2.698   2.164  0.4195  1.4534  0.3165
 3805TIP3   OH232973   3.789   4.470   6.787 -0.0635 -0.1985 -0.6097
 3805TIP3    H132974   3.782   4.376   6.771  0.3214 -0.0326 -1.8858
 3805TIP3    H232975   3.814   4.507   6.702 -0.3333  1.0716 -0.1631
 3806TIP3   OH232976   5.873   6.160   0.535  0.5207  0.3450 -0.1313
 3806TIP3    H132977   5.929   6.196   0.466 -0.3298  1.2330 -0.3756
 3806TIP3    H232978   5.922   6.175   0.616  1.0567  0.2386 -0.4290
 3807TIP3   OH232979   0.460   0.025   7.632  0.0995 -0.3416 -0.2331
 3807TIP3    H132980   0.457   0.043   7.726  1.2566 -0.9183 -0.0665
 3807TIP3    H232981   0.402   0.091   7.593  0.2300  0.4143  0.8045
 3808TIP3   OH232982   4.072   2.844   0.005  0.1817  0.4877  0.0874
 3808TIP3    H132983   4.086   2.874   0.095 -0.4509  0.9371  0.0453
 3808TIP3    H232984   4.119   2.761  -0.000  0.9994  0.9073  0.5580
 3809TIP3   OH232985   4.454   5.704   6.975 -0.0510 -0.4936 -0.3800
 3809TIP3    H132986   4.529   5.745   6.932  0.5308 -0.3824  0.7312
 3809TIP3    H232987   4.484   5.682   7.063 -1.8374  1.3164  0.7907
 3810TIP3   OH232988   0.709   3.937   7.706  0.2150 -0.4233  0.1872
 3810TIP3    H132989   0.767   3.961   7.779 -0.0053  0.5321  0.0622
 3810TIP3    H232990   0.679   4.021   7.671  0.6934 -0.8432 -1.3134
 3811TIP3   OH232991   2.942   3.299   2.404  0.4448  0.1591 -0.0409
 3811TIP3    H132992   2.987   3.260   2.329 -3.1715 -1.7831 -1.4411
 3811TIP3    H232993   2.923   3.389   2.377  1.0729  0.1509 -0.5208
 3812TIP3   OH232994   4.149   5.084   6.790  0.1105  0.0599 -0.1611
 3812TIP3    H132995   4.067   5.133   6.789  0.1986  0.2172 -1.1860
 3812TIP3    H232996   4.216   5.152   6.800  0.1391 -0.0376  0.3376
 3813TIP3   OH232997   4.443   1.489   1.424 -0.1735  0.1298  0.4405
 3813TIP3    H132998   4.360   1.537   1.433  0.2863  0.9430  0.4100
 3813TIP3    H232999   4.497   1.522   1.496  0.3201 -0.0001  0.1299
 3814TIP3   OH233000   6.240   5.410   7.122 -0.3481  0.7907  0.1258
 3814TIP3    H133001   6.224   5.315   7.122  0.0842  0.7164  0.2067
 3814TIP3    H233002   6.173   5.445   7.063  0.2408  0.3033 -0.8519
 3815TIP3   OH233003   6.691   6.186   2.715 -0.4955 -0.3265 -0.3701
 3815TIP3    H133004   6.741   6.236   2.650 -0.7573  1.3790  0.6685
 3815TIP3    H233005   6.756   6.162   2.782 -0.8975  1.3944  0.6927
 3816TIP3   OH233006   2.282   3.674   0.157 -0.0147  0.3899 -0.0656
 3816TIP3    H133007   2.245   3.644   0.240 -2.3993  1.1020 -0.7820
 3816TIP3    H233008   2.304   3.594   0.110 -1.1054 -0.1079  0.2377
 3817TIP3   OH233009   4.457   3.224   2.565  0.0560  0.2161 -0.3002
 3817TIP3    H133010   4.424   3.139   2.593 -1.1032  0.8574  0.3524
 3817TIP3    H233011   4.520   3.249   2.634 -0.5564  0.4483  0.1832
 3818TIP3   OH233012   6.549   3.087   2.443 -0.2635  0.5387  0.6602
 3818TIP3    H133013   6.485   3.020   2.418  0.0075 -0.2946  2.0831
 3818TIP3    H233014   6.596   3.106   2.362 -2.2635  1.1515 -0.4164
 3819TIP3   OH233015   5.934   5.028   3.292  0.1068  0.3123  0.0074
 3819TIP3    H133016   5.930   5.113   3.248  0.0230 -0.5019 -1.6726
 3819TIP3    H233017   5.990   4.975   3.235  1.9058 -0.1874  2.0993
 3820TIP3   OH233018   4.881   4.714   0.346 -0.1185 -0.0126 -0.2882
 3820TIP3    H133019   4.798   4.672   0.365 -0.5142 -0.9242 -3.4369
 3820TIP3    H233020   4.933   4.647   0.303  0.6230  1.6509 -2.1536
 3821TIP3   OH233021   2.168   2.303   1.472  0.0597  0.8674 -0.0687
 3821TIP3    H133022   2.209   2.332   1.554 -1.0784  0.0440  0.8310
 3821TIP3    H233023   2.233   2.246   1.432  0.4119  0.8234  0.5504
 3822TIP3   OH233024   2.990   6.667   1.528 -0.0634  0.6003  0.2766
 3822TIP3    H133025   3.083   6.667   1.505 -0.0379  0.6802  0.3834
 3822TIP3    H233026   2.988   6.646   1.621 -0.1862 -0.1456  0.1186
 3823TIP3   OH233027   1.504   3.547   2.368  0.2445 -0.0531  0.0695
 3823TIP3    H133028   1.432   3.606   2.391  1.2030  0.4710  1.9099
 3823TIP3    H233029   1.583   3.593   2.397  1.4062 -0.4248 -2.2416
 3824TIP3   OH233030   0.451   2.906   0.395  0.1332 -0.8944  0.2580
 3824TIP3    H133031   0.455   2.918   0.300  2.2274  0.4869  0.4666
 3824TIP3    H233032   0.514   2.836   0.413  0.8914 -0.1025  0.7511
 3825TIP3   OH233033   4.573   1.281   2.448  0.1632  0.3850 -0.0476
 3825TIP3    H133034   4.571   1.355   2.508  0.2925  0.2394  0.1396
 3825TIP3    H233035   4.580   1.320   2.361  0.6606  0.5848  0.0756
 3826TIP3   OH233036   5.669   3.030   1.535 -0.0361  0.5594 -0.3988
 3826TIP3    H133037   5.611   2.962   1.501 -0.2215  0.1920  0.6067
 3826TIP3    H233038   5.749   2.984   1.561 -0.4096  0.5957  0.8904
 3827TIP3   OH233039   5.993   6.657   7.461  0.1051  0.4951 -0.2880
 3827TIP3    H133040   5.931   6.728   7.477 -0.4083  0.1415 -0.7090
 3827TIP3    H233041   5.984   6.600   7.538  0.0623  0.5496 -0.2522
 3828TIP3   OH233042   2.122   6.402   1.805 -0.0706 -0.2350  0.4540
 3828TIP3    H133043   2.174   6.355   1.870 -1.5279 -1.8009  0.5766
 3828TIP3    H233044   2.179   6.472   1.774  2.1155 -1.8584  0.5513
 3829TIP3   OH233045   2.067   6.092   1.909 -0.3324  0.2823 -0.0860
 3829TIP3    H133046   2.007   6.127   1.843  1.4250  0.0450 -1.9022
 3829TIP3    H233047   2.024   6.013   1.941 -0.9512  0.0666 -1.3943
 3830TIP3   OH233048   6.248   3.503   7.732 -0.3042  0.3111  0.3612
 3830TIP3    H133049   6.343   3.507   7.743 -0.1753  0.9170 -0.8022
 3830TIP3    H233050   6.215   3.474   7.818  1.0785 -2.3233  0.1255
 3831TIP3   OH233051   0.726   2.082   2.212 -0.4729 -0.8997  0.2477
 3831TIP3    H133052   0.665   2.154   2.224 -0.0418 -0.4524 -0.1783
 3831TIP3    H233053   0.813   2.123   2.212 -0.2731 -1.2463 -1.1688
 3832TIP3   OH233054   0.987   4.187   7.705  0.7263  0.2686  0.4288
 3832TIP3    H133055   1.052   4.127   7.667  1.7353  0.5962  1.5824
 3832TIP3    H233056   1.022   4.208   7.791 -0.8765  0.5623  1.0275
 3833TIP3   OH233057   0.132   4.524   0.224 -0.5033  0.3522 -0.7056
 3833TIP3    H133058   0.194   4.546   0.293 -0.1079 -0.5208 -0.7640
 3833TIP3    H233059   0.048   4.555   0.256 -0.3916 -0.3835  0.3513
 3834TIP3   OH233060   6.817   1.600   1.591 -0.7773 -0.0346 -0.2630
 3834TIP3    H133061   6.858   1.661   1.529 -0.2696 -0.1776 -0.0733
 3834TIP3    H233062   6.880   1.529   1.600 -1.4687 -0.7091 -0.6554
 3835TIP3   OH233063   1.597   0.887   0.800  0.5778  0.5657  0.5520
 3835TIP3    H133064   1.626   0.976   0.823 -1.3833  1.6264 -0.7745
 3835TIP3    H233065   1.605   0.838   0.881  2.8447  1.6134  1.0388
 3836TIP3   OH233066   4.846   0.397   7.616  0.4941 -0.1282  0.6022
 3836TIP3    H133067   4.879   0.315   7.654  0.4989  0.2670  1.4823
 3836TIP3    H233068   4.787   0.431   7.683  0.1993  0.3949  0.0718
 3837TIP3   OH233069   1.616   2.495   1.112  0.1876 -0.5237 -0.4771
 3837TIP3    H133070   1.575   2.414   1.142 -0.1879 -0.5982 -1.1634
 3837TIP3    H233071   1.709   2.485   1.133 -0.2235 -0.0520  1.7289
 3838TIP3   OH233072   4.717   5.886   0.673 -0.0917 -0.0047  0.0559
 3838TIP3    H133073   4.716   5.912   0.581 -0.5258  0.1279  0.0932
 3838TIP3    H233074   4.806   5.857   0.689  0.1962  0.7276 -0.1930
 3839TIP3   OH233075   2.612   3.235   0.828  0.3331  0.4695 -0.3418
 3839TIP3    H133076   2.639   3.195   0.911 -2.0830  0.7833  0.7041
 3839TIP3    H233077   2.535   3.184   0.802  0.7323  0.7285 -2.1271
 3840TIP3   OH233078   5.667   3.379   2.020 -0.2707 -0.0546 -0.0225
 3840TIP3    H133079   5.717   3.388   1.939  0.8930  2.6903  0.8686
 3840TIP3    H233080   5.733   3.353   2.086 -0.1320  2.4471  0.9264
 3841TIP3   OH233081   5.871   6.530   0.890 -0.1429  0.9103  0.3019
 3841TIP3    H133082   5.961   6.506   0.870  0.4446  2.1546  1.3393
 3841TIP3    H233083   5.829   6.540   0.804  0.5808 -0.0657 -0.1824
 3842TIP3   OH233084   4.722   3.902   7.498  0.0872 -0.0865 -0.0400
 3842TIP3    H133085   4.655   3.934   7.437 -0.6957 -1.6980 -0.0866
 3842TIP3    H233086   4.677   3.836   7.549  0.7023  1.2714  2.3964
 3843TIP3   OH233087   1.437   3.964   0.630  0.1437 -0.6541  0.6334
 3843TIP3    H133088   1.515   4.019   0.617  0.6172 -1.2220  1.0114
 3843TIP3    H233089   1.365   4.026   0.636  0.6406 -0.0789  0.8104
 3844TIP3   OH233090   5.889   1.930   1.397 -0.2392 -0.4072 -0.0165
 3844TIP3    H133091   5.911   1.837   1.398 -3.5273 -1.3265 -0.8304
 3844TIP3    H233092   5.822   1.939   1.464 -1.1412  0.9977 -1.0489
 3845TIP3   OH233093   0.122   1.301   7.152  0.0620  0.5732 -0.2949
 3845TIP3    H133094   0.088   1.388   7.130  0.5440  0.8331 -0.0166
 3845TIP3    H233095   0.124   1.300   7.247 -1.3830 -0.3029 -0.2464
 3846TIP3   OH233096   5.075   2.894   1.644  0.6705 -0.6874 -0.2732
 3846TIP3    H133097   5.134   2.879   1.570  1.6808  1.0125  0.1252
 3846TIP3    H233098   5.128   2.944   1.706 -0.3900 -1.4411  1.2895
 3847TIP3   OH233099   2.902   0.265   8.138  0.2494  0.0877 -0.0545
 3847TIP3    H133100   2.933   0.258   8.228 -1.4945  0.1063  0.5801
 3847TIP3    H233101   2.842   0.340   8.139 -0.2070 -0.2426 -1.1032
 3848TIP3   OH233102   1.592   0.128   1.937  0.0525  0.0368 -0.2982
 3848TIP3    H133103   1.563   0.172   1.857 -1.1371 -2.3585 -1.2709
 3848TIP3    H233104   1.552   0.179   2.008 -0.0297  1.3779 -1.2735
 3849TIP3   OH233105   0.249   1.043   0.218  0.7268 -0.3257  0.2851
 3849TIP3    H133106   0.231   1.136   0.233  0.8843 -0.2389 -0.0613
 3849TIP3    H233107   0.327   1.025   0.271 -0.5179 -0.7817  2.0410
 3850TIP3   OH233108   1.522   5.590   2.849 -0.5711 -0.4464 -0.1149
 3850TIP3    H133109   1.498   5.574   2.940 -0.8411 -0.8395 -0.2542
 3850TIP3    H233110   1.566   5.675   2.850 -2.2774  0.4732  0.0912
 3851TIP3   OH233111   0.983   4.157   0.796  0.1080  0.1681  0.3850
 3851TIP3    H133112   0.905   4.102   0.792  1.1625 -1.3202 -0.6589
 3851TIP3    H233113   1.025   4.135   0.879 -1.9241  3.0359  2.3960
 3852TIP3   OH233114   6.563   0.620   7.987 -0.3003  0.2584 -0.2209
 3852TIP3    H133115   6.553   0.610   7.892 -0.6897 -0.2351 -0.1325
 3852TIP3    H233116   6.499   0.560   8.024 -2.5276  2.7806  0.3504
 3853TIP3   OH233117   3.816   1.079   0.174 -0.7006  0.1213  0.0995
 3853TIP3    H133118   3.727   1.099   0.201 -0.4691  0.5063  0.5786
 3853TIP3    H233119   3.868   1.155   0.200 -0.6505  1.0717 -2.4436
 3854TIP3   OH233120   4.102   2.210   8.540 -0.0341 -0.1211  0.4095
 3854TIP3    H133121   4.048   2.274   8.586  0.0015  1.6479 -1.8537
 3854TIP3    H233122   4.153   2.167   8.609  0.7160  3.0122  1.9593
 3855TIP3   OH233123   5.679   1.701   0.306 -0.3676  0.2002 -0.2677
 3855TIP3    H133124   5.647   1.776   0.357  1.8013  0.7299  0.4263
 3855TIP3    H233125   5.731   1.741   0.236  0.0617 -0.6233 -0.4247
 3856TIP3   OH233126   2.915   2.922   1.517  0.1314 -0.7012  0.2649
 3856TIP3    H133127   2.967   2.877   1.451  0.4355 -1.4406  0.9871
 3856TIP3    H233128   2.853   2.855   1.549 -0.2946 -0.2373  0.4290
 3857TIP3   OH233129   2.811   4.789   0.260  0.6535 -0.1783 -0.7177
 3857TIP3    H133130   2.862   4.803   0.180  1.8123 -0.5451 -0.0729
 3857TIP3    H233131   2.874   4.804   0.330 -0.5094  0.8082  0.1553
 3858TIP3   OH233132   5.948   0.262   7.952 -0.3601 -0.5047 -0.5017
 3858TIP3    H133133   5.921   0.349   7.923  0.4828 -0.0691 -0.0054
 3858TIP3    H233134   5.989   0.223   7.875  2.9033  1.0764  0.2982
 3859TIP3   OH233135   0.803   1.233   0.884 -0.2135  0.7191 -0.1160
 3859TIP3    H133136   0.891   1.195   0.880 -1.3213 -2.1921  0.5627
 3859TIP3    H233137   0.798   1.290   0.807  1.2550 -1.4886 -1.9901
 3860TIP3   OH233138   6.303   4.527   2.338 -0.2522 -0.1904  0.1886
 3860TIP3    H133139   6.217   4.565   2.319 -0.8804 -2.2206 -1.3685
 3860TIP3    H233140   6.308   4.526   2.433 -2.4070 -0.8830  0.3517
 3861TIP3   OH233141   0.400   6.001   1.292  0.1824 -0.2381  0.0285
 3861TIP3    H133142   0.304   6.000   1.289  0.1903  0.0549 -0.4573
 3861TIP3    H233143   0.422   5.960   1.375 -0.3596 -0.5724  0.0096
 3862TIP3   OH233144   4.068   2.117   8.290 -0.3143  0.0252  0.0302
 3862TIP3    H133145   4.148   2.161   8.260 -2.0393  1.7171 -2.3738
 3862TIP3    H233146   4.057   2.147   8.380  1.3229  0.3677  0.1446
 3863TIP3   OH233147   4.942   1.008   0.199 -0.0196 -0.0146  0.0319
 3863TIP3    H133148   5.034   1.018   0.226 -0.1645  2.3005 -0.1916
 3863TIP3    H233149   4.944   1.018   0.104 -0.3252 -1.6900 -0.1767
 3864TIP3   OH233150   1.448   6.788   1.763 -0.2573  0.6224 -0.1905
 3864TIP3    H133151   1.475   6.813   1.852 -0.6515  0.0209  0.0999
 3864TIP3    H233152   1.530   6.766   1.719 -0.0713  0.8238  0.0516
 3865TIP3   OH233153   1.373   0.050   7.064 -0.1127 -0.2397  0.5653
 3865TIP3    H133154   1.397  -0.041   7.082 -1.5508 -0.6644  0.4214
 3865TIP3    H233155   1.406   0.066   6.976  0.5806 -0.4524  0.7752
 3866TIP3   OH233156   1.660   6.674   2.483 -0.1557  1.1398  0.2681
 3866TIP3    H133157   1.731   6.662   2.546  0.0357  0.8063 -0.0073
 3866TIP3    H233158   1.633   6.585   2.460  0.8248  1.2059 -1.3028
 3867TIP3   OH233159   1.328   2.678   1.801  0.4258  0.0189 -0.1342
 3867TIP3    H133160   1.334   2.730   1.721  1.1811 -1.2668 -0.9541
 3867TIP3    H233161   1.238   2.688   1.830  0.0841  0.3423 -1.2718
 3868TIP3   OH233162   5.008   0.010   7.504  0.4492  0.0493  0.3317
 3868TIP3    H133163   4.928  -0.020   7.459  0.8715 -0.0026 -0.4041
 3868TIP3    H233164   5.019   0.100   7.475  0.1703  0.3592  1.1482
 3869TIP3   OH233165   2.970   5.734   2.775 -0.6380  0.2045  0.1881
 3869TIP3    H133166   2.940   5.651   2.739 -0.4126 -0.6886  1.9467
 3869TIP3    H233167   3.065   5.728   2.774 -0.5882  0.9345 -0.7234
 3870TIP3   OH233168   2.222   1.822   0.155  0.0758 -0.1929 -0.7307
 3870TIP3    H133169   2.188   1.752   0.211  0.9610 -0.3318 -0.3413
 3870TIP3    H233170   2.306   1.788   0.124  0.2501  0.4701 -0.9987
 3871TIP3   OH233171   0.230   0.833   1.866 -0.3750  0.0179 -0.4542
 3871TIP3    H133172   0.234   0.757   1.924  0.8995  1.8047  1.9424
 3871TIP3    H233173   0.288   0.810   1.793  2.0497 -0.3681  1.4886
 3872TIP3   OH233174   5.318   6.170   0.636  0.2600 -0.1976 -0.1831
 3872TIP3    H133175   5.257   6.116   0.686 -0.1291 -0.1023 -0.5477
 3872TIP3    H233176   5.333   6.121   0.555  1.9773 -1.0320  0.5752
 3873TIP3   OH233177   2.891   5.405   1.920  0.5481  0.4701 -0.0634
 3873TIP3    H133178   2.872   5.464   1.993 -0.7637 -1.4535  1.2312
 3873TIP3    H233179   2.982   5.425   1.897  0.8565  1.4443  1.7810
 3874TIP3   OH233180   2.257   4.436   7.438  0.9245 -0.1789 -0.2284
 3874TIP3    H133181   2.229   4.527   7.438  1.3388 -0.0348  0.9448
 3874TIP3    H233182   2.351   4.439   7.420  0.9420 -0.3781 -0.1760
 3875TIP3   OH233183   3.175   3.537   0.936 -0.7811 -0.3740 -0.0725
 3875TIP3    H133184   3.146   3.487   0.860  0.7038  0.2340 -1.0941
 3875TIP3    H233185   3.095   3.561   0.982 -1.6500 -1.5831 -0.9055
 3876TIP3   OH233186   1.777   5.398   2.107 -0.2153 -0.4013  0.1194
 3876TIP3    H133187   1.757   5.445   2.026 -2.3371 -0.0225  0.8233
 3876TIP3    H233188   1.837   5.329   2.079 -1.9706 -1.1624 -2.0408
 3877TIP3   OH233189   3.341   5.047   1.137  0.0026 -0.9356  0.4478
 3877TIP3    H133190   3.364   5.075   1.226  0.7493 -1.2056  0.3457
 3877TIP3    H233191   3.425   5.044   1.091 -0.6402  2.3534 -1.2186
 3878TIP3   OH233192   0.692   1.243   1.355 -0.1438  0.4175 -0.1604
 3878TIP3    H133193   0.680   1.229   1.449  1.2340  1.1830  0.1524
 3878TIP3    H233194   0.673   1.157   1.316 -1.5524  0.3024  0.7150
 3879TIP3   OH233195   5.466   4.145   2.831  0.0303 -0.3361 -0.0074
 3879TIP3    H133196   5.546   4.159   2.881  0.0673 -0.6005  0.0075
 3879TIP3    H233197   5.405   4.104   2.892  0.5218 -1.9273 -0.5209
 3880TIP3   OH233198   1.509   3.898   7.685 -0.1518 -0.4576  0.1937
 3880TIP3    H133199   1.435   3.861   7.734  0.7506 -2.9109 -0.1327
 3880TIP3    H233200   1.573   3.921   7.752 -0.5061 -0.0041  0.3784
 3881TIP3   OH233201   5.001   2.211   2.443 -0.3461 -0.0555  0.0865
 3881TIP3    H133202   5.013   2.214   2.538 -0.8796  1.0050  0.1403
 3881TIP3    H233203   5.031   2.296   2.412 -2.3705  0.5493 -0.3995
 3882TIP3   OH233204   2.417   0.511   7.935  0.5369 -0.4332  0.0940
 3882TIP3    H133205   2.478   0.503   7.862  0.8698 -0.8653  0.4098
 3882TIP3    H233206   2.353   0.442   7.920  1.4434 -1.5121  0.9782
 3883TIP3   OH233207   0.019   4.700   2.749 -0.4663 -0.0744 -0.2903
 3883TIP3    H133208   0.055   4.788   2.740 -0.8018 -0.0381 -1.6338
 3883TIP3    H233209  -0.035   4.704   2.828 -0.2068  0.8319 -0.1438
 3884TIP3   OH233210   0.510   2.125   1.262 -0.2438 -0.7679  0.2329
 3884TIP3    H133211   0.492   2.035   1.289 -1.8648 -0.3097  0.7920
 3884TIP3    H233212   0.605   2.129   1.254 -0.1587 -2.6200 -0.1610
 3885TIP3   OH233213   0.307   4.613   2.705 -0.2374 -0.3831  0.4388
 3885TIP3    H133214   0.221   4.632   2.744 -1.7261 -1.9471 -1.8480
 3885TIP3    H233215   0.369   4.657   2.763 -2.6937  3.1656  0.7587
 3886TIP3   OH233216   3.447   3.542   0.086 -0.0478 -0.2331 -0.1731
 3886TIP3    H133217   3.408   3.565   0.170 -0.3123  0.7792 -0.5571
 3886TIP3    H233218   3.373   3.519   0.030  0.1588 -1.3186 -0.0223
 3887TIP3   OH233219   0.793   1.987   8.052 -0.0310 -0.2349 -0.2209
 3887TIP3    H133220   0.888   1.989   8.037 -0.0396 -1.9893 -0.6487
 3887TIP3    H233221   0.775   1.899   8.085 -1.4799  0.1734  0.1674
 3888TIP3   OH233222   5.113   4.355   2.804 -1.0236  0.6679  0.2736
 3888TIP3    H133223   5.147   4.390   2.886 -0.8201 -0.3156  0.6313
 3888TIP3    H233224   5.079   4.431   2.757 -1.2448  1.2316  1.3109
 3889TIP3   OH233225   3.021   0.229   2.134 -0.0956  0.2148  0.3691
 3889TIP3    H133226   3.051   0.141   2.113  1.7755  0.8925 -0.0299
 3889TIP3    H233227   3.101   0.278   2.153 -1.1908  1.4864  2.0086
 3890TIP3   OH233228   5.649   4.424   8.134  0.0916 -0.2655 -0.2446
 3890TIP3    H133229   5.643   4.385   8.221  0.9337 -4.5552 -1.8934
 3890TIP3    H233230   5.739   4.456   8.128  0.5102 -1.3837 -0.0508
 3891TIP3   OH233231   2.801   1.840   2.987 -0.0367  0.0005 -0.1038
 3891TIP3    H133232   2.849   1.906   2.937  0.5134 -0.2901  0.0300
 3891TIP3    H233233   2.789   1.767   2.926  0.2220 -0.1661  0.0418
 3892TIP3   OH233234   4.640   3.378   8.190  0.1963 -0.2861  0.1517
 3892TIP3    H133235   4.547   3.400   8.200 -0.2271 -0.1328 -3.0649
 3892TIP3    H233236   4.677   3.451   8.140  1.7642 -0.9527  0.2618
 3893TIP3   OH233237   2.278   2.642   0.262 -0.2212  0.0495 -0.1936
 3893TIP3    H133238   2.211   2.710   0.247  1.1475  1.6420  0.5243
 3893TIP3    H233239   2.271   2.584   0.187 -0.6259  1.7151 -1.5161
 3894TIP3   OH233240   1.626   1.370   0.054  0.4406  0.2741  0.3812
 3894TIP3    H133241   1.581   1.445   0.016  0.4538  0.8810  1.5154
 3894TIP3    H233242   1.612   1.299  -0.009 -0.9679  0.7959  0.0773
 3895TIP3   OH233243   4.032   0.428   0.888 -0.5019  0.3151  0.0063
 3895TIP3    H133244   4.067   0.483   0.818  0.7977 -0.0849  0.3172
 3895TIP3    H233245   4.081   0.347   0.882 -1.8540 -0.5488  0.0560
 3896TIP3   OH233246   4.341   0.751   8.315 -0.1584 -0.1220  0.3015
 3896TIP3    H133247   4.299   0.807   8.250 -2.6260 -0.4589  1.4823
 3896TIP3    H233248   4.340   0.663   8.276 -0.0430 -0.0256  0.0845
 3897TIP3   OH233249   6.777   3.047   2.606  0.4167 -0.3243  0.2514
 3897TIP3    H133250   6.729   3.022   2.685  0.2789  0.7571  0.5234
 3897TIP3    H233251   6.710   3.050   2.538  0.3900 -0.4562  0.2714
 3898TIP3   OH233252   6.524   3.308   0.009 -0.2374  0.1413 -0.2190
 3898TIP3    H133253   6.495   3.327  -0.081  3.6267  1.8237 -1.3275
 3898TIP3    H233254   6.568   3.388   0.038 -2.6443  0.2186  3.9219
 3899TIP3   OH233255   6.322   5.598   0.841  0.2298  0.3321 -0.2806
 3899TIP3    H133256   6.300   5.609   0.748  1.9153  1.4755 -0.5926
 3899TIP3    H233257   6.401   5.651   0.853  1.8680 -2.2287  1.0965
 3900TIP3   OH233258   0.757   4.226   1.005  0.6980 -0.6754  0.1029
 3900TIP3    H133259   0.723   4.137   1.012 -1.9435  0.3723  3.2258
 3900TIP3    H233260   0.730   4.255   0.918 -1.4910 -1.8657  0.3111
 3901TIP3   OH233261   2.335   0.462   1.076 -0.0932  0.0544  0.2505
 3901TIP3    H133262   2.284   0.381   1.082 -0.8983  0.5710  0.5785
 3901TIP3    H233263   2.420   0.435   1.040 -0.5322 -0.8512 -0.1329
 3902TIP3   OH233264   1.225   4.821   7.344 -0.1642  0.4563 -0.1710
 3902TIP3    H133265   1.163   4.790   7.278 -0.2228 -0.6137  0.3713
 3902TIP3    H233266   1.172   4.830   7.423  0.3066 -0.1777  0.2205
 3903TIP3   OH233267   4.509   5.106   0.809 -0.9961  0.4533  0.3419
 3903TIP3    H133268   4.506   5.101   0.714  0.5491 -0.4046  0.3031
 3903TIP3    H233269   4.457   5.032   0.840 -1.1208  0.4664  0.1572
 3904TIP3   OH233270   6.458   4.297   8.625  0.1615 -0.2227  0.1890
 3904TIP3    H133271   6.448   4.273   8.532  0.2287 -1.3452  0.4528
 3904TIP3    H233272   6.552   4.300   8.639  0.1515  0.1559  0.1687
 3905TIP3   OH233273   0.325   3.124   8.740 -0.2963  0.2351 -0.1714
 3905TIP3    H133274   0.346   3.214   8.766 -0.9150  0.0680  0.9641
 3905TIP3    H233275   0.241   3.132   8.694 -0.6094  0.1685  0.3911
 3906TIP3   OH233276   6.074   2.596   0.992  0.0557 -0.3616  0.1793
 3906TIP3    H133277   6.067   2.510   0.950  0.5436  0.2896 -1.3121
 3906TIP3    H233278   5.987   2.635   0.981  0.5342  0.3383 -1.5306
 3907TIP3   OH233279   2.673   5.366   7.514 -0.2378  0.5295  0.2158
 3907TIP3    H133280   2.697   5.455   7.537 -1.0120  0.5853  0.8652
 3907TIP3    H233281   2.632   5.373   7.428  1.7749  0.4586 -0.8225
 3908TIP3   OH233282   0.727   0.283   0.334  0.4461 -0.2667 -0.7543
 3908TIP3    H133283   0.771   0.358   0.293  0.4244  1.7022  2.5159
 3908TIP3    H233284   0.789   0.211   0.324  2.0324  1.0717 -0.9792
 3909TIP3   OH233285   0.922   4.178   0.513 -0.1507 -0.8038  0.2191
 3909TIP3    H133286   0.930   4.185   0.608 -2.0718  0.7145  0.3353
 3909TIP3    H233287   0.956   4.261   0.480  1.0167 -1.5397 -0.4903
 3910TIP3   OH233288   4.470   0.560   7.971  0.3651 -0.1615 -0.5226
 3910TIP3    H133289   4.402   0.576   8.037  1.9418  1.7291  0.7531
 3910TIP3    H233290   4.425   0.575   7.888 -0.8904  0.7042  0.2590
 3911TIP3   OH233291   5.638   6.660   6.908 -0.6285 -0.2495  0.1949
 3911TIP3    H133292   5.624   6.754   6.897  2.9209  0.2218 -1.4186
 3911TIP3    H233293   5.576   6.620   6.846 -2.3316  0.9134  1.0449
 3912TIP3   OH233294   4.621   2.812   3.096  0.3073 -1.3824 -0.1447
 3912TIP3    H133295   4.685   2.870   3.055  1.1856 -1.6825  0.7785
 3912TIP3    H233296   4.672   2.759   3.158 -0.9463 -1.0558  1.2178
 3913TIP3   OH233297   3.442   2.132   0.884  0.1363 -0.2785  0.0631
 3913TIP3    H133298   3.509   2.128   0.816  0.6198 -0.6922  0.5575
 3913TIP3    H233299   3.392   2.051   0.873 -0.1719 -0.0579 -0.1854
 3914TIP3   OH233300   5.524   4.533   0.133  0.3559  0.3278  0.3304
 3914TIP3    H133301   5.615   4.561   0.128 -0.1725  1.9605 -1.6712
 3914TIP3    H233302   5.528   4.438   0.134  2.0706  0.3457 -0.9723
 3915TIP3   OH233303   4.912   4.401   8.347 -0.0384  0.2275  0.3185
 3915TIP3    H133304   4.821   4.406   8.319 -0.4386 -0.2461  1.4732
 3915TIP3    H233305   4.951   4.335   8.289 -0.2487  0.8909 -0.5994
 3916TIP3   OH233306   4.206   2.028   7.482  0.3267  0.0450  0.0530
 3916TIP3    H133307   4.205   2.124   7.485  0.8532  0.1650 -2.1567
 3916TIP3    H233308   4.276   2.006   7.421 -1.3793 -1.6357 -1.4479
 3917TIP3   OH233309   5.518   2.133   8.199  0.2866  0.4075 -0.0597
 3917TIP3    H133310   5.525   2.129   8.104  0.2452  1.2448 -0.1050
 3917TIP3    H233311   5.547   2.221   8.222  0.8719  0.0217  0.7575
 3918TIP3   OH233312   5.454   1.647   2.589  0.0212 -0.2309  0.1013
 3918TIP3    H133313   5.419   1.698   2.661  0.2849 -1.9332  1.5245
 3918TIP3    H233314   5.548   1.638   2.609  1.0909  2.7634 -2.6992
 3919TIP3   OH233315   1.987   5.864   1.249  0.0480  0.1470  0.0699
 3919TIP3    H133316   2.069   5.826   1.217  0.3176  0.2912  0.5774
 3919TIP3    H233317   1.920   5.825   1.193  0.4906  0.2807 -0.5798
 3920TIP3   OH233318   4.311   2.987   2.632  0.7933 -0.1622 -0.4083
 3920TIP3    H133319   4.308   2.920   2.700  2.6842  2.2484  2.2708
 3920TIP3    H233320   4.228   2.977   2.585  0.7121 -3.8672  0.2008
 3921TIP3   OH233321   3.544   5.378   7.149 -0.2757  0.0637  0.4107
 3921TIP3    H133322   3.586   5.308   7.098 -2.0729 -1.4941  0.9598
 3921TIP3    H233323   3.455   5.348   7.162 -0.4471  1.3738  2.7464
 3922TIP3   OH233324   2.160   1.714   1.542 -0.0261 -0.3225 -0.3040
 3922TIP3    H133325   2.171   1.686   1.633  0.3351  2.2000  0.5188
 3922TIP3    H233326   2.244   1.694   1.501  1.0042  1.3770  0.8289
 3923TIP3   OH233327   5.381   6.763   1.222 -0.5202 -0.2717  0.2526
 3923TIP3    H133328   5.423   6.760   1.136  0.1217  0.6471  0.5129
 3923TIP3    H233329   5.289   6.744   1.204  0.0255 -2.6343 -0.2846
 3924TIP3   OH233330   6.407   4.740   8.544 -0.2880 -0.5692  0.2407
 3924TIP3    H133331   6.403   4.750   8.639  1.9294  0.4530  0.2849
 3924TIP3    H233332   6.316   4.722   8.519 -0.9596 -0.7546  2.5167
 3925TIP3   OH233333   2.636   2.899   1.671 -0.6876  0.4249  0.2922
 3925TIP3    H133334   2.657   2.814   1.634 -0.2347  0.8080 -0.3604
 3925TIP3    H233335   2.581   2.880   1.747  1.1916 -0.5792  1.4887
 3926TIP3   OH233336   2.547   0.040   8.324  0.0348  0.6963 -0.3299
 3926TIP3    H133337   2.458   0.036   8.359  0.0886 -0.0203 -0.2625
 3926TIP3    H233338   2.576   0.129   8.343 -1.0091  1.2418 -1.2068
 3927TIP3   OH233339   0.833   0.742   8.674 -0.4920 -0.1332  0.8760
 3927TIP3    H133340   0.928   0.732   8.671 -0.2545  1.7784  0.3480
 3927TIP3    H233341   0.801   0.687   8.603  0.5373  1.6655 -1.0968
 3928TIP3   OH233342   4.239   5.861   0.106 -0.5020  0.0236  0.0413
 3928TIP3    H133343   4.201   5.814   0.180 -1.8737  0.3639 -0.4095
 3928TIP3    H233344   4.239   5.953   0.134  3.8011 -0.2362  1.6379
 3929TIP3   OH233345   6.600   4.137   8.430 -0.0870 -0.8003 -0.1046
 3929TIP3    H133346   6.656   4.139   8.507  0.1390 -2.1015 -0.2096
 3929TIP3    H233347   6.653   4.092   8.364 -0.1232  0.6356 -1.1578
 3930TIP3   OH233348   5.943   0.694   1.516 -0.4226  0.1636  0.1329
 3930TIP3    H133349   5.946   0.763   1.582 -0.0791 -1.1009  1.4877
 3930TIP3    H233350   5.927   0.614   1.565  0.1031 -0.8648 -1.2926
 3931TIP3   OH233351   1.816   4.002   7.170  0.2190  0.1723 -0.0843
 3931TIP3    H133352   1.768   4.080   7.197 -0.2339  0.2306 -1.0104
 3931TIP3    H233353   1.903   4.012   7.207 -0.3770  0.2274  1.3625
 3932TIP3   OH233354   2.709   4.877   2.158 -0.6229  0.0450 -0.3714
 3932TIP3    H133355   2.706   4.948   2.093  0.7294  0.7258  0.2586
 3932TIP3    H233356   2.665   4.913   2.235 -0.0098  0.1859 -0.0801
 3933TIP3   OH233357   5.197   6.728   0.982 -0.0772  0.2715 -0.9155
 3933TIP3    H133358   5.222   6.752   0.893 -2.5209 -0.0930 -1.7941
 3933TIP3    H233359   5.126   6.789   1.004  0.8673  0.7332  1.0356
 3934TIP3   OH233360   0.312   0.235   8.200 -0.0383 -0.3396  0.1598
 3934TIP3    H133361   0.378   0.227   8.131 -0.5632 -1.0138 -0.2698
 3934TIP3    H233362   0.312   0.149   8.243  0.0638 -0.0246  0.7993
 3935TIP3   OH233363   4.358   3.213   7.564 -0.2610 -0.3199  0.2287
 3935TIP3    H133364   4.309   3.185   7.641 -1.0826  2.1424  0.6873
 3935TIP3    H233365   4.418   3.280   7.596  0.1162  0.0137 -1.1114
 3936TIP3   OH233366   4.240   3.917   7.902 -0.1606 -0.0989 -0.7986
 3936TIP3    H133367   4.171   3.981   7.919  1.3170  1.2215  0.6102
 3936TIP3    H233368   4.222   3.845   7.962  0.2079  0.6793  0.2647
 3937TIP3   OH233369   2.849   1.285   0.305  0.7494 -0.5217  0.2596
 3937TIP3    H133370   2.782   1.227   0.343  0.1792  0.5890  1.0248
 3937TIP3    H233371   2.800   1.341   0.245  1.2036 -0.4840 -0.0761
 3938TIP3   OH233372   0.021   4.937   7.639 -0.4591 -0.4340  0.6438
 3938TIP3    H133373   0.066   5.020   7.623 -0.2071 -1.0189 -2.4342
 3938TIP3    H233374   0.003   4.937   7.733  0.5757  2.5374  0.9633
 3939TIP3   OH233375   5.994   1.330   7.465  0.0938 -0.2064  0.3214
 3939TIP3    H133376   6.066   1.269   7.484 -1.1547 -1.5737  0.8669
 3939TIP3    H233377   6.019   1.411   7.510  0.7924 -1.0069  1.4335
 3940TIP3   OH233378   6.037   5.994   7.551  0.7261  0.1684 -0.3504
 3940TIP3    H133379   6.048   5.924   7.487 -1.0796 -1.1245  0.6721
 3940TIP3    H233380   6.065   5.956   7.634  0.9559  1.1055  0.0175
 3941TIP3   OH233381   4.698   1.919   8.724  0.2020  0.0441 -0.4854
 3941TIP3    H133382   4.717   1.848   8.663  1.7170 -0.6847  0.7537
 3941TIP3    H233383   4.619   1.960   8.690 -0.0548 -1.5080 -1.8745
 3942TIP3   OH233384   6.499   6.635   2.223  0.0806 -0.2186 -0.0443
 3942TIP3    H133385   6.500   6.608   2.315 -2.9258  1.5577  0.6576
 3942TIP3    H233386   6.417   6.601   2.189 -0.3886  1.8296 -1.1094
 3943TIP3   OH233387   4.267   3.450   1.704  0.2783  0.0334 -0.6027
 3943TIP3    H133388   4.352   3.493   1.695 -0.3386  1.2573 -0.8433
 3943TIP3    H233389   4.219   3.473   1.624  0.4008 -2.3336 -1.4452
 3944TIP3   OH233390   4.625   2.032   1.962  0.3535  0.1078 -0.2498
 3944TIP3    H133391   4.570   2.104   1.932 -1.4434 -0.1908  2.0431
 3944TIP3    H233392   4.709   2.073   1.982  0.4461  0.9125 -2.1007
 3945TIP3   OH233393   1.293   4.260   8.163 -0.0986  0.2553  0.3834
 3945TIP3    H133394   1.302   4.253   8.258  1.6157  0.3032  0.2519
 3945TIP3    H233395   1.380   4.285   8.132 -0.4961 -0.2420 -1.2501
 3946TIP3   OH233396   3.627   4.722   1.184 -0.1709 -0.0021 -0.0034
 3946TIP3    H133397   3.722   4.730   1.198  0.1557 -0.2429 -1.7841
 3946TIP3    H233398   3.609   4.784   1.113 -1.6800  1.3048  1.4359
 3947TIP3   OH233399   3.437   1.785   0.756  0.2124  0.1242  0.4605
 3947TIP3    H133400   3.387   1.710   0.722  1.0006 -1.0061  1.6873
 3947TIP3    H233401   3.485   1.817   0.680 -0.8355 -0.0286 -0.2938
 3948TIP3   OH233402   4.364   4.393   1.837 -0.2637 -0.3222 -0.1498
 3948TIP3    H133403   4.348   4.426   1.926 -1.0935  1.3494 -0.8793
 3948TIP3    H233404   4.330   4.304   1.838  0.4277 -0.6134  1.4065
 3949TIP3   OH233405   5.341   2.508   7.763 -0.2018 -0.5015  0.3072
 3949TIP3    H133406   5.298   2.426   7.735  0.1159 -1.4124  2.3245
 3949TIP3    H233407   5.405   2.481   7.829 -0.4018  1.4178  1.3708
 3950TIP3   OH233408   5.264   0.494   7.805  0.4803 -0.2404 -0.2600
 3950TIP3    H133409   5.309   0.565   7.851  1.1147 -0.2136 -0.9075
 3950TIP3    H233410   5.238   0.533   7.721  2.9738 -1.3824 -1.6853
 3951TIP3   OH233411   5.443   1.669   8.338 -0.0335  0.5459 -0.6520
 3951TIP3    H133412   5.433   1.697   8.247  0.6954  1.8680 -0.3529
 3951TIP3    H233413   5.354   1.677   8.375 -0.2683  0.3173 -1.1615
 3952TIP3   OH233414   6.590   4.526   0.589 -0.3659  0.4823  0.1808
 3952TIP3    H133415   6.622   4.573   0.512 -1.2097 -0.6329 -0.8877
 3952TIP3    H233416   6.626   4.575   0.663  1.7928  0.6740 -0.8986
 3953TIP3   OH233417   2.658   0.870   1.206  0.0001  0.8159 -0.1708
 3953TIP3    H133418   2.728   0.882   1.141  0.3006 -0.1147 -0.0425
 3953TIP3    H233419   2.649   0.955   1.248  3.0858  0.3373  1.8042
 3954TIP3   OH233420   5.356   2.596   8.553  0.1691 -0.0308 -0.0270
 3954TIP3    H133421   5.410   2.633   8.482  1.5672 -0.9342  0.5139
 3954TIP3    H233422   5.267   2.624   8.532  0.5558 -0.1052 -2.0596
 3955TIP3   OH233423   0.413   0.999   1.489  0.0906 -0.0729 -0.6362
 3955TIP3    H133424   0.317   0.996   1.493  0.1377 -0.8043  0.0368
 3955TIP3    H233425   0.437   0.924   1.435  0.4445 -2.5866  2.6419
 3956TIP3   OH233426   3.729   3.757   0.733 -0.7007  0.7446  0.4246
 3956TIP3    H133427   3.726   3.831   0.673  1.8101  1.9268  1.5936
 3956TIP3    H233428   3.722   3.796   0.820 -2.0245 -0.6952  1.0024
 3957TIP3   OH233429   2.835   0.145   6.947 -0.2710  0.1790 -0.4383
 3957TIP3    H133430   2.904   0.209   6.934 -0.9713  1.1910  0.5583
 3957TIP3    H233431   2.813   0.113   6.860  1.3722 -0.0974 -0.7702
 3958TIP3   OH233432   3.548   0.231   1.798  0.6951  0.5709 -0.7482
 3958TIP3    H133433   3.633   0.188   1.804  0.8995  0.9936 -0.5903
 3958TIP3    H233434   3.527   0.230   1.705  0.1556 -0.9020 -0.6499
 3959TIP3   OH233435   3.781   2.118   1.937 -0.5424 -0.1790  0.2486
 3959TIP3    H133436   3.692   2.154   1.942 -0.5716  0.0017 -1.2313
 3959TIP3    H233437   3.810   2.137   1.848 -0.2989 -3.2079 -0.4508
 3960TIP3   OH233438   0.183   1.965   0.537 -0.2461  0.0596 -0.2917
 3960TIP3    H133439   0.129   2.027   0.586 -1.8005 -0.4429 -1.2786
 3960TIP3    H233440   0.179   1.996   0.447 -0.1579 -0.8725 -0.6219
 3961TIP3   OH233441   6.434   5.162   8.211  0.0847  0.1476  0.3703
 3961TIP3    H133442   6.459   5.253   8.200 -1.0298  0.4075 -0.1198
 3961TIP3    H233443   6.342   5.165   8.239  0.1630 -0.8074  0.7908
 3962TIP3   OH233444   5.951   6.233   7.730 -0.0900  0.1444 -0.0089
 3962TIP3    H133445   6.025   6.200   7.780  0.8409  1.0675 -0.7537
 3962TIP3    H233446   5.874   6.203   7.779  0.7675  0.7756  1.8098
 3963TIP3   OH233447   5.323   6.696   2.211 -0.1262 -0.2841 -0.1565
 3963TIP3    H133448   5.410   6.682   2.173  0.1198  0.4924  0.0885
 3963TIP3    H233449   5.303   6.787   2.190 -1.1642 -0.6440 -0.7629
 3964TIP3   OH233450   0.596   1.269   1.071 -0.1480  0.6076  0.3172
 3964TIP3    H133451   0.664   1.234   1.013  1.4934  0.8087  2.0416
 3964TIP3    H233452   0.524   1.206   1.062 -0.7752  1.5776 -3.2814
 3965TIP3   OH233453   6.681   6.731   2.017  0.4124 -0.0466 -0.3862
 3965TIP3    H133454   6.754   6.791   2.002  0.0701  0.5832  0.4156
 3965TIP3    H233455   6.652   6.749   2.106  0.3556 -1.4832 -0.0815
 3966TIP3   OH233456   1.820   4.548   8.305 -0.2289 -0.5796 -0.0644
 3966TIP3    H133457   1.823   4.454   8.325 -1.1529 -0.6329 -0.1225
 3966TIP3    H233458   1.898   4.564   8.253 -0.8475 -1.6401 -1.3973
 3967TIP3   OH233459   5.605   3.323   0.542  0.3449  0.1586 -0.1810
 3967TIP3    H133460   5.627   3.399   0.596 -0.2597  1.4279 -1.6281
 3967TIP3    H233461   5.680   3.310   0.485  0.1164  0.2048 -0.4993
 3968TIP3   OH233462   1.709   0.895   1.621 -0.2659 -0.0936 -0.4208
 3968TIP3    H133463   1.783   0.836   1.607 -1.3251 -1.8267  0.8267
 3968TIP3    H233464   1.715   0.920   1.713 -0.6397  0.6077 -0.5823
 3969TIP3   OH233465   0.599   4.612   1.352  0.0567  0.6865  0.1877
 3969TIP3    H133466   0.624   4.579   1.266 -1.5888  0.4667 -0.2317
 3969TIP3    H233467   0.559   4.697   1.335  2.8651  2.3263  1.1197
 3970TIP3   OH233468   5.360   1.790   2.270  0.0376  0.3947 -0.0666
 3970TIP3    H133469   5.430   1.737   2.231  0.4033  1.0828 -0.3544
 3970TIP3    H233470   5.402   1.873   2.292 -0.8210  1.0408 -0.7874
 3971TIP3   OH233471   6.244   1.620   7.620  0.2819  0.1543  0.5761
 3971TIP3    H133472   6.237   1.640   7.713  2.0809 -0.9107  0.9808
 3971TIP3    H233473   6.153   1.611   7.590 -0.3827  2.0634  1.8315
 3972TIP3   OH233474   2.214   5.998   7.602 -0.1408  0.5833  0.1794
 3972TIP3    H133475   2.252   5.920   7.644  0.5279  0.9002  0.1729
 3972TIP3    H233476   2.119   5.985   7.610 -0.0657 -0.6548 -0.5935
 3973TIP3   OH233477   4.978   3.845   1.435  0.0982  0.3523  0.3362
 3973TIP3    H133478   4.891   3.881   1.449 -0.9492 -1.3881 -1.3192
 3973TIP3    H233479   4.970   3.752   1.459  1.5236  0.1766  0.2261
 3974TIP3   OH233480   6.698   4.785   2.489 -0.8098 -0.4997  0.2193
 3974TIP3    H133481   6.771   4.723   2.490  0.5690  1.0591 -0.3616
 3974TIP3    H233482   6.649   4.765   2.569  1.1911 -0.5040  1.4926
 3975TIP3   OH233483   5.283   3.617   2.310  0.3071 -0.0451  0.0757
 3975TIP3    H133484   5.306   3.526   2.329 -0.2501  0.1273  1.7204
 3975TIP3    H233485   5.320   3.667   2.383 -0.6907  0.8649 -0.0252
 3976TIP3   OH233486   3.561   1.816   7.830  0.2533 -0.4201  0.3094
 3976TIP3    H133487   3.487   1.771   7.870  1.5342 -2.2100  0.7879
 3976TIP3    H233488   3.575   1.771   7.747  0.7530 -0.0363  0.1808
 3977TIP3   OH233489   2.366   3.502   7.116 -0.2492  0.5263 -0.0864
 3977TIP3    H133490   2.379   3.442   7.042  0.6774  0.5689  0.0335
 3977TIP3    H233491   2.295   3.560   7.087  1.4622  1.8932 -1.8521
 3978TIP3   OH233492   6.213   2.255   1.185  0.9764 -0.3674 -0.7301
 3978TIP3    H133493   6.197   2.290   1.272  2.5689 -1.7984  0.2094
 3978TIP3    H233494   6.234   2.163   1.200 -0.8730 -1.2480 -2.8560
 3979TIP3   OH233495   0.562   0.734   0.025  0.0658  0.9171  0.2189
 3979TIP3    H133496   0.603   0.712  -0.059  0.1076 -0.3193  0.5488
 3979TIP3    H233497   0.583   0.827   0.038 -2.5953  2.1021 -2.6454
 3980TIP3   OH233498   1.438   2.456   1.980  0.0909 -1.1690 -0.2753
 3980TIP3    H133499   1.397   2.524   1.926  1.0652  0.3557  0.8255
 3980TIP3    H233500   1.380   2.447   2.055  1.3957  0.6544  1.0511
 3981TIP3   OH233501   3.459   6.199   7.253  0.0052  0.1853 -0.2396
 3981TIP3    H133502   3.512   6.183   7.175  0.3923  0.9539 -0.1455
 3981TIP3    H233503   3.369   6.202   7.220  0.3102  2.7527 -1.0728
 3982TIP3   OH233504   6.119   5.939   1.745 -0.0541  0.0027  0.5081
 3982TIP3    H133505   6.205   5.980   1.755  0.2094 -0.9512  2.4604
 3982TIP3    H233506   6.137   5.854   1.705 -0.1588  0.0480  0.3628
 3983TIP3   OH233507   5.497   6.104   2.209  0.5592  0.0041  0.4544
 3983TIP3    H133508   5.565   6.111   2.142 -0.4364  0.2510 -0.5695
 3983TIP3    H233509   5.419   6.142   2.167  0.1997  1.3109  2.1784
 3984TIP3   OH233510   6.182   4.950   2.263 -0.2287  0.3560 -0.6282
 3984TIP3    H133511   6.275   4.971   2.254  1.0698 -3.2862  1.8228
 3984TIP3    H233512   6.155   4.995   2.343 -0.2988  0.5675 -0.7691
 3985TIP3   OH233513   1.705   3.987   0.910 -0.4831  0.0478 -0.6554
 3985TIP3    H133514   1.713   4.066   0.856 -0.1297 -0.6474 -1.6470
 3985TIP3    H233515   1.794   3.954   0.919 -0.6011 -0.1274 -0.0593
 3986TIP3   OH233516   0.583   3.129   0.511 -0.1602 -0.2906  0.3306
 3986TIP3    H133517   0.541   3.055   0.466 -0.8958 -1.0283  2.1160
 3986TIP3    H233518   0.567   3.112   0.604  0.7757  1.4704  0.8541
 3987TIP3   OH233519   3.747   4.479   8.267 -0.0582  0.0566 -0.3351
 3987TIP3    H133520   3.777   4.467   8.177 -0.6948 -0.9662 -0.4230
 3987TIP3    H233521   3.689   4.555   8.263 -0.2434 -0.1034 -0.8358
 3988TIP3   OH233522   3.182   0.687   1.883 -0.7214  0.0483 -0.2864
 3988TIP3    H133523   3.252   0.626   1.907  0.6725  1.3498 -0.8643
 3988TIP3    H233524   3.150   0.720   1.967 -0.7328 -0.6438 -0.0070
 3989TIP3   OH233525   1.686   0.262   8.144 -0.2501  0.6007 -0.5647
 3989TIP3    H133526   1.714   0.300   8.227 -1.1164  1.5268 -0.6754
 3989TIP3    H233527   1.751   0.292   8.080  0.7328 -0.5691 -0.1569
 3990TIP3   OH233528   0.371   2.037   1.657  0.0449  0.0397 -0.1597
 3990TIP3    H133529   0.335   2.100   1.594 -1.5038  0.5057  1.1179
 3990TIP3    H233530   0.314   1.961   1.650  0.2294 -0.1363  0.2563
 3991TIP3   OH233531   6.506   5.352   7.105 -0.6614  0.2031 -0.0995
 3991TIP3    H133532   6.532   5.408   7.031 -1.8204  1.3342  0.3224
 3991TIP3    H233533   6.411   5.351   7.102 -0.6937 -0.4878  0.8588
 3992TIP3   OH233534   1.923   6.464   0.180 -0.3724  0.1696  0.3999
 3992TIP3    H133535   1.871   6.484   0.258  0.1376 -1.4575  1.2134
 3992TIP3    H233536   1.930   6.368   0.180  0.8816  0.2201 -0.8427
 3993TIP3   OH233537   0.190   4.146   2.285 -0.1717  0.1670 -0.0798
 3993TIP3    H133538   0.172   4.239   2.301 -0.7107 -0.0948  0.8430
 3993TIP3    H233539   0.250   4.121   2.355 -3.4820 -1.2889  2.4659
 3994TIP3   OH233540   4.544   0.039   8.765  0.1736 -0.1438  0.4936
 3994TIP3    H133541   4.592   0.025   8.684  0.4529 -0.5483  0.7242
 3994TIP3    H233542   4.571   0.126   8.794 -0.6567  0.4068 -0.3325
 3995TIP3   OH233543   3.839   3.146   1.733 -0.0585  0.1557 -0.2523
 3995TIP3    H133544   3.907   3.198   1.774 -0.8427  0.9730  0.0529
 3995TIP3    H233545   3.789   3.109   1.806  0.7661 -1.4507 -0.4515
 3996TIP3   OH233546   6.276   4.255   2.503 -0.2037 -0.1059 -0.8575
 3996TIP3    H133547   6.198   4.284   2.456 -0.6997 -2.4361 -1.6248
 3996TIP3    H233548   6.245   4.182   2.558  1.5603 -1.8116 -2.0021
 3997TIP3   OH233549   5.803   6.240   0.212  0.0124 -0.3365  0.2210
 3997TIP3    H133550   5.887   6.205   0.242 -0.2985 -0.1392  1.3844
 3997TIP3    H233551   5.781   6.187   0.136  2.5072  1.3953 -1.8760
 3998TIP3   OH233552   6.499   2.092   7.873  0.0674 -0.2680  0.2090
 3998TIP3    H133553   6.539   2.066   7.956  0.5391  2.2738  0.8780
 3998TIP3    H233554   6.564   2.070   7.806  2.6538  3.2900  1.2233
 3999TIP3   OH233555   1.471   5.550   2.347  0.2059 -0.4928  0.1771
 3999TIP3    H133556   1.392   5.505   2.318  1.0944 -1.5141 -0.7425
 3999TIP3    H233557   1.470   5.543   2.442 -2.0933  1.7630  0.4224
 4000TIP3   OH233558   3.588   2.931   2.119  1.1156  0.4775 -0.0613
 4000TIP3    H133559   3.566   2.961   2.031  0.5742  0.7639  0.1719
 4000TIP3    H233560   3.580   2.836   2.115  2.0746  0.4027 -0.5896
 4001TIP3   OH233561   2.348   5.137   0.014 -0.5547 -0.7985  0.2957
 4001TIP3    H133562   2.442   5.154   0.016 -0.8359  0.8956  0.5376
 4001TIP3    H233563   2.332   5.102  -0.074 -0.0000  0.9673 -0.5497
 4002TIP3   OH233564   1.708   3.697   1.742  0.0675 -0.0759  0.1767
 4002TIP3    H133565   1.780   3.752   1.711  0.3944  1.1640  2.8558
 4002TIP3    H233566   1.735   3.607   1.720  2.9672  0.2413  1.8855
 4003TIP3   OH233567   6.804   6.620   2.693  0.3604  1.0045  0.3157
 4003TIP3    H133568   6.793   6.709   2.726  2.0147  1.0377  0.8963
 4003TIP3    H233569   6.885   6.624   2.641 -0.3231  0.1495 -0.8717
 4004TIP3   OH233570   0.969   5.699   0.641 -0.7710 -0.3877 -0.6019
 4004TIP3    H133571   0.915   5.633   0.684 -0.4239 -1.1189 -1.2682
 4004TIP3    H233572   0.990   5.661   0.556  1.4505 -0.4606 -0.0649
 4005TIP3   OH233573   0.867   5.575   2.526 -0.1636 -0.2533  0.1428
 4005TIP3    H133574   0.827   5.512   2.586  0.5380  0.1715  1.0740
 4005TIP3    H233575   0.959   5.549   2.521  0.0793  0.5374  0.3482
 4006TIP3   OH233576   4.638   3.516   0.449 -0.2438 -0.1608  0.1041
 4006TIP3    H133577   4.641   3.493   0.542 -1.7268  1.4697  0.6127
 4006TIP3    H233578   4.713   3.574   0.437 -1.3668  1.5266  0.9011
 4007TIP3   OH233579   1.068   3.142   1.682 -0.3604  0.4786  0.2058
 4007TIP3    H133580   1.082   3.233   1.706  1.0420  0.4824 -0.4848
 4007TIP3    H233581   1.063   3.143   1.586  2.0449 -0.3806 -0.0122
 4008TIP3   OH233582   4.695   2.995   2.898  0.2717 -0.1856  0.3813
 4008TIP3    H133583   4.724   3.033   2.815  0.1398 -2.0988 -0.6130
 4008TIP3    H233584   4.610   3.037   2.915  0.9542  1.2715  0.3224
 4009TIP3   OH233585   6.472   6.078   2.596 -0.3361  0.1861 -0.3222
 4009TIP3    H133586   6.420   6.037   2.665 -1.5025 -0.1477 -1.3786
 4009TIP3    H233587   6.544   6.120   2.643 -3.1665  3.4129  1.5958
 4010TIP3   OH233588   1.134   3.595   2.104  0.1368 -0.6218  0.4285
 4010TIP3    H133589   1.166   3.521   2.155  1.7099  0.5148  1.1595
 4010TIP3    H233590   1.039   3.583   2.102  0.4269 -3.5273 -0.8742
 4011TIP3   OH233591   0.418   4.905   8.086  0.2175 -0.5632 -0.0130
 4011TIP3    H133592   0.503   4.950   8.089 -0.5833  1.3990 -3.0205
 4011TIP3    H233593   0.428   4.841   8.015 -1.2110  0.8014 -1.5274
 4012TIP3   OH233594   1.759   1.793   2.264 -0.3315 -0.9166  0.1539
 4012TIP3    H133595   1.781   1.805   2.172 -0.1003 -1.1712  0.1743
 4012TIP3    H233596   1.681   1.737   2.263 -0.0022 -1.3799  0.1269
 4013TIP3   OH233597   5.714   0.197   0.076  0.5594 -0.7008  0.4298
 4013TIP3    H133598   5.754   0.271   0.123  1.0373  0.0252 -1.0335
 4013TIP3    H233599   5.623   0.198   0.104  0.2771  1.1807 -0.3486
 4014TIP3   OH233600   3.654   5.991   7.372  0.0151  0.2895  0.0150
 4014TIP3    H133601   3.743   6.024   7.385  1.1245 -2.0047 -1.0839
 4014TIP3    H233602   3.631   6.019   7.284  0.1083 -0.0091 -0.1082
 4015TIP3   OH233603   4.194   5.505   7.563 -0.7335 -0.4326 -0.0102
 4015TIP3    H133604   4.240   5.503   7.646  1.1853 -2.1080 -1.0322
 4015TIP3    H233605   4.108   5.467   7.582 -1.5097  1.9137  1.7381
 4016TIP3   OH233606   5.037   0.195   1.660 -0.5760  0.1102  0.2140
 4016TIP3    H133607   5.089   0.272   1.682 -1.3213  0.4116  0.9857
 4016TIP3    H233608   5.101   0.126   1.646  0.0787  0.7495 -0.0116
 4017TIP3   OH233609   6.540   5.464   1.175 -0.0193 -0.3881  0.0467
 4017TIP3    H133610   6.463   5.415   1.144  0.6479 -2.2323  1.1783
 4017TIP3    H233611   6.615   5.414   1.142  0.7146  0.7279 -0.0275
 4018TIP3   OH233612   4.979   3.077   0.455  0.6029 -0.0587  0.3641
 4018TIP3    H133613   4.889   3.071   0.423  0.3860  0.5710  0.8209
 4018TIP3    H233614   4.980   3.156   0.510  1.3083 -0.3341  0.7704
 4019TIP3   OH233615   4.733   1.848   1.789  0.1353 -0.0812  0.2111
 4019TIP3    H133616   4.685   1.912   1.840 -1.1924 -0.5503 -0.4061
 4019TIP3    H233617   4.732   1.883   1.700 -0.6126 -0.9564 -0.1327
 4020TIP3   OH233618   4.317   0.719   1.733 -0.2979  0.1873 -0.1152
 4020TIP3    H133619   4.396   0.667   1.722  1.0476  1.7734  1.4000
 4020TIP3    H233620   4.253   0.679   1.674  0.7147 -2.9197  0.7135
 4021TIP3   OH233621   6.349   4.229   1.648  0.5461 -0.1944 -0.1323
 4021TIP3    H133622   6.279   4.294   1.660 -0.8406 -1.5194 -0.7794
 4021TIP3    H233623   6.403   4.265   1.578 -0.2578  0.2211 -0.5549
 4022TIP3   OH233624   0.431   0.763   1.683 -0.2246 -0.0099  0.4694
 4022TIP3    H133625   0.399   0.673   1.687  0.4158 -0.5676 -3.1904
 4022TIP3    H233626   0.526   0.754   1.672 -0.0214  1.2037  0.9661
 4023TIP3   OH233627   5.893   2.421   8.755  0.0318  0.1962  0.2711
 4023TIP3    H133628   5.823   2.382   8.808 -0.3410  0.2313 -0.1901
 4023TIP3    H233629   5.894   2.370   8.674 -2.8949  3.2242 -1.9304
 4024TIP3   OH233630   4.584   5.161   7.424 -0.4742 -0.1401 -0.0777
 4024TIP3    H133631   4.618   5.235   7.373 -0.2305 -0.5411 -0.5076
 4024TIP3    H233632   4.492   5.182   7.437 -1.2699 -1.2289 -2.9889
 4025TIP3   OH233633   3.746   6.624   7.978 -0.9486  0.5789 -0.1629
 4025TIP3    H133634   3.738   6.555   7.912  2.3378  0.0270 -0.1799
 4025TIP3    H233635   3.727   6.705   7.930  0.3770  0.0989 -1.5868
 4026TIP3   OH233636   4.429   1.603   0.252 -0.5943  0.0920  0.2842
 4026TIP3    H133637   4.450   1.535   0.188  2.5291 -0.4707  1.7331
 4026TIP3    H233638   4.481   1.581   0.329  0.7362  4.1941  0.8095
 4027TIP3   OH233639   0.995   2.878   7.999 -0.0744 -0.0206 -0.0493
 4027TIP3    H133640   0.931   2.918   8.057 -0.5906 -0.8959  0.0053
 4027TIP3    H233641   0.954   2.882   7.912  1.0197  1.9951 -0.5392
 4028TIP3   OH233642   2.795   5.370   3.125 -0.0777  0.2637 -0.5988
 4028TIP3    H133643   2.860   5.353   3.193  1.4065  1.7353 -1.5667
 4028TIP3    H233644   2.827   5.323   3.048 -1.1338 -0.4456 -0.6359
 4029TIP3   OH233645   6.491   1.534   7.553  0.2295 -0.1196 -0.0359
 4029TIP3    H133646   6.487   1.438   7.553 -0.1667 -0.1554 -2.1328
 4029TIP3    H233647   6.401   1.562   7.571  0.2728 -0.1451  0.2222
 4030TIP3   OH233648   1.349   5.510   1.824  0.1298 -0.5463 -0.1405
 4030TIP3    H133649   1.389   5.427   1.851  1.0457 -0.2874 -0.6588
 4030TIP3    H233650   1.280   5.484   1.762  1.1922 -0.8874 -1.2337
 4031TIP3   OH233651   6.580   3.049   3.086 -0.0433  0.4433  0.2956
 4031TIP3    H133652   6.519   3.046   3.012  0.3832 -0.5756 -0.0334
 4031TIP3    H233653   6.557   3.130   3.132 -1.2939  0.3467 -0.1061
 4032TIP3   OH233654   5.523   3.742   1.006 -0.0375 -0.2134  0.1091
 4032TIP3    H133655   5.443   3.772   1.049  0.9576 -1.9054  3.4567
 4032TIP3    H233656   5.593   3.795   1.045  1.0026 -2.3152  1.2326
 4033TIP3   OH233657   3.974   0.988   8.456 -0.0710 -0.0269 -0.6388
 4033TIP3    H133658   3.948   0.938   8.378 -0.8543  0.8481 -0.9521
 4033TIP3    H233659   3.984   0.922   8.524 -0.6770 -0.6613 -1.1490
 4034TIP3   OH233660   4.768   1.370   2.031 -0.1546  0.1390  0.0890
 4034TIP3    H133661   4.761   1.279   2.000  0.1436 -0.1407  0.8274
 4034TIP3    H233662   4.845   1.370   2.088  0.2199  1.0038 -0.4065
 4035TIP3   OH233663   6.790   2.028   8.601 -0.2218  0.1960 -0.4696
 4035TIP3    H133664   6.770   1.942   8.640  0.1973  0.2806 -0.0615
 4035TIP3    H233665   6.760   2.091   8.666  1.0324  0.3308  0.0071
 4036TIP3   OH233666   1.961   2.760   7.705  0.3104 -0.5634  0.2696
 4036TIP3    H133667   1.874   2.791   7.730  0.9648  0.6299  1.1184
 4036TIP3    H233668   1.983   2.693   7.770  0.6827  0.2806  1.0306
 4037TIP3   OH233669   3.309   6.526   0.435  0.1497 -0.1760  0.5209
 4037TIP3    H133670   3.254   6.449   0.418 -0.8946  0.4629  0.9026
 4037TIP3    H233671   3.247   6.594   0.462  1.0816  0.7323  0.4289
 4038TIP3   OH233672   0.304   5.644   0.422 -0.4571  0.3163  0.3507
 4038TIP3    H133673   0.309   5.712   0.355 -0.2190  1.3856  1.4367
 4038TIP3    H233674   0.334   5.686   0.502 -0.2079 -1.0946  1.0334
 4039TIP3   OH233675   5.757   4.367   2.744  0.2133 -0.3048 -0.1492
 4039TIP3    H133676   5.687   4.432   2.733 -0.3905 -1.0189 -0.5702
 4039TIP3    H233677   5.726   4.310   2.814 -0.2725 -1.4324 -1.2346
 4040TIP3   OH233678   2.350   4.222   1.100 -0.6760 -0.2497  0.0288
 4040TIP3    H133679   2.383   4.180   1.021 -0.4548 -0.5075  0.2549
 4040TIP3    H233680   2.419   4.207   1.165 -0.5813  0.4913  0.1031
 4041TIP3   OH233681   5.886   2.190   0.341 -0.3121 -0.2672 -0.1223
 4041TIP3    H133682   5.800   2.175   0.300 -1.0915  1.4369  0.7802
 4041TIP3    H233683   5.867   2.245   0.416  1.6811  0.7595 -0.3070
 4042TIP3   OH233684   0.523   6.611   1.747  0.3860  0.1777 -0.0576
 4042TIP3    H133685   0.534   6.674   1.675  0.6105 -0.1867 -0.3501
 4042TIP3    H233686   0.580   6.644   1.817 -1.7268  1.9332  0.9381
 4043TIP3   OH233687   6.829   4.296   0.983  0.1605  0.2396 -0.0042
 4043TIP3    H133688   6.843   4.387   1.008 -0.9110  0.0411  1.4313
 4043TIP3    H233689   6.870   4.288   0.897  0.3919  2.0320 -0.0894
 4044TIP3   OH233690   1.864   5.239   0.886  0.0972  0.2391 -0.5458
 4044TIP3    H133691   1.932   5.256   0.950  0.1437  3.2203 -1.2313
 4044TIP3    H233692   1.894   5.161   0.839  1.5653 -0.2058  1.0395
 4045TIP3   OH233693   1.679   6.634   7.680  0.4759 -0.2760 -0.0181
 4045TIP3    H133694   1.599   6.644   7.628 -0.2839  1.2391  1.3476
 4045TIP3    H233695   1.649   6.594   7.762  1.3202 -0.7223  0.0827
 4046TIP3   OH233696   6.147   2.077   0.199 -0.1088  0.4646  0.0011
 4046TIP3    H133697   6.099   2.007   0.244 -0.4313  0.7400  0.0960
 4046TIP3    H233698   6.230   2.084   0.246 -0.9966  1.7042  1.4899
 4047TIP3   OH233699   0.666   3.659   0.012  0.0721 -0.2813 -0.6714
 4047TIP3    H133700   0.703   3.746   0.029 -2.8660  0.5829  2.3070
 4047TIP3    H233701   0.704   3.603   0.080 -1.4549 -0.1594  0.3215
 4048TIP3   OH233702   3.018   5.958   7.757  0.1486 -0.1238 -0.1743
 4048TIP3    H133703   2.979   6.027   7.703 -0.4323 -1.1369 -1.0798
 4048TIP3    H233704   3.100   5.996   7.789 -0.0153  0.8815 -0.9034
 4049TIP3   OH233705   0.031   4.287   0.128  0.1501  0.2734  0.0464
 4049TIP3    H133706   0.051   4.380   0.128  0.0659  0.3377  2.0890
 4049TIP3    H233707  -0.017   4.273   0.210  1.4279 -1.8164  0.5025
 4050TIP3   OH233708   4.372   6.386   0.793  0.0264 -0.6614 -0.0088
 4050TIP3    H133709   4.359   6.299   0.753  1.7321 -0.3756 -1.3256
 4050TIP3    H233710   4.327   6.446   0.734 -2.0560 -0.6815  1.4600
 4051TIP3   OH233711   0.407   1.888   0.166 -0.2099 -0.3142  0.0363
 4051TIP3    H133712   0.356   1.813   0.197 -3.1127  0.0923 -3.1130
 4051TIP3    H233713   0.447   1.858   0.085  0.0811  1.0113 -0.3337
 4052TIP3   OH233714   6.552   6.549   8.343  0.0294 -0.0757  0.4540
 4052TIP3    H133715   6.461   6.519   8.339 -0.1836  0.6371 -0.5726
 4052TIP3    H233716   6.603   6.474   8.312 -0.0570 -0.9336  2.2425
 4053TIP3   OH233717   1.391   5.859   1.652 -0.4220 -0.6605  0.1428
 4053TIP3    H133718   1.452   5.931   1.663 -0.6112  0.4209 -4.1809
 4053TIP3    H233719   1.345   5.853   1.736  1.1561  2.7397  1.4062
 4054TIP3   OH233720   5.952   5.540   1.809  0.0486 -0.1823  0.2084
 4054TIP3    H133721   5.977   5.448   1.810 -0.8593 -0.4685 -1.1202
 4054TIP3    H233722   6.023   5.585   1.855 -0.3053 -1.7033  2.4244
 4055TIP3   OH233723   0.908   2.352   8.412  0.0398 -0.2497  0.7035
 4055TIP3    H133724   0.855   2.391   8.482 -2.1879 -0.1097 -0.9394
 4055TIP3    H233725   0.848   2.346   8.337  2.0930 -1.0933 -0.9827
 4056TIP3   OH233726   4.909   6.442   0.862  0.1609 -0.1507 -0.3459
 4056TIP3    H133727   5.000   6.449   0.891  0.4522  1.3260 -1.5235
 4056TIP3    H233728   4.897   6.516   0.802 -1.9605 -0.0325  0.1615
 4057TIP3   OH233729   1.031   4.682   1.421  0.4494  0.4112 -0.0044
 4057TIP3    H133730   1.026   4.661   1.514 -1.9500  2.3255  0.3929
 4057TIP3    H233731   1.098   4.622   1.386  2.2490  0.4015  3.1176
 4058TIP3   OH233732   6.058   2.416   8.373  0.3877 -0.0972  0.0243
 4058TIP3    H133733   6.130   2.475   8.352 -0.2339  0.1653 -1.4874
 4058TIP3    H233734   5.985   2.447   8.320 -0.6541 -0.7735  1.0054
 4059TIP3   OH233735   6.760   1.476   0.459  0.4609 -0.4174  0.1177
 4059TIP3    H133736   6.819   1.548   0.479  0.3866 -0.6846  1.4206
 4059TIP3    H233737   6.684   1.491   0.515 -0.6955 -0.1323 -1.4692
 4060TIP3   OH233738   4.447   1.814   2.749 -0.3815 -0.1914 -0.1061
 4060TIP3    H133739   4.522   1.785   2.697  0.2205  0.3860  0.4188
 4060TIP3    H233740   4.443   1.908   2.734  0.7821  0.2746  2.0597
 4061TIP3   OH233741   2.192   0.303   8.461 -0.4479 -0.0949 -0.0195
 4061TIP3    H133742   2.197   0.292   8.556  3.0379  1.3916  0.1438
 4061TIP3    H233743   2.225   0.220   8.426  0.3475  0.1050  0.2154
 4062TIP3   OH233744   5.725   2.444   0.483 -0.3502  0.6770  0.5217
 4062TIP3    H133745   5.742   2.433   0.577 -1.4261  3.2107  1.0857
 4062TIP3    H233746   5.716   2.538   0.471  1.0983  0.5417 -2.4193
 4063TIP3   OH233747   1.924   1.505   8.233  0.6409 -0.4101 -0.0643
 4063TIP3    H133748   1.897   1.502   8.325  1.2554  0.5441  0.1674
 4063TIP3    H233749   1.957   1.417   8.215 -0.1144 -0.8060  0.4238
 4064TIP3   OH233750   0.745   0.263   8.370  0.7515  0.3383 -0.1315
 4064TIP3    H133751   0.776   0.252   8.280  0.4484  1.6430 -0.4186
 4064TIP3    H233752   0.743   0.358   8.383  0.2071  0.1794  1.0515
 4065TIP3   OH233753   1.813   2.511   3.121 -0.1407 -0.3400 -0.0134
 4065TIP3    H133754   1.744   2.520   3.056  0.4701 -1.4069 -0.8447
 4065TIP3    H233755   1.805   2.589   3.176 -1.5333 -0.0994 -0.5269
 4066TIP3   OH233756   0.841   6.584   0.411  0.2475  0.2735  0.0451
 4066TIP3    H133757   0.846   6.554   0.502 -2.2803  0.5060  0.3078
 4066TIP3    H233758   0.876   6.673   0.413  2.2276 -0.4523  0.3354
 4067TIP3   OH233759   4.242   0.206   8.428 -0.5078  0.2435  0.5655
 4067TIP3    H133760   4.174   0.186   8.363 -0.3279  1.3742 -0.0065
 4067TIP3    H233761   4.220   0.294   8.458  1.2671  1.0667 -0.3968
 4068TIP3   OH233762   4.479   5.923   7.907 -0.2749  0.2572 -0.1957
 4068TIP3    H133763   4.522   5.955   7.828 -0.9169  0.8830 -0.3116
 4068TIP3    H233764   4.474   6.000   7.964 -2.5170  0.6302 -0.7759
 4069TIP3   OH233765   1.505   0.377   1.491  0.1214 -0.1529 -0.3449
 4069TIP3    H133766   1.439   0.415   1.434 -1.7128 -1.2460  0.9563
 4069TIP3    H233767   1.515   0.287   1.461  1.1042  0.0154 -0.5724
 4070TIP3   OH233768   0.697   4.582   2.634 -0.2118  0.2793 -0.3191
 4070TIP3    H133769   0.660   4.618   2.715 -0.7885  1.6572 -1.1683
 4070TIP3    H233770   0.645   4.503   2.617 -1.0350  0.7642 -0.1067
 4071TIP3   OH233771   4.218   5.653   0.669  0.0483 -1.2751 -0.0054
 4071TIP3    H133772   4.255   5.641   0.581 -1.5143 -0.4039 -0.8285
 4071TIP3    H233773   4.241   5.743   0.692 -2.3339 -0.3045 -1.0123
 4072TIP3   OH233774   4.159   3.679   8.022 -0.4033 -0.4007 -0.2978
 4072TIP3    H133775   4.114   3.594   8.019  0.0132 -0.6452  0.3135
 4072TIP3    H233776   4.117   3.725   8.094  1.9868 -1.6058  2.0304
 4073TIP3   OH233777   0.503   1.683   0.779 -0.8371 -0.0948  0.6366
 4073TIP3    H133778   0.467   1.758   0.730  0.2153 -0.2488 -0.4164
 4073TIP3    H233779   0.471   1.606   0.732 -1.7561 -0.3326  1.6033
 4074TIP3   OH233780   5.046   4.938   7.954 -0.2104  0.7143  0.0241
 4074TIP3    H133781   4.982   4.946   7.883 -1.7303  0.5816  1.3368
 4074TIP3    H233782   4.998   4.896   8.025  1.9827 -1.6972  0.2588
 4075TIP3   OH233783   2.027   3.862   8.167  0.7219 -0.1107 -0.0463
 4075TIP3    H133784   2.053   3.884   8.078 -0.4747  0.2141 -0.3335
 4075TIP3    H233785   1.947   3.810   8.157  1.7199 -1.9323  0.7510
 4076TIP3   OH233786   3.070   2.080   1.780 -0.2434  0.5601 -0.4966
 4076TIP3    H133787   3.032   2.140   1.715  1.5362  2.1586 -0.1402
 4076TIP3    H233788   3.159   2.066   1.750 -0.5553 -1.8239 -0.4537
 4077TIP3   OH233789   4.882   0.363   0.901  0.3179 -0.0340  0.9760
 4077TIP3    H133790   4.956   0.415   0.872 -1.0974  2.0335  0.8430
 4077TIP3    H233791   4.850   0.320   0.821  2.4957 -2.6213  1.3605
 4078TIP3   OH233792   2.978   5.951   2.374  0.2215  0.0470  0.5495
 4078TIP3    H133793   3.067   5.927   2.402  0.2639  0.8740  1.1730
 4078TIP3    H233794   2.970   6.043   2.399 -0.6526  0.1037  0.0729
 4079TIP3   OH233795   0.743   6.150   0.808  0.4105  0.5439  0.1882
 4079TIP3    H133796   0.754   6.160   0.903 -0.4160  1.4504  0.2034
 4079TIP3    H233797   0.677   6.214   0.785 -1.4937 -1.5751 -0.5699
 4080TIP3   OH233798   0.627   6.650   0.575  0.5601  0.1945 -0.3237
 4080TIP3    H133799   0.676   6.567   0.568 -0.4196 -0.5316  0.9853
 4080TIP3    H233800   0.686   6.708   0.623  0.8586 -0.0775 -0.3567
 4081TIP3   OH233801   3.435   4.927   1.581 -0.4502 -0.2382 -0.1799
 4081TIP3    H133802   3.396   4.886   1.658  0.7598  1.9705  1.7236
 4081TIP3    H233803   3.362   4.941   1.521 -1.5557 -1.2793  0.8631
 4082TIP3   OH233804   5.340   4.693   8.762  0.0870  0.0685  0.1840
 4082TIP3    H133805   5.395   4.627   8.806  0.2477  0.3485  0.4073
 4082TIP3    H233806   5.354   4.678   8.669 -3.3099 -3.2291 -0.0367
 4083TIP3   OH233807   0.701   2.165   2.865 -0.3473 -0.0715 -0.0937
 4083TIP3    H133808   0.627   2.216   2.897 -0.0258 -0.3884  1.2250
 4083TIP3    H233809   0.662   2.085   2.831 -0.8659  1.0381 -2.2909
 4084TIP3   OH233810   2.271   0.317   0.782 -0.2809 -0.0948 -0.0890
 4084TIP3    H133811   2.325   0.315   0.861 -0.6964  1.2449  0.2516
 4084TIP3    H233812   2.191   0.270   0.806 -0.4626  0.4222  0.3536
 4085TIP3   OH233813   1.696   5.761   2.115 -0.1926  0.0764 -0.4429
 4085TIP3    H133814   1.735   5.723   2.035  0.2666 -0.5688  0.0791
 4085TIP3    H233815   1.691   5.855   2.096  2.8321  0.4148 -0.1031
 4086TIP3   OH233816   4.362   0.814   0.957 -0.3445  0.5521  0.7211
 4086TIP3    H133817   4.284   0.844   0.910 -0.7143  1.9015  2.0962
 4086TIP3    H233818   4.381   0.728   0.920 -2.6153  0.0778  0.4958
 4087TIP3   OH233819   0.178   3.245   0.958  0.6634  0.4081 -0.0911
 4087TIP3    H133820   0.189   3.152   0.942  1.7387 -0.0652  2.7886
 4087TIP3    H233821   0.085   3.262   0.941  0.3477 -1.2736 -0.1958
 4088TIP3   OH233822   6.595   3.018   1.441  0.0382  0.2507  0.3924
 4088TIP3    H133823   6.550   2.986   1.520 -0.0382 -0.3421  0.1171
 4088TIP3    H233824   6.624   3.106   1.464 -1.0378  0.5450  0.6578
 4089TIP3   OH233825   4.404   5.340   1.844 -0.1894 -0.4190  0.2323
 4089TIP3    H133826   4.341   5.351   1.773 -0.8333  0.3719  0.9055
 4089TIP3    H233827   4.483   5.383   1.813 -0.6641  0.4871  0.2311
 4090TIP3   OH233828   6.637   2.312   8.603 -0.2183  0.4245 -0.2706
 4090TIP3    H133829   6.710   2.263   8.640 -1.0657 -0.7358 -0.0476
 4090TIP3    H233830   6.564   2.295   8.663 -1.3645 -0.6878 -1.8814
 4091TIP3   OH233831   5.856   4.030   1.531  0.3280  0.2028  0.7150
 4091TIP3    H133832   5.784   4.045   1.469  0.6097 -0.4731  0.2171
 4091TIP3    H233833   5.862   4.112   1.579 -2.7992 -0.6628  2.9062
 4092TIP3   OH233834   2.232   1.266   0.785  0.1115  0.3568  0.3465
 4092TIP3    H133835   2.149   1.290   0.826 -0.4255  0.8584 -0.9934
 4092TIP3    H233836   2.228   1.171   0.777 -0.1765  0.3447  0.6331
 4093TIP3   OH233837   4.459   5.287   8.531  0.2917 -0.3173  0.4659
 4093TIP3    H133838   4.476   5.372   8.490 -0.4205 -0.5299 -0.3115
 4093TIP3    H233839   4.493   5.296   8.620  2.0872  0.0863 -0.2156
 4094TIP3   OH233840   1.424   3.955   2.562  0.9299 -0.1817 -0.1447
 4094TIP3    H133841   1.424   4.049   2.542  0.5543 -0.0343  0.5164
 4094TIP3    H233842   1.516   3.935   2.582  0.9505  0.1216  0.0656
 4095TIP3   OH233843   4.850   6.144   1.134  0.3524  0.3688 -0.0880
 4095TIP3    H133844   4.817   6.218   1.186  0.3660 -0.1266  0.6409
 4095TIP3    H233845   4.773   6.114   1.085  0.2427  0.5812 -0.0512
 4096TIP3   OH233846   4.011   6.544   6.924 -1.2144 -0.0180  0.4263
 4096TIP3    H133847   4.093   6.558   6.876  0.0979  1.0363  2.8061
 4096TIP3    H233848   3.949   6.606   6.885  0.2648  1.9468  1.0610
 4097TIP3   OH233849   0.259   4.506   1.454  0.4316 -0.0139  0.1903
 4097TIP3    H133850   0.260   4.468   1.366  0.5569  0.1037  0.1409
 4097TIP3    H233851   0.184   4.566   1.454  2.4176  2.6759 -0.9825
 4098TIP3   OH233852   0.113   6.797   8.034  0.3319  0.3827  0.0118
 4098TIP3    H133853   0.076   6.728   7.980  2.1404  0.8644 -1.9647
 4098TIP3    H233854   0.037   6.842   8.070 -1.0576 -4.1341  3.7447
 4099TIP3   OH233855   3.166   4.598   8.729 -0.1263  0.5870  0.0782
 4099TIP3    H133856   3.228   4.545   8.678 -1.9844  1.2644 -3.1581
 4099TIP3    H233857   3.095   4.538   8.750 -1.1612  1.1702 -1.5936
 4100TIP3   OH233858   2.586   6.078   8.037 -0.2232 -0.3612 -0.6301
 4100TIP3    H133859   2.679   6.087   8.016  0.1007 -2.1211 -0.0473
 4100TIP3    H233860   2.550   6.029   7.963 -0.9042  1.0914 -1.2987
 4101TIP3   OH233861   3.533   4.698   1.460  0.2816 -0.6561 -0.1676
 4101TIP3    H133862   3.573   4.711   1.374  0.1484  2.4603  0.1586
 4101TIP3    H233863   3.548   4.780   1.507 -5.4549  0.4730  0.3781
 4102TIP3   OH233864   3.384   2.175   2.521  0.4601 -0.1787 -0.4574
 4102TIP3    H133865   3.449   2.110   2.492  0.7807  0.1862 -0.5523
 4102TIP3    H233866   3.307   2.156   2.466  0.1042 -1.2955  0.3737
 4103TIP3   OH233867   6.387   3.889   2.524  0.4394 -0.0217  0.1643
 4103TIP3    H133868   6.424   3.938   2.450  1.1091  0.4487  0.8047
 4103TIP3    H233869   6.328   3.951   2.567  0.3925 -0.1540  0.2894
 4104TIP3   OH233870   1.565   5.633   7.363 -0.3227  0.2956  0.2823
 4104TIP3    H133871   1.590   5.573   7.293  3.0932  0.4208  1.2479
 4104TIP3    H233872   1.490   5.590   7.405 -0.8951 -0.9624 -1.8486
 4105TIP3   OH233873   3.463   0.891   0.454  0.2267 -0.2545  0.2586
 4105TIP3    H133874   3.547   0.868   0.414 -0.1151 -1.3991  0.1382
 4105TIP3    H233875   3.477   0.881   0.548 -0.2895 -2.5465  0.1671
 4106TIP3   OH233876   3.025   5.413   1.029 -0.1456  0.6614 -0.0292
 4106TIP3    H133877   2.974   5.494   1.029 -1.5338 -0.1585  1.3323
 4106TIP3    H233878   3.017   5.380   1.119 -2.1166 -2.4672 -1.1837
 4107TIP3   OH233879   1.099   2.897   2.802  0.1227 -0.7582 -0.0582
 4107TIP3    H133880   1.065   2.962   2.863 -0.5425  0.0394 -1.2402
 4107TIP3    H233881   1.041   2.822   2.812  0.7201 -1.0897  1.1056
 4108TIP3   OH233882   3.314   2.951   0.858  0.4036 -0.2224 -0.1170
 4108TIP3    H133883   3.387   2.899   0.825  1.1546  0.9071 -0.3064
 4108TIP3    H233884   3.355   3.015   0.918 -0.3601  0.6716 -0.5191
 4109TIP3   OH233885   3.407   1.071   2.424  0.6988 -0.2777 -0.1867
 4109TIP3    H133886   3.485   1.125   2.436 -0.3648  1.1363  0.7266
 4109TIP3    H233887   3.440   0.982   2.418  2.2825  0.1144  1.6478
 4110TIP3   OH233888   5.564   0.326   0.994 -0.1237 -0.1915 -0.7068
 4110TIP3    H133889   5.470   0.311   0.997  0.0609 -1.8903 -2.1817
 4110TIP3    H233890   5.595   0.303   1.081 -1.2694  2.4727  0.5373
 4111TIP3   OH233891   5.926   0.415   0.961 -0.5381  0.0342 -0.3229
 4111TIP3    H133892   5.911   0.470   1.037 -0.6296  1.7687 -1.5267
 4111TIP3    H233893   6.009   0.371   0.979 -0.7255  0.1450  0.8972
 4112TIP3   OH233894   2.830   1.338   1.651  0.3064 -0.2395 -0.1110
 4112TIP3    H133895   2.845   1.370   1.562  2.1588 -0.5247  0.0575
 4112TIP3    H233896   2.802   1.247   1.640 -3.5355  0.8160 -0.5194
 4113TIP3   OH233897   5.066   1.721   2.930 -0.2815  0.8519 -0.0546
 4113TIP3    H133898   4.996   1.707   2.993  0.1542 -0.5244  0.1633
 4113TIP3    H233899   5.077   1.636   2.887  0.2235  1.4533 -1.1630
 4114TIP3   OH233900   1.220   1.896   8.425  0.5369  0.2502  0.2376
 4114TIP3    H133901   1.182   1.827   8.372  2.0336  0.6479 -1.4273
 4114TIP3    H233902   1.154   1.965   8.425  0.3046  0.0356 -0.6750
 4115TIP3   OH233903   0.208   5.695   8.628  0.2651  0.0457 -0.2972
 4115TIP3    H133904   0.217   5.608   8.667  1.9342  0.6127  0.6738
 4115TIP3    H233905   0.220   5.681   8.534 -0.6861 -0.9189 -0.2903
 4116TIP3   OH233906   2.336   3.386   1.996  0.4049  0.0267  0.0461
 4116TIP3    H133907   2.427   3.370   1.972  0.0981 -1.7786 -0.0365
 4116TIP3    H233908   2.288   3.385   1.913 -0.1188 -2.4486  0.2852
 4117TIP3   OH233909   2.402   4.833   1.187  0.8881  0.1739  0.2698
 4117TIP3    H133910   2.394   4.853   1.281  0.5148  0.4182  0.1896
 4117TIP3    H233911   2.351   4.753   1.175  2.3965 -0.8758  0.5939
 4118TIP3   OH233912   3.258   4.377   1.202 -0.2995  0.3364  0.0171
 4118TIP3    H133913   3.190   4.444   1.199 -0.4844  0.1355 -0.2508
 4118TIP3    H233914   3.337   4.422   1.171 -0.5418  0.2880 -0.6691
 4119TIP3   OH233915   3.529   6.460   7.344 -0.6053 -0.1924  0.3898
 4119TIP3    H133916   3.497   6.378   7.307  0.9238 -0.9585  0.7154
 4119TIP3    H233917   3.531   6.445   7.438  2.1733 -0.7996  0.3293
 4120TIP3   OH233918   6.111   4.832   8.592  0.5087 -0.2660  0.0389
 4120TIP3    H133919   6.018   4.824   8.568  0.7190 -0.3609 -0.7522
 4120TIP3    H233920   6.131   4.749   8.635  0.6562 -0.9359 -1.2812
 4121TIP3   OH233921   4.523   3.652   1.301  0.4163  0.0459  0.0199
 4121TIP3    H133922   4.477   3.568   1.295 -0.4174  0.5264 -0.4829
 4121TIP3    H233923   4.503   3.696   1.218  0.9435  0.6913  0.2307
 4122TIP3   OH233924   5.324   0.188   1.026 -0.2061 -0.2126 -0.5208
 4122TIP3    H133925   5.340   0.115   1.085 -1.2590  0.3500  0.5033
 4122TIP3    H233926   5.282   0.254   1.081 -0.0236  0.8388 -1.6132
 4123TIP3   OH233927   5.315   1.348   1.716  0.0418  0.2041  0.2294
 4123TIP3    H133928   5.258   1.422   1.735 -0.3849 -0.1443  0.3111
 4123TIP3    H233929   5.403   1.386   1.715 -0.1946  0.7614  0.0009
 4124TIP3   OH233930   0.453   2.265   2.937  0.9615 -0.5481 -0.1436
 4124TIP3    H133931   0.396   2.317   2.880  0.6592  0.7319  1.2495
 4124TIP3    H233932   0.395   2.236   3.008  2.0362  1.0945  1.5101
 4125TIP3   OH233933   3.370   5.768   7.529  0.1132  0.2475  0.5443
 4125TIP3    H133934   3.397   5.730   7.445  0.8731  1.2856  0.2995
 4125TIP3    H233935   3.417   5.715   7.594 -2.1780 -2.0048  0.5020
 4126TIP3   OH233936   3.016   1.981   8.548 -0.0300 -0.1208  0.9009
 4126TIP3    H133937   3.049   1.922   8.481 -0.4854 -0.0378  0.6031
 4126TIP3    H233938   2.976   1.924   8.613  2.1261 -0.3736  2.1262
 4127TIP3   OH233939   6.687   2.185   1.779 -0.6669  0.0263 -0.0364
 4127TIP3    H133940   6.681   2.217   1.869  1.0810  0.2790  0.0322
 4127TIP3    H233941   6.597   2.162   1.755 -1.2412  0.4730  1.5738
 4128TIP3   OH233942   0.761   6.100   8.295 -0.7063  0.2003  0.1231
 4128TIP3    H133943   0.687   6.105   8.355 -0.9695  0.1480 -0.1929
 4128TIP3    H233944   0.741   6.026   8.238 -0.0797 -0.2415  0.4658
 4129TIP3   OH233945   0.461   0.950   0.328  0.3802  0.3234  0.4483
 4129TIP3    H133946   0.500   1.000   0.400  1.2134  0.5831 -0.1689
 4129TIP3    H233947   0.535   0.909   0.284 -0.1329  0.0359 -0.1668
 4130TIP3   OH233948   4.501   4.170   0.069  0.2264 -0.2027 -0.2256
 4130TIP3    H133949   4.461   4.122   0.142 -1.5429  0.8099 -0.4716
 4130TIP3    H233950   4.592   4.180   0.095 -0.2021 -0.4435  1.5537
 4131TIP3   OH233951   1.413   5.834   7.208 -0.0681 -0.2971 -0.2016
 4131TIP3    H133952   1.432   5.754   7.159  2.9307  0.9043 -1.2506
 4131TIP3    H233953   1.472   5.829   7.284  0.0876  0.8552 -0.2348
 4132TIP3   OH233954   3.134   4.139   0.644  0.4703  0.2914 -0.4563
 4132TIP3    H133955   3.150   4.210   0.706 -1.0896  0.1294  0.1948
 4132TIP3    H233956   3.118   4.182   0.560 -0.9884  0.7895  0.0427
 4133TIP3   OH233957   4.177   2.653   0.669 -0.2387 -0.1228 -0.0156
 4133TIP3    H133958   4.168   2.650   0.765  0.6785  0.7690  0.1166
 4133TIP3    H233959   4.088   2.642   0.637 -0.5675 -0.4177  0.9349
 4134TIP3   OH233960   5.722   2.109   0.728  0.5232  0.1157 -0.2632
 4134TIP3    H133961   5.631   2.081   0.714 -0.0174  1.0893  1.0875
 4134TIP3    H233962   5.731   2.114   0.823  1.2814  2.2199 -0.3933
 4135TIP3   OH233963   4.152   5.720   3.001  0.3135 -0.2148 -0.0078
 4135TIP3    H133964   4.119   5.810   3.010  0.3621 -0.0208 -1.5765
 4135TIP3    H233965   4.247   5.729   3.003  0.3302 -0.1408 -0.8008
 4136TIP3   OH233966   2.431   3.836   7.295 -0.0978  0.3964  0.0762
 4136TIP3    H133967   2.364   3.881   7.243 -1.0351 -1.5376 -0.4699
 4136TIP3    H233968   2.497   3.903   7.311 -1.1291  1.8022 -1.2087
 4137TIP3   OH233969   4.761   4.150   7.350  0.1944  0.2470 -0.0473
 4137TIP3    H133970   4.689   4.200   7.310 -1.0422 -1.0623  0.4602
 4137TIP3    H233971   4.796   4.208   7.418  0.6731  1.5068 -1.3293
 4138TIP3   OH233972   0.443   6.286   1.000  0.6705 -0.1611  0.7716
 4138TIP3    H133973   0.410   6.200   0.973  1.5703 -0.8660  1.7926
 4138TIP3    H233974   0.370   6.326   1.047 -0.3537  0.4126 -1.1893
 4139TIP3   OH233975   4.451   1.390   7.855  0.6913  0.0398  0.0102
 4139TIP3    H133976   4.374   1.348   7.893  0.3578  0.5465 -0.0944
 4139TIP3    H233977   4.507   1.317   7.829  0.1450 -0.3385 -0.1316
 4140TIP3   OH233978   1.959   6.623   0.903 -0.3856  0.5732  0.2627
 4140TIP3    H133979   1.984   6.608   0.812 -0.2348  0.8712  0.2525
 4140TIP3    H233980   1.929   6.538   0.934 -0.0812  0.3840  0.0456
 4141TIP3   OH233981   1.551   3.545   8.455  0.1233 -0.3780  0.0048
 4141TIP3    H133982   1.596   3.567   8.537 -0.3077 -1.5347  0.5814
 4141TIP3    H233983   1.591   3.463   8.428 -1.2328 -1.1411  0.2402
 4142TIP3   OH233984   5.601   5.607   8.699 -0.6801  0.1041  0.4054
 4142TIP3    H133985   5.548   5.602   8.779  0.4914 -0.3133  1.1873
 4142TIP3    H233986   5.692   5.599   8.730 -0.2729 -2.8742 -1.1773
 4143TIP3   OH233987   3.043   3.224   6.668  0.0028  0.3620  0.4055
 4143TIP3    H133988   3.120   3.231   6.725 -0.9674 -1.5575  2.0819
 4143TIP3    H233989   3.010   3.313   6.662  2.3484  1.2583 -0.4366
 4144TIP3   OH233990   2.892   6.417   1.188  0.0921 -0.4138  0.1047
 4144TIP3    H133991   2.797   6.411   1.195  0.1109  0.1758  0.9328
 4144TIP3    H233992   2.923   6.330   1.214 -0.1155  0.1134  2.3065
 4145TIP3   OH233993   6.353   5.994   2.342 -0.2339 -0.3624  0.9339
 4145TIP3    H133994   6.355   5.901   2.364 -0.1755 -0.3812  0.8516
 4145TIP3    H233995   6.416   6.034   2.402  0.2423 -0.4762  0.5197
 4146TIP3   OH233996   1.936   6.256   1.713 -0.7292  0.5068 -0.0367
 4146TIP3    H133997   2.007   6.313   1.743 -0.8975  1.3362 -1.1193
 4146TIP3    H233998   1.893   6.307   1.644 -0.6246 -1.1043 -1.3472
 4147TIP3   OH233999   0.496   0.943   2.370  0.2722  0.1425 -0.2474
 4147TIP3    H134000   0.572   0.987   2.408  0.8023  0.3393 -1.5068
 4147TIP3    H234001   0.446   0.913   2.446  0.4131  2.0164  0.6467
 4148TIP3   OH234002   1.402   3.757   8.170  0.4516  0.7513  0.0160
 4148TIP3    H134003   1.359   3.843   8.166  2.4436  1.7677 -0.4415
 4148TIP3    H234004   1.353   3.703   8.108  0.5472  2.2205 -1.4075
 4149TIP3   OH234005   6.357   4.761   8.209 -0.2333 -0.7496 -0.2346
 4149TIP3    H134006   6.304   4.719   8.141 -0.2791 -1.1549  0.0471
 4149TIP3    H234007   6.295   4.817   8.257 -0.6824 -2.1143  0.8410
 4150TIP3   OH234008   2.326   0.024   7.716 -0.4111  0.5495  0.2051
 4150TIP3    H134009   2.373  -0.050   7.680 -1.9181  0.9859 -2.9991
 4150TIP3    H234010   2.341   0.019   7.810  2.5295 -1.6455 -0.2627
 4151TIP3   OH234011   5.916   0.712   8.705  0.4508 -0.5111  0.6638
 4151TIP3    H134012   5.958   0.785   8.659 -1.8325  0.6306  0.2606
 4151TIP3    H234013   5.962   0.708   8.789  0.6437  1.4179  0.6941
 4152TIP3   OH234014   0.038   5.218   8.470  0.1626  0.4585 -0.0941
 4152TIP3    H134015   0.003   5.135   8.436  4.0353 -0.6180 -1.9704
 4152TIP3    H234016   0.005   5.283   8.408 -0.6785 -0.0514 -0.2180
 4153TIP3   OH234017   6.721   0.689   1.307  0.5312 -0.7826 -0.7284
 4153TIP3    H134018   6.729   0.718   1.398 -1.4349 -1.9618 -0.1263
 4153TIP3    H234019   6.723   0.769   1.256 -0.3766  0.0888  0.5376
 4154TIP3   OH234020   5.292   2.628   0.182 -0.3441  0.0422  0.0812
 4154TIP3    H134021   5.286   2.723   0.175 -0.7304 -0.0536 -1.1154
 4154TIP3    H234022   5.318   2.612   0.273 -2.1598  1.1969  0.8520
 4155TIP3   OH234023   6.321   6.416   0.629 -0.8204 -0.2347  0.0402
 4155TIP3    H134024   6.357   6.340   0.673 -0.5235 -0.1964 -0.1362
 4155TIP3    H234025   6.366   6.420   0.545 -0.0823  0.7267  0.4603
 4156TIP3   OH234026   5.829   3.759   1.400 -0.1171 -0.0929  0.3425
 4156TIP3    H134027   5.772   3.700   1.450  0.7741 -0.3516  1.0957
 4156TIP3    H234028   5.844   3.833   1.459  1.9483 -0.9689  1.0201
 4157TIP3   OH234029   4.235   2.514   2.706  0.2622  0.1856 -0.0230
 4157TIP3    H134030   4.158   2.457   2.711  0.2912  0.2065  0.8533
 4157TIP3    H234031   4.283   2.483   2.629  0.5415 -1.3245  0.7146
 4158TIP3   OH234032   5.851   1.545   2.042 -0.9937 -0.0034  0.0210
 4158TIP3    H134033   5.919   1.605   2.012 -0.1534 -1.1479 -0.4393
 4158TIP3    H234034   5.805   1.593   2.111 -0.0107  0.9617  0.0296
 4159TIP3   OH234035   1.350   1.940   1.055  0.8348  0.2560 -0.7010
 4159TIP3    H134036   1.300   1.985   0.986  0.8446 -0.0986 -0.9389
 4159TIP3    H234037   1.415   2.005   1.083  1.8071 -0.0898 -2.0648
 4160TIP3   OH234038   6.744   6.051   1.968  0.3727 -0.4484  0.1494
 4160TIP3    H134039   6.774   6.116   2.032  0.5993 -0.5641  0.1603
 4160TIP3    H234040   6.663   6.088   1.933  0.6987  0.0244 -0.1170
 4161TIP3   OH234041   5.722   5.004   1.088  0.1756 -0.3917 -0.1464
 4161TIP3    H134042   5.680   5.076   1.042  0.6077 -0.5207 -0.7460
 4161TIP3    H234043   5.746   4.942   1.020 -1.3890 -1.7586  0.4656
 4162TIP3   OH234044   3.601   1.693   0.988 -0.4092  0.3251  0.5908
 4162TIP3    H134045   3.657   1.770   0.993 -1.0909  0.8860 -0.1528
 4162TIP3    H234046   3.530   1.718   0.928  0.0624 -1.3201 -0.7524
 4163TIP3   OH234047   4.705   1.078   2.237  0.0258  0.2176  0.2206
 4163TIP3    H134048   4.772   1.018   2.272 -0.4763  0.2812  1.3299
 4163TIP3    H234049   4.680   1.131   2.312 -1.0841  0.3690 -0.2488
 4164TIP3   OH234050   4.781   5.110   0.849 -0.0672 -0.3749  0.1771
 4164TIP3    H134051   4.694   5.138   0.820  1.1793  3.0200 -0.7378
 4164TIP3    H234052   4.769   5.087   0.941 -1.6356  2.1553  0.7117
 4165TIP3   OH234053   4.448   2.721   2.466 -0.0355 -0.1614  0.4897
 4165TIP3    H134054   4.363   2.708   2.424  0.3920  0.6376 -0.6981
 4165TIP3    H234055   4.479   2.805   2.431  0.8739 -0.0277  1.5452
 4166TIP3   OH234056   1.852   4.120   8.315  0.2169 -0.1591  0.3583
 4166TIP3    H134057   1.757   4.111   8.320  0.3480 -1.3028  1.0751
 4166TIP3    H234058   1.870   4.143   8.224 -0.6086 -1.8231 -0.2508
 4167TIP3   OH234059   4.659   6.563   1.756  0.3134  0.7075 -0.9204
 4167TIP3    H134060   4.674   6.618   1.833 -0.8169  1.7617 -1.4202
 4167TIP3    H234061   4.601   6.494   1.787 -0.1972  1.1702 -0.8292
 4168TIP3   OH234062   3.647   0.609   0.657 -0.9548  0.0786  0.5057
 4168TIP3    H134063   3.665   0.538   0.596 -0.0649  0.3353  0.4565
 4168TIP3    H234064   3.613   0.566   0.736  0.2924 -0.4734  0.7646
 4169TIP3   OH234065   6.676   0.216   1.406  0.1021 -0.6646  0.4646
 4169TIP3    H134066   6.611   0.162   1.361 -1.3183  0.2917  1.3173
 4169TIP3    H234067   6.689   0.291   1.348  0.7599 -1.0451  0.1095
 4170TIP3   OH234068   2.414   5.403   8.733 -0.2538 -0.1285  0.0511
 4170TIP3    H134069   2.442   5.420   8.823 -0.7770 -0.5458  0.2960
 4170TIP3    H234070   2.362   5.323   8.739 -0.1260 -0.2684 -0.6544
 4171TIP3   OH234071   4.024   1.227   8.354 -0.3544  0.1207  0.5391
 4171TIP3    H134072   4.111   1.212   8.318  0.4136  2.3648  1.2958
 4171TIP3    H234073   3.998   1.143   8.390  1.4603 -0.6113  0.2407
 4172TIP3   OH234074   0.611   2.971   3.150  0.2569 -0.0117  0.3756
 4172TIP3    H134075   0.681   3.036   3.144  0.7740 -0.5450  0.5654
 4172TIP3    H234076   0.654   2.893   3.184  0.0383 -1.0703 -1.6571
 4173TIP3   OH234077   3.381   0.713   0.214  0.5722  0.0599 -0.2429
 4173TIP3    H134078   3.377   0.736   0.306 -0.9760 -0.3414 -0.1695
 4173TIP3    H234079   3.461   0.661   0.205  0.8591  0.2935  0.8123
 4174TIP3   OH234080   1.105   2.843   1.399  0.0226 -0.0011  0.1558
 4174TIP3    H134081   1.170   2.881   1.458 -0.3311  0.8543  0.0235
 4174TIP3    H234082   1.114   2.895   1.318 -1.0271  0.3412  0.2454
 4175TIP3   OH234083   2.568   4.391   0.197 -0.6782  0.0411 -0.2089
 4175TIP3    H134084   2.620   4.389   0.117 -0.4512  0.9906 -0.1005
 4175TIP3    H234085   2.566   4.483   0.222 -0.0216 -0.3223  1.3432
 4176TIP3   OH234086   1.433   6.118   8.345  0.2922  0.2348 -0.0270
 4176TIP3    H134087   1.448   6.152   8.434 -0.3963 -0.7980  0.5140
 4176TIP3    H234088   1.519   6.116   8.305  0.5739  1.0090  0.5162
 4177TIP3   OH234089   1.533   2.444   7.209  0.0053  0.0685  0.3605
 4177TIP3    H134090   1.521   2.374   7.145 -0.1432  1.3514 -1.0811
 4177TIP3    H234091   1.482   2.416   7.285 -1.5564 -0.5413 -0.8607
 4178TIP3   OH234092   4.241   4.724   2.048  0.0934 -0.4001 -0.1227
 4178TIP3    H134093   4.321   4.675   2.028  0.0781 -0.3631 -0.2766
 4178TIP3    H234094   4.170   4.670   2.013  0.0987 -0.1214 -0.5691
 4179TIP3   OH234095   0.668   4.774   8.702  0.1858  0.5058 -0.1601
 4179TIP3    H134096   0.660   4.683   8.673 -0.6985  1.0964 -1.8824
 4179TIP3    H234097   0.640   4.826   8.627  3.2911  2.3253 -0.2330
 4180TIP3   OH234098   3.320   4.863   0.835  0.0683  0.2611  0.1149
 4180TIP3    H134099   3.321   4.785   0.779 -0.0468 -0.1092  0.6262
 4180TIP3    H234100   3.228   4.886   0.842  0.2251  1.7057 -1.7567
 4181TIP3   OH234101   4.438   5.520   0.814  0.1676  0.0112  0.1979
 4181TIP3    H134102   4.346   5.500   0.801  0.2733 -0.9098  0.8006
 4181TIP3    H234103   4.457   5.589   0.750 -0.8760  0.0481 -0.0799
 4182TIP3   OH234104   3.903   5.255   2.649  0.0774 -0.2880 -0.1800
 4182TIP3    H134105   3.877   5.183   2.591 -0.6118 -0.2126  0.0211
 4182TIP3    H234106   3.821   5.282   2.691  0.0834  1.5779 -1.3047
 4183TIP3   OH234107   2.931   5.690   8.178  0.4320 -0.7189 -0.5322
 4183TIP3    H134108   2.963   5.651   8.260  1.1059  0.6223 -0.1280
 4183TIP3    H234109   2.837   5.700   8.192  0.4644 -0.9664 -0.1162
 4184TIP3   OH234110   0.912   3.025   7.664  0.3878  0.2297 -0.3278
 4184TIP3    H134111   1.003   3.053   7.654  0.6436 -0.6991 -0.6595
 4184TIP3    H234112   0.883   3.067   7.745  1.0349  0.7265 -0.3479
 4185TIP3   OH234113   4.928   5.319   7.321  1.0617  0.3145  0.3054
 4185TIP3    H134114   4.889   5.239   7.287  0.8307  0.0657  1.1543
 4185TIP3    H234115   4.866   5.388   7.299  1.1045  0.2197 -0.1276
 4186TIP3   OH234116   5.941   5.952   1.966 -0.2098 -0.2624 -0.8501
 4186TIP3    H134117   5.983   5.937   1.881 -1.3221  0.5837 -1.5864
 4186TIP3    H234118   5.847   5.943   1.948 -0.4453 -0.5265  0.4013
 4187TIP3   OH234119   6.003   3.096   7.845  0.8257 -0.5086 -0.2350
 4187TIP3    H134120   5.938   3.151   7.887  0.7488 -0.8525  0.1106
 4187TIP3    H234121   6.085   3.144   7.855  0.5971  0.0018 -0.8209
 4188TIP3   OH234122   5.514   1.517   7.261  0.2727  0.5027 -0.6521
 4188TIP3    H134123   5.529   1.489   7.171 -0.9473  1.8369 -1.3155
 4188TIP3    H234124   5.490   1.437   7.307 -0.4807 -0.0084 -1.8612
 4189TIP3   OH234125   6.565   1.403   1.871  0.4840 -0.0840 -0.0774
 4189TIP3    H134126   6.506   1.476   1.893 -0.0254 -0.1477 -1.1619
 4189TIP3    H234127   6.642   1.417   1.926  0.0137  0.7590  0.3942
 4190TIP3   OH234128   4.316   1.258   0.220 -0.2095  0.2729  0.0808
 4190TIP3    H134129   4.303   1.239   0.127  0.1036  2.0808 -0.3771
 4190TIP3    H234130   4.406   1.290   0.225  0.8522 -2.6142  1.5458
 4191TIP3   OH234131   0.875   4.896   1.066  0.2276  0.2078 -0.2496
 4191TIP3    H134132   0.824   4.909   1.146  1.1496 -0.6455  0.5135
 4191TIP3    H234133   0.885   4.801   1.059  0.3404  0.2846 -1.2724
 4192TIP3   OH234134   6.684   3.497   8.459 -0.1525  0.3189  0.6527
 4192TIP3    H134135   6.732   3.414   8.458 -0.4049  0.1485  1.4548
 4192TIP3    H234136   6.743   3.559   8.503 -0.5824  0.1514  1.4883
 4193TIP3   OH234137   0.328   2.179   2.363  0.1426  0.1510  0.5097
 4193TIP3    H134138   0.313   2.085   2.375  1.4474  0.0346  1.3281
 4193TIP3    H234139   0.259   2.220   2.414 -1.5186 -0.3067 -1.2156
 4194TIP3   OH234140   6.274   5.538   0.068 -0.1890 -0.5129  0.6111
 4194TIP3    H134141   6.212   5.512  -0.000 -0.4716 -1.3211  1.1674
 4194TIP3    H234142   6.339   5.591   0.021 -0.1437 -1.3984 -0.3780
 4195TIP3   OH234143   5.841   0.930   1.717  0.2864 -0.6966  0.6426
 4195TIP3    H134144   5.813   0.938   1.808  0.6640  0.4046  0.6747
 4195TIP3    H234145   5.773   0.876   1.676 -0.2735 -0.5867  1.4029
 4196TIP3   OH234146   0.241   0.532   1.908 -0.0687  0.3588  0.3985
 4196TIP3    H134147   0.309   0.471   1.937  0.4914 -0.2663 -2.0417
 4196TIP3    H234148   0.197   0.559   1.989  1.9115 -0.5947  1.8683
 4197TIP3   OH234149   5.349   2.241   2.209  0.5567 -0.0178 -0.4216
 4197TIP3    H134150   5.398   2.190   2.273 -0.2366 -1.2371 -0.7616
 4197TIP3    H234151   5.281   2.286   2.260  1.8899  1.5776  0.0318
 4198TIP3   OH234152   6.065   6.262   8.571 -0.1599  0.5959  0.1024
 4198TIP3    H134153   5.993   6.257   8.509  0.2736  1.0251 -0.4383
 4198TIP3    H234154   6.119   6.335   8.541  0.7803 -0.0295  0.2070
 4199TIP3   OH234155   4.770   5.824   1.274 -0.0925 -0.5619  0.2493
 4199TIP3    H134156   4.763   5.861   1.186  0.3851  0.1999  0.5208
 4199TIP3    H234157   4.679   5.816   1.304 -0.3294 -2.0308 -0.7870
 4200TIP3   OH234158   5.648   0.550   8.022 -0.3929  0.2927  0.8139
 4200TIP3    H134159   5.700   0.594   8.088 -0.3393 -0.6104  1.4005
 4200TIP3    H234160   5.559   0.584   8.034 -0.0490  1.4662  0.1356
 4201TIP3   OH234161   2.441   0.436   8.419  0.2148  0.5618 -0.1597
 4201TIP3    H134162   2.351   0.404   8.428  0.3491 -0.2882 -1.6664
 4201TIP3    H234163   2.433   0.517   8.369  0.4165 -0.6287 -2.2441
 4202TIP3   OH234164   0.099   1.351   8.100  0.0107  0.2701 -0.8284
 4202TIP3    H134165   0.078   1.441   8.078  0.3460  1.1077  1.8979
 4202TIP3    H234166   0.019   1.302   8.084 -1.2097  1.6879  0.5911
 4203TIP3   OH234167   2.933   4.578   0.831 -0.3493  0.1644  0.0136
 4203TIP3    H134168   2.843   4.559   0.805 -0.2353 -0.5013  0.0712
 4203TIP3    H234169   2.939   4.549   0.922  0.7687 -2.9377 -0.9027
 4204TIP3   OH234170   1.443   5.215   8.024  0.0669  0.4918 -0.2474
 4204TIP3    H134171   1.418   5.234   8.115  2.6861  0.6621  0.5066
 4204TIP3    H234172   1.440   5.300   7.980  1.4167  0.8887  0.3982
 4205TIP3   OH234173   1.935   1.563   1.460  0.0318  0.6546  1.0158
 4205TIP3    H134174   1.970   1.474   1.445 -0.2801  0.5602  0.8345
 4205TIP3    H234175   2.013   1.617   1.471  0.2150  0.2145  1.9887
 4206TIP3   OH234176   2.604   5.392   0.837  0.8492 -0.0528 -0.0328
 4206TIP3    H134177   2.546   5.356   0.770  2.2144 -1.3063 -0.5955
 4206TIP3    H234178   2.548   5.403   0.914 -0.4405  0.1540 -0.9783
 4207TIP3   OH234179   3.431   6.663   2.295 -0.0284 -0.4161  0.0046
 4207TIP3    H134180   3.480   6.675   2.376 -0.0864 -0.6937  0.0807
 4207TIP3    H234181   3.494   6.685   2.226 -0.5558  1.8687  0.1581
 4208TIP3   OH234182   3.397   1.364   2.320 -0.0697  0.1253 -0.2596
 4208TIP3    H134183   3.318   1.326   2.358  0.2606 -1.5523 -1.1501
 4208TIP3    H234184   3.469   1.318   2.363  0.3407 -0.3831 -1.4475
 4209TIP3   OH234185   5.021   2.156   1.546 -0.0085 -0.3210 -0.2672
 4209TIP3    H134186   4.963   2.162   1.621 -1.2007 -2.0783 -0.9739
 4209TIP3    H234187   4.993   2.225   1.487  0.2521  0.4015  0.4433
 4210TIP3   OH234188   3.470   6.727   7.283 -0.3434 -0.4736 -0.2585
 4210TIP3    H134189   3.540   6.793   7.282 -1.3097  0.5891 -0.0494
 4210TIP3    H234190   3.516   6.644   7.286  0.9248  0.1817 -0.6379
 4211TIP3   OH234191   3.693   5.245   1.357  0.4028  0.2398  0.0917
 4211TIP3    H134192   3.649   5.215   1.277  1.0202 -0.3565 -0.0397
 4211TIP3    H234193   3.758   5.177   1.375  2.9293  2.1583 -1.0616
 4212TIP3   OH234194   3.676   6.730   0.531 -0.1672 -0.5496 -0.0572
 4212TIP3    H134195   3.620   6.691   0.598 -0.2115  1.9038  1.4579
 4212TIP3    H234196   3.614   6.770   0.469 -0.1022 -0.8916 -0.3458
 4213TIP3   OH234197   1.908   6.793   8.190 -0.1894  0.5730 -0.0847
 4213TIP3    H134198   1.834   6.826   8.139  1.4907  2.5037 -1.4203
 4213TIP3    H234199   1.888   6.817   8.280 -2.0190 -0.6263 -0.1123
 4214TIP3   OH234200   0.406   6.674   1.155 -0.0941  0.1133  0.0303
 4214TIP3    H134201   0.378   6.741   1.094  1.9139  1.7949  0.8123
 4214TIP3    H234202   0.356   6.596   1.131 -3.2330  2.0868 -0.3190
 4215TIP3   OH234203   0.734   0.764   8.008 -0.0514 -0.2869 -0.5172
 4215TIP3    H134204   0.638   0.767   8.015 -0.1075 -0.6755 -1.0443
 4215TIP3    H234205   0.759   0.685   8.057  0.0155 -0.0854 -0.2256
 4216TIP3   OH234206   5.889   0.135   2.879  0.2053  0.0376 -0.0339
 4216TIP3    H134207   5.821   0.128   2.946 -0.4309 -0.3542 -0.7022
 4216TIP3    H234208   5.845   0.171   2.802  0.5492 -0.9432 -0.7287
 4217TIP3   OH234209   6.295   2.305   0.291 -0.8057  0.2184  0.4030
 4217TIP3    H134210   6.349   2.383   0.299 -1.7617  0.8139  1.2846
 4217TIP3    H234211   6.208   2.338   0.267 -1.1703 -0.5847  0.5760
 4218TIP3   OH234212   2.363   5.146   7.876  0.1620  0.4488 -0.7006
 4218TIP3    H134213   2.302   5.155   7.802 -2.0069  1.1623  1.0695
 4218TIP3    H234214   2.429   5.214   7.860 -0.1769  0.5086 -2.0189
 4219TIP3   OH234215   3.966   4.117   8.272 -0.2373  0.3401 -0.2712
 4219TIP3    H134216   4.002   4.113   8.361  0.7710  3.6319 -0.3975
 4219TIP3    H234217   3.876   4.148   8.284 -0.4595 -0.2761 -0.3438
 4220TIP3   OH234218   3.311   3.696   8.089 -0.2234 -0.3358 -0.3847
 4220TIP3    H134219   3.354   3.708   8.004  1.2745 -1.1999  0.1996
 4220TIP3    H234220   3.235   3.640   8.070  1.5171 -2.7002 -0.8637
 4221TIP3   OH234221   4.924   3.671   8.144 -0.3973  0.0548 -0.3595
 4221TIP3    H134222   4.874   3.743   8.105 -1.4950 -1.2398 -1.4662
 4221TIP3    H234223   4.947   3.615   8.070 -1.3547 -1.7730  0.6596
 4222TIP3   OH234224   0.130   1.195   7.635 -0.9039  0.3816 -0.1290
 4222TIP3    H134225   0.087   1.244   7.565  0.6038  1.5879 -0.2561
 4222TIP3    H234226   0.111   1.245   7.714 -0.4122  0.4768 -0.0694
 4223TIP3   OH234227   3.036   3.688   0.349 -0.3244 -0.0251 -0.1206
 4223TIP3    H134228   3.016   3.761   0.290  0.1901 -1.3477 -2.0397
 4223TIP3    H234229   2.975   3.619   0.322  2.0509 -1.7703 -1.4208
 4224TIP3   OH234230   4.165   2.121   2.814  0.1578 -0.2314  0.2159
 4224TIP3    H134231   4.148   2.033   2.849  0.3489 -1.1027 -1.7569
 4224TIP3    H234232   4.083   2.147   2.773  0.3040  0.2390  0.2189
 4225TIP3   OH234233   6.025   5.920   8.442 -0.3475  0.1983 -0.1074
 4225TIP3    H134234   5.983   6.007   8.437 -0.7639  0.1211  1.5361
 4225TIP3    H234235   5.963   5.867   8.492  0.4900 -0.6944  0.0001
 4226TIP3   OH234236   2.732   3.639   0.314  0.1491  0.2386 -0.0530
 4226TIP3    H134237   2.713   3.721   0.268 -0.7294 -0.3347 -0.7546
 4226TIP3    H234238   2.662   3.632   0.379  0.8815  0.6040  0.7930
 4227TIP3   OH234239   2.098   0.829   7.904 -0.2520  0.0353  0.8202
 4227TIP3    H134240   2.088   0.827   7.808  0.1659 -2.5595  0.7794
 4227TIP3    H234241   2.015   0.796   7.937 -0.4641  1.1000  1.4114
 4228TIP3   OH234242   1.562   2.325   8.054  0.2551  0.6855 -0.3650
 4228TIP3    H134243   1.649   2.339   8.017  0.9400  0.0809  0.9592
 4228TIP3    H234244   1.558   2.231   8.072 -0.9571  0.5800 -1.0575
 4229TIP3   OH234245   6.611   1.965   2.457 -0.1004 -0.4375  0.5272
 4229TIP3    H134246   6.578   1.984   2.545 -0.9325 -1.8714  0.5572
 4229TIP3    H234247   6.562   2.025   2.400  1.0289  1.0658  1.0967
 4230TIP3   OH234248   1.255   0.046   7.484  0.0079 -0.3874  0.8668
 4230TIP3    H134249   1.201   0.003   7.418  0.6371 -1.6799  1.1716
 4230TIP3    H234250   1.233   0.139   7.476 -1.8814 -0.8153  0.6507
 4231TIP3   OH234251   6.077   3.403   8.311 -0.2517  0.3766  0.4201
 4231TIP3    H134252   5.988   3.368   8.306  0.5326 -2.0804  1.7539
 4231TIP3    H234253   6.106   3.406   8.220 -0.7102 -1.7420  0.1365
 4232TIP3   OH234254   4.894   2.877   8.614 -0.2373 -0.0666  0.2532
 4232TIP3    H134255   4.969   2.933   8.635  0.5369 -0.9413 -0.0567
 4232TIP3    H234256   4.928   2.788   8.625 -0.7725 -0.5074 -1.3644
 4233TIP3   OH234257   1.541   4.272   0.987  0.1470 -0.5470 -0.2180
 4233TIP3    H134258   1.513   4.315   1.067 -0.7939  1.5572 -1.5831
 4233TIP3    H234259   1.493   4.190   0.984 -0.2766 -0.3536  1.0464
 4234TIP3   OH234260   2.447   0.108   2.173 -0.0393 -0.0957  0.5780
 4234TIP3    H134261   2.415   0.115   2.083 -1.3665 -1.3456  0.9205
 4234TIP3    H234262   2.374   0.137   2.227  0.0281 -1.2439  1.3163
 4235TIP3   OH234263   5.017   4.162   8.177 -0.4024 -1.2150  0.1132
 4235TIP3    H134264   4.930   4.140   8.144 -0.2048 -1.1069 -0.4856
 4235TIP3    H234265   5.077   4.131   8.110  0.0276 -1.3425  0.5529
 4236TIP3   OH234266   5.283   3.064   8.628  0.1152  0.0452 -0.3518
 4236TIP3    H134267   5.288   2.997   8.559 -2.4711 -1.3605  0.6874
 4236TIP3    H234268   5.360   3.048   8.682 -0.2481 -1.9248 -0.3233
 4237TIP3   OH234269   5.656   0.455   8.363  0.0371  0.1576 -0.2150
 4237TIP3    H134270   5.659   0.360   8.353  0.5726  0.1777 -0.2643
 4237TIP3    H234271   5.592   0.469   8.432  2.0099 -0.4190  1.8618
 4238TIP3   OH234272   3.904   5.694   8.687  0.3247 -0.5134  0.0919
 4238TIP3    H134273   3.997   5.688   8.668  0.7182  0.0063  1.6629
 4238TIP3    H234274   3.895   5.777   8.734 -0.6980 -1.1996  1.1657
 4239TIP3   OH234275   5.993   0.644   3.450  0.3514 -0.0991  0.2286
 4239TIP3    H134276   6.013   0.605   3.365  0.1436  2.7707 -1.2565
 4239TIP3    H234277   6.075   0.635   3.499  0.7607 -1.0120 -0.5762
 4240TIP3   OH234278   1.810   3.451   1.704  0.4036 -0.0131  0.4305
 4240TIP3    H134279   1.774   3.383   1.648  0.1710  0.0323  0.5228
 4240TIP3    H234280   1.811   3.412   1.791 -2.1527  0.9469  0.9802
 4241TIP3   OH234281   1.861   0.143   7.519 -0.2083 -0.2201 -0.2427
 4241TIP3    H134282   1.889   0.067   7.571 -1.4331  0.2277  1.1352
 4241TIP3    H234283   1.842   0.211   7.584 -0.1741  0.9249 -1.3918
 4242TIP3   OH234284   3.829   1.040   1.250 -0.1693  0.0684 -0.1090
 4242TIP3    H134285   3.786   0.956   1.267  0.1361 -0.2854 -0.9782
 4242TIP3    H234286   3.910   1.016   1.203  0.5909  0.7686  0.8026
 4243TIP3   OH234287   1.393   1.310   1.105  0.2242 -0.0311  0.2125
 4243TIP3    H134288   1.444   1.261   1.041  0.6414 -2.8869  2.5272
 4243TIP3    H234289   1.303   1.304   1.073  0.4632 -1.0774 -0.3195
 4244TIP3   OH234290   6.496   5.816   1.463  0.2367  0.2355 -0.2125
 4244TIP3    H134291   6.530   5.728   1.446  2.0875  1.0816 -1.2113
 4244TIP3    H234292   6.428   5.828   1.397 -1.6147 -1.2006  1.3160
 4245TIP3   OH234293   0.198   6.190   2.815 -0.2978  0.3225  0.3595
 4245TIP3    H134294   0.199   6.250   2.890  1.9838 -0.3648  0.9805
 4245TIP3    H234295   0.211   6.104   2.854 -1.4596 -0.3509 -0.6814
 4246TIP3   OH234296   4.776   2.914   1.615  0.4456  0.0592  0.1025
 4246TIP3    H134297   4.851   2.890   1.669 -0.2723  0.9249  1.5616
 4246TIP3    H234298   4.734   2.830   1.594 -0.4816 -0.2380  2.7890
 4247TIP3   OH234299   0.089   6.718   2.358  0.1092 -0.0453 -0.0879
 4247TIP3    H134300   0.049   6.789   2.408 -0.2650  0.5069 -1.1345
 4247TIP3    H234301   0.125   6.659   2.424  2.7936  2.4050  0.8520
 4248TIP3   OH234302   4.437   3.510   7.738 -0.2095  0.1413 -0.8944
 4248TIP3    H134303   4.461   3.531   7.828  1.4698  1.3746 -1.5779
 4248TIP3    H234304   4.353   3.553   7.724 -0.4671 -0.0409  0.0676
 4249TIP3   OH234305   1.880   1.306   0.689 -0.0693  0.1096 -0.0426
 4249TIP3    H134306   1.931   1.307   0.770  2.4209 -0.4878 -1.4963
 4249TIP3    H234307   1.934   1.355   0.626 -2.2332  1.1442 -1.2147
 4250TIP3   OH234308   2.372   2.477   0.456 -0.1359  0.3676  0.5075
 4250TIP3    H134309   2.457   2.519   0.474 -0.0822 -0.1037  1.3957
 4250TIP3    H234310   2.336   2.527   0.383  0.4375  1.2465  0.8054
 4251TIP3   OH234311   3.013   6.368   0.621 -0.3270 -0.4181  0.3033
 4251TIP3    H134312   2.918   6.379   0.628 -0.4821 -1.7285  0.4411
 4251TIP3    H234313   3.024   6.292   0.563  0.6507 -0.0172 -0.0618
 4252TIP3   OH234314   4.577   1.532   7.148 -0.4020  0.5843  0.2828
 4252TIP3    H134315   4.606   1.446   7.177  1.3219  0.8825 -0.4446
 4252TIP3    H234316   4.552   1.519   7.056 -0.6628  0.7478  0.3301
 4253TIP3   OH234317   2.913   3.585   2.418  0.2570 -1.0846  0.0990
 4253TIP3    H134318   2.990   3.615   2.467 -0.0429  2.8052 -1.4395
 4253TIP3    H234319   2.843   3.581   2.483  1.2085 -2.5813  1.1117
 4254TIP3   OH234320   4.300   2.757   7.350 -0.0396  0.4404 -0.0076
 4254TIP3    H134321   4.297   2.805   7.432  1.9993  0.3049  0.2078
 4254TIP3    H234322   4.259   2.673   7.370  0.8173  0.2409  1.0227
 4255TIP3   OH234323   5.821   2.187   8.596  0.4196 -0.2273  0.2160
 4255TIP3    H134324   5.773   2.148   8.669 -1.7452 -0.0279 -1.0106
 4255TIP3    H234325   5.879   2.118   8.565 -1.2911 -1.5781 -0.1293
 4256TIP3   OH234326   1.614   6.082   7.960 -0.7610 -0.1000 -0.5963
 4256TIP3    H134327   1.668   6.081   8.040 -0.0550 -0.9869 -1.0690
 4256TIP3    H234328   1.599   6.175   7.944 -0.8610  0.1003  0.5318
 4257TIP3   OH234329   0.698   0.528   8.367 -0.0624 -0.2117  0.7358
 4257TIP3    H134330   0.631   0.572   8.419 -1.0369 -0.7049 -0.0797
 4257TIP3    H234331   0.759   0.598   8.343 -1.2205  0.5980  0.0360
 4258TIP3   OH234332   0.283   1.072   7.276 -0.1607  1.0892  0.6301
 4258TIP3    H134333   0.332   1.140   7.229  1.2398  0.8124  1.6190
 4258TIP3    H234334   0.328   0.991   7.253 -1.2681  0.5999  0.1646
 4259TIP3   OH234335   1.900   4.717   6.987 -0.3749 -0.5128 -0.0561
 4259TIP3    H134336   1.926   4.647   6.927  2.0134  0.8342 -0.7109
 4259TIP3    H234337   1.973   4.778   6.986 -1.5607  1.0669  1.9670
 4260TIP3   OH234338   3.854   2.802   0.220  0.0777  0.4783 -0.5240
 4260TIP3    H134339   3.900   2.762   0.294 -0.2313  1.2188  0.0820
 4260TIP3    H234340   3.875   2.895   0.226 -0.6698  0.6774 -0.8431
 4261TIP3   OH234341   5.257   3.275   7.463 -0.6278 -0.1603 -0.2668
 4261TIP3    H134342   5.190   3.213   7.435  0.2137  0.4486 -4.1546
 4261TIP3    H234343   5.324   3.220   7.504 -1.8914 -1.1911  0.5183
 4262TIP3   OH234344   4.795   0.549   3.153  0.3803  0.1562  0.2160
 4262TIP3    H134345   4.775   0.464   3.114  0.9783  0.3326 -0.5099
 4262TIP3    H234346   4.719   0.570   3.206 -0.0357 -0.5551 -0.0852
 4263TIP3   OH234347   1.049   3.013   1.194  0.5322 -0.0303 -0.7124
 4263TIP3    H134348   1.091   2.970   1.119 -0.9210 -1.8005 -0.5786
 4263TIP3    H234349   0.958   3.022   1.168  0.5576  1.9848 -0.2492
 4264TIP3   OH234350   5.528   6.829   7.929  0.6691  0.2407  0.3168
 4264TIP3    H134351   5.508   6.812   7.837  0.9327  0.0232  0.2944
 4264TIP3    H234352   5.456   6.788   7.977 -0.9538  2.7112  0.1472
 4265TIP3   OH234353   6.175   5.416   2.347 -0.4463 -0.2338 -0.1149
 4265TIP3    H134354   6.124   5.348   2.391 -0.5456 -0.0757  0.0125
 4265TIP3    H234355   6.122   5.441   2.271  0.8133 -2.2601 -1.7633
 4266TIP3   OH234356   1.015   5.790   1.574 -0.4548  0.4039  0.1698
 4266TIP3    H134357   1.022   5.871   1.625 -0.9638  0.0972  0.7426
 4266TIP3    H234358   1.104   5.775   1.541  0.1521  0.0208  1.8982
 4267TIP3   OH234359   6.528   3.474   7.748 -0.1211  1.0395  0.3510
 4267TIP3    H134360   6.519   3.431   7.833  1.5718 -1.7179 -0.7204
 4267TIP3    H234361   6.603   3.430   7.707 -3.2095 -0.7525 -4.2085
 4268TIP3   OH234362   3.462   5.994   1.787  0.1959  0.1427  0.2329
 4268TIP3    H134363   3.522   5.949   1.846 -0.0681 -0.8084 -0.2165
 4268TIP3    H234364   3.420   5.925   1.737 -1.2092  0.7922  0.4610
 4269TIP3   OH234365   1.284   2.288   0.401 -0.1264 -0.2392 -0.2293
 4269TIP3    H134366   1.258   2.292   0.493 -1.9961 -1.5594 -0.6357
 4269TIP3    H234367   1.305   2.195   0.387  1.7770  0.2328 -0.7606
 4270TIP3   OH234368   0.123   0.312   2.113 -0.2648  0.2998  0.1068
 4270TIP3    H134369   0.211   0.278   2.096 -0.2493  0.4218 -0.0580
 4270TIP3    H234370   0.114   0.308   2.208  0.1686  0.9050  0.1788
 4271TIP3   OH234371   2.397   1.354   1.421  0.2403  0.6561  0.3222
 4271TIP3    H134372   2.410   1.308   1.339  0.6481 -0.5503  1.0354
 4271TIP3    H234373   2.376   1.284   1.484 -0.8837  1.6278  1.0672
 4272TIP3   OH234374   2.229   1.065   0.040  0.5422  0.6264  0.2951
 4272TIP3    H134375   2.165   1.126   0.075 -0.3744 -0.0060 -0.2259
 4272TIP3    H234376   2.244   1.094  -0.050  0.0781  0.0796  0.0353
 4273TIP3   OH234377   4.704   2.175   3.041  0.1737 -0.6398 -0.1798
 4273TIP3    H134378   4.788   2.129   3.050 -0.6505 -2.2792 -0.4580
 4273TIP3    H234379   4.700   2.198   2.948  0.1399 -0.9298 -0.2519
 4274TIP3   OH234380   6.543   4.994   1.109  0.1276  0.1313 -0.0535
 4274TIP3    H134381   6.485   4.983   1.183  1.3240 -3.0433  0.6023
 4274TIP3    H234382   6.486   5.015   1.035 -1.4962 -0.1542  1.0929
 4275TIP3   OH234383   4.593   0.783   0.272  0.1068 -0.1568 -0.4296
 4275TIP3    H134384   4.684   0.797   0.298 -0.3020  0.4249  0.7688
 4275TIP3    H234385   4.558   0.871   0.259  0.1280 -0.4087 -2.4936
 4276TIP3   OH234386   0.880   3.002   1.475  0.3032  0.0614 -0.0698
 4276TIP3    H134387   0.815   2.993   1.405  0.1739 -2.0561  0.2421
 4276TIP3    H234388   0.947   2.937   1.455  1.0791  0.5105  0.9336
 4277TIP3   OH234389   1.660   6.079   2.694 -0.1162 -0.0225 -0.3815
 4277TIP3    H134390   1.646   6.134   2.772  0.4558  0.8422 -0.8691
 4277TIP3    H234391   1.741   6.112   2.656  1.3757 -2.5139  0.3797
 4278TIP3   OH234392   3.604   0.883   1.497 -0.3592 -1.2414  0.1270
 4278TIP3    H134393   3.621   0.793   1.524 -1.3861 -1.3856  0.3370
 4278TIP3    H234394   3.540   0.875   1.425 -1.7043 -0.6358  1.2057
 4279TIP3   OH234395   3.441   2.470   8.665 -0.2234 -0.6858 -0.0888
 4279TIP3    H134396   3.400   2.480   8.751  1.2233 -3.1798  0.9943
 4279TIP3    H234397   3.522   2.520   8.672  1.1228 -2.8578  1.0016
 4280TIP3   OH234398   3.342   0.591   6.723 -0.0100  0.4240  0.5258
 4280TIP3    H134399   3.311   0.527   6.787  0.7562  0.2540  0.7433
 4280TIP3    H234400   3.409   0.544   6.674 -1.7496 -0.0117 -1.5754
 4281TIP3   OH234401   0.811   0.907   2.418 -0.0786 -0.1525  0.3690
 4281TIP3    H134402   0.851   0.922   2.504 -0.6329 -0.6202  0.7117
 4281TIP3    H234403   0.743   0.842   2.434 -1.3951  1.0617 -0.1009
 4282TIP3   OH234404   3.369   3.872   7.567  0.2191 -0.0482 -0.2613
 4282TIP3    H134405   3.355   3.780   7.590  0.7590  0.0008  0.2996
 4282TIP3    H234406   3.357   3.919   7.650 -2.1424  0.6451 -0.9236
 4283TIP3   OH234407   1.456   5.816   8.120  0.7306 -0.2945  0.2617
 4283TIP3    H134408   1.456   5.774   8.034  0.7907  1.6527 -0.7512
 4283TIP3    H234409   1.497   5.901   8.105 -1.4824  1.1254  1.6734
 4284TIP3   OH234410   0.125   6.699   8.761 -0.2015 -0.3793 -0.0093
 4284TIP3    H134411   0.202   6.750   8.736 -1.0018  0.2326 -1.2959
 4284TIP3    H234412   0.144   6.611   8.728 -0.4406 -0.0146 -1.1491
 4285TIP3   OH234413   4.017   3.861   8.525  0.2793 -0.3733 -0.3540
 4285TIP3    H134414   3.977   3.855   8.611  0.6224 -2.6241 -0.2920
 4285TIP3    H234415   4.109   3.880   8.542  0.4557 -1.3650 -0.1910
 4286TIP3   OH234416   5.184   3.281   8.070 -0.3911 -0.3152 -0.6793
 4286TIP3    H134417   5.264   3.327   8.094 -0.8295 -0.3150  0.9381
 4286TIP3    H234418   5.209   3.188   8.070 -0.4063 -0.3305  0.0171
 4287TIP3   OH234419   1.321   0.314   1.165 -0.4317 -0.4125  0.0103
 4287TIP3    H134420   1.291   0.299   1.076 -0.6662 -1.9606  0.3219
 4287TIP3    H234421   1.359   0.230   1.192  1.0742  0.4880  0.8229
 4288TIP3   OH234422   1.375   3.369   1.726 -0.1878  0.1209 -0.5174
 4288TIP3    H134423   1.311   3.371   1.797 -1.3756 -1.7994 -1.4455
 4288TIP3    H234424   1.441   3.306   1.754  0.6849  1.1673 -0.1150
 4289TIP3   OH234425   4.235   2.688   1.513 -0.2395 -0.5417  0.0856
 4289TIP3    H134426   4.286   2.691   1.594  0.5590 -1.7738 -0.3432
 4289TIP3    H234427   4.292   2.727   1.447 -0.4204 -0.6206 -0.1194
 4290TIP3   OH234428   2.608   4.557   8.566  0.0787  0.1010  0.4034
 4290TIP3    H134429   2.656   4.532   8.644  0.0086  0.6951  0.6389
 4290TIP3    H234430   2.675   4.586   8.504  0.2439 -1.4072 -0.1757
 4291TIP3   OH234431   2.093   1.843   8.651  0.1202  0.1442  0.4896
 4291TIP3    H134432   2.059   1.769   8.701 -1.0776  1.0693  1.0830
 4291TIP3    H234433   2.023   1.908   8.652  0.4109  0.5881 -1.5865
 4292TIP3   OH234434   3.331   1.163   0.716 -0.3197  0.6396 -0.0510
 4292TIP3    H134435   3.356   1.146   0.807  0.6144 -2.4813 -0.7558
 4292TIP3    H234436   3.414   1.164   0.668 -0.8336  1.7566 -0.9775
 4293TIP3   OH234437   5.514   6.506   0.137  0.2118 -0.0056  0.2398
 4293TIP3    H134438   5.483   6.417   0.119  2.2796 -0.4842 -1.3299
 4293TIP3    H234439   5.523   6.509   0.232 -1.0848 -1.0261  0.4307
 4294TIP3   OH234440   0.763   5.336   2.601 -0.0573 -0.1102  0.3928
 4294TIP3    H134441   0.694   5.271   2.585  0.0073  0.1960 -1.4146
 4294TIP3    H234442   0.841   5.284   2.620 -0.6152 -0.4735  1.7947
 4295TIP3   OH234443   3.732   1.683   2.690  0.3251  0.2375 -0.4367
 4295TIP3    H134444   3.684   1.601   2.692  2.6717 -1.2499 -0.8608
 4295TIP3    H234445   3.717   1.721   2.777 -0.3091 -0.9585  0.0016
 4296TIP3   OH234446   6.574   2.953   8.476 -0.6833  0.7473  0.0836
 4296TIP3    H134447   6.659   2.941   8.434  0.6504 -0.6210  2.8801
 4296TIP3    H234448   6.590   3.017   8.545 -1.2620 -1.1657  2.1070
 4297TIP3   OH234449   4.256   1.839   1.820 -0.6669  0.0615  0.2102
 4297TIP3    H134450   4.170   1.836   1.862  0.0260  0.0714  1.6641
 4297TIP3    H234451   4.318   1.851   1.892  0.7692 -2.2909 -0.5246
 4298TIP3   OH234452   6.674   5.939   7.532 -0.0833 -0.0606  0.5437
 4298TIP3    H134453   6.605   6.000   7.505 -0.1726 -0.1114  0.6566
 4298TIP3    H234454   6.732   5.934   7.457 -0.9606 -1.1169 -0.0913
 4299TIP3   OH234455   3.224   3.706   0.693  0.8138 -0.3547  0.3571
 4299TIP3    H134456   3.273   3.715   0.775 -0.7474  1.6500  1.1379
 4299TIP3    H234457   3.160   3.777   0.695 -3.7824 -4.0193  0.4877
 4300TIP3   OH234458   3.991   5.866   0.614  0.4366  0.1322  0.5881
 4300TIP3    H134459   3.992   5.784   0.664  1.4841  0.8749  1.8461
 4300TIP3    H234460   4.047   5.925   0.663  1.8188  0.8191 -1.6697
 4301TIP3   OH234461   0.312   4.216   1.487  0.0219  0.3610 -0.0670
 4301TIP3    H134462   0.403   4.224   1.459 -0.0156  0.7793 -0.0762
 4301TIP3    H234463   0.276   4.304   1.478 -0.4302  0.1643 -0.2224
 4302TIP3   OH234464   5.620   3.321   8.678  0.1070 -0.1224 -0.6436
 4302TIP3    H134465   5.656   3.258   8.741 -0.0384  0.3179 -0.1130
 4302TIP3    H234466   5.683   3.322   8.607  0.8309  0.1732 -0.0096
 4303TIP3   OH234467   2.033   2.640   0.029  0.1066  0.3265  0.2833
 4303TIP3    H134468   2.016   2.682   0.113 -0.1460  1.0508 -0.1251
 4303TIP3    H234469   2.004   2.550   0.041  1.6036 -0.0428  1.5004
 4304TIP3   OH234470   5.392   6.826   8.356 -0.0026 -0.1709  0.5686
 4304TIP3    H134471   5.375   6.809   8.263  1.0548  0.9515  0.1439
 4304TIP3    H234472   5.466   6.769   8.377  2.5057  2.4579 -0.4417
 4305TIP3   OH234473   3.458   6.816   8.514 -0.0676  0.3605 -0.2879
 4305TIP3    H134474   3.453   6.759   8.591  0.1626  0.8355  0.0866
 4305TIP3    H234475   3.428   6.761   8.441 -1.7252  0.3427  0.3709
 4306TIP3   OH234476   3.523   1.795   8.578 -0.5087 -0.0725  0.4875
 4306TIP3    H134477   3.604   1.845   8.564  0.9599 -2.1656  1.0503
 4306TIP3    H234478   3.464   1.826   8.509  1.3661  0.3631 -1.0162
 4307TIP3   OH234479   1.722   1.923   6.768  0.5594  0.3039 -1.0314
 4307TIP3    H134480   1.815   1.908   6.784  0.1944 -0.8861  0.1938
 4307TIP3    H234481   1.689   1.838   6.737  0.1811  1.1652 -3.1583
 4308TIP3   OH234482   1.301   2.434   0.999 -0.5795 -0.4502 -0.0729
 4308TIP3    H134483   1.253   2.352   0.983 -1.9207  0.7527 -2.8890
 4308TIP3    H234484   1.244   2.483   1.058 -0.5589 -0.8677  0.3039
 4309TIP3   OH234485   4.666   1.938   1.486 -0.4865  0.5885 -0.7594
 4309TIP3    H134486   4.610   1.953   1.410  1.0588  0.7026 -1.9115
 4309TIP3    H234487   4.722   1.864   1.461 -0.8617 -0.2852  0.8067
 4310TIP3   OH234488   2.382   6.088   7.323  0.1245 -0.1306  0.1738
 4310TIP3    H134489   2.462   6.036   7.310 -0.1330 -0.4459 -0.1720
 4310TIP3    H234490   2.312   6.034   7.286 -0.0134  0.9007 -1.1820
 4311TIP3   OH234491   3.951   1.836   0.621 -0.0921  0.2228 -0.5532
 4311TIP3    H134492   3.890   1.816   0.693  2.1333 -1.3863  1.0448
 4311TIP3    H234493   4.000   1.912   0.652  0.9477 -0.5426 -0.2293
 4312TIP3   OH234494   2.006   4.713   1.231  0.2290  0.7783 -0.0047
 4312TIP3    H134495   2.004   4.684   1.140  1.1503  0.9847 -0.1003
 4312TIP3    H234496   2.021   4.634   1.282  0.1290  0.7202 -0.0661
 4313TIP3   OH234497   0.046   6.263   2.087 -0.3927  0.3307  0.1374
 4313TIP3    H134498   0.020   6.346   2.125  0.5469  0.5911  0.2439
 4313TIP3    H234499   0.139   6.255   2.107 -0.3731 -0.5502 -0.2297
 4314TIP3   OH234500   0.529   3.597   6.925 -0.0350  0.2143 -0.1330
 4314TIP3    H134501   0.612   3.560   6.953  0.4156  1.3900  0.1322
 4314TIP3    H234502   0.468   3.575   6.996  0.0804 -0.4651 -0.2318
 4315TIP3   OH234503   4.307   3.308   0.835  0.0714 -0.2526  0.2306
 4315TIP3    H134504   4.338   3.218   0.829  2.7697  0.6809 -1.0776
 4315TIP3    H234505   4.289   3.333   0.744  0.3932  0.8703  0.4725
 4316TIP3   OH234506   5.526   1.118   1.444 -0.0362  0.1211  0.4050
 4316TIP3    H134507   5.569   1.199   1.474  0.0148 -0.2235  1.2894
 4316TIP3    H234508   5.496   1.076   1.524 -0.0403 -0.7598 -0.0495
 4317TIP3   OH234509   6.790   0.065   0.780 -0.1384 -0.3844  0.7482
 4317TIP3    H134510   6.865   0.011   0.755  0.3716  0.4768  0.3683
 4317TIP3    H234511   6.806   0.086   0.872  1.1001  1.3334  0.1990
 4318TIP3   OH234512   0.687   3.932   8.515 -0.1671  0.0216 -1.0921
 4318TIP3    H134513   0.745   3.864   8.548 -1.8514 -1.9257 -1.9085
 4318TIP3    H234514   0.701   4.006   8.574  0.3425 -1.6883  1.0806
 4319TIP3   OH234515   5.301   3.549   1.370  0.3520  0.2233 -0.5303
 4319TIP3    H134516   5.384   3.502   1.357 -1.4488 -3.4838  0.0853
 4319TIP3    H234517   5.301   3.571   1.463  0.0277 -1.3265 -0.1206
 4320TIP3   OH234518   4.968   4.859   0.140  0.3564  0.0021 -0.7461
 4320TIP3    H134519   4.892   4.889   0.090  0.3049 -0.1022 -0.7304
 4320TIP3    H234520   4.931   4.828   0.223  0.4044 -0.1380 -0.7762
 4321TIP3   OH234521   1.283   3.466   8.442  0.4953  0.2189 -0.1015
 4321TIP3    H134522   1.374   3.494   8.429  0.5026 -0.2050 -1.1034
 4321TIP3    H234523   1.278   3.381   8.398 -0.0815 -0.3274  0.9875
 4322TIP3   OH234524   0.114   2.697   7.687 -0.5584 -0.0285 -0.3103
 4322TIP3    H134525   0.060   2.679   7.610 -1.3612  1.8653 -0.2287
 4322TIP3    H234526   0.079   2.639   7.755 -0.3521 -1.1505 -1.1407
 4323TIP3   OH234527   2.260   3.954   1.619  0.0877 -0.0170 -0.7224
 4323TIP3    H134528   2.277   3.961   1.713 -0.4279 -2.2235 -0.4074
 4323TIP3    H234529   2.176   3.998   1.606  0.3199  0.5837 -0.2179
 4324TIP3   OH234530   1.492   3.074   7.718 -0.1590 -0.5622 -0.1574
 4324TIP3    H134531   1.559   3.113   7.775 -0.6631 -0.5763  0.4586
 4324TIP3    H234532   1.528   2.989   7.693  0.0724 -0.5539  0.1396
 4325TIP3   OH234533   5.427   1.003   7.598  0.1159  0.3353  0.1803
 4325TIP3    H134534   5.461   1.060   7.529  2.9029 -1.2748  0.0516
 4325TIP3    H234535   5.446   1.050   7.679 -1.0186  1.1799 -0.0147
 4326TIP3   OH234536   2.971   0.851   1.364 -0.1327  0.1119 -0.4309
 4326TIP3    H134537   3.045   0.882   1.416  0.8616 -1.0506 -1.0959
 4326TIP3    H234538   2.978   0.898   1.281 -1.0889  1.1658  0.0580
 4327TIP3   OH234539   5.464   1.912   7.721  0.8306 -0.6676  0.5167
 4327TIP3    H134540   5.396   1.859   7.762  0.5760 -1.6201 -1.0438
 4327TIP3    H234541   5.540   1.854   7.716  0.3506 -1.2213 -1.8165
 4328TIP3   OH234542   3.156   6.237   8.460  0.1198 -0.1170 -0.1802
 4328TIP3    H134543   3.241   6.279   8.472 -0.6579  0.9956  1.8525
 4328TIP3    H234544   3.096   6.310   8.442 -0.6550 -0.7286 -0.1149
 4329TIP3   OH234545   1.291   5.338   1.065  0.7119 -0.2522  0.3344
 4329TIP3    H134546   1.314   5.404   1.000  1.6626 -2.4016 -1.6587
 4329TIP3    H234547   1.355   5.350   1.135  1.2383  0.5474 -0.2600
 4330TIP3   OH234548   6.493   6.824   0.751 -0.0113 -0.0722 -0.1689
 4330TIP3    H134549   6.463   6.913   0.735  1.2014  0.3561 -0.1375
 4330TIP3    H234550   6.581   6.821   0.714  0.6083 -0.7651  1.2866
 4331TIP3   OH234551   4.753   1.735   0.397 -0.4767 -0.1819  0.1436
 4331TIP3    H134552   4.696   1.664   0.428 -0.4934  0.1114  0.7902
 4331TIP3    H234553   4.695   1.809   0.384 -0.4343 -0.2381 -0.3925
 4332TIP3   OH234554   3.799   2.103   7.882  0.3808 -0.1946  0.1892
 4332TIP3    H134555   3.855   2.044   7.931 -0.0771 -0.5286  0.3139
 4332TIP3    H234556   3.799   2.069   7.793  0.1942 -0.3319  0.2401
 4333TIP3   OH234557   5.874   4.534   0.962 -0.6107  0.5253  0.0549
 4333TIP3    H134558   5.789   4.560   0.997 -0.1935  0.6700  1.0150
 4333TIP3    H234559   5.924   4.615   0.957 -0.8657  0.6117 -1.5431
 4334TIP3   OH234560   6.301   5.684   7.598 -0.1731  0.1094 -0.2722
 4334TIP3    H134561   6.302   5.668   7.693  0.8172  1.0169 -0.1108
 4334TIP3    H234562   6.217   5.730   7.583  0.8493  2.4650  0.6576
 4335TIP3   OH234563   5.916   1.906   2.264  0.5743  0.3194 -0.5516
 4335TIP3    H134564   5.902   1.969   2.334  2.9209  0.4172 -0.0929
 4335TIP3    H234565   5.846   1.841   2.276  0.1302  1.0439  1.0300
 4336TIP3   OH234566   6.152   6.076   7.861 -1.0777 -0.2471 -0.2816
 4336TIP3    H134567   6.174   5.983   7.857 -0.1688 -0.1920  1.9823
 4336TIP3    H234568   6.218   6.114   7.920 -1.5214  1.8148 -1.0112
 4337TIP3   OH234569   1.978   1.928   2.411 -0.1018  0.3193 -0.0773
 4337TIP3    H134570   1.990   2.023   2.402 -1.6737  0.6859  1.3345
 4337TIP3    H234571   1.916   1.905   2.342  1.1575  0.0636 -1.1818
 4338TIP3   OH234572   5.655   5.100   1.346  0.5922 -0.4423 -0.2559
 4338TIP3    H134573   5.564   5.079   1.366 -0.8200  3.2699 -1.7994
 4338TIP3    H234574   5.662   5.086   1.252  0.5031  2.3101 -0.7560
 4339TIP3   OH234575   4.835   1.524   0.966 -0.1863 -0.2716  0.1878
 4339TIP3    H134576   4.839   1.613   1.000  0.6613  0.1405 -0.9416
 4339TIP3    H234577   4.816   1.534   0.873  0.6456 -1.2243 -0.1092
 4340TIP3   OH234578   2.228   1.968   0.989 -0.2173  0.0052  0.2083
 4340TIP3    H134579   2.222   1.933   1.078 -1.8128  1.0622  0.5485
 4340TIP3    H234580   2.269   2.054   1.000  0.8973 -0.4422 -0.2732
 4341TIP3   OH234581   3.396   5.231   8.010  0.2399  0.5410  0.0105
 4341TIP3    H134582   3.448   5.230   8.090 -0.2788 -0.4055  0.3510
 4341TIP3    H234583   3.458   5.213   7.940  0.6370  1.0333  0.2284
 4342TIP3   OH234584   2.154   2.945   7.029 -0.4180 -0.3193 -0.0650
 4342TIP3    H134585   2.059   2.933   7.030 -0.4719 -0.0204  1.6805
 4342TIP3    H234586   2.188   2.868   7.074  0.0099  0.5406  1.1217
 4343TIP3   OH234587   4.136   6.165   2.506  0.1294 -0.2749 -0.1665
 4343TIP3    H134588   4.133   6.236   2.443  0.1140 -0.1673 -0.0443
 4343TIP3    H234589   4.060   6.179   2.562  1.3225  0.8975  1.2470
 4344TIP3   OH234590   5.852   3.426   1.782 -0.1361 -0.2890  0.1990
 4344TIP3    H134591   5.824   3.455   1.695  1.2785 -0.6317 -0.3950
 4344TIP3    H234592   5.921   3.488   1.807  0.2111 -0.8315  0.5991
 4345TIP3   OH234593   2.854   1.804   1.298  0.2291 -0.2537  0.3469
 4345TIP3    H134594   2.898   1.838   1.221  0.9470 -0.4074  0.6836
 4345TIP3    H234595   2.854   1.877   1.360  2.0366 -0.9106  1.1809
 4346TIP3   OH234596   2.595   2.660   0.199 -0.2465  0.4668  0.1767
 4346TIP3    H134597   2.607   2.572   0.235 -0.1520  1.1765  1.9488
 4346TIP3    H234598   2.502   2.678   0.210 -0.7878 -0.2644 -2.3611
 4347TIP3   OH234599   3.204   5.431   7.918 -0.1215 -0.1891  0.3378
 4347TIP3    H134600   3.208   5.423   7.823  0.2326 -0.0129  0.3350
 4347TIP3    H234601   3.245   5.351   7.951  0.1635 -0.0461  0.3361
 4348TIP3   OH234602   3.640   1.905   7.206 -0.0155  0.2362  0.3490
 4348TIP3    H134603   3.655   1.960   7.282 -1.5608  0.6631  0.3646
 4348TIP3    H234604   3.669   1.958   7.132 -2.5621  1.6347  0.2400
 4349TIP3   OH234605   5.506   3.198   0.271 -0.1320 -0.2802 -0.5409
 4349TIP3    H134606   5.541   3.207   0.359  1.0480 -0.2018 -0.9955
 4349TIP3    H234607   5.466   3.111   0.269 -1.4884  0.2927  0.4921
 4350TIP3   OH234608   5.297   4.579   3.082 -0.6360 -0.0636  0.1415
 4350TIP3    H134609   5.205   4.572   3.058 -0.8124  0.2762  0.6931
 4350TIP3    H234610   5.342   4.521   3.021 -0.9257  1.5165 -1.6661
 4351TIP3   OH234611   1.712   2.683   0.534 -0.1523 -0.5430 -0.0072
 4351TIP3    H134612   1.781   2.616   0.531  0.5600  0.1300  0.8514
 4351TIP3    H234613   1.744   2.748   0.596 -1.7155 -0.3489  0.6353
 4352TIP3   OH234614   2.509   5.105   7.236 -0.2395  0.0669 -0.8312
 4352TIP3    H134615   2.541   5.054   7.310  0.0334 -1.2621 -1.8131
 4352TIP3    H234616   2.480   5.188   7.274  0.2254 -0.4347  0.6929
 4353TIP3   OH234617   3.332   1.348   0.069  0.3889 -0.2918 -0.4823
 4353TIP3    H134618   3.349   1.277   0.007 -0.7301 -0.7178 -0.3297
 4353TIP3    H234619   3.403   1.410   0.055  0.3237 -0.5200 -1.9899
 4354TIP3   OH234620   3.824   6.653   1.671 -0.3032  0.0968 -0.3077
 4354TIP3    H134621   3.842   6.593   1.598  1.7761  2.3226 -1.7558
 4354TIP3    H234622   3.728   6.656   1.676 -0.4859 -1.9786 -1.3008
 4355TIP3   OH234623   0.904   4.070   2.214 -0.3803 -0.7081 -0.2915
 4355TIP3    H134624   0.845   3.999   2.188 -0.2823 -0.8235 -0.1937
 4355TIP3    H234625   0.990   4.030   2.220  0.3170  0.0806 -3.4908
 4356TIP3   OH234626   5.814   4.495   0.237  0.1444 -0.2755 -0.1159
 4356TIP3    H134627   5.802   4.454   0.323  0.3196 -2.0563 -0.8862
 4356TIP3    H234628   5.883   4.443   0.196  0.9498  1.3414 -0.8744
 4357TIP3   OH234629   5.565   2.403   7.904 -0.2262 -0.0744 -0.0458
 4357TIP3    H134630   5.607   2.447   7.977 -0.3959  0.3931 -0.2292
 4357TIP3    H234631   5.624   2.418   7.829  1.4272 -2.9107  0.5364
 4358TIP3   OH234632   6.377   3.120   7.351  0.1708  0.2564 -0.6803
 4358TIP3    H134633   6.321   3.044   7.366  0.2784  0.3037 -0.0007
 4358TIP3    H234634   6.341   3.188   7.408 -1.4277  1.5297 -3.0059
 4359TIP3   OH234635   6.031   5.439   8.611 -0.1284 -0.0462 -0.0983
 4359TIP3    H134636   6.121   5.414   8.590  0.6162  2.1583  0.2875
 4359TIP3    H234637   5.978   5.391   8.547  1.5000  0.4148 -1.9032
 4360TIP3   OH234638   0.881   3.685   7.639 -0.4730  0.7946 -0.0254
 4360TIP3    H134639   0.825   3.681   7.562  1.0801  0.0955 -1.1758
 4360TIP3    H234640   0.845   3.755   7.692 -1.6528  1.2135 -1.3386
 4361TIP3   OH234641   0.836   0.318   8.105 -0.2467  0.7415 -0.3739
 4361TIP3    H134642   0.886   0.400   8.107  1.3562 -0.2107 -0.2564
 4361TIP3    H234643   0.887   0.260   8.049 -1.4843 -0.1278 -0.6427
 4362TIP3   OH234644   3.238   4.724   2.471 -0.2871  0.3257 -0.2262
 4362TIP3    H134645   3.289   4.798   2.503 -0.8151  1.1215 -1.1837
 4362TIP3    H234646   3.294   4.684   2.404  1.3435 -2.0638  2.3376
 4363TIP3   OH234647   1.789   6.178   2.408 -0.3878 -0.2393  0.3272
 4363TIP3    H134648   1.852   6.195   2.338 -0.7840 -0.2183 -0.0300
 4363TIP3    H234649   1.842   6.150   2.483  0.1250  0.7606  0.3461
 4364TIP3   OH234650   4.145   4.433   2.361  0.5034  0.1636  0.1216
 4364TIP3    H134651   4.203   4.357   2.350  0.9375  0.7587 -2.2324
 4364TIP3    H234652   4.152   4.480   2.278 -2.7627  0.6988  0.0507
 4365TIP3   OH234653   0.014   0.744   1.012  0.4123  0.1322  0.5721
 4365TIP3    H134654   0.003   0.836   0.990 -2.1440  0.1694  1.5589
 4365TIP3    H234655  -0.070   0.704   0.988  1.7812 -2.1739 -0.7463
 4366TIP3   OH234656   0.406   6.101   2.651  0.1560 -0.0070  0.2547
 4366TIP3    H134657   0.407   6.005   2.652  1.5495 -0.0075  1.0776
 4366TIP3    H234658   0.345   6.124   2.721 -0.9743 -0.2666 -0.6103
 4367TIP3   OH234659   0.456   0.769   8.183 -0.2064  0.2010 -0.0746
 4367TIP3    H134660   0.443   0.683   8.143 -1.9345  2.0195 -3.9972
 4367TIP3    H234661   0.374   0.787   8.229 -1.2329  0.9687 -2.0911
 4368TIP3   OH234662   6.385   0.127   7.730  0.0184  0.9887 -0.0811
 4368TIP3    H134663   6.450   0.109   7.662  2.0498  1.4134  1.6362
 4368TIP3    H234664   6.385   0.223   7.738 -2.3228  1.1611 -1.3791
 4369TIP3   OH234665   4.353   5.872   1.768 -0.0398 -0.6276 -0.2061
 4369TIP3    H134666   4.415   5.943   1.782 -1.9249  1.0341  0.1736
 4369TIP3    H234667   4.267   5.915   1.767 -1.2029 -2.8167 -0.6996
 4370TIP3   OH234668   0.472   6.575   1.421  0.3346  0.0930 -0.0142
 4370TIP3    H134669   0.397   6.535   1.464  0.6438 -0.6193 -0.1213
 4370TIP3    H234670   0.439   6.601   1.335  0.5657 -1.6540 -0.6927
 4371TIP3   OH234671   3.436   5.672   2.318 -0.3164 -0.1435  0.0752
 4371TIP3    H134672   3.393   5.587   2.332  0.4104 -0.6186 -0.4665
 4371TIP3    H234673   3.530   5.652   2.323 -0.1253  0.9398  1.6835
 4372TIP3   OH234674   0.131   2.798   3.415 -0.0566  0.0595  0.0183
 4372TIP3    H134675   0.093   2.841   3.338  0.5847 -0.6045 -0.6941
 4372TIP3    H234676   0.224   2.786   3.392 -0.1318 -1.3304  0.3570
 4373TIP3   OH234677   0.593   6.817   1.522 -0.4606  0.2430 -0.1175
 4373TIP3    H134678   0.552   6.771   1.448 -0.6030  0.8989 -0.4476
 4373TIP3    H234679   0.533   6.888   1.543  0.6643  1.4611 -0.8637
 4374TIP3   OH234680   1.530   2.180   8.651  0.4684  0.1290 -0.0816
 4374TIP3    H134681   1.473   2.195   8.726  2.0971 -0.9503  1.4611
 4374TIP3    H234682   1.515   2.089   8.627  2.0179 -0.4306  0.8683
 4375TIP3   OH234683   6.249   0.400   8.054 -0.2931  0.1921  0.3361
 4375TIP3    H134684   6.252   0.305   8.037 -0.7462  0.2826 -0.2718
 4375TIP3    H234685   6.160   0.415   8.087 -0.5099  0.5416 -0.4051
 4376TIP3   OH234686   2.274   6.564   7.031  0.2141  0.4621  0.1661
 4376TIP3    H134687   2.278   6.469   7.029  1.0289  0.4940 -1.1973
 4376TIP3    H234688   2.361   6.590   7.061 -0.0175  0.7832  0.5680
 4377TIP3   OH234689   2.366   5.953   1.715  0.0369  0.1244  0.0569
 4377TIP3    H134690   2.392   5.860   1.716  1.9130  0.5239 -1.9371
 4377TIP3    H234691   2.378   5.983   1.805 -2.0987 -1.8748  1.1133
 4378TIP3   OH234692   3.826   5.140   7.177 -0.5611 -0.0035  0.1305
 4378TIP3    H134693   3.879   5.062   7.166 -0.2438 -0.1751  2.4251
 4378TIP3    H234694   3.736   5.110   7.161 -0.1345  0.2468 -3.5487
 4379TIP3   OH234695   2.517   4.293   8.393 -0.5417  0.1211 -0.4013
 4379TIP3    H134696   2.537   4.309   8.485  0.8955 -1.4022 -0.4018
 4379TIP3    H234697   2.497   4.379   8.357  1.5789  1.1654  0.7215
 4380TIP3   OH234698   0.000   0.866   0.565 -0.7958  0.0503  0.2091
 4380TIP3    H134699   0.009   0.930   0.636  0.1656 -0.5899  0.6831
 4380TIP3    H234700  -0.063   0.802   0.597  1.9393 -2.0175  1.9102
 4381TIP3   OH234701   0.665   0.332   8.653  0.2376 -0.5127  0.1838
 4381TIP3    H134702   0.570   0.342   8.661  0.4281  0.5823  1.3349
 4381TIP3    H234703   0.677   0.291   8.567 -1.2539 -0.3933 -0.1143
 4382TIP3   OH234704   2.780   3.915   3.327  0.5486 -0.2359  0.1888
 4382TIP3    H134705   2.809   4.007   3.331 -0.3219  0.1482 -1.3449
 4382TIP3    H234706   2.699   3.918   3.276  0.7963 -1.9430 -0.3573
 4383TIP3   OH234707   4.853   6.564   2.457 -0.3814 -0.3051 -0.3622
 4383TIP3    H134708   4.948   6.575   2.448 -0.3692  1.6590  1.3429
 4383TIP3    H234709   4.843   6.484   2.507  0.6558  1.1230  2.3609
 4384TIP3   OH234710   6.437   0.278   2.609  0.2812 -0.2703  0.1193
 4384TIP3    H134711   6.458   0.330   2.687 -0.7419 -0.1692  0.3443
 4384TIP3    H234712   6.473   0.191   2.629 -2.0533 -0.9686  1.8354
 4385TIP3   OH234713   6.091   4.664   7.642 -0.2838 -0.0555 -0.1969
 4385TIP3    H134714   6.050   4.607   7.577 -0.8497  1.7197 -1.4554
 4385TIP3    H234715   6.112   4.744   7.595 -2.0674  1.9118  2.0887
 4386TIP3   OH234716   0.534   4.026   2.861  0.4767  0.3217 -0.0337
 4386TIP3    H134717   0.486   4.022   2.944 -0.8326  1.9099 -0.6584
 4386TIP3    H234718   0.467   4.013   2.794  1.4239 -0.3496 -0.8914
 4387TIP3   OH234719   1.197   0.443   0.798  0.4320 -0.0338 -0.0579
 4387TIP3    H134720   1.102   0.452   0.803  0.4882  0.2763  0.4990
 4387TIP3    H234721   1.231   0.523   0.839  0.9343 -0.0680 -0.3939
 4388TIP3   OH234722   1.365   1.421   7.400 -0.6165 -0.7201 -0.2049
 4388TIP3    H134723   1.357   1.513   7.423  0.2461 -0.3495 -1.3185
 4388TIP3    H234724   1.453   1.396   7.426 -0.0526 -0.6137 -1.8812
 4389TIP3   OH234725   1.681   3.255   8.540 -0.1130  0.6211  0.5826
 4389TIP3    H134726   1.614   3.199   8.581  0.2235 -0.5430 -0.3885
 4389TIP3    H234727   1.657   3.255   8.447  1.8135 -0.7176  0.0284
 4390TIP3   OH234728   3.398   5.781   0.520  0.2162  0.1824 -0.2898
 4390TIP3    H134729   3.375   5.688   0.516  0.1944  0.1024  1.2635
 4390TIP3    H234730   3.481   5.787   0.472 -0.0022 -0.5445 -0.7851
 4391TIP3   OH234731   3.847   2.753   2.175 -0.0576 -0.0484 -0.5190
 4391TIP3    H134732   3.897   2.801   2.110 -1.5883  0.0292 -1.6925
 4391TIP3    H234733   3.859   2.661   2.151  0.4233 -0.0892 -0.1222
 4392TIP3   OH234734   5.226   5.884   7.469  0.7610 -0.6156  0.0834
 4392TIP3    H134735   5.247   5.864   7.560  0.1780 -1.0172  0.1383
 4392TIP3    H234736   5.281   5.959   7.447 -0.2358  0.5086  1.2646
 4393TIP3   OH234737   3.286   2.304   0.300 -0.1148  0.0931  0.1103
 4393TIP3    H134738   3.319   2.232   0.354  1.0548  0.8054  0.3825
 4393TIP3    H234739   3.233   2.356   0.360 -0.3514 -0.1404  0.1029
 4394TIP3   OH234740   6.485   3.830   0.895  0.2439 -0.3750 -0.1710
 4394TIP3    H134741   6.522   3.914   0.921 -0.7613  0.1514 -0.3736
 4394TIP3    H234742   6.459   3.789   0.977  1.5793 -0.9176  0.0042
 4395TIP3   OH234743   1.644   3.713   2.705  0.3734 -0.2759 -0.0514
 4395TIP3    H134744   1.621   3.773   2.775 -0.0867 -0.5946  0.0781
 4395TIP3    H234745   1.649   3.627   2.747  3.0498 -0.0857  0.1770
 4396TIP3   OH234746   0.649   3.802   1.939 -0.1246 -0.0039 -0.2414
 4396TIP3    H134747   0.720   3.745   1.969  0.1835  0.4365 -0.1205
 4396TIP3    H234748   0.569   3.757   1.966  0.1430  0.4079  1.3299
 4397TIP3   OH234749   3.133   5.285   2.471 -0.3267  0.1829  0.1788
 4397TIP3    H134750   3.145   5.202   2.426  1.0626  0.5522 -0.1632
 4397TIP3    H234751   3.050   5.275   2.518 -1.9738 -0.1769 -2.5666
 4398TIP3   OH234752   2.218   4.643   1.937  0.2585  0.5532  0.0261
 4398TIP3    H134753   2.218   4.548   1.948  1.0133  0.6910  1.3998
 4398TIP3    H234754   2.291   4.661   1.878  0.2302  0.3033 -0.0837
 4399TIP3   OH234755   0.441   3.807   8.550 -0.0790 -0.5006 -0.5315
 4399TIP3    H134756   0.415   3.806   8.642 -0.9486 -0.3234 -0.7598
 4399TIP3    H234757   0.521   3.859   8.548  0.0369 -0.6397  0.1423
 4400TIP3   OH234758   4.181   4.560   8.374 -0.5057  0.0712 -0.2857
 4400TIP3    H134759   4.181   4.655   8.365 -0.8334 -0.0062 -1.2978
 4400TIP3    H234760   4.106   4.540   8.431  0.4079  0.4900  1.1059
 4401TIP3   OH234761   4.861   3.161   0.155 -0.3601 -0.4750 -0.0521
 4401TIP3    H134762   4.811   3.139   0.077 -0.6531 -2.8905  0.7261
 4401TIP3    H234763   4.931   3.218   0.123 -1.1527 -0.4361 -1.8535
 4402TIP3   OH234764   1.089   2.139   8.442 -0.3521  0.0209 -0.1696
 4402TIP3    H134765   1.021   2.203   8.424 -1.4171 -0.9856  0.1712
 4402TIP3    H234766   1.160   2.162   8.382 -1.3270  0.5744 -1.1385
 4403TIP3   OH234767   2.467   0.147   0.937  0.2124 -0.2562 -0.3877
 4403TIP3    H134768   2.548   0.198   0.947  0.5904 -1.0923  1.2343
 4403TIP3    H234769   2.482   0.094   0.858  0.9335  0.1450 -0.5341
 4404TIP3   OH234770   1.033   3.465   0.084 -0.3587  0.3373  1.1488
 4404TIP3    H134771   1.082   3.390   0.050 -0.4679 -0.0736  1.8796
 4404TIP3    H234772   1.081   3.491   0.163 -2.4442 -1.4182  3.1306
 4405TIP3   OH234773   6.445   1.006   0.254  0.3416  0.2833 -0.5609
 4405TIP3    H134774   6.527   0.958   0.255  0.3320  0.2170  1.1211
 4405TIP3    H234775   6.379   0.942   0.227  0.4371 -0.4926  0.9544
 4406TIP3   OH234776   0.234   5.751   0.892 -0.6376  0.1076  0.0969
 4406TIP3    H134777   0.313   5.751   0.946 -0.0936  0.8533 -0.6688
 4406TIP3    H234778   0.164   5.725   0.951  0.1068 -0.0942  0.9059
 4407TIP3   OH234779   4.720   0.867   1.083 -0.3571 -0.4353  0.3316
 4407TIP3    H134780   4.706   0.957   1.053 -1.8022 -0.7395  0.0057
 4407TIP3    H234781   4.728   0.816   1.003 -0.6697 -0.7448  0.4929
 4408TIP3   OH234782   0.988   6.053   2.263  0.3151  0.0158 -0.1371
 4408TIP3    H134783   0.965   6.010   2.345  1.2052 -0.1556  0.0358
 4408TIP3    H234784   1.004   6.144   2.287 -1.7961  0.5444 -0.5412
 4409TIP3   OH234785   1.825   4.954   1.825  0.9157 -0.2320 -0.1478
 4409TIP3    H134786   1.866   4.968   1.739 -1.1395 -0.5736 -1.2527
 4409TIP3    H234787   1.739   4.918   1.804  0.7644 -1.3083  2.1273
 4410TIP3   OH234788   2.058   4.621   1.564 -0.2272  0.5686  0.0489
 4410TIP3    H134789   2.058   4.544   1.508 -0.2104  0.3320  0.3714
 4410TIP3    H234790   2.137   4.613   1.616  0.0057  1.0358 -0.2294
 4411TIP3   OH234791   6.524   1.245   0.163  0.1959 -0.4958 -0.5560
 4411TIP3    H134792   6.521   1.179   0.232 -1.2524  0.0398 -0.0672
 4411TIP3    H234793   6.445   1.230   0.111 -0.7549  1.4563  0.2016
 4412TIP3   OH234794   1.222   1.454   7.700  0.3226  0.1741  0.2053
 4412TIP3    H134795   1.252   1.367   7.672 -0.4082 -1.1548  3.0775
 4412TIP3    H234796   1.302   1.501   7.724  0.5839 -0.8477  1.4385
 4413TIP3   OH234797   0.865   4.050   0.285  0.2575 -0.0248 -0.2538
 4413TIP3    H134798   0.863   4.106   0.363 -1.9534 -0.6871  0.2427
 4413TIP3    H234799   0.952   4.064   0.248  0.5242  2.1499  0.9823
 4414TIP3   OH234800   3.869   2.022   7.433 -0.2557  0.0639  0.1150
 4414TIP3    H134801   3.799   2.004   7.495 -1.0975 -0.5048 -0.9496
 4414TIP3    H234802   3.929   1.947   7.441  2.0735  2.0052  3.3119
 4415TIP3   OH234803   0.186   4.151   7.902 -0.1824  0.0326 -0.1848
 4415TIP3    H134804   0.280   4.135   7.917  0.4207  2.1778 -1.2936
 4415TIP3    H234805   0.183   4.233   7.853 -2.6827  0.1180 -0.0127
 4416TIP3   OH234806   6.344   0.065   0.055  0.7497 -0.0286 -0.0170
 4416TIP3    H134807   6.274   0.119   0.093 -0.3779  0.3545 -2.4350
 4416TIP3    H234808   6.328  -0.022   0.091 -0.0205  0.3725  0.6753
 4417TIP3   OH234809   5.510   5.763   2.929  0.4618  0.9932 -0.3671
 4417TIP3    H134810   5.444   5.815   2.883  1.1930  4.0888  1.8427
 4417TIP3    H234811   5.587   5.766   2.873 -0.6713 -1.5254 -2.3085
 4418TIP3   OH234812   3.156   6.357   7.843  1.1145 -0.2443  0.3484
 4418TIP3    H134813   3.193   6.269   7.832  0.6691 -0.3402 -0.4878
 4418TIP3    H234814   3.187   6.406   7.767 -0.8777 -0.4790 -0.6684
 4419TIP3   OH234815   5.435   1.806   0.516  0.4413  0.3659  0.3092
 4419TIP3    H134816   5.354   1.773   0.477 -0.4338  1.2875  1.3053
 4419TIP3    H234817   5.482   1.846   0.443  0.6634 -1.3621 -0.5488
 4420TIP3   OH234818   5.559   4.836   8.240 -0.6595  0.3171 -0.2515
 4420TIP3    H134819   5.509   4.918   8.238 -1.1302  0.0909  0.9735
 4420TIP3    H234820   5.615   4.839   8.162 -2.9145  0.3738 -1.9898
 4421TIP3   OH234821   2.214   1.271   2.080  0.0900 -0.6800 -0.1219
 4421TIP3    H134822   2.144   1.310   2.028  0.4063  1.0001  0.6415
 4421TIP3    H234823   2.170   1.235   2.157  0.0670  0.7105  0.5446
 4422TIP3   OH234824   4.400   3.595   8.253 -0.5314 -0.0848  0.1591
 4422TIP3    H134825   4.449   3.619   8.332  1.3657  0.6014 -1.1531
 4422TIP3    H234826   4.310   3.585   8.283 -0.1377  1.6092  2.1418
 4423TIP3   OH234827   3.926   3.306   0.657 -0.0201  0.1766  0.3705
 4423TIP3    H134828   3.954   3.320   0.748  0.1238 -0.5843  0.4486
 4423TIP3    H234829   3.924   3.394   0.619  3.8891  0.2412 -0.0582
 4424TIP3   OH234830   4.272   3.150   2.353  0.3465  0.3995  0.5765
 4424TIP3    H134831   4.350   3.183   2.397  0.1319  0.3477  1.0049
 4424TIP3    H234832   4.298   3.064   2.319  0.8109  0.8700 -0.2705
 4425TIP3   OH234833   0.977   6.361   8.380 -0.7337  0.4687  0.0554
 4425TIP3    H134834   0.940   6.375   8.468 -1.3037 -2.3908  0.3935
 4425TIP3    H234835   1.037   6.287   8.392  0.0213  0.7493 -1.7726
 4426TIP3   OH234836   5.906   6.557   7.712 -0.1633  0.8904 -0.0116
 4426TIP3    H134837   5.823   6.510   7.708  0.6293 -0.5930  0.1868
 4426TIP3    H234838   5.893   6.624   7.780 -1.3590  1.0499 -0.3818
 4427TIP3   OH234839   4.542   4.951   7.844 -0.5129  0.1137 -0.3447
 4427TIP3    H134840   4.460   4.908   7.820 -1.2405  0.6076  1.1213
 4427TIP3    H234841   4.565   4.913   7.928  0.5431  0.3059 -0.5347
 4428TIP3   OH234842   5.027   5.799   0.233 -0.0445 -0.3231  0.5354
 4428TIP3    H134843   5.062   5.888   0.240 -0.8806  0.0855 -0.2734
 4428TIP3    H234844   5.105   5.744   0.220  0.3968  0.4420 -0.1737
 4429TIP3   OH234845   0.213   5.421   8.191  0.4220 -0.4081  0.6545
 4429TIP3    H134846   0.125   5.439   8.223 -0.4491 -0.9568 -1.3155
 4429TIP3    H234847   0.269   5.432   8.268 -1.3892 -0.3804  2.0268
 4430TIP3   OH234848   6.819   2.692   7.438  0.2842  0.0672 -0.0798
 4430TIP3    H134849   6.902   2.661   7.402 -0.6640  0.4997 -2.8452
 4430TIP3    H234850   6.760   2.617   7.430  0.1630  0.0087  1.1423
 4431TIP3   OH234851   2.524   4.109   8.651  0.1021  0.3543  0.0544
 4431TIP3    H134852   2.588   4.056   8.698  0.1323  0.2565 -0.0998
 4431TIP3    H234853   2.522   4.073   8.563  0.0268  0.5252 -0.0140
 4432TIP3   OH234854   3.220   6.188   7.123 -0.9807  0.5694  0.3277
 4432TIP3    H134855   3.167   6.264   7.146 -2.5694 -0.4606  0.2870
 4432TIP3    H234856   3.156   6.121   7.100  0.3718 -0.7463  0.2311
 4433TIP3   OH234857   6.255   1.257   8.418 -0.0756 -0.5448 -0.6402
 4433TIP3    H134858   6.240   1.218   8.331  2.0710 -1.3426 -0.7201
 4433TIP3    H234859   6.255   1.182   8.478  0.1685 -0.2051 -0.2118
 4434TIP3   OH234860   4.802   1.754   2.393  0.2293 -1.0543  0.4372
 4434TIP3    H134861   4.713   1.745   2.428  0.7496 -1.8444  1.5962
 4434TIP3    H234862   4.789   1.771   2.300 -1.1280 -1.7689  0.4698
 4435TIP3   OH234863   5.298   3.991   2.232  0.1505  0.0511 -0.3775
 4435TIP3    H134864   5.293   3.953   2.144 -2.4143  2.3091 -1.3533
 4435TIP3    H234865   5.222   3.954   2.278 -0.0068  0.8411  0.0025
 4436TIP3   OH234866   0.935   4.602   2.244  0.0790  0.7107 -0.0742
 4436TIP3    H134867   0.920   4.508   2.258  0.6048  0.7946  1.1393
 4436TIP3    H234868   0.866   4.644   2.295 -1.5862  1.0026 -2.4083
 4437TIP3   OH234869   0.541   4.521   2.014 -0.5156 -0.0627 -0.2071
 4437TIP3    H134870   0.494   4.581   2.071 -2.1915 -1.0623 -0.4883
 4437TIP3    H234871   0.478   4.498   1.946  0.6748 -0.7574 -1.1187
 4438TIP3   OH234872   1.364   0.514   2.302 -0.2246 -0.2927  0.3129
 4438TIP3    H134873   1.306   0.563   2.361 -1.0822  1.2011 -1.6295
 4438TIP3    H234874   1.448   0.558   2.308 -0.4626  0.2125  0.0509
 4439TIP3   OH234875   5.102   0.364   1.966  0.1620  0.6909 -0.0386
 4439TIP3    H134876   5.031   0.413   2.009 -1.8600  0.0006 -2.3570
 4439TIP3    H234877   5.098   0.277   2.005 -1.8607 -0.0207 -1.6528
 4440TIP3   OH234878   2.602   0.589   8.592  0.0220 -0.7276  0.4371
 4440TIP3    H134879   2.556   0.517   8.549  1.2696 -1.1734 -0.1807
 4440TIP3    H234880   2.661   0.547   8.654  0.0535 -0.1843  0.7855
 4441TIP3   OH234881   3.432   3.425   0.788 -0.3694  0.1443 -0.3542
 4441TIP3    H134882   3.367   3.460   0.849 -0.9101 -0.4108 -0.6117
 4441TIP3    H234883   3.395   3.442   0.702 -0.0041  0.1379 -0.5148
 4442TIP3   OH234884   3.326   2.265   3.021 -0.1317  0.0091  0.6247
 4442TIP3    H134885   3.310   2.191   3.080  2.8005 -0.8166  0.5542
 4442TIP3    H234886   3.420   2.283   3.030  0.0764  1.0168 -2.4567
 4443TIP3   OH234887   3.265   0.635   7.325  0.2972 -0.8591  0.5384
 4443TIP3    H134888   3.278   0.704   7.261 -1.5419 -2.0153 -1.1982
 4443TIP3    H234889   3.340   0.577   7.314  0.0321 -1.0082 -0.5511
 4444TIP3   OH234890   4.815   4.257   1.426 -0.2528 -0.1089 -0.2927
 4444TIP3    H134891   4.780   4.346   1.433  2.1219  0.7939  1.6934
 4444TIP3    H234892   4.898   4.260   1.474  0.6124 -3.0680 -1.3648
 4445TIP3   OH234893   3.403   2.743   2.969  0.0662  0.3269  0.3708
 4445TIP3    H134894   3.464   2.779   2.905 -0.3530 -1.4756 -1.1571
 4445TIP3    H234895   3.454   2.735   3.050  1.0393  1.3384 -0.1227
 4446TIP3   OH234896   2.998   0.586   1.679  0.5877  0.8161  0.0336
 4446TIP3    H134897   3.056   0.644   1.727 -0.5257  2.4613 -0.5349
 4446TIP3    H234898   3.057   0.535   1.623  1.7450  0.0116  1.8945
 4447TIP3   OH234899   2.552   2.276   8.484 -0.2307 -0.2851  0.3193
 4447TIP3    H134900   2.631   2.222   8.488 -0.8314 -1.0991  2.6399
 4447TIP3    H234901   2.534   2.283   8.390  0.5489 -3.1743 -0.1622
 4448TIP3   OH234902   1.616   4.522   0.003 -0.4075 -0.5673  0.2267
 4448TIP3    H134903   1.702   4.495  -0.028  0.4148 -0.0716  1.9729
 4448TIP3    H234904   1.597   4.602  -0.046 -1.6447 -2.5699 -2.9530
 4449TIP3   OH234905   0.104   0.947   7.808  0.5193  0.2799 -0.3813
 4449TIP3    H134906   0.084   0.983   7.895  0.5017  0.8485 -0.6151
 4449TIP3    H234907   0.089   1.020   7.748 -0.0897 -0.2848 -0.9397
 4450TIP3   OH234908   2.663   5.702   1.448 -0.1899  0.3052  0.3989
 4450TIP3    H134909   2.703   5.788   1.438  1.3311 -0.3069  0.9485
 4450TIP3    H234910   2.693   5.653   1.371  1.4221 -0.6149  1.5543
 4451TIP3   OH234911   0.252   3.110   1.712  0.4369  0.7367 -0.3438
 4451TIP3    H134912   0.168   3.065   1.707  0.0201  1.4055  0.4735
 4451TIP3    H234913   0.280   3.119   1.620 -0.2607  0.3012 -0.6049
 4452TIP3   OH234914   6.517   6.575   0.953  0.9085 -0.2335  0.0030
 4452TIP3    H134915   6.489   6.619   1.033  0.4095 -0.2601 -0.1536
 4452TIP3    H234916   6.504   6.641   0.884  0.2770 -0.5720 -0.2135
 4453TIP3   OH234917   4.474   6.146   1.365 -0.3854 -0.3741  0.0290
 4453TIP3    H134918   4.458   6.109   1.451  1.3018  0.7940  0.9127
 4453TIP3    H234919   4.387   6.160   1.328 -1.1185 -1.7500  1.1435
 4454TIP3   OH234920   6.545   5.741   1.174 -0.2324  0.3736 -0.2300
 4454TIP3    H134921   6.549   5.746   1.079 -0.7993  0.4780 -0.2512
 4454TIP3    H234922   6.551   5.647   1.194  2.5079  0.4692 -0.2241
 4455TIP3   OH234923   4.454   6.785   7.672 -0.5740  0.1461 -0.0179
 4455TIP3    H134924   4.403   6.801   7.593  0.7951 -0.1061 -0.9751
 4455TIP3    H234925   4.455   6.689   7.681 -1.0593  0.1886  0.5355
 4456TIP3   OH234926   1.808   0.051   1.333 -0.0353  0.1759 -0.2616
 4456TIP3    H134927   1.815   0.140   1.300  0.8401  1.0300  2.0046
 4456TIP3    H234928   1.796  -0.003   1.255 -1.6126  2.3426 -1.6277
 4457TIP3   OH234929   3.629   0.328   1.325 -0.6170 -0.1082  0.4081
 4457TIP3    H134930   3.724   0.329   1.313 -0.0037  0.5683  4.0765
 4457TIP3    H234931   3.604   0.420   1.324 -0.7057 -0.0736  2.1510
 4458TIP3   OH234932   1.464   4.324   1.846 -0.9727  0.2319  0.6128
 4458TIP3    H134933   1.481   4.334   1.940  0.7921 -1.7603  0.5759
 4458TIP3    H234934   1.508   4.399   1.806  0.1965 -0.0974  1.2364
 4459TIP3   OH234935   4.665   2.882   0.739  0.3009 -0.0749 -0.3747
 4459TIP3    H134936   4.653   2.844   0.652 -0.5812  0.0473 -0.3083
 4459TIP3    H234937   4.653   2.808   0.799  1.3461 -0.2546 -0.3579
 4460TIP3   OH234938   3.671   5.959   8.546 -0.7106 -0.3749  0.1949
 4460TIP3    H134939   3.634   5.937   8.631  0.2722  0.0788  0.7654
 4460TIP3    H234940   3.738   6.025   8.566 -0.5781 -0.1473 -0.9487
 4461TIP3   OH234941   0.038   6.578   7.864  0.0801  0.5694  0.2233
 4461TIP3    H134942   0.018   6.593   7.772 -0.0541  1.0294  0.3225
 4461TIP3    H234943   0.032   6.484   7.876  1.9157  0.2858 -0.6702
 4462TIP3   OH234944   0.725   5.650   1.843  0.1704 -0.0178 -0.0763
 4462TIP3    H134945   0.647   5.606   1.875  0.4004 -1.7592 -1.6935
 4462TIP3    H234946   0.727   5.630   1.749  1.4346  1.7613 -0.4824
 4463TIP3   OH234947   5.403   4.078   0.728  0.0125 -0.3209  0.8073
 4463TIP3    H134948   5.424   4.170   0.711 -1.4487  0.3258  2.2992
 4463TIP3    H234949   5.488   4.037   0.746  0.7733  0.5085 -0.6666
 4464TIP3   OH234950   2.094   4.989   7.098  0.5953 -0.2548 -0.0420
 4464TIP3    H134951   2.082   4.968   7.191  3.3278  0.0627  0.4572
 4464TIP3    H234952   2.044   5.069   7.084  0.2200 -0.2632  1.1670
 4465TIP3   OH234953   3.993   2.005   1.501  0.2540 -0.2022 -0.5090
 4465TIP3    H134954   4.006   2.084   1.448  2.3285 -0.7312 -0.8780
 4465TIP3    H234955   4.029   2.027   1.587 -0.3001 -0.3609 -0.2280
 4466TIP3   OH234956   6.020   5.471   0.894  0.3184 -0.3149 -0.1007
 4466TIP3    H134957   5.981   5.459   0.981 -0.3929  0.2772 -0.3259
 4466TIP3    H234958   6.114   5.457   0.907  0.0273 -2.0710  0.4066
 4467TIP3   OH234959   2.841   4.439   2.064  0.4669  0.1915 -0.0192
 4467TIP3    H134960   2.901   4.397   2.126  0.7152 -0.5668 -0.7344
 4467TIP3    H234961   2.796   4.365   2.022  0.2937  0.6874 -0.7172
 4468TIP3   OH234962   5.908   5.007   1.308 -0.2889 -0.2808  0.2083
 4468TIP3    H134963   5.822   5.048   1.321  0.9701  2.0759  1.9935
 4468TIP3    H234964   5.933   5.033   1.219 -0.7182  0.4529  0.2933
 4469TIP3   OH234965   4.553   3.600   8.701  0.0623 -0.0151  0.3240
 4469TIP3    H134966   4.472   3.574   8.656  0.3344 -0.7771  0.2590
 4469TIP3    H234967   4.530   3.680   8.748 -0.9676 -0.6875  1.0051
 4470TIP3   OH234968   3.731   4.143   2.403  0.3793 -0.1822  0.0777
 4470TIP3    H134969   3.780   4.225   2.397  0.8050 -0.2785  1.7889
 4470TIP3    H234970   3.785   4.079   2.357  2.1886 -0.4003  2.3515
 4471TIP3   OH234971   1.213   6.058   8.201  0.0843 -0.3227  0.3519
 4471TIP3    H134972   1.164   6.095   8.274  0.1234  1.8267 -0.6375
 4471TIP3    H234973   1.305   6.070   8.224  0.0975  0.2493  0.0139
 4472TIP3   OH234974   6.237   5.664   1.383 -0.9295 -0.4456 -0.2702
 4472TIP3    H134975   6.246   5.752   1.345 -0.9216 -0.4965 -0.3881
 4472TIP3    H234976   6.179   5.618   1.323 -0.8847 -0.5394 -0.2420
 4473TIP3   OH234977   1.105   0.822   7.164  0.7552 -0.1722 -0.0156
 4473TIP3    H134978   1.176   0.801   7.105  0.8961 -1.1573  0.4896
 4473TIP3    H234979   1.032   0.767   7.135 -0.6776  2.6153 -2.1330
 4474TIP3   OH234980   3.988   6.290   0.529  0.0431  0.2577 -0.2067
 4474TIP3    H134981   3.973   6.302   0.622 -0.0282  2.0859 -0.4163
 4474TIP3    H234982   3.958   6.201   0.511  0.4100 -0.2657  1.5665
 4475TIP3   OH234983   1.488   2.731   8.126 -0.0137  0.1821  0.4316
 4475TIP3    H134984   1.509   2.824   8.124 -1.1436  0.4709  0.8595
 4475TIP3    H234985   1.400   2.727   8.088 -0.0725 -0.6852  0.6527
 4476TIP3   OH234986   3.248   1.931   0.886  0.1780 -0.2679  0.3841
 4476TIP3    H134987   3.231   1.855   0.942  0.4485 -1.5734 -1.2362
 4476TIP3    H234988   3.291   1.895   0.809 -0.4535  1.4262 -0.8224
 4477TIP3   OH234989   2.564   3.087   2.049  0.0007  0.0547  0.2180
 4477TIP3    H134990   2.557   3.181   2.034  0.7415  0.4906  2.2782
 4477TIP3    H234991   2.481   3.051   2.016 -1.4972  1.8141  1.8205
 4478TIP3   OH234992   0.693   3.864   0.498  0.2722  0.0285  0.2528
 4478TIP3    H134993   0.730   3.915   0.425  0.1983 -0.8793 -0.4361
 4478TIP3    H234994   0.599   3.879   0.492  0.2635 -0.0702  0.1400
 4479TIP3   OH234995   0.575   5.311   1.559 -0.5184  0.2067 -0.1258
 4479TIP3    H134996   0.652   5.329   1.612  1.3543 -1.2422 -2.1637
 4479TIP3    H234997   0.548   5.223   1.584  0.6174 -0.6479 -1.7207
 4480TIP3   OH234998   5.523   4.143   1.942  0.4332  0.1919  0.1087
 4480TIP3    H134999   5.520   4.048   1.951 -0.2332  0.3037  1.2792
 4480TIP3    H235000   5.490   4.160   1.853 -0.7129 -0.6079  0.3647
 4481TIP3   OH235001   0.805   4.560   1.913 -0.1606 -0.2183 -0.1167
 4481TIP3    H135002   0.731   4.532   1.968 -1.6160  1.7683 -0.9044
 4481TIP3    H235003   0.856   4.481   1.898 -2.5935 -1.8697 -0.1990
 4482TIP3   OH235004   4.517   4.868   2.815  0.5353  0.2358 -0.1960
 4482TIP3    H135005   4.446   4.930   2.799 -0.0294 -0.0516  1.0794
 4482TIP3    H235006   4.479   4.803   2.874  1.9126  0.1661  0.6485
 4483TIP3   OH235007   5.468   3.487   1.080  0.3580  0.1654 -0.1379
 4483TIP3    H135008   5.473   3.502   1.175 -0.4857  1.0295 -0.2055
 4483TIP3    H235009   5.477   3.575   1.042 -0.0525 -0.0736 -0.8135
 4484TIP3   OH235010   3.386   2.715   6.780  0.1216  0.4528  0.4321
 4484TIP3    H135011   3.375   2.811   6.780  0.3696  0.5311 -2.0923
 4484TIP3    H235012   3.449   2.698   6.711 -0.7127 -1.6359  0.1218
 4485TIP3   OH235013   5.246   2.079   8.069  0.1440  0.2821  0.0625
 4485TIP3    H135014   5.328   2.128   8.064  1.2869 -1.5024  0.7804
 4485TIP3    H235015   5.178   2.147   8.072  1.6772  1.8431  1.4130
 4486TIP3   OH235016   6.256   3.732   7.443  0.1095  0.4204 -0.8853
 4486TIP3    H135017   6.304   3.809   7.414 -0.9037  1.3825 -0.0559
 4486TIP3    H235018   6.220   3.694   7.363 -0.4484  1.5381 -1.1834
 4487TIP3   OH235019   1.902   5.279   0.072 -0.0473 -0.1509  0.0058
 4487TIP3    H135020   1.956   5.205   0.045  0.5384  0.2348  0.1035
 4487TIP3    H235021   1.935   5.302   0.159  0.1108  0.5464 -0.2327
 4488TIP3   OH235022   4.544   5.432   6.865 -0.0501 -0.3574 -0.1293
 4488TIP3    H135023   4.630   5.470   6.844  0.0484  0.4329  1.4918
 4488TIP3    H235024   4.508   5.491   6.932 -2.0206 -0.4778 -1.0175
 4489TIP3   OH235025   6.571   5.341   0.812 -0.1824 -0.4611 -0.4883
 4489TIP3    H135026   6.519   5.261   0.805 -0.6997 -0.0796 -1.1029
 4489TIP3    H235027   6.557   5.370   0.903  0.0940 -1.1154 -0.2307
 4490TIP3   OH235028   4.636   6.723   2.002 -0.7040 -1.2283 -0.2962
 4490TIP3    H135029   4.562   6.784   2.003  0.7252  0.5716 -0.4975
 4490TIP3    H235030   4.641   6.690   2.092 -1.4029 -0.9654 -0.1497
 4491TIP3   OH235031   0.414   5.995   8.338 -0.5599  0.4925  0.4031
 4491TIP3    H135032   0.475   6.045   8.392 -0.0198  0.0661  0.2011
 4491TIP3    H235033   0.422   5.905   8.370 -0.5021  0.2989 -0.1430
 4492TIP3   OH235034   1.238   5.869   1.427 -0.5376  0.3382  0.1499
 4492TIP3    H135035   1.245   5.955   1.386 -0.5526  0.8197  1.1427
 4492TIP3    H235036   1.290   5.876   1.507 -1.8482 -0.0741  1.0571
 4493TIP3   OH235037   0.842   0.563   2.039 -0.1300  0.6798 -0.0259
 4493TIP3    H135038   0.805   0.558   2.127  2.5997  2.8504  1.3973
 4493TIP3    H235039   0.846   0.472   2.009  0.1447 -0.2835  2.6671
 4494TIP3   OH235040   4.098   6.094   2.208  0.1284 -0.3758 -0.1465
 4494TIP3    H135041   4.187   6.119   2.234 -0.3371  2.5251 -1.0080
 4494TIP3    H235042   4.043   6.120   2.283 -0.1729 -0.6078 -0.2842
 4495TIP3   OH235043   2.603   1.813   1.414 -0.3665 -0.3672  0.1042
 4495TIP3    H135044   2.566   1.812   1.503 -0.2546 -1.3534  0.1566
 4495TIP3    H235045   2.698   1.809   1.427 -0.2992  0.5230 -0.0545
 4496TIP3   OH235046   1.343   4.360   0.802  0.5098  0.5470 -0.1404
 4496TIP3    H135047   1.333   4.436   0.859 -1.9672 -0.5487  1.0261
 4496TIP3    H235048   1.414   4.310   0.842  1.0500  1.4116  0.0267
 4497TIP3   OH235049   4.337   2.734   1.225 -0.4106 -0.2288  0.2638
 4497TIP3    H135050   4.330   2.639   1.215 -0.9437 -0.1643  0.0010
 4497TIP3    H235051   4.430   2.753   1.217 -0.3385 -0.6961  0.0245
 4498TIP3   OH235052   0.644   4.991   7.191 -0.2973  0.5917  0.5566
 4498TIP3    H135053   0.669   5.052   7.123 -0.1934 -1.3455 -1.2492
 4498TIP3    H235054   0.722   4.938   7.207 -0.9189 -0.3353  0.6480
 4499TIP3   OH235055   0.616   6.527   2.204 -0.3246 -0.1356  0.1828
 4499TIP3    H135056   0.549   6.545   2.269 -1.0877 -2.3295  0.0776
 4499TIP3    H235057   0.695   6.506   2.254 -0.4118 -0.0605  0.3498
 4500TIP3   OH235058   2.519   5.934   7.569  0.3032 -0.4418  0.1331
 4500TIP3    H135059   2.557   5.921   7.656  1.2006 -0.0412 -0.1940
 4500TIP3    H235060   2.583   5.896   7.509  0.1606  0.1725 -0.4174
 4501TIP3   OH235061   2.739   6.636   0.890  0.6762  0.2792  0.1378
 4501TIP3    H135062   2.776   6.709   0.939 -0.8688  0.1705  1.5523
 4501TIP3    H235063   2.654   6.669   0.860  0.5434 -0.5047 -0.3686
 4502TIP3   OH235064   5.748   2.299   1.011  0.3144  0.2482 -0.4382
 4502TIP3    H135065   5.676   2.325   1.068 -1.8539 -0.9942 -2.4375
 4502TIP3    H235066   5.760   2.206   1.028  0.3182  0.0888 -1.2926
 4503TIP3   OH235067   6.191   1.752   7.250  0.3561  0.4262 -0.2410
 4503TIP3    H135068   6.197   1.795   7.335  0.2258 -0.3014  0.1464
 4503TIP3    H235069   6.097   1.756   7.229  0.3351  0.2883 -0.1768
 4504TIP3   OH235070   2.920   1.845   7.906 -0.3401  0.0741 -0.8527
 4504TIP3    H135071   2.993   1.847   7.844 -0.4582 -0.2310 -1.0079
 4504TIP3    H235072   2.941   1.912   7.971  0.9194 -1.1248  0.0384
 4505TIP3   OH235073   2.236   2.735   2.162 -0.0244  0.1949 -0.5181
 4505TIP3    H135074   2.207   2.669   2.099 -1.3252  1.1320 -0.9349
 4505TIP3    H235075   2.187   2.715   2.242 -0.6300  0.7953 -0.7280
 4506TIP3   OH235076   6.681   5.098   1.997  0.0074 -0.9312 -0.1925
 4506TIP3    H135077   6.694   5.013   2.039  0.6177 -0.9132 -0.3353
 4506TIP3    H235078   6.594   5.126   2.025 -0.6919 -2.1369 -1.0699
 4507TIP3   OH235079   0.126   1.293   2.205  0.2028  0.0941 -0.2156
 4507TIP3    H135080   0.180   1.218   2.230 -1.9699 -1.0741  1.3186
 4507TIP3    H235081   0.170   1.368   2.246  1.0726 -0.6996  0.3544
 4508TIP3   OH235082   2.758   1.356   8.644  0.1542 -0.1018  0.2338
 4508TIP3    H135083   2.754   1.269   8.683  0.7338 -0.0898  0.3388
 4508TIP3    H235084   2.701   1.410   8.699  1.3473  0.0271  1.4003
 4509TIP3   OH235085   5.280   3.459   2.637 -0.4650  0.1601  0.3386
 4509TIP3    H135086   5.277   3.541   2.589  0.0262  1.1630  1.9265
 4509TIP3    H235087   5.345   3.406   2.591  0.1008  1.1456 -0.0167
 4510TIP3   OH235088   0.985   5.560   8.161  0.3256 -0.0835  0.3440
 4510TIP3    H135089   0.977   5.655   8.161  2.2998  0.1290  0.7924
 4510TIP3    H235090   1.025   5.538   8.245  2.1640 -1.0194 -0.6868
 4511TIP3   OH235091   3.727   4.637   1.938  0.3167 -0.1680  0.4536
 4511TIP3    H135092   3.797   4.674   1.884 -2.3059  0.6452 -2.7116
 4511TIP3    H235093   3.663   4.604   1.874 -2.3082 -0.6676  3.1504
 4512TIP3   OH235094   3.698   6.056   3.123 -0.4465 -0.4406 -0.8185
 4512TIP3    H135095   3.778   6.056   3.070  0.3324 -1.0780  0.3326
 4512TIP3    H235096   3.645   5.987   3.085 -0.6077  0.1873 -1.7851
 4513TIP3   OH235097   0.490   5.831   0.982  0.1070  0.3808 -0.3199
 4513TIP3    H135098   0.548   5.868   0.916  2.7265 -0.2331  1.4861
 4513TIP3    H235099   0.503   5.887   1.059 -1.0217 -0.3398  0.4236
 4514TIP3   OH235100   6.728   0.777   1.963 -0.4135  0.5785  0.1715
 4514TIP3    H135101   6.819   0.804   1.969 -0.3547  0.4707 -0.2084
 4514TIP3    H235102   6.731   0.687   1.931 -0.6789  0.9059 -0.8011
 4515TIP3   OH235103   4.393   4.757   2.461 -0.2694  0.5804  0.5007
 4515TIP3    H135104   4.465   4.693   2.463  0.2877  1.2028  1.4576
 4515TIP3    H235105   4.320   4.711   2.503 -1.2812 -0.9551 -2.6643
 4516TIP3   OH235106   3.009   1.572   1.134  0.3077  0.1712 -0.0712
 4516TIP3    H135107   3.079   1.633   1.111 -0.2829  1.5197  1.5308
 4516TIP3    H235108   2.929   1.612   1.098  0.2651 -1.3099 -1.8104
 4517TIP3   OH235109   4.414   5.169   1.479  0.4842 -0.5062  0.1968
 4517TIP3    H135110   4.423   5.259   1.447  0.7681 -0.0325  1.5174
 4517TIP3    H235111   4.352   5.128   1.418 -0.3055  0.8289  0.0426
 4518TIP3   OH235112   3.788   1.200   7.203  0.1258  0.0284  0.2035
 4518TIP3    H135113   3.734   1.240   7.135 -0.2790 -0.7633  0.0543
 4518TIP3    H235114   3.876   1.234   7.186 -0.4069  1.8623  0.8492
 4519TIP3   OH235115   1.778   0.184   0.115  0.3888  0.5877 -0.0318
 4519TIP3    H135116   1.802   0.123   0.185  0.2114 -0.0627 -0.5324
 4519TIP3    H235117   1.834   0.159   0.041 -0.2033  0.5516 -0.4720
 4520TIP3   OH235118   1.278   6.589   1.672  0.2003 -0.2776 -0.1503
 4520TIP3    H135119   1.323   6.666   1.706 -0.1526  0.7984 -1.9824
 4520TIP3    H235120   1.185   6.613   1.671  0.0538 -0.8199 -0.5004
 4521TIP3   OH235121   3.285   3.656   0.291 -0.5791 -0.1673  0.0120
 4521TIP3    H135122   3.330   3.627   0.371 -2.4813 -1.2730  0.7327
 4521TIP3    H235123   3.193   3.661   0.315 -1.1263  0.0897 -1.9617
 4522TIP3   OH235124   0.850   2.771   2.124 -0.0204 -0.3127 -0.4069
 4522TIP3    H135125   0.824   2.847   2.073 -2.6957 -1.9620 -1.6988
 4522TIP3    H235126   0.836   2.796   2.215 -1.2952  0.6055 -0.8439
 4523TIP3   OH235127   5.744   2.764   2.051 -0.3448  0.0639 -0.2964
 4523TIP3    H135128   5.834   2.798   2.053  0.3400 -1.5655  2.6764
 4523TIP3    H235129   5.692   2.830   2.098 -0.7666  1.0109 -2.0237
 4524TIP3   OH235130   0.699   6.595   8.318 -0.1292  0.6073 -0.5274
 4524TIP3    H135131   0.710   6.672   8.374 -0.4447  0.2996 -0.0244
 4524TIP3    H235132   0.623   6.550   8.355 -0.7291  0.7189 -1.5946
 4525TIP3   OH235133   3.571   0.696   8.635  0.0902 -0.1420 -0.0034
 4525TIP3    H135134   3.559   0.601   8.633 -1.2352 -0.0155  0.6898
 4525TIP3    H235135   3.665   0.709   8.624  0.2333 -1.5104 -0.5874
 4526TIP3   OH235136   2.296   4.739   8.702 -0.0341  0.0234 -0.2378
 4526TIP3    H135137   2.388   4.717   8.717 -0.2126  0.5217  1.7358
 4526TIP3    H235138   2.297   4.797   8.626  1.4151  0.9439  0.4514
 4527TIP3   OH235139   5.893   1.394   1.222  0.5131 -0.1609  0.4247
 4527TIP3    H135140   5.804   1.424   1.239 -0.3956 -2.5594  0.3859
 4527TIP3    H235141   5.909   1.414   1.130 -0.6170 -1.0608  0.0073
 4528TIP3   OH235142   2.340   0.776   7.732 -0.3656  0.0777 -0.4394
 4528TIP3    H135143   2.398   0.756   7.659  0.0700  1.5196 -0.5276
 4528TIP3    H235144   2.253   0.783   7.693 -0.5210 -1.4907 -0.4096
 4529TIP3   OH235145   0.640   0.927   2.953 -0.5050  0.0201  0.4817
 4529TIP3    H135146   0.576   0.951   2.887 -0.7380  0.1069  0.7395
 4529TIP3    H235147   0.657   0.834   2.938 -0.5668  0.0376  0.3083
 4530TIP3   OH235148   0.290   4.377   7.760  0.3324 -0.3474  0.9092
 4530TIP3    H135149   0.365   4.427   7.793  0.7768 -0.7718  0.5541
 4530TIP3    H235150   0.236   4.441   7.714 -0.6415  0.4035  2.9885
 4531TIP3   OH235151   5.503   6.755   0.024  0.3570 -0.8178  0.1220
 4531TIP3    H135152   5.589   6.728  -0.009  0.8937 -0.5970  1.2947
 4531TIP3    H235153   5.483   6.693   0.094 -0.6630 -1.1367 -0.4177
 4532TIP3   OH235154   1.249   1.750   0.204  0.1110  0.3714  0.2141
 4532TIP3    H135155   1.249   1.766   0.110 -0.6816 -1.7137 -0.2081
 4532TIP3    H235156   1.175   1.801   0.237 -1.2461 -0.8691 -0.7611
 4533TIP3   OH235157   1.917   5.155   2.007 -0.1332 -0.1360 -0.2830
 4533TIP3    H135158   1.911   5.112   2.092 -0.0524 -0.3482 -0.3842
 4533TIP3    H235159   1.877   5.093   1.946  0.4214 -0.2816 -0.5041
 4534TIP3   OH235160   3.415   3.657   8.525  0.4251  1.4220 -0.1605
 4534TIP3    H135161   3.460   3.587   8.477  0.2500  0.2201  1.3381
 4534TIP3    H235162   3.354   3.610   8.582 -0.7330  2.8894 -0.1401
 4535TIP3   OH235163   4.769   5.261   1.300 -1.1447  0.6488  0.1311
 4535TIP3    H135164   4.746   5.314   1.376  0.0518 -0.8438  1.6461
 4535TIP3    H235165   4.817   5.320   1.243 -1.9532  1.7805  0.5938
 4536TIP3   OH235166   1.964   4.594   0.685 -0.2338 -0.0092 -0.3465
 4536TIP3    H135167   2.022   4.529   0.644  0.4999  0.4099  0.0091
 4536TIP3    H235168   1.957   4.664   0.619  2.3975  1.5203  0.8292
 4537TIP3   OH235169   4.090   4.641   7.751 -0.1092 -0.5470  0.3105
 4537TIP3    H135170   4.156   4.592   7.701 -0.3790 -0.5061 -0.0922
 4537TIP3    H235171   4.016   4.648   7.691  0.7081  2.2818 -0.5309
 4538TIP3   OH235172   2.133   0.955   6.988 -0.3060  0.3794  0.5441
 4538TIP3    H135173   2.191   0.891   6.948  1.4351  0.8885  2.0861
 4538TIP3    H235174   2.045   0.931   6.958  0.6196 -0.7375 -1.4678
 4539TIP3   OH235175   3.928   6.593   0.545  0.2650  0.0345  0.7600
 4539TIP3    H135176   3.964   6.636   0.623  2.3669  0.3403 -0.2954
 4539TIP3    H235177   3.845   6.638   0.529  1.3377  2.2290  0.9788
 4540TIP3   OH235178   0.261   6.383   0.794  0.1583  0.8144 -0.5924
 4540TIP3    H135179   0.289   6.412   0.707 -1.1443 -0.1290 -1.3749
 4540TIP3    H235180   0.207   6.454   0.827  0.5055  1.1003 -0.6381
 4541TIP3   OH235181   0.686   6.420   1.021 -0.0972 -0.3371  0.1557
 4541TIP3    H135182   0.602   6.375   1.012 -1.0914  1.3354  0.7972
 4541TIP3    H235183   0.674   6.502   0.974  0.5742  0.7085  1.7594
 4542TIP3   OH235184   3.970   5.329   7.508  0.1248  0.0577 -0.3409
 4542TIP3    H135185   3.881   5.315   7.478  0.1715 -1.8217  0.2817
 4542TIP3    H235186   4.022   5.331   7.427 -0.0643 -2.4754 -0.6285
 4543TIP3   OH235187   4.344   3.103   8.512  0.0164  0.2687 -0.4174
 4543TIP3    H135188   4.250   3.100   8.527  0.0219  0.1318 -0.4105
 4543TIP3    H235189   4.383   3.096   8.600 -0.0062  4.0037  0.0666
 4544TIP3   OH235190   3.734   3.994   0.340 -0.1771  0.5494  0.3178
 4544TIP3    H135191   3.646   4.032   0.335 -0.5357 -0.2444  0.4950
 4544TIP3    H235192   3.723   3.905   0.306  1.0743  1.2742 -2.2986
 4545TIP3   OH235193   6.434   4.070   1.966 -0.3859  0.7576  0.1646
 4545TIP3    H135194   6.470   4.012   1.900 -0.5614  1.9240 -0.9966
 4545TIP3    H235195   6.493   4.145   1.967  0.8907 -0.1629  2.9357
 4546TIP3   OH235196   0.180   6.323   8.277  0.3275 -0.6460  0.2700
 4546TIP3    H135197   0.124   6.394   8.307  1.0538 -0.0414  0.2409
 4546TIP3    H235198   0.264   6.338   8.321  1.0977 -0.3437 -1.2258
 4547TIP3   OH235199   0.501   2.197   2.608 -0.0406 -0.5481 -0.1343
 4547TIP3    H135200   0.433   2.171   2.545  0.2448 -2.0084  0.1325
 4547TIP3    H235201   0.454   2.211   2.690 -0.2565  0.2486 -0.3844
 4548TIP3   OH235202   3.416   0.918   8.271  0.0970 -0.1637  0.2335
 4548TIP3    H135203   3.429   0.941   8.363  0.3377 -0.6677  0.3284
 4548TIP3    H235204   3.466   0.983   8.222  0.2509 -0.1026  0.4734
 4549TIP3   OH235205   3.574   4.465   0.583 -0.1142 -0.2341  0.1530
 4549TIP3    H135206   3.519   4.495   0.655 -2.6165  0.2380 -1.8379
 4549TIP3    H235207   3.649   4.525   0.583 -2.0133  2.2742  0.0161
 4550TIP3   OH235208   0.771   3.269   0.336 -0.6392  0.3559 -0.1970
 4550TIP3    H135209   0.864   3.249   0.339 -0.3995  1.5726  1.8059
 4550TIP3    H235210   0.732   3.214   0.404 -1.4233 -0.1576 -1.0287
 4551TIP3   OH235211   6.446   6.161   8.661  0.1023  0.0971 -0.1527
 4551TIP3    H135212   6.413   6.102   8.593  2.1292 -1.3028  0.0158
 4551TIP3    H235213   6.473   6.239   8.614 -1.2946  0.3702 -0.5505
 4552TIP3   OH235214   5.034   1.384   1.899 -0.0157 -0.0813  0.2554
 4552TIP3    H135215   5.059   1.437   1.974 -0.2501  2.3581 -1.2898
 4552TIP3    H235216   5.053   1.439   1.823 -0.1623 -2.2878 -1.4788
 4553TIP3   OH235217   6.138   0.983   7.808 -0.2605 -0.0256  0.5019
 4553TIP3    H135218   6.090   0.923   7.752  1.2845 -0.2888 -0.5980
 4553TIP3    H235219   6.071   1.021   7.865 -1.5876 -1.1626 -0.2327
 4554TIP3   OH235220   6.331   1.462   0.796  0.7461  0.9062  0.2503
 4554TIP3    H135221   6.251   1.486   0.844  0.4070 -1.3056  0.8965
 4554TIP3    H235222   6.402   1.488   0.854  0.3931  0.4354  0.9172
 4555TIP3   OH235223   4.296   1.568   0.718 -0.2119  0.6067  0.2449
 4555TIP3    H135224   4.283   1.615   0.800  0.6155  1.1700  0.0612
 4555TIP3    H235225   4.208   1.557   0.682 -0.4953  1.1690  0.7571
 4556TIP3   OH235226   6.313   6.361   1.056  0.5158 -0.3808 -0.4879
 4556TIP3    H135227   6.392   6.408   1.029 -1.3204  2.3310 -1.6091
 4556TIP3    H235228   6.268   6.340   0.975 -1.1983  0.6404  0.1215
 4557TIP3   OH235229   2.688   1.632   0.384 -0.0543 -0.1755 -0.2572
 4557TIP3    H135230   2.683   1.711   0.437  0.5234  0.7972 -1.6003
 4557TIP3    H235231   2.732   1.568   0.441  0.1196  0.6818  0.5910
 4558TIP3   OH235232   4.340   6.670   1.515 -0.0115  0.8384  0.3519
 4558TIP3    H135233   4.337   6.758   1.476 -1.1829  0.3781 -0.6716
 4558TIP3    H235234   4.267   6.669   1.576 -0.5679  0.2994 -0.3027
 4559TIP3   OH235235   3.763   1.363   8.010  0.3614  0.3434 -0.0947
 4559TIP3    H135236   3.683   1.368   7.958  1.2476  0.9694 -1.4433
 4559TIP3    H235237   3.830   1.404   7.955  1.6263 -0.2294  0.9768
 4560TIP3   OH235238   2.588   3.948   3.145 -0.1526 -0.2985  0.8772
 4560TIP3    H135239   2.526   3.894   3.096  0.5717 -0.5217  0.1951
 4560TIP3    H235240   2.550   4.036   3.142  0.6106  0.0201 -1.4155
 4561TIP3   OH235241   2.692   1.899   0.458  0.0979  0.3277 -0.0593
 4561TIP3    H135242   2.611   1.944   0.432 -0.6505 -0.7997  0.2492
 4561TIP3    H235243   2.715   1.938   0.542 -1.4410 -0.9361  0.9964
 4562TIP3   OH235244   2.809   2.394   2.266  0.1125  0.4010 -0.0120
 4562TIP3    H135245   2.900   2.366   2.257  0.8363  2.2332  1.1952
 4562TIP3    H235246   2.814   2.486   2.289 -1.9959  0.1107  1.9600
 4563TIP3   OH235247   3.408   4.194   1.601  0.5588 -0.0802  0.4856
 4563TIP3    H135248   3.484   4.211   1.656  0.5900 -0.9681  0.7314
 4563TIP3    H235249   3.378   4.281   1.574  1.7051  0.2730  0.3106
 4564TIP3   OH235250   0.324   0.616   2.312 -0.2883  0.0814 -0.1121
 4564TIP3    H135251   0.349   0.548   2.375  0.5416  0.6883  0.2382
 4564TIP3    H235252   0.303   0.692   2.367  2.2197  1.2100 -0.5676
 4565TIP3   OH235253   1.771   5.263   1.266  0.3820  0.1201 -0.1009
 4565TIP3    H135254   1.861   5.276   1.237  0.1524 -0.7744 -1.3469
 4565TIP3    H235255   1.777   5.203   1.340  0.8154  0.0578 -0.1859
 4566TIP3   OH235256   3.079   4.946   1.099 -0.3508 -0.2962  0.0041
 4566TIP3    H135257   3.174   4.947   1.113 -0.2954 -1.0875 -0.2500
 4566TIP3    H235258   3.068   4.969   1.007 -0.3452 -1.0454 -0.1917
 4567TIP3   OH235259   4.866   0.063   8.306 -0.3361  0.1580  0.3759
 4567TIP3    H135260   4.958   0.069   8.332  0.0346 -1.9004 -0.2889
 4567TIP3    H235261   4.858   0.127   8.234  0.2601  1.1454  1.1593
 4568TIP3   OH235262   2.340   0.754   8.038 -0.0462 -0.3485  0.8567
 4568TIP3    H135263   2.293   0.775   7.957  0.5177  3.0773  1.2606
 4568TIP3    H235264   2.377   0.668   8.022 -0.6144 -0.1472 -2.2310
 4569TIP3   OH235265   1.591   2.949   8.357  0.7566 -0.3576 -0.0907
 4569TIP3    H135266   1.599   3.036   8.318  0.5217  0.6593  1.9862
 4569TIP3    H235267   1.498   2.927   8.349  0.9522 -0.7912 -1.3234
 4570TIP3   OH235268   0.198   3.879   8.461 -0.0220 -0.0396  0.0536
 4570TIP3    H135269   0.282   3.852   8.497  0.1686  1.0428  0.4594
 4570TIP3    H235270   0.207   3.973   8.445 -0.4894 -0.2665 -1.7869
 4571TIP3   OH235271   0.400   3.342   8.309  0.2180 -0.2100 -0.0890
 4571TIP3    H135272   0.429   3.432   8.325  1.7317 -0.3652 -1.6572
 4571TIP3    H235273   0.307   3.351   8.287 -0.1606  0.7125  1.7043
 4572TIP3   OH235274   3.315   5.618   8.435  0.8009 -0.2151 -0.3103
 4572TIP3    H135275   3.398   5.607   8.480 -0.5243 -1.0850  2.0682
 4572TIP3    H235276   3.260   5.545   8.466 -1.1643  0.8537 -1.0738
 4573TIP3   OH235277   5.950   6.179   8.191 -0.0071  0.2327 -0.3103
 4573TIP3    H135278   5.991   6.265   8.181 -2.7053  1.5939 -0.8332
 4573TIP3    H235279   5.902   6.185   8.274  0.3502 -1.0608  0.0110
 4574TIP3   OH235280   5.049   4.749   8.561  0.4358  0.3825  0.5040
 4574TIP3    H135281   5.094   4.807   8.623  1.4624 -0.6615  0.7876
 4574TIP3    H235282   4.972   4.798   8.533  0.7533  1.4790  1.4673
 4575TIP3   OH235283   5.665   4.615   8.381  0.3481 -0.0843  0.4896
 4575TIP3    H135284   5.574   4.598   8.405  0.0033  0.5209 -0.3447
 4575TIP3    H235285   5.660   4.685   8.316  1.4442  0.2835  0.7779
 4576TIP3   OH235286   6.219   3.162   1.782 -0.0613 -0.6350  0.3768
 4576TIP3    H135287   6.222   3.255   1.759  0.3870  0.6142  4.6041
 4576TIP3    H235288   6.126   3.144   1.797 -0.3714 -1.4861 -2.1125
 4577TIP3   OH235289   4.766   2.215   0.376 -0.2664 -0.0496  0.4355
 4577TIP3    H135290   4.728   2.128   0.361  1.3495 -0.7268  0.0974
 4577TIP3    H235291   4.759   2.259   0.291 -1.6966  0.4306  0.7740
 4578TIP3   OH235292   3.882   6.438   1.502  0.2450  0.0423 -0.5517
 4578TIP3    H135293   3.797   6.452   1.461  0.3310 -1.2260 -1.2052
 4578TIP3    H235294   3.943   6.430   1.429  0.6864 -0.5103 -0.1295
 4579TIP3   OH235295   6.209   3.684   2.466  0.1034  0.1318  0.4603
 4579TIP3    H135296   6.159   3.745   2.521 -0.4921  0.8213 -0.7995
 4579TIP3    H235297   6.299   3.717   2.470 -0.1450  0.8860  0.1064
 4580TIP3   OH235298   4.542   5.948   0.137  0.6104 -0.1771 -0.0231
 4580TIP3    H135299   4.637   5.938   0.130  0.9538  2.0531  0.6231
 4580TIP3    H235300   4.507   5.872   0.091  2.6954 -0.8553 -0.6399
 4581TIP3   OH235301   6.357   3.225   0.944 -0.4661  0.1014  0.1852
 4581TIP3    H135302   6.352   3.144   0.995 -1.5782  0.1856  0.2396
 4581TIP3    H235303   6.355   3.197   0.853  1.3802 -0.0418  0.1609
 4582TIP3   OH235304   5.498   1.175   7.823 -0.0745  0.4272  0.4355
 4582TIP3    H135305   5.552   1.144   7.895  1.9333 -0.5232 -1.3713
 4582TIP3    H235306   5.466   1.261   7.852  0.9582  0.2390  2.2701
 4583TIP3   OH235307   0.681   5.351   7.276 -0.0678 -0.4101  0.1698
 4583TIP3    H135308   0.625   5.302   7.215 -0.5211 -0.1297  0.3580
 4583TIP3    H235309   0.759   5.372   7.225 -1.7939  2.7953 -1.5028
 4584TIP3   OH235310   6.482   6.412   7.322 -0.3692  0.4812  0.0007
 4584TIP3    H135311   6.405   6.362   7.294 -1.2558  2.1594 -0.7087
 4584TIP3    H235312   6.475   6.495   7.276  1.8453  0.7346  0.0005
 4585TIP3   OH235313   3.871   4.784   7.328 -0.2506  0.2868  0.0081
 4585TIP3    H135314   3.892   4.779   7.234  0.9677  1.5907  0.1839
 4585TIP3    H235315   3.780   4.813   7.330 -0.6279 -0.7432 -0.7547
 4586TIP3   OH235316   5.154   2.351   8.037 -0.1646  0.2698  0.8179
 4586TIP3    H135317   5.152   2.383   7.946  4.7091 -0.0404  0.3418
 4586TIP3    H235318   5.195   2.423   8.086  1.1306 -1.1348  1.8699
 4587TIP3   OH235319   2.134   3.424   0.862 -0.6322 -0.4192  0.5201
 4587TIP3    H135320   2.052   3.473   0.851 -0.4023 -0.2382 -0.4965
 4587TIP3    H235321   2.194   3.488   0.901 -0.9885 -0.5885  1.3896
 4588TIP3   OH235322   1.026   2.449   7.620  0.0488  0.0832  0.0551
 4588TIP3    H135323   1.047   2.358   7.639 -1.2840 -0.3343 -0.3594
 4588TIP3    H235324   1.045   2.460   7.527  0.0583  0.1920  0.0689
 4589TIP3   OH235325   4.057   4.102   7.983 -0.2964 -0.4135  0.0861
 4589TIP3    H135326   4.025   4.169   7.921  0.9192 -0.1594 -0.2835
 4589TIP3    H235327   4.013   4.123   8.065  2.2143  2.7505  0.8293
 4590TIP3   OH235328   1.387   4.348   8.428  0.4514  0.0517 -0.4931
 4590TIP3    H135329   1.348   4.337   8.514  2.1853  0.0844  0.3315
 4590TIP3    H235330   1.354   4.433   8.397 -0.0489  0.1108  0.1973
 4591TIP3   OH235331   5.291   4.273   2.623  0.1282  0.6373  0.3790
 4591TIP3    H135332   5.222   4.304   2.681  1.1670 -0.1651  2.0997
 4591TIP3    H235333   5.369   4.267   2.678  1.0290 -0.7147 -0.9472
 4592TIP3   OH235334   2.745   4.045   2.243  0.0742 -0.4829 -0.3137
 4592TIP3    H135335   2.725   3.952   2.241  1.0397 -0.8301  2.3601
 4592TIP3    H235336   2.727   4.075   2.154 -2.8233 -2.6359 -0.6171
 4593TIP3   OH235337   5.652   5.990   0.495  0.1116 -0.2742  0.0866
 4593TIP3    H135338   5.578   6.025   0.446  1.1638 -0.2730 -1.5994
 4593TIP3    H235339   5.694   6.066   0.534 -2.0050 -0.4392  3.0662
 4594TIP3   OH235340   0.054   0.062   1.548 -0.6368 -0.4723  0.1581
 4594TIP3    H135341  -0.015   0.109   1.502  1.3679 -0.9780 -3.7274
 4594TIP3    H235342   0.041  -0.030   1.524  0.1732 -0.8700  1.1311
 4595TIP3   OH235343   4.170   1.681   0.956  0.1225 -0.2265 -0.8411
 4595TIP3    H135344   4.205   1.612   1.013  1.5035 -0.1924 -1.6093
 4595TIP3    H235345   4.103   1.723   1.009  0.5462 -0.9639  0.3317
 4596TIP3   OH235346   4.464   3.809   1.033  0.0879  0.3610 -0.8301
 4596TIP3    H135347   4.550   3.798   0.993  0.1959 -1.8765 -0.1217
 4596TIP3    H235348   4.404   3.765   0.973  0.0021 -1.3564  0.4322
 4597TIP3   OH235349   3.816   4.977   1.368 -0.0324  0.3059 -0.5210
 4597TIP3    H135350   3.814   4.925   1.448  0.1240  0.1386 -0.6280
 4597TIP3    H235351   3.844   4.917   1.300 -0.3151  0.4084 -0.7339
 4598TIP3   OH235352   5.101   6.144   7.047  0.3934 -0.5069 -0.1080
 4598TIP3    H135353   5.099   6.092   7.127 -2.0333 -0.5037 -0.1113
 4598TIP3    H235354   5.010   6.151   7.020  1.1114 -0.3579 -2.8102
 4599TIP3   OH235355   2.478   5.875   0.052 -0.0007  0.0706 -0.2771
 4599TIP3    H135356   2.557   5.925   0.070  0.3447  0.1639 -1.8800
 4599TIP3    H235357   2.451   5.902  -0.036 -1.1832 -0.7835 -0.2161
 4600TIP3   OH235358   2.643   1.331   8.118  0.3701  0.3908 -0.0926
 4600TIP3    H135359   2.660   1.369   8.032 -0.7859  0.2195 -0.4148
 4600TIP3    H235360   2.670   1.398   8.180 -0.7956  1.4065 -0.6397
 4601TIP3   OH235361   2.790   0.516   7.882  0.9834  0.0173 -0.0319
 4601TIP3    H135362   2.788   0.476   7.794 -0.1188 -0.6647  0.2812
 4601TIP3    H235363   2.712   0.481   7.925  1.2106  0.7998  1.0307
 4602TIP3   OH235364   0.705   0.381   0.888 -0.0103  0.0412  0.0616
 4602TIP3    H135365   0.699   0.375   0.983 -0.8491  1.2059  0.0982
 4602TIP3    H235366   0.614   0.382   0.858  0.1338  2.6038 -0.5227
 4603TIP3   OH235367   0.685   3.761   8.036 -0.5275 -0.4213  0.0664
 4603TIP3    H135368   0.662   3.670   8.054  0.5745 -0.4509  1.4406
 4603TIP3    H235369   0.611   3.812   8.068 -0.8924 -0.7940 -0.1826
 4604TIP3   OH235370   3.970   1.487   7.897  0.2077  0.1596 -0.5946
 4604TIP3    H135371   3.955   1.544   7.822  0.8977  0.1081 -0.7726
 4604TIP3    H235372   4.023   1.539   7.957 -1.4854  0.7242  0.5088
 4605TIP3   OH235373   2.398   1.491   0.124  0.0337 -0.5655  0.6914
 4605TIP3    H135374   2.309   1.513   0.096  1.2085  0.1916 -2.9961
 4605TIP3    H235375   2.443   1.575   0.127  1.4960 -1.1986 -1.3138
 4606TIP3   OH235376   4.570   6.618   7.307  0.0812  0.3357 -0.4310
 4606TIP3    H135377   4.547   6.525   7.296  0.0202  0.3418 -0.3566
 4606TIP3    H235378   4.592   6.648   7.218  0.7814  0.0717 -0.3543
 4607TIP3   OH235379   6.498   6.492   7.675  0.0289 -0.1352 -0.1224
 4607TIP3    H135380   6.475   6.550   7.602 -0.8137 -0.5724 -0.2142
 4607TIP3    H235381   6.582   6.453   7.649  0.2100  0.4277 -0.4156
 4608TIP3   OH235382   1.463   0.478   2.678  0.4801  0.3599 -0.0359
 4608TIP3    H135383   1.455   0.572   2.658  1.4259  0.5163  0.2460
 4608TIP3    H235384   1.375   0.443   2.666 -0.0347  1.4155  0.5195
 4609TIP3   OH235385   6.281   2.182   2.900  0.0271 -0.0418  0.9953
 4609TIP3    H135386   6.345   2.121   2.936  1.4014  0.3462 -0.6541
 4609TIP3    H235387   6.333   2.258   2.872 -1.3617  0.9744  1.0434
 4610TIP3   OH235388   1.462   5.058   0.644  0.0785  0.1801 -0.4962
 4610TIP3    H135389   1.512   5.064   0.563 -1.8429 -0.9586 -1.8496
 4610TIP3    H235390   1.525   5.079   0.713  1.8062  1.0581 -2.2498
 4611TIP3   OH235391   1.910   0.646   7.447  0.4891 -0.4626 -0.1579
 4611TIP3    H135392   1.833   0.627   7.394  0.0387  1.4763 -0.2662
 4611TIP3    H235393   1.880   0.634   7.537 -0.5004  1.8281 -0.1016
 4612TIP3   OH235394   6.350   1.959   1.973 -0.1115 -0.8823 -0.0260
 4612TIP3    H135395   6.442   1.940   1.988 -0.1706 -0.6226  0.7375
 4612TIP3    H235396   6.350   2.045   1.929  0.0153 -0.9582 -0.1739
 4613TIP3   OH235397   2.959   1.457   1.871  0.1433 -0.1190 -0.2623
 4613TIP3    H135398   2.905   1.408   1.809 -0.8860 -0.8513  1.1776
 4613TIP3    H235399   3.015   1.511   1.815 -1.3722 -0.0698 -1.8154
 4614TIP3   OH235400   4.135   3.947   7.328  0.3191  0.0181  0.6314
 4614TIP3    H135401   4.110   3.993   7.248 -0.0452 -0.8901  0.1977
 4614TIP3    H235402   4.167   4.015   7.387 -0.0656  0.7915 -0.0334
 4615TIP3   OH235403   1.247   1.389   8.246 -0.1153  0.3989  0.1731
 4615TIP3    H135404   1.179   1.356   8.304  1.0764  0.0401  1.4184
 4615TIP3    H235405   1.295   1.311   8.218  0.2324  0.7028 -0.0838
 4616TIP3   OH235406   1.580   3.906   2.134 -0.4340  0.5799  0.8122
 4616TIP3    H135407   1.552   3.984   2.181 -1.2289  0.7166  0.1262
 4616TIP3    H235408   1.522   3.836   2.165 -1.6350  0.8777 -0.6519
 4617TIP3   OH235409   3.690   0.231   2.449  0.6479 -0.1590 -0.3913
 4617TIP3    H135410   3.630   0.224   2.375  0.7551 -1.3234 -0.3980
 4617TIP3    H235411   3.634   0.224   2.526  0.7468 -1.2726 -0.3976
 4618TIP3   OH235412   0.383   6.081   0.607  0.1450 -0.1525  0.1565
 4618TIP3    H135413   0.470   6.063   0.570 -0.5827 -2.8595 -0.4876
 4618TIP3    H235414   0.327   6.094   0.531 -0.6408 -1.9805  0.3734
 4619TIP3   OH235415   3.028   3.379   7.744  0.3779  0.0345 -0.0827
 4619TIP3    H135416   2.955   3.373   7.806  0.4316 -0.5584 -0.0709
 4619TIP3    H235417   3.104   3.346   7.792  0.8778  1.5570  0.2291
 4620TIP3   OH235418   0.064   0.969   7.433 -0.0406 -0.0928  0.1917
 4620TIP3    H135419   0.124   0.994   7.362 -0.3680  0.6751  0.1797
 4620TIP3    H235420   0.066   1.043   7.493  0.5163 -0.8942  1.1889
 4621TIP3   OH235421   2.445   4.551   8.362 -0.3204  0.1281 -0.0112
 4621TIP3    H135422   2.492   4.558   8.445  0.6200  1.7766 -0.6257
 4621TIP3    H235423   2.476   4.626   8.311 -3.4292  1.2031 -0.5521
 4622TIP3   OH235424   2.006   2.598   2.738  0.4069 -0.7377  0.7863
 4622TIP3    H135425   2.059   2.532   2.694 -0.4623 -0.6697 -0.4107
 4622TIP3    H235426   1.920   2.558   2.747 -0.7729  0.9158 -1.8970
 4623TIP3   OH235427   0.153   0.279   1.677  0.0748  0.1162  0.7684
 4623TIP3    H135428   0.091   0.352   1.683  0.6121  0.7703 -1.0939
 4623TIP3    H235429   0.105   0.211   1.629  0.3037  0.0755  0.5975
 4624TIP3   OH235430   2.352   1.496   2.461  0.2176  0.1248 -0.5737
 4624TIP3    H135431   2.392   1.433   2.401 -0.3721 -1.9976  1.1077
 4624TIP3    H235432   2.288   1.542   2.408  1.0736 -0.2793 -2.0194
 4625TIP3   OH235433   4.335   5.631   0.401  0.3898  0.2863 -0.5010
 4625TIP3    H135434   4.372   5.576   0.333  0.0258 -0.1650 -0.3471
 4625TIP3    H235435   4.348   5.720   0.371 -0.8796  0.0738 -1.7654
 4626TIP3   OH235436   5.227   6.294   2.439 -0.1062  0.0446  0.1371
 4626TIP3    H135437   5.229   6.212   2.488  0.8310  1.4637  2.6453
 4626TIP3    H235438   5.318   6.320   2.431 -0.4464  1.5399  0.7139
 4627TIP3   OH235439   6.023   2.688   0.443 -0.0147 -0.4076  0.3779
 4627TIP3    H135440   6.098   2.648   0.487  0.6787 -0.4678 -0.8077
 4627TIP3    H235441   5.982   2.615   0.397 -1.1099 -0.4669  1.4104
 4628TIP3   OH235442   0.517   5.807   8.509 -0.1133 -0.6683 -0.4472
 4628TIP3    H135443   0.526   5.738   8.574 -0.2782 -0.2339  0.0512
 4628TIP3    H235444   0.598   5.804   8.459  0.0785 -0.9170 -0.1270
 4629TIP3   OH235445   6.480   1.115   8.178 -0.8348 -0.0484 -0.2935
 4629TIP3    H135446   6.387   1.137   8.165 -1.6418 -3.2324 -0.7339
 4629TIP3    H235447   6.496   1.043   8.118  1.0734 -1.6092  1.8940
 4630TIP3   OH235448   6.629   0.694   8.581 -0.0351  0.0786 -0.0699
 4630TIP3    H135449   6.625   0.685   8.485 -0.6713 -0.2931 -0.0130
 4630TIP3    H235450   6.709   0.649   8.606 -0.1042 -0.2304 -0.3912
 4631TIP3   OH235451   3.158   0.946   0.803  0.4891 -0.5548  0.2021
 4631TIP3    H135452   3.228   1.005   0.774  0.2685 -0.0741  0.6392
 4631TIP3    H235453   3.081   1.002   0.810 -0.0373 -1.1608 -0.6492
 4632TIP3   OH235454   5.623   3.028   0.485 -0.0831 -0.1681 -0.0223
 4632TIP3    H135455   5.647   2.977   0.562 -0.2985 -0.3104 -0.0472
 4632TIP3    H235456   5.577   3.105   0.520 -1.2981 -0.8595 -0.0608
 4633TIP3   OH235457   6.143   1.241   0.638  0.3255 -0.7840  0.3855
 4633TIP3    H135458   6.160   1.232   0.544 -0.6297  0.0944  0.1102
 4633TIP3    H235459   6.215   1.296   0.670  0.5022 -0.8571  0.1206
 4634TIP3   OH235460   4.046   3.162   1.181 -0.1206  0.4040 -0.7064
 4634TIP3    H135461   4.092   3.232   1.226 -0.1857 -0.1395  0.2261
 4634TIP3    H235462   4.023   3.100   1.250 -0.5301 -0.2783 -1.4401
 4635TIP3   OH235463   3.463   0.153   1.177 -0.2458  0.2869  0.1957
 4635TIP3    H135464   3.520   0.118   1.109 -0.0366 -0.3055  0.6690
 4635TIP3    H235465   3.509   0.232   1.208 -1.3476  1.8026 -1.7766
 4636TIP3   OH235466   2.242   5.424   0.415 -0.3163  1.1470  0.0072
 4636TIP3    H135467   2.246   5.329   0.402 -0.7027  0.9684  1.1317
 4636TIP3    H235468   2.275   5.461   0.333 -1.5475  0.0638 -1.0101
 4637TIP3   OH235469   4.280   1.304   6.851 -0.1277  0.3291 -0.2282
 4637TIP3    H135470   4.196   1.347   6.859  0.0439  0.3757  1.7615
 4637TIP3    H235471   4.340   1.373   6.822 -0.7227  0.3054 -1.6014
 4638TIP3   OH235472   2.980   5.992   7.125 -0.3304 -0.5531  0.0473
 4638TIP3    H135473   2.908   6.013   7.066 -0.1208 -1.3515 -0.5125
 4638TIP3    H235474   2.941   5.995   7.212 -0.5628  0.9793 -0.0776
 4639TIP3   OH235475   4.249   6.565   0.633  0.3338  0.5576 -0.1714
 4639TIP3    H135476   4.224   6.525   0.550  0.5064 -0.4512  0.2522
 4639TIP3    H235477   4.169   6.609   0.663  0.0402  0.2337 -0.4730
 4640TIP3   OH235478   3.794   2.999   0.812  0.2497 -0.3232  0.8115
 4640TIP3    H135479   3.875   3.006   0.863 -0.4026 -0.6433  1.9201
 4640TIP3    H235480   3.758   3.087   0.811  0.4201 -0.2555  0.6404
 4641TIP3   OH235481   5.382   4.519   8.241  0.1997  0.3405 -0.6002
 4641TIP3    H135482   5.468   4.506   8.201 -0.3156 -0.1829 -1.5839
 4641TIP3    H235483   5.320   4.497   8.172 -0.7326  0.6589  0.1114
 4642TIP3   OH235484   4.818   6.051   2.463 -0.1897 -0.6083  0.0506
 4642TIP3    H135485   4.826   6.073   2.370 -0.0144 -0.5658  0.0750
 4642TIP3    H235486   4.752   5.982   2.466  0.7573 -1.5458 -0.2413
 4643TIP3   OH235487   3.245   2.786   7.279 -0.2179 -0.0428 -0.4008
 4643TIP3    H135488   3.330   2.744   7.294 -0.5588 -0.7568 -0.4004
 4643TIP3    H235489   3.186   2.743   7.340 -0.5662  0.5048 -0.3444
 4644TIP3   OH235490   0.010   4.507   1.854  0.5515 -1.0775 -0.4583
 4644TIP3    H135491  -0.015   4.511   1.946  2.5509 -2.2325  0.1778
 4644TIP3    H235492   0.050   4.592   1.836 -0.3059 -0.6548 -0.4341
 4645TIP3   OH235493   6.035   2.414   0.226  0.5565 -0.1091  0.4122
 4645TIP3    H135494   6.003   2.418   0.136  3.7025  2.7370 -0.7650
 4645TIP3    H235495   5.984   2.343   0.266 -4.2574  1.4608 -2.1751
 4646TIP3   OH235496   4.525   0.525   2.462  0.9809  0.8565 -0.0214
 4646TIP3    H135497   4.583   0.466   2.511  0.0730  0.0221  0.0772
 4646TIP3    H235498   4.460   0.553   2.525  0.4274  0.6346 -0.4877
 4647TIP3   OH235499   0.000   4.101   1.870 -0.2440  0.1347  0.3020
 4647TIP3    H135500   0.058   4.047   1.815  2.0828  1.5704  1.1916
 4647TIP3    H235501  -0.076   4.119   1.815  0.8019 -0.6305 -1.4822
 4648TIP3   OH235502   5.651   4.057   1.361 -0.0665  0.7457  0.5645
 4648TIP3    H135503   5.628   4.147   1.338  0.1489  0.9771  1.2422
 4648TIP3    H235504   5.568   4.016   1.385 -0.0807  0.9501  0.8687
 4649TIP3   OH235505   2.057   2.095   7.426 -0.1715 -0.0397  0.0854
 4649TIP3    H135506   1.993   2.033   7.461 -2.0813  2.0783  0.5415
 4649TIP3    H235507   2.016   2.129   7.346  0.8139  0.6837 -0.1319
 4650TIP3   OH235508   5.176   6.275   1.292  0.2660 -0.3844  0.3142
 4650TIP3    H135509   5.180   6.370   1.277  0.4631 -0.4190  0.1449
 4650TIP3    H235510   5.171   6.237   1.204  1.7999 -0.6102  0.2897
 4651TIP3   OH235511   0.279   5.384   6.806 -0.4182 -0.4357 -0.5318
 4651TIP3    H135512   0.245   5.294   6.812  0.4126 -0.6793  1.2195
 4651TIP3    H235513   0.347   5.388   6.873 -0.1332  1.3872 -0.8862
 4652TIP3   OH235514   3.036   4.073   7.363 -0.3740 -0.0681 -0.2778
 4652TIP3    H135515   3.069   4.017   7.292  0.9789  1.2127 -0.7135
 4652TIP3    H235516   2.972   4.130   7.321  0.1589  0.4440 -0.4077
 4653TIP3   OH235517   6.001   5.025   7.694 -0.5915 -1.0712  0.2615
 4653TIP3    H135518   5.942   5.084   7.648 -0.3163 -0.3573  0.8093
 4653TIP3    H235519   6.055   5.082   7.749 -0.5164 -1.8506  1.0272
 4654TIP3   OH235520   0.070   0.229   7.231  0.0097  0.4054 -0.5636
 4654TIP3    H135521   0.012   0.299   7.261 -0.6630  0.4273 -1.8453
 4654TIP3    H235522   0.129   0.272   7.168 -0.6295 -0.2150 -1.6223
 4655TIP3   OH235523   0.048   2.364   0.367  0.6814 -0.0174  0.0933
 4655TIP3    H135524   0.112   2.322   0.425  0.3175 -0.9282 -0.1410
 4655TIP3    H235525   0.029   2.448   0.408  0.9931 -0.3287  0.8964
 4656TIP3   OH235526   1.489   4.728   7.021  0.5163 -0.2517  0.1032
 4656TIP3    H135527   1.400   4.705   7.048  0.6795 -1.0669 -0.0334
 4656TIP3    H235528   1.484   4.731   6.925  0.5445  0.1123  0.1103
 4657TIP3   OH235529   3.173   1.228   2.407 -0.4154  0.0781  0.0833
 4657TIP3    H135530   3.089   1.212   2.450 -1.5319 -0.2653 -2.0779
 4657TIP3    H235531   3.221   1.146   2.415 -1.2279 -0.4839 -0.5750
 4658TIP3   OH235532   3.506   1.121   8.127 -0.2544 -0.3495 -0.1537
 4658TIP3    H135533   3.481   1.146   8.038 -1.7714  1.0346  0.6175
 4658TIP3    H235534   3.602   1.123   8.125 -0.2287  2.3460 -1.1018
 4659TIP3   OH235535   5.526   2.452   2.228 -0.2087  0.3776  0.9577
 4659TIP3    H135536   5.449   2.507   2.242 -0.1692  0.8604 -0.5598
 4659TIP3    H235537   5.490   2.365   2.208 -0.5400  1.1068 -2.1149
 4660TIP3   OH235538   6.733   2.591   2.309  0.4607  0.5918  0.2233
 4660TIP3    H135539   6.799   2.524   2.324  0.7492  0.5183 -1.2570
 4660TIP3    H235540   6.658   2.543   2.274  1.0965  1.1437 -2.0037
 4661TIP3   OH235541   2.131   0.029   2.716 -0.5704  0.1370  1.1728
 4661TIP3    H135542   2.071   0.102   2.734  0.2604  0.2581  3.8265
 4661TIP3    H235543   2.202   0.069   2.665 -1.0391  0.7615  0.9938
 4662TIP3   OH235544   3.334   5.234   7.237  0.6053 -0.1974  0.6632
 4662TIP3    H135545   3.303   5.261   7.323  0.7743 -1.6184  1.1963
 4662TIP3    H235546   3.354   5.141   7.247 -0.7597 -0.7712 -1.2731
 4663TIP3   OH235547   4.623   4.040   6.632 -0.1734  0.1979 -0.5660
 4663TIP3    H135548   4.562   3.985   6.583  0.3240 -0.1651 -0.7876
 4663TIP3    H235549   4.690   3.979   6.664 -0.2796  0.4913  0.2241
 4664TIP3   OH235550   3.518   0.387   8.731  0.5298 -0.1327  0.1173
 4664TIP3    H135551   3.571   0.374   8.652 -0.2359 -1.5348 -0.1970
 4664TIP3    H235552   3.434   0.418   8.699  0.4306 -0.0724  0.4330
 4665TIP3   OH235553   0.874   2.898   0.244 -0.3597 -0.0846  0.6024
 4665TIP3    H135554   0.792   2.935   0.210  0.0353  0.1330 -0.1496
 4665TIP3    H235555   0.935   2.904   0.170  0.2901 -0.3869  1.1039
 4666TIP3   OH235556   2.014   3.830   1.927 -0.4655  0.0673  0.5864
 4666TIP3    H135557   2.053   3.876   2.002 -1.2929  0.9615  0.4918
 4666TIP3    H235558   1.975   3.751   1.965 -0.0452  0.0246  0.9406
 4667TIP3   OH235559   3.942   6.337   0.857 -0.2688  0.0552 -0.5030
 4667TIP3    H135560   3.868   6.335   0.919 -0.1618  1.4065 -0.2998
 4667TIP3    H235561   4.008   6.390   0.901  0.8912 -1.2401 -0.6403
 4668TIP3   OH235562   5.191   6.348   6.862 -0.2224  0.1331  0.3012
 4668TIP3    H135563   5.274   6.312   6.831 -0.7727 -1.6869  0.7955
 4668TIP3    H235564   5.165   6.290   6.934 -1.7981  0.7994  0.3183
 4669TIP3   OH235565   0.563   2.661   1.822  0.3840 -0.1853  0.0725
 4669TIP3    H135566   0.627   2.602   1.862  1.0209 -0.5243 -1.3894
 4669TIP3    H235567   0.503   2.602   1.776 -1.1319  0.1123  1.5679
 4670TIP3   OH235568   1.357   6.596   2.423  0.1793  1.0093  0.5362
 4670TIP3    H135569   1.398   6.542   2.357  1.0570  1.3422  0.8004
 4670TIP3    H235570   1.410   6.584   2.502  0.9136  2.8722  0.3821
 4671TIP3   OH235571   0.193   4.683   0.573  0.0621 -0.5501  0.4116
 4671TIP3    H135572   0.233   4.765   0.602 -1.6096  0.2576  0.5689
 4671TIP3    H235573   0.107   4.683   0.614 -0.1675 -2.1464 -0.0135
 4672TIP3   OH235574   4.383   0.590   2.185 -0.3200  0.0535 -0.3679
 4672TIP3    H135575   4.428   0.656   2.237  0.9561 -0.2017 -1.1057
 4672TIP3    H235576   4.291   0.613   2.192  0.0387  1.4693 -0.0137
 4673TIP3   OH235577   0.071   0.476   2.572  0.6668 -0.1287  0.0812
 4673TIP3    H135578   0.123   0.507   2.646  0.2897  0.8798 -0.0527
 4673TIP3    H235579   0.055   0.384   2.591 -0.7369  0.4504  2.0751
 4674TIP3   OH235580   3.449   6.685   7.962  0.3853  0.1766 -0.2047
 4674TIP3    H135581   3.416   6.614   7.907  2.1620 -1.5368  0.8086
 4674TIP3    H235582   3.535   6.706   7.926  0.0966  1.5076 -0.1744
 4675TIP3   OH235583   4.931   3.937   1.006 -0.7950 -0.5433  0.0894
 4675TIP3    H135584   5.025   3.937   0.989 -0.5286  0.3399  1.3934
 4675TIP3    H235585   4.915   3.854   1.052 -0.6507 -0.6620 -0.0717
 4676TIP3   OH235586   1.963   1.427   2.057  0.5699 -0.0606  0.5657
 4676TIP3    H135587   1.889   1.447   2.113  0.6136 -1.9653  1.3969
 4676TIP3    H235588   1.941   1.465   1.972 -1.4574 -0.7495  0.7327
 4677TIP3   OH235589   2.556   4.206   0.438 -0.3331  0.3564 -0.0875
 4677TIP3    H135590   2.643   4.188   0.402 -0.3507 -0.4334  0.2446
 4677TIP3    H235591   2.507   4.245   0.366 -0.3078 -1.0172 -0.8566
 4678TIP3   OH235592   0.499   1.863   1.291  0.4111 -0.3520 -0.3040
 4678TIP3    H135593   0.448   1.785   1.312 -0.8931 -0.1490 -2.4301
 4678TIP3    H235594   0.569   1.831   1.234  0.1111 -0.0425 -0.8542
 4679TIP3   OH235595   6.204   1.946   8.057 -0.0829  0.2994 -0.3240
 4679TIP3    H135596   6.272   1.895   8.100 -0.2643  0.6577  0.4089
 4679TIP3    H235597   6.241   2.034   8.050 -0.7906  0.7105  0.8763
 4680TIP3   OH235598   4.026   4.126   7.154 -0.4530  0.7206  0.4213
 4680TIP3    H135599   4.037   4.177   7.073 -1.6750  1.9972  1.0064
 4680TIP3    H235600   3.931   4.118   7.164 -0.3034 -1.3789  0.5782
 4681TIP3   OH235601   2.589   5.695   1.919 -0.1062 -0.3096 -0.6151
 4681TIP3    H135602   2.570   5.710   1.826 -0.8640  3.0672 -0.0516
 4681TIP3    H235603   2.515   5.734   1.965  1.1016 -0.3078  1.4495
 4682TIP3   OH235604   0.341   2.956   7.751  0.1255 -0.1201 -0.0944
 4682TIP3    H135605   0.292   2.922   7.826 -0.8268  0.0955 -0.6079
 4682TIP3    H235606   0.340   2.884   7.688  0.2958 -0.0396 -0.1873
 4683TIP3   OH235607   6.549   3.789   3.461 -0.5560 -0.7074  0.0650
 4683TIP3    H135608   6.575   3.881   3.457  1.2265 -1.1713  0.3775
 4683TIP3    H235609   6.461   3.788   3.424  0.0830  0.8554 -1.6460
 4684TIP3   OH235610   1.316   2.425   2.546  0.2029  0.0667  0.0932
 4684TIP3    H135611   1.256   2.353   2.528  1.6368 -0.9916 -0.6905
 4684TIP3    H235612   1.265   2.504   2.530 -0.5776 -0.8022 -1.9504
 4685TIP3   OH235613   1.381   0.065   2.730 -0.0764  0.0904 -0.3349
 4685TIP3    H135614   1.411  -0.026   2.730 -0.1980 -0.0462 -3.3006
 4685TIP3    H235615   1.363   0.084   2.822  1.1883 -2.4471  0.5383
 4686TIP3   OH235616   2.068   6.723   1.987 -0.1668  0.0186  0.3387
 4686TIP3    H135617   2.004   6.769   1.933 -0.1796 -0.7573 -0.3170
 4686TIP3    H235618   2.125   6.679   1.924 -0.3129 -1.0864  0.9581
 4687TIP3   OH235619   2.751   0.264   2.067  0.1255  0.1550 -0.1372
 4687TIP3    H135620   2.764   0.338   2.007  0.2010  0.6067  0.4237
 4687TIP3    H235621   2.833   0.259   2.117 -0.0124 -0.0790  0.0694
 4688TIP3   OH235622   5.292   5.740   2.044  0.1074 -0.0955  0.2411
 4688TIP3    H135623   5.207   5.768   2.079  0.5557 -0.2280  1.4874
 4688TIP3    H235624   5.270   5.679   1.973 -0.8349 -0.1134  0.5329
 4689TIP3   OH235625   1.687   5.784   8.578  0.8247  0.1358  0.2035
 4689TIP3    H135626   1.653   5.871   8.554  0.1523 -0.1670  0.0392
 4689TIP3    H235627   1.731   5.799   8.661  0.9170  0.6841  0.0656
 4690TIP3   OH235628   0.959   0.261   0.882 -0.0180  0.3767  0.2904
 4690TIP3    H135629   0.938   0.189   0.943 -1.0106  0.1847 -0.2660
 4690TIP3    H235630   0.875   0.300   0.861  0.4869  1.4856  0.2952
 4691TIP3   OH235631   3.416   3.584   7.588  0.2494 -0.3904 -0.3300
 4691TIP3    H135632   3.409   3.558   7.679  0.4384 -0.5492 -0.3596
 4691TIP3    H235633   3.336   3.551   7.547 -0.5169  0.8824  0.0590
 4692TIP3   OH235634   2.225   3.593   1.649 -0.1137  0.5792 -0.1419
 4692TIP3    H135635   2.193   3.510   1.685 -0.4029 -0.0269 -1.6931
 4692TIP3    H235636   2.236   3.650   1.725 -3.8733  0.4837  0.6758
 4693TIP3   OH235637   3.056   4.721   0.433 -0.0086  0.1691 -0.6006
 4693TIP3    H135638   3.127   4.692   0.375  1.2975  0.4035  0.8248
 4693TIP3    H235639   3.094   4.794   0.482  0.0808 -1.9670  2.8107
 4694TIP3   OH235640   6.486   2.354   1.520 -0.2035  0.6330  0.2768
 4694TIP3    H135641   6.414   2.351   1.457 -1.4972 -0.8927  1.7693
 4694TIP3    H235642   6.545   2.284   1.493  0.7896  1.8902 -0.9524
 4695TIP3   OH235643   3.867   6.755   2.893 -0.0023  0.1230  0.2578
 4695TIP3    H135644   3.775   6.763   2.868 -0.4599 -1.2809  1.3298
 4695TIP3    H235645   3.876   6.815   2.967  0.3687  1.4059 -0.7904
 4696TIP3   OH235646   0.364   4.990   7.272  0.5049  0.0773 -0.3480
 4696TIP3    H135647   0.452   4.963   7.246  1.0849  1.6943 -0.1764
 4696TIP3    H235648   0.331   5.041   7.198 -1.1248 -2.1254 -1.2552
 4697TIP3   OH235649   3.136   2.524   2.332 -0.1736 -0.4559 -0.0459
 4697TIP3    H135650   3.169   2.612   2.316  2.8883 -1.3478  0.6195
 4697TIP3    H235651   3.096   2.528   2.418  0.3276  0.2117  0.1647
 4698TIP3   OH235652   3.694   1.447   1.088  0.2741 -0.6028 -0.1698
 4698TIP3    H135653   3.649   1.529   1.067 -0.6762 -0.5918  1.7051
 4698TIP3    H235654   3.786   1.464   1.068 -0.1669  0.2603 -1.5986
 4699TIP3   OH235655   1.906   1.913   8.172 -0.0772  0.3799  0.1076
 4699TIP3    H135656   1.916   1.992   8.119 -2.7269  0.3751 -0.5265
 4699TIP3    H235657   1.876   1.945   8.257 -0.4367  0.1097  0.0838
 4700TIP3   OH235658   1.397   3.088   0.203  0.3327 -0.8328 -0.3586
 4700TIP3    H135659   1.475   3.035   0.191 -0.3350 -1.6411 -1.3320
 4700TIP3    H235660   1.359   3.058   0.285  1.1371 -0.2983  0.2153
 4701TIP3   OH235661   4.139   6.015   8.179  0.3184 -0.1421 -0.0533
 4701TIP3    H135662   4.126   5.965   8.260 -0.4158  0.4378  0.2018
 4701TIP3    H235663   4.207   6.079   8.201  0.4888 -0.3206 -0.0557
 4702TIP3   OH235664   3.680   2.239   0.415  0.1654  0.6192 -0.2739
 4702TIP3    H135665   3.621   2.239   0.339  0.3578  1.5762 -0.4274
 4702TIP3    H235666   3.741   2.167   0.397  0.0258  0.6438 -0.8807
 4703TIP3   OH235667   1.791   4.338   1.342 -0.1078  0.5968 -0.0227
 4703TIP3    H135668   1.724   4.277   1.311  0.1834  0.1095  0.2913
 4703TIP3    H235669   1.788   4.330   1.438 -0.7384  1.8012  0.0816
 4704TIP3   OH235670   2.056   2.789   0.278  0.3370 -0.3990 -0.0840
 4704TIP3    H135671   1.994   2.861   0.272  2.0582  1.0353 -2.7141
 4704TIP3    H235672   2.078   2.784   0.371 -1.4660  1.0058  0.4673
 4705TIP3   OH235673   5.894   6.695   0.251 -0.1802  0.1724 -0.1343
 4705TIP3    H135674   5.926   6.648   0.328 -1.8292 -0.7689  0.0224
 4705TIP3    H235675   5.878   6.627   0.186 -1.1364  0.6722 -0.4498
 4706TIP3   OH235676   0.062   1.510   0.957 -0.1826  1.0839 -0.3896
 4706TIP3    H135677   0.053   1.600   0.926 -0.8517  0.8232 -0.9905
 4706TIP3    H235678  -0.020   1.468   0.931  0.0337  0.3577  0.0781
 4707TIP3   OH235679   3.184   1.313   2.987  0.3662 -0.5905  0.4716
 4707TIP3    H135680   3.174   1.400   3.027  0.5309 -0.3872  0.0841
 4707TIP3    H235681   3.267   1.281   3.021 -0.2253 -1.0716  1.4792
 4708TIP3   OH235682   5.182   5.764   8.559  0.7914  0.0015  0.1151
 4708TIP3    H135683   5.142   5.731   8.478  0.7490 -0.3021  0.2594
 4708TIP3    H235684   5.124   5.735   8.628  2.6918 -3.0147  0.6436
 4709TIP3   OH235685   3.503   1.543   8.149  0.0724 -0.2288 -0.4149
 4709TIP3    H135686   3.448   1.485   8.200 -0.1540  0.8528  0.6134
 4709TIP3    H235687   3.456   1.555   8.067 -0.2827 -0.8153 -0.3012
 4710TIP3   OH235688   6.083   5.828   3.164 -0.0766 -0.2335  0.1421
 4710TIP3    H135689   6.108   5.758   3.225 -0.9843 -1.8269 -1.2330
 4710TIP3    H235690   6.166   5.861   3.130  0.4464  0.5989  2.0772
 4711TIP3   OH235691   5.491   1.505   0.329 -0.3897  0.6350 -0.2186
 4711TIP3    H135692   5.445   1.512   0.246  0.6528  0.0494 -0.8586
 4711TIP3    H235693   5.575   1.548   0.314 -0.6014  1.4864  0.8674
 4712TIP3   OH235694   1.743   6.019   7.337  0.1274 -0.0315  0.2465
 4712TIP3    H135695   1.800   5.985   7.268 -2.5921 -0.4086 -1.9947
 4712TIP3    H235696   1.725   5.943   7.393  0.9018 -0.1714  0.3133
 4713TIP3   OH235697   2.799   3.050   8.617  0.0440 -0.0325 -0.6130
 4713TIP3    H135698   2.849   3.055   8.536 -1.3052 -0.7721 -1.5448
 4713TIP3    H235699   2.842   2.981   8.668  0.3003 -0.2747 -1.1489
 4714TIP3   OH235700   5.299   3.646   7.889  0.0641  0.0636  0.1426
 4714TIP3    H135701   5.304   3.580   7.820  2.4095 -0.0780  0.3410
 4714TIP3    H235702   5.298   3.730   7.842  0.1673 -0.0633 -0.0908
 4715TIP3   OH235703   4.396   0.192   7.888 -0.8603  0.0076  0.1463
 4715TIP3    H135704   4.398   0.278   7.929  1.2464  0.1603 -0.1453
 4715TIP3    H235705   4.465   0.143   7.932  2.0430  0.3996 -3.4189
 4716TIP3   OH235706   5.273   1.339   0.102 -0.4528  0.0777 -0.2317
 4716TIP3    H135707   5.184   1.376   0.101  0.5462  2.7781 -1.8397
 4716TIP3    H235708   5.330   1.416   0.103  1.9255 -1.5737  1.1130
 4717TIP3   OH235709   3.988   1.813   1.943 -0.3291 -0.0482  0.0824
 4717TIP3    H135710   3.989   1.724   1.909  0.0085 -0.1194  0.2769
 4717TIP3    H235711   3.970   1.804   2.036 -1.6604  0.1711 -0.1287
 4718TIP3   OH235712   2.144   3.503   8.583  0.4213 -0.1455 -0.1987
 4718TIP3    H135713   2.141   3.442   8.510 -1.1712 -0.2759 -0.0576
 4718TIP3    H235714   2.179   3.584   8.546 -1.5910  0.2172 -1.4649
 4719TIP3   OH235715   1.779   1.352   2.272  0.4039  0.3055  0.1286
 4719TIP3    H135716   1.802   1.353   2.365  0.7083  0.4211  0.0505
 4719TIP3    H235717   1.802   1.263   2.243 -4.1782 -1.5907  1.2962
 4720TIP3   OH235718   2.554   0.492   1.846 -0.4416 -0.0897  0.1726
 4720TIP3    H135719   2.610   0.429   1.802  0.5498  0.5723  0.4529
 4720TIP3    H235720   2.543   0.563   1.782  0.1957  0.4205  0.6170
 4721TIP3   OH235721   1.283   3.355   2.002  0.1013  0.0931 -0.2217
 4721TIP3    H135722   1.304   3.352   2.095  1.7788  2.5828 -0.4291
 4721TIP3    H235723   1.255   3.445   1.986 -0.1358 -0.2651 -2.1484
 4722TIP3   OH235724   4.045   4.666   0.437 -0.4132  0.2444  0.4010
 4722TIP3    H135725   4.011   4.712   0.360  0.1778 -0.3895 -0.2494
 4722TIP3    H235726   4.132   4.703   0.451 -1.0600  1.3668  1.6403
 4723TIP3   OH235727   3.338   5.876   0.993  0.3884  0.1364  0.0079
 4723TIP3    H135728   3.375   5.796   1.033  0.0833  0.2016  0.4327
 4723TIP3    H235729   3.259   5.893   1.044 -0.7158 -0.4941 -1.4429
 4724TIP3   OH235730   6.464   0.890   8.693  0.2249  0.7223 -0.0222
 4724TIP3    H135731   6.512   0.807   8.692 -1.5189 -0.3257 -0.1098
 4724TIP3    H235732   6.467   0.920   8.602 -0.6098 -0.1427 -0.3471
 4725TIP3   OH235733   1.415   4.280   1.377 -0.2310 -0.1916  0.8449
 4725TIP3    H135734   1.412   4.239   1.463 -3.1048  0.6487  1.2375
 4725TIP3    H235735   1.427   4.208   1.316  2.5712 -0.7471  1.8858
 4726TIP3   OH235736   0.369   5.283   1.372 -0.0978  0.1248  0.3420
 4726TIP3    H135737   0.316   5.217   1.417 -1.9415  1.0142 -0.4024
 4726TIP3    H235738   0.443   5.299   1.430  0.7864 -3.0330  0.2680
 4727TIP3   OH235739   1.687   2.470   7.708 -0.3243 -0.5182  0.8775
 4727TIP3    H135740   1.638   2.548   7.683 -0.4239  0.4946  3.8823
 4727TIP3    H235741   1.622   2.400   7.710 -1.1057  0.2072  1.9958
 4728TIP3   OH235742   5.917   0.453   8.448 -0.2676 -0.0920 -0.1779
 4728TIP3    H135743   5.913   0.367   8.405  1.2843 -0.1659 -0.2209
 4728TIP3    H235744   5.827   0.486   8.443 -1.0867 -2.0382  0.5303
 4729TIP3   OH235745   5.351   5.435   2.169 -0.0946 -0.5777  0.5704
 4729TIP3    H135746   5.411   5.359   2.170  2.4091  1.2753  1.0684
 4729TIP3    H235747   5.313   5.436   2.257  1.1291 -0.3642  1.1236
 4730TIP3   OH235748   6.607   2.511   0.923  0.6266 -0.0711  0.0146
 4730TIP3    H135749   6.628   2.443   0.988 -0.6617 -1.2278 -0.7301
 4730TIP3    H235750   6.692   2.534   0.885  1.3857  0.4189  1.8566
 4731TIP3   OH235751   5.094   0.218   8.468 -0.4187 -0.0861 -0.0046
 4731TIP3    H135752   5.180   0.260   8.457 -0.7530  0.4217 -0.7153
 4731TIP3    H235753   5.032   0.290   8.474 -0.7385 -0.4299  1.2168
 4732TIP3   OH235754   4.647   4.495   7.570 -0.3936 -0.0817 -0.6779
 4732TIP3    H135755   4.671   4.403   7.578  0.2707  0.1072 -0.4680
 4732TIP3    H235756   4.672   4.519   7.481  0.8984  0.3090 -0.2248
 4733TIP3   OH235757   1.949   3.223   8.105 -0.7651 -0.2708  0.5061
 4733TIP3    H135758   1.989   3.173   8.176  0.2953 -0.7978 -0.4231
 4733TIP3    H235759   2.006   3.208   8.030 -1.0606  1.4274 -0.1064
 4734TIP3   OH235760   2.929   0.384   0.601  0.1671  0.2476  0.0947
 4734TIP3    H135761   2.915   0.395   0.695 -2.3756  2.4370 -0.4223
 4734TIP3    H235762   2.915   0.290   0.586  0.4457 -0.1067  1.8741
 4735TIP3   OH235763   0.196   2.386   8.318  0.5459 -0.3969  0.5181
 4735TIP3    H135764   0.135   2.439   8.368  1.6870  1.1587  0.3264
 4735TIP3    H235765   0.153   2.371   8.234  0.5101  0.8916  0.2949
 4736TIP3   OH235766   6.624   5.587   0.042  0.5447 -0.7015 -0.1055
 4736TIP3    H135767   6.597   5.591   0.134  0.3148 -1.8099 -0.1131
 4736TIP3    H235768   6.563   5.647  -0.002  0.3547 -0.5146  0.3934
 4737TIP3   OH235769   5.315   1.073   0.768 -0.6268  0.2452 -0.0436
 4737TIP3    H135770   5.244   1.137   0.770 -1.1566 -0.3368 -0.1646
 4737TIP3    H235771   5.380   1.112   0.709 -0.8405  0.7786  0.0659
 4738TIP3   OH235772   4.688   3.069   8.659  0.2189  0.5728  0.2503
 4738TIP3    H135773   4.721   3.149   8.619 -0.5881  0.4043 -0.7844
 4738TIP3    H235774   4.745   2.999   8.626  1.3013  0.7553  1.6198
 4739TIP3   OH235775   2.924   5.472   8.371 -0.4039 -0.0965 -0.5607
 4739TIP3    H135776   2.872   5.399   8.338  2.3728 -2.0269 -1.0315
 4739TIP3    H235777   2.916   5.466   8.467 -1.9690  0.4417 -0.6298
 4740TIP3   OH235778   0.359   6.226   7.771 -0.3573  0.2168 -0.3122
 4740TIP3    H135779   0.321   6.276   7.843 -0.6428 -0.2524 -0.1349
 4740TIP3    H235780   0.329   6.271   7.692 -1.2828 -0.1490 -0.1747
 4741TIP3   OH235781   2.359   6.716   8.014 -0.5898  0.5330  0.6963
 4741TIP3    H135782   2.282   6.718   8.072 -1.8759  0.5696 -0.9296
 4741TIP3    H235783   2.363   6.626   7.983 -0.1650  0.6121  0.5159
 4742TIP3   OH235784   2.902   0.910   2.822 -0.7980 -0.8221 -0.3047
 4742TIP3    H135785   2.811   0.905   2.794 -1.2168 -0.2379  0.8804
 4742TIP3    H235786   2.921   1.004   2.826  0.4568 -0.9089 -2.2858
 4743TIP3   OH235787   1.973   6.179   2.211 -0.0092 -0.0887 -0.0604
 4743TIP3    H135788   1.971   6.174   2.116 -2.5223 -2.1824 -0.0068
 4743TIP3    H235789   2.066   6.187   2.233  0.7567 -0.9973 -2.6187
 4744TIP3   OH235790   1.358   6.100   7.118  0.0855  0.6739 -0.2406
 4744TIP3    H135791   1.314   6.104   7.033 -0.8685  1.2099  0.2548
 4744TIP3    H235792   1.345   6.010   7.147 -1.0605  0.9291  0.0758
 4745TIP3   OH235793   6.378   5.390   0.260 -0.3000 -0.1458  0.5077
 4745TIP3    H135794   6.352   5.429   0.177 -1.7894 -0.0532  0.9913
 4745TIP3    H235795   6.296   5.366   0.303  0.2770  1.6235  2.8444
 4746TIP3   OH235796   2.701   1.500   7.926 -0.1453 -0.0515  0.5260
 4746TIP3    H135797   2.661   1.454   7.852  1.5914 -0.8444  0.0427
 4746TIP3    H235798   2.653   1.584   7.930 -1.1649 -0.5405 -0.6337
 4747TIP3   OH235799   5.385   6.448   0.804  0.1544  0.6966  0.2090
 4747TIP3    H135800   5.357   6.537   0.779  0.8495  1.7569  2.8463
 4747TIP3    H235801   5.443   6.420   0.733 -3.0228  0.6672 -2.6507
 4748TIP3   OH235802   0.566   6.523   6.835 -0.2744  0.1599  0.1073
 4748TIP3    H135803   0.503   6.461   6.798 -0.6290  0.5250  0.0951
 4748TIP3    H235804   0.621   6.469   6.893  2.0498 -0.9989 -2.9011
 4749TIP3   OH235805   6.270   2.568   8.354 -0.0359 -0.4871  0.1412
 4749TIP3    H135806   6.322   2.490   8.376 -2.3703 -2.0356  0.5970
 4749TIP3    H235807   6.332   2.627   8.312  1.6477 -3.1155 -1.4401
 4750TIP3   OH235808   3.023   6.622   0.738 -0.0277  0.0213  0.3807
 4750TIP3    H135809   3.025   6.535   0.699 -1.1301  0.5448 -0.9617
 4750TIP3    H235810   2.932   6.650   0.727  0.3951  1.4862  0.4426
 4751TIP3   OH235811   4.852   4.272   2.816 -0.1276 -0.7295  0.3927
 4751TIP3    H135812   4.944   4.298   2.823 -0.5622  0.3553  2.9833
 4751TIP3    H235813   4.848   4.188   2.863 -0.8362  0.4064  2.4724
 4752TIP3   OH235814   0.375   0.140   0.693 -0.4128  0.1978 -0.2128
 4752TIP3    H135815   0.312   0.209   0.671 -1.5597 -1.3316 -2.1022
 4752TIP3    H235816   0.458   0.173   0.659 -0.8028  0.9314 -0.4892
 4753TIP3   OH235817   3.349   0.465   0.813 -0.1010 -0.7217 -0.3238
 4753TIP3    H135818   3.316   0.439   0.899 -0.6056  2.4924  0.6160
 4753TIP3    H235819   3.270   0.482   0.762  0.1762 -0.4045 -0.6518
 4754TIP3   OH235820   1.580   2.174   7.132 -0.2958  0.5162 -0.0638
 4754TIP3    H135821   1.557   2.128   7.051 -3.0392 -0.6767  1.2541
 4754TIP3    H235822   1.670   2.203   7.118 -0.0971 -1.0614 -2.8840
 4755TIP3   OH235823   5.443   6.332   7.639 -0.4621  0.0344 -0.3244
 4755TIP3    H135824   5.498   6.269   7.592  0.8999  0.6974  0.3047
 4755TIP3    H235825   5.491   6.349   7.720 -1.6431  0.6093  0.2742
 4756TIP3   OH235826   5.538   3.728   2.799  0.3901 -0.1617 -0.1717
 4756TIP3    H135827   5.622   3.757   2.762  0.4704 -1.7597 -1.3518
 4756TIP3    H235828   5.561   3.652   2.852 -0.3174 -0.7167 -0.6430
 4757TIP3   OH235829   0.580   0.205   8.030 -0.3051 -0.4282  0.4847
 4757TIP3    H135830   0.659   0.248   8.064  0.4933 -1.7627  0.3948
 4757TIP3    H235831   0.600   0.189   7.938 -1.5085  1.0285 -0.0611
 4758TIP3   OH235832   3.726   2.878   1.619  0.2392  0.5460 -0.5752
 4758TIP3    H135833   3.814   2.894   1.584  0.0993  0.8557 -0.7956
 4758TIP3    H235834   3.730   2.913   1.708 -0.0791  1.9327 -1.0749
 4759TIP3   OH235835   1.167   3.584   2.546 -0.1803  0.1432  0.1660
 4759TIP3    H135836   1.146   3.642   2.620  1.3516 -0.2290  0.9366
 4759TIP3    H235837   1.213   3.640   2.484  0.0019  0.0825  0.2462
 4760TIP3   OH235838   5.325   1.709   1.538  0.6784 -0.5830 -0.0378
 4760TIP3    H135839   5.257   1.652   1.503 -0.5596  0.9025 -0.1488
 4760TIP3    H235840   5.281   1.792   1.555  2.4537  0.4298 -0.0839
 4761TIP3   OH235841   4.420   1.908   8.330 -0.3231 -0.7702 -0.2594
 4761TIP3    H135842   4.332   1.890   8.297 -0.2631 -0.0671 -0.8097
 4761TIP3    H235843   4.479   1.881   8.260 -0.0418 -1.8529  0.3536
 4762TIP3   OH235844   5.930   4.274   2.054 -0.5426 -0.1153  0.4148
 4762TIP3    H135845   5.918   4.364   2.084  2.3523 -0.1918  2.2723
 4762TIP3    H235846   6.025   4.266   2.043 -0.9518 -1.9553 -3.2573
 4763TIP3   OH235847   2.313   3.137   7.109  0.0692 -0.2832  0.0312
 4763TIP3    H135848   2.273   3.208   7.058  0.2997 -0.3406 -0.2356
 4763TIP3    H235849   2.275   3.057   7.073  0.1861 -0.3211 -0.0075
 4764TIP3   OH235850   1.705   2.121   0.392 -1.0889  0.8200  0.2586
 4764TIP3    H135851   1.688   2.157   0.479  1.7229  0.9520  0.8554
 4764TIP3    H235852   1.797   2.141   0.375 -0.9637 -1.0636 -1.8431
 4765TIP3   OH235853   4.014   1.773   7.430  0.3175 -0.6743 -0.8571
 4765TIP3    H135854   4.107   1.787   7.449  0.4192 -3.2020  1.1160
 4765TIP3    H235855   4.014   1.700   7.367 -0.3429  0.2184 -1.9263
 4766TIP3   OH235856   3.212   1.608   0.629 -0.5220  0.1327 -0.5847
 4766TIP3    H135857   3.138   1.625   0.687 -0.4240  2.5167 -1.0614
 4766TIP3    H235858   3.176   1.621   0.541  0.2118  0.3456 -0.8577
 4767TIP3   OH235859   3.313   4.006   2.247 -0.2513  0.6176  0.0161
 4767TIP3    H135860   3.222   3.980   2.262 -0.4596  1.6407  0.5694
 4767TIP3    H235861   3.365   3.942   2.296 -0.5889 -0.7892 -1.3844
 4768TIP3   OH235862   4.153   0.083   1.216 -0.1076  0.7657  0.2911
 4768TIP3    H135863   4.214   0.133   1.271  0.4824  1.8732 -1.2962
 4768TIP3    H235864   4.110   0.023   1.277  2.5162 -0.0327  1.5080
 4769TIP3   OH235865   1.990   5.308   8.201 -0.5527 -0.0800 -0.2323
 4769TIP3    H135866   2.056   5.248   8.167  1.0079  2.5476 -2.1005
 4769TIP3    H235867   2.016   5.323   8.292 -0.1269 -1.0338 -0.1822
 4770TIP3   OH235868   6.198   5.019   1.691  0.2765  0.0665  0.2738
 4770TIP3    H135869   6.143   4.997   1.766  1.0873 -0.9932  0.5852
 4770TIP3    H235870   6.238   4.936   1.665  0.3038  0.4876 -1.1010
 4771TIP3   OH235871   6.121   3.780   7.977  0.0087  0.6339  0.5810
 4771TIP3    H135872   6.150   3.798   7.888  0.0720 -0.5491  0.3341
 4771TIP3    H235873   6.199   3.746   8.021 -0.2594  0.2523  0.7747
 4772TIP3   OH235874   4.450   2.502   0.398  0.4069  0.3953  0.3606
 4772TIP3    H135875   4.467   2.477   0.308 -3.3765 -1.8775  0.0867
 4772TIP3    H235876   4.374   2.560   0.393 -0.5061 -0.5824  2.1177
 4773TIP3   OH235877   1.118   2.274   8.171  0.1804  0.2240 -0.1239
 4773TIP3    H135878   1.084   2.332   8.103 -1.9706 -1.7512 -0.8913
 4773TIP3    H235879   1.101   2.320   8.253 -4.3005 -0.3124 -0.4458
 4774TIP3   OH235880   6.181   3.081   2.167  0.2220 -0.2351 -0.1839
 4774TIP3    H135881   6.227   3.087   2.251  0.9289  0.4668 -0.6043
 4774TIP3    H235882   6.250   3.091   2.101 -0.3672 -0.4525 -0.8426
 4775TIP3   OH235883   2.859   4.476   1.578 -0.4293  0.0968 -0.3320
 4775TIP3    H135884   2.936   4.471   1.635 -0.9179  0.3518  0.3657
 4775TIP3    H235885   2.804   4.402   1.606 -1.1966  0.8914  0.3348
 4776TIP3   OH235886   3.549   5.351   2.196 -0.0909  0.0067 -0.1565
 4776TIP3    H135887   3.575   5.292   2.126 -0.3874  0.2445 -0.4675
 4776TIP3    H235888   3.620   5.416   2.200 -0.2994  0.2592 -0.5451
 4777TIP3   OH235889   5.634   0.876   8.564 -0.5889  0.7423 -0.3850
 4777TIP3    H135890   5.565   0.849   8.503 -0.7776  0.4655 -0.0529
 4777TIP3    H235891   5.587   0.894   8.646 -0.2921  0.7571 -0.2191
 4778TIP3   OH235892   4.273   3.456   7.360 -0.5077 -0.6105 -0.3069
 4778TIP3    H135893   4.257   3.411   7.442  1.2570  1.5277  1.3558
 4778TIP3    H235894   4.187   3.472   7.323 -1.4543 -0.5409  1.7950
 4779TIP3   OH235895   6.182   1.985   2.204  0.0783  0.4176 -0.2270
 4779TIP3    H135896   6.130   1.906   2.223  1.9393 -0.5660  1.0450
 4779TIP3    H235897   6.247   1.956   2.140 -0.0026  1.2540 -0.6971
 4780TIP3   OH235898   5.554   6.796   7.309  0.6296  0.0318 -0.1866
 4780TIP3    H135899   5.465   6.801   7.344 -0.0580  0.5212 -1.9095
 4780TIP3    H235900   5.543   6.792   7.214  2.3932 -1.7184 -0.4011
 4781TIP3   OH235901   2.521   2.945   8.344 -0.0786 -0.4110  0.5507
 4781TIP3    H135902   2.576   2.946   8.266 -0.5396 -2.5724  0.1136
 4781TIP3    H235903   2.477   3.030   8.344  0.4672 -0.0834 -1.1525
 4782TIP3   OH235904   6.043   4.585   2.315  0.3798 -0.1608  0.5920
 4782TIP3    H135905   6.032   4.673   2.351  4.3911 -0.2065  2.4554
 4782TIP3    H235906   6.006   4.591   2.226  1.4835  3.7741  0.2215
 4783TIP3   OH235907   1.038   1.621   0.822  0.3905 -0.6322  0.1089
 4783TIP3    H135908   0.951   1.591   0.850  0.2096 -1.0052 -0.8343
 4783TIP3    H235909   1.099   1.571   0.877  0.0233 -0.3048  0.8379
 4784TIP3   OH235910   6.154   5.694   1.914 -0.2979  0.8630 -0.5675
 4784TIP3    H135911   6.158   5.756   1.987  0.7268  0.4428 -0.2544
 4784TIP3    H235912   6.219   5.725   1.852 -0.8941  0.9908 -1.1364
 4785TIP3   OH235913   4.303   6.711   1.093  0.1827 -0.8196 -0.6098
 4785TIP3    H135914   4.255   6.787   1.126  2.6709  0.9356 -0.7459
 4785TIP3    H235915   4.329   6.735   1.004  0.8265 -1.9244 -0.7412
 4786TIP3   OH235916   4.802   5.980   7.439  1.0878 -0.3467  0.0742
 4786TIP3    H135917   4.816   5.991   7.533  1.1045 -1.0342  0.1559
 4786TIP3    H235918   4.716   6.020   7.423  0.7397 -0.8883  0.5223
 4787TIP3   OH235919   4.974   0.704   1.863  0.1767 -0.2075  0.8016
 4787TIP3    H135920   5.068   0.701   1.884 -0.0863  0.7307  2.2231
 4787TIP3    H235921   4.965   0.778   1.804  0.5475 -1.3530 -0.7784
 4788TIP3   OH235922   2.915   2.032   0.736 -0.0405  0.1119  0.0135
 4788TIP3    H135923   2.949   2.098   0.797 -0.8976  0.6891 -0.1298
 4788TIP3    H235924   2.937   2.066   0.649 -0.8037  0.4029 -0.0742
 4789TIP3   OH235925   3.045   4.899   7.033  0.3560  0.0564  0.6405
 4789TIP3    H135926   3.058   4.990   7.006  1.4312 -0.3239 -0.1996
 4789TIP3    H235927   2.960   4.899   7.077  0.2338  1.4185  0.4550
 4790TIP3   OH235928   2.791   5.268   2.161  0.1949  0.3817  0.0214
 4790TIP3    H135929   2.882   5.289   2.141  0.2883  0.1477  0.1981
 4790TIP3    H235930   2.740   5.338   2.119  0.4377  0.3612 -0.3141
 4791TIP3   OH235931   2.047   1.326   1.458 -0.4431  0.1086 -0.6884
 4791TIP3    H135932   1.993   1.248   1.456  1.5938 -1.3973 -0.3892
 4791TIP3    H235933   2.072   1.336   1.550  1.3865 -0.4492 -1.0923
 4792TIP3   OH235934   3.577   4.414   8.550 -0.3875 -0.0373  0.5795
 4792TIP3    H135935   3.555   4.472   8.478  0.7696 -1.9506 -1.4243
 4792TIP3    H235936   3.493   4.390   8.589 -1.1319  0.1947 -0.8339
 4793TIP3   OH235937   6.253   3.392   2.338  0.3947 -0.6073  0.6463
 4793TIP3    H135938   6.333   3.439   2.318  0.8081 -0.6454  2.1271
 4793TIP3    H235939   6.188   3.460   2.356  0.3153 -0.5919  0.3206
 4794TIP3   OH235940   2.325   3.424   0.036 -0.7033 -0.0226 -0.0010
 4794TIP3    H135941   2.401   3.367   0.020 -1.3006 -0.8055 -0.1588
 4794TIP3    H235942   2.284   3.433  -0.050 -0.7487  0.4600  0.0700
 4795TIP3   OH235943   5.780   2.506   1.740 -0.1171 -0.1929  0.4376
 4795TIP3    H135944   5.724   2.529   1.666 -0.4277  0.5438  0.8903
 4795TIP3    H235945   5.731   2.535   1.817 -0.4110 -2.1409  1.0377
 4796TIP3   OH235946   3.822   1.888   0.901 -0.7170 -0.2329 -0.4667
 4796TIP3    H135947   3.856   1.977   0.897 -0.2898 -0.3702  0.0283
 4796TIP3    H235948   3.893   1.836   0.939 -0.4675 -1.0409 -1.9576
 4797TIP3   OH235949   3.959   0.225   8.479 -0.2234  0.0164  0.8943
 4797TIP3    H135950   3.992   0.138   8.499 -0.1105 -0.3626 -0.7583
 4797TIP3    H235951   3.871   0.227   8.517 -0.2691 -0.8708  0.8429
 4798TIP3   OH235952   0.737   1.969   8.538 -0.5849 -0.5708  0.3545
 4798TIP3    H135953   0.698   1.944   8.454  0.9424  0.2038 -0.6322
 4798TIP3    H235954   0.685   2.045   8.566 -0.6869 -0.4163 -0.2359
 4799TIP3   OH235955   3.381   3.600   2.805  0.1390  0.5504 -0.2725
 4799TIP3    H135956   3.471   3.596   2.837 -0.1007  1.2677  0.5342
 4799TIP3    H235957   3.344   3.677   2.848 -0.9199  0.1463 -0.4433
 4800TIP3   OH235958   3.823   2.467   7.727 -0.5596  0.3036 -0.1832
 4800TIP3    H135959   3.766   2.426   7.792  0.9555 -0.1426  0.9281
 4800TIP3    H235960   3.862   2.394   7.679  0.8238  0.4638  0.6403
 4801TIP3   OH235961   3.867   0.979   1.546 -0.2511 -0.2167  0.0319
 4801TIP3    H135962   3.784   0.938   1.519 -0.2100 -0.9741  0.9861
 4801TIP3    H235963   3.898   1.024   1.467 -0.7816 -1.2447 -0.7929
 4802TIP3   OH235964   4.872   6.529   7.911 -0.4725  0.0364 -0.4226
 4802TIP3    H135965   4.876   6.612   7.864  0.2728 -0.2026 -0.8013
 4802TIP3    H235966   4.964   6.503   7.922 -0.6635 -0.3156  0.4439
 4803TIP3   OH235967   2.862   5.581   7.652  0.0931  0.6416  0.6610
 4803TIP3    H135968   2.857   5.575   7.747 -0.3848 -0.6856  0.5720
 4803TIP3    H235969   2.925   5.513   7.627 -1.1941 -0.3434 -0.0749
 4804TIP3   OH235970   0.388   3.100   2.500  0.1869 -0.1906 -0.0415
 4804TIP3    H135971   0.417   3.160   2.568  2.1942  0.7026 -1.6114
 4804TIP3    H235972   0.293   3.114   2.496  0.1283  0.3463  1.9383
 4805TIP3   OH235973   3.358   5.733   1.727  0.1619  0.0045 -0.1638
 4805TIP3    H135974   3.272   5.733   1.767 -0.1805 -0.8950 -0.8383
 4805TIP3    H235975   3.411   5.676   1.783 -0.0954 -0.6050 -0.5232
 4806TIP3   OH235976   1.064   3.018   2.239 -0.1383  0.7535  0.9058
 4806TIP3    H135977   1.148   3.064   2.235 -0.7637  2.0735  1.9253
 4806TIP3    H235978   1.029   3.025   2.150  0.9731 -0.1195  0.3861
 4807TIP3   OH235979   3.390   6.178   7.972  0.1091 -0.6398 -0.0692
 4807TIP3    H135980   3.475   6.184   7.928  0.4623 -2.2815  0.3418
 4807TIP3    H235981   3.329   6.152   7.903 -0.6480  2.9055 -0.9534
 4808TIP3   OH235982   0.654   4.852   1.532  0.3418  0.5321 -0.5533
 4808TIP3    H135983   0.652   4.824   1.623  1.4703  0.4156 -0.5447
 4808TIP3    H235984   0.689   4.777   1.484  2.4873  1.5078 -0.6537
 4809TIP3   OH235985   4.716   2.397   2.482 -0.1449 -0.7819 -0.0181
 4809TIP3    H135986   4.621   2.398   2.469 -0.0381  0.1794 -0.9040
 4809TIP3    H235987   4.751   2.363   2.400  0.3091 -0.2378 -0.0597
 4810TIP3   OH235988   2.975   0.024   8.751  0.1172 -0.0502  0.1467
 4810TIP3    H135989   3.062   0.020   8.711  0.2951  0.4735  0.4783
 4810TIP3    H235990   2.979  -0.038   8.824  0.0219 -0.4629 -0.1934
 4811TIP3   OH235991   3.670   1.162   0.849 -0.0838 -0.1807  0.6173
 4811TIP3    H135992   3.762   1.143   0.829 -0.6057 -0.6217 -1.5710
 4811TIP3    H235993   3.638   1.084   0.893  0.7694  0.2837  2.1177
 4812TIP3   OH235994   0.970   2.688   0.655  0.1458  0.4697 -0.0311
 4812TIP3    H135995   0.964   2.776   0.692 -2.1264  1.3372 -2.1847
 4812TIP3    H235996   0.978   2.702   0.560  1.4486 -1.6639 -0.3089
 4813TIP3   OH235997   1.220   6.174   2.000 -0.3929  0.1118  0.4333
 4813TIP3    H135998   1.156   6.235   2.037 -1.0165  0.9645 -1.9178
 4813TIP3    H235999   1.287   6.229   1.961  0.2357 -0.7582  0.2558
 4814TIP3   OH236000   3.881   4.625   2.872  0.0009  0.2368  0.3305
 4814TIP3    H136001   3.860   4.666   2.956 -0.5480  0.4488  0.0981
 4814TIP3    H236002   3.925   4.544   2.895  0.8629  0.8247  0.8057
 4815TIP3   OH236003   3.349   4.349   8.680  0.0612  0.5998 -0.4052
 4815TIP3    H136004   3.366   4.255   8.683 -0.2304  0.5578  0.0959
 4815TIP3    H236005   3.332   4.373   8.771 -1.5813  0.8075 -0.7240
 4816TIP3   OH236006   1.381   3.343   1.454  0.2339 -0.8291  0.3059
 4816TIP3    H136007   1.370   3.359   1.548 -0.9460  0.1817  0.0306
 4816TIP3    H236008   1.320   3.272   1.435 -2.6080  1.5851 -0.3481
 4817TIP3   OH236009   5.929   6.676   2.381  0.2347 -0.1376  0.1398
 4817TIP3    H136010   5.961   6.727   2.307  0.5900 -0.9094 -0.2517
 4817TIP3    H236011   5.883   6.739   2.436  0.7733  0.6233 -0.2664
 4818TIP3   OH236012   6.421   5.899   0.341 -0.3507  0.3283 -0.5121
 4818TIP3    H136013   6.419   5.954   0.262 -0.3317 -1.5842 -1.9009
 4818TIP3    H236014   6.512   5.872   0.349 -0.5404 -0.2810 -0.4029
 4819TIP3   OH236015   1.532   0.190   0.543 -0.6685  0.0738  0.4690
 4819TIP3    H136016   1.516   0.117   0.603 -0.6139  0.7386  1.3127
 4819TIP3    H236017   1.468   0.179   0.474 -1.1029 -0.4038  0.9386
 4820TIP3   OH236018   2.288   6.130   0.492  0.4163 -0.0868 -0.3487
 4820TIP3    H136019   2.278   6.106   0.400  2.2804  0.9716 -0.8745
 4820TIP3    H236020   2.339   6.058   0.530  1.9203  0.6734 -0.8168
 4821TIP3   OH236021   5.455   2.254   2.986  0.2051  0.3537  0.1349
 4821TIP3    H136022   5.550   2.270   2.984  0.0368  1.2844 -1.0532
 4821TIP3    H236023   5.424   2.311   3.057  0.8645 -2.1995  2.6840
 4822TIP3   OH236024   6.449   6.120   7.739  0.4184 -0.4358 -0.4314
 4822TIP3    H136025   6.391   6.176   7.790  1.8123 -0.2465  1.0351
 4822TIP3    H236026   6.492   6.064   7.803  1.9781 -0.4483 -1.4129
 4823TIP3   OH236027   3.447   2.741   7.051  0.3748  0.2035  0.2007
 4823TIP3    H136028   3.430   2.830   7.080 -2.2144  0.1362 -0.8635
 4823TIP3    H236029   3.431   2.743   6.956 -0.5139 -1.5125  0.2649
 4824TIP3   OH236030   1.576   1.096   1.072  0.4711  0.0189 -0.2920
 4824TIP3    H136031   1.607   1.136   1.153  0.3163 -0.0918 -0.1781
 4824TIP3    H236032   1.652   1.097   1.015  0.5288  0.2756 -0.2142
 4825TIP3   OH236033   1.632   6.295   7.426 -1.1398 -0.3418 -0.2576
 4825TIP3    H136034   1.560   6.336   7.378 -1.2595  0.2781  0.4391
 4825TIP3    H236035   1.709   6.349   7.404 -0.7309 -1.3687 -1.5033
 4826TIP3   OH236036   0.740   3.227   2.772 -0.3045  0.2940 -0.3867
 4826TIP3    H136037   0.803   3.294   2.745 -1.0659  0.8740 -0.7344
 4826TIP3    H236038   0.745   3.227   2.867 -0.8656  1.4109 -0.3419
 4827TIP3   OH236039   6.164   1.487   7.210 -0.2933 -0.2096 -0.3112
 4827TIP3    H136040   6.183   1.579   7.191  0.4424 -0.5669 -1.4505
 4827TIP3    H236041   6.081   1.488   7.257  0.3217  1.1182  0.8019
 4828TIP3   OH236042   0.200   6.431   8.678 -0.2069  0.5233  0.0840
 4828TIP3    H136043   0.237   6.392   8.758 -2.7036 -1.4852  0.3698
 4828TIP3    H236044   0.259   6.402   8.609 -0.2158 -1.1620  0.7230
 4829TIP3   OH236045   2.246   4.602   7.708  0.2741  0.1864 -0.7301
 4829TIP3    H136046   2.232   4.643   7.623  0.2766  1.5171 -0.1168
 4829TIP3    H236047   2.297   4.665   7.758  1.6014 -1.2172 -0.2241
 4830TIP3   OH236048   3.900   2.685   7.155  0.2767  0.2769  0.1053
 4830TIP3    H136049   3.948   2.690   7.238  0.0431  1.1219  0.1926
 4830TIP3    H236050   3.957   2.729   7.091  1.0486 -1.4681 -0.4904
 4831TIP3   OH236051   2.179   0.651   7.433 -0.0825  0.3021 -0.8967
 4831TIP3    H136052   2.228   0.569   7.420  0.8894  0.5576  0.8733
 4831TIP3    H236053   2.089   0.622   7.444  0.2314 -0.5303 -0.3881
 4832TIP3   OH236054   6.822   2.273   2.023  0.0435 -0.3002  0.5859
 4832TIP3    H136055   6.909   2.268   1.983  0.2189  0.3438  0.8808
 4832TIP3    H236056   6.828   2.219   2.101  0.1778 -0.2679  0.5985
 4833TIP3   OH236057   4.706   0.613   0.072 -0.2449  0.0787 -0.1692
 4833TIP3    H136058   4.712   0.694   0.021  1.4554  0.6557  0.8755
 4833TIP3    H236059   4.613   0.606   0.095 -0.8097  0.5240 -2.1301
 4834TIP3   OH236060   6.428   6.551   8.606  0.4543 -0.0105  0.2932
 4834TIP3    H136061   6.447   6.623   8.545  0.8498 -1.0137 -0.8035
 4834TIP3    H236062   6.514   6.520   8.633  0.2820 -0.0169  0.8377
 4835TIP3   OH236063   2.823   0.418   1.142 -0.3552  0.6124 -0.0466
 4835TIP3    H136064   2.753   0.468   1.184  1.2245  2.0516  0.9936
 4835TIP3    H236065   2.880   0.391   1.214  0.4097 -0.1459 -0.9072
 4836TIP3   OH236066   2.140   1.882   1.267 -0.1932 -0.7806 -0.2727
 4836TIP3    H136067   2.065   1.840   1.225 -0.2732 -0.3865 -0.5348
 4836TIP3    H236068   2.164   1.824   1.340 -0.1335 -1.4032 -0.7875
 4837TIP3   OH236069   4.293   0.899   8.089 -0.3540  0.9634  0.0179
 4837TIP3    H136070   4.376   0.944   8.101  0.3724 -0.4636  0.4657
 4837TIP3    H236071   4.309   0.837   8.018 -0.9604  0.5005  0.2745
 4838TIP3   OH236072   2.539   6.167   0.116  0.0729 -0.3373 -0.2036
 4838TIP3    H136073   2.551   6.124   0.201  1.3847  2.8751  1.4114
 4838TIP3    H236074   2.626   6.197   0.093 -0.8239  1.8505 -0.9344
 4839TIP3   OH236075   0.484   2.161   0.970  0.4941 -0.0108 -0.2664
 4839TIP3    H136076   0.506   2.166   1.063 -0.5612 -1.1503  0.0774
 4839TIP3    H236077   0.551   2.106   0.932  0.1512 -0.7003  0.1082
 4840TIP3   OH236078   5.497   1.455   3.040 -0.1928  0.0699  0.0529
 4840TIP3    H136079   5.535   1.368   3.031  0.0718 -0.0560  1.9794
 4840TIP3    H236080   5.553   1.512   2.987 -0.1093 -0.8416 -0.8701
 4841TIP3   OH236081   5.059   2.468   7.639 -0.0293 -0.3909 -0.0281
 4841TIP3    H136082   5.113   2.393   7.613  1.3620  1.2870 -2.2755
 4841TIP3    H236083   4.979   2.459   7.587  0.0743 -0.3979 -0.1874
 4842TIP3   OH236084   0.319   5.121   7.522  0.2179  0.2504 -0.1812
 4842TIP3    H136085   0.370   5.121   7.441  0.8082 -0.4837  0.1780
 4842TIP3    H236086   0.284   5.031   7.528  0.9201  0.0387  0.8284
 4843TIP3   OH236087   2.121   0.936   8.206  0.2364  0.2187  0.2599
 4843TIP3    H136088   2.074   1.019   8.203  0.1240  0.2093  1.3371
 4843TIP3    H236089   2.130   0.910   8.115  1.7505  2.2425 -0.2341
 4844TIP3   OH236090   0.290   5.677   8.379 -0.7192 -0.0510  0.0755
 4844TIP3    H136091   0.350   5.718   8.441 -0.8444  0.4275 -0.1211
 4844TIP3    H236092   0.341   5.668   8.299 -0.9524  0.4928 -0.1376
 4845TIP3   OH236093   3.412   3.266   8.681  0.2645 -0.7416 -0.4307
 4845TIP3    H136094   3.343   3.325   8.712  0.1394 -0.8170 -0.5653
 4845TIP3    H236095   3.440   3.218   8.759  1.8496  0.9909  0.1337
 4846TIP3   OH236096   3.947   0.771   0.974  0.2953  0.5219 -0.3659
 4846TIP3    H136097   3.889   0.696   0.960  0.6396  0.3930 -1.1949
 4846TIP3    H236098   3.977   0.794   0.886  1.6367  0.4670  0.0633
 4847TIP3   OH236099   6.141   2.926   0.322  0.0401 -0.3248 -0.0335
 4847TIP3    H136100   6.116   2.840   0.354 -0.9767 -0.6617 -1.6288
 4847TIP3    H236101   6.210   2.909   0.257  0.3064  0.1335  0.1181
 4848TIP3   OH236102   1.316   5.470   7.532 -0.2136 -0.6131  0.4503
 4848TIP3    H136103   1.391   5.427   7.573 -1.6081 -3.0095  0.6835
 4848TIP3    H236104   1.298   5.416   7.455 -0.5062  1.0975 -0.7180
 4849TIP3   OH236105   1.855   4.726   1.989  0.2865 -0.0783  0.4395
 4849TIP3    H136106   1.916   4.672   1.938 -0.5849 -0.5083 -0.1701
 4849TIP3    H236107   1.836   4.801   1.932 -0.1328 -0.1987  0.4172
 4850TIP3   OH236108   5.274   2.817   0.448 -0.5944 -0.0711 -0.8915
 4850TIP3    H136109   5.336   2.748   0.472 -1.8990 -1.3895 -1.2026
 4850TIP3    H236110   5.283   2.882   0.518 -0.4724 -1.3044  0.2734
 4851TIP3   OH236111   3.909   0.577   2.079  0.3312  0.2491  0.9031
 4851TIP3    H136112   3.854   0.570   2.157 -0.2376  1.1353  0.6020
 4851TIP3    H236113   3.847   0.587   2.007  0.8701  1.1124  0.5368
 4852TIP3   OH236114   5.598   5.339   0.229 -0.3963 -0.5317  0.0405
 4852TIP3    H136115   5.626   5.352   0.320 -2.2103 -2.2342  0.9296
 4852TIP3    H236116   5.568   5.249   0.226  1.5354 -1.2114 -2.8574
 4853TIP3   OH236117   1.234   2.174   2.416 -0.7395 -0.2138  0.2826
 4853TIP3    H136118   1.154   2.137   2.454 -0.6374 -0.6824  0.0557
 4853TIP3    H236119   1.300   2.106   2.429 -0.5481 -0.1157 -0.1568
 4854TIP3   OH236120   3.687   4.537   2.291 -0.1375 -0.1099  0.6883
 4854TIP3    H136121   3.739   4.476   2.342  0.2271  0.3083  0.8234
 4854TIP3    H236122   3.729   4.538   2.205 -1.5797 -1.8886 -0.1052
 4855TIP3   OH236123   2.787   2.710   2.011 -0.1238 -0.3011  0.0072
 4855TIP3    H136124   2.821   2.787   1.967 -0.4497 -0.0654  0.1642
 4855TIP3    H236125   2.693   2.723   2.015 -0.1249 -0.4123  0.5852
 4856TIP3   OH236126   6.096   2.686   0.137  0.4459 -0.6413 -0.1705
 4856TIP3    H136127   6.087   2.600   0.179  0.2931 -1.1674 -1.2326
 4856TIP3    H236128   6.006   2.715   0.122  0.4963 -0.2507  0.2498
 4857TIP3   OH236129   2.130   5.007   1.057 -0.8810  0.2340 -0.6219
 4857TIP3    H136130   2.212   5.013   1.104 -1.3293 -0.5603  0.2910
 4857TIP3    H236131   2.083   5.088   1.079 -0.2403  0.8224 -1.3777
 4858TIP3   OH236132   6.437   3.692   1.163 -0.4789  0.2553 -0.5457
 4858TIP3    H136133   6.413   3.752   1.234 -1.6123 -0.7370 -0.0519
 4858TIP3    H236134   6.500   3.633   1.203 -0.9767 -0.1887 -0.4096
 4859TIP3   OH236135   2.956   1.148   0.726 -0.4800 -0.7446  0.3263
 4859TIP3    H136136   2.981   1.213   0.792 -0.5777 -0.8941  0.5133
 4859TIP3    H236137   2.863   1.133   0.741 -0.0095 -2.6494  1.8517
 4860TIP3   OH236138   5.386   3.199   1.508 -0.8891  0.1132  0.6292
 4860TIP3    H136139   5.297   3.197   1.474 -1.0363 -1.3751  1.0196
 4860TIP3    H236140   5.430   3.125   1.466 -0.1518  0.1821  1.2452
 4861TIP3   OH236141   2.956   1.515   1.431  0.0871  0.1836  0.0207
 4861TIP3    H136142   2.956   1.585   1.496  1.5937  0.2621 -0.0162
 4861TIP3    H236143   2.971   1.559   1.348 -0.5768 -0.0378 -0.2234
 4862TIP3   OH236144   3.551   2.675   2.051  0.1918 -0.5325  0.1671
 4862TIP3    H136145   3.570   2.644   1.962  2.3193 -0.2807  0.4777
 4862TIP3    H236146   3.489   2.611   2.085 -1.8492  0.1766 -1.9608
 4863TIP3   OH236147   2.776   2.323   6.986  0.4268  0.3749 -0.1563
 4863TIP3    H136148   2.729   2.381   6.927 -3.7000 -1.0570  1.3787
 4863TIP3    H236149   2.868   2.348   6.976 -0.7119  4.7109 -2.0742
 4864TIP3   OH236150   1.320   3.302   2.939  0.2588  0.1647  0.4428
 4864TIP3    H136151   1.293   3.392   2.953  0.2351  0.4735 -1.3980
 4864TIP3    H236152   1.380   3.283   3.012 -0.0521  1.5176  1.0671
 4865TIP3   OH236153   1.950   5.999   7.665  0.5399 -0.4314 -0.0562
 4865TIP3    H136154   1.867   5.964   7.697  0.7161 -0.0285  0.8684
 4865TIP3    H236155   1.932   6.091   7.647  0.1938 -0.8491 -2.0637
 4866TIP3   OH236156   2.163   4.153   0.795  0.1278  0.1108 -0.2027
 4866TIP3    H136157   2.224   4.120   0.729  0.5010  0.8729 -0.2554
 4866TIP3    H236158   2.193   4.242   0.812  1.5651 -0.8124  2.8262
 4867TIP3   OH236159   4.602   6.380   2.182  0.2562 -1.2760  0.1934
 4867TIP3    H136160   4.616   6.471   2.208 -1.1372 -0.7991 -0.5910
 4867TIP3    H236161   4.579   6.334   2.263  0.6780 -0.8581  0.5461
 4868TIP3   OH236162   4.712   4.212   1.177 -1.2514  0.1729 -0.0007
 4868TIP3    H136163   4.740   4.219   1.269 -0.0437  0.0881 -0.3455
 4868TIP3    H236164   4.692   4.119   1.166  0.6830 -0.2478 -0.3653
 4869TIP3   OH236165   6.281   5.437   1.507  0.3729 -0.0595 -0.2736
 4869TIP3    H136166   6.271   5.517   1.455 -0.3849  2.3941  3.2979
 4869TIP3    H236167   6.225   5.373   1.463 -0.5586  1.9309 -2.1935
 4870TIP3   OH236168   5.665   0.266   2.398  0.3790  0.0346 -0.0472
 4870TIP3    H136169   5.669   0.199   2.330  2.1041  1.4110 -1.4007
 4870TIP3    H236170   5.607   0.333   2.362  2.3828  1.4197 -0.8790
 4871TIP3   OH236171   0.589   0.056   2.158 -0.0585  0.0633  0.1363
 4871TIP3    H136172   0.500   0.050   2.124 -0.6806  0.6004  1.5836
 4871TIP3    H236173   0.579   0.054   2.253  1.4073  0.9136  0.3477
 4872TIP3   OH236174   3.827   3.995   0.604  0.0509 -0.0371  0.2328
 4872TIP3    H136175   3.774   4.074   0.604  0.3392  0.1791 -0.9555
 4872TIP3    H236176   3.814   3.957   0.517  0.7475 -0.7168  0.4102
 4873TIP3   OH236177   2.590   4.993   2.724  0.4177  0.8623  0.5440
 4873TIP3    H136178   2.631   5.028   2.645  3.0699 -0.0522  1.3935
 4873TIP3    H236179   2.535   5.064   2.756  1.4047  2.2413 -0.6613
 4874TIP3   OH236180   3.388   3.809   7.004  0.0003  0.0382  0.0026
 4874TIP3    H136181   3.449   3.741   6.976  0.9589  1.6027 -1.8766
 4874TIP3    H236182   3.444   3.878   7.041 -0.7222  0.8906 -0.4503
 4875TIP3   OH236183   6.597   2.257   7.255 -0.5432  0.1182  0.2572
 4875TIP3    H136184   6.630   2.197   7.188  1.1676  0.0470  1.1001
 4875TIP3    H236185   6.531   2.207   7.302  0.1681 -0.7838  0.3243
 4876TIP3   OH236186   3.232   4.586   0.781  0.0849  0.1452 -0.6875
 4876TIP3    H136187   3.243   4.537   0.700 -0.5595 -3.0219  0.9976
 4876TIP3    H236188   3.137   4.600   0.788  0.1191  0.2443 -0.3763
 4877TIP3   OH236189   2.069   1.061   7.382 -0.4176  0.1517 -0.5757
 4877TIP3    H136190   2.032   1.099   7.461  2.4685 -0.3707  1.1895
 4877TIP3    H236191   2.002   1.000   7.350 -1.9603  0.9413  1.0264
 4878TIP3   OH236192   2.094   4.971   8.173 -0.2211 -0.1295  0.0839
 4878TIP3    H136193   2.055   4.954   8.088 -1.3531  0.4577  0.4663
 4878TIP3    H236194   2.155   5.043   8.158  0.4945 -0.8194 -0.4448
 4879TIP3   OH236195   2.661   1.637   7.651  0.0290 -0.3197 -0.3522
 4879TIP3    H136196   2.645   1.726   7.683  0.1308 -0.5141  0.2676
 4879TIP3    H236197   2.752   1.638   7.620 -0.1193 -0.0868 -0.7812
 4880TIP3   OH236198   5.814   0.997   0.656 -0.3117  0.7258 -0.4021
 4880TIP3    H136199   5.830   1.091   0.662  0.0101  0.7055 -0.9626
 4880TIP3    H236200   5.718   0.990   0.656 -0.3969  0.9070  1.8244
 4881TIP3   OH236201   2.097   3.552   7.260  0.0244  0.5144  0.3920
 4881TIP3    H136202   2.011   3.592   7.250  0.6106  2.0992  1.2865
 4881TIP3    H236203   2.098   3.481   7.196 -1.6094  1.0225 -0.2574
 4882TIP3   OH236204   1.146   1.010   0.032 -0.0348  0.2566  0.5112
 4882TIP3    H136205   1.108   1.088   0.073 -1.6236 -0.1637 -0.0770
 4882TIP3    H236206   1.240   1.015   0.051  0.2234  3.2301 -0.9962
 4883TIP3   OH236207   1.505   2.068   6.906  0.1668 -0.2939  0.8473
 4883TIP3    H136208   1.421   2.035   6.874  0.7289  0.4875 -1.6108
 4883TIP3    H236209   1.570   2.007   6.872  0.8639  1.0507 -0.3551
 4884TIP3   OH236210   6.759   5.322   0.205  0.1391 -0.1956  0.5314
 4884TIP3    H136211   6.765   5.326   0.110  3.6643 -1.1550  0.6063
 4884TIP3    H236212   6.803   5.401   0.236 -0.5355 -0.1384  1.4066
 4885TIP3   OH236213   5.867   6.533   2.784 -0.8028 -0.0166  0.0068
 4885TIP3    H136214   5.788   6.586   2.768 -1.1213 -0.0375  1.3618
 4885TIP3    H236215   5.838   6.443   2.774 -1.3427 -0.0906  1.9184
 4886TIP3   OH236216   2.149   2.329   8.170 -0.1327  0.0534  0.1312
 4886TIP3    H136217   2.111   2.336   8.258  0.7127  0.5564  0.4711
 4886TIP3    H236218   2.162   2.420   8.142 -0.3524 -0.1046 -0.4983
 4887TIP3   OH236219   5.979   2.256   2.368  0.3455  0.2818 -0.2116
 4887TIP3    H136220   5.989   2.278   2.275  0.1657  2.5416  0.2410
 4887TIP3    H236221   5.947   2.337   2.409  0.1938 -0.7186  1.7928
 4888TIP3   OH236222   3.659   4.391   1.291 -0.7838 -0.1625  0.0831
 4888TIP3    H136223   3.714   4.450   1.342  2.5345 -1.7010 -1.4096
 4888TIP3    H236224   3.656   4.310   1.341  0.4496 -0.8843 -0.9588
 4889TIP3   OH236225   1.083   0.092   0.099 -0.2804 -0.7390  0.0149
 4889TIP3    H136226   1.049   0.176   0.129 -0.4504 -0.7090 -0.2581
 4889TIP3    H236227   1.010   0.053   0.050 -0.1908 -1.0290  0.1127
 4890TIP3   OH236228   1.322   0.609   7.533 -0.0909 -0.1086  0.4073
 4890TIP3    H136229   1.260   0.678   7.508  0.4604  0.2685  0.0331
 4890TIP3    H236230   1.393   0.617   7.469  0.3270 -0.5550  0.8044
 4891TIP3   OH236231   2.739   6.410   1.700  0.2040  0.2456  0.1086
 4891TIP3    H136232   2.670   6.344   1.700 -0.0776  0.4687  2.3067
 4891TIP3    H236233   2.792   6.390   1.777 -0.3806  3.0194  1.3756
 4892TIP3   OH236234   3.123   2.645   2.906 -0.1540 -0.0748  0.1590
 4892TIP3    H136235   3.128   2.555   2.874  1.1443 -0.0233  0.1664
 4892TIP3    H236236   3.215   2.673   2.912 -0.5056  2.4659 -3.3178
 4893TIP3   OH236237   1.597   1.629   1.027  0.3014 -0.6579 -0.4328
 4893TIP3    H136238   1.503   1.612   1.032  0.4590 -1.1854  1.4409
 4893TIP3    H236239   1.624   1.644   1.118  1.4982  2.6241 -1.1886
 4894TIP3   OH236240   3.212   6.831   2.274 -0.2478 -0.0330 -0.2034
 4894TIP3    H136241   3.187   6.777   2.199  1.2072 -1.5955  0.3665
 4894TIP3    H236242   3.280   6.780   2.319 -0.8583  0.9675  2.0178
 4895TIP3   OH236243   5.730   5.161   7.883 -0.0445 -0.2296  0.1009
 4895TIP3    H136244   5.794   5.151   7.953 -1.7706  0.4059  1.8963
 4895TIP3    H236245   5.695   5.073   7.869 -2.0750  0.0324  2.5919
 4896TIP3   OH236246   3.651   4.685   7.836 -0.3819 -0.2921  0.1372
 4896TIP3    H136247   3.681   4.671   7.746 -2.8147  3.3704 -1.4822
 4896TIP3    H236248   3.556   4.675   7.831 -0.6313  0.7249  2.1405
 4897TIP3   OH236249   1.666   1.001   0.265 -0.0393 -0.1859 -0.0817
 4897TIP3    H136250   1.734   0.937   0.284 -1.6972 -1.6337  1.3665
 4897TIP3    H236251   1.692   1.079   0.313  1.8210  0.1476 -1.5520
 4898TIP3   OH236252   1.777   2.710   0.233  0.2484 -1.2088 -0.4156
 4898TIP3    H136253   1.771   2.698   0.328  1.3576 -3.3485 -0.5448
 4898TIP3    H236254   1.693   2.680   0.199 -0.6328  0.7446 -0.0710
 4899TIP3   OH236255   1.184   3.004   7.471 -0.2940 -0.3920  0.0944
 4899TIP3    H136256   1.240   3.081   7.487  0.2777 -0.7384 -0.2233
 4899TIP3    H236257   1.213   2.971   7.386 -1.8463  0.1649 -0.6972
 4900TIP3   OH236258   2.290   0.412   7.298  0.5123 -0.3660  0.5105
 4900TIP3    H136259   2.344   0.460   7.235  1.0844 -1.1859  0.3585
 4900TIP3    H236260   2.349   0.346   7.334 -0.2267 -0.8746  0.8059
 4901TIP3   OH236261   6.442   2.688   8.694  0.0266  0.0898 -0.2007
 4901TIP3    H136262   6.492   2.608   8.704 -0.8627 -0.6400 -1.3138
 4901TIP3    H236263   6.361   2.661   8.650 -0.1289  1.6406 -0.9462
 4902TIP3   OH236264   4.864   1.504   0.676  0.4786  0.4168 -0.1387
 4902TIP3    H136265   4.881   1.590   0.639 -2.7801  1.1840 -0.1619
 4902TIP3    H236266   4.806   1.462   0.613 -0.9598 -0.3147  1.5949
 4903TIP3   OH236267   2.157   2.039   8.091 -0.2186  0.1998 -0.2623
 4903TIP3    H136268   2.113   2.044   8.006 -1.3157 -0.1644  0.2693
 4903TIP3    H236269   2.156   2.129   8.124 -2.3411 -0.0859  0.5925
 4904TIP3   OH236270   6.453   6.454   2.451  0.0018 -0.0235  0.2244
 4904TIP3    H136271   6.365   6.458   2.414  0.6909 -1.3692 -1.7869
 4904TIP3    H236272   6.443   6.485   2.541 -2.3863  0.4631 -0.1292
 4905TIP3   OH236273   6.133   6.470   2.776  0.1843 -0.5175 -0.0164
 4905TIP3    H136274   6.040   6.491   2.768  0.5568  0.9048 -1.0844
 4905TIP3    H236275   6.137   6.375   2.776 -1.2549 -0.5962 -0.0141
 4906TIP3   OH236276   6.225   6.687   7.804 -0.0807 -0.0071 -0.1437
 4906TIP3    H136277   6.291   6.716   7.867 -0.1201 -1.0414  0.4029
 4906TIP3    H236278   6.270   6.686   7.720  0.7170 -1.0031  0.2723
 4907TIP3   OH236279   4.042   3.649   0.799  0.1836  0.3787  0.0302
 4907TIP3    H136280   4.034   3.718   0.866  0.7267  0.7024 -0.2344
 4907TIP3    H236281   4.005   3.689   0.720 -0.3532  0.0357  0.1072
 4908TIP3   OH236282   5.212   3.178   0.765 -0.0781  0.0717 -0.5930
 4908TIP3    H136283   5.273   3.249   0.788  1.5211 -1.0981 -1.0051
 4908TIP3    H236284   5.180   3.146   0.850  1.1326 -0.3050 -0.2465
 4909TIP3   OH236285   3.009   2.244   1.591 -0.3347  0.0172 -0.0069
 4909TIP3    H136286   2.969   2.330   1.582  1.3443  0.8663  0.3055
 4909TIP3    H236287   3.081   2.244   1.527 -0.0019 -0.9636  0.3515
 4910TIP3   OH236288   0.102   0.020   0.343 -0.1125  0.2804 -0.3492
 4910TIP3    H136289   0.052  -0.039   0.286 -0.8096 -0.5666  1.0869
 4910TIP3    H236290   0.105   0.103   0.294 -1.7460 -0.0491 -1.0845
 4911TIP3   OH236291   6.822   0.628   2.368 -0.0631  0.2268  0.1117
 4911TIP3    H136292   6.851   0.566   2.436  0.6519  1.0538  0.5751
 4911TIP3    H236293   6.754   0.580   2.321  0.2174 -0.7872  0.6878
 4912TIP3   OH236294   4.336   3.419   2.251 -0.0322  0.1898  0.5533
 4912TIP3    H136295   4.292   3.357   2.310  2.4371  0.1296  2.4951
 4912TIP3    H236296   4.342   3.372   2.167  0.8355 -1.8453  1.6819
 4913TIP3   OH236297   1.775   4.364   2.049 -0.2318 -0.6453 -0.7410
 4913TIP3    H136298   1.792   4.272   2.070  0.0028 -0.0313  2.2635
 4913TIP3    H236299   1.680   4.373   2.056 -0.0666 -0.0655  2.5677
 4914TIP3   OH236300   4.377   1.011   0.692 -0.4593 -0.7190  0.4376
 4914TIP3    H136301   4.438   1.036   0.622 -0.2738 -1.0346  0.4837
 4914TIP3    H236302   4.292   1.042   0.661 -0.3120 -0.4842  0.2634
 4915TIP3   OH236303   2.052   4.449   1.315 -0.1502  0.4707  0.2010
 4915TIP3    H136304   2.083   4.386   1.250  0.4197  2.9726 -2.0994
 4915TIP3    H236305   1.965   4.415   1.340 -0.2946 -0.7286 -1.6829
 4916TIP3   OH236306   0.173   4.025   0.782 -0.4497  0.0117  0.1237
 4916TIP3    H136307   0.078   4.034   0.781 -0.4736 -0.2129  0.3179
 4916TIP3    H236308   0.189   3.932   0.766 -0.2124  0.3246 -1.6448
 4917TIP3   OH236309   1.621   1.808   0.633  0.3165  0.2542  0.4483
 4917TIP3    H136310   1.537   1.832   0.594  0.3541  0.1922  0.3277
 4917TIP3    H236311   1.685   1.865   0.589  0.1071  1.7462  1.9547
 4918TIP3   OH236312   3.987   1.895   7.989  0.3080  0.1234 -0.3235
 4918TIP3    H136313   4.058   1.958   7.978  2.1138 -1.7043  0.1247
 4918TIP3    H236314   3.988   1.845   7.907 -0.5774  0.1846 -0.3714
 4919TIP3   OH236315   1.012   3.425   0.894 -0.2315 -0.0624 -0.0320
 4919TIP3    H136316   1.104   3.438   0.872 -0.3086  0.3506 -0.1207
 4919TIP3    H236317   0.979   3.363   0.829  0.0909 -0.5510  0.2647
 4920TIP3   OH236318   3.338   4.868   1.815  0.6812 -0.1465  0.4739
 4920TIP3    H136319   3.395   4.864   1.892 -0.1029 -2.1868  1.0159
 4920TIP3    H236320   3.323   4.776   1.792 -1.5543  0.3394 -0.2406
 4921TIP3   OH236321   3.858   5.784   1.277  0.5878  0.5958  0.1452
 4921TIP3    H136322   3.927   5.751   1.336 -0.4298  0.7888  1.4855
 4921TIP3    H236323   3.814   5.852   1.327 -0.9894  0.0559 -0.4414
 4922TIP3   OH236324   1.381   4.013   0.070 -0.4681  0.0130  0.0307
 4922TIP3    H136325   1.292   3.990   0.045  0.3557 -1.6784 -1.6259
 4922TIP3    H236326   1.389   4.105   0.048 -1.8970  0.3017  0.5803
 4923TIP3   OH236327   4.790   2.571   1.158 -0.9485  0.2157  0.3102
 4923TIP3    H136328   4.827   2.567   1.070 -1.2098  0.5681  0.1791
 4923TIP3    H236329   4.797   2.482   1.192  0.7200  0.4298  0.5899
 4924TIP3   OH236330   0.665   2.505   2.295 -0.3540  0.3376 -0.2312
 4924TIP3    H136331   0.643   2.538   2.382 -0.8295  1.7394 -0.8455
 4924TIP3    H236332   0.627   2.417   2.292  0.8191 -0.2664  1.4241
 4925TIP3   OH236333   0.130   4.884   8.116 -0.5317 -1.1883  0.1452
 4925TIP3    H136334   0.099   4.855   8.030 -0.4212 -3.0588  0.6911
 4925TIP3    H236335   0.215   4.925   8.099 -1.6435  0.7609 -0.9211
 4926TIP3   OH236336   3.309   1.795   7.522 -0.8277  0.4228 -0.0587
 4926TIP3    H136337   3.387   1.746   7.545 -0.5842  1.0943  0.5792
 4926TIP3    H236338   3.333   1.843   7.443 -0.5693  0.6660  0.1633
 4927TIP3   OH236339   1.952   2.774   8.532 -0.1133 -0.2231 -0.2632
 4927TIP3    H136340   1.989   2.686   8.539  0.3862  0.0224  0.2226
 4927TIP3    H236341   1.896   2.770   8.455 -0.9189 -1.2677  0.3426
 4928TIP3   OH236342   1.175   6.752   0.947  0.1555 -0.4909 -0.2787
 4928TIP3    H136343   1.101   6.701   0.981 -1.1990  1.7265  0.3078
 4928TIP3    H236344   1.252   6.702   0.973 -1.0126 -1.2747  2.0167
 4929TIP3   OH236345   2.642   0.147   7.810  0.0404  0.5049  0.3042
 4929TIP3    H136346   2.569   0.183   7.761 -0.4430  0.4584  0.9729
 4929TIP3    H236347   2.611   0.144   7.901 -0.5144 -2.9434  0.1511
 4930TIP3   OH236348   5.249   2.194   1.779  0.4320 -0.2146  0.2775
 4930TIP3    H136349   5.177   2.148   1.823 -1.5373  0.5283 -1.9514
 4930TIP3    H236350   5.278   2.133   1.711 -1.1740  1.1036 -1.7044
 4931TIP3   OH236351   6.466   0.547   0.377  0.1195  0.5312 -0.5065
 4931TIP3    H136352   6.428   0.460   0.382  1.9239 -0.2692  0.1569
 4931TIP3    H236353   6.511   0.549   0.292  2.1478 -0.1304  0.5006
 4932TIP3   OH236354   0.019   1.019   1.124 -0.2953  0.1656  0.1042
 4932TIP3    H136355   0.065   1.031   1.207 -0.1358  0.6127 -0.0474
 4932TIP3    H236356  -0.074   1.013   1.148 -0.1288 -1.3822  0.4767
 4933TIP3   OH236357   2.085   4.068   8.658 -0.4822 -0.0335 -0.2019
 4933TIP3    H136358   2.136   4.148   8.671 -2.9718  1.6841 -0.1835
 4933TIP3    H236359   2.125   4.026   8.582  2.2369  0.0207  1.0867
 4934TIP3   OH236360   3.630   1.488   1.351  0.4907 -0.6566 -0.2843
 4934TIP3    H136361   3.625   1.397   1.379 -1.3093 -0.2199  0.9425
 4934TIP3    H236362   3.660   1.483   1.260 -1.1801 -2.5963 -0.8088
 4935TIP3   OH236363   2.107   6.621   0.656 -0.7263 -0.0398 -0.1281
 4935TIP3    H136364   2.035   6.675   0.624  0.0766  0.6709 -0.7623
 4935TIP3    H236365   2.185   6.656   0.613 -0.3461 -2.5690 -1.6898
 4936TIP3   OH236366   3.678   1.607   2.349  0.0220  0.0939  0.0565
 4936TIP3    H136367   3.772   1.592   2.362 -0.0217  0.6209  1.1007
 4936TIP3    H236368   3.661   1.691   2.391 -0.8850  0.0827 -0.2734
 4937TIP3   OH236369   2.844   1.353   7.070  0.1473 -0.0652 -0.2887
 4937TIP3    H136370   2.854   1.272   7.020 -1.0815 -0.7489  0.5063
 4937TIP3    H236371   2.767   1.396   7.032  0.1487  0.1892 -0.0115
 4938TIP3   OH236372   2.244   1.138   8.547 -0.3160  0.7462  0.4189
 4938TIP3    H136373   2.204   1.225   8.549  1.7695  1.7438  0.8820
 4938TIP3    H236374   2.335   1.154   8.520 -0.1639 -1.4140 -0.5446
 4939TIP3   OH236375   6.311   3.054   7.913  0.4358  0.6905  0.3908
 4939TIP3    H136376   6.244   2.986   7.912 -0.1832  1.2870  0.4826
 4939TIP3    H236377   6.390   3.009   7.941  0.4406 -0.3578 -1.1942
 4940TIP3   OH236378   3.927   0.411   0.409 -0.1875 -0.7725  0.1730
 4940TIP3    H136379   3.933   0.481   0.473 -0.6000 -1.8333  1.4101
 4940TIP3    H236380   3.845   0.366   0.430 -0.7589 -0.6459 -1.6322
 4941TIP3   OH236381   5.782   0.439   0.180 -0.5735 -0.1065 -0.2916
 4941TIP3    H136382   5.698   0.456   0.140  0.8889  0.2522 -3.5116
 4941TIP3    H236383   5.841   0.504   0.142  1.5157 -1.4341  0.4471
 4942TIP3   OH236384   3.991   2.990   7.623 -0.2355 -0.4371 -0.2558
 4942TIP3    H136385   3.965   2.938   7.699 -0.2758  0.7370  0.5619
 4942TIP3    H236386   3.973   3.081   7.649  1.8964  0.1808 -0.7792
 4943TIP3   OH236387   1.373   5.552   1.376 -0.0751  0.1817  0.3230
 4943TIP3    H136388   1.373   5.458   1.396 -1.9516 -0.0175 -0.3732
 4943TIP3    H236389   1.422   5.592   1.447  1.1806 -1.3663  0.3799
 4944TIP3   OH236390   3.164   4.269   7.716  0.6638 -0.1600 -0.0017
 4944TIP3    H136391   3.155   4.329   7.643 -0.4714 -0.5131 -0.1768
 4944TIP3    H236392   3.162   4.324   7.794  0.5064  0.1099 -0.1966
 4945TIP3   OH236393   4.349   2.239   1.449 -0.3072  0.3434 -0.1631
 4945TIP3    H136394   4.273   2.269   1.399 -0.0286 -1.8103 -2.0303
 4945TIP3    H236395   4.312   2.179   1.514 -0.1849 -1.3773 -1.6319
 4946TIP3   OH236396   4.457   3.971   7.420 -0.1845 -1.0185 -0.1689
 4946TIP3    H136397   4.411   4.037   7.472  0.6664  0.3540 -1.0815
 4946TIP3    H236398   4.468   4.012   7.334  3.0066 -1.0797  0.0866
 4947TIP3   OH236399   3.239   1.613   8.596 -0.0004  0.1577 -0.0870
 4947TIP3    H136400   3.168   1.552   8.614  0.9883 -0.9224  0.2404
 4947TIP3    H236401   3.248   1.664   8.676 -0.1440  0.0393  0.0046
 4948TIP3   OH236402   3.302   2.354   1.366 -0.5994 -0.0820  0.6043
 4948TIP3    H136403   3.375   2.318   1.417  0.1782  1.2294  0.4585
 4948TIP3    H236404   3.329   2.344   1.275  0.6339  2.6907  0.5617
 4949TIP3   OH236405   5.403   5.959   0.122  0.0572 -0.0079  0.3343
 4949TIP3    H136406   5.357   5.880   0.153 -0.3055 -0.5782 -1.5339
 4949TIP3    H236407   5.472   5.925   0.064 -0.5128  1.0488 -1.0084
 4950TIP3   OH236408   2.800   1.738   8.414  0.7951  0.0105 -0.0301
 4950TIP3    H136409   2.819   1.680   8.340  1.1128 -1.2605  1.0319
 4950TIP3    H236410   2.743   1.806   8.376  0.0636 -1.2062 -1.2104
 4951TIP3   OH236411   4.240   1.666   1.472  0.1433 -0.5153 -0.2870
 4951TIP3    H136412   4.261   1.642   1.562  1.6352  1.9534  0.1033
 4951TIP3    H236413   4.145   1.681   1.473  0.0705 -0.9758  0.7327
 4952TIP3   OH236414   3.783   4.253   0.510 -0.5484  0.6100  0.4240
 4952TIP3    H136415   3.703   4.303   0.495 -0.0229  1.3441  0.0024
 4952TIP3    H236416   3.851   4.304   0.466 -0.0606 -0.6745 -0.3420
 4953TIP3   OH236417   5.920   5.363   1.121 -0.8404 -0.4096  0.3373
 4953TIP3    H136418   5.909   5.406   1.205  0.1118  0.8240 -0.1393
 4953TIP3    H236419   5.967   5.282   1.142  0.0189  0.2223  0.9446
 4954TIP3   OH236420   6.384   5.272   7.353 -0.4142 -0.3002  0.2621
 4954TIP3    H136421   6.416   5.294   7.265 -0.2689 -0.3623  0.2982
 4954TIP3    H236422   6.462   5.280   7.409 -0.5803  0.0816  0.4443
 4955TIP3   OH236423   2.604   1.537   7.030 -0.5121  0.3080 -0.2214
 4955TIP3    H136424   2.526   1.591   7.014 -1.0667 -0.5935 -0.6088
 4955TIP3    H236425   2.570   1.449   7.043  0.4961 -0.2416 -1.1600
 4956TIP3   OH236426   0.201   3.748   0.763 -0.0312  0.2780  0.0133
 4956TIP3    H136427   0.257   3.693   0.708 -1.0023 -0.1176 -0.6069
 4956TIP3    H236428   0.220   3.720   0.853 -0.6805 -1.2746 -0.3046
 4957TIP3   OH236429   3.330   2.305   1.069  0.4105 -0.7421  0.2844
 4957TIP3    H136430   3.244   2.345   1.058  1.4365  1.4198 -0.3877
 4957TIP3    H236431   3.334   2.238   1.000 -0.5021 -0.4702 -0.0462
 4958TIP3   OH236432   1.081   4.587   8.566  0.0184 -0.3161  0.9969
 4958TIP3    H136433   1.057   4.679   8.578  0.9613 -0.0647  0.9833
 4958TIP3    H236434   1.157   4.588   8.509 -1.3318 -1.2511 -0.9445
 4959TIP3   OH236435   6.338   5.920   1.253  0.4026 -0.4236  0.4081
 4959TIP3    H136436   6.407   5.882   1.198  1.9766 -0.4056  2.2726
 4959TIP3    H236437   6.368   6.009   1.271 -0.8897  0.1224  0.0443
 4960TIP3   OH236438   5.228   2.887   0.089  0.4993  0.1321 -0.1464
 4960TIP3    H136439   5.177   2.917   0.164 -1.1703 -0.2635 -1.0734
 4960TIP3    H236440   5.253   2.968   0.043 -0.0101  0.3101 -0.1180
 4961TIP3   OH236441   1.844   6.826   0.292 -0.1810  0.3895  0.4163
 4961TIP3    H136442   1.793   6.774   0.354 -0.4285 -0.2470 -0.3124
 4961TIP3    H236443   1.928   6.780   0.285 -0.4260  0.0357 -0.2840
 4962TIP3   OH236444   5.705   1.963   1.601  0.1148  0.1377  0.6330
 4962TIP3    H136445   5.643   1.892   1.615  0.4307 -0.0155  1.2997
 4962TIP3    H236446   5.652   2.043   1.602 -0.0373  0.0275  1.4693
 4963TIP3   OH236447   2.706   2.057   6.727  0.5963 -0.2729 -0.2238
 4963TIP3    H136448   2.770   2.035   6.660  1.4819  0.5010  0.3447
 4963TIP3    H236449   2.621   2.043   6.685  1.1328 -0.8122 -1.1569
 4964TIP3   OH236450   3.895   2.435   8.384  0.1299 -0.5165  0.2386
 4964TIP3    H136451   3.925   2.474   8.303  0.1176 -1.3459 -0.1771
 4964TIP3    H236452   3.827   2.373   8.358 -0.8602  0.2016  1.0164
 4965TIP3   OH236453   5.978   6.257   1.415 -0.1615 -0.1261 -0.7028
 4965TIP3    H136454   5.956   6.191   1.350  0.5353 -2.4818  1.3127
 4965TIP3    H236455   6.039   6.316   1.371 -2.0202  0.1826 -3.0349
 4966TIP3   OH236456   0.457   0.746   2.126  0.1475  0.2317 -0.0233
 4966TIP3    H136457   0.402   0.674   2.156  0.9916 -0.4437 -0.0605
 4966TIP3    H236458   0.445   0.814   2.192 -2.0847  0.8053 -0.9352
 4967TIP3   OH236459   2.688   1.541   7.396  0.3059 -0.1268 -0.9060
 4967TIP3    H136460   2.635   1.548   7.476 -0.4086  0.7148 -1.4301
 4967TIP3    H236461   2.693   1.630   7.363  3.0968  0.0396 -0.2608
 4968TIP3   OH236462   3.983   1.676   2.202 -0.0081  0.0114 -0.4223
 4968TIP3    H136463   4.001   1.742   2.269 -0.8217  1.7510 -1.8783
 4968TIP3    H236464   4.057   1.615   2.210  0.0309  0.2595  1.8923
 4969TIP3   OH236465   5.061   3.230   8.579  0.1225 -0.2091 -0.4235
 4969TIP3    H136466   5.144   3.271   8.555 -0.4368  0.7711 -0.7390
 4969TIP3    H236467   5.068   3.140   8.547 -0.3111  0.7991 -3.6975
 4970TIP3   OH236468   6.824   6.607   1.500  0.4298 -0.3667 -0.1594
 4970TIP3    H136469   6.788   6.576   1.417 -0.1363  0.8638 -0.3979
 4970TIP3    H236470   6.747   6.616   1.557  0.4764  1.0912 -0.2807
 4971TIP3   OH236471   5.644   0.430   1.598 -0.2409  0.0347 -0.8311
 4971TIP3    H136472   5.731   0.393   1.607 -0.5944 -0.4944  0.6734
 4971TIP3    H236473   5.658   0.517   1.561  1.0882  0.5971  0.8655
 4972TIP3   OH236474   2.501   0.566   2.105  0.5505 -0.2909  0.1337
 4972TIP3    H136475   2.466   0.544   2.019 -0.5451  1.0434  0.2172
 4972TIP3    H236476   2.596   0.572   2.091  0.5765 -1.7939 -0.5665
 4973TIP3   OH236477   2.277   6.321   7.540  0.0134  0.5970  0.2333
 4973TIP3    H136478   2.283   6.417   7.531  1.8394  0.3425 -2.9236
 4973TIP3    H236479   2.228   6.293   7.463  1.7207 -1.1351 -0.3014
 4974TIP3   OH236480   1.243   5.389   8.712 -0.0912  0.3472 -0.4689
 4974TIP3    H136481   1.193   5.469   8.727  0.2103  0.3992  0.3132
 4974TIP3    H236482   1.286   5.403   8.627 -0.3395  0.8560 -0.5151
 4975TIP3   OH236483   4.008   4.343   1.626 -0.0229 -0.2237  0.2134
 4975TIP3    H136484   4.002   4.250   1.649 -1.2652 -0.6683 -1.7370
 4975TIP3    H236485   4.091   4.352   1.581 -0.4325 -0.6484 -0.6367
 4976TIP3   OH236486   5.177   1.052   0.309 -0.0429  0.1779 -0.2771
 4976TIP3    H136487   5.178   0.986   0.379 -0.3453 -0.4974 -0.8965
 4976TIP3    H236488   5.230   1.124   0.343 -0.8665  0.2141  0.9837
 4977TIP3   OH236489   2.438   3.202   8.570 -0.3382 -0.1652  0.3708
 4977TIP3    H136490   2.441   3.109   8.593  0.6168 -0.4649 -0.8506
 4977TIP3    H236491   2.346   3.218   8.548  0.0695 -1.8818 -3.2648
 4978TIP3   OH236492   0.873   1.959   1.389  0.4298  0.1231 -0.6551
 4978TIP3    H136493   0.924   1.906   1.451 -0.3369 -0.2972 -0.3728
 4978TIP3    H236494   0.922   2.041   1.383  0.2414  0.3880  0.9373
 4979TIP3   OH236495   4.538   1.010   2.500  0.0256 -0.3275  0.1656
 4979TIP3    H136496   4.504   1.031   2.413  1.9126 -0.6552 -0.6915
 4979TIP3    H236497   4.587   1.088   2.527  2.6800 -1.5351 -0.7917
 4980TIP3   OH236498   2.653   3.150   0.335 -0.4737  0.0433  0.0413
 4980TIP3    H136499   2.675   3.124   0.425  0.9935  0.9960  0.0058
 4980TIP3    H236500   2.581   3.212   0.345 -0.3663  0.0907  0.5579
 4981TIP3   OH236501   3.526   1.782   1.389  0.2778  0.1924  0.1670
 4981TIP3    H136502   3.575   1.703   1.368 -1.5281 -0.9558  0.0770
 4981TIP3    H236503   3.531   1.789   1.485  1.8783  0.9755  0.0528
 4982TIP3   OH236504   3.008   3.538   7.159 -0.1064 -0.2569  0.2966
 4982TIP3    H136505   2.978   3.585   7.081 -0.0878  1.7012  1.4136
 4982TIP3    H236506   3.053   3.461   7.124 -0.3691  0.3895 -1.6104
 4983TIP3   OH236507   3.757   2.793   7.527  0.0093 -0.1212  0.5803
 4983TIP3    H136508   3.680   2.788   7.471  0.6739 -1.1254 -0.2799
 4983TIP3    H236509   3.722   2.802   7.616 -1.0696  0.5531  0.1110
 4984TIP3   OH236510   6.069   3.598   8.507  0.0848 -0.1689  0.5773
 4984TIP3    H136511   6.071   3.542   8.429  1.0421 -1.5164  1.5152
 4984TIP3    H236512   6.115   3.677   8.481 -1.7913  0.5014 -0.9610
 4985TIP3   OH236513   1.770   5.801   0.970  0.4080 -0.0018  0.5600
 4985TIP3    H136514   1.684   5.796   0.930  0.7020 -0.4084 -0.0245
 4985TIP3    H236515   1.793   5.710   0.990  0.9568  0.0469  0.1634
 4986TIP3   OH236516   3.262   6.825   0.257  0.3483 -0.2478 -0.0088
 4986TIP3    H136517   3.179   6.783   0.284 -0.0350  0.9198  0.6815
 4986TIP3    H236518   3.235   6.909   0.219  1.2149  0.0693  0.0690
 4987TIP3   OH236519   4.379   4.325   8.513  0.2087  1.2680 -0.9580
 4987TIP3    H136520   4.380   4.416   8.484  1.0375  1.2935 -0.8596
 4987TIP3    H236521   4.357   4.329   8.606  0.3615  1.3767 -0.9269
 4988TIP3   OH236522   4.335   6.792   8.465 -0.1993 -0.2617 -0.4762
 4988TIP3    H136523   4.401   6.802   8.533 -0.0494  0.5844 -0.7327
 4988TIP3    H236524   4.300   6.880   8.453 -0.0694 -0.3607 -1.6532
 4989TIP3   OH236525   5.069   6.751   8.009 -0.2107 -0.0147 -0.0978
 4989TIP3    H136526   5.097   6.744   7.917 -1.2565  0.3596 -0.4606
 4989TIP3    H236527   4.994   6.810   8.006 -0.1219  0.1685  1.0370
 4990TIP3   OH236528   3.654   6.824   7.821 -0.0675 -0.0071  0.3070
 4990TIP3    H136529   3.715   6.856   7.755  0.3699  0.3919  0.8917
 4990TIP3    H236530   3.582   6.887   7.822  0.1790  0.2739  0.5698
 4991TIP3   OH236531   2.923   4.303   6.700  0.6462 -0.3206 -0.5097
 4991TIP3    H136532   2.985   4.241   6.661 -0.8721 -1.7586 -0.7137
 4991TIP3    H236533   2.945   4.303   6.793  0.3042 -1.6130 -0.4133
 4992TIP3   OH236534   3.884   6.016   7.565 -0.2068 -0.8166  0.0600
 4992TIP3    H136535   3.897   6.051   7.653  1.0298 -3.4132  1.0168
 4992TIP3    H236536   3.898   5.922   7.575 -0.5876 -1.2533 -2.8328
 4993TIP3   OH236537   2.477   0.256   0.572 -0.1101  0.4057 -0.3108
 4993TIP3    H136538   2.408   0.275   0.636  2.5944  3.7127  1.9615
 4993TIP3    H236539   2.495   0.163   0.584 -1.7396  0.2475  1.5666
 4994TIP3   OH236540   5.282   0.703   6.660 -0.2591  0.4699 -0.1650
 4994TIP3    H136541   5.291   0.610   6.641  0.1943  0.3747  0.4806
 4994TIP3    H236542   5.200   0.711   6.708 -0.0913  0.3398  0.1466
 4995TIP3   OH236543   0.943   1.433   7.644  0.4692 -0.2776  0.2277
 4995TIP3    H136544   1.038   1.448   7.645  0.4601 -0.1376 -0.5343
 4995TIP3    H236545   0.933   1.346   7.604  0.2254  0.2253 -0.8401
 4996TIP3   OH236546   4.265   1.231   8.232 -0.0572  0.6164 -0.0037
 4996TIP3    H136547   4.354   1.202   8.216  0.3066  1.8771 -0.4243
 4996TIP3    H236548   4.233   1.258   8.145 -0.9841 -0.1836  0.0773
 4997TIP3   OH236549   1.277   4.524   1.404  0.5010 -0.1369  0.5459
 4997TIP3    H136550   1.280   4.552   1.313  0.3275  0.2455  0.6577
 4997TIP3    H236551   1.332   4.446   1.407  0.6823 -0.0238  0.1590
 4998TIP3   OH236552   4.075   6.716   7.735 -0.6932 -1.1619  0.1843
 4998TIP3    H136553   4.126   6.707   7.815  0.1228 -0.7089 -0.2722
 4998TIP3    H236554   4.084   6.808   7.710 -0.5908 -1.3832 -0.6469
 4999TIP3   OH236555   6.474   5.421   2.369 -0.4530  0.1112  0.3300
 4999TIP3    H136556   6.382   5.439   2.348 -0.6526 -0.2651  0.8583
 4999TIP3    H236557   6.471   5.348   2.431  0.2555 -0.5902 -0.4348
 5000TIP3   OH236558   5.183   6.346   0.965 -0.2334  0.2016  0.0110
 5000TIP3    H136559   5.252   6.388   0.913 -0.8953  0.3723 -0.7421
 5000TIP3    H236560   5.167   6.263   0.921 -0.8707  0.3897 -0.1172
 5001TIP3   OH236561   2.837   0.972   0.270 -0.3740  0.2275  0.6804
 5001TIP3    H136562   2.905   1.027   0.308  0.6525 -0.5374 -0.0112
 5001TIP3    H236563   2.755   1.011   0.301  0.3415  1.6560  0.8595
 5002TIP3   OH236564   4.840   0.916   7.287 -0.2438  0.0304 -0.3391
 5002TIP3    H136565   4.762   0.970   7.273 -0.1939  0.1059 -0.3273
 5002TIP3    H236566   4.820   0.834   7.243 -1.1365 -0.6978  1.3363
 5003TIP3   OH236567   6.148   2.851   1.370  0.3757  0.5048 -0.1376
 5003TIP3    H136568   6.132   2.757   1.360 -2.7626  0.7200  1.6163
 5003TIP3    H236569   6.216   2.856   1.437  2.3301 -0.4251 -1.9007
 5004TIP3   OH236570   4.577   1.188   1.701  0.0624  0.4871 -0.0597
 5004TIP3    H136571   4.495   1.234   1.720 -0.7706 -1.5447  1.8030
 5004TIP3    H236572   4.565   1.153   1.613 -0.6267  1.1047 -0.2210
 5005TIP3   OH236573   1.275   3.421   0.792 -0.0476  0.1644 -0.0394
 5005TIP3    H136574   1.333   3.354   0.755 -1.4168 -0.2221 -1.5842
 5005TIP3    H236575   1.293   3.499   0.740  1.0739  0.8810  1.3356
 5006TIP3   OH236576   3.943   1.981   2.713  0.2202 -0.3178  0.1092
 5006TIP3    H136577   3.898   1.971   2.798 -1.3821  2.3011 -0.3138
 5006TIP3    H236578   3.907   2.062   2.677  2.8133  0.0367 -1.9244
 5007TIP3   OH236579   6.415   4.824   7.504 -0.0292  0.0146 -0.8960
 5007TIP3    H136580   6.443   4.874   7.581 -0.4114 -1.2163  0.0872
 5007TIP3    H236581   6.327   4.855   7.486  0.4089  0.9730 -1.4293
 5008TIP3   OH236582   4.188   6.090   8.608 -0.1597  0.3619  0.1591
 5008TIP3    H136583   4.241   6.169   8.595  0.5649 -0.3633 -1.6400
 5008TIP3    H236584   4.252   6.022   8.630 -0.4435 -0.2879 -0.9608
 5009TIP3   OH236585   2.718   2.253   1.453  0.5689  0.0722  0.1346
 5009TIP3    H136586   2.717   2.263   1.548  0.5068  0.9054  0.0547
 5009TIP3    H236587   2.755   2.335   1.421  2.8185 -1.0931 -0.4593
 5010TIP3   OH236588   1.999   5.338   0.325 -0.1755 -0.4177 -0.4357
 5010TIP3    H136589   2.083   5.370   0.357 -1.0843  0.5761  1.0660
 5010TIP3    H236590   1.933   5.389   0.373 -1.6648 -0.0360 -2.7165
 5011TIP3   OH236591   0.116   5.179   0.615 -0.6490 -0.3429  0.4562
 5011TIP3    H136592   0.050   5.204   0.550  0.4163  0.4051 -0.3735
 5011TIP3    H236593   0.199   5.188   0.568  0.1168 -0.1667  1.8185
 5012TIP3   OH236594   5.060   0.585   7.595 -0.3464 -0.0157 -0.1451
 5012TIP3    H136595   5.006   0.507   7.577  0.4119 -0.6861  0.4210
 5012TIP3    H236596   5.136   0.575   7.537  0.3894 -0.3750  0.8660
 5013TIP3   OH236597   5.627   3.392   2.710 -0.0957 -0.1770  0.6612
 5013TIP3    H136598   5.628   3.451   2.635  1.0989 -1.3756 -0.3363
 5013TIP3    H236599   5.579   3.315   2.679  0.0674 -0.5320  1.2665
 5014TIP3   OH236600   4.933   1.936   0.074  0.7103  0.2510 -0.2333
 5014TIP3    H136601   4.845   1.968   0.057  0.6560  0.4632  0.4147
 5014TIP3    H236602   4.971   1.921  -0.013 -1.3786 -3.9657 -0.6710
 5015TIP3   OH236603   5.628   0.271   0.730 -0.7745 -0.2367  0.2128
 5015TIP3    H136604   5.613   0.301   0.819  0.9745 -0.0991  0.4879
 5015TIP3    H236605   5.703   0.322   0.699  1.3779 -3.2015  0.1884
 5016TIP3   OH236606   6.189   4.536   8.620  0.5352 -0.2795  0.2429
 5016TIP3    H136607   6.181   4.459   8.676 -0.4108 -0.9182 -0.6997
 5016TIP3    H236608   6.230   4.502   8.540 -1.4002 -0.2228 -0.8389
 5017TIP3   OH236609   1.845   4.992   2.233 -0.0730  1.0213  0.3903
 5017TIP3    H136610   1.799   4.908   2.237  1.4240  0.1565  0.2319
 5017TIP3    H236611   1.839   5.027   2.322  0.0381  0.3086  0.6878
 5018TIP3   OH236612   6.031   4.021   1.274 -0.1255  0.5297  0.4485
 5018TIP3    H136613   5.958   4.083   1.276  0.1436  0.8469  0.5362
 5018TIP3    H236614   6.049   4.001   1.366 -0.3238  0.1824  0.4160
 5019TIP3   OH236615   5.754   5.830   0.674 -0.5428  0.3233  0.3397
 5019TIP3    H136616   5.841   5.867   0.691  0.7224 -1.7737 -1.1104
 5019TIP3    H236617   5.716   5.890   0.608 -0.6227  1.7468  1.6203
 5020TIP3   OH236618   1.609   2.345   6.871  0.2679 -0.4369 -0.0635
 5020TIP3    H136619   1.551   2.269   6.863  0.5157 -0.8325  1.5558
 5020TIP3    H236620   1.677   2.316   6.932 -0.0917  1.3612  1.2402
 5021TIP3   OH236621   3.883   4.381   2.438 -0.1127 -0.0269  0.0526
 5021TIP3    H136622   3.923   4.362   2.523  1.9704 -0.1869 -0.8972
 5021TIP3    H236623   3.957   4.400   2.380 -1.3748 -1.0587 -2.0292
 5022TIP3   OH236624   4.813   2.263   7.819 -0.1592  0.1267  0.0894
 5022TIP3    H136625   4.790   2.309   7.900 -0.1618 -0.2042  0.2790
 5022TIP3    H236626   4.822   2.172   7.845  1.5960  0.2743  0.0580
 5023TIP3   OH236627   0.024   5.619   1.027  0.4188  0.1630 -0.5117
 5023TIP3    H136628  -0.056   5.573   1.052  0.0398  0.5588 -0.9747
 5023TIP3    H236629   0.081   5.612   1.104 -0.1977  0.1824 -0.0435
 5024TIP3   OH236630   3.529   2.409   0.939 -0.4638 -0.2937  0.1935
 5024TIP3    H136631   3.452   2.378   0.987 -0.2664 -2.2994 -0.6901
 5024TIP3    H236632   3.546   2.341   0.874  0.1834  1.5860 -1.7484
 5025TIP3   OH236633   3.429   4.234   2.352 -0.4912  0.3349 -0.3041
 5025TIP3    H136634   3.510   4.182   2.358 -1.4433 -1.5650 -2.2976
 5025TIP3    H236635   3.361   4.170   2.333 -2.2103  2.0706 -0.2787
 5026TIP3   OH236636   2.853   6.128   8.224 -0.0298  0.0247  0.5390
 5026TIP3    H136637   2.783   6.191   8.208 -1.6795 -1.9764 -0.6269
 5026TIP3    H236638   2.831   6.089   8.309  0.4816  0.3715  0.8359
 5027TIP3   OH236639   1.267   5.463   7.030  0.1615  0.1184  0.4959
 5027TIP3    H136640   1.183   5.504   7.011  0.8942  1.3687 -0.1684
 5027TIP3    H236641   1.332   5.531   7.012  1.4330 -1.3340 -0.7673
 5028TIP3   OH236642   2.602   0.116   1.200  0.2690  0.9377  0.1700
 5028TIP3    H136643   2.556   0.177   1.258 -0.8515  0.7537 -0.5126
 5028TIP3    H236644   2.539   0.095   1.131  0.6288 -0.9514  0.3471
 5029TIP3   OH236645   5.022   5.466   0.138 -0.5389 -0.6132 -0.2823
 5029TIP3    H136646   5.004   5.373   0.126  2.8528 -1.5281  0.5119
 5029TIP3    H236647   5.042   5.475   0.231 -2.9826  1.4439  0.1429
 5030TIP3   OH236648   3.593   2.760   7.971  0.3597  0.3709 -0.2509
 5030TIP3    H136649   3.599   2.714   7.887 -0.5374 -0.3347  0.0431
 5030TIP3    H236650   3.683   2.783   7.993  1.0638 -2.3562  0.1606
 5031TIP3   OH236651   6.462   6.117   7.474  0.5262 -0.0308  0.3552
 5031TIP3    H136652   6.442   6.140   7.565 -0.2396  0.5081  0.0572
 5031TIP3    H236653   6.413   6.181   7.422  2.8804  1.2536 -0.4188
 5032TIP3   OH236654   4.767   4.244   7.629  0.2742  0.5366 -0.7618
 5032TIP3    H136655   4.690   4.205   7.669  0.6515  2.2065  1.8914
 5032TIP3    H236656   4.829   4.172   7.620 -1.0341 -0.5434 -1.6164
 5033TIP3   OH236657   2.030   5.328   1.680  0.7567 -0.1022 -0.5414
 5033TIP3    H136658   1.958   5.315   1.742  1.9851  0.0683  0.9903
 5033TIP3    H236659   2.007   5.407   1.632 -0.0855 -0.0648 -0.0966
 5034TIP3   OH236660   1.928   5.064   0.381 -0.3541  0.5458 -0.1694
 5034TIP3    H136661   1.930   4.997   0.313 -0.6818 -0.2548  0.5862
 5034TIP3    H236662   1.951   5.145   0.336 -0.0255 -0.0603 -1.1171
 5035TIP3   OH236663   5.546   6.307   1.001 -0.0402 -0.2591 -0.3864
 5035TIP3    H136664   5.627   6.352   1.024 -0.1507 -0.2227 -0.0597
 5035TIP3    H236665   5.502   6.366   0.940  0.2604 -0.3590 -0.7032
 5036TIP3   OH236666   4.257   4.090   8.465 -0.1414 -0.3498  0.2610
 5036TIP3    H136667   4.170   4.123   8.490 -0.9414 -0.1369 -2.4769
 5036TIP3    H236668   4.316   4.161   8.488 -0.4304 -0.9487  3.2539
 5037TIP3   OH236669   0.677   1.390   1.666  0.1403 -0.1702  0.2614
 5037TIP3    H136670   0.630   1.409   1.747  2.4539 -1.9589  2.1552
 5037TIP3    H236671   0.720   1.306   1.682  1.5879 -0.0544 -2.4381
 5038TIP3   OH236672   3.192   6.117   1.647  0.2383  0.1793  0.5362
 5038TIP3    H136673   3.166   6.025   1.646 -0.1269  0.2712  1.1215
 5038TIP3    H236674   3.226   6.132   1.735  1.8487  0.1882 -0.0518
 5039TIP3   OH236675   5.393   1.212   8.125 -0.4588 -0.3214  0.3706
 5039TIP3    H136676   5.337   1.149   8.079 -0.0957 -0.0823 -0.4048
 5039TIP3    H236677   5.482   1.180   8.111 -0.3460 -0.3085  1.0116
 5040TIP3   OH236678   0.631   5.076   0.286 -0.1962 -0.0422 -0.2581
 5040TIP3    H136679   0.707   5.126   0.257 -0.0986 -0.3512 -0.5382
 5040TIP3    H236680   0.647   5.058   0.379 -0.0898  0.1795 -0.2324
 5041TIP3   OH236681   0.001   1.991   1.495  0.1933 -0.8638  0.1444
 5041TIP3    H136682   0.045   2.043   1.562 -0.3067 -0.2473  0.0042
 5041TIP3    H236683  -0.078   2.040   1.475 -0.1879 -1.5868 -0.1398
 5042TIP3   OH236684   5.121   3.359   2.888  0.8224 -0.0954  0.4406
 5042TIP3    H136685   5.088   3.435   2.937 -0.4078 -0.1428 -0.2837
 5042TIP3    H236686   5.156   3.397   2.807 -0.3899 -0.3410 -0.2171
 5043TIP3   OH236687   1.161   0.795   7.427 -0.0824 -0.0765  0.2892
 5043TIP3    H136688   1.072   0.804   7.460 -0.0869  0.0076  0.2531
 5043TIP3    H236689   1.151   0.791   7.331  0.0812  1.4939  0.1864
 5044TIP3   OH236690   3.015   3.294   2.052  0.2299 -0.0245 -0.5253
 5044TIP3    H136691   3.050   3.375   2.016 -0.2772 -0.0409 -1.0788
 5044TIP3    H236692   2.939   3.274   1.996  0.8173 -1.3004 -0.9058
 5045TIP3   OH236693   4.977   1.455   2.818 -0.1337  0.6699  0.2926
 5045TIP3    H136694   5.014   1.450   2.906 -0.3094  0.4372  0.3544
 5045TIP3    H236695   4.986   1.367   2.783  0.4596  0.8925 -0.1408
 5046TIP3   OH236696   0.032   5.620   0.179 -0.0681 -0.5445  0.8791
 5046TIP3    H136697  -0.015   5.627   0.096  0.8282  1.0250  0.4575
 5046TIP3    H236698   0.123   5.609   0.154  0.3379  0.8975  1.6056
 5047TIP3   OH236699   6.537   2.245   0.137 -0.5728 -0.4679  0.8274
 5047TIP3    H136700   6.529   2.159   0.096 -0.6710 -0.6177  1.1487
 5047TIP3    H236701   6.457   2.253   0.190 -0.4453 -0.2897  0.9955
 5048TIP3   OH236702   3.095   2.791   3.186  0.3659 -0.2656 -0.2893
 5048TIP3    H136703   3.048   2.746   3.115 -1.5269  0.8677  0.1612
 5048TIP3    H236704   3.124   2.874   3.147 -0.5476  0.2940  0.1832
 5049TIP3   OH236705   0.425   3.628   8.317 -0.2611  0.2305  0.1134
 5049TIP3    H136706   0.389   3.633   8.405 -1.6654  1.3573 -0.4734
 5049TIP3    H236707   0.429   3.720   8.288  1.1922 -0.0280 -0.6183
 5050TIP3   OH236708   3.637   2.288   7.526 -0.1272 -0.4202  0.0429
 5050TIP3    H136709   3.731   2.301   7.530 -0.0378 -0.7130 -0.7939
 5050TIP3    H236710   3.625   2.215   7.465 -0.9073 -0.1112 -0.1971
 5051TIP3   OH236711   2.676   1.902   7.789 -0.0940  0.6461  0.1675
 5051TIP3    H136712   2.763   1.885   7.825 -0.3722 -2.8879 -0.4419
 5051TIP3    H236713   2.686   1.983   7.739  2.5749  0.8445  0.8526
 5052TIP3   OH236714   3.608   6.506   8.454  0.0948 -0.0691 -0.2551
 5052TIP3    H136715   3.629   6.521   8.362 -0.7718  2.0491 -0.1700
 5052TIP3    H236716   3.675   6.445   8.485  2.1618  1.4179 -1.5642
 5053TIP3   OH236717   5.871   5.500   0.627  0.1600  0.5381  0.2081
 5053TIP3    H136718   5.924   5.490   0.705  1.6408  1.1333 -0.6767
 5053TIP3    H236719   5.847   5.592   0.626 -1.1680  0.2185  0.7464
 5054TIP3   OH236720   1.688   2.502   1.492  0.6576 -0.5277 -0.4425
 5054TIP3    H136721   1.734   2.563   1.550 -1.0109  0.5919 -0.2208
 5054TIP3    H236722   1.754   2.436   1.469  1.8328 -0.0619  1.3575
 5055TIP3   OH236723   1.919   3.378   8.396  0.4280 -0.1203  0.2007
 5055TIP3    H136724   1.922   3.337   8.309  0.8945 -0.7731  0.5209
 5055TIP3    H236725   1.827   3.378   8.419  0.3722 -0.5547 -0.0117
 5056TIP3   OH236726   5.414   6.546   6.768 -0.0267 -0.1972  0.5045
 5056TIP3    H136727   5.408   6.641   6.776 -1.1603 -0.2751  0.6992
 5056TIP3    H236728   5.335   6.521   6.721 -0.1514 -1.1265  1.1856
 5057TIP3   OH236729   3.441   4.560   8.064 -0.2365  0.0755 -0.1419
 5057TIP3    H136730   3.406   4.570   7.976 -0.9890 -0.5284  0.0730
 5057TIP3    H236731   3.433   4.467   8.083 -3.6957  0.6108  1.9624
 5058TIP3   OH236732   3.512   3.901   8.406  0.2388  0.0303  0.0584
 5058TIP3    H136733   3.581   3.952   8.447  0.4181  0.5371 -0.8388
 5058TIP3    H236734   3.494   3.830   8.467 -0.0972  1.2202  1.4138
 5059TIP3   OH236735   5.144   2.726   7.629  0.2641 -0.0118  0.0993
 5059TIP3    H136736   5.100   2.642   7.643  1.2533 -0.4079  1.0649
 5059TIP3    H236737   5.076   2.784   7.594 -0.9056 -0.7128  1.1071
 5060TIP3   OH236738   4.145   4.135   0.509  0.6837  0.1622 -0.8524
 5060TIP3    H136739   4.106   4.214   0.470  1.4096  0.2842 -1.3480
 5060TIP3    H236740   4.125   4.142   0.602  1.1686  1.1845 -0.8135
 5061TIP3   OH236741   0.166   2.350   0.845  0.1208  0.2070 -0.5235
 5061TIP3    H136742   0.251   2.380   0.876 -0.0581  2.2217 -1.8038
 5061TIP3    H236743   0.110   2.428   0.849 -0.9462 -0.4355 -2.1264
 5062TIP3   OH236744   5.339   1.290   8.535 -0.4790 -0.3798 -0.6701
 5062TIP3    H136745   5.379   1.275   8.620  0.4703  3.8405 -0.1249
 5062TIP3    H236746   5.411   1.286   8.473 -0.4534  0.3535 -0.6951
 5063TIP3   OH236747   2.033   1.256   0.053  0.2778  0.3433  0.0080
 5063TIP3    H136748   1.997   1.325   0.109 -2.3511  0.0326 -1.1643
 5063TIP3    H236749   2.068   1.302  -0.023 -1.5086  0.4451 -0.7916
 5064TIP3   OH236750   5.631   4.336   1.253  0.2104  0.6308 -0.3014
 5064TIP3    H136751   5.581   4.318   1.173  0.4186 -0.3508 -0.2223
 5064TIP3    H236752   5.638   4.432   1.255 -0.6908  0.7301 -0.9045
 5065TIP3   OH236753   5.813   0.887   1.056  0.1908 -0.4476 -0.1322
 5065TIP3    H136754   5.749   0.895   0.985 -2.5057 -1.9795  1.9355
 5065TIP3    H236755   5.886   0.838   1.017 -0.6147 -0.1822 -2.1157
 5066TIP3   OH236756   3.264   3.758   1.158  0.0703  0.2563 -0.1797
 5066TIP3    H136757   3.175   3.735   1.132  0.1119  0.0733 -0.1630
 5066TIP3    H236758   3.313   3.759   1.075  0.2663 -0.6141 -0.0828
 5067TIP3   OH236759   5.267   2.185   7.372  0.1759 -0.0052 -0.9735
 5067TIP3    H136760   5.221   2.119   7.320  2.3233 -1.2638 -1.3683
 5067TIP3    H236761   5.352   2.146   7.392  0.1982  1.2391  1.8363
 5068TIP3   OH236762   0.953   1.926   8.753  0.3252  0.1454  0.3969
 5068TIP3    H136763   0.895   1.888   8.819  0.0367 -1.5927 -0.8023
 5068TIP3    H236764   0.900   1.931   8.674  1.5933 -0.9327 -0.5736
 5069TIP3   OH236765   6.457   0.629   1.807  0.3010 -0.3639  0.0795
 5069TIP3    H136766   6.517   0.642   1.734 -0.0958  0.5695 -0.0939
 5069TIP3    H236767   6.423   0.540   1.795 -0.1784 -0.0310 -1.1800
 5070TIP3   OH236768   3.445   2.998   7.824  0.6032 -0.1371  0.2301
 5070TIP3    H136769   3.501   2.963   7.893  0.9858  0.8571  0.4345
 5070TIP3    H236770   3.374   2.933   7.816  0.1791  0.0400  2.0285
 5071TIP3   OH236771   3.768   2.902   0.552 -0.0855 -0.1486  0.1880
 5071TIP3    H136772   3.687   2.862   0.519  0.9025 -0.7433 -1.6855
 5071TIP3    H236773   3.753   2.913   0.646 -2.2176 -0.4958 -0.0496
 5072TIP3   OH236774   1.955   2.473   1.508 -0.4228  0.4737  0.1613
 5072TIP3    H136775   2.034   2.418   1.499  0.3216  1.8176 -2.3869
 5072TIP3    H236776   1.988   2.556   1.542 -0.8427  0.8152 -0.2580
 5073TIP3   OH236777   3.943   4.326   7.515  0.8396 -0.3903 -0.1582
 5073TIP3    H136778   3.914   4.340   7.425  0.4076 -3.0904 -0.5339
 5073TIP3    H236779   4.023   4.274   7.507  0.6781 -0.8543  1.0078
 5074TIP3   OH236780   1.493   3.076   1.041 -0.0649  0.6154 -0.7328
 5074TIP3    H136781   1.588   3.080   1.047 -0.0923  0.4325 -0.1547
 5074TIP3    H236782   1.474   2.984   1.021 -0.2400 -0.0028  1.8807
 5075TIP3   OH236783   4.724   2.301   0.075  0.4507  0.1242  0.0633
 5075TIP3    H136784   4.786   2.266   0.012 -0.1304 -1.0930  0.1344
 5075TIP3    H236785   4.640   2.262   0.051 -0.4606  2.2354 -0.4438
 5076TIP3   OH236786   0.775   1.681   2.028  0.3531  0.3204  0.7636
 5076TIP3    H136787   0.866   1.669   2.001  0.3798  1.5023  0.2678
 5076TIP3    H236788   0.742   1.750   1.971 -1.1987 -0.8421  0.1641
 5077TIP3   OH236789   6.383   3.789   8.096  0.0301 -0.2035  0.1935
 5077TIP3    H136790   6.416   3.826   8.014 -2.2993  1.8477  0.0477
 5077TIP3    H236791   6.461   3.765   8.145  1.5464  0.2482 -1.8449
 5078TIP3   OH236792   1.470   3.655   1.352 -0.6121  0.0298 -0.1683
 5078TIP3    H136793   1.478   3.636   1.445 -0.0017  2.1739  0.2784
 5078TIP3    H236794   1.548   3.707   1.332  0.3989 -2.1462 -2.3990
 5079TIP3   OH236795   1.263   4.610   8.369  0.8328 -0.0775 -0.0631
 5079TIP3    H136796   1.204   4.650   8.305 -1.9848 -2.9694  0.4463
 5079TIP3    H236797   1.347   4.652   8.353 -0.7958  2.7220 -2.4029
 5080TIP3   OH236798   1.195   6.147   7.939  0.0478  0.1021  0.3624
 5080TIP3    H136799   1.210   6.141   8.033  0.3120  0.5382  0.3516
 5080TIP3    H236800   1.247   6.222   7.911 -1.3139  0.9977  0.1336
 5081TIP3   OH236801   3.383   6.251   0.600  0.1995 -0.1522 -0.4195
 5081TIP3    H136802   3.449   6.182   0.600  0.5687  0.1998  0.1203
 5081TIP3    H236803   3.426   6.327   0.562  0.2096  0.1723  0.2284
 5082TIP3   OH236804   0.424   2.441   0.046  0.2270  0.1574 -0.5440
 5082TIP3    H136805   0.504   2.439   0.098 -0.8024 -0.8552  1.0750
 5082TIP3    H236806   0.431   2.521  -0.006  3.5455 -1.2252 -2.5875
 5083TIP3   OH236807   4.938   2.905   0.198 -0.1690  0.0284  0.0604
 5083TIP3    H136808   4.910   2.994   0.179 -1.6531 -0.7661 -1.8482
 5083TIP3    H236809   4.856   2.855   0.200  0.7891 -1.7444 -1.7121
 5084TIP3   OH236810   0.092   5.963   1.699  0.9010 -0.4694  0.2493
 5084TIP3    H136811   0.031   6.032   1.725  0.5665 -0.8798  0.5541
 5084TIP3    H236812   0.176   5.991   1.735  1.2069  0.7965 -1.3343
 5085TIP3   OH236813   5.811   2.976   7.352 -0.2715 -0.1762  0.2562
 5085TIP3    H136814   5.882   3.023   7.309  1.8275 -1.3181  2.2379
 5085TIP3    H236815   5.753   2.949   7.281  1.6793  0.1486 -1.5534
 5086TIP3   OH236816   2.367   5.107   8.494 -0.8207 -0.2268 -0.1097
 5086TIP3    H136817   2.378   5.162   8.416 -0.6199  1.8028  1.2637
 5086TIP3    H236818   2.445   5.052   8.495  0.3954  1.4054 -0.1206
 5087TIP3   OH236819   5.480   2.338   1.139 -0.4796  0.3180 -0.4425
 5087TIP3    H136820   5.400   2.345   1.191  0.5888  2.2918  1.0722
 5087TIP3    H236821   5.508   2.428   1.125  1.3240 -0.3018 -1.1986
 5088TIP3   OH236822   2.133   1.560   0.076 -0.1415 -0.1191  0.1953
 5088TIP3    H136823   2.054   1.544   0.128 -0.1825  0.1740  0.2281
 5088TIP3    H236824   2.109   1.533  -0.013 -0.1514 -0.3948  0.2821
 5089TIP3   OH236825   5.713   5.131   3.060 -0.3575 -0.5609  0.6686
 5089TIP3    H136826   5.792   5.184   3.075 -0.1001 -0.4178 -0.9847
 5089TIP3    H236827   5.658   5.148   3.136  0.7705  0.1562  1.3530
 5090TIP3   OH236828   4.772   6.330   1.676 -0.0418 -0.0589 -0.2658
 5090TIP3    H136829   4.741   6.403   1.730 -0.2331  0.2260 -0.7580
 5090TIP3    H236830   4.856   6.306   1.714 -0.4043 -0.1869  0.4730
 5091TIP3   OH236831   4.212   0.253   0.246 -0.1847  0.2310 -0.5936
 5091TIP3    H136832   4.258   0.169   0.245 -2.6999 -1.2235 -1.1011
 5091TIP3    H236833   4.235   0.292   0.331 -0.1473 -1.6538  0.3022
 5092TIP3   OH236834   6.339   6.422   2.087  0.0583 -0.3293  0.5070
 5092TIP3    H136835   6.292   6.402   2.006  0.6482  0.7394 -0.1268
 5092TIP3    H236836   6.305   6.359   2.150  0.5208 -2.0617 -0.8915
 5093TIP3   OH236837   4.829   4.990   7.765  0.6964 -0.3514 -0.3386
 5093TIP3    H136838   4.737   4.978   7.790  0.4838  0.1976 -0.8284
 5093TIP3    H236839   4.825   5.033   7.679  1.4120 -0.0401 -0.2246
 5094TIP3   OH236840   5.980   2.933   7.629 -0.4455 -0.2511 -0.1712
 5094TIP3    H136841   5.903   2.982   7.599 -0.4540 -0.8658 -1.2221
 5094TIP3    H236842   5.997   2.966   7.717 -0.5974  1.4376 -0.7493
 5095TIP3   OH236843   3.064   6.773   2.046  0.3286 -0.5447 -0.6760
 5095TIP3    H136844   3.144   6.748   2.001 -0.5648 -0.4126 -2.4180
 5095TIP3    H236845   2.995   6.762   1.980 -0.6942  2.1879 -0.1815
 5096TIP3   OH236846   3.543   1.278   0.405 -0.2395  0.3013 -0.0366
 5096TIP3    H136847   3.597   1.292   0.483 -0.9884 -2.7946  1.1930
 5096TIP3    H236848   3.453   1.286   0.437 -0.5502  0.1817 -0.8549
 5097TIP3   OH236849   1.783   6.307   8.511  0.6286 -0.1146 -1.2946
 5097TIP3    H136850   1.759   6.350   8.593 -0.5194 -0.1553 -1.5959
 5097TIP3    H236851   1.758   6.216   8.523 -0.3307  0.0392 -1.9763
 5098TIP3   OH236852   2.860   4.870   7.641 -0.0260 -0.4297 -0.4380
 5098TIP3    H136853   2.798   4.800   7.662  0.9034 -1.1775 -0.1553
 5098TIP3    H236854   2.893   4.849   7.555  0.5372 -0.5432 -0.1956
 5099TIP3   OH236855   6.130   3.440   2.035 -0.2071  0.4648  0.5900
 5099TIP3    H136856   6.134   3.410   1.944  1.1675 -0.6037  0.9668
 5099TIP3    H236857   6.040   3.421   2.063  0.4678 -3.2874  0.7268
 5100TIP3   OH236858   5.168   4.921   2.169  0.5554 -0.0115 -0.0397
 5100TIP3    H136859   5.180   4.978   2.244  2.6166 -1.1350  0.5872
 5100TIP3    H236860   5.150   4.835   2.207  1.0386 -0.4788 -0.8356
 5101TIP3   OH236861   0.783   2.469   1.017  0.0346  0.2947 -0.8028
 5101TIP3    H136862   0.731   2.464   1.097  0.7388  1.4785 -0.2304
 5101TIP3    H236863   0.848   2.537   1.035  1.2281 -0.5173 -1.8020
 5102TIP3   OH236864   2.464   4.460   1.869 -0.0651  0.0153 -0.1301
 5102TIP3    H136865   2.496   4.375   1.896  1.3691  0.5790  0.0467
 5102TIP3    H236866   2.533   4.521   1.895 -1.0198  1.2223 -0.3196
 5103TIP3   OH236867   3.907   4.923   2.100  0.1628  0.7562 -0.3114
 5103TIP3    H136868   3.908   4.998   2.040 -0.7992  0.3023 -0.9129
 5103TIP3    H236869   3.917   4.846   2.043  2.3556  0.4415  0.3886
 5104TIP3   OH236870   3.657   1.874   0.581 -0.3589 -0.1985  0.1934
 5104TIP3    H136871   3.742   1.916   0.572 -0.4673  0.1222  0.6432
 5104TIP3    H236872   3.642   1.833   0.496  0.3311 -0.4328  0.1781
 5105TIP3   OH236873   2.010   2.817   1.459 -0.2012 -0.3430 -0.2565
 5105TIP3    H136874   1.953   2.854   1.526 -0.3040  0.9449 -1.0070
 5105TIP3    H236875   2.099   2.835   1.490 -0.2446 -0.2056 -0.2103
 5106TIP3   OH236876   5.820   1.326   8.299  0.0714 -0.2183  0.1591
 5106TIP3    H136877   5.781   1.406   8.335 -2.5542 -0.5414 -1.6977
 5106TIP3    H236878   5.864   1.355   8.219  0.0703 -0.4797  0.0635
 5107TIP3   OH236879   1.816   3.194   1.560  0.0783 -0.4977  0.0708
 5107TIP3    H136880   1.848   3.116   1.606 -1.9546 -0.8576  0.9758
 5107TIP3    H236881   1.753   3.161   1.497  1.7690  0.1466 -2.0715
 5108TIP3   OH236882   6.278   4.487   7.762 -0.5049  0.2627  0.0574
 5108TIP3    H136883   6.293   4.408   7.710  0.8083  0.7779 -0.3897
 5108TIP3    H236884   6.251   4.553   7.698  0.3287  0.6857  0.1296
 5109TIP3   OH236885   6.621   5.958   7.901  1.1663 -0.9301  0.0540
 5109TIP3    H136886   6.633   5.877   7.852 -1.2870  0.5899 -3.4254
 5109TIP3    H236887   6.694   6.014   7.872  1.2270 -0.9310  0.2065
 5110TIP3   OH236888   2.375   1.934   8.639  0.3290  0.7318 -0.3324
 5110TIP3    H136889   2.429   1.855   8.632  1.4725  1.1311  2.4857
 5110TIP3    H236890   2.290   1.902   8.667  0.0044  0.3558 -1.6618
 5111TIP3   OH236891   1.891   5.756   1.511  0.0900  0.4125  1.1491
 5111TIP3    H136892   1.942   5.812   1.452  2.4324 -0.8740  1.7965
 5111TIP3    H236893   1.858   5.815   1.579 -0.8384  1.5695 -0.2582
 5112TIP3   OH236894   0.017   3.283   8.396 -0.4009  0.6131 -0.2205
 5112TIP3    H136895   0.091   3.232   8.429 -0.9312  0.5325  0.9125
 5112TIP3    H236896   0.005   3.253   8.306  1.5215  1.3056 -0.7626
 5113TIP3   OH236897   0.734   5.555   7.771  0.1466 -0.2679  0.7133
 5113TIP3    H136898   0.643   5.532   7.792 -0.0843  0.2203  0.2780
 5113TIP3    H236899   0.763   5.487   7.711  0.8536 -1.7468  2.6279
 5114TIP3   OH236900   6.127   4.373   1.576 -0.2638 -0.7519  0.5089
 5114TIP3    H136901   6.164   4.363   1.488  2.1256  0.0325  1.3511
 5114TIP3    H236902   6.107   4.466   1.583  1.7922 -0.3373  1.5556
 5115TIP3   OH236903   5.200   4.977   8.643  1.1429  0.0803 -0.5640
 5115TIP3    H136904   5.266   4.926   8.597  1.0387  0.1460 -0.7880
 5115TIP3    H236905   5.248   5.019   8.715  1.2614 -0.1966 -0.4833
 5116TIP3   OH236906   0.202   5.732   1.265 -0.2701  0.0509  0.2448
 5116TIP3    H136907   0.222   5.694   1.350  1.1192 -0.3935 -0.2652
 5116TIP3    H236908   0.193   5.826   1.282  2.2833  0.2947  0.5391
 5117TIP3   OH236909   6.776   3.266   1.892  0.6408 -0.0125 -0.1413
 5117TIP3    H136910   6.863   3.304   1.903  1.4421 -2.1552  1.4316
 5117TIP3    H236911   6.791   3.174   1.872 -1.2666 -0.4913  0.3520
 5118TIP3   OH236912   0.228   2.362   0.567 -0.0988  0.2508 -0.0002
 5118TIP3    H136913   0.303   2.347   0.626 -0.4267  0.0399  0.3722
 5118TIP3    H236914   0.154   2.320   0.612 -0.6626  1.3510  0.1404
 5119TIP3   OH236915   5.719   5.709   1.734  0.3913  0.2848  0.0209
 5119TIP3    H136916   5.655   5.681   1.800  1.6501 -1.2663  0.6539
 5119TIP3    H236917   5.790   5.645   1.741 -0.2018 -1.0665 -4.1255
 5120TIP3   OH236918   3.715   4.188   1.443 -0.2234 -0.2560 -0.3515
 5120TIP3    H136919   3.692   4.231   1.525 -1.3925 -0.8889 -0.3307
 5120TIP3    H236920   3.684   4.098   1.453 -0.5412 -0.3000 -1.5461
 5121TIP3   OH236921   3.036   0.226   2.698 -0.7065  0.2681  0.0347
 5121TIP3    H136922   3.062   0.134   2.706 -1.2530  0.2123  1.3137
 5121TIP3    H236923   3.093   0.273   2.759 -0.9131  0.6857 -0.0895
 5122TIP3   OH236924   2.587   3.599   7.236 -0.3119  0.4764 -0.4413
 5122TIP3    H136925   2.512   3.547   7.208 -0.6340  1.3769 -1.3066
 5122TIP3    H236926   2.549   3.683   7.261  0.3508  0.7637 -0.3899
 5123TIP3   OH236927   2.834   4.176   0.633  0.3361 -0.0667  0.5741
 5123TIP3    H136928   2.929   4.185   0.622  0.0249  2.5748 -1.0103
 5123TIP3    H236929   2.813   4.238   0.703 -0.5068  2.0880 -1.4441
 5124TIP3   OH236930   0.740   2.462   8.644 -0.1761 -0.2327  0.1393
 5124TIP3    H136931   0.761   2.377   8.683  2.6150 -0.4212 -1.5078
 5124TIP3    H236932   0.747   2.524   8.717 -3.5132 -1.3917  1.6657
 5125TIP3   OH236933   1.073   0.923   8.368 -0.5577  0.7643 -0.1721
 5125TIP3    H136934   1.091   0.975   8.290 -0.1262 -0.1809 -0.7223
 5125TIP3    H236935   1.141   0.855   8.368  0.5852  1.7881  2.0087
 5126TIP3   OH236936   4.743   4.627   0.631 -0.6518 -0.3987  0.1398
 5126TIP3    H136937   4.818   4.686   0.628  1.8511 -3.3330 -1.8394
 5126TIP3    H236938   4.739   4.598   0.722  1.0498 -0.6200  0.1802
 5127TIP3   OH236939   2.555   1.022   7.687 -0.5284  0.3198  0.5871
 5127TIP3    H136940   2.485   0.995   7.628  0.2905  0.0682 -0.2916
 5127TIP3    H236941   2.554   0.956   7.756 -1.0686  0.2493  0.5204
 5128TIP3   OH236942   1.649   3.027   2.347 -0.3418  0.3144 -0.5792
 5128TIP3    H136943   1.613   3.113   2.366  0.7481  0.4878  0.8772
 5128TIP3    H236944   1.636   2.977   2.428  1.8835  0.1370 -0.2738
 5129TIP3   OH236945   0.232   5.016   8.529  0.5366 -0.0975 -0.3064
 5129TIP3    H136946   0.264   4.976   8.449  1.0481  1.4344 -0.8969
 5129TIP3    H236947   0.197   5.100   8.502  2.6926  1.4355  1.3285
 5130TIP3   OH236948   0.749   1.792   1.156 -0.7657  1.0334 -0.0954
 5130TIP3    H136949   0.775   1.831   1.240  1.2192 -1.2879  0.4611
 5130TIP3    H236950   0.818   1.818   1.095  0.1063 -0.7395  0.0737
 5131TIP3   OH236951   5.654   5.823   2.394 -0.1348  0.3770  0.3826
 5131TIP3    H136952   5.588   5.787   2.336 -3.4135  2.1301  2.6671
 5131TIP3    H236953   5.685   5.748   2.445  2.0409 -0.9929 -2.6970
 5132TIP3   OH236954   0.351   5.364   1.756 -0.0089  0.5139  0.3563
 5132TIP3    H136955   0.368   5.280   1.799 -1.0543 -0.6078 -1.2976
 5132TIP3    H236956   0.426   5.377   1.698 -0.1473  0.4007  0.1507
 5133TIP3   OH236957   5.396   0.780   7.867  0.4800 -0.5079 -0.3968
 5133TIP3    H136958   5.484   0.803   7.837  0.2521  0.4431 -0.3908
 5133TIP3    H236959   5.341   0.787   7.789  0.0899  0.8201 -0.0419
 5134TIP3   OH236960   2.432   5.431   2.213  0.0761 -0.1774 -0.1516
 5134TIP3    H136961   2.450   5.388   2.130 -2.0378  0.7165 -1.1546
 5134TIP3    H236962   2.360   5.380   2.251 -2.0381  1.9219 -1.0638
 5135TIP3   OH236963   1.929   0.189   2.153  0.6358 -0.3443 -0.0487
 5135TIP3    H136964   2.007   0.196   2.209  2.1523 -2.3679 -1.7112
 5135TIP3    H236965   1.891   0.104   2.177  0.4743 -0.5611 -1.0132
 5136TIP3   OH236966   6.430   5.767   2.016 -0.3454 -0.2536  0.2660
 5136TIP3    H136967   6.398   5.853   1.989 -2.3630 -1.2120 -0.5974
 5136TIP3    H236968   6.397   5.756   2.105 -0.0766 -0.1475  0.3812
 5137TIP3   OH236969   1.336   5.101   7.471  0.4169 -1.0236 -0.0142
 5137TIP3    H136970   1.371   5.075   7.386  3.6498 -2.9256  1.6936
 5137TIP3    H236971   1.384   5.180   7.494 -0.5379 -0.4431  0.0096
 5138TIP3   OH236972   2.970   3.335   2.707  0.5340  0.0437  0.4772
 5138TIP3    H136973   2.929   3.314   2.623 -0.7596 -2.9770  1.6941
 5138TIP3    H236974   3.044   3.391   2.685 -3.2983  4.9924 -2.0636
 5139TIP3   OH236975   4.434   6.390   7.987 -0.0256 -0.1195  0.1215
 5139TIP3    H136976   4.412   6.461   7.927 -3.2992 -0.2806  0.9312
 5139TIP3    H236977   4.500   6.428   8.045  1.1801  0.9143 -1.8075
 5140TIP3   OH236978   4.639   2.712   7.859  0.4620 -0.5839  0.0777
 5140TIP3    H136979   4.701   2.776   7.825  1.3619 -0.9713  0.9500
 5140TIP3    H236980   4.556   2.735   7.817  1.3490 -0.5865 -1.7591
 5141TIP3   OH236981   5.878   4.282   0.844  0.0946 -0.0880  0.2764
 5141TIP3    H136982   5.968   4.274   0.810  0.6430  0.3982  1.5409
 5141TIP3    H236983   5.871   4.373   0.871 -0.2233 -0.5136  1.6802
 5142TIP3   OH236984   1.980   2.248   2.426 -0.0558 -0.2333 -0.3126
 5142TIP3    H136985   1.908   2.272   2.367 -0.7031 -0.9529  0.1733
 5142TIP3    H236986   1.940   2.246   2.513  0.4982 -0.8851 -0.0673
 5143TIP3   OH236987   0.740   5.353   2.313 -0.4796 -1.0315 -0.0640
 5143TIP3    H136988   0.815   5.298   2.337 -0.2035 -0.1531  1.1926
 5143TIP3    H236989   0.665   5.309   2.351 -0.2473 -0.5161  1.0269
 5144TIP3   OH236990   2.245   4.174   1.407 -1.0307 -0.1216 -0.1286
 5144TIP3    H136991   2.197   4.206   1.483  0.3404 -1.0544  1.1880
 5144TIP3    H236992   2.286   4.252   1.369 -0.7757  0.2142  0.8059
 5145TIP3   OH236993   6.728   2.777   8.168 -0.6300 -0.4680 -0.2368
 5145TIP3    H136994   6.797   2.740   8.224 -0.6939 -1.5658 -0.8707
 5145TIP3    H236995   6.661   2.709   8.164 -0.3510 -0.6837 -2.1622
 5146TIP3   OH236996   0.171   1.147   2.538  0.1698 -0.0031  0.5313
 5146TIP3    H136997   0.191   1.117   2.449 -0.1656 -0.5132  0.6238
 5146TIP3    H236998   0.151   1.067   2.587  2.0540  0.0781  1.5416
 5147TIP3   OH236999   2.015   0.992   8.476  0.4892  0.2687  0.2733
 5147TIP3    H137000   2.037   0.947   8.394  0.3112  1.6131 -0.5542
 5147TIP3    H237001   2.100   1.007   8.518  0.5597 -0.6836  0.4985
 5148TIP3   OH237002   2.116   0.659   2.591  0.0534 -0.4497  0.7155
 5148TIP3    H137003   2.207   0.676   2.564  0.2139 -1.0053  0.8868
 5148TIP3    H237004   2.094   0.576   2.548 -1.0081  0.5831 -0.8210
 5149TIP3   OH237005   0.981   4.641   1.705 -0.4949  0.1093  0.5918
 5149TIP3    H137006   1.031   4.565   1.733 -1.7318 -1.6850 -1.6841
 5149TIP3    H237007   0.916   4.655   1.774  0.8972  0.3268  1.9110
 5150TIP3   OH237008   4.854   1.165   7.542 -0.1319  0.2972 -0.1879
 5150TIP3    H137009   4.919   1.136   7.477 -1.4872  1.3827 -2.1524
 5150TIP3    H237010   4.798   1.225   7.493 -1.3863  0.9815  1.9872
 5151TIP3   OH237011   4.872   4.179   8.562  0.2868  0.4198 -0.3015
 5151TIP3    H137012   4.779   4.156   8.561  0.3152  0.1580  0.9541
 5151TIP3    H237013   4.875   4.269   8.530 -0.3844  0.3984 -0.4412
 5152TIP3   OH237014   2.381   3.245   8.251 -0.5739  0.3374 -0.3817
 5152TIP3    H137015   2.419   3.299   8.320 -0.5417  0.0969 -0.2098
 5152TIP3    H237016   2.289   3.233   8.277 -1.0290  1.6729 -1.2547
 5153TIP3   OH237017   0.519   4.699   2.253 -0.0486  0.2905 -0.0385
 5153TIP3    H137018   0.445   4.661   2.300 -1.2434 -0.0950 -2.0883
 5153TIP3    H237019   0.595   4.678   2.307 -1.0212 -2.3576  0.4481
 5154TIP3   OH237020   3.099   2.771   0.402 -0.4120  0.1010  0.4626
 5154TIP3    H137021   3.005   2.760   0.416 -0.5984  0.3460 -0.5247
 5154TIP3    H237022   3.130   2.817   0.479 -1.4651  1.8198 -0.0767
 5155TIP3   OH237023   0.759   5.653   8.024  0.2441 -0.0112  0.1136
 5155TIP3    H137024   0.831   5.605   8.065  1.6653  1.1939 -0.8767
 5155TIP3    H237025   0.761   5.626   7.932  0.4558  1.2024 -0.2510
 5156TIP3   OH237026   5.285   4.482   0.320 -0.6670  0.1483 -0.0652
 5156TIP3    H137027   5.351   4.542   0.355 -2.5739  3.1680 -1.2494
 5156TIP3    H237028   5.323   4.448   0.239  0.2187  0.2520  0.3029
 5157TIP3   OH237029   2.354   5.107   0.551 -0.2654  0.4249 -0.4602
 5157TIP3    H137030   2.286   5.105   0.483  0.7623 -0.5202 -1.5086
 5157TIP3    H237031   2.388   5.018   0.552  1.4887  1.0680 -0.5219
 5158TIP3   OH237032   2.996   6.720   3.000  0.4060  0.4194 -0.9906
 5158TIP3    H137033   3.085   6.728   3.035  0.0540  1.6673 -0.3151
 5158TIP3    H237034   2.980   6.626   2.995  0.8102  0.1633  1.4153
 5159TIP3   OH237035   0.754   3.999   0.749 -0.0223  0.5402 -0.3495
 5159TIP3    H137036   0.687   3.984   0.816 -0.0303  2.0379  0.0128
 5159TIP3    H237037   0.719   3.958   0.670 -1.6963  1.8189 -0.3412
 5160TIP3   OH237038   6.040   4.263   2.767  0.3337  0.6321 -0.3354
 5160TIP3    H137039   5.980   4.337   2.774  0.6464  0.9170 -0.6239
 5160TIP3    H237040   6.098   4.272   2.842 -0.9463 -0.5383  0.8563
 5161TIP3   OH237041   2.331   5.765   7.746  0.0479  0.1591  0.2835
 5161TIP3    H137042   2.380   5.705   7.690  1.1624 -2.1254  3.4227
 5161TIP3    H237043   2.246   5.724   7.758 -0.9082  1.5931 -1.0902
 5162TIP3   OH237044   6.397   2.146   8.246 -0.7890 -0.1085  0.5357
 5162TIP3    H137045   6.366   2.150   8.155 -0.6972  0.2262  0.5156
 5162TIP3    H237046   6.319   2.130   8.298 -0.4803 -3.4737  0.1702
 5163TIP3   OH237047   0.591   0.403   7.775 -0.4371  0.1369 -0.1743
 5163TIP3    H137048   0.669   0.350   7.758 -1.1161 -0.3152 -2.2209
 5163TIP3    H237049   0.606   0.442   7.861  1.2609 -1.2928  0.2305
 5164TIP3   OH237050   4.498   6.335   0.181 -0.2834 -0.0827  0.0615
 5164TIP3    H137051   4.457   6.296   0.103 -0.3612 -0.7887  0.4488
 5164TIP3    H237052   4.592   6.327   0.166 -0.2433  1.4434 -0.7804
 5165TIP3   OH237053   0.473   3.264   2.713  0.1090 -0.1704 -0.2648
 5165TIP3    H137054   0.560   3.275   2.751  0.3161 -0.1063 -0.7560
 5165TIP3    H237055   0.444   3.353   2.693 -0.7508 -0.0322  1.3805
 5166TIP3   OH237056   5.043   2.214   0.227  0.2413  0.0318 -0.3957
 5166TIP3    H137057   5.134   2.244   0.220  1.1302 -2.3840 -0.0532
 5166TIP3    H237058   5.031   2.157   0.151 -0.9908  0.2935 -0.4079
 5167TIP3   OH237059   6.075   2.633   2.244  0.0598 -0.2446  0.3496
 5167TIP3    H137060   6.066   2.686   2.165 -0.3170  1.2803  1.3634
 5167TIP3    H237061   6.065   2.696   2.316 -0.3732 -1.6992  1.6160
 5168TIP3   OH237062   0.288   1.300   0.746  0.0084 -0.2539 -0.0691
 5168TIP3    H137063   0.288   1.210   0.776  0.3088 -0.5259 -0.8520
 5168TIP3    H237064   0.219   1.343   0.796  0.3392 -0.7428  0.8134
 5169TIP3   OH237065   5.079   5.526   0.698 -0.0611  0.1745 -0.3604
 5169TIP3    H137066   5.009   5.484   0.748  0.5900  1.2344  1.5664
 5169TIP3    H237067   5.112   5.457   0.641 -1.2291 -0.9566  0.2578
 5170TIP3   OH237068   3.934   4.483   8.476  0.0315  0.4868 -0.0075
 5170TIP3    H137069   3.885   4.543   8.534 -0.4432  0.6036 -0.5182
 5170TIP3    H237070   3.888   4.489   8.392 -0.6094 -1.3192  0.1794
 5171TIP3   OH237071   2.821   3.089   2.023 -0.6484  0.6652 -0.3390
 5171TIP3    H137072   2.836   3.016   1.963 -1.6497  2.0628 -2.4041
 5171TIP3    H237073   2.727   3.086   2.041 -0.8900  2.0095 -1.2634
 5172TIP3   OH237074   4.784   0.522   1.761 -0.4491  0.0669 -0.7801
 5172TIP3    H137075   4.855   0.566   1.809 -0.2857  0.1185 -1.0674
 5172TIP3    H237076   4.830   0.463   1.701 -0.6504  0.2323 -1.0941
 5173TIP3   OH237077   0.912   6.190   1.388 -0.0693  0.2923 -0.3656
 5173TIP3    H137078   0.909   6.252   1.461 -1.9713 -0.1602  0.0118
 5173TIP3    H237079   0.847   6.223   1.326 -0.3789 -0.7599 -0.6155
 5174TIP3   OH237080   3.193   2.923   2.926  0.6504  0.1022  0.7189
 5174TIP3    H137081   3.236   3.004   2.899 -0.1677 -0.0100 -1.0364
 5174TIP3    H237082   3.263   2.868   2.960  1.6864  0.4794 -0.7211
 5175TIP3   OH237083   2.833   4.931   1.826  0.0148  0.0586 -0.6145
 5175TIP3    H137084   2.888   4.882   1.887 -1.1066 -0.1379  0.2511
 5175TIP3    H237085   2.789   4.996   1.879 -1.4437 -0.5073 -1.0795
 5176TIP3   OH237086   3.785   2.528   2.468  0.1172  0.5485  0.0768
 5176TIP3    H137087   3.831   2.593   2.521  0.9047  0.2609 -0.2408
 5176TIP3    H237088   3.794   2.446   2.517 -1.0219  0.6928  0.5625
 5177TIP3   OH237089   3.364   1.599   2.153 -0.1784  0.0108 -0.3576
 5177TIP3    H137090   3.391   1.530   2.215  2.2819  0.9338 -0.2721
 5177TIP3    H237091   3.429   1.668   2.165 -1.6003  1.6405 -1.6419
 5178TIP3   OH237092   4.995   4.365   1.854  0.0799  0.1435 -0.6667
 5178TIP3    H137093   4.903   4.337   1.856 -0.3156  1.4261 -0.2673
 5178TIP3    H237094   4.993   4.453   1.817  1.0248  0.6614  0.4688
 5179TIP3   OH237095   2.357   3.442   7.406 -0.0432 -0.3168 -0.3859
 5179TIP3    H137096   2.368   3.526   7.450 -0.2170 -0.6642  0.3469
 5179TIP3    H237097   2.280   3.453   7.350 -1.2919 -0.5658  1.2075
 5180TIP3   OH237098   5.295   1.164   1.200  0.1093 -0.0292  0.3034
 5180TIP3    H137099   5.234   1.212   1.144 -0.2917 -1.6280 -0.6709
 5180TIP3    H237100   5.265   1.182   1.289 -0.0327  1.4913 -0.0180
 5181TIP3   OH237101   0.480   0.748   0.536 -0.1478  0.4342  0.2195
 5181TIP3    H137102   0.408   0.800   0.501  1.3225  2.1727 -0.4386
 5181TIP3    H237103   0.550   0.759   0.471  1.3964  0.6075  1.8550
 5182TIP3   OH237104   3.916   0.326   1.305 -0.0210  0.2260  0.1676
 5182TIP3    H137105   3.982   0.390   1.276 -1.2041  1.8271  0.8320
 5182TIP3    H237106   3.922   0.329   1.401 -0.3719 -0.3759  0.2092
 5183TIP3   OH237107   1.972   2.303   0.703  0.0852  0.7597  0.5460
 5183TIP3    H137108   2.012   2.252   0.773  0.7093  0.4297 -0.0352
 5183TIP3    H237109   1.880   2.275   0.702  0.1184  0.6271  1.1004
 5184TIP3   OH237110   2.302   0.034   8.451 -0.2231  0.2198  0.2894
 5184TIP3    H137111   2.305   0.043   8.546  0.2500 -1.4915  0.4684
 5184TIP3    H237112   2.233  -0.031   8.436 -1.9878  2.2116 -0.7156
 5185TIP3   OH237113   0.222   1.490   7.418  0.7002 -0.0981 -0.0497
 5185TIP3    H137114   0.291   1.544   7.457 -0.3719  0.9148  0.4971
 5185TIP3    H237115   0.265   1.445   7.345  1.7603  1.1134 -0.2096
 5186TIP3   OH237116   0.479   3.867   8.169 -0.2010  0.4534  0.1386
 5186TIP3    H137117   0.394   3.903   8.145  0.4933  1.1858 -1.3356
 5186TIP3    H237118   0.515   3.931   8.231  0.9032  2.3055 -2.2409
 5187TIP3   OH237119   2.967   3.661   7.580  0.2211 -0.3018 -0.2152
 5187TIP3    H137120   3.043   3.672   7.522 -1.0237 -1.4640 -2.1873
 5187TIP3    H237121   2.943   3.569   7.570  0.0081 -0.5847  2.3184
 5188TIP3   OH237122   0.203   5.418   8.701  0.0115 -0.0306  0.0088
 5188TIP3    H137123   0.239   5.453   8.782  0.6744 -1.3984  0.3351
 5188TIP3    H237124   0.179   5.328   8.723 -1.0164 -0.0202 -0.9743
 5189TIP3   OH237125   5.336   0.487   2.086 -0.1755  0.0355 -0.1799
 5189TIP3    H137126   5.324   0.453   2.174 -1.1221 -0.4659 -0.4906
 5189TIP3    H237127   5.263   0.450   2.036  1.1644 -0.9225 -1.5278
 5190TIP3   OH237128   2.849   5.169   7.591  0.0082 -0.1800 -0.8897
 5190TIP3    H137129   2.802   5.226   7.529  0.9065  0.7882 -0.7017
 5190TIP3    H237130   2.935   5.155   7.551 -0.2202 -1.5060 -0.9759
 5191TIP3   OH237131   4.838   3.301   2.918 -0.2539 -0.3560 -0.5846
 5191TIP3    H137132   4.928   3.304   2.885  0.1753  1.6669  0.6076
 5191TIP3    H237133   4.841   3.236   2.988 -0.2295 -1.7258 -1.7991
 5192TIP3   OH237134   5.968   4.805   7.851 -0.3449 -0.3332  0.2882
 5192TIP3    H137135   5.987   4.874   7.788 -0.1081 -0.2134  0.4846
 5192TIP3    H237136   5.959   4.725   7.799  3.5724 -1.0093  0.3259
 5193TIP3   OH237137   0.819   3.931   1.742 -0.4875  0.7152  0.2372
 5193TIP3    H137138   0.753   3.960   1.679 -1.2014 -0.1067  0.5837
 5193TIP3    H237139   0.773   3.869   1.799  0.4421  0.5474  0.8389
 5194TIP3   OH237140   3.567   3.287   1.374 -0.6883 -0.1457  0.6700
 5194TIP3    H137141   3.536   3.202   1.406 -1.1362 -0.4088 -0.4230
 5194TIP3    H237142   3.517   3.351   1.425  1.4868 -0.4125  3.4048
 5195TIP3   OH237143   5.583   5.681   7.987  0.1131 -0.1833  0.0434
 5195TIP3    H137144   5.499   5.669   8.031  0.1198 -0.1876  0.0556
 5195TIP3    H237145   5.584   5.614   7.919 -1.2543  1.7801 -2.0306
 5196TIP3   OH237146   3.791   0.261   8.207 -0.1680  0.3171  0.6279
 5196TIP3    H137147   3.700   0.250   8.176  0.2418  1.1215 -0.9899
 5196TIP3    H237148   3.794   0.351   8.239 -0.0235  0.1786  1.0010
 5197TIP3   OH237149   1.899   3.853   7.519 -0.7756  0.0231  0.3284
 5197TIP3    H137150   1.967   3.863   7.452 -0.6173 -0.5487  0.3955
 5197TIP3    H237151   1.908   3.931   7.574 -0.5164  0.2083  0.0289
 5198TIP3   OH237152   0.157   5.203   0.093 -0.1971 -0.1983 -0.2047
 5198TIP3    H137153   0.155   5.114   0.057 -3.1308  0.2258 -1.3793
 5198TIP3    H237154   0.085   5.205   0.156 -0.8862  1.6065 -0.9836
 5199TIP3   OH237155   3.368   2.705   0.135 -0.4149  0.0532  0.1939
 5199TIP3    H137156   3.365   2.681   0.227 -2.1292  2.4721  0.8822
 5199TIP3    H237157   3.456   2.740   0.122 -0.3467  0.2411  1.0963
 5200TIP3   OH237158   1.983   6.361   7.392 -0.3003  0.5226  0.1287
 5200TIP3    H137159   2.024   6.436   7.349 -0.2022  1.4382  1.7204
 5200TIP3    H237160   1.972   6.296   7.323 -0.2584  1.9476 -1.2662
 5201TIP3   OH237161   4.370   0.558   0.826  0.4010  0.1801  0.7328
 5201TIP3    H137162   4.432   0.488   0.807 -0.6237 -0.8548  1.0510
 5201TIP3    H237163   4.298   0.543   0.765 -1.2625 -0.9642  2.8539
 5202TIP3   OH237164   3.492   6.615   8.731 -0.2944 -0.0711  0.2583
 5202TIP3    H137165   3.466   6.611   8.823  1.3140 -4.7382  0.7702
 5202TIP3    H237166   3.585   6.638   8.733 -0.0140 -1.1026 -0.0522
 5203TIP3   OH237167   3.753   0.672   7.573 -0.0921  0.0904  0.3059
 5203TIP3    H137168   3.688   0.606   7.546 -1.0915  1.1834 -0.0669
 5203TIP3    H237169   3.751   0.737   7.503 -1.6840  2.2758  2.2210
 5204TIP3   OH237170   2.335   6.807   1.126  0.3693 -0.5251  0.2528
 5204TIP3    H137171   2.379   6.884   1.091 -0.3259  0.9507  2.3836
 5204TIP3    H237172   2.321   6.749   1.051  2.0978  0.8367 -1.1716
 5205TIP3   OH237173   4.050   0.266   1.559 -0.2421 -0.0552 -0.3930
 5205TIP3    H137174   4.077   0.181   1.525 -1.9908 -1.2956  1.1478
 5205TIP3    H237175   4.130   0.320   1.554  1.6288 -2.4982  0.8944
 5206TIP3   OH237176   3.131   3.666   2.577  0.3372 -0.5801  0.1802
 5206TIP3    H137177   3.093   3.684   2.663 -1.2579 -3.5839  0.2174
 5206TIP3    H237178   3.187   3.589   2.591  1.4425 -0.0681 -1.1674
 5207TIP3   OH237179   6.643   0.248   0.278  0.5753 -0.4924 -0.3478
 5207TIP3    H137180   6.550   0.271   0.283  0.7725 -0.0553  2.3565
 5207TIP3    H237181   6.656   0.185   0.349  1.7943 -2.8519 -2.4781
 5208TIP3   OH237182   4.258   6.513   6.798 -0.4819 -0.2106 -0.1459
 5208TIP3    H137183   4.252   6.579   6.729 -1.1843 -0.8156 -0.6746
 5208TIP3    H237184   4.348   6.479   6.790 -0.4946 -0.1422 -0.6393
 5209TIP3   OH237185   6.565   3.427   1.785  0.1379  0.0838  0.0928
 5209TIP3    H137186   6.607   3.345   1.809  0.5600  0.3154  0.1626
 5209TIP3    H237187   6.637   3.488   1.769 -0.1692  0.5495  0.4316
 5210TIP3   OH237188   5.150   0.459   0.884  0.2450  0.3835 -0.1202
 5210TIP3    H137189   5.208   0.434   0.812 -0.5614  0.0115 -0.6656
 5210TIP3    H237190   5.184   0.412   0.960  0.0271 -0.6990 -0.6647
 5211TIP3   OH237191   2.577   1.424   0.666 -0.0460  0.0665 -0.0140
 5211TIP3    H137192   2.663   1.444   0.629  1.4845 -2.7470  1.7204
 5211TIP3    H237193   2.541   1.356   0.609 -0.6111  0.3858 -0.0474
 5212TIP3   OH237194   2.124   2.970   2.115 -0.2727  0.1351 -0.4810
 5212TIP3    H137195   2.068   2.979   2.191  0.6062 -0.3587  0.2465
 5212TIP3    H237196   2.173   2.889   2.131  1.9758  1.4614 -0.1888
 5213TIP3   OH237197   5.967   5.889   2.730  0.3408  0.3360 -0.1219
 5213TIP3    H137198   5.990   5.916   2.641  3.4577  2.4324  1.1286
 5213TIP3    H237199   5.913   5.960   2.763  2.0959  1.3862  0.6698
 5214TIP3   OH237200   2.730   4.164   2.508  0.1121  0.1612 -0.3836
 5214TIP3    H137201   2.645   4.204   2.526  0.0359 -0.0552 -0.2572
 5214TIP3    H237202   2.715   4.110   2.430 -0.5114 -1.8311  1.0293
 5215TIP3   OH237203   3.644   1.286   1.878 -0.0217  0.3094 -0.1810
 5215TIP3    H137204   3.727   1.258   1.840 -0.3457 -0.9455 -0.0178
 5215TIP3    H237205   3.578   1.230   1.836 -0.6414  0.4270  0.6052
 5216TIP3   OH237206   2.666   1.302   2.169  0.4039  0.2717 -0.1113
 5216TIP3    H137207   2.715   1.220   2.166  2.0109  1.2045 -0.5361
 5216TIP3    H237208   2.612   1.300   2.090  0.4011 -0.3847 -0.1015
 5217TIP3   OH237209   2.358   5.556   1.361  0.0580 -0.2920 -0.0643
 5217TIP3    H137210   2.398   5.473   1.335 -0.9433 -0.7866 -0.0862
 5217TIP3    H237211   2.355   5.554   1.456 -0.0449 -0.3174 -0.0680
 5218TIP3   OH237212   4.988   6.715   2.129 -0.2541  0.6765  0.1022
 5218TIP3    H137213   5.019   6.789   2.078  0.7341 -0.2433 -0.6846
 5218TIP3    H237214   4.986   6.747   2.219  0.6102  1.5208 -0.1598
 5219TIP3   OH237215   6.137   2.987   7.404  0.0024  0.4675 -0.4522
 5219TIP3    H137216   6.074   3.005   7.474  0.5798 -0.5029  0.3415
 5219TIP3    H237217   6.122   2.895   7.381  0.8124  0.3532 -0.5615
 5220TIP3   OH237218   1.568   5.999   0.681 -0.4451 -0.3712  0.7361
 5220TIP3    H137219   1.662   5.984   0.685 -0.4754 -0.3258  3.4394
 5220TIP3    H237220   1.530   5.935   0.742 -1.9013  1.1713  1.5491
 5221TIP3   OH237221   0.686   0.498   0.609 -0.4274  0.2577 -0.7095
 5221TIP3    H137222   0.739   0.577   0.599 -1.2283  0.6629 -2.0410
 5221TIP3    H237223   0.602   0.520   0.569 -2.1593  0.1298  2.5472
 5222TIP3   OH237224   5.185   1.569   8.391 -0.2426  0.4964  0.0124
 5222TIP3    H137225   5.221   1.513   8.322  0.5323 -0.7117  1.3392
 5222TIP3    H237226   5.100   1.597   8.357  1.0775  1.9078 -2.4296
 5223TIP3   OH237227   5.948   3.680   1.880 -0.5041  0.0024 -0.2559
 5223TIP3    H137228   5.873   3.736   1.857 -0.5146 -0.7225 -2.1257
 5223TIP3    H237229   6.012   3.695   1.810  0.8869  0.1790  1.0106
 5224TIP3   OH237230   4.800   5.795   8.520  0.6687  0.1548 -0.2738
 5224TIP3    H137231   4.812   5.724   8.457 -0.2534 -1.2733  1.0979
 5224TIP3    H237232   4.839   5.871   8.477 -1.4389 -0.3044 -3.3477
 5225TIP3   OH237233   0.623   4.260   8.076  0.1146 -0.1033 -0.6441
 5225TIP3    H137234   0.622   4.244   8.170  1.8000 -1.6441 -0.8438
 5225TIP3    H237235   0.706   4.225   8.046 -0.6347 -0.1867 -2.8147
 5226TIP3   OH237236   4.674   1.457   0.006  0.5000  0.0828  0.2413
 5226TIP3    H137237   4.718   1.514   0.070  2.6588 -0.2586 -0.8262
 5226TIP3    H237238   4.696   1.495  -0.079  0.1499 -1.1067 -0.4008
 5227TIP3   OH237239   0.384   0.050   1.970  0.5287  0.5609  0.2642
 5227TIP3    H137240   0.369   0.032   2.063 -2.0901  2.0831  0.2510
 5227TIP3    H237241   0.427  -0.028   1.937 -1.7748 -1.6427  2.0156
 5228TIP3   OH237242   5.385   6.142   3.016  0.2340 -0.4546  0.5141
 5228TIP3    H137243   5.384   6.048   2.996  0.3949 -0.3944  0.2217
 5228TIP3    H237244   5.456   6.177   2.962 -0.7647  0.0866 -0.4829
 5229TIP3   OH237245   5.415   5.041   8.166 -0.4848 -0.1830 -0.8968
 5229TIP3    H137246   5.338   5.003   8.209 -1.5920  1.4267 -1.3311
 5229TIP3    H237247   5.394   5.039   8.073  0.2091 -0.1497 -1.0607
 5230TIP3   OH237248   0.994   0.411   7.784 -0.4396 -0.3344 -0.2420
 5230TIP3    H137249   1.017   0.502   7.797  2.0195 -0.6386 -1.8332
 5230TIP3    H237250   0.963   0.407   7.694  0.8366 -1.2514 -0.6723
 5231TIP3   OH237251   6.554   4.356   3.068  0.3112 -0.3872  0.0243
 5231TIP3    H137252   6.458   4.348   3.070  0.1881  0.9788  0.6291
 5231TIP3    H237253   6.575   4.370   2.976 -0.2309  0.8812  0.0827
 5232TIP3   OH237254   3.196   5.990   0.779  0.3678  0.0735 -0.0778
 5232TIP3    H137255   3.259   5.945   0.834  1.2575  1.4079  0.0469
 5232TIP3    H237256   3.244   6.065   0.744 -0.3343 -0.4251 -2.2446
 5233TIP3   OH237257   4.082   1.377   8.589 -0.3206 -0.0078  0.9732
 5233TIP3    H137258   4.172   1.357   8.612  0.1130  0.0387 -0.5842
 5233TIP3    H237259   4.063   1.322   8.513  0.1867  3.5197 -2.0563
 5234TIP3   OH237260   2.423   3.759   1.128 -0.1510  0.8595  0.3202
 5234TIP3    H137261   2.504   3.783   1.083  0.6056 -1.7781  0.1221
 5234TIP3    H237262   2.406   3.832   1.188  0.9512  2.6462 -1.3988
 5235TIP3   OH237263   3.975   3.267   3.000 -0.3193 -0.0658  0.2131
 5235TIP3    H137264   3.980   3.356   3.036 -0.4617  0.1120 -0.1915
 5235TIP3    H237265   3.978   3.210   3.076  0.0065  0.2814  0.4645
 5236TIP3   OH237266   3.428   0.972   2.720 -0.2507  0.3245  0.2336
 5236TIP3    H137267   3.430   1.065   2.697 -2.1412  0.2129 -0.5547
 5236TIP3    H237268   3.341   0.959   2.759  0.4769 -0.8568  1.5527
 5237TIP3   OH237269   1.936   5.764   8.157  0.3930  0.4679  0.3525
 5237TIP3    H137270   1.958   5.855   8.136 -0.0772  0.3442 -0.7686
 5237TIP3    H237271   1.994   5.713   8.101 -0.5312  0.1088 -0.2999
 5238TIP3   OH237272   3.732   2.509   0.473  0.3981 -0.1297 -0.3597
 5238TIP3    H137273   3.718   2.414   0.468 -1.6121  0.1242 -0.3972
 5238TIP3    H237274   3.689   2.535   0.554  2.0672  0.6153  0.3290
 5239TIP3   OH237275   0.427   3.056   8.316 -0.2671  0.1731 -0.3313
 5239TIP3    H137276   0.418   3.117   8.243 -2.6583  0.6835  0.2860
 5239TIP3    H237277   0.462   3.110   8.388  1.2845 -0.1371 -0.8134
 5240TIP3   OH237278   2.121   3.288   7.879  0.4383  0.0802  0.1332
 5240TIP3    H137279   2.047   3.345   7.901 -0.3442 -0.9981  0.3559
 5240TIP3    H237280   2.173   3.340   7.817 -1.4232  0.2319 -1.4122
 5241TIP3   OH237281   4.086   5.158   0.034  0.2416  0.4314  0.4035
 5241TIP3    H137282   4.030   5.081   0.025  0.7128  0.0606  0.5705
 5241TIP3    H237283   4.166   5.135  -0.015  0.0961  1.1059 -0.1612
 5242TIP3   OH237284   2.756   0.172   0.062  0.8469 -0.1746  0.0291
 5242TIP3    H137285   2.731   0.257   0.026  0.8140 -0.3693 -0.4063
 5242TIP3    H237286   2.850   0.164   0.043  0.8201 -0.2975 -0.0485
 5243TIP3   OH237287   5.122   6.470   7.833  0.2249 -0.1967  0.2263
 5243TIP3    H137288   5.196   6.531   7.843 -1.1295  1.3425  1.3326
 5243TIP3    H237289   5.120   6.452   7.739  1.4971  0.3823  0.0564
 5244TIP3   OH237290   3.536   2.024   1.268  0.1752  0.3371 -0.3584
 5244TIP3    H137291   3.540   1.936   1.307  0.1718  1.0959  1.4704
 5244TIP3    H237292   3.455   2.024   1.217 -0.4310 -0.3825  0.5698
 5245TIP3   OH237293   2.638   3.882   0.258  0.1577 -0.5728  1.0176
 5245TIP3    H137294   2.560   3.933   0.280  1.3703  2.2501 -0.7315
 5245TIP3    H237295   2.708   3.922   0.310  0.7694 -1.9775  1.3106
 5246TIP3   OH237296   2.086   2.572   1.794 -0.1215  0.2012  0.3525
 5246TIP3    H137297   2.116   2.611   1.876  0.8232 -0.3127  0.2662
 5246TIP3    H237298   2.125   2.626   1.726  2.6055 -1.7763  0.1974
 5247TIP3   OH237299   3.577   4.999   8.293 -0.2714  0.5703  0.2672
 5247TIP3    H137300   3.628   5.078   8.279 -1.1574  0.9313 -1.2594
 5247TIP3    H237301   3.502   5.009   8.234 -0.9606 -0.9080  0.8492
 5248TIP3   OH237302   1.761   1.829   0.889 -0.0318 -0.1868 -0.0603
 5248TIP3    H137303   1.694   1.782   0.939 -1.3375  1.8387  0.2063
 5248TIP3    H237304   1.738   1.812   0.798 -1.8368  1.5900 -0.0028
 5249TIP3   OH237305   4.019   0.442   7.634 -0.9013  0.2122  0.3035
 5249TIP3    H137306   4.025   0.530   7.671 -0.9111  0.7720 -0.9763
 5249TIP3    H237307   3.954   0.398   7.688 -0.3382  0.7345  1.4393
 5250TIP3   OH237308   5.848   4.212   8.747  0.2275 -0.4928 -0.0580
 5250TIP3    H137309   5.761   4.232   8.714  1.1748  0.3430 -2.2796
 5250TIP3    H237310   5.854   4.117   8.743 -1.5195 -0.8302  2.8906
 5251TIP3   OH237311   0.385   0.382   0.937  0.2053 -0.0938 -0.6173
 5251TIP3    H137312   0.348   0.424   1.015  0.4251 -1.1215  0.0614
 5251TIP3    H237313   0.414   0.455   0.882 -0.6379  0.6663 -0.0849
 5252TIP3   OH237314   4.640   3.759   7.713 -0.7493 -0.4243 -0.4147
 5252TIP3    H137315   4.723   3.713   7.728  0.2490  1.0137 -1.2609
 5252TIP3    H237316   4.578   3.717   7.772  1.1855  0.1609  2.2060
 5253TIP3   OH237317   3.471   3.425   8.113 -0.4277  0.2744  0.0070
 5253TIP3    H137318   3.388   3.408   8.158 -0.3472  0.3910  0.2019
 5253TIP3    H237319   3.524   3.471   8.178 -0.0552 -0.1842  0.0275
 5254TIP3   OH237320   2.924   2.993   7.233  0.3859  0.0610 -0.1812
 5254TIP3    H137321   2.924   2.915   7.289  0.1219 -0.2165 -0.5554
 5254TIP3    H237322   2.977   3.057   7.280  2.0756 -0.9168 -0.6565
 5255TIP3   OH237323   1.269   2.613   0.549 -0.0729 -0.3770 -0.0007
 5255TIP3    H137324   1.329   2.687   0.535  0.2076 -0.5987  0.0259
 5255TIP3    H237325   1.184   2.645   0.518  0.0532 -0.0524 -0.0177
 5256TIP3   OH237326   4.796   3.362   1.375 -0.0462 -0.1904  0.3128
 5256TIP3    H137327   4.849   3.314   1.438  2.3593  1.9894  0.1146
 5256TIP3    H237328   4.834   3.340   1.290 -1.3170 -0.7475 -0.1365
 5257TIP3   OH237329   4.514   4.416   1.092 -0.1333  0.3819  0.3140
 5257TIP3    H137330   4.425   4.380   1.090 -0.6139  1.4227  1.3475
 5257TIP3    H237331   4.569   4.344   1.122 -0.1846 -1.0084 -2.5800
 5258TIP3   OH237332   1.028   1.590   8.664  0.3400 -0.5586 -0.0910
 5258TIP3    H137333   1.081   1.653   8.713  1.4530 -2.1077  0.7903
 5258TIP3    H237334   0.993   1.532   8.732 -0.6600 -0.9030 -0.8815
 5259TIP3   OH237335   3.024   2.228   0.909  0.2873  0.2553  0.2689
 5259TIP3    H137336   3.091   2.207   0.845 -0.9197 -0.5116 -0.8047
 5259TIP3    H237337   3.018   2.324   0.907  2.0940  0.4282  1.2316
 5260TIP3   OH237338   4.735   6.190   0.375 -0.1142  0.7639 -0.2456
 5260TIP3    H137339   4.651   6.152   0.401  0.3918 -1.0302 -1.0830
 5260TIP3    H237340   4.800   6.148   0.432  0.2779  1.9108  0.1947
 5261TIP3   OH237341   1.453   3.145   2.702  0.3849 -0.0665  0.0215
 5261TIP3    H137342   1.400   3.210   2.746 -1.7353 -0.7883 -1.3114
 5261TIP3    H237343   1.542   3.179   2.706 -0.2714  1.5734  1.6727
 5262TIP3   OH237344   6.362   5.765   8.147  0.0315 -0.1843 -0.9998
 5262TIP3    H137345   6.457   5.763   8.158  0.0880 -0.3468 -1.5286
 5262TIP3    H237346   6.342   5.858   8.136 -0.1383  0.1386  1.3629
 5263TIP3   OH237347   3.517   2.826   0.452 -0.1522  0.2447 -0.5681
 5263TIP3    H137348   3.470   2.899   0.492  0.8007 -0.7717  2.8168
 5263TIP3    H237349   3.453   2.754   0.454  0.0924  0.0343 -0.2970
 5264TIP3   OH237350   2.127   1.604   1.077 -0.7659 -0.5156  0.4257
 5264TIP3    H137351   2.095   1.528   1.125  0.1974 -0.5264  1.0793
 5264TIP3    H237352   2.209   1.628   1.121  0.6339 -1.0638 -1.7114
 5265TIP3   OH237353   5.381   3.493   1.878 -0.1706 -0.1139 -0.3056
 5265TIP3    H137354   5.345   3.570   1.923 -1.0957 -1.5952  1.6229
 5265TIP3    H237355   5.406   3.434   1.948  0.0178 -1.8203 -1.7444
 5266TIP3   OH237356   3.412   4.497   2.303 -0.2037  0.0912  0.0040
 5266TIP3    H137357   3.412   4.402   2.319 -1.8486  0.1858  0.7225
 5266TIP3    H237358   3.505   4.519   2.297  0.1987 -1.7673 -1.5517
 5267TIP3   OH237359   6.287   5.526   8.284 -0.8063  0.3949 -0.1673
 5267TIP3    H137360   6.331   5.595   8.234  0.0414 -0.3742 -0.5232
 5267TIP3    H237361   6.208   5.568   8.318  0.6413  2.1408  1.3025
 5268TIP3   OH237362   4.577   4.150   8.588  0.4610  0.3274 -0.0459
 5268TIP3    H137363   4.526   4.223   8.553  0.4030  0.2302 -0.1638
 5268TIP3    H237364   4.549   4.144   8.680  2.1230  1.9133  0.6324
 5269TIP3   OH237365   1.038   3.269   8.216  0.0463  0.0397 -0.6711
 5269TIP3    H137366   0.997   3.336   8.271 -0.6661 -0.9633  0.0752
 5269TIP3    H237367   0.978   3.194   8.221  1.6444 -1.2674 -0.0567
 5270TIP3   OH237368   6.242   4.032   8.148 -0.4039 -0.1154  0.5684
 5270TIP3    H137369   6.282   3.946   8.155  2.4162  1.1094  0.7229
 5270TIP3    H237370   6.315   4.093   8.149 -2.2553  2.2831 -0.2334
 5271TIP3   OH237371   1.040   3.985   8.221 -0.1873 -0.1432 -0.5250
 5271TIP3    H137372   1.003   3.898   8.206  1.1110 -0.6908 -0.7210
 5271TIP3    H237373   1.125   3.983   8.176  0.8423  0.4552  1.2803
 5272TIP3   OH237374   1.887   2.454   1.200  0.2512 -0.8324  0.0705
 5272TIP3    H137375   1.935   2.371   1.190 -1.7765 -2.4177  2.2869
 5272TIP3    H237376   1.904   2.481   1.290 -0.6147  0.1580 -0.0430
 5273TIP3   OH237377   5.521   2.061   7.505  0.2266 -0.0822 -0.2902
 5273TIP3    H137378   5.596   2.106   7.544  1.8502 -1.4790 -1.6053
 5273TIP3    H237379   5.500   1.992   7.568 -1.3677  1.5482  1.0629
 5274TIP3   OH237380   3.785   5.330   0.968 -0.4147 -0.3372 -0.1265
 5274TIP3    H137381   3.869   5.367   0.996  0.4008 -1.6396 -0.7334
 5274TIP3    H237382   3.742   5.401   0.921  0.7938  0.0743 -0.6649
 5275TIP3   OH237383   5.595   6.338   0.631  0.3066  0.1273 -0.4234
 5275TIP3    H137384   5.587   6.258   0.684  0.7720  0.5041  0.2283
 5275TIP3    H237385   5.622   6.307   0.545  1.9423 -0.3115  0.2194
 5276TIP3   OH237386   5.249   3.654   0.023 -0.6941 -0.3972  0.0658
 5276TIP3    H137387   5.225   3.630   0.112  1.9049  0.2103  1.0419
 5276TIP3    H237388   5.257   3.570  -0.023  1.6027 -1.0899  1.5273
 5277TIP3   OH237389   2.781   6.428   8.555 -0.3170  0.5977 -0.1741
 5277TIP3    H137390   2.820   6.437   8.468  0.2016 -0.0041 -0.0158
 5277TIP3    H237391   2.753   6.516   8.579  2.6061  1.4562  0.4597
 5278TIP3   OH237392   4.120   0.986   1.085 -0.5558 -0.1684 -0.3893
 5278TIP3    H137393   4.157   0.954   1.167 -2.4956  1.2349  1.1349
 5278TIP3    H237394   4.090   0.907   1.040 -0.3711 -0.8864  0.7038
 5279TIP3   OH237395   0.283   0.174   7.507  0.7015 -0.0911 -0.2446
 5279TIP3    H137396   0.264   0.257   7.463  0.9676  0.1651  0.1129
 5279TIP3    H237397   0.199   0.148   7.545  0.5689 -0.0957 -0.5361
 5280TIP3   OH237398   4.409   3.214   7.974 -0.3059 -0.8245  0.0444
 5280TIP3    H137399   4.497   3.251   7.980  0.0272 -1.6207  0.0871
 5280TIP3    H237400   4.399   3.190   7.882  0.4521 -2.9581  0.4626
 5281TIP3   OH237401   5.115   0.676   8.040  0.3715  0.3298 -0.4945
 5281TIP3    H137402   5.136   0.700   7.950  0.1335 -0.2616 -0.7043
 5281TIP3    H237403   5.061   0.598   8.033 -1.8657  1.7126  0.0359
 5282TIP3   OH237404   0.852   5.484   0.800  0.2553 -0.4446  0.1606
 5282TIP3    H137405   0.823   5.512   0.886 -0.0241  0.6553 -0.2705
 5282TIP3    H237406   0.796   5.410   0.778 -0.9270  0.4163  0.1679
 5283TIP3   OH237407   6.045   4.648   0.064 -0.5500 -0.3357 -0.2389
 5283TIP3    H137408   6.099   4.612   0.134  0.5912  0.6804 -0.5562
 5283TIP3    H237409   6.078   4.607  -0.016  0.6059  1.1325 -0.5760
 5284TIP3   OH237410   1.659   5.408   0.085 -0.1855 -0.1202  0.7507
 5284TIP3    H137411   1.643   5.394  -0.009 -1.2509  0.2590  0.8701
 5284TIP3    H237412   1.749   5.378   0.098 -0.0445 -0.2347 -0.3824
 5285TIP3   OH237413   0.189   3.478   8.166 -0.2627 -0.5012  0.4626
 5285TIP3    H137414   0.163   3.569   8.183 -0.5196 -0.5256  0.2025
 5285TIP3    H237415   0.262   3.484   8.105 -1.1775 -0.5110 -0.6711
 5286TIP3   OH237416   5.994   1.558   8.700  0.0988 -0.2977  0.5273
 5286TIP3    H137417   6.056   1.551   8.773  1.1729 -0.2468 -0.3358
 5286TIP3    H237418   5.998   1.472   8.658  1.1548  0.3219 -0.7207
 5287TIP3   OH237419   3.595   2.420   1.704 -0.0040  0.1447  0.9106
 5287TIP3    H137420   3.532   2.487   1.729 -1.1295 -0.1595 -0.9462
 5287TIP3    H237421   3.671   2.470   1.673 -0.9144  0.6227 -0.6706
 5288TIP3   OH237422   2.762   6.013   1.896 -0.5450 -0.4825 -0.3232
 5288TIP3    H137423   2.709   6.054   1.964  0.1043  0.6829 -0.4865
 5288TIP3    H237424   2.818   6.084   1.864  1.6173 -1.7976  0.3528
 5289TIP3   OH237425   1.436   1.119   8.539 -0.3581 -0.0812 -0.1076
 5289TIP3    H137426   1.380   1.185   8.580 -1.8606 -0.8824 -0.7681
 5289TIP3    H237427   1.482   1.077   8.612 -0.0544  1.0866  0.3875
 5290TIP3   OH237428   4.801   1.092   8.358 -0.5565 -0.2347  0.1141
 5290TIP3    H137429   4.777   1.171   8.406  1.2826  0.4020  0.0437
 5290TIP3    H237430   4.858   1.122   8.287  0.6561 -1.6558  0.4260
 5291TIP3   OH237431   5.600   0.019   2.310 -0.0792 -0.5115 -0.0917
 5291TIP3    H137432   5.590  -0.049   2.377 -0.3627 -0.5808 -0.2014
 5291TIP3    H237433   5.600  -0.029   2.227  1.5006 -0.5527 -0.1029
 5292TIP3   OH237434   6.103   4.278   0.701  0.2638  0.0664 -0.1220
 5292TIP3    H137435   6.120   4.268   0.607  2.1570 -0.8044  0.2587
 5292TIP3    H237436   6.166   4.344   0.729  0.1882 -0.1818  0.6464
 5293TIP3   OH237437   0.109   1.805   1.720 -0.2498  0.0536 -0.3641
 5293TIP3    H137438   0.073   1.717   1.713  0.4990 -0.1989 -1.2668
 5293TIP3    H237439   0.043   1.861   1.679 -0.0328 -0.2961 -1.2159
 5294TIP3   OH237440   4.796   1.771   0.805 -0.0671 -0.4959 -0.7061
 5294TIP3    H137441   4.867   1.834   0.786  0.5122 -1.1732 -0.8316
 5294TIP3    H237442   4.792   1.768   0.900 -1.8696  1.6721 -0.6202
 5295TIP3   OH237443   6.253   6.049   0.793  0.6427  0.8691 -0.4169
 5295TIP3    H137444   6.346   6.046   0.814  0.4371 -0.3291  0.4251
 5295TIP3    H237445   6.231   5.958   0.771 -0.5776  0.9014  0.5864
 5296TIP3   OH237446   1.260   1.463   1.670  0.4507 -0.2640  0.6409
 5296TIP3    H137447   1.344   1.509   1.674  2.3141 -2.9492 -2.4949
 5296TIP3    H237448   1.253   1.420   1.755  1.0494  1.7802  1.8019
 5297TIP3   OH237449   6.621   1.055   1.243  0.5137 -0.5689  0.1322
 5297TIP3    H137450   6.537   1.042   1.287  0.3251 -1.2416 -0.3970
 5297TIP3    H237451   6.657   1.135   1.282 -1.3903  1.0246 -1.1770
 5298TIP3   OH237452   2.215   0.180   1.553 -0.2780  0.0468  0.1506
 5298TIP3    H137453   2.191   0.147   1.467 -0.4328 -0.0405  0.2284
 5298TIP3    H237454   2.285   0.121   1.582 -0.1955  0.1021  0.0684
 5299TIP3   OH237455   0.057   5.955   0.533 -0.3137  0.0739  0.2367
 5299TIP3    H137456   0.069   6.001   0.616 -1.2772  1.9164 -0.5892
 5299TIP3    H237457   0.119   5.996   0.473 -0.6011 -0.2765 -0.3153
 5300TIP3   OH237458   3.309   1.480   7.346 -0.3460 -0.0441  0.1505
 5300TIP3    H137459   3.239   1.428   7.304  0.9616 -0.5064 -1.5809
 5300TIP3    H237460   3.274   1.502   7.432 -1.1356 -3.5672  0.9121
 5301TIP3   OH237461   4.615   0.026   8.502 -0.3664 -0.0330 -0.3255
 5301TIP3    H137462   4.555   0.093   8.471  1.0046  0.5214 -1.9583
 5301TIP3    H237463   4.697   0.044   8.456  0.4579 -1.9938  0.2490
 5302TIP3   OH237464   5.639   4.606   1.102 -0.5762 -0.0905 -0.0592
 5302TIP3    H137465   5.689   4.630   1.180 -1.6293  1.0204  0.3018
 5302TIP3    H237466   5.627   4.688   1.055  0.0074 -0.7469 -1.3818
 5303TIP3   OH237467   2.707   1.015   0.841 -0.0489 -0.4854  0.3078
 5303TIP3    H137468   2.759   0.988   0.917  0.1394 -0.4655  0.1875
 5303TIP3    H237469   2.655   1.090   0.872 -0.0123 -0.5116  0.4314
 5304TIP3   OH237470   1.010   0.002   8.478  0.3399 -0.4525  0.6372
 5304TIP3    H137471   0.915  -0.010   8.476  0.0728  0.5351  3.3039
 5304TIP3    H237472   1.043  -0.076   8.523  0.4900  0.3038  1.8867
 5305TIP3   OH237473   2.531   3.476   8.620  0.3219 -0.0586  0.7450
 5305TIP3    H137474   2.612   3.438   8.655  1.4500 -1.0297 -2.4880
 5305TIP3    H237475   2.481   3.400   8.589 -0.9210  0.6730  0.9034
 5306TIP3   OH237476   4.039   5.570   0.395 -0.2621  0.6147 -0.0464
 5306TIP3    H137477   4.028   5.527   0.310 -0.7964 -0.2107  0.4268
 5306TIP3    H237478   4.133   5.589   0.401  0.6070 -3.2165  0.9690
 5307TIP3   OH237479   5.812   1.836   7.904  0.0266  0.5813 -0.1872
 5307TIP3    H137480   5.766   1.798   7.829  2.3491 -2.1797 -0.3776
 5307TIP3    H237481   5.744   1.848   7.970 -1.4140 -0.6680 -1.3726
 5308TIP3   OH237482   1.934   6.315   1.280  0.4833  0.1926  0.2435
 5308TIP3    H137483   1.853   6.275   1.313  0.0701  1.0205  0.2378
 5308TIP3    H237484   1.986   6.240   1.250 -0.0711 -0.3892  0.6968
 5309TIP3   OH237485   0.427   1.234   2.118  0.8415 -0.0151  0.3272
 5309TIP3    H137486   0.373   1.181   2.176 -1.0437  1.8396  0.3779
 5309TIP3    H237487   0.498   1.266   2.174  0.9794 -0.9560  0.7211
 5310TIP3   OH237488   0.652   4.525   1.111  0.0719 -0.0879 -0.3368
 5310TIP3    H137489   0.659   4.431   1.094  0.2637 -0.1488  0.0703
 5310TIP3    H237490   0.726   4.564   1.065  0.9432 -0.3186  0.8322
 5311TIP3   OH237491   5.276   5.040   1.255 -0.0611 -0.2841  0.2000
 5311TIP3    H137492   5.294   5.104   1.324  0.1709  1.6258 -1.5133
 5311TIP3    H237493   5.181   5.032   1.254 -0.0502 -0.5995  0.9453
 5312TIP3   OH237494   3.214   3.132   8.104  0.0332 -0.5419 -0.1772
 5312TIP3    H137495   3.276   3.159   8.172  0.8758 -1.2198 -0.6592
 5312TIP3    H237496   3.198   3.039   8.122 -1.0861 -0.3120  0.1106
 5313TIP3   OH237497   4.545   5.987   2.179  0.4145  0.3675 -0.6776
 5313TIP3    H137498   4.569   5.946   2.262 -0.4924 -0.8416 -0.9920
 5313TIP3    H237499   4.469   6.042   2.200 -0.2927 -0.5324 -0.8381
 5314TIP3   OH237500   4.570   3.191   1.794 -0.0255  0.2256  0.3800
 5314TIP3    H137501   4.489   3.153   1.760 -0.1446  0.2412  0.6398
 5314TIP3    H237502   4.612   3.120   1.842 -0.9154  0.7484  2.0321
 5315TIP3   OH237503   1.258   1.692   2.386  0.6812 -0.3966  0.7674
 5315TIP3    H137504   1.241   1.778   2.425 -0.0921 -0.4913  0.6675
 5315TIP3    H237505   1.287   1.638   2.460  0.1250 -0.3307  1.0408
 5316TIP3   OH237506   6.143   0.351   1.460 -0.5627  0.5420  0.0751
 5316TIP3    H137507   6.170   0.419   1.399  2.3275  0.2927  0.9143
 5316TIP3    H237508   6.142   0.270   1.409 -1.9542  0.8465 -0.4377
 5317TIP3   OH237509   3.419   4.169   7.589  0.3011  0.5597 -0.5159
 5317TIP3    H137510   3.385   4.086   7.555 -0.9544  0.9576 -0.2876
 5317TIP3    H237511   3.344   4.209   7.634  0.6474  2.1624 -1.2786
 5318TIP3   OH237512   3.830   5.152   0.702 -0.2875 -0.1912  0.2600
 5318TIP3    H137513   3.739   5.168   0.727 -0.2231  2.0397 -0.6857
 5318TIP3    H237514   3.860   5.236   0.665  2.2348 -0.7838  0.7712
 5319TIP3   OH237515   5.138   1.949   1.113  0.4252 -0.1745  0.0948
 5319TIP3    H137516   5.109   2.025   1.062  0.5932 -0.7294 -0.8450
 5319TIP3    H237517   5.105   1.966   1.202 -0.1075  0.6750 -0.2529
 5320TIP3   OH237518   6.017   5.845   0.071 -0.0323 -0.2392 -0.3247
 5320TIP3    H137519   6.072   5.802   0.137 -0.6321 -1.7615 -0.7764
 5320TIP3    H237520   5.929   5.809   0.086 -0.2913 -0.1674 -1.5744
 5321TIP3   OH237521   4.366   6.305   1.068 -0.6692 -0.2743 -0.0261
 5321TIP3    H137522   4.401   6.381   1.113 -1.4838 -0.5924  1.1818
 5321TIP3    H237523   4.344   6.337   0.980  1.0016  0.3371 -0.2528
 5322TIP3   OH237524   6.500   5.448   2.857  0.1639 -0.2266 -0.0091
 5322TIP3    H137525   6.504   5.376   2.920  0.7197 -1.6308 -1.5760
 5322TIP3    H237526   6.591   5.470   2.839  0.0518  2.5079  2.1278
 5323TIP3   OH237527   2.824   0.486   0.334  0.3313 -0.1679  0.6472
 5323TIP3    H137528   2.814   0.418   0.401 -1.0950 -0.9590 -0.3222
 5323TIP3    H237529   2.918   0.486   0.313  0.4465 -1.4169  1.1009
 5324TIP3   OH237530   0.475   0.329   1.946  0.3474 -0.3173  0.0998
 5324TIP3    H137531   0.514   0.347   2.032 -1.5943 -0.6358  1.1130
 5324TIP3    H237532   0.481   0.234   1.937  0.1050 -0.3335  0.1097
 5325TIP3   OH237533   1.953   4.458   0.282 -0.1785 -0.2049 -0.5100
 5325TIP3    H137534   1.867   4.474   0.321  1.0730  1.3894  1.8808
 5325TIP3    H237535   1.958   4.520   0.209 -1.6486 -1.5316 -1.8179
 5326TIP3   OH237536   3.558   0.853   7.391  0.1654  0.0457  0.2030
 5326TIP3    H137537   3.568   0.828   7.299  0.3428 -0.2182  0.2921
 5326TIP3    H237538   3.583   0.945   7.394  1.8875 -0.3838  0.2819
 5327TIP3   OH237539   1.930   3.348   1.354 -0.2505 -0.4952 -0.2983
 5327TIP3    H137540   1.885   3.313   1.431 -0.8037 -0.5504 -0.6468
 5327TIP3    H237541   1.903   3.291   1.282 -0.2660 -0.0301 -0.6619
 5328TIP3   OH237542   2.208   5.536   0.146  0.2678  0.1966  0.1267
 5328TIP3    H137543   2.189   5.610   0.204  0.7239  1.1795 -0.9412
 5328TIP3    H237544   2.123   5.491   0.136 -0.6096  2.0453 -1.2073
 5329TIP3   OH237545   1.049   5.143   1.920  0.4826  0.7556  0.1074
 5329TIP3    H137546   0.985   5.200   1.964  0.6543  0.1816  1.1163
 5329TIP3    H237547   0.996   5.088   1.862 -0.3317 -1.5042  2.7901
 5330TIP3   OH237548   2.032   5.512   1.232  0.3682 -0.1918 -0.1634
 5330TIP3    H137549   2.102   5.573   1.206 -0.1187  0.7613  0.6938
 5330TIP3    H237550   1.956   5.539   1.181  0.1113  0.0354  0.3251
 5331TIP3   OH237551   2.747   3.799   7.635 -0.3753  0.0306  0.2736
 5331TIP3    H137552   2.750   3.860   7.708  1.3158 -0.2574  0.4865
 5331TIP3    H237553   2.837   3.767   7.626 -0.8821 -1.2066 -0.8632
 5332TIP3   OH237554   1.108   6.485   7.500  0.0564 -0.0963  0.2070
 5332TIP3    H137555   1.064   6.408   7.465 -0.4125  0.3198 -0.1236
 5332TIP3    H237556   1.197   6.455   7.519 -0.4367 -1.0125  1.1297
 5333TIP3   OH237557   2.906   4.550   7.765  0.5168 -0.0450 -0.3700
 5333TIP3    H137558   2.815   4.579   7.761  0.7112  0.6906  0.3125
 5333TIP3    H237559   2.905   4.477   7.826  0.0234 -1.5620 -2.1050
 5334TIP3   OH237560   4.941   6.174   0.570 -0.6802  0.1354 -0.1327
 5334TIP3    H137561   5.009   6.239   0.584  0.3892 -0.8995 -0.3374
 5334TIP3    H237562   4.914   6.148   0.658  1.5655 -1.8161  0.0760
 5335TIP3   OH237563   3.203   2.583   1.454  0.0639 -0.3598  0.3349
 5335TIP3    H137564   3.230   2.497   1.421  0.8596 -0.1748  0.4662
 5335TIP3    H237565   3.142   2.616   1.388  0.7876 -0.4586 -0.4107
 5336TIP3   OH237566   2.828   1.977   1.502  0.0630  0.0037 -0.2655
 5336TIP3    H137567   2.829   1.962   1.596 -2.7764  0.7956 -0.0183
 5336TIP3    H237568   2.785   2.062   1.491 -1.1376 -0.7893 -2.3094
 5337TIP3   OH237569   4.747   5.395   0.706  0.2424  0.5006 -0.0541
 5337TIP3    H137570   4.689   5.470   0.713 -1.6353 -0.6636 -2.0147
 5337TIP3    H237571   4.728   5.343   0.785  0.0602  1.0693  0.2811
 5338TIP3   OH237572   3.925   4.306   1.996  0.1826  0.4818  0.1776
 5338TIP3    H137573   3.986   4.240   2.029  0.4790  0.8384  0.3554
 5338TIP3    H237574   3.864   4.257   1.941 -1.5265 -0.4558  2.7232
 5339TIP3   OH237575   1.850   4.813   1.523 -0.9781 -0.6501  0.1946
 5339TIP3    H137576   1.788   4.760   1.474 -0.8214 -1.0550  0.4317
 5339TIP3    H237577   1.929   4.760   1.527 -0.9085 -0.5128  0.6732
 5340TIP3   OH237578   6.812   0.447   0.552 -0.6857  0.6146  0.1923
 5340TIP3    H137579   6.843   0.505   0.621 -0.9351  1.0754 -0.0792
 5340TIP3    H237580   6.799   0.504   0.476  0.9180 -0.1068 -0.6688
 5341TIP3   OH237581   4.045   0.916   6.958 -0.3972 -0.3758 -0.1463
 5341TIP3    H137582   3.954   0.921   6.988 -0.7773 -1.4343 -1.0514
 5341TIP3    H237583   4.073   0.828   6.984 -0.4623 -1.0045 -2.0705
 5342TIP3   OH237584   6.750   6.497   7.200 -0.0703  0.1335  0.2816
 5342TIP3    H137585   6.660   6.502   7.166 -0.7048 -1.3809  1.6049
 5342TIP3    H237586   6.747   6.428   7.266  2.0384  0.2107  0.5297
 5343TIP3   OH237587   4.955   2.025   8.377  0.2725 -0.4141 -0.3586
 5343TIP3    H137588   4.860   2.032   8.368  0.4300  0.7108 -1.4374
 5343TIP3    H237589   4.989   2.106   8.338  1.5926  0.0665  1.6437
 5344TIP3   OH237590   3.786   5.904   8.315  0.6450 -0.0036  0.3688
 5344TIP3    H137591   3.745   5.923   8.400  1.5895  0.4379  0.7433
 5344TIP3    H237592   3.872   5.868   8.337  0.8937  0.1018 -0.3950
 5345TIP3   OH237593   5.308   5.030   7.922 -0.3721  0.1257  0.0832
 5345TIP3    H137594   5.234   4.972   7.939 -0.3507  0.1156  0.1433
 5345TIP3    H237595   5.269   5.107   7.880 -0.4390  0.1910  0.2657
 5346TIP3   OH237596   0.933   5.517   0.221  0.5541 -0.2419  0.4190
 5346TIP3    H137597   1.015   5.563   0.235  0.6099 -0.0253 -0.5595
 5346TIP3    H237598   0.922   5.462   0.299  1.0086  0.6346  1.1112
 5347TIP3   OH237599   3.777   4.608   8.643  0.4069 -0.2893 -0.0698
 5347TIP3    H137600   3.732   4.687   8.614  0.6969  0.1944  0.7609
 5347TIP3    H237601   3.710   4.539   8.638 -0.0291  0.1379 -0.1665
 5348TIP3   OH237602   3.642   6.730   1.298  0.1965  0.2292  0.6323
 5348TIP3    H137603   3.667   6.788   1.369  0.7557  1.0190 -0.1897
 5348TIP3    H237604   3.546   6.727   1.302  0.2327  0.0476  1.5713
 5349TIP3   OH237605   3.035   0.656   7.833 -0.2690 -0.0465 -0.2341
 5349TIP3    H137606   3.022   0.729   7.894 -0.8547 -0.3095 -0.0433
 5349TIP3    H237607   2.972   0.589   7.861 -0.5535 -0.1668 -1.1410
 5350TIP3   OH237608   6.102   0.751   7.463 -0.3595  0.3298  0.4248
 5350TIP3    H137609   6.142   0.710   7.539 -2.0927 -2.0664  0.1647
 5350TIP3    H237610   6.125   0.694   7.389 -1.3811  0.7828 -0.2703
 5351TIP3   OH237611   3.550   2.843   0.818  0.5983  0.5444  0.1891
 5351TIP3    H137612   3.563   2.776   0.885 -0.9921 -0.4034 -0.3988
 5351TIP3    H237613   3.621   2.906   0.833  0.9300 -0.2079  2.0487
 5352TIP3   OH237614   4.607   6.794   0.281  0.3803  0.1514  0.2803
 5352TIP3    H137615   4.605   6.818   0.188  0.3821  1.7834  0.6778
 5352TIP3    H237616   4.518   6.810   0.312  0.4531 -0.1180  0.6305
 5353TIP3   OH237617   4.938   5.151   2.693 -0.0291 -0.4719  0.2407
 5353TIP3    H137618   4.966   5.157   2.785 -1.4097 -0.3241  0.6659
 5353TIP3    H237619   5.013   5.184   2.644 -0.3695  2.5331  1.4888
 5354TIP3   OH237620   6.724   3.984   0.706  0.2087 -0.5153  0.6395
 5354TIP3    H137621   6.734   3.889   0.697  0.1102 -0.6250  1.6225
 5354TIP3    H237622   6.715   3.998   0.800  1.6889  0.6185  0.6406
 5355TIP3   OH237623   3.154   5.822   8.100  1.1159 -0.3674 -0.5517
 5355TIP3    H137624   3.128   5.914   8.091 -1.3483 -0.9307  0.1515
 5355TIP3    H237625   3.071   5.774   8.104  2.3119 -2.4224  1.2503
 5356TIP3   OH237626   5.477   3.328   7.894 -0.7125  0.7003  0.0268
 5356TIP3    H137627   5.437   3.389   7.832 -1.2051  1.1341  0.7618
 5356TIP3    H237628   5.429   3.341   7.975 -1.0624 -0.9124  0.1129
 5357TIP3   OH237629   6.622   4.123   1.674  0.2102 -0.0491 -0.1347
 5357TIP3    H137630   6.548   4.153   1.621 -0.8022 -0.2648  1.1256
 5357TIP3    H237631   6.597   4.036   1.704  1.0898 -0.2302  0.1070
 5358TIP3   OH237632   5.949   6.306   2.506 -0.2867 -0.0534 -0.1386
 5358TIP3    H137633   6.031   6.352   2.519 -0.2295  0.1230 -1.0732
 5358TIP3    H237634   5.907   6.306   2.592  1.2821 -1.3269  0.6729
 5359TIP3   OH237635   0.521   1.765   8.707 -0.0745  0.0661  0.6626
 5359TIP3    H137636   0.520   1.686   8.652 -0.9645 -0.1181  0.9346
 5359TIP3    H237637   0.497   1.836   8.649  1.4921  0.2921  0.2249
 5360TIP3   OH237638   0.089   4.936   0.446  0.0471  0.0929  0.5570
 5360TIP3    H137639   0.012   4.941   0.502  0.4391 -0.8554  1.2129
 5360TIP3    H237640   0.153   4.993   0.488  0.2571 -0.4225  0.9411
 5361TIP3   OH237641   2.059   5.300   0.621  0.4125  0.4413  0.1024
 5361TIP3    H137642   2.117   5.371   0.650  0.8125 -0.3069  1.2363
 5361TIP3    H237643   1.971   5.338   0.625  0.7455  1.3981 -1.0370
 5362TIP3   OH237644   3.900   5.996   1.901  0.3281  0.1255 -0.4152
 5362TIP3    H137645   3.907   5.951   1.817  0.2130  0.5414 -0.6449
 5362TIP3    H237646   3.929   5.930   1.965  2.8724  0.5727 -0.9909
 5363TIP3   OH237647   4.281   5.200   0.922 -0.0153 -0.1477  0.4900
 5363TIP3    H137648   4.374   5.204   0.900 -0.0445 -2.0909 -0.2414
 5363TIP3    H237649   4.270   5.113   0.961 -1.6498 -0.2415 -0.1088
 5364TIP3   OH237650   6.533   4.200   0.251 -0.1429 -0.2103 -0.8551
 5364TIP3    H137651   6.585   4.204   0.331  1.3521 -1.2227 -1.7174
 5364TIP3    H237652   6.517   4.291   0.228 -0.0492  0.0973  0.2522
 5365TIP3   OH237653   0.503   0.048   2.411 -0.1224  0.6058 -0.5725
 5365TIP3    H137654   0.494  -0.047   2.423 -0.4153  0.3950 -2.1945
 5365TIP3    H237655   0.518   0.082   2.499  1.9464 -1.1505 -0.1596
 5366TIP3   OH237656   6.700   1.316   0.922  0.3503 -0.2083 -0.2407
 5366TIP3    H137657   6.768   1.249   0.921  0.8650  0.2961  0.2337
 5366TIP3    H237658   6.620   1.268   0.945  0.3522 -0.9579 -1.7270
 5367TIP3   OH237659   4.675   4.907   7.115  0.8212  0.7345 -0.4649
 5367TIP3    H137660   4.719   4.859   7.185 -0.2603  0.0188 -0.2627
 5367TIP3    H237661   4.677   4.847   7.040  0.8854  1.0193 -0.6942
 5368TIP3   OH237662   0.348   2.935   3.278  0.4366 -0.0341 -0.2977
 5368TIP3    H137663   0.305   3.003   3.226  2.4677  0.3979 -1.5411
 5368TIP3    H237664   0.435   2.926   3.238  0.5376 -2.7808  0.3719
 5369TIP3   OH237665   3.042   6.263   2.148  0.0692 -0.3564 -0.1136
 5369TIP3    H137666   2.948   6.280   2.155  0.0068 -1.0900  0.9289
 5369TIP3    H237667   3.082   6.347   2.172 -0.3056  0.5159 -2.3011
 5370TIP3   OH237668   5.620   3.193   0.817  0.2236  0.1643  0.7630
 5370TIP3    H137669   5.621   3.287   0.837 -1.0819  0.1637  0.9179
 5370TIP3    H237670   5.552   3.183   0.751  1.4961 -0.4641 -0.5050
 5371TIP3   OH237671   2.517   4.932   0.736  0.4718  0.3614  0.0209
 5371TIP3    H137672   2.585   4.885   0.784 -1.3243 -0.8692  1.4927
 5371TIP3    H237673   2.456   4.963   0.803 -0.9834  0.4867 -1.2895
 5372TIP3   OH237674   6.250   3.273   2.938 -0.4819 -0.2309  0.2634
 5372TIP3    H137675   6.307   3.215   2.888  1.7362  2.9584 -1.2980
 5372TIP3    H237676   6.278   3.260   3.029 -0.1633 -1.6551 -0.0082
 5373TIP3   OH237677   2.083   5.510   7.947 -0.2087  0.1040 -0.2374
 5373TIP3    H137678   2.143   5.478   8.014  1.1734  1.9298 -0.5091
 5373TIP3    H237679   1.996   5.496   7.984  0.4958  1.0235  1.9574
 5374TIP3   OH237680   5.253   4.298   7.909  0.5883  0.1464  0.0891
 5374TIP3    H137681   5.286   4.234   7.971  0.8760  1.8638  1.8252
 5374TIP3    H237682   5.197   4.356   7.962 -0.8111  0.5068 -1.6778
 5375TIP3   OH237683   4.498   0.101   1.178  0.1745 -0.0124 -0.0792
 5375TIP3    H137684   4.542   0.114   1.095 -0.3681 -1.3151 -0.5988
 5375TIP3    H237685   4.560   0.051   1.231 -0.1196 -0.6318 -0.3104
 5376TIP3   OH237686   6.394   3.016   1.906  0.1627 -0.1876  0.0630
 5376TIP3    H137687   6.345   3.089   1.869  0.8485 -0.2251 -0.9993
 5376TIP3    H237688   6.458   2.994   1.837  0.5081 -1.2423  0.6990
 5377TIP3   OH237689   3.491   6.345   2.545 -0.2367  0.1758 -0.0729
 5377TIP3    H137690   3.569   6.354   2.491  0.2226 -1.4714  0.2825
 5377TIP3    H237691   3.512   6.392   2.626 -0.6404  1.9857 -0.9573
 5378TIP3   OH237692   1.697   0.233   7.022 -0.3678  0.1508 -0.2845
 5378TIP3    H137693   1.632   0.286   6.974 -1.6856  0.6932  1.9721
 5378TIP3    H237694   1.720   0.163   6.961 -4.0611 -0.8288 -0.7774
 5379TIP3   OH237695   2.293   2.581   7.409 -0.3367 -0.3046 -0.5557
 5379TIP3    H137696   2.376   2.610   7.372  0.0769  1.9514  1.8339
 5379TIP3    H237697   2.315   2.501   7.458  0.6427  0.6336  0.6072
 5380TIP3   OH237698   3.167   1.365   1.218 -0.1795 -0.2528 -0.1044
 5380TIP3    H137699   3.249   1.396   1.181  0.3238  0.1459  1.2925
 5380TIP3    H237700   3.101   1.429   1.190  0.1088 -0.1866 -0.6337
 5381TIP3   OH237701   1.251   1.360   0.681 -0.0835 -0.3104 -0.0592
 5381TIP3    H137702   1.217   1.393   0.764  0.8978  0.1761  0.1673
 5381TIP3    H237703   1.308   1.287   0.705  0.8089  0.3091 -0.2119
 5382TIP3   OH237704   6.389   5.059   1.940  0.0279 -0.0889  0.0329
 5382TIP3    H137705   6.331   5.110   1.997  1.5691  0.5907  1.0574
 5382TIP3    H237706   6.410   5.119   1.868 -0.5245 -0.3353 -0.3387
 5383TIP3   OH237707   4.465   2.107   7.829  0.0414 -0.4321  0.1927
 5383TIP3    H137708   4.462   2.193   7.870  1.3638 -0.1117 -0.3294
 5383TIP3    H237709   4.559   2.086   7.824 -0.2677 -2.2934  1.1053
 5384TIP3   OH237710   4.164   1.238   1.023  0.0482 -0.2556 -0.4280
 5384TIP3    H137711   4.119   1.157   1.047  1.1743 -0.2820  1.8988
 5384TIP3    H237712   4.246   1.235   1.073  0.4152  2.0057 -0.8041
 5385TIP3   OH237713   5.979   2.432   7.907  0.3702  0.5178 -0.1647
 5385TIP3    H137714   5.901   2.441   7.852 -0.9108 -0.6099  1.3581
 5385TIP3    H237715   6.033   2.368   7.862 -0.8077 -0.6320 -0.0282
 5386TIP3   OH237716   5.694   1.667   1.108 -0.3424 -0.0777 -0.6466
 5386TIP3    H137717   5.627   1.689   1.043 -1.3493  0.4587  0.5345
 5386TIP3    H237718   5.645   1.645   1.187  0.8564 -0.7067 -0.0581
 5387TIP3   OH237719   2.978   4.595   2.387 -0.1559 -0.0032 -0.3528
 5387TIP3    H137720   2.995   4.565   2.475  1.1898 -1.2164 -0.9924
 5387TIP3    H237721   3.044   4.663   2.371  0.4993 -0.7453 -0.8780
 5388TIP3   OH237722   3.018   6.548   1.795  0.2072 -0.1373 -0.5275
 5388TIP3    H137723   3.103   6.540   1.837 -0.0066 -3.0355 -0.4198
 5388TIP3    H237724   2.955   6.524   1.863 -0.4669 -0.6375 -1.3073
 5389TIP3   OH237725   5.482   0.591   0.451 -0.1484  0.3080  0.3455
 5389TIP3    H137726   5.542   0.519   0.429  0.7348  1.2526 -0.4576
 5389TIP3    H237727   5.466   0.635   0.368 -0.8440  0.9151  0.7902
 5390TIP3   OH237728   3.638   5.774   8.108  0.0146 -0.0337 -0.4709
 5390TIP3    H137729   3.691   5.815   8.177 -1.0496  1.6787 -0.6144
 5390TIP3    H237730   3.548   5.793   8.132 -0.4116 -0.0741 -1.9237
 5391TIP3   OH237731   5.432   0.374   0.161 -0.1094  0.0413 -0.2925
 5391TIP3    H137732   5.418   0.346   0.070 -0.5578 -0.0213 -0.2088
 5391TIP3    H237733   5.469   0.461   0.153 -1.8936  0.8340 -0.5445
 5392TIP3   OH237734   4.850   4.930   8.421 -0.0138 -0.0255 -0.6571
 5392TIP3    H137735   4.789   4.860   8.398 -0.9196  0.0232  1.3480
 5392TIP3    H237736   4.867   4.975   8.339 -1.3287 -1.1099 -1.5742
 5393TIP3   OH237737   0.963   2.154   7.653  0.4458  0.5565 -0.1705
 5393TIP3    H137738   1.019   2.121   7.583 -1.9534  0.1896 -2.0680
 5393TIP3    H237739   0.882   2.179   7.609 -0.3701  2.4968  2.2011
 5394TIP3   OH237740   2.664   5.060   0.055  0.0995 -0.7455 -0.0639
 5394TIP3    H137741   2.717   5.007  -0.004 -0.9981 -1.3202 -0.5604
 5394TIP3    H237742   2.610   4.996   0.102 -0.3457 -0.1542  0.2388
 5395TIP3   OH237743   1.845   6.514   1.954 -0.5296 -0.6807  0.2546
 5395TIP3    H137744   1.816   6.545   1.869  0.6210 -2.2878 -0.7629
 5395TIP3    H237745   1.941   6.518   1.950 -0.4569 -0.7802  1.4757
 5396TIP3   OH237746   1.023   2.948   0.741  0.0819  0.9082 -0.6172
 5396TIP3    H137747   0.942   2.975   0.698  0.1261 -0.2613 -1.4938
 5396TIP3    H237748   1.091   2.997   0.696  0.0395  0.3411 -1.3269
 5397TIP3   OH237749   2.029   2.591   8.208  0.3565  0.3846 -0.4803
 5397TIP3    H137750   2.018   2.650   8.134 -0.3915  1.1090  0.1758
 5397TIP3    H237751   1.948   2.602   8.259  1.2583  0.6849  0.9734
 5398TIP3   OH237752   2.165   3.319   6.983 -0.2828 -0.3543 -0.1600
 5398TIP3    H137753   2.178   3.353   6.894 -1.1961 -0.5666 -0.3878
 5398TIP3    H237754   2.072   3.332   7.000  0.0076  0.3070  1.0384
 5399TIP3   OH237755   0.090   2.545   1.816 -0.2431 -0.1807  0.2982
 5399TIP3    H137756   0.022   2.504   1.763 -0.7983  2.4613 -1.1990
 5399TIP3    H237757   0.067   2.525   1.907 -2.7515  0.2247 -0.2001
 5400TIP3   OH237758   5.498   6.412   2.195 -0.2232  0.4819  0.0246
 5400TIP3    H137759   5.492   6.388   2.103 -1.3397  1.5655 -0.2058
 5400TIP3    H237760   5.529   6.502   2.195 -0.5483  0.6019  0.6900
 5401TIP3   OH237761   0.134   1.353   0.309 -0.3304  0.8172 -0.6358
 5401TIP3    H137762   0.084   1.324   0.233 -0.8489 -2.2577  0.6899
 5401TIP3    H237763   0.068   1.392   0.367 -0.4460  0.5746 -0.6033
 5402TIP3   OH237764   5.873   0.253   1.382 -0.2337  0.2731  0.6765
 5402TIP3    H137765   5.917   0.335   1.359  0.8286 -0.7187 -1.0489
 5402TIP3    H237766   5.795   0.251   1.326  1.1296 -1.0611 -1.2913
 5403TIP3   OH237767   3.405   3.480   7.861  0.1644 -0.0471  0.6497
 5403TIP3    H137768   3.360   3.396   7.863 -2.7252  1.3625  2.2024
 5403TIP3    H237769   3.441   3.491   7.949  0.7529  0.2505  0.3821
 5404TIP3   OH237770   5.041   2.959   1.120 -0.4379 -0.3177 -0.3829
 5404TIP3    H137771   4.960   2.957   1.070  0.1671 -1.6167 -1.3786
 5404TIP3    H237772   5.046   2.873   1.162  0.0161  0.0559  0.3608
 5405TIP3   OH237773   5.441   6.126   8.547 -0.1430 -0.0103 -0.3233
 5405TIP3    H137774   5.477   6.125   8.636 -1.6763  0.8280  0.3378
 5405TIP3    H237775   5.503   6.179   8.497  0.2551  0.2913  0.4750
 5406TIP3   OH237776   2.735   6.315   0.626  0.1126  0.2249  0.2974
 5406TIP3    H137777   2.649   6.328   0.588 -0.3956  0.2450  1.4229
 5406TIP3    H237778   2.718   6.274   0.711  1.2640 -0.7303  0.1001
 5407TIP3   OH237779   6.121   6.436   7.865  0.2773 -0.2024  0.3683
 5407TIP3    H137780   6.044   6.409   7.815  0.4652 -1.4812  0.7347
 5407TIP3    H237781   6.152   6.515   7.820  0.8988 -1.7044 -2.0298
 5408TIP3   OH237782   4.822   3.038   0.984  0.6594 -0.0379 -0.1497
 5408TIP3    H137783   4.810   3.123   0.942  0.6219 -0.5579 -1.2353
 5408TIP3    H237784   4.807   2.975   0.914 -0.2868 -0.9736  0.8590
 5409TIP3   OH237785   6.261   0.247   2.133  0.1629 -0.1377  0.3849
 5409TIP3    H137786   6.299   0.316   2.078 -0.3619 -0.7244 -0.7341
 5409TIP3    H237787   6.200   0.200   2.076 -1.6490  0.2395  1.9055
 5410TIP3   OH237788   4.355   1.429   1.996  0.5076 -0.2833  0.6377
 5410TIP3    H137789   4.288   1.435   2.064 -1.2045 -0.8179 -0.8990
 5410TIP3    H237790   4.370   1.519   1.968  0.2000 -0.1901  0.7761
 5411TIP3   OH237791   5.620   6.083   7.589 -0.5010 -0.4706 -0.3790
 5411TIP3    H137792   5.577   6.047   7.667  1.1826  0.3045  0.9787
 5411TIP3    H237793   5.626   6.009   7.529  1.2395 -2.0506  1.6012
 5412TIP3   OH237794   4.099   2.080   0.673 -0.5940 -0.2399 -0.1360
 5412TIP3    H137795   4.171   2.141   0.660 -0.4423  0.3683  2.8129
 5412TIP3    H237796   4.042   2.124   0.736 -1.9638 -1.9862 -0.0859
 5413TIP3   OH237797   2.455   3.489   8.349 -0.0167 -0.2520  0.3929
 5413TIP3    H137798   2.478   3.511   8.439  1.5754 -0.5376  0.0859
 5413TIP3    H237799   2.500   3.556   8.296 -1.4151  0.2720 -0.1792
 5414TIP3   OH237800   2.060   4.534   6.835  0.0560 -0.3300  0.4539
 5414TIP3    H137801   2.037   4.449   6.796 -2.7795  1.0986 -1.3796
 5414TIP3    H237802   2.155   4.541   6.824 -0.1190 -1.4759 -3.5089
 5415TIP3   OH237803   6.164   2.115   8.680 -0.2228 -0.1622  0.1982
 5415TIP3    H137804   6.154   2.116   8.776 -1.0075 -1.2678  0.1526
 5415TIP3    H237805   6.198   2.201   8.659 -0.0347  0.1068  1.4805
 5416TIP3   OH237806   0.421   1.547   8.356  0.2135 -0.0711  0.1349
 5416TIP3    H137807   0.404   1.466   8.308  2.0470 -0.2490 -0.2881
 5416TIP3    H237808   0.377   1.615   8.305 -1.9194 -0.8357  0.8643
 5417TIP3   OH237809   0.060   5.812   8.205  0.5368  0.4057 -0.0883
 5417TIP3    H137810   0.040   5.902   8.233  0.9570  0.3314  0.4717
 5417TIP3    H237811   0.127   5.783   8.266 -1.9240 -1.4860  1.9029
 5418TIP3   OH237812   0.124   5.119   2.179 -0.4871 -0.7302  0.0607
 5418TIP3    H137813   0.059   5.108   2.248 -0.2470  1.7932  0.7919
 5418TIP3    H237814   0.208   5.127   2.224 -0.4718  2.2664 -0.2818
 5419TIP3   OH237815   4.900   3.669   7.772 -0.3570 -0.3852  0.3651
 5419TIP3    H137816   4.954   3.698   7.699 -1.0275  1.2596  0.4833
 5419TIP3    H237817   4.963   3.646   7.840  0.2485 -1.2067 -0.4628
 5420TIP3   OH237818   1.502   4.145   2.273 -0.1029  0.0260 -0.3840
 5420TIP3    H137819   1.420   4.194   2.270  0.3713  0.7984 -1.0279
 5420TIP3    H237820   1.560   4.199   2.326 -0.2440 -0.9092  0.7648
 5421TIP3   OH237821   6.292   1.885   8.632 -0.5713 -0.0154 -0.3258
 5421TIP3    H137822   6.288   1.867   8.538 -1.2753  1.1445 -0.5291
 5421TIP3    H237823   6.233   1.958   8.645  2.8657  2.9353  0.2927
 5422TIP3   OH237824   3.161   0.880   8.168  0.1372  0.0855 -0.1355
 5422TIP3    H137825   3.229   0.887   8.234 -1.0852  0.2234  1.1464
 5422TIP3    H237826   3.131   0.969   8.154 -0.8523 -0.1386  0.4808
 5423TIP3   OH237827   0.809   4.774   0.168  0.1199 -0.4417 -0.4597
 5423TIP3    H137828   0.755   4.780   0.089 -0.6163 -1.2941 -0.0345
 5423TIP3    H237829   0.845   4.685   0.166  2.1442  0.3315 -1.1199
 5424TIP3   OH237830   5.415   0.185   8.723  0.2905 -0.2399 -0.1036
 5424TIP3    H137831   5.442   0.097   8.749  3.4372  0.6623  0.1449
 5424TIP3    H237832   5.417   0.183   8.627  1.9786 -0.0890 -0.1091
 5425TIP3   OH237833   3.292   6.800   7.630  0.0831 -0.4151 -0.6101
 5425TIP3    H137834   3.341   6.878   7.657 -0.7003 -0.2143  0.3131
 5425TIP3    H237835   3.243   6.827   7.553 -1.2087  0.4499  0.4645
 5426TIP3   OH237836   3.522   5.558   7.615  0.6786 -0.3628  0.0426
 5426TIP3    H137837   3.459   5.490   7.593 -0.5936  0.0412  2.1403
 5426TIP3    H237838   3.573   5.571   7.535 -0.4474 -2.2456 -1.0463
 5427TIP3   OH237839   1.035   3.201   0.316  0.5124 -0.2691  0.2274
 5427TIP3    H137840   1.056   3.218   0.224 -1.4613  0.5155 -0.1440
 5427TIP3    H237841   1.051   3.108   0.328 -0.0038 -0.5692 -1.1813
 5428TIP3   OH237842   1.471   6.266   1.913 -0.5252 -0.4259 -0.4831
 5428TIP3    H137843   1.483   6.294   1.823  1.0543  1.9094  0.3588
 5428TIP3    H237844   1.558   6.237   1.941 -0.7015  0.0638  0.6477
 5429TIP3   OH237845   0.781   1.728   8.105  1.0027 -0.7945  0.4790
 5429TIP3    H137846   0.709   1.704   8.163 -1.8145 -1.0650 -2.8189
 5429TIP3    H237847   0.835   1.649   8.100  0.5736 -1.1860  1.6404
 5430TIP3   OH237848   3.135   3.312   7.355  0.0260  0.8269 -0.0557
 5430TIP3    H137849   3.203   3.253   7.387 -1.4006 -1.4264 -0.9407
 5430TIP3    H237850   3.141   3.388   7.412  3.0826  0.6295  0.0533
 5431TIP3   OH237851   4.541   3.167   0.577 -0.0928 -0.1082 -0.1283
 5431TIP3    H137852   4.579   3.089   0.616  1.2442  0.5884  0.0095
 5431TIP3    H237853   4.583   3.175   0.492  2.2865  2.1918  1.1081
 5432TIP3   OH237854   1.527   2.445   0.547  0.0493 -0.4853  0.4969
 5432TIP3    H137855   1.444   2.478   0.514  0.8898  0.3061 -0.9525
 5432TIP3    H237856   1.592   2.506   0.513  1.2371 -1.1297  1.5282
 5433TIP3   OH237857   1.026   6.432   1.493  0.0196  0.4739 -0.0556
 5433TIP3    H137858   1.008   6.405   1.583 -2.4475 -1.9662 -1.1067
 5433TIP3    H237859   0.999   6.523   1.489  2.6124  1.4659  2.2058
 5434TIP3   OH237860   4.930   3.349   2.593  0.3462 -0.0017 -0.3111
 5434TIP3    H137861   4.897   3.438   2.606  2.4043  0.6710  0.6156
 5434TIP3    H237862   5.014   3.360   2.550  0.1095 -1.5882 -1.2466
 5435TIP3   OH237863   0.715   5.913   7.694  0.5095 -0.1610 -0.3702
 5435TIP3    H137864   0.677   5.938   7.610 -0.0571  1.0523  0.2161
 5435TIP3    H237865   0.648   5.937   7.758  0.9389 -1.0536  0.4334
 5436TIP3   OH237866   1.410   3.563   0.009  0.0677 -0.0525 -0.0921
 5436TIP3    H137867   1.351   3.583  -0.064 -0.6785 -1.2069  0.1498
 5436TIP3    H237868   1.484   3.622  -0.003 -0.1546 -0.0284 -1.6337
 5437TIP3   OH237869   6.146   6.799   2.661 -0.1719 -0.1093 -0.4503
 5437TIP3    H137870   6.153   6.893   2.677  0.0659 -0.1480 -0.3206
 5437TIP3    H237871   6.070   6.772   2.713 -0.1733 -0.0081 -0.3992
 5438TIP3   OH237872   6.024   5.884   1.144 -0.0783 -0.5341 -0.0030
 5438TIP3    H137873   5.972   5.964   1.138 -0.0102 -0.5759 -2.0751
 5438TIP3    H237874   6.096   5.906   1.203 -0.2372  0.8522 -0.2933
 5439TIP3   OH237875   3.421   6.142   1.005  0.2082 -0.4212  0.3070
 5439TIP3    H137876   3.369   6.091   0.944 -0.7940 -0.7997  1.4326
 5439TIP3    H237877   3.487   6.080   1.038 -0.1123 -0.6032  0.6143
 5440TIP3   OH237878   5.859   1.203   1.721 -0.4282  0.0722 -0.0198
 5440TIP3    H137879   5.913   1.226   1.645 -0.1694  0.2564  0.2179
 5440TIP3    H237880   5.845   1.108   1.713  0.5840 -0.1211  0.3321
 5441TIP3   OH237881   5.162   6.533   8.322  0.1160  0.7769 -0.2203
 5441TIP3    H137882   5.226   6.514   8.254  0.7687  0.7201  0.3904
 5441TIP3    H237883   5.140   6.447   8.359 -0.6281  0.7550 -0.6938
 5442TIP3   OH237884   3.761   0.944   2.682  0.0528 -0.3207 -0.2440
 5442TIP3    H137885   3.766   0.932   2.777  0.3395 -0.2882 -0.2554
 5442TIP3    H237886   3.738   1.036   2.671  0.1027 -0.3038 -0.2081
 5443TIP3   OH237887   5.248   3.096   2.228 -0.0523  0.3210  0.0383
 5443TIP3    H137888   5.178   3.044   2.267 -0.2319  0.4992 -0.0462
 5443TIP3    H237889   5.296   3.034   2.173  0.9164 -0.2139  1.4353
 5444TIP3   OH237890   5.518   2.052   2.673 -0.2862  0.4857 -0.3364
 5444TIP3    H137891   5.479   2.025   2.757  1.0225 -0.1612  0.0781
 5444TIP3    H237892   5.530   2.147   2.682 -2.9308  0.9818 -0.9891
 5445TIP3   OH237893   4.543   4.546   2.523  0.3652  0.2974  0.2668
 5445TIP3    H137894   4.610   4.531   2.589  1.3263 -0.3967 -0.8421
 5445TIP3    H237895   4.495   4.463   2.519  2.2941 -0.8225 -2.0637
 5446TIP3   OH237896   4.174   0.336   8.022 -0.0454 -0.0294 -0.3447
 5446TIP3    H137897   4.159   0.249   8.058 -2.2047 -0.8377 -2.9326
 5446TIP3    H237898   4.088   0.366   7.992  0.6739  2.9109  0.1562
 5447TIP3   OH237899   3.291   3.529   2.183  0.0290  0.2027  0.2257
 5447TIP3    H137900   3.326   3.460   2.127 -2.5321 -1.0557  0.0773
 5447TIP3    H237901   3.231   3.578   2.127 -0.6950  0.4815  1.2265
 5448TIP3   OH237902   5.583   3.915   8.651  0.0432  0.3859  0.0598
 5448TIP3    H137903   5.512   3.977   8.631 -0.5383 -0.1078  0.5595
 5448TIP3    H237904   5.562   3.882   8.738  1.4054  0.9320  0.6156
 5449TIP3   OH237905   0.811   1.224   0.210  0.2365  0.1737 -0.3014
 5449TIP3    H137906   0.847   1.189   0.291 -0.4063 -2.0491 -0.9122
 5449TIP3    H237907   0.729   1.266   0.237  0.0533 -0.4950  0.2182
 5450TIP3   OH237908   4.433   0.594   8.642  1.0357  0.4615 -0.0862
 5450TIP3    H137909   4.387   0.510   8.643 -0.6162  1.3137  1.4582
 5450TIP3    H237910   4.494   0.587   8.568 -0.9961 -1.0540 -1.7544
 5451TIP3   OH237911   0.134   1.942   7.761  0.5905  0.1022  0.3544
 5451TIP3    H137912   0.129   1.989   7.677  1.4048  0.5584  0.5449
 5451TIP3    H237913   0.155   1.852   7.736 -1.0808 -0.2061 -0.0208
 5452TIP3   OH237914   5.446   3.971   7.858  0.6059  0.3461 -0.2265
 5452TIP3    H137915   5.383   3.927   7.801  1.3656  0.4345 -1.1577
 5452TIP3    H237916   5.444   3.921   7.939 -1.3978  0.9440  0.1602
 5453TIP3   OH237917   2.225   2.266   0.124 -0.2528 -0.3668 -0.3917
 5453TIP3    H137918   2.174   2.190   0.094 -0.5639 -0.3710  0.1328
 5453TIP3    H237919   2.314   2.249   0.093 -0.5087 -0.4929 -1.0857
 5454TIP3   OH237920   2.781   5.213   8.071  0.5663  1.0182 -0.0183
 5454TIP3    H137921   2.742   5.198   8.157  0.2681 -0.9228 -0.4488
 5454TIP3    H237922   2.858   5.268   8.089 -2.3535  5.3474  0.8343
 5455TIP3   OH237923   6.799   3.992   2.364  0.2823  0.0895  0.0626
 5455TIP3    H137924   6.804   4.012   2.457  1.2990 -1.0776  0.2849
 5455TIP3    H237925   6.853   4.059   2.322  0.4150  0.1867  0.3883
 5456TIP3   OH237926   0.561   6.766   0.317  0.1877  0.1221 -0.4169
 5456TIP3    H137927   0.511   6.846   0.333 -0.6415 -0.4791  0.0843
 5456TIP3    H237928   0.567   6.724   0.403 -0.6037 -1.0392 -0.9032
 5457TIP3   OH237929   5.679   1.711   7.720  0.3988 -0.1364  0.2213
 5457TIP3    H137930   5.713   1.736   7.634 -1.3698  2.3119  0.1241
 5457TIP3    H237931   5.711   1.622   7.733  1.0518 -0.4714 -2.7893
 5458TIP3   OH237932   6.443   6.493   7.972  0.0900  0.1632 -0.0035
 5458TIP3    H137933   6.462   6.494   7.879  0.8742  1.4759  0.1391
 5458TIP3    H237934   6.400   6.577   7.989 -2.9926 -1.3263  0.3080
 5459TIP3   OH237935   3.421   3.891   1.928 -0.0285 -0.1532 -0.3377
 5459TIP3    H137936   3.427   3.977   1.971  0.7266 -0.8017  0.9385
 5459TIP3    H237937   3.359   3.903   1.857  0.5963  1.6296 -0.6226
 5460TIP3   OH237938   4.907   2.387   6.641 -0.1093 -0.2423  0.5213
 5460TIP3    H137939   4.955   2.454   6.592 -0.7644 -0.0340  0.1610
 5460TIP3    H237940   4.929   2.305   6.597 -0.0814 -0.1499  0.3620
 5461TIP3   OH237941   4.271   4.004   0.286 -0.2577 -0.1701  0.0448
 5461TIP3    H137942   4.205   4.010   0.354 -1.5503  1.7354 -1.2794
 5461TIP3    H237943   4.345   4.054   0.320 -0.3611 -0.4045  0.6129
 5462TIP3   OH237944   3.778   3.788   8.731 -0.4671  0.0527 -0.1232
 5462TIP3    H137945   3.689   3.754   8.742 -0.0581 -1.7611 -1.8744
 5462TIP3    H237946   3.821   3.767   8.814 -2.2689  3.4464  1.9387
 5463TIP3   OH237947   1.040   5.587   1.061 -0.1533 -0.4219  0.8841
 5463TIP3    H137948   0.978   5.514   1.057  1.1233 -1.6025  1.8061
 5463TIP3    H237949   1.070   5.587   1.152  1.1861  0.1218  0.4641
 5464TIP3   OH237950   5.652   2.707   0.545 -0.6246  0.0635 -0.0205
 5464TIP3    H137951   5.594   2.743   0.613  0.9863 -2.0383  2.6869
 5464TIP3    H237952   5.739   2.710   0.584 -0.0594 -4.4262 -0.4256
 5465TIP3   OH237953   0.318   5.500   0.169 -0.3332  0.4295  0.0160
 5465TIP3    H137954   0.410   5.477   0.161 -0.0274  1.4373  0.5368
 5465TIP3    H237955   0.302   5.505   0.263 -1.3130 -1.2122 -0.0286
 5466TIP3   OH237956   2.648   5.654   0.701 -0.1977  0.4216  0.2522
 5466TIP3    H137957   2.653   5.558   0.692 -0.9414  0.3922  0.0873
 5466TIP3    H237958   2.689   5.688   0.622 -0.3917  0.2368  0.0725
 5467TIP3   OH237959   2.754   5.228   8.346  0.5105 -0.0126  0.2280
 5467TIP3    H137960   2.681   5.267   8.395 -1.3235 -3.4346  0.4766
 5467TIP3    H237961   2.814   5.197   8.414  1.1401  0.8371  0.0752
 5468TIP3   OH237962   1.786   3.686   7.720  0.6513  0.1664  0.4488
 5468TIP3    H137963   1.697   3.702   7.753  0.7199  0.4406  0.5067
 5468TIP3    H237964   1.785   3.723   7.631  0.9560  0.9527  0.7631
 5469TIP3   OH237965   6.015   4.293   0.180  0.0992 -0.3885  0.0030
 5469TIP3    H137966   5.936   4.252   0.144 -0.0519 -1.1232  1.1322
 5469TIP3    H237967   6.078   4.291   0.108 -0.5259 -0.8736 -0.5439
 5470TIP3   OH237968   6.686   1.300   1.350 -0.0614  0.3340 -0.2947
 5470TIP3    H137969   6.742   1.289   1.427 -1.9709  0.8344  1.2248
 5470TIP3    H237970   6.680   1.395   1.339  0.4178  0.2657 -1.2616
 5471TIP3   OH237971   2.039   1.736   0.500 -0.2365  0.4933 -0.3241
 5471TIP3    H137972   2.114   1.796   0.498 -0.7133  1.1407  0.5896
 5471TIP3    H237973   2.068   1.664   0.556 -0.7522  1.4222  1.2148
 5472TIP3   OH237974   4.855   2.191   1.747 -0.3302  0.3736 -0.0791
 5472TIP3    H137975   4.767   2.185   1.711 -1.5992  1.4876  2.5970
 5472TIP3    H237976   4.856   2.272   1.797  1.9264 -0.0855  0.7693
 5473TIP3   OH237977   5.873   0.131   0.526  1.1732 -0.2956  0.3682
 5473TIP3    H137978   5.870   0.153   0.619 -1.4808  2.1218 -0.1296
 5473TIP3    H237979   5.790   0.085   0.510  0.7599  0.8637 -1.0499
 5474TIP3   OH237980   2.732   5.539   1.237 -0.4589 -0.3878 -0.1465
 5474TIP3    H137981   2.640   5.512   1.238 -1.3194  1.9104 -2.8662
 5474TIP3    H237982   2.754   5.547   1.144  3.1345 -2.5327  0.3253
 5475TIP3   OH237983   3.305   3.296   6.931 -0.5105  0.4252  0.2838
 5475TIP3    H137984   3.352   3.281   6.849 -1.7800 -0.6962 -0.3012
 5475TIP3    H237985   3.321   3.388   6.952  1.8312  0.1173  0.1132
 5476TIP3   OH237986   4.937   2.869   0.668 -0.1882  0.3106 -0.6234
 5476TIP3    H137987   4.951   2.835   0.580 -1.7266 -0.0664 -0.7493
 5476TIP3    H237988   4.847   2.902   0.667 -0.3241  0.0544  0.8768
 5477TIP3   OH237989   1.378   6.116   1.063 -0.3958 -0.2719 -0.5928
 5477TIP3    H137990   1.351   6.206   1.046  3.2235  1.0508 -0.1255
 5477TIP3    H237991   1.368   6.072   0.978 -1.9711  0.5678 -0.8865
 5478TIP3   OH237992   4.952   4.452   2.482  0.3926 -0.2734 -0.2076
 5478TIP3    H137993   4.992   4.507   2.550  0.3189  0.8681 -1.0516
 5478TIP3    H237994   4.994   4.367   2.493  2.1702  0.5436 -0.2600
 5479TIP3   OH237995   2.123   2.530   0.638 -0.2491 -0.3940  0.8998
 5479TIP3    H137996   2.105   2.448   0.683  2.4147 -0.7598  1.4486
 5479TIP3    H237997   2.213   2.521   0.606 -1.6965  0.0928 -4.0411
 5480TIP3   OH237998   4.257   0.939   7.805  0.0414 -0.3838  0.1674
 5480TIP3    H137999   4.265   1.010   7.869  1.3034 -1.5273  1.3254
 5480TIP3    H238000   4.225   0.983   7.725  1.6806  1.6590  0.5376
 5481TIP3   OH238001   1.570   0.812   7.726  0.1714 -0.6420 -0.1036
 5481TIP3    H138002   1.538   0.820   7.636  0.5092 -0.3490 -0.1991
 5481TIP3    H238003   1.498   0.844   7.780  0.5806  0.7976 -0.3543
 5482TIP3   OH238004   1.827   5.898   0.655  0.3438  0.0085 -0.6023
 5482TIP3    H138005   1.821   5.818   0.708 -1.1187  0.7938  0.4804
 5482TIP3    H238006   1.844   5.866   0.566  1.1782 -1.4292  0.0321
 5483TIP3   OH238007   6.635   6.361   8.578 -0.5469  0.3764  0.0193
 5483TIP3    H138008   6.700   6.416   8.536 -2.6184  1.2278 -2.3329
 5483TIP3    H238009   6.614   6.294   8.513 -2.3426  0.4337  0.4748
 5484TIP3   OH238010   4.221   0.783   7.401 -0.2665 -1.0071 -0.7521
 5484TIP3    H138011   4.197   0.691   7.393  1.2531 -1.4181 -0.7631
 5484TIP3    H238012   4.307   0.790   7.361 -0.0773  0.3051 -0.1906
 5485TIP3   OH238013   3.061   3.362   0.554 -0.7557  0.0542 -0.1851
 5485TIP3    H138014   3.006   3.438   0.535  1.2656  1.6964  0.2011
 5485TIP3    H238015   3.150   3.396   0.555  0.1371 -2.1014  1.2397
 5486TIP3   OH238016   2.723   4.859   0.889  0.5735  0.4188 -0.5726
 5486TIP3    H138017   2.778   4.917   0.942  1.4963 -0.4392 -0.5433
 5486TIP3    H238018   2.728   4.774   0.934 -1.0251  0.3797 -0.4201
 5487TIP3   OH238019   4.774   2.030   0.632 -0.3592 -0.1170 -0.2205
 5487TIP3    H138020   4.862   2.000   0.656  0.2998 -0.2193 -2.5369
 5487TIP3    H238021   4.715   1.973   0.682  0.8497  0.1156  1.5625
 5488TIP3   OH238022   4.032   0.487   8.528 -0.1004  0.6392 -0.0959
 5488TIP3    H138023   4.011   0.526   8.444  1.6440  0.2936 -0.7458
 5488TIP3    H238024   4.004   0.396   8.520 -3.8030  1.4868  1.2784
 5489TIP3   OH238025   0.809   5.043   8.745  0.0879 -0.2295 -0.5126
 5489TIP3    H138026   0.721   5.021   8.713 -1.0053  1.4316  1.0961
 5489TIP3    H238027   0.814   5.002   8.831  1.0821 -0.6979 -0.7896
 5490TIP3   OH238028   4.897   6.745   1.543 -0.7132  0.8963 -0.4052
 5490TIP3    H138029   4.990   6.726   1.525 -0.5364  0.1777  1.0905
 5490TIP3    H238030   4.889   6.839   1.529  0.4690  1.1309  0.2943
 5491TIP3   OH238031   5.833   1.399   2.431 -0.1519 -0.8049 -0.0463
 5491TIP3    H138032   5.825   1.453   2.510 -1.0455  0.4961 -0.9741
 5491TIP3    H238033   5.889   1.326   2.457  0.5883  0.2421  1.4524
 5492TIP3   OH238034   2.541   0.192   2.505  0.2027  0.4271 -0.1337
 5492TIP3    H138035   2.596   0.186   2.583  0.2705  1.4904 -0.0921
 5492TIP3    H238036   2.576   0.266   2.456  0.8574 -0.8726 -1.7354
 5493TIP3   OH238037   0.590   3.311   3.011 -0.9916  0.0012 -0.8396
 5493TIP3    H138038   0.658   3.307   3.077  0.1364 -1.3585 -2.0288
 5493TIP3    H238039   0.508   3.300   3.060 -0.1798 -1.1955  0.3219
 5494TIP3   OH238040   6.618   2.451   2.946  0.0112 -0.1996  0.3247
 5494TIP3    H138041   6.676   2.517   2.983 -1.5068  0.7350  1.1738
 5494TIP3    H238042   6.624   2.377   3.005  0.5081 -0.1871  0.2865
 5495TIP3   OH238043   2.524   2.423   7.508 -0.1481 -0.1650 -0.6921
 5495TIP3    H138044   2.568   2.472   7.439  1.5029  0.5443  0.7882
 5495TIP3    H238045   2.584   2.352   7.529 -0.9182 -0.7432 -0.3882
 5496TIP3   OH238046   1.946   0.934   0.697 -0.2688  0.4494 -0.6494
 5496TIP3    H138047   1.933   0.841   0.714  0.1550  0.3164 -1.0178
 5496TIP3    H238048   1.955   0.939   0.602 -1.8755  1.0742 -0.7893
 5497TIP3   OH238049   3.053   3.380   8.536  0.3632  0.4239 -0.2111
 5497TIP3    H138050   3.023   3.453   8.481 -0.9902 -0.4195 -0.6413
 5497TIP3    H238051   2.973   3.332   8.557  1.1926 -0.7536  0.3379
 5498TIP3   OH238052   0.272   0.521   1.150  0.2918  0.0354 -0.1738
 5498TIP3    H138053   0.286   0.464   1.225  3.1605  0.5260 -0.2440
 5498TIP3    H238054   0.301   0.608   1.180  0.6029  0.4325 -1.5435
 5499TIP3   OH238055   4.891   4.799   2.084  0.4242 -0.4768  0.1276
 5499TIP3    H138056   4.961   4.764   2.138  2.5559  1.0446 -1.4662
 5499TIP3    H238057   4.833   4.845   2.145  2.5682  0.9069  1.2248
 5500TIP3   OH238058   4.433   0.853   1.248  0.1610  0.0489  0.4127
 5500TIP3    H138059   4.435   0.830   1.155 -0.9927  0.0136  0.3852
 5500TIP3    H238060   4.395   0.940   1.251  0.5828  0.2268  0.8326
 5501TIP3   OH238061   0.477   1.038   7.986  0.1625 -0.1958 -0.8538
 5501TIP3    H138062   0.444   0.996   8.066 -1.5399 -1.6866 -2.2629
 5501TIP3    H238063   0.483   1.131   8.009 -0.8233 -0.5036  0.8269
 5502TIP3   OH238064   5.357   3.979   2.620 -0.2146 -0.5988 -0.0529
 5502TIP3    H138065   5.335   4.071   2.603 -2.3403 -1.0673 -0.0946
 5502TIP3    H238066   5.416   3.982   2.695  0.3298  0.8257 -0.4968
 5503TIP3   OH238067   3.260   3.750   2.357 -0.0663  0.2269  0.2844
 5503TIP3    H138068   3.294   3.666   2.326  1.1650  0.9882 -0.4910
 5503TIP3    H238069   3.222   3.730   2.443  0.9353 -0.9724  0.4833
 5504TIP3   OH238070   4.842   2.419   0.567  0.4812 -0.4060 -0.2472
 5504TIP3    H138071   4.826   2.356   0.496  1.1103  0.2078 -0.9601
 5504TIP3    H238072   4.902   2.482   0.528  0.7591 -0.0031  0.8225
 5505TIP3   OH238073   1.556   0.891   1.404  0.0953 -0.1996 -0.3328
 5505TIP3    H138074   1.508   0.974   1.401 -1.7745 -1.2593 -1.7681
 5505TIP3    H238075   1.609   0.898   1.484 -1.3140  1.6677  0.5359
 5506TIP3   OH238076   4.736   6.288   0.029 -0.0078 -0.1520  0.1084
 5506TIP3    H138077   4.748   6.196   0.006 -0.1425 -0.2226  0.3149
 5506TIP3    H238078   4.737   6.334  -0.055 -0.5650 -0.4128 -0.0458
 5507TIP3   OH238079   2.501   2.316   6.789 -0.5014  0.2941  0.4206
 5507TIP3    H138080   2.558   2.392   6.780  0.1780 -0.3451 -1.0387
 5507TIP3    H238081   2.557   2.248   6.828 -0.0934 -0.4364 -1.3196
 5508TIP3   OH238082   3.232   2.706   8.430 -0.2836  1.1230 -0.3856
 5508TIP3    H138083   3.239   2.742   8.518 -1.0246  1.8896 -0.6311
 5508TIP3    H238084   3.191   2.620   8.443 -0.7019  1.3765 -0.0163
 5509TIP3   OH238085   2.887   0.122   8.389 -0.3580  0.3910 -0.4008
 5509TIP3    H138086   2.796   0.151   8.386 -0.0356  1.6062  0.5680
 5509TIP3    H238087   2.927   0.178   8.456  0.9657 -0.5024 -0.4185
 5510TIP3   OH238088   4.054   2.950   1.748 -0.2246 -0.2490 -0.6425
 5510TIP3    H138089   4.006   3.027   1.717 -1.7681 -0.8290  0.1904
 5510TIP3    H238090   4.078   2.903   1.669  0.9563  1.1855 -1.1766
 5511TIP3   OH238091   3.280   3.126   2.189 -0.5940  0.1480 -0.0001
 5511TIP3    H138092   3.324   3.178   2.121 -1.0760 -0.1683 -0.5658
 5511TIP3    H238093   3.350   3.099   2.248 -0.1575  0.3877 -0.3994
 5512TIP3   OH238094   6.731   5.020   7.894 -0.6965 -0.1306 -0.0729
 5512TIP3    H138095   6.790   5.092   7.916 -0.9803 -0.2963  1.3768
 5512TIP3    H238096   6.692   4.995   7.978 -0.6475 -1.9452 -0.5453
 5513TIP3   OH238097   5.510   4.270   0.192  0.7924  0.1166  0.3062
 5513TIP3    H138098   5.499   4.175   0.198 -0.5335  0.1873 -0.6851
 5513TIP3    H238099   5.532   4.296   0.281 -0.7690 -0.8951  1.0379
 5514TIP3   OH238100   0.215   4.938   0.029 -0.2853 -0.0815  0.6032
 5514TIP3    H138101   0.212   4.961  -0.064 -2.5931 -0.7768  0.4512
 5514TIP3    H238102   0.298   4.974   0.059  0.0565  1.0745 -1.4930
 5515TIP3   OH238103   1.964   6.763   1.525  0.0152 -0.2312 -0.2257
 5515TIP3    H138104   2.020   6.829   1.567 -1.3129  0.1123  1.1228
 5515TIP3    H238105   1.925   6.809   1.451  0.4701 -0.0527 -0.3577
 5516TIP3   OH238106   0.545   6.364   0.764  0.0250 -0.1983  0.3333
 5516TIP3    H138107   0.479   6.415   0.716  0.1810  0.0459  0.3785
 5516TIP3    H238108   0.506   6.348   0.850 -0.7205 -1.5717 -0.2180
 5517TIP3   OH238109   3.478   2.993   8.549  0.4437  0.1229 -0.1798
 5517TIP3    H138110   3.550   3.003   8.610  0.2265 -3.2383  0.8329
 5517TIP3    H238111   3.517   2.948   8.474 -0.1768  0.3049 -0.6180
 5518TIP3   OH238112   0.835   0.114   2.117 -0.4757 -0.2961 -0.4533
 5518TIP3    H138113   0.881   0.041   2.158  0.1759 -0.8501 -2.1018
 5518TIP3    H238114   0.743   0.100   2.139 -0.2056 -0.8402  0.3899
 5519TIP3   OH238115   3.838   0.211   1.769 -0.1862 -0.1309 -0.0597
 5519TIP3    H138116   3.864   0.182   1.856 -1.4392 -0.1610  0.3292
 5519TIP3    H238117   3.914   0.192   1.714  1.3244  1.5287  1.3339
 5520TIP3   OH238118   5.346   2.023   2.883 -0.3464  0.6758 -0.0535
 5520TIP3    H138119   5.263   2.008   2.926 -1.5903  1.0705 -2.1704
 5520TIP3    H238120   5.386   2.096   2.931 -1.0657  0.3011  1.1495
 5521TIP3   OH238121   3.932   5.349   2.186  0.0275 -1.0116  0.0851
 5521TIP3    H138122   4.019   5.313   2.169  0.4738  0.5417 -1.1470
 5521TIP3    H238123   3.948   5.421   2.248 -0.1054  0.3144 -1.3545
 5522TIP3   OH238124   3.576   6.180   0.190  0.7908  0.2422 -0.3817
 5522TIP3    H138125   3.582   6.092   0.151  0.5418 -0.1953  0.5375
 5522TIP3    H238126   3.547   6.236   0.118  2.3121 -0.1543 -1.3400
 5523TIP3   OH238127   6.243   6.788   1.957 -0.2016 -0.2183 -0.3536
 5523TIP3    H138128   6.195   6.738   2.023 -0.3610 -0.9597 -1.0186
 5523TIP3    H238129   6.200   6.874   1.957  1.6935  0.8968  2.6157
 5524TIP3   OH238130   5.033   2.067   1.891  0.7727  0.3782  0.0165
 5524TIP3    H138131   4.994   2.054   1.978  0.1592 -0.3550 -0.3569
 5524TIP3    H238132   4.962   2.103   1.839 -0.3711 -3.5035 -1.4194
 5525TIP3   OH238133   3.627   3.643   6.985  0.1158  0.3005  0.0215
 5525TIP3    H138134   3.663   3.632   7.073  0.1653 -1.5049 -0.1879
 5525TIP3    H238135   3.698   3.683   6.934 -0.6160  3.4710  1.2414
 5526TIP3   OH238136   2.089   5.825   8.597 -0.5708  0.0083  0.6381
 5526TIP3    H138137   2.122   5.862   8.679  1.8784  0.2475 -0.3556
 5526TIP3    H238138   2.062   5.900   8.546  0.5539  0.1268  0.1872
 5527TIP3   OH238139   4.463   1.556   6.845  0.3777 -0.1049  0.6556
 5527TIP3    H138140   4.553   1.569   6.814  0.0721  2.0062  0.5029
 5527TIP3    H238141   4.447   1.630   6.903 -0.6095 -1.5572  2.3316
 5528TIP3   OH238142   5.386   0.181   2.471 -0.0665  0.5860  0.2082
 5528TIP3    H138143   5.337   0.116   2.522 -1.2510  0.3486 -1.1647
 5528TIP3    H238144   5.435   0.128   2.407  0.4763  0.9428  0.3228
 5529TIP3   OH238145   2.908   0.687   8.677  0.0640  0.1505  0.1457
 5529TIP3    H138146   2.868   0.729   8.601  0.9066 -0.3498 -0.5969
 5529TIP3    H238147   2.919   0.758   8.740  0.8210  0.9215 -0.8213
 5530TIP3   OH238148   2.001   5.543   8.740  0.3453 -0.1745  0.7246
 5530TIP3    H138149   2.085   5.586   8.723 -0.1435  0.4294 -0.3090
 5530TIP3    H238150   2.010   5.455   8.703  0.4974 -0.0685  0.5069
 5531TIP3   OH238151   6.195   1.683   2.225  0.2049  0.4321 -0.6056
 5531TIP3    H138152   6.161   1.600   2.259 -0.7362  1.8696  2.1850
 5531TIP3    H238153   6.281   1.692   2.267 -0.1979  1.4200  0.0049
 5532TIP3   OH238154   5.225   1.692   1.019  0.1019  0.1936  0.2513
 5532TIP3    H138155   5.218   1.700   0.924  0.1216  1.6702  0.3513
 5532TIP3    H238156   5.191   1.776   1.052  0.1350 -0.2900  1.5409
 5533TIP3   OH238157   6.716   1.693   0.747 -0.6862  0.1385 -0.0943
 5533TIP3    H138158   6.687   1.623   0.805  1.0518 -0.9683 -0.4722
 5533TIP3    H238159   6.764   1.753   0.804 -1.1441  0.3864  0.0303
 5534TIP3   OH238160   0.785   1.572   0.855 -0.0950 -0.1167  0.1913
 5534TIP3    H138161   0.693   1.580   0.877  0.4693  0.2203  2.7289
 5534TIP3    H238162   0.788   1.578   0.759 -2.3913  3.1131  0.1566
 5535TIP3   OH238163   4.841   0.039   7.965  0.2555 -0.4513 -0.2799
 5535TIP3    H138164   4.842   0.134   7.970  1.1141 -0.4804  0.2097
 5535TIP3    H238165   4.798   0.020   7.881  0.0383  0.3572 -0.3583
 5536TIP3   OH238166   1.310   2.077   7.167 -0.4814  0.1264 -0.1998
 5536TIP3    H138167   1.369   2.151   7.171  0.6167 -0.7274 -0.1507
 5536TIP3    H238168   1.346   2.014   7.229 -1.9181 -0.0938  0.4694
 5537TIP3   OH238169   3.941   4.910   0.630  0.2220 -0.0382 -0.1231
 5537TIP3    H138170   3.957   4.859   0.710  2.1722  0.6586 -0.0161
 5537TIP3    H238171   3.883   4.980   0.658  1.4502  0.6158  0.9032
 5538TIP3   OH238172   2.332   3.848   0.774  0.1708 -0.3028 -0.1235
 5538TIP3    H138173   2.386   3.773   0.798  0.0818 -0.9707 -1.9220
 5538TIP3    H238174   2.330   3.902   0.853  0.3227 -2.1203  1.1873
 5539TIP3   OH238175   3.228   0.835   0.019 -0.3278  0.4912  0.0812
 5539TIP3    H138176   3.136   0.823   0.042 -0.2212 -2.0869 -0.4848
 5539TIP3    H238177   3.277   0.799   0.093  0.2028  0.9802 -0.0225
 5540TIP3   OH238178   4.826   1.112   0.841 -0.3960  0.4020 -0.0758
 5540TIP3    H138179   4.739   1.153   0.836 -0.5845  0.0237  0.0977
 5540TIP3    H238180   4.827   1.049   0.769 -0.0920  0.7326 -0.3636
 5541TIP3   OH238181   4.211   5.384   1.641 -0.3270 -0.0032  0.3480
 5541TIP3    H138182   4.229   5.477   1.648  0.8901 -0.1326 -0.7746
 5541TIP3    H238183   4.205   5.368   1.547 -1.7045 -0.8596  0.5502
 5542TIP3   OH238184   3.075   1.002   1.071  0.2792  0.1010 -0.2400
 5542TIP3    H138185   3.131   1.027   0.997  1.6654  0.2625  0.8366
 5542TIP3    H238186   3.133   1.002   1.147 -1.1866  0.2666  0.9246
 5543TIP3   OH238187   3.376   0.462   7.855 -0.2254 -0.1226  0.1509
 5543TIP3    H138188   3.291   0.493   7.886  0.1011  0.8179  0.1274
 5543TIP3    H238189   3.390   0.507   7.772  0.5284  0.1280  0.4066
 5544TIP3   OH238190   5.425   3.888   1.989  0.3124 -0.2076  0.5603
 5544TIP3    H138191   5.441   3.870   1.896  1.1693 -2.0916  1.0153
 5544TIP3    H238192   5.367   3.817   2.017  0.0182  0.3780  1.4428
 5545TIP3   OH238193   6.130   3.492   1.263  0.4789 -0.4622 -0.4320
 5545TIP3    H138194   6.126   3.537   1.348 -2.2195  2.0812 -1.7144
 5545TIP3    H238195   6.063   3.424   1.269  0.1939 -0.1928 -0.5794
 5546TIP3   OH238196   6.025   0.532   8.173  0.1521 -0.0463 -0.2739
 5546TIP3    H138197   6.030   0.493   8.260 -0.3922  0.8317  0.1596
 5546TIP3    H238198   5.949   0.589   8.176  1.2489  1.5187 -0.6917
 5547TIP3   OH238199   3.239   1.729   1.359  0.0841  0.0896  0.5826
 5547TIP3    H138200   3.320   1.758   1.401  0.4477 -0.6793  0.4343
 5547TIP3    H238201   3.174   1.794   1.384  0.9045  1.1089  0.1194
 5548TIP3   OH238202   1.618   4.566   1.803 -0.6840  0.2851  0.1409
 5548TIP3    H138203   1.580   4.636   1.857 -1.3245  0.2636 -0.2721
 5548TIP3    H238204   1.710   4.590   1.794 -0.1823 -0.5515  2.5602
 5549TIP3   OH238205   5.409   5.801   1.371 -0.1609 -0.1909 -0.1275
 5549TIP3    H138206   5.381   5.862   1.439  1.2582  0.1081  0.2297
 5549TIP3    H238207   5.502   5.785   1.390  0.0976 -0.6122 -1.6128
 5550TIP3   OH238208   3.318   4.996   0.117 -0.3072  0.4395  0.1466
 5550TIP3    H138209   3.396   5.048   0.098 -1.0189  1.0039 -1.4524
 5550TIP3    H238210   3.325   4.920   0.059 -0.6515  0.2001  0.4137
 5551TIP3   OH238211   0.500   6.305   1.760  0.0905  0.8578 -0.5242
 5551TIP3    H138212   0.526   6.248   1.832 -0.0935  0.8174 -0.4888
 5551TIP3    H238213   0.582   6.330   1.718  0.2613  1.6824  0.2938
 5552TIP3   OH238214   2.170   5.556   0.660 -0.0228  0.1179 -0.2416
 5552TIP3    H138215   2.231   5.617   0.701 -0.0345  0.4253 -0.6689
 5552TIP3    H238216   2.199   5.551   0.569  0.2549 -0.8758 -0.1082
 5553TIP3   OH238217   4.918   2.675   0.906 -0.3259  0.2103 -0.1987
 5553TIP3    H138218   4.957   2.726   0.835 -0.3036 -0.1315 -0.4347
 5553TIP3    H238219   4.831   2.651   0.873 -0.2022 -0.2012 -0.2337
 5554TIP3   OH238220   2.541   0.611   7.280  0.8161  0.0382 -0.0099
 5554TIP3    H138221   2.583   0.670   7.218 -1.7518  1.0275 -0.9260
 5554TIP3    H238222   2.542   0.658   7.363  1.1481  0.2177 -0.1147
 5555TIP3   OH238223   6.405   2.162   2.415  0.4858 -0.0180 -0.4327
 5555TIP3    H138224   6.483   2.216   2.425 -0.1531  0.6148  1.7398
 5555TIP3    H238225   6.365   2.192   2.333  1.4859  0.9983 -0.5729
 5556TIP3   OH238226   1.372   1.153   8.160 -0.0431 -0.1244  0.0567
 5556TIP3    H138227   1.446   1.092   8.162  0.9507  1.0471  0.9714
 5556TIP3    H238228   1.396   1.218   8.094  0.0341  0.5836  0.7679
 5557TIP3   OH238229   6.366   5.783   0.603 -0.1522 -0.3966 -0.4444
 5557TIP3    H138230   6.385   5.833   0.523 -2.0759  0.5467 -0.3622
 5557TIP3    H238231   6.281   5.743   0.586 -0.4453 -0.4329  1.0122
 5558TIP3   OH238232   1.137   3.790   7.809  0.5963  0.1569 -0.2186
 5558TIP3    H138233   1.132   3.863   7.871  0.6483  0.0160 -0.0480
 5558TIP3    H238234   1.130   3.831   7.723  0.2203  0.3257 -0.1095
 5559TIP3   OH238235   5.830   0.533   7.818 -0.0206 -0.7281  0.4559
 5559TIP3    H138236   5.809   0.491   7.734 -1.0295  0.0706  0.2918
 5559TIP3    H238237   5.754   0.514   7.874  0.5414 -1.0612  1.1257
 5560TIP3   OH238238   2.304   3.749   2.408  0.7348 -0.7576 -0.1642
 5560TIP3    H138239   2.296   3.739   2.503  0.8729  0.1625 -0.0457
 5560TIP3    H238240   2.216   3.729   2.375  0.5384 -0.5367  0.2121
 5561TIP3   OH238241   4.289   0.332   2.283 -0.3090  0.1115  0.0982
 5561TIP3    H138242   4.337   0.414   2.291  0.7989 -0.4205 -0.6070
 5561TIP3    H238243   4.344   0.268   2.328 -1.7832 -0.0497  1.7675
 5562TIP3   OH238244   1.479   4.794   7.479 -0.7136 -0.3369  0.2346
 5562TIP3    H138245   1.391   4.788   7.442  0.6447 -0.7228 -3.3322
 5562TIP3    H238246   1.524   4.859   7.424  1.6567 -1.3005  0.8995
 5563TIP3   OH238247   3.258   3.248   7.841  0.2322 -0.5534 -0.7690
 5563TIP3    H138248   3.307   3.175   7.802 -0.0418 -0.7780 -0.7010
 5563TIP3    H238249   3.229   3.213   7.926  1.0709  0.0254 -0.2270
 5564TIP3   OH238250   2.688   5.128   1.009  0.2536  0.2494 -0.3381
 5564TIP3    H138251   2.717   5.193   0.944 -0.1789  0.8688  0.0796
 5564TIP3    H238252   2.768   5.103   1.055  0.4554  0.3240 -0.6460
 5565TIP3   OH238253   1.343   4.783   0.707 -0.3682  0.0532  0.2530
 5565TIP3    H138254   1.258   4.823   0.688  0.3235 -0.0150 -3.6152
 5565TIP3    H238255   1.405   4.856   0.706  0.0952 -0.3446 -0.6849
 5566TIP3   OH238256   1.247   6.491   7.971 -0.1287  0.0291  0.1157
 5566TIP3    H138257   1.185   6.564   7.975  0.5893  0.7429 -1.1119
 5566TIP3    H238258   1.282   6.484   8.060  1.3600  2.6198 -0.1712
 5567TIP3   OH238259   6.707   1.824   8.200 -0.3808  0.4465 -0.1083
 5567TIP3    H138260   6.647   1.779   8.260  1.9448  0.1705  2.1940
 5567TIP3    H238261   6.692   1.917   8.216 -1.2283  0.4211 -0.6918
 5568TIP3   OH238262   1.268   5.797   2.276  0.2090  0.3323  0.5113
 5568TIP3    H138263   1.235   5.792   2.366 -1.2298 -0.5948 -0.0236
 5568TIP3    H238264   1.189   5.792   2.221  1.0240  1.2385 -0.8030
 5569TIP3   OH238265   6.211   0.880   1.511 -0.2543  0.0288 -0.5866
 5569TIP3    H138266   6.196   0.786   1.511 -0.2332 -0.0235 -2.8663
 5569TIP3    H238267   6.135   0.917   1.466 -0.7968  1.2503  1.2151
 5570TIP3   OH238268   2.303   6.300   8.733 -0.6295 -0.2590 -0.1056
 5570TIP3    H138269   2.327   6.381   8.688  0.8374 -0.7782 -0.3303
 5570TIP3    H238270   2.379   6.280   8.788 -0.9859 -1.4683 -0.0274
 5571TIP3   OH238271   0.081   3.634   0.282  0.5807 -0.3708  0.0453
 5571TIP3    H138272   0.023   3.588   0.343  0.8978  0.3313  0.9026
 5571TIP3    H238273   0.150   3.669   0.338  2.3118 -1.8982 -1.0559
 5572TIP3   OH238274   6.348   2.596   7.947  0.1603  0.4231  0.3383
 5572TIP3    H138275   6.329   2.652   8.022 -0.2643  1.0713 -0.2441
 5572TIP3    H238276   6.367   2.657   7.875  1.7746 -0.1859  0.2074
 5573TIP3   OH238277   5.393   4.894   0.718  0.6780  0.3992  0.2180
 5573TIP3    H138278   5.303   4.902   0.750 -0.2458  0.6335 -2.2045
 5573TIP3    H238279   5.415   4.981   0.685  1.4078  0.0792 -0.1676
 5574TIP3   OH238280   1.098   1.106   7.239 -0.2992 -1.0262  0.9362
 5574TIP3    H138281   1.010   1.102   7.277 -1.2408  0.4379 -0.9119
 5574TIP3    H238282   1.104   1.028   7.184 -2.1428  0.8212 -2.1476
 5575TIP3   OH238283   5.212   0.592   0.527 -0.1299 -0.3178  0.4913
 5575TIP3    H138284   5.180   0.544   0.451  0.9120 -1.4943  0.7656
 5575TIP3    H238285   5.307   0.597   0.515  0.0110 -0.1838  1.5048
 5576TIP3   OH238286   5.546   4.724   3.075  0.4678 -0.0613 -0.3475
 5576TIP3    H138287   5.455   4.704   3.099  0.8728 -1.8746 -0.1734
 5576TIP3    H238288   5.579   4.776   3.149 -0.2976  0.2765 -0.2267
 5577TIP3   OH238289   3.425   3.533   1.527 -0.3107 -0.6028  0.6661
 5577TIP3    H138290   3.333   3.536   1.551 -0.6899  1.0004 -0.7866
 5577TIP3    H238291   3.436   3.603   1.463  1.8953 -0.8379  0.6889
 5578TIP3   OH238292   3.057   1.673   7.371  0.1289 -0.1562  0.2121
 5578TIP3    H138293   3.084   1.629   7.291  1.5130 -0.6027  0.8963
 5578TIP3    H238294   3.139   1.706   7.409 -0.6755  1.5016  0.6033
 5579TIP3   OH238295   3.143   4.078   0.961 -0.3518 -0.1852  0.2767
 5579TIP3    H138296   3.209   4.039   0.904  0.1551 -0.0158  0.7470
 5579TIP3    H238297   3.129   4.166   0.925  0.4752  0.1762  0.8209
 5580TIP3   OH238298   2.673   6.334   2.583 -0.1304 -0.4863 -0.8096
 5580TIP3    H138299   2.644   6.419   2.616  1.6124  0.3427 -1.2966
 5580TIP3    H238300   2.760   6.322   2.623  0.8956 -0.6658 -2.9674
 5581TIP3   OH238301   4.273   3.908   1.207 -0.2095  0.2033 -0.3068
 5581TIP3    H138302   4.357   3.896   1.163  0.1389 -1.5786  0.7192
 5581TIP3    H238303   4.225   3.970   1.152  1.4249  0.5521 -1.3997
 5582TIP3   OH238304   2.654   3.811   2.347 -0.3204 -0.1156  0.1200
 5582TIP3    H138305   2.634   3.717   2.347 -1.4801  0.1090  0.8721
 5582TIP3    H238306   2.610   3.845   2.424 -1.1740  1.2990 -0.9389
 5583TIP3   OH238307   2.937   4.208   1.243  0.1163 -0.1727 -0.3264
 5583TIP3    H138308   3.018   4.200   1.294 -0.8247  0.0633  1.2882
 5583TIP3    H238309   2.871   4.162   1.296 -0.8085 -0.4234 -1.6382
 5584TIP3   OH238310   3.830   6.281   7.428 -0.0256  0.5634 -0.0118
 5584TIP3    H138311   3.880   6.205   7.457 -0.0545  0.3076 -0.6206
 5584TIP3    H238312   3.747   6.275   7.476 -0.6532 -0.6513 -1.1737
 5585TIP3   OH238313   0.410   1.240   2.898 -0.6115  0.1941  0.3554
 5585TIP3    H138314   0.321   1.275   2.904 -0.1232  1.8338 -1.1592
 5585TIP3    H238315   0.398   1.145   2.896 -2.2011  0.3142  1.6565
 5586TIP3   OH238316   6.247   3.474   8.758  0.0313 -0.0922  0.4712
 5586TIP3    H138317   6.203   3.558   8.745 -0.0524 -0.3316 -1.0249
 5586TIP3    H238318   6.323   3.478   8.701  2.0855  0.3406  3.0828
 5587TIP3   OH238319   5.123   5.678   8.275 -0.6015 -0.1725 -0.4841
 5587TIP3    H138320   5.194   5.737   8.251  0.0634  0.2678  2.2415
 5587TIP3    H238321   5.107   5.626   8.196  2.7244 -0.2862 -1.2212
 5588TIP3   OH238322   3.532   2.251   1.504 -0.2208 -0.1155 -0.1202
 5588TIP3    H138323   3.548   2.299   1.585 -1.1882 -0.5641  0.3630
 5588TIP3    H238324   3.611   2.199   1.490 -0.0768 -0.0910  0.5904
 5589TIP3   OH238325   1.054   5.851   0.326 -0.0809 -0.4176  0.2137
 5589TIP3    H138326   1.132   5.825   0.375 -0.3636 -0.5769  0.5854
 5589TIP3    H238327   1.085   5.863   0.236  0.4235 -0.2038  0.4134
 5590TIP3   OH238328   6.413   1.571   2.035 -0.2031  0.0835  0.3263
 5590TIP3    H138329   6.421   1.510   2.108  0.9489  1.4269  1.3793
 5590TIP3    H238330   6.392   1.655   2.076  1.0646  1.0004 -0.7951
 5591TIP3   OH238331   1.161   3.057   1.934 -0.5271 -0.4254 -0.1386
 5591TIP3    H138332   1.176   3.151   1.933 -1.1159 -0.3109  0.5961
 5591TIP3    H238333   1.082   3.045   1.882  0.1977 -0.6519 -1.2082
 5592TIP3   OH238334   6.165   0.717   2.857 -0.3427  0.1790  0.5887
 5592TIP3    H138335   6.219   0.656   2.906 -0.3801 -0.5468 -0.2545
 5592TIP3    H238336   6.086   0.668   2.836 -0.2130  0.3872 -0.4253
 5593TIP3   OH238337   0.050   0.373   2.878 -0.2076 -0.1403  0.6155
 5593TIP3    H138338   0.122   0.425   2.844 -1.2091  1.3147  0.6302
 5593TIP3    H238339   0.090   0.289   2.902  1.3799  0.4784  0.2587
 5594TIP3   OH238340   1.735   2.972   0.962  0.1595 -0.6253 -0.4599
 5594TIP3    H138341   1.827   2.965   0.990  0.8423 -0.3974 -2.5209
 5594TIP3    H238342   1.705   2.881   0.957  0.6058 -0.7552 -0.8251
 5595TIP3   OH238343   2.438   2.562   6.938  0.4104  0.2823 -0.3286
 5595TIP3    H138344   2.529   2.564   6.909  0.0359 -0.8397 -1.7084
 5595TIP3    H238345   2.397   2.495   6.883 -1.7229  2.1323 -1.1388
 5596TIP3   OH238346   3.772   1.594   2.046 -0.2673 -0.0001 -0.8031
 5596TIP3    H138347   3.844   1.591   2.108 -0.1086  0.9797 -0.9262
 5596TIP3    H238348   3.728   1.677   2.064 -0.1336  0.3783 -2.0828
 5597TIP3   OH238349   4.246   5.332   2.244  0.0808 -0.1844 -0.8813
 5597TIP3    H138350   4.294   5.258   2.281 -0.1776  0.5395  1.0122
 5597TIP3    H238351   4.267   5.405   2.302 -1.5584  0.6634 -1.3013
 5598TIP3   OH238352   1.250   3.787   1.522 -0.7375  0.3763  0.2656
 5598TIP3    H138353   1.315   3.759   1.586  0.9393  2.1782 -0.5358
 5598TIP3    H238354   1.212   3.867   1.559 -0.8989  0.5503 -0.2556
 5599TIP3   OH238355   6.534   5.964   1.680 -1.0395 -1.2564  0.5572
 5599TIP3    H138356   6.453   6.011   1.697  0.1379  1.8878 -1.4522
 5599TIP3    H238357   6.517   5.915   1.600 -0.6294  0.6852 -0.8021
 5600TIP3   OH238358   0.223   3.993   8.124 -0.5155 -0.5226  0.4292
 5600TIP3    H138359   0.272   4.065   8.162  1.8961 -2.3541  1.0314
 5600TIP3    H238360   0.195   4.025   8.039  2.5026  0.4044 -0.3226
 5601TIP3   OH238361   3.259   2.135   8.240 -0.2787 -0.0252 -0.4043
 5601TIP3    H138362   3.340   2.128   8.290  0.4617  1.4632 -1.3139
 5601TIP3    H238363   3.252   2.053   8.193 -1.0944 -1.5648  2.1944
 5602TIP3   OH238364   1.509   2.105   7.518 -0.0218 -0.0578  0.3614
 5602TIP3    H138365   1.422   2.112   7.557 -1.1677 -1.5465 -1.7080
 5602TIP3    H238366   1.496   2.048   7.442  1.8971  2.9714 -2.4983
 5603TIP3   OH238367   1.338   3.194   8.452  0.1700 -0.2073 -0.1964
 5603TIP3    H138368   1.385   3.186   8.535 -0.6636  3.0142  0.7403
 5603TIP3    H238369   1.406   3.183   8.385  2.1989  2.9710  1.0881
 5604TIP3   OH238370   3.565   3.779   6.588 -0.2222 -0.1735  0.5543
 5604TIP3    H138371   3.588   3.714   6.522  0.6140 -0.2789  0.9375
 5604TIP3    H238372   3.591   3.739   6.671  2.7160  1.6292  0.6319
 5605TIP3   OH238373   1.118   1.612   8.400 -0.0456 -0.1764 -0.0026
 5605TIP3    H138374   1.107   1.608   8.495  0.9098  1.6412  0.2278
 5605TIP3    H238375   1.049   1.672   8.370  1.6242  1.8590  0.0036
 5606TIP3   OH238376   3.571   3.757   2.101 -0.0473 -0.5663 -0.6202
 5606TIP3    H138377   3.516   3.793   2.032  0.2223 -1.3818 -1.2827
 5606TIP3    H238378   3.610   3.678   2.062  4.9728  2.0265 -1.7802
 5607TIP3   OH238379   3.031   1.595   2.791 -0.4759 -0.0506 -0.3579
 5607TIP3    H138380   2.941   1.577   2.762 -0.7726  2.3427 -1.1163
 5607TIP3    H238381   3.085   1.533   2.742 -1.6175 -0.8716 -0.6204
 5608TIP3   OH238382   3.787   2.439   1.362 -0.4765 -0.4546 -0.3183
 5608TIP3    H138383   3.746   2.376   1.303  0.6961 -0.5726 -1.0488
 5608TIP3    H238384   3.875   2.404   1.377 -1.2892 -1.4808  3.1039
 5609TIP3   OH238385   0.632   4.218   0.485 -0.4378  0.7695 -0.2201
 5609TIP3    H138386   0.598   4.128   0.490  1.3633  0.1132  2.5388
 5609TIP3    H238387   0.726   4.209   0.502  0.3736  2.9617 -2.7984
 5610TIP3   OH238388   4.407   4.413   2.216 -0.0921 -0.6805  0.2464
 5610TIP3    H138389   4.419   4.430   2.310  0.1164 -0.0668  0.1166
 5610TIP3    H238390   4.448   4.489   2.174 -0.6980 -0.6722 -0.3253
 5611TIP3   OH238391   0.735   4.209   8.598 -0.0790  0.3646 -0.3955
 5611TIP3    H138392   0.679   4.280   8.565 -0.0396  1.4413  1.7199
 5611TIP3    H238393   0.824   4.237   8.576 -0.1223  0.5354 -0.3582
 5612TIP3   OH238394   3.945   2.999   1.377 -0.1483 -0.1473  0.3912
 5612TIP3    H138395   3.882   2.969   1.311 -0.0792 -0.4201  0.4493
 5612TIP3    H238396   3.901   3.073   1.420 -0.1607  0.0879 -0.0183
 5613TIP3   OH238397   0.929   3.682   8.232 -0.0245  0.3663 -0.1606
 5613TIP3    H138398   0.894   3.695   8.144  1.5365  1.0372 -0.7381
 5613TIP3    H238399   0.865   3.628   8.276 -0.0410 -1.4714 -2.2609
 5614TIP3   OH238400   2.287   0.216   2.359 -0.3062  0.8614 -0.4677
 5614TIP3    H138401   2.347   0.208   2.433 -0.9761 -1.7062 -0.1001
 5614TIP3    H238402   2.201   0.195   2.395 -0.7923  0.5010 -1.7786
 5615TIP3   OH238403   2.680   1.569   6.757  0.0782  0.8310 -0.2254
 5615TIP3    H138404   2.694   1.478   6.732 -1.3630  0.7784 -0.9325
 5615TIP3    H238405   2.683   1.568   6.853  1.3530  0.2800 -0.2496
 5616TIP3   OH238406   1.201   3.349   0.471 -0.1330 -0.1770  0.0456
 5616TIP3    H138407   1.139   3.291   0.427 -0.8525 -0.0825  0.8857
 5616TIP3    H238408   1.214   3.421   0.410 -1.1079 -0.0460 -0.0341
 5617TIP3   OH238409   0.341   4.059   2.489 -0.1634  0.0036  0.2807
 5617TIP3    H138410   0.421   4.010   2.508 -0.3106 -0.6510 -0.7234
 5617TIP3    H238411   0.281   4.034   2.560  0.3560  0.1186  0.7660
 5618TIP3   OH238412   4.680   2.987   3.345  0.0134 -0.3719  0.2968
 5618TIP3    H138413   4.649   2.901   3.373  0.3851 -0.7251 -0.3565
 5618TIP3    H238414   4.603   3.043   3.352 -0.1417 -0.6653  1.0785
 5619TIP3   OH238415   2.319   3.035   1.945 -0.3964 -0.6680 -0.3775
 5619TIP3    H138416   2.232   3.016   1.981  0.7339 -2.8619  1.4154
 5619TIP3    H238417   2.323   2.985   1.864 -1.2698  0.5946 -1.2416
 5620TIP3   OH238418   5.185   6.030   8.620 -0.4635  0.0152 -0.6376
 5620TIP3    H138419   5.196   5.935   8.613  1.6194  0.1162  0.4607
 5620TIP3    H238420   5.267   6.066   8.587 -0.8155  1.3852 -0.0883
 5621TIP3   OH238421   6.715   1.274   2.369  0.4934  0.2275 -0.0888
 5621TIP3    H138422   6.654   1.233   2.307 -0.3601  0.2845  0.6896
 5621TIP3    H238423   6.792   1.293   2.317  0.0621 -0.3596 -0.9794
 5622TIP3   OH238424   6.628   5.693   8.177 -0.2591  0.5861 -0.6802
 5622TIP3    H138425   6.602   5.632   8.108 -0.8513 -1.4455  1.2291
 5622TIP3    H238426   6.722   5.704   8.166  0.5746 -3.4499  0.8579
 5623TIP3   OH238427   4.395   1.754   8.710 -0.1386  0.1097 -0.0165
 5623TIP3    H138428   4.445   1.805   8.646 -0.2576 -0.1701 -0.3404
 5623TIP3    H238429   4.312   1.736   8.665 -0.6202  0.7706  0.6015
 5624TIP3   OH238430   6.255   2.206   7.995 -0.2797 -0.2420  0.6478
 5624TIP3    H138431   6.287   2.235   7.909  0.4689 -0.2811  0.9029
 5624TIP3    H238432   6.198   2.277   8.025 -3.9528 -1.9272 -1.6520
 5625TIP3   OH238433   6.580   0.966   8.430  0.2790 -0.2414  0.0026
 5625TIP3    H138434   6.529   0.886   8.421 -1.7335  0.8229  1.3525
 5625TIP3    H238435   6.547   1.024   8.361  0.3914  0.0869  0.2201
 5626TIP3   OH238436   4.557   3.834   0.086 -0.3256  0.2724  0.4520
 5626TIP3    H138437   4.637   3.872   0.051 -0.6883  0.3801 -0.2742
 5626TIP3    H238438   4.580   3.805   0.174 -0.0115  2.1407  1.0233
 5627TIP3   OH238439   0.736   5.012   1.326  0.4362 -0.6475 -0.3487
 5627TIP3    H138440   0.715   4.962   1.405 -0.5092 -1.1847 -0.9260
 5627TIP3    H238441   0.652   5.051   1.300  1.3047  2.1212  0.6535
 5628TIP3   OH238442   4.151   0.856   0.758 -0.4784 -0.5197 -0.5731
 5628TIP3    H138443   4.235   0.899   0.746 -1.3966  1.2034 -1.1104
 5628TIP3    H238444   4.134   0.812   0.674 -0.9808  0.7597 -1.1629
 5629TIP3   OH238445   5.149   6.733   8.490  0.4034 -0.1779  0.0608
 5629TIP3    H138446   5.228   6.786   8.475  0.2111  0.2764  0.6059
 5629TIP3    H238447   5.147   6.672   8.416  0.1893  1.1183 -1.0446
 5630TIP3   OH238448   2.277   0.850   7.238 -0.1103 -0.6673 -0.5630
 5630TIP3    H138449   2.372   0.854   7.249 -0.0782 -0.4392 -0.9085
 5630TIP3    H238450   2.247   0.794   7.309  0.1695  0.0963  0.1747
 5631TIP3   OH238451   3.386   5.609   7.304  0.1742  1.0608  0.0372
 5631TIP3    H138452   3.422   5.553   7.236  0.1890  0.9352  0.1495
 5631TIP3    H238453   3.311   5.560   7.340 -0.1941  1.3766 -0.2883
 5632TIP3   OH238454   4.528   5.598   1.125 -0.0992 -0.1846 -0.3655
 5632TIP3    H138455   4.587   5.674   1.128 -0.6017  0.1644  2.0263
 5632TIP3    H238456   4.457   5.626   1.068 -1.5339  2.1965  2.3394
 5633TIP3   OH238457   1.834   3.819   2.180 -0.2928  0.9821  0.4658
 5633TIP3    H138458   1.745   3.826   2.146  0.1753 -0.5222 -1.2063
 5633TIP3    H238459   1.847   3.900   2.230 -2.6154  1.1860  0.8495
 5634TIP3   OH238460   5.162   0.658   7.158  0.3439  0.6071  0.0771
 5634TIP3    H138461   5.079   0.666   7.111  0.2382  1.3048  0.3634
 5634TIP3    H238462   5.176   0.745   7.196 -0.0963 -0.1841  2.2022
 5635TIP3   OH238463   2.655   5.692   8.174 -0.4211 -0.5603 -0.1393
 5635TIP3    H138464   2.628   5.692   8.265 -0.0477 -1.1697 -0.0276
 5635TIP3    H238465   2.574   5.703   8.124 -0.4323  1.9953  0.3125
 5636TIP3   OH238466   1.828   4.335   0.962  0.0878 -0.3894 -0.0100
 5636TIP3    H138467   1.744   4.293   0.979  0.0714 -0.0700  0.7166
 5636TIP3    H238468   1.889   4.291   1.021  0.3796 -0.4307 -0.3366
 5637TIP3   OH238469   1.617   0.165   8.513 -0.0368  0.0739  0.0663
 5637TIP3    H138470   1.600   0.247   8.559  2.2405 -0.8886  2.9967
 5637TIP3    H238471   1.557   0.102   8.554 -0.6863 -0.0639 -1.0633
 5638TIP3   OH238472   4.658   0.356   7.914 -0.5795 -0.1688  0.1812
 5638TIP3    H138473   4.621   0.314   7.836 -0.1461  1.7367 -1.1215
 5638TIP3    H238474   4.593   0.422   7.938  0.2365  0.6638  0.1504
 5639TIP3   OH238475   2.591   4.727   0.462 -0.7442 -0.2488  0.0702
 5639TIP3    H138476   2.631   4.690   0.384 -1.0504 -0.2544 -0.0851
 5639TIP3    H238477   2.664   4.764   0.512 -0.3399 -1.6742  0.5684
 5640TIP3   OH238478   5.567   5.167   7.600 -0.4529 -0.8307  0.2248
 5640TIP3    H138479   5.655   5.142   7.573  0.2920  2.2653 -0.5888
 5640TIP3    H238480   5.550   5.115   7.679  2.8753 -0.2227  1.4893
 5641TIP3   OH238481   2.052   3.116   7.294 -0.4732  0.0886  0.3328
 5641TIP3    H138482   2.135   3.117   7.245 -0.6884  0.9834 -0.0329
 5641TIP3    H238483   1.987   3.149   7.232 -0.8043  0.9807  1.1243
 5642TIP3   OH238484   3.015   6.363   0.257 -0.3380  0.6323  0.3245
 5642TIP3    H138485   3.090   6.391   0.205 -1.6090  3.1834 -0.3132
 5642TIP3    H238486   3.052   6.308   0.326  1.8891  0.5478 -0.8517
 5643TIP3   OH238487   2.122   1.475   2.297  0.2192 -0.2110 -0.0761
 5643TIP3    H138488   2.052   1.504   2.239 -1.2385 -1.9989  0.6689
 5643TIP3    H238489   2.166   1.406   2.248  1.9896  1.3727 -0.8213
 5644TIP3   OH238490   6.771   5.955   0.078  0.1599  0.5400 -0.7162
 5644TIP3    H138491   6.854   6.003   0.068  1.2054 -1.1521 -0.5113
 5644TIP3    H238492   6.763   5.904  -0.003 -1.6344  2.0057 -1.5377
 5645TIP3   OH238493   6.302   4.803   2.794  0.0923 -0.1446  0.2573
 5645TIP3    H138494   6.323   4.711   2.813 -0.3777 -0.5389 -1.0232
 5645TIP3    H238495   6.378   4.834   2.744  0.1073  0.0768  0.4167
 5646TIP3   OH238496   5.690   4.123   7.540 -0.2964  0.1973 -0.2847
 5646TIP3    H138497   5.628   4.162   7.601 -2.2955 -0.5140 -1.7565
 5646TIP3    H238498   5.773   4.119   7.588 -1.6924 -0.0290  2.2211
 5647TIP3   OH238499   5.806   4.820   1.559  0.0336 -0.3789  0.3520
 5647TIP3    H138500   5.771   4.885   1.620 -0.9882 -1.0635  0.5014
 5647TIP3    H238501   5.859   4.872   1.498 -0.2672  0.5205  0.8287
 5648TIP3   OH238502   6.396   1.852   7.573 -0.2935 -0.5434 -0.6788
 5648TIP3    H138503   6.369   1.761   7.561 -1.0962 -0.2583 -1.1339
 5648TIP3    H238504   6.448   1.851   7.653 -2.4333 -0.9932  0.7899
 5649TIP3   OH238505   6.756   3.892   1.227 -0.0073 -0.7393  0.1244
 5649TIP3    H138506   6.804   3.876   1.308  1.5517  3.8841  0.4080
 5649TIP3    H238507   6.679   3.942   1.254  0.8807  1.4812 -1.1395
 5650TIP3   OH238508   3.185   3.086   8.495  0.5567 -0.2666 -0.0167
 5650TIP3    H138509   3.271   3.047   8.511 -0.1699 -1.4922  0.9819
 5650TIP3    H238510   3.186   3.167   8.546  2.0560  1.1562 -2.0780
 5651TIP3   OH238511   5.071   0.941   7.138  0.7307  0.2562 -0.1104
 5651TIP3    H138512   4.990   0.927   7.187  0.6651 -1.7294 -0.7008
 5651TIP3    H238513   5.043   0.985   7.058  0.6562  2.1962  0.9164
 5652TIP3   OH238514   5.274   2.385   1.316 -0.7101 -0.1586 -0.0588
 5652TIP3    H138515   5.180   2.366   1.320 -0.6384 -0.6970 -0.7222
 5652TIP3    H238516   5.284   2.465   1.367 -1.1361 -1.4641  2.2082
 5653TIP3   OH238517   1.026   5.791   8.452  0.0713 -0.6320 -1.2317
 5653TIP3    H138518   1.014   5.799   8.358  0.9173 -2.5603 -1.5476
 5653TIP3    H238519   1.117   5.816   8.467  0.3434 -1.6288 -1.1408
 5654TIP3   OH238520   0.197   6.131   0.387 -0.3726 -0.1056  0.3146
 5654TIP3    H138521   0.169   6.219   0.361 -1.4351 -0.6027 -0.3187
 5654TIP3    H238522   0.256   6.103   0.318 -0.5348 -0.1320  0.1863
 5655TIP3   OH238523   3.759   1.530   8.556  0.0127 -0.0237 -0.3583
 5655TIP3    H138524   3.704   1.592   8.508  0.4478  0.4121 -0.2995
 5655TIP3    H238525   3.790   1.468   8.490  0.0730  0.1844 -0.5252
 5656TIP3   OH238526   3.919   6.230   0.158  0.0059  0.1251 -0.5046
 5656TIP3    H138527   3.884   6.301   0.104 -1.4586  0.7939  1.2325
 5656TIP3    H238528   3.893   6.253   0.247  1.5460 -1.4141  0.3933
 5657TIP3   OH238529   2.121   4.582   0.077  0.0956 -0.4628 -0.2124
 5657TIP3    H138530   2.168   4.632   0.010 -0.4679 -1.2076 -1.2018
 5657TIP3    H238531   2.183   4.513   0.102 -0.6365 -1.9051 -2.0594
 5658TIP3   OH238532   2.187   1.669   1.805 -0.4591  0.0408  0.6267
 5658TIP3    H138533   2.215   1.579   1.818 -0.9606 -0.1262  0.5477
 5658TIP3    H238534   2.264   1.721   1.830 -0.1107 -0.4078  0.5044
 5659TIP3   OH238535   3.303   1.457   7.659  0.2564  0.7488 -0.9161
 5659TIP3    H138536   3.258   1.501   7.731  0.0057  1.3648 -1.4411
 5659TIP3    H238537   3.371   1.519   7.632  3.5468 -1.2970  1.8113
 5660TIP3   OH238538   5.553   1.219   8.391  0.2962  0.6909 -0.2381
 5660TIP3    H138539   5.561   1.125   8.380 -1.6870  0.4218  0.1067
 5660TIP3    H238540   5.618   1.257   8.332  0.7249 -0.8824 -0.8090
 5661TIP3   OH238541   5.457   2.811   0.672  0.8945  0.2635 -0.2894
 5661TIP3    H138542   5.456   2.735   0.731  1.4288  0.8727  0.5466
 5661TIP3    H238543   5.372   2.853   0.686  0.8094  0.1106 -0.3480
 5662TIP3   OH238544   0.775   0.010   0.719 -0.0178 -0.1601  0.2945
 5662TIP3    H138545   0.751   0.100   0.695 -1.0656  0.3253  2.8690
 5662TIP3    H238546   0.870   0.014   0.731  0.0401  0.4140 -0.2974
 5663TIP3   OH238547   1.081   6.416   1.223 -0.0835  0.1444 -0.5231
 5663TIP3    H138548   1.163   6.369   1.237  0.4370  1.1193 -0.1978
 5663TIP3    H238549   1.047   6.430   1.312  0.8332  2.1954 -0.4378
 5664TIP3   OH238550   5.346   0.771   2.485  0.1824 -0.3282 -0.0781
 5664TIP3    H138551   5.387   0.857   2.479  0.8557 -0.6085  0.3248
 5664TIP3    H238552   5.403   0.713   2.435 -0.3423 -0.5264 -0.4666
 5665TIP3   OH238553   3.948   3.540   3.128 -0.0639 -0.3451 -0.4935
 5665TIP3    H138554   3.967   3.616   3.073  1.0082 -0.4355 -0.2794
 5665TIP3    H238555   3.865   3.561   3.171  1.3860  1.8453  1.4906
 5666TIP3   OH238556   3.103   0.751   2.140 -0.2376  0.1781 -0.1201
 5666TIP3    H138557   3.139   0.750   2.229 -0.7094  0.9593  0.0838
 5666TIP3    H238558   3.039   0.679   2.140 -0.0502  0.0074  0.0901
 5667TIP3   OH238559   1.997   3.773   0.006  0.3237 -0.3998  0.0156
 5667TIP3    H138560   2.084   3.761  -0.031 -0.7776 -2.6957 -2.1270
 5667TIP3    H238561   1.991   3.867   0.025  2.0316  0.4937 -3.1270
 5668TIP3   OH238562   4.577   5.651   0.620 -0.3304  0.1306  0.0365
 5668TIP3    H138563   4.589   5.589   0.548 -0.2770 -2.1157  1.8621
 5668TIP3    H238564   4.633   5.725   0.598  0.0426 -0.6840 -1.9734
 5669TIP3   OH238565   3.534   2.247   1.924  0.3864 -0.1543  0.0394
 5669TIP3    H138566   3.454   2.298   1.934  0.0340 -0.8536  0.9087
 5669TIP3    H238567   3.594   2.305   1.876  0.0322  1.0987  1.0521
 5670TIP3   OH238568   3.628   1.223   1.458 -0.0100  0.3299  0.3272
 5670TIP3    H138569   3.599   1.207   1.548  0.8346 -0.8946  0.4080
 5670TIP3    H238570   3.615   1.139   1.414  0.0093  0.7907 -0.5894
 5671TIP3   OH238571   0.143   2.719   8.290  0.1900  0.7847  0.6736
 5671TIP3    H138572   0.173   2.739   8.379 -0.0353  2.0085  0.4864
 5671TIP3    H238573   0.216   2.670   8.251 -0.9746 -2.8743  2.5798
 5672TIP3   OH238574   5.367   2.125   1.383  0.1792  0.6021 -0.6062
 5672TIP3    H138575   5.424   2.136   1.459  0.5349  0.3347 -0.8327
 5672TIP3    H238576   5.337   2.214   1.363 -0.1884  0.6380  0.0465
 5673TIP3   OH238577   0.671   2.923   8.222 -0.6402  0.2205 -0.3852
 5673TIP3    H138578   0.621   2.983   8.166 -1.0486  0.7057  0.4754
 5673TIP3    H238579   0.617   2.913   8.300  1.6301  2.8004  1.7530
 5674TIP3   OH238580   4.130   6.069   7.762  0.1425  0.9309 -0.0372
 5674TIP3    H138581   4.176   6.153   7.759  0.6072  0.7568  1.4813
 5674TIP3    H238582   4.089   6.067   7.848  0.4244 -0.5526  0.0895
 5675TIP3   OH238583   5.928   3.310   2.232 -0.2191  0.1995  0.4256
 5675TIP3    H138584   5.938   3.392   2.280  0.6135 -1.3675  3.1092
 5675TIP3    H238585   6.017   3.287   2.205 -0.4729  0.2209 -0.4811
 5676TIP3   OH238586   0.035   0.728   8.149 -0.0031  0.5986 -0.7666
 5676TIP3    H138587   0.081   0.756   8.227  1.7851 -0.8205 -1.2576
 5676TIP3    H238588   0.048   0.799   8.086  0.8445  0.5634 -0.6364
 5677TIP3   OH238589   3.261   0.390   2.175  0.0021 -0.3033 -0.5629
 5677TIP3    H138590   3.213   0.379   2.258 -0.1294  0.4987 -0.5299
 5677TIP3    H238591   3.345   0.347   2.191 -0.8499 -2.1763 -0.7814
 5678TIP3   OH238592   0.689   6.448   0.194 -0.1826  0.3512  0.0808
 5678TIP3    H138593   0.635   6.502   0.136 -0.2541 -0.5325 -0.7034
 5678TIP3    H238594   0.746   6.511   0.239 -0.5136  1.1072 -0.5318
 5679TIP3   OH238595   6.170   3.442   1.749 -0.6280  0.4765  0.1298
 5679TIP3    H138596   6.235   3.512   1.757 -0.2260  0.0854  0.2934
 5679TIP3    H238597   6.110   3.473   1.681 -0.0036  0.6267 -0.3603
 5680TIP3   OH238598   3.936   2.088   1.184  0.3062  0.0124  0.0821
 5680TIP3    H138599   3.858   2.138   1.156  1.2538  1.0851 -0.7776
 5680TIP3    H238600   3.995   2.154   1.220  2.5935  0.0334 -3.2580
 5681TIP3   OH238601   4.572   2.694   1.495 -0.1960 -0.7662  0.5220
 5681TIP3    H138602   4.589   2.678   1.403  0.5358  1.7040  0.1578
 5681TIP3    H238603   4.516   2.772   1.496 -0.7349 -1.1346  2.1572
 5682TIP3   OH238604   4.796   2.905   7.709 -0.3941 -0.1251 -0.2184
 5682TIP3    H138605   4.850   2.884   7.633 -0.2150  1.8956 -0.6969
 5682TIP3    H238606   4.860   2.923   7.779 -0.4186  1.4893 -0.5737
 5683TIP3   OH238607   6.337   4.467   0.338 -0.2580 -0.3975 -0.3933
 5683TIP3    H138608   6.338   4.557   0.369 -1.6348 -0.5722  0.1962
 5683TIP3    H238609   6.393   4.468   0.259 -0.2008  0.9342 -0.3518
 5684TIP3   OH238610   3.618   0.524   0.214  0.5479  0.0528 -0.3452
 5684TIP3    H138611   3.607   0.469   0.136  1.0810 -0.1140 -0.3050
 5684TIP3    H238612   3.611   0.463   0.288  0.0709  0.2068 -0.2595
 5685TIP3   OH238613   6.652   2.499   0.169  0.0065 -0.0495 -0.6019
 5685TIP3    H138614   6.734   2.480   0.215  0.0735  1.5193 -0.0271
 5685TIP3    H238615   6.619   2.413   0.144  0.6768 -0.8634  1.1672
 5686TIP3   OH238616   1.617   0.874   2.160  0.2782  0.2620 -0.7220
 5686TIP3    H138617   1.602   0.956   2.208 -2.4691  0.4722 -1.7695
 5686TIP3    H238618   1.690   0.894   2.102 -0.4313  2.0729 -1.0632
 5687TIP3   OH238619   4.680   5.905   1.037 -0.4329  0.0566 -0.6066
 5687TIP3    H138620   4.705   5.896   0.945 -0.6080  2.4242 -0.9405
 5687TIP3    H238621   4.588   5.930   1.035 -0.2903  0.6822  0.1892
 5688TIP3   OH238622   4.314   3.710   0.823 -0.1112  0.2340 -0.2739
 5688TIP3    H138623   4.224   3.678   0.814  0.3395 -1.5366  1.0777
 5688TIP3    H238624   4.362   3.667   0.752  0.1534 -0.8564  0.5381
 5689TIP3   OH238625   0.262   0.430   7.436 -1.0355  0.0554 -1.0689
 5689TIP3    H138626   0.212   0.501   7.397 -1.5640 -0.1484 -0.7708
 5689TIP3    H238627   0.351   0.443   7.403 -1.1085  0.8900 -0.9538
 5690TIP3   OH238628   4.273   3.819   8.670  0.1336 -0.0386  1.0742
 5690TIP3    H138629   4.355   3.830   8.622 -0.8197  1.2427 -0.3844
 5690TIP3    H238630   4.250   3.908   8.698 -0.2237 -0.5319  2.4348
 5691TIP3   OH238631   5.912   1.166   0.039  0.2986 -0.4585  0.0078
 5691TIP3    H138632   5.965   1.153   0.117 -0.3060  1.2743  0.7622
 5691TIP3    H238633   5.946   1.246  -0.001 -2.4919  1.5142  1.2647
 5692TIP3   OH238634   3.093   6.201   8.723  0.1469  0.7675  0.0140
 5692TIP3    H138635   3.163   6.265   8.736  0.3722  0.2606  1.4780
 5692TIP3    H238636   3.100   6.175   8.632  1.4664  1.2000 -0.0190
 5693TIP3   OH238637   0.891   5.675   8.724  0.1818  0.2159 -0.4837
 5693TIP3    H138638   0.892   5.628   8.807 -0.6279 -0.0603 -0.6213
 5693TIP3    H238639   0.984   5.689   8.703  0.3878  0.4484  0.5420
 5694TIP3   OH238640   6.217   4.275   8.759 -0.2251  0.2924 -0.2195
 5694TIP3    H138641   6.308   4.282   8.731  0.1702 -1.8706  0.3621
 5694TIP3    H238642   6.190   4.188   8.732 -2.5416  1.2893 -1.4259
 5695TIP3   OH238643   2.326   4.782   0.557  0.0164 -0.1824 -0.7062
 5695TIP3    H138644   2.351   4.771   0.648  0.5202  1.2289 -0.6662
 5695TIP3    H238645   2.408   4.779   0.508 -0.0271  1.2668 -0.8889
 5696TIP3   OH238646   2.502   6.348   0.520 -0.1092 -0.2250  0.4247
 5696TIP3    H138647   2.423   6.299   0.498 -1.6292  2.2472 -0.0138
 5696TIP3    H238648   2.483   6.390   0.603  0.7537  0.3730  0.3402
 5697TIP3   OH238649   5.664   6.249   8.180  0.7128 -0.4934 -0.2628
 5697TIP3    H138650   5.618   6.196   8.245 -0.7779 -0.9743 -1.6344
 5697TIP3    H238651   5.724   6.187   8.137  0.2607 -0.6725 -0.6544
 5698TIP3   OH238652   1.765   0.003   7.885 -0.4656 -0.0919  0.4088
 5698TIP3    H138653   1.788  -0.041   7.803  0.9036 -0.1374  0.8038
 5698TIP3    H238654   1.686  -0.043   7.914  0.1044 -1.3432  0.0655
 5699TIP3   OH238655   2.815   1.119   1.069 -0.1154 -0.2939 -0.0408
 5699TIP3    H138656   2.829   1.195   1.013 -1.3834 -2.2949 -3.3696
 5699TIP3    H238657   2.902   1.091   1.095  0.3802  2.2053  1.3210
 5700TIP3   OH238658   2.306   1.160   8.186  0.1522 -0.5615 -0.2358
 5700TIP3    H138659   2.319   1.252   8.210 -0.9871 -0.8356  1.6582
 5700TIP3    H238660   2.384   1.116   8.221  0.4567 -0.3956 -0.6970
 5701TIP3   OH238661   5.985   3.534   2.411  0.3174 -0.2929 -0.5673
 5701TIP3    H138662   6.050   3.593   2.448 -0.0388  0.6593 -1.4090
 5701TIP3    H238663   5.907   3.548   2.465  0.8016 -1.4951  0.4935
 5702TIP3   OH238664   0.396   6.464   2.022  0.1938  0.1722  0.1426
 5702TIP3    H138665   0.342   6.392   2.056 -0.2910 -0.0814 -1.0943
 5702TIP3    H238666   0.476   6.461   2.075 -0.1634 -0.7457  0.6644
 5703TIP3   OH238667   5.171   3.349   1.702 -0.4810 -0.0992  0.2546
 5703TIP3    H138668   5.196   3.408   1.631 -2.3694  0.0831 -0.3122
 5703TIP3    H238669   5.179   3.402   1.781 -0.5225  0.3929 -0.0666
 5704TIP3   OH238670   2.538   0.332   0.292  0.2377  0.3333  0.0670
 5704TIP3    H138671   2.577   0.245   0.300  2.7877  1.2007 -1.7403
 5704TIP3    H238672   2.547   0.370   0.379  0.3001 -0.7230  0.5365
 5705TIP3   OH238673   4.511   3.942   0.689  0.7139 -0.0240 -0.3456
 5705TIP3    H138674   4.586   3.973   0.740 -0.8268  4.2342 -0.2139
 5705TIP3    H238675   4.436   3.949   0.749 -0.2990 -0.6677 -1.4821
 5706TIP3   OH238676   4.122   1.925   2.975 -0.1215  0.1113  0.1453
 5706TIP3    H138677   4.121   1.975   3.056 -0.5506 -0.7374  0.6778
 5706TIP3    H238678   4.049   1.864   2.984 -0.2735  0.1157 -0.9518
 5707TIP3   OH238679   6.200   0.763   8.681 -0.0435  0.1610 -0.0731
 5707TIP3    H138680   6.287   0.802   8.681 -0.3258  0.9066 -2.1910
 5707TIP3    H238681   6.215   0.669   8.683  0.7394  0.2941  1.3370
 5708TIP3   OH238682   1.399   1.619   0.404 -0.5688  0.0603 -0.4388
 5708TIP3    H138683   1.436   1.531   0.396 -1.9418 -0.5042 -0.8083
 5708TIP3    H238684   1.390   1.650   0.314 -0.9290  0.2087 -0.3558
 5709TIP3   OH238685   5.643   5.476   0.968 -0.2140  0.6007 -0.7482
 5709TIP3    H138686   5.717   5.430   1.009 -1.1840 -2.4267 -2.0925
 5709TIP3    H238687   5.567   5.449   1.020 -0.8060  0.8093 -1.4972
 5710TIP3   OH238688   5.970   4.234   2.518  0.5365 -0.1545 -0.3282
 5710TIP3    H138689   5.910   4.160   2.526  0.3722 -0.1306 -1.2064
 5710TIP3    H238690   6.020   4.233   2.599  1.5403 -2.1031 -0.9172
 5711TIP3   OH238691   3.226   2.560   7.630  0.4954 -0.9089  0.1713
 5711TIP3    H138692   3.142   2.516   7.616 -1.1646  2.2293 -0.6097
 5711TIP3    H238693   3.272   2.550   7.547 -0.2106 -0.5145 -0.2777
 5712TIP3   OH238694   3.382   2.619   1.807 -0.3807 -0.2322  0.4243
 5712TIP3    H138695   3.417   2.701   1.772  0.4999 -0.5012  0.6411
 5712TIP3    H238696   3.298   2.643   1.847 -0.2212  0.5266  0.3124
 5713TIP3   OH238697   6.519   4.206   0.707  0.4369 -0.1458  0.5237
 5713TIP3    H138698   6.521   4.114   0.680 -1.5484 -0.2469  0.5904
 5713TIP3    H238699   6.552   4.254   0.631  0.9061 -0.8625  0.2657
 5714TIP3   OH238700   2.284   2.509   0.014  0.4648  0.2330 -0.4005
 5714TIP3    H138701   2.247   2.434   0.059  1.0383  0.2508  0.1233
 5714TIP3    H238702   2.210   2.569   0.002  0.2686  0.1611  0.3890
 5715TIP3   OH238703   5.931   4.211   8.102  0.2292 -0.1024 -0.1111
 5715TIP3    H138704   5.907   4.209   8.195 -0.6211  1.5164 -0.2584
 5715TIP3    H238705   5.918   4.302   8.076  0.7782 -0.4600 -1.7466
 5716TIP3   OH238706   0.982   2.221   2.226  0.6227  0.2051 -0.3100
 5716TIP3    H138707   0.984   2.194   2.318 -1.3099  1.2257  0.0908
 5716TIP3    H238708   0.998   2.316   2.229 -2.0923  0.7549 -0.6942
 5717TIP3   OH238709   5.099   1.213   7.869 -0.6756  0.5133  0.1303
 5717TIP3    H138710   5.144   1.150   7.926 -1.6416  0.5365  0.9525
 5717TIP3    H238711   5.125   1.188   7.780  0.4387  0.1378  0.5376
 5718TIP3   OH238712   4.876   1.042   0.537  0.1362 -0.7481 -0.3701
 5718TIP3    H138713   4.952   0.989   0.561  0.7227 -0.1359 -0.8249
 5718TIP3    H238714   4.912   1.127   0.515 -0.8986  0.2342  1.4845
 5719TIP3   OH238715   5.007   5.923   8.193  0.4700 -0.4104 -0.0292
 5719TIP3    H138716   4.978   5.832   8.191  0.0556 -0.3447  1.4628
 5719TIP3    H238717   5.058   5.934   8.113 -0.5287 -1.5836 -0.8583
 5720TIP3   OH238718   4.424   2.766   7.692  0.0077  0.0838 -0.9394
 5720TIP3    H138719   4.355   2.700   7.698  0.8047 -0.8151 -1.2537
 5720TIP3    H238720   4.378   2.848   7.674 -1.0233 -0.3513 -0.3643
 5721TIP3   OH238721   3.449   4.130   2.055 -0.3453 -0.8199  0.0050
 5721TIP3    H138722   3.388   4.097   2.121 -1.8205 -1.3771 -1.5509
 5721TIP3    H238723   3.423   4.220   2.041 -1.0172 -1.1332 -0.8463
 5722TIP3   OH238724   6.784   2.879   0.365 -0.7121 -0.3959  0.3487
 5722TIP3    H138725   6.689   2.885   0.370 -0.6845 -0.5528  1.1104
 5722TIP3    H238726   6.800   2.819   0.292 -1.1286  1.8095 -1.6926
 5723TIP3   OH238727   1.429   0.291   1.777 -0.1002 -0.0662  0.4026
 5723TIP3    H138728   1.347   0.311   1.821 -1.1639  1.2230 -1.9829
 5723TIP3    H238729   1.407   0.292   1.684  2.2760 -1.4002 -0.2590
 5724TIP3   OH238730   3.867   1.033   0.524 -0.0163 -0.3429 -0.3537
 5724TIP3    H138731   3.814   1.107   0.493  1.0363  0.0931 -1.1520
 5724TIP3    H238732   3.881   1.051   0.617 -2.1643 -1.0314  0.1734
 5725TIP3   OH238733   6.558   0.879   1.738 -0.4408 -0.2526  0.6510
 5725TIP3    H138734   6.576   0.958   1.789  0.7542 -1.1396  1.6513
 5725TIP3    H238735   6.525   0.816   1.802 -2.5795 -0.2197 -0.3377
 5726TIP3   OH238736   5.437   5.284   8.460  0.0780 -0.0553  0.1820
 5726TIP3    H138737   5.443   5.286   8.364  0.6475 -0.6650  0.1931
 5726TIP3    H238738   5.516   5.330   8.489 -0.2363  0.3691  0.3536
 5727TIP3   OH238739   0.470   2.695   8.617 -0.8743  1.0396  0.2971
 5727TIP3    H138740   0.401   2.752   8.583  0.3766  2.3995 -0.0781
 5727TIP3    H238741   0.485   2.632   8.547 -2.0712  0.3951  0.5961
 5728TIP3   OH238742   6.074   4.977   3.514  0.5813  0.0265  0.4872
 5728TIP3    H138743   6.025   5.004   3.436  0.2882 -0.1034  0.6248
 5728TIP3    H238744   6.131   5.051   3.533  2.9694 -1.0837 -1.6803
 5729TIP3   OH238745   0.357   3.688   1.379 -0.0889  0.3420  0.1051
 5729TIP3    H138746   0.428   3.707   1.440  0.1156  0.3543 -0.1313
 5729TIP3    H238747   0.303   3.767   1.378 -0.8492 -0.1483  1.2798
 5730TIP3   OH238748   5.769   6.799   2.566  0.2810 -0.0797  0.5050
 5730TIP3    H138749   5.801   6.889   2.564  0.4923 -0.1576  0.2017
 5730TIP3    H238750   5.710   6.795   2.641  0.8167  0.1303  0.9397
 5731TIP3   OH238751   0.026   3.156   1.271  0.2093 -0.3970 -0.1521
 5731TIP3    H138752  -0.047   3.098   1.249  0.5038 -0.5136 -0.8505
 5731TIP3    H238753  -0.016   3.236   1.304 -0.3079  0.1104 -1.9079
 5732TIP3   OH238754   0.262   3.547   0.955  0.2834 -0.3695  0.1535
 5732TIP3    H138755   0.174   3.558   0.990 -0.6787  1.1698 -2.4271
 5732TIP3    H238756   0.265   3.456   0.926 -0.2642 -0.5797  0.7372
 5733TIP3   OH238757   1.294   4.700   1.769 -0.6591 -0.2063  0.1107
 5733TIP3    H138758   1.240   4.776   1.788 -2.1848 -1.3325  0.4628
 5733TIP3    H238759   1.373   4.736   1.727 -1.1926  1.5622  0.5581
 5734TIP3   OH238760   4.581   0.630   8.409  0.2362 -0.3718  0.2915
 5734TIP3    H138761   4.503   0.680   8.383  1.0377  0.5275 -0.4702
 5734TIP3    H238762   4.653   0.692   8.397  1.4276 -2.0652 -1.8374
 5735TIP3   OH238763   2.083   4.258   1.137 -0.1199 -0.0394 -0.1357
 5735TIP3    H138764   2.173   4.241   1.107 -0.1317  0.1259 -0.2607
 5735TIP3    H238765   2.059   4.178   1.184  1.0780  0.9008  2.2890
 5736TIP3   OH238766   5.486   5.185   0.638  0.0411 -0.5651 -0.3406
 5736TIP3    H138767   5.434   5.256   0.597  0.3326 -0.3312 -0.3064
 5736TIP3    H238768   5.577   5.211   0.625  0.1539 -0.9888 -0.4176
 5737TIP3   OH238769   5.480   6.819   7.657  0.2238  0.3951  0.7462
 5737TIP3    H138770   5.416   6.805   7.587  0.9403 -0.1297  0.1749
 5737TIP3    H238771   5.557   6.854   7.612  0.6071  0.2739  1.3022
 5738TIP3   OH238772   0.683   1.413   8.209  0.8259  0.7431 -0.4658
 5738TIP3    H138773   0.658   1.394   8.299 -0.1623 -1.8407 -1.2233
 5738TIP3    H238774   0.777   1.394   8.206  1.0775  1.7651  0.1955
 5739TIP3   OH238775   4.429   6.796   2.180 -0.2998  0.6733  0.4806
 5739TIP3    H138776   4.426   6.747   2.262 -1.6299  1.5752  1.0209
 5739TIP3    H238777   4.343   6.781   2.140  0.5299 -0.1946 -1.0407
 5740TIP3   OH238778   0.267   6.778   8.286 -0.1200  0.8667  0.0391
 5740TIP3    H138779   0.262   6.767   8.191  1.2993 -0.4283  0.0733
 5740TIP3    H238780   0.316   6.701   8.316 -0.1761  1.4762  1.7745
 5741TIP3   OH238781   6.218   5.079   2.503  0.1330 -0.7231  0.0547
 5741TIP3    H138782   6.205   5.077   2.598  0.0241 -0.2229  0.0510
 5741TIP3    H238783   6.291   5.140   2.491 -0.5868  0.0918 -0.2624
 5742TIP3   OH238784   3.637   0.470   6.752 -0.5109  0.2230  0.4767
 5742TIP3    H138785   3.612   0.450   6.662  1.0655  0.3933 -0.0290
 5742TIP3    H238786   3.723   0.511   6.745 -0.6430  0.8446  2.0195
 5743TIP3   OH238787   0.008   0.985   8.058 -0.3648  0.1411  0.4270
 5743TIP3    H138788   0.024   1.028   8.142  1.1743  0.0249  0.2248
 5743TIP3    H238789  -0.087   0.974   8.055 -0.6222  1.7038  1.3692
 5744TIP3   OH238790   2.596   5.934   7.254  0.1202  0.2268 -0.1350
 5744TIP3    H138791   2.675   5.971   7.292 -0.2878  0.9456  0.0176
 5744TIP3    H238792   2.628   5.887   7.176  0.6706  0.6839 -0.1957
 5745TIP3   OH238793   3.352   4.771   2.948 -0.7160  0.0185 -0.0985
 5745TIP3    H138794   3.315   4.729   3.025 -0.3061 -2.9996 -1.4016
 5745TIP3    H238795   3.284   4.763   2.881 -0.2218  0.5379 -0.6751
 5746TIP3   OH238796   4.102   2.829   7.024 -0.1233 -0.1629 -0.2231
 5746TIP3    H138797   4.117   2.738   6.996 -0.9133 -0.0197 -1.2042
 5746TIP3    H238798   4.181   2.876   6.998  2.4251 -1.3127  4.3937
 5747TIP3   OH238799   3.573   1.795   2.093 -0.5846 -0.0673 -0.3347
 5747TIP3    H138800   3.577   1.857   2.167  1.0992 -1.3765  0.7471
 5747TIP3    H238801   3.557   1.850   2.017  0.2819  1.6422  0.6628
 5748TIP3   OH238802   2.861   2.513   7.506  0.3813  0.0863 -0.2712
 5748TIP3    H138803   2.943   2.477   7.472  0.6282  1.5552 -1.3498
 5748TIP3    H238804   2.811   2.537   7.427 -1.1951 -0.9851  0.3570
 5749TIP3   OH238805   6.496   3.659   0.042  0.3904 -0.3229  0.5048
 5749TIP3    H138806   6.502   3.735   0.100 -1.1083  0.7857 -0.7247
 5749TIP3    H238807   6.566   3.672  -0.022 -0.4675  0.5828 -0.2863
 5750TIP3   OH238808   6.414   1.379   2.263  0.6483 -0.2683 -0.7945
 5750TIP3    H138809   6.427   1.284   2.267 -1.0990 -0.5905 -1.7185
 5750TIP3    H238810   6.332   1.394   2.310  0.8876  0.8069 -0.6834
 5751TIP3   OH238811   2.452   5.355   0.607 -0.3138 -0.0745 -0.0590
 5751TIP3    H138812   2.383   5.406   0.564  0.0693 -0.2618 -0.9234
 5751TIP3    H238813   2.427   5.264   0.593  0.3522 -0.1525 -0.8121
 5752TIP3   OH238814   6.122   2.707   7.569 -0.1079  0.6731  0.2226
 5752TIP3    H138815   6.136   2.670   7.656 -2.3041 -1.1050 -0.0703
 5752TIP3    H238816   6.067   2.784   7.583 -0.4723  0.3791  0.4453
 5753TIP3   OH238817   4.984   0.895   7.520  0.0623 -0.3317 -0.2340
 5753TIP3    H138818   4.936   0.907   7.438  0.1802  3.3663  0.0693
 5753TIP3    H238819   4.917   0.905   7.588  0.0445 -2.9352  0.2283
 5754TIP3   OH238820   6.664   5.713   1.714  0.1247 -0.2737 -0.7847
 5754TIP3    H138821   6.678   5.807   1.718 -1.3341  0.0179 -1.8591
 5754TIP3    H238822   6.687   5.689   1.624 -0.1931 -0.8118 -0.7280
 5755TIP3   OH238823   5.011   5.497   2.314 -0.0672  0.0625  0.3727
 5755TIP3    H138824   5.027   5.576   2.262 -0.3979  0.5943  1.0669
 5755TIP3    H238825   5.098   5.472   2.345  0.0824 -0.0379 -0.1194
 5756TIP3   OH238826   3.740   6.788   8.269  0.4982 -0.2647 -0.5340
 5756TIP3    H138827   3.735   6.876   8.231 -2.8459  0.1404  0.5751
 5756TIP3    H238828   3.654   6.772   8.305  1.4676 -3.4338  0.7249
 5757TIP3   OH238829   6.562   4.893   7.734  0.3328 -0.6653 -0.0404
 5757TIP3    H138830   6.632   4.954   7.757 -0.2095  0.0164 -0.1657
 5757TIP3    H238831   6.509   4.887   7.813 -0.5847  0.3795 -0.5462
 5758TIP3   OH238832   4.352   3.721   2.959  0.5723  0.0770 -0.3547
 5758TIP3    H138833   4.322   3.689   3.044 -1.3728 -1.5172 -1.5362
 5758TIP3    H238834   4.309   3.806   2.949  0.3640  0.0194  0.0324
 5759TIP3   OH238835   6.096   3.858   0.590 -0.0316 -0.0576  0.3812
 5759TIP3    H138836   6.172   3.800   0.591  0.5224  0.6110 -0.7276
 5759TIP3    H238837   6.113   3.922   0.659 -0.4851 -0.9912  1.3808
 5760TIP3   OH238838   5.670   1.820   8.456 -0.0571 -0.2374 -0.3920
 5760TIP3    H138839   5.590   1.799   8.408 -0.3365  0.6671 -0.3424
 5760TIP3    H238840   5.644   1.825   8.547  0.2281 -0.7627 -0.2807
 5761TIP3   OH238841   0.305   1.225   1.601  0.1980  0.4097  0.3202
 5761TIP3    H138842   0.314   1.245   1.694 -1.5520 -2.7459  1.3185
 5761TIP3    H238843   0.373   1.160   1.584  0.1195  0.5253 -0.4681
 5762TIP3   OH238844   6.409   2.789   7.714 -0.5151  0.0861  0.3082
 5762TIP3    H138845   6.390   2.876   7.679  0.2023  0.2590  0.3340
 5762TIP3    H238846   6.477   2.804   7.780  1.3005 -0.7463 -1.2806
 5763TIP3   OH238847   5.592   1.908   0.039 -0.0568 -0.1658  0.0464
 5763TIP3    H138848   5.663   1.890   0.100 -1.0731 -0.4886  1.1838
 5763TIP3    H238849   5.595   2.003   0.026  0.0780 -0.0671  0.7438
 5764TIP3   OH238850   6.057   0.649   2.243 -0.0796  0.3689 -0.0611
 5764TIP3    H138851   6.116   0.639   2.169  0.2026 -1.6330  0.3663
 5764TIP3    H238852   5.978   0.690   2.207  0.9443  1.6308 -0.9468
 5765TIP3   OH238853   5.594   5.270   8.209 -0.1172 -0.1476  0.1322
 5765TIP3    H138854   5.540   5.207   8.161  0.6616  0.3036 -1.3816
 5765TIP3    H238855   5.656   5.215   8.258 -1.4580 -0.6428  1.3488
 5766TIP3   OH238856   1.207   4.569   2.193 -0.0279  0.2395  0.7441
 5766TIP3    H138857   1.227   4.618   2.273 -0.5804  2.0355 -0.1443
 5766TIP3    H238858   1.112   4.580   2.182  0.0115 -0.1529 -0.0360
 5767TIP3   OH238859   0.466   0.823   1.283  0.6836 -0.9223  0.3859
 5767TIP3    H138860   0.371   0.819   1.273  0.5836 -0.2008  1.0447
 5767TIP3    H238861   0.491   0.734   1.311  0.3619 -1.4679 -0.9611
 5768TIP3   OH238862   0.674   0.981   8.285 -0.0786  0.0688  0.2515
 5768TIP3    H138863   0.734   0.994   8.211 -0.5821  0.6359 -0.0688
 5768TIP3    H238864   0.601   0.932   8.248 -0.3362  0.3624  0.3646
 5769TIP3   OH238865   4.635   6.625   2.322 -0.0480 -0.7166 -0.2611
 5769TIP3    H138866   4.713   6.604   2.373 -0.0342  1.1641  0.5982
 5769TIP3    H238867   4.564   6.627   2.386 -0.2555  0.4774 -0.4971
 5770TIP3   OH238868   6.425   2.436   1.758  0.4998 -0.4301 -0.3563
 5770TIP3    H138869   6.485   2.484   1.815 -0.7860  1.2476 -0.3466
 5770TIP3    H238870   6.474   2.423   1.677  1.2678 -0.0882  0.0423
 5771TIP3   OH238871   3.135   1.836   3.143  0.8264  0.4124 -0.3163
 5771TIP3    H138872   3.060   1.880   3.184  0.8273 -0.2764  0.4511
 5771TIP3    H238873   3.212   1.881   3.179  0.7885  1.5663 -1.6186
 5772TIP3   OH238874   1.959   5.507   1.499  0.3813 -0.0993 -0.2509
 5772TIP3    H138875   1.967   5.523   1.405 -2.1800  0.7517 -0.4057
 5772TIP3    H238876   1.927   5.590   1.534 -0.0624 -0.8318  1.1484
 5773TIP3   OH238877   2.735   2.308   0.919  0.5298 -0.4616  0.0313
 5773TIP3    H138878   2.824   2.298   0.954 -0.6153 -1.5431  2.9125
 5773TIP3    H238879   2.678   2.282   0.991 -2.1544 -0.1391 -1.8441
 5774TIP3   OH238880   1.283   3.580   1.031 -0.4471 -0.1887  0.2608
 5774TIP3    H138881   1.260   3.664   0.990  2.5081  0.0045 -1.3136
 5774TIP3    H238882   1.270   3.515   0.962 -3.5096 -1.2848  1.7098
 5775TIP3   OH238883   4.105   0.232   7.467 -0.0276  0.0979  0.5352
 5775TIP3    H138884   4.035   0.168   7.456  0.8169 -0.5437 -1.6930
 5775TIP3    H238885   4.084   0.278   7.548 -1.8878 -1.4587  0.9889
 5776TIP3   OH238886   5.028   2.544   8.341 -0.5516 -0.2348  0.3680
 5776TIP3    H138887   5.121   2.525   8.334 -0.7880 -1.1696 -0.4011
 5776TIP3    H238888   5.024   2.639   8.354  0.4636 -0.0034 -0.7981
 5777TIP3   OH238889   3.159   0.342   1.907  0.7059  1.0477  0.6073
 5777TIP3    H138890   3.249   0.376   1.908  1.6074 -1.1614  1.4847
 5777TIP3    H238891   3.125   0.363   1.993  0.3293  1.9709  0.2406
 5778TIP3   OH238892   1.801   2.252   2.649 -0.1079  0.3401  0.0844
 5778TIP3    H138893   1.781   2.340   2.681  0.1672  0.0818  0.9917
 5778TIP3    H238894   1.769   2.193   2.718  1.5321 -0.1763  0.4403
 5779TIP3   OH238895   3.272   5.737   8.728  0.0711 -0.2501  0.2363
 5779TIP3    H138896   3.215   5.801   8.772 -0.4375 -0.4258 -0.1542
 5779TIP3    H238897   3.308   5.784   8.653  0.7136 -0.0363  0.6755
 5780TIP3   OH238898   2.179   4.886   0.817  0.2945  0.3459 -0.1367
 5780TIP3    H138899   2.096   4.931   0.804  0.6671  1.2015  0.3696
 5780TIP3    H238900   2.233   4.949   0.865  1.8226  0.4614 -1.8840
 5781TIP3   OH238901   6.212   5.553   7.350  0.2651  0.4295 -0.3113
 5781TIP3    H138902   6.219   5.513   7.263 -0.7948  0.9238 -0.6414
 5781TIP3    H238903   6.296   5.534   7.391  1.1516  0.9771 -1.7830
 5782TIP3   OH238904   3.655   0.293   2.107  0.2958  0.7900  0.1042
 5782TIP3    H138905   3.568   0.262   2.129  0.9477 -1.0638  0.2362
 5782TIP3    H238906   3.673   0.362   2.171  0.3249 -1.3167  2.5429
 5783TIP3   OH238907   2.070   2.041   0.161  0.6455  0.3688  0.0695
 5783TIP3    H138908   2.122   1.962   0.175  2.1288  1.4433  0.8868
 5783TIP3    H238909   2.041   2.036   0.070 -1.0326 -2.0765  0.6438
 5784TIP3   OH238910   0.193   5.987   7.908  0.9234 -0.5037  0.3181
 5784TIP3    H138911   0.168   6.025   7.992  0.5396  0.8405 -0.3884
 5784TIP3    H238912   0.123   6.011   7.848  1.5146 -0.8877 -0.5502
 5785TIP3   OH238913   6.635   5.094   2.844  0.1774 -0.5949  0.2578
 5785TIP3    H138914   6.573   5.151   2.890 -0.0283  1.2884 -2.1585
 5785TIP3    H238915   6.710   5.151   2.825 -0.1070 -0.9759 -2.3901
 5786TIP3   OH238916   1.461   0.802   8.067  0.0141 -0.2520  0.2353
 5786TIP3    H138917   1.509   0.721   8.083  1.1512  0.3756  0.0463
 5786TIP3    H238918   1.525   0.872   8.080 -0.3725  0.5309 -1.6743
 5787TIP3   OH238919   2.774   1.540   0.934  0.1510 -0.1268  0.8853
 5787TIP3    H138920   2.724   1.577   1.007  0.5403  1.4547  0.3950
 5787TIP3    H238921   2.709   1.519   0.868 -0.0468  0.0340  1.0277
 5788TIP3   OH238922   6.821   2.794   1.385  0.1617 -0.2564 -0.1272
 5788TIP3    H138923   6.746   2.837   1.427 -1.0267 -1.2841 -1.1605
 5788TIP3    H238924   6.889   2.862   1.384 -1.0071  0.9557  0.0950
 5789TIP3   OH238925   2.769   4.802   2.490 -0.0659  0.1846 -0.2121
 5789TIP3    H138926   2.842   4.782   2.431  1.3032  0.0569  1.4351
 5789TIP3    H238927   2.785   4.893   2.518  0.3819 -0.3240  1.3254
 5790TIP3   OH238928   0.456   3.402   1.957 -0.1819  0.1069 -0.2480
 5790TIP3    H138929   0.477   3.334   2.021  1.5853  1.4037  0.6416
 5790TIP3    H238930   0.361   3.413   1.964 -0.0597  0.1614  2.1347
 5791TIP3   OH238931   5.934   4.884   0.169 -0.0662 -0.2456 -0.2417
 5791TIP3    H138932   5.989   4.808   0.149  0.3342  0.2305 -0.9868
 5791TIP3    H238933   5.977   4.957   0.125 -0.5463  0.3865  0.3201
 5792TIP3   OH238934   1.337   2.902   2.146  0.6899  0.2600  1.0296
 5792TIP3    H138935   1.285   2.937   2.074 -1.6459 -1.8033  1.5677
 5792TIP3    H238936   1.418   2.873   2.105 -0.8220 -1.4291 -1.0005
 5793TIP3   OH238937   0.965   1.697   7.818 -0.3285  0.2911  0.7460
 5793TIP3    H138938   0.886   1.646   7.800  0.5435 -0.7691 -0.2762
 5793TIP3    H238939   1.000   1.660   7.899 -0.1567 -0.1702  0.4637
 5794TIP3   OH238940   6.490   2.395   7.557 -0.6356  0.4572  0.0671
 5794TIP3    H138941   6.515   2.456   7.487 -1.8605 -0.2321 -0.9947
 5794TIP3    H238942   6.526   2.311   7.530  1.0584  0.6460  1.5370
 5795TIP3   OH238943   0.986   4.958   8.565  0.0399  0.4334  0.3146
 5795TIP3    H138944   0.923   4.980   8.634  0.6385  1.3716  0.5880
 5795TIP3    H238945   1.072   4.971   8.606  0.4132  1.6016 -0.7582
 5796TIP3   OH238946   5.438   2.591   0.409 -0.0688 -0.3300  0.0764
 5796TIP3    H138947   5.525   2.570   0.441  0.5480  1.0127 -0.6268
 5796TIP3    H238948   5.378   2.547   0.469  1.0844 -0.6746  0.9972
 5797TIP3   OH238949   5.866   5.574   0.030  0.4700  0.6355  0.0630
 5797TIP3    H138950   5.914   5.498  -0.003 -0.4286 -0.0515  0.2952
 5797TIP3    H238951   5.860   5.559   0.125  0.0192  0.8409  0.0698
 5798TIP3   OH238952   4.228   4.995   1.363 -1.2290 -0.4864  0.2152
 5798TIP3    H138953   4.182   5.026   1.285 -0.1405 -1.9318 -1.0578
 5798TIP3    H238954   4.181   4.915   1.388 -2.7231  0.9030  2.2228
 5799TIP3   OH238955   2.912   3.919   1.070  0.2432  0.2105 -0.2072
 5799TIP3    H138956   2.976   3.986   1.048 -0.6396  0.7757 -1.1732
 5799TIP3    H238957   2.918   3.855   0.998 -1.0002  0.8281 -0.8919
 5800TIP3   OH238958   3.278   5.201   1.753  0.1671 -0.4710 -0.0861
 5800TIP3    H138959   3.298   5.108   1.762 -0.3410 -0.6665 -0.8465
 5800TIP3    H238960   3.217   5.205   1.679  0.4969  0.5095 -0.3195
 5801TIP3   OH238961   6.708   0.433   1.208  0.0680 -0.7395 -0.3319
 5801TIP3    H138962   6.725   0.517   1.251 -0.3690  0.0333 -1.6187
 5801TIP3    H238963   6.723   0.450   1.115 -0.2880 -2.0167 -0.6404
 5802TIP3   OH238964   4.641   5.137   1.083 -0.1819 -0.1404 -0.6389
 5802TIP3    H138965   4.589   5.197   1.031 -1.3669 -0.7399 -0.1681
 5802TIP3    H238966   4.664   5.186   1.162 -4.1056 -1.2361  1.4570
 5803TIP3   OH238967   1.767   5.076   7.762  0.4219 -0.1152 -0.0578
 5803TIP3    H138968   1.822   5.087   7.685 -1.5701  1.9714 -1.3097
 5803TIP3    H238969   1.727   4.989   7.752  1.6206 -0.6419 -0.3561
 5804TIP3   OH238970   1.075   0.968   1.626 -0.0569 -0.2427 -0.1808
 5804TIP3    H138971   1.028   0.900   1.578 -0.6042  1.4695 -2.2321
 5804TIP3    H238972   1.157   0.979   1.579  2.0420 -2.3256  2.6357
 5805TIP3   OH238973   1.073   4.890   7.868  0.0520 -0.0480 -0.1001
 5805TIP3    H138974   1.111   4.908   7.782  1.3333 -1.8799  0.0034
 5805TIP3    H238975   1.029   4.805   7.857  0.9827 -0.7383  1.2305
 5806TIP3   OH238976   1.481   5.897   2.618 -0.6600 -0.5628  0.1106
 5806TIP3    H138977   1.414   5.890   2.686 -0.7016  2.1248  0.4359
 5806TIP3    H238978   1.552   5.946   2.659 -0.3635  0.4631 -1.5381
 5807TIP3   OH238979   5.503   1.547   1.679  0.7305  0.1289 -0.1410
 5807TIP3    H138980   5.534   1.571   1.766 -2.1369  0.4320  0.8942
 5807TIP3    H238981   5.465   1.628   1.644  0.4666 -0.3681 -1.0458
 5808TIP3   OH238982   6.060   0.439   1.905 -0.2214  0.0639 -0.6899
 5808TIP3    H138983   6.017   0.465   1.987 -0.8922 -0.7073 -0.7781
 5808TIP3    H238984   6.035   0.347   1.893  1.8745 -0.5962 -0.4916
 5809TIP3   OH238985   4.715   0.846   8.351 -0.0992  0.4322  0.3025
 5809TIP3    H138986   4.745   0.935   8.337  0.2731  0.1007 -1.2463
 5809TIP3    H238987   4.785   0.791   8.316 -0.6378 -0.4452  0.5571
 5810TIP3   OH238988   4.477   1.084   8.535  0.2018 -0.5650 -0.4592
 5810TIP3    H138989   4.423   1.023   8.585 -1.3229  0.9404 -0.1506
 5810TIP3    H238990   4.475   1.050   8.445 -4.6938  1.3753 -1.4003
 5811TIP3   OH238991   1.091   0.169   7.946  0.2496  0.0561 -0.1427
 5811TIP3    H138992   1.133   0.106   7.887 -0.3627 -0.8249  0.3352
 5811TIP3    H238993   1.125   0.254   7.919  0.0532 -0.3358 -1.7171
 5812TIP3   OH238994   3.254   0.702   1.429 -0.1979 -0.1598  0.1015
 5812TIP3    H138995   3.323   0.761   1.397  1.1265 -1.6523  0.1116
 5812TIP3    H238996   3.201   0.757   1.486  0.2032  1.3585 -0.9274
 5813TIP3   OH238997   5.831   6.486   1.582  0.0686  0.9833  0.0604
 5813TIP3    H138998   5.858   6.405   1.539 -1.6219 -1.2568  2.8486
 5813TIP3    H238999   5.744   6.504   1.545  0.3551  1.4410 -0.4045
 5814TIP3   OH239000   0.651   1.950   0.885  0.2157  0.0677  0.0510
 5814TIP3    H139001   0.716   1.941   0.815 -1.1441 -0.5692 -1.2036
 5814TIP3    H239002   0.643   1.861   0.921 -0.8441 -0.1711 -0.6925
 5815TIP3   OH239003   2.860   0.415   1.835  0.0018  0.2593 -0.6933
 5815TIP3    H139004   2.940   0.371   1.864  0.3666  0.5835 -1.1905
 5815TIP3    H239005   2.889   0.473   1.765 -0.7120  0.1865 -1.0578
 5816TIP3   OH239006   2.292   4.394   0.768 -0.3150  0.1847 -0.0731
 5816TIP3    H139007   2.271   4.422   0.679 -0.1286 -0.8608 -0.4661
 5816TIP3    H239008   2.279   4.472   0.822  0.1712  1.0030 -1.0987
 5817TIP3   OH239009   3.165   2.183   0.668 -0.0479 -0.1124 -0.1588
 5817TIP3    H139010   3.259   2.185   0.654  0.2011  1.8495  1.3405
 5817TIP3    H239011   3.132   2.119   0.604  2.2807 -0.9640 -0.5952
 5818TIP3   OH239012   4.214   4.476   1.010 -0.2909  0.2899 -0.1385
 5818TIP3    H139013   4.206   4.404   1.072  2.5636 -0.7445 -0.7895
 5818TIP3    H239014   4.226   4.554   1.065  1.5907 -0.5175  0.6839
 5819TIP3   OH239015   0.460   3.347   2.400  0.4727 -0.7538  0.0998
 5819TIP3    H139016   0.552   3.368   2.383  0.5400 -1.3854 -0.3338
 5819TIP3    H239017   0.456   3.251   2.398  0.0764 -0.7945  1.5603
 5820TIP3   OH239018   3.104   6.091   8.133 -0.1110  0.1490  0.1227
 5820TIP3    H139019   3.170   6.159   8.137 -0.2306  0.2418  0.5843
 5820TIP3    H239020   3.025   6.131   8.170 -0.0489 -0.3860  0.8569
 5821TIP3   OH239021   1.546   4.763   8.675 -0.1809  0.4355 -0.1354
 5821TIP3    H139022   1.593   4.772   8.592 -1.3682  1.7394 -0.7009
 5821TIP3    H239023   1.556   4.847   8.719 -0.1287 -0.0168  0.7597
 5822TIP3   OH239024   1.511   4.420   2.103  0.6745 -0.3882  0.1267
 5822TIP3    H139025   1.516   4.512   2.129  0.6776 -0.2324 -0.4241
 5822TIP3    H239026   1.428   4.389   2.141 -0.6468  0.5333 -1.8485
 5823TIP3   OH239027   4.308   2.982   0.028 -0.6071  0.7356 -0.1710
 5823TIP3    H139028   4.233   2.944  -0.016 -0.3823  1.1437 -0.9321
 5823TIP3    H239029   4.332   2.918   0.095 -1.0558  0.1745 -0.5369
 5824TIP3   OH239030   1.217   2.547   7.803 -0.3650 -0.2171 -0.0454
 5824TIP3    H139031   1.138   2.494   7.790 -0.5394  0.4422 -1.9726
 5824TIP3    H239032   1.200   2.628   7.754  0.9510  0.5256  0.6701
 5825TIP3   OH239033   5.748   3.757   8.367  0.4085 -0.2411  0.0048
 5825TIP3    H139034   5.696   3.720   8.439  0.5419  0.4323  0.4574
 5825TIP3    H239035   5.688   3.817   8.322  0.2103 -0.9490 -0.6908
 5826TIP3   OH239036   6.752   4.541   8.228 -0.1591  0.2541 -0.5646
 5826TIP3    H139037   6.747   4.636   8.231  0.1840  0.2782  2.2614
 5826TIP3    H239038   6.670   4.511   8.268 -0.2137 -0.6475 -1.3180
 5827TIP3   OH239039   2.960   2.012   2.805  0.3328  0.4287 -0.3712
 5827TIP3    H139040   2.911   2.094   2.805 -0.2715  0.1257  2.2317
 5827TIP3    H239041   2.944   1.975   2.718 -1.3774  1.8804 -0.7298
 5828TIP3   OH239042   6.549   1.554   0.919 -0.8436 -0.5908  0.1169
 5828TIP3    H139043   6.519   1.604   0.995 -0.2465  0.1889 -0.1405
 5828TIP3    H239044   6.596   1.479   0.956  1.3007  0.8814  0.5941
 5829TIP3   OH239045   2.038   5.660   1.813 -0.6187 -0.2231 -0.2530
 5829TIP3    H139046   2.086   5.590   1.857 -0.7255  1.9178  3.6656
 5829TIP3    H239047   2.096   5.687   1.741  1.7702 -0.9956  1.2538
 5830TIP3   OH239048   1.763   0.060   1.051 -0.5896  0.6655  0.1478
 5830TIP3    H139049   1.716   0.139   1.026  1.9167  1.9936 -0.7302
 5830TIP3    H239050   1.851   0.091   1.076  0.0639 -1.7068  1.0657
 5831TIP3   OH239051   1.362   2.399   1.375 -0.0784  0.0886 -0.1838
 5831TIP3    H139052   1.421   2.326   1.353  0.2747  0.7820 -1.6141
 5831TIP3    H239053   1.391   2.427   1.462  0.4306 -0.8254 -0.0413
 5832TIP3   OH239054   5.614   0.646   8.737  0.0928  0.3712  0.2658
 5832TIP3    H139055   5.687   0.688   8.690 -1.0835  0.2659 -1.7670
 5832TIP3    H239056   5.570   0.594   8.670 -1.2745 -0.3561  1.6830
 5833TIP3   OH239057   0.151   2.755   1.619 -0.4850 -0.3431 -0.4442
 5833TIP3    H139058   0.140   2.698   1.695  2.0805  0.2709  0.4879
 5833TIP3    H239059   0.144   2.697   1.544  1.3809 -1.8535  0.4532
 5834TIP3   OH239060   1.628   6.488   8.671  0.7441  0.4010 -0.2136
 5834TIP3    H139061   1.660   6.551   8.735 -2.1231  0.9108  0.8806
 5834TIP3    H239062   1.574   6.540   8.611 -1.7693 -0.8673  0.7745
 5835TIP3   OH239063   2.351   4.669   0.881 -0.1606  0.1781 -0.0111
 5835TIP3    H139064   2.356   4.635   0.971 -0.8323 -1.2000 -0.4629
 5835TIP3    H239065   2.276   4.729   0.883 -1.6128 -1.5250 -0.1099
 5836TIP3   OH239066   1.725   3.235   0.833  0.6669 -0.3025 -0.0093
 5836TIP3    H139067   1.704   3.159   0.887  1.0077  0.7871  1.7051
 5836TIP3    H239068   1.820   3.233   0.824  0.7430  0.2841  0.6077
 5837TIP3   OH239069   3.997   3.631   0.494 -0.1580 -0.2918 -0.3965
 5837TIP3    H139070   4.063   3.662   0.432 -0.2120  0.1864 -0.2218
 5837TIP3    H239071   3.914   3.635   0.446 -0.0384 -1.0487 -0.6680
 5838TIP3   OH239072   1.909   0.906   7.225 -0.3405 -0.1739  0.1561
 5838TIP3    H139073   1.868   0.828   7.263  0.1954 -2.0362 -2.7862
 5838TIP3    H239074   1.842   0.944   7.169  0.7284 -1.1780 -1.9024
 5839TIP3   OH239075   1.064   4.387   0.386  0.5540  0.2796 -0.2452
 5839TIP3    H139076   1.105   4.472   0.400 -2.6017  1.8132  0.6601
 5839TIP3    H239077   1.014   4.398   0.305  0.5528 -0.9234 -0.4248
 5840TIP3   OH239078   2.346   1.869   8.180  0.1785  0.2659  0.6438
 5840TIP3    H139079   2.277   1.832   8.235 -0.5554  0.0403 -0.3980
 5840TIP3    H239080   2.306   1.945   8.138  0.5038  0.0456 -0.0854
 5841TIP3   OH239081   4.029   3.167   0.454  0.2132 -0.5508  0.2449
 5841TIP3    H139082   3.983   3.196   0.532 -2.0321 -1.5053 -0.6348
 5841TIP3    H239083   4.103   3.117   0.487  1.2576  1.7586  1.7207
 5842TIP3   OH239084   3.089   1.339   7.534 -0.5567 -0.4615 -0.5327
 5842TIP3    H139085   3.027   1.335   7.607 -2.4117  0.6500 -1.9501
 5842TIP3    H239086   3.170   1.370   7.573 -1.7636  1.0305  0.9388
 5843TIP3   OH239087   2.442   2.066   0.323 -0.6321  0.6160 -0.1434
 5843TIP3    H139088   2.357   2.026   0.344 -0.4174  0.2574  0.0501
 5843TIP3    H239089   2.440   2.075   0.227  0.2538 -2.0834 -0.4921
 5844TIP3   OH239090   2.667   6.637   8.205 -0.0302 -0.8814 -0.4908
 5844TIP3    H139091   2.620   6.624   8.122 -1.3271 -0.2176  0.1088
 5844TIP3    H239092   2.633   6.720   8.238  0.0100 -1.4419  1.0208
 5845TIP3   OH239093   6.270   3.121   0.011  0.3130  0.0107  0.7456
 5845TIP3    H139094   6.227   3.127  -0.075  2.1190  0.4202 -0.1712
 5845TIP3    H239095   6.316   3.037   0.009  1.7984  0.8037  0.5959
 5846TIP3   OH239096   6.373   0.534   8.758  0.6507 -0.0934 -0.0930
 5846TIP3    H139097   6.450   0.479   8.745  0.9687  0.3545 -0.1230
 5846TIP3    H239098   6.327   0.531   8.674  0.7312 -0.2041 -0.1340
 5847TIP3   OH239099   1.057   1.712   2.838  0.5084  0.1989  0.2482
 5847TIP3    H139100   1.038   1.735   2.929  1.4619  0.9900  0.2589
 5847TIP3    H239101   1.148   1.681   2.840  0.4528 -0.0128 -0.3951
 5848TIP3   OH239102   3.337   2.611   0.412 -0.3562 -0.1736  0.4733
 5848TIP3    H139103   3.245   2.612   0.437 -0.0071 -1.2111  1.8950
 5848TIP3    H239104   3.362   2.518   0.416  0.8528  0.1385  0.5104
 5849TIP3   OH239105   1.595   2.474   8.732  0.3849 -0.2906  0.4378
 5849TIP3    H139106   1.661   2.437   8.790 -0.0402 -0.9891  0.4868
 5849TIP3    H239107   1.637   2.479   8.646 -0.3215 -3.3400 -0.1934
 5850TIP3   OH239108   2.779   6.028   0.570  0.4866  0.6015 -0.1564
 5850TIP3    H139109   2.793   6.109   0.618 -0.8801  0.8168 -0.0833
 5850TIP3    H239110   2.856   5.975   0.589  0.2071  0.8675  1.8626
 5851TIP3   OH239111   4.969   4.494   1.012  0.0917  0.0079 -0.2360
 5851TIP3    H139112   5.046   4.513   0.958 -0.6720  1.3742 -0.9032
 5851TIP3    H239113   4.987   4.409   1.051  0.6107 -1.1752 -2.8480
 5852TIP3   OH239114   3.666   1.110   7.449  0.3516 -0.3278 -0.0777
 5852TIP3    H139115   3.597   1.176   7.456  0.9468  0.2774  0.1527
 5852TIP3    H239116   3.715   1.134   7.371 -1.3584 -2.3841 -1.9295
 5853TIP3   OH239117   3.881   0.402   7.063  0.2302 -0.1315 -0.4935
 5853TIP3    H139118   3.881   0.459   7.140  1.1166  0.2362 -0.7479
 5853TIP3    H239119   3.874   0.314   7.098  0.2535  0.0544 -0.0160
 5854TIP3   OH239120   1.239   6.263   8.649  0.1544  0.0149 -0.5967
 5854TIP3    H139121   1.147   6.245   8.666  0.2066  1.1131  1.0775
 5854TIP3    H239122   1.284   6.241   8.731  1.5080 -1.2060 -1.6110
 5855TIP3   OH239123   2.686   5.751   7.065 -0.1739  0.1626  0.3475
 5855TIP3    H139124   2.736   5.703   6.999 -1.0076 -0.4190  0.1243
 5855TIP3    H239125   2.595   5.746   7.035 -0.3575  1.3205  0.6692
 5856TIP3   OH239126   2.315   5.614   8.572 -0.0492  0.3723  0.3069
 5856TIP3    H139127   2.299   5.707   8.591  2.0205  1.1283 -1.2789
 5856TIP3    H239128   2.326   5.574   8.659  0.7845  1.9938  1.0041
 5857TIP3   OH239129   6.146   6.619   2.163  0.2133 -0.2083  0.0857
 5857TIP3    H139130   6.212   6.549   2.158  1.0184  0.6181 -1.4199
 5857TIP3    H239131   6.174   6.673   2.236  0.8076 -0.2667 -0.0925
 5858TIP3   OH239132   3.891   2.745   8.458 -1.3330 -0.1369  0.1636
 5858TIP3    H139133   3.895   2.650   8.470  0.8309 -0.3013 -1.1430
 5858TIP3    H239134   3.980   2.769   8.430 -1.9096  2.2276  0.1229
 5859TIP3   OH239135   4.204   1.299   7.988 -0.3941  0.3607  0.5105
 5859TIP3    H139136   4.176   1.257   7.907  1.2303  1.0360 -0.4531
 5859TIP3    H239137   4.131   1.357   8.011 -1.3410 -0.6551  0.1609
 5860TIP3   OH239138   1.662   6.102   0.119  0.2014 -0.5089  0.2380
 5860TIP3    H139139   1.614   6.145   0.190  0.8813  1.5900 -0.4922
 5860TIP3    H239140   1.649   6.008   0.135 -1.9639 -0.0764  1.5213
 5861TIP3   OH239141   6.372   5.959   8.494 -0.4270  0.6214  0.2719
 5861TIP3    H139142   6.281   5.936   8.510 -0.1414 -1.4266 -0.8029
 5861TIP3    H239143   6.387   5.937   8.402  1.0912  1.1385  0.3658
 5862TIP3   OH239144   2.428   6.207   7.800  0.4917 -0.4281  0.2633
 5862TIP3    H139145   2.375   6.162   7.866 -0.5805  1.2157  0.5775
 5862TIP3    H239146   2.516   6.211   7.838  0.4193 -1.4984  0.5759
 5863TIP3   OH239147   3.558   2.667   1.016  0.1448 -0.0767 -0.1528
 5863TIP3    H139148   3.568   2.582   0.974 -1.8869 -0.7050  0.5519
 5863TIP3    H239149   3.576   2.651   1.108  1.8939  0.7508 -0.2960
 5864TIP3   OH239150   3.468   0.590   2.198 -0.1878  0.0998 -0.1652
 5864TIP3    H139151   3.427   0.666   2.240 -0.4724 -0.1278 -0.0257
 5864TIP3    H239152   3.394   0.537   2.168  0.0144  0.2631 -0.9620
 5865TIP3   OH239153   1.270   5.477   8.449  0.2803  0.2323 -0.1067
 5865TIP3    H139154   1.318   5.555   8.475 -0.6581  0.4292  1.1468
 5865TIP3    H239155   1.181   5.508   8.433 -0.3882 -0.6998  1.4909
 5866TIP3   OH239156   0.230   6.435   1.128 -0.1313 -0.1867  0.5341
 5866TIP3    H139157   0.152   6.483   1.097  0.1979  0.1024  0.1439
 5866TIP3    H239158   0.201   6.391   1.208 -0.7920 -0.3457  0.2152
 5867TIP3   OH239159   6.476   4.452   8.065  0.5908  0.0269 -0.5971
 5867TIP3    H139160   6.494   4.471   8.157 -0.0693  0.1820 -0.4999
 5867TIP3    H239161   6.459   4.357   8.062  1.3478 -0.1153 -0.6824
 5868TIP3   OH239162   2.057   2.053   7.839 -0.7234 -0.4368  0.4310
 5868TIP3    H139163   1.979   2.079   7.889 -1.1885  0.3828 -0.6790
 5868TIP3    H239164   2.033   2.069   7.748  0.4139 -1.0999 -0.0021
 5869TIP3   OH239165   2.217   4.716   7.432 -0.3519  0.1273 -0.0042
 5869TIP3    H139166   2.124   4.719   7.409 -0.0209 -0.3886 -1.5045
 5869TIP3    H239167   2.262   4.695   7.350  0.9585 -1.3870  1.0451
 5870TIP3   OH239168   6.620   6.043   0.584  0.0613 -0.2593 -0.0973
 5870TIP3    H139169   6.709   6.076   0.591  0.4776 -1.5343  0.9093
 5870TIP3    H239170   6.629   5.958   0.542 -0.6736 -0.4249  0.0668
 5871TIP3   OH239171   5.398   1.583   0.088 -0.1216  0.1652  0.3999
 5871TIP3    H139172   5.342   1.604   0.014 -1.0978 -0.8510  0.8240
 5871TIP3    H239173   5.449   1.663   0.103  0.8797  0.0638 -2.0099
 5872TIP3   OH239174   5.141   4.513   8.094  0.0443 -0.0157 -0.4732
 5872TIP3    H139175   5.076   4.443   8.099  1.6052 -1.4813  0.1590
 5872TIP3    H239176   5.130   4.563   8.175  1.3797 -1.8629  0.9294
 5873TIP3   OH239177   5.390   2.804   7.559 -0.4794 -0.3740 -0.0930
 5873TIP3    H139178   5.349   2.853   7.488 -0.9408  2.0933  1.7589
 5873TIP3    H239179   5.317   2.771   7.611 -0.1389 -1.9289 -0.5379
 5874TIP3   OH239180   1.481   4.768   8.201  0.0468  0.2129 -0.0639
 5874TIP3    H139181   1.530   4.813   8.270 -0.0031  0.1631  0.0043
 5874TIP3    H239182   1.549   4.730   8.144  0.0904 -0.0218  0.1407
 5875TIP3   OH239183   4.433   6.681   0.832  0.1091 -0.0559  0.1687
 5875TIP3    H139184   4.365   6.633   0.784  0.1702 -1.0232  1.0054
 5875TIP3    H239185   4.514   6.664   0.783  0.4143 -2.1526  1.2713
 5876TIP3   OH239186   3.241   5.009   7.928 -0.1279  0.1817 -0.1124
 5876TIP3    H139187   3.294   5.088   7.934  1.7465 -1.1193  2.2199
 5876TIP3    H239188   3.267   4.970   7.844  1.5738  0.3296  0.3015
 5877TIP3   OH239189   5.501   0.979   2.427 -0.3457 -0.0356 -0.3346
 5877TIP3    H139190   5.551   0.936   2.497  0.0297  1.4035  0.3104
 5877TIP3    H239191   5.562   1.040   2.387 -1.2725  0.9946 -0.2294
 5878TIP3   OH239192   6.171   0.452   0.161  0.1380  0.4642 -0.2908
 5878TIP3    H139193   6.137   0.392   0.094  2.3642 -0.6922 -0.4662
 5878TIP3    H239194   6.249   0.491   0.121  1.7605 -0.5475  1.7289
 5879TIP3   OH239195   5.557   0.543   2.410 -0.0426  0.1597 -0.2406
 5879TIP3    H139196   5.590   0.511   2.326 -0.6859 -3.2819  0.6615
 5879TIP3    H239197   5.635   0.567   2.460  0.9160 -3.3221  0.1553
 5880TIP3   OH239198   6.239   1.210   0.382  0.4041  0.2032  0.0137
 5880TIP3    H139199   6.300   1.153   0.334 -0.1234 -1.6832  1.4789
 5880TIP3    H239200   6.153   1.187   0.347 -0.0737 -1.7471  2.2438
 5881TIP3   OH239201   6.753   0.330   8.450 -0.3969 -0.0436  0.4044
 5881TIP3    H139202   6.733   0.394   8.381  0.2804 -0.3592 -0.0989
 5881TIP3    H239203   6.804   0.263   8.405 -1.9533 -1.4751  0.6815
 5882TIP3   OH239204   4.302   3.961   1.979  0.0465 -0.2563 -0.5794
 5882TIP3    H139205   4.364   3.890   1.995  2.1717  1.1450 -1.9637
 5882TIP3    H239206   4.318   4.023   2.051  0.2203  0.0603 -0.8846
 5883TIP3   OH239207   3.207   6.392   1.457  0.0454  0.1385  0.0763
 5883TIP3    H139208   3.161   6.329   1.513  1.5524 -0.0580  1.1467
 5883TIP3    H239209   3.140   6.423   1.397 -0.8131 -2.2776 -0.3212
 5884TIP3   OH239210   0.148   6.763   7.419 -0.0763  0.1183  0.1434
 5884TIP3    H139211   0.224   6.744   7.473  0.7561  0.7353 -0.7764
 5884TIP3    H239212   0.112   6.844   7.457  0.1728  0.2402  0.1222
 5885TIP3   OH239213   4.163   0.791   0.505 -0.1773  0.4850 -0.1939
 5885TIP3    H139214   4.068   0.777   0.499 -0.1201 -0.5102  0.9076
 5885TIP3    H239215   4.177   0.875   0.463 -1.5893  0.7664 -0.1578
 5886TIP3   OH239216   2.924   1.122   2.109 -0.2965  0.0975 -0.9655
 5886TIP3    H139217   2.867   1.079   2.172 -0.2667  1.5691  0.0992
 5886TIP3    H239218   2.894   1.089   2.024 -3.8089  1.8841 -0.6240
 5887TIP3   OH239219   4.127   0.797   3.092  0.5169 -0.1094  0.5015
 5887TIP3    H139220   4.151   0.838   3.009  0.8466  0.4133  0.8516
 5887TIP3    H239221   4.040   0.831   3.112  0.1904 -0.6851  0.0846
 5888TIP3   OH239222   0.219   0.819   8.349  0.0637  0.1334  0.1058
 5888TIP3    H139223   0.222   0.910   8.319  1.6888 -0.3625 -1.3914
 5888TIP3    H239224   0.215   0.825   8.444 -0.0101  1.7580  0.0288
 5889TIP3   OH239225   0.713   0.761   1.647  0.0655 -0.0500 -0.0146
 5889TIP3    H139226   0.721   0.666   1.640  0.2031  0.0145 -0.9189
 5889TIP3    H239227   0.749   0.782   1.733 -2.3496 -1.0517  1.3457
 5890TIP3   OH239228   4.880   0.886   8.035 -0.4966 -0.5239 -0.1055
 5890TIP3    H139229   4.874   0.803   8.082 -0.5141 -0.7893 -0.5727
 5890TIP3    H239230   4.948   0.935   8.082 -2.4006  0.3687  1.9422
 5891TIP3   OH239231   3.059   2.659   0.157 -0.2859 -0.1016 -0.7671
 5891TIP3    H139232   3.153   2.644   0.151  0.0107  1.2359  0.1382
 5891TIP3    H239233   3.049   2.717   0.233 -1.9163 -0.8531 -0.3637
 5892TIP3   OH239234   1.685   6.721   0.837 -0.3685 -0.0691 -0.4096
 5892TIP3    H139235   1.733   6.770   0.905 -1.6740  0.9966 -0.2206
 5892TIP3    H239236   1.699   6.629   0.860  0.0164  0.2580  0.7448
 5893TIP3   OH239237   3.083   5.023   8.737 -0.7068 -0.0441  0.3354
 5893TIP3    H139238   3.140   4.978   8.675  0.5971 -0.5343  1.8287
 5893TIP3    H239239   3.133   5.025   8.819 -2.0088  1.3628  1.1508
 5894TIP3   OH239240   5.556   2.195   1.568  0.6552 -0.6018  0.1143
 5894TIP3    H139241   5.587   2.258   1.504 -1.3351  0.6738  0.3216
 5894TIP3    H239242   5.562   2.240   1.652 -0.1287 -0.9416  0.3623
 5895TIP3   OH239243   2.630   0.601   1.251 -0.1524  0.3198 -0.4041
 5895TIP3    H139244   2.677   0.630   1.329 -1.9683  0.0493  0.8821
 5895TIP3    H239245   2.617   0.680   1.199  1.3038  0.4620 -0.5755
 5896TIP3   OH239246   1.425   6.361   1.650  0.3734  0.2103  0.2653
 5896TIP3    H139247   1.361   6.432   1.651  0.7421  0.5515 -0.2006
 5896TIP3    H239248   1.378   6.286   1.613  0.9066  1.1232 -2.4969
 5897TIP3   OH239249   5.622   6.338   8.480 -0.5554  0.4596  0.1034
 5897TIP3    H139250   5.603   6.387   8.401  0.1575  0.7833  0.1291
 5897TIP3    H239251   5.661   6.402   8.540  0.7443 -0.1974 -0.0064
 5898TIP3   OH239252   6.186   5.263   1.287 -0.1623  0.0277  0.2570
 5898TIP3    H139253   6.235   5.302   1.215 -1.9695 -0.0471 -1.0793
 5898TIP3    H239254   6.244   5.195   1.321  0.1959 -0.9644 -2.1244
 5899TIP3   OH239255   4.314   0.368   1.560 -0.1077  0.5182  0.0286
 5899TIP3    H139256   4.349   0.440   1.508 -0.3966  0.8933  0.3514
 5899TIP3    H239257   4.364   0.369   1.641  1.9171 -1.4684 -1.0657
 5900TIP3   OH239258   5.983   3.502   1.535  0.1723  0.5322  0.1705
 5900TIP3    H139259   5.927   3.425   1.523 -0.3815  0.7620  1.1861
 5900TIP3    H239260   5.950   3.565   1.471 -0.2013  0.3716  0.2013
 5901TIP3   OH239261   0.071   2.382   2.376  0.1461 -0.1856 -0.3420
 5901TIP3    H139262   0.059   2.287   2.367  0.1909 -0.1932 -0.3208
 5901TIP3    H239263   0.119   2.392   2.458  0.9799 -0.2071 -0.8250
 5902TIP3   OH239264   1.613   3.600   0.660  0.8484 -0.2949 -0.2330
 5902TIP3    H139265   1.662   3.526   0.624  0.0629  0.9043 -4.3118
 5902TIP3    H239266   1.523   3.586   0.630 -0.3358  0.1204  2.8007
 5903TIP3   OH239267   2.923   5.002   7.867 -0.2437  0.3331 -0.2340
 5903TIP3    H139268   3.017   4.983   7.869 -0.3486 -0.3256  2.2497
 5903TIP3    H239269   2.892   4.962   7.786  1.8114  1.8817 -1.8853
 5904TIP3   OH239270   4.692   4.856   1.066 -0.0900 -0.4068  0.0089
 5904TIP3    H139271   4.617   4.798   1.080  0.0371 -1.2532 -2.4527
 5904TIP3    H239272   4.656   4.945   1.071 -0.7011 -0.7147  1.5753
 5905TIP3   OH239273   0.745   5.127   0.962  0.1472  0.8088 -0.2105
 5905TIP3    H139274   0.814   5.066   0.990  0.0519  0.8809  0.1737
 5905TIP3    H239275   0.751   5.200   1.023  0.3659  1.2638 -0.7728
 5906TIP3   OH239276   3.532   2.075   8.189 -0.0434 -0.1269 -0.2030
 5906TIP3    H139277   3.491   2.095   8.104 -0.8849 -1.1554 -0.0572
 5906TIP3    H239278   3.485   1.998   8.221 -0.0660  0.5489  1.4484
 5907TIP3   OH239279   3.833   2.942   8.678 -0.0700 -0.2341  0.1049
 5907TIP3    H139280   3.928   2.933   8.665  0.5430  1.5185  2.4458
 5907TIP3    H239281   3.810   2.872   8.739  0.5829  1.4793  2.4765
 5908TIP3   OH239282   5.629   1.854   8.117  0.2590  0.1733 -0.2100
 5908TIP3    H139283   5.661   1.868   8.206  1.0558  0.2310 -0.4950
 5908TIP3    H239284   5.576   1.931   8.098  1.4004  0.9465 -0.3543
 5909TIP3   OH239285   0.682   1.260   2.223  0.0688 -0.2518 -0.3647
 5909TIP3    H139286   0.753   1.301   2.173 -0.0705  2.0477  1.1805
 5909TIP3    H239287   0.725   1.191   2.274  1.8420  2.6025  2.3661
 5910TIP3   OH239288   2.120   6.518   1.444 -0.0781  0.2191  0.2427
 5910TIP3    H139289   2.073   6.451   1.394  0.8218  1.1495 -1.9627
 5910TIP3    H239290   2.053   6.583   1.466 -0.5018 -0.2390  0.3297
 5911TIP3   OH239291   1.366   0.152   0.332 -0.0042  0.1411 -0.4907
 5911TIP3    H139292   1.391   0.101   0.255 -2.1513 -0.0149 -1.1215
 5911TIP3    H239293   1.341   0.238   0.297  1.2528  0.8733  0.3154
 5912TIP3   OH239294   4.008   5.879   1.037  0.6046 -0.7414  0.2626
 5912TIP3    H139295   3.942   5.867   1.106 -0.2084 -1.8517 -0.6543
 5912TIP3    H239296   4.086   5.835   1.071  0.3518 -0.8934  0.6573
 5913TIP3   OH239297   4.561   6.324   2.457  0.4226 -0.2339  0.0279
 5913TIP3    H139298   4.537   6.413   2.484 -1.3361 -1.1311  1.6745
 5913TIP3    H239299   4.557   6.273   2.537 -3.0001 -2.6624 -1.4458
 5914TIP3   OH239300   4.563   6.545   8.501  0.4382 -0.2475  0.2084
 5914TIP3    H139301   4.554   6.558   8.407 -0.1217  1.5027  0.4699
 5914TIP3    H239302   4.598   6.628   8.534  2.5674 -1.4792  1.3231
 5915TIP3   OH239303   4.187   3.161   7.766 -0.1139 -0.0527 -0.4390
 5915TIP3    H139304   4.105   3.205   7.746 -0.4051 -0.3373  0.1281
 5915TIP3    H239305   4.168   3.107   7.843  0.4375 -0.5823 -0.6603
 5916TIP3   OH239306   2.541   5.306   1.675  0.1604  0.5634 -0.0189
 5916TIP3    H139307   2.594   5.231   1.700  0.2910  0.4429 -0.6281
 5916TIP3    H239308   2.602   5.367   1.634  0.0942  1.1062  0.6661
 5917TIP3   OH239309   0.154   6.131   7.486 -0.1779 -0.1674 -0.4231
 5917TIP3    H139310   0.090   6.148   7.417 -0.4474 -0.5288 -0.2687
 5917TIP3    H239311   0.232   6.180   7.460 -1.1782  1.9764  0.4315
 5918TIP3   OH239312   5.339   2.679   1.990  0.5931  0.5248 -0.7787
 5918TIP3    H139313   5.330   2.585   1.973  3.0740  0.0964 -0.1994
 5918TIP3    H239314   5.363   2.684   2.083  0.0721  1.7775 -0.6958
 5919TIP3   OH239315   3.819   0.093   2.007 -0.0234  0.1387 -0.8149
 5919TIP3    H139316   3.896   0.089   2.063 -0.5650 -2.7514 -0.1269
 5919TIP3    H239317   3.784   0.181   2.021  0.3294 -0.1318  2.8254
 5920TIP3   OH239318   5.445   2.922   1.442 -0.1584  0.0851  0.0953
 5920TIP3    H139319   5.398   2.860   1.498  0.3918  0.1747  0.6670
 5920TIP3    H239320   5.416   2.901   1.354 -0.2153 -0.7823  0.3103
 5921TIP3   OH239321   1.614   3.208   1.812 -0.1992 -0.2184 -0.0178
 5921TIP3    H139322   1.626   3.141   1.878 -0.8008 -1.0961 -0.7746
 5921TIP3    H239323   1.693   3.262   1.817  0.0658 -0.6854  0.9295
 5922TIP3   OH239324   4.626   0.234   1.439  0.6729  0.1350  0.0929
 5922TIP3    H139325   4.691   0.179   1.396 -0.8676 -2.4767  0.9289
 5922TIP3    H239326   4.638   0.219   1.532 -0.8299 -0.0727  0.2831
 5923TIP3   OH239327   6.122   5.671   8.028  0.1371  0.1025 -0.6158
 5923TIP3    H139328   6.190   5.720   8.075 -0.7199  0.1803  0.6034
 5923TIP3    H239329   6.048   5.669   8.089 -1.4108  1.0835 -2.3508
 5924TIP3   OH239330   2.390   3.017   0.848 -0.2033 -0.0108  0.0375
 5924TIP3    H139331   2.360   2.929   0.824  2.9221 -1.2174  0.0242
 5924TIP3    H239332   2.401   3.013   0.943  0.2896  0.2148 -0.0065
 5925TIP3   OH239333   4.589   0.761   1.494  0.3714 -0.2537 -0.1235
 5925TIP3    H139334   4.654   0.693   1.478  0.8430  0.2609 -0.4125
 5925TIP3    H239335   4.595   0.820   1.419 -1.8221 -1.2512 -1.1939
 5926TIP3   OH239336   5.343   6.712   8.107  0.1816  0.0491 -0.2860
 5926TIP3    H139337   5.333   6.617   8.107 -2.0973  0.2378  0.0947
 5926TIP3    H239338   5.254   6.746   8.094  0.9557  2.1310 -0.5323
 5927TIP3   OH239339   3.588   2.405   3.084 -0.2137  0.0813  0.7488
 5927TIP3    H139340   3.561   2.496   3.083  0.5521  0.3273  1.4179
 5927TIP3    H239341   3.659   2.401   3.148  1.0955 -0.6027 -0.6725
 5928TIP3   OH239342   6.030   1.003   1.342  0.0435 -0.1571 -0.3533
 5928TIP3    H139343   6.045   1.018   1.248  0.3631 -2.8652 -0.8099
 5928TIP3    H239344   5.937   0.985   1.349  0.0546 -0.1504 -0.1878
 5929TIP3   OH239345   2.988   2.785   7.417  0.7453  0.3426  0.1729
 5929TIP3    H139346   2.913   2.730   7.440  0.4450  0.1269 -1.2213
 5929TIP3    H239347   2.999   2.843   7.492 -1.3475  0.9356  0.0895
 5930TIP3   OH239348   1.454   4.982   7.868  0.1617  0.3220  0.7419
 5930TIP3    H139349   1.541   4.953   7.840  0.8722  1.7637  1.3457
 5930TIP3    H239350   1.472   5.047   7.936 -1.3534  1.6266 -0.0650
 5931TIP3   OH239351   4.720   4.486   0.071 -0.2983 -0.0935 -0.3505
 5931TIP3    H139352   4.737   4.393   0.086  0.3355 -0.1339 -1.2251
 5931TIP3    H239353   4.806   4.523   0.051 -0.6127  0.5881 -0.4828
 5932TIP3   OH239354   6.176   1.014   8.555 -0.1732 -0.4769  0.5297
 5932TIP3    H139355   6.085   1.039   8.574 -0.8093 -1.4503 -1.0332
 5932TIP3    H239356   6.188   0.931   8.601  0.3458  0.2361  1.7224
 5933TIP3   OH239357   2.706   5.065   0.557 -0.3908  0.4579  0.9360
 5933TIP3    H139358   2.643   5.027   0.619 -0.5139 -0.7091  0.1290
 5933TIP3    H239359   2.789   5.023   0.578 -0.1634  1.0058  1.1341
 5934TIP3   OH239360   5.227   6.213   2.133  0.5393  0.0807  0.7353
 5934TIP3    H139361   5.277   6.282   2.089  0.4834  0.5983  1.4527
 5934TIP3    H239362   5.159   6.260   2.181 -0.5626 -0.6077 -0.1199
 5935TIP3   OH239363   6.440   0.405   0.613 -0.0213 -0.4582 -0.1063
 5935TIP3    H139364   6.399   0.322   0.587 -0.2154 -0.0795 -1.0288
 5935TIP3    H239365   6.522   0.408   0.564 -0.1341  0.0126 -0.2652
 5936TIP3   OH239366   4.483   2.463   0.140  0.2476 -0.0334  0.1946
 5936TIP3    H139367   4.482   2.369   0.120 -1.6911  0.0915 -0.4767
 5936TIP3    H239368   4.560   2.496   0.094 -0.1522 -0.9709 -1.1964
 5937TIP3   OH239369   2.220   5.139   2.262  0.3038 -0.0989 -0.3893
 5937TIP3    H139370   2.304   5.137   2.308  0.2633 -3.1376 -0.2696
 5937TIP3    H239371   2.155   5.151   2.330  0.5092  0.2811 -0.2554
 5938TIP3   OH239372   2.550   1.951   1.181 -0.5167  0.0022 -0.4274
 5938TIP3    H139373   2.583   1.880   1.127 -0.1900  0.4129 -0.7796
 5938TIP3    H239374   2.562   1.922   1.271  1.4781  0.4266 -0.5267
 5939TIP3   OH239375   5.047   2.719   2.089  0.2714 -0.1525  0.6361
 5939TIP3    H139376   5.128   2.700   2.041 -0.0644  0.5073 -0.2294
 5939TIP3    H239377   5.074   2.722   2.181  1.2045 -0.0745  0.3724
 5940TIP3   OH239378   6.124   2.240   2.091  0.3445  0.0265 -0.3101
 5940TIP3    H139379   6.150   2.173   2.154 -0.4229  0.5973  0.6537
 5940TIP3    H239380   6.071   2.194   2.026 -0.7460 -0.2236  0.7124
 5941TIP3   OH239381   1.422   6.201   7.742 -0.2061  0.2595 -0.4327
 5941TIP3    H139382   1.349   6.161   7.697 -0.1805 -0.9770  0.5665
 5941TIP3    H239383   1.500   6.162   7.702 -0.1720 -0.3513  0.1933
 5942TIP3   OH239384   6.669   3.083   8.699 -0.7038 -0.6541  0.1603
 5942TIP3    H139385   6.608   3.152   8.726  0.9678  1.1616 -0.4575
 5942TIP3    H239386   6.709   3.053   8.781 -0.5501  0.0120  0.3355
 5943TIP3   OH239387   3.940   2.161   0.880 -0.0840  0.0786  0.4228
 5943TIP3    H139388   3.988   2.222   0.937 -1.4338  0.2598  1.4097
 5943TIP3    H239389   3.910   2.215   0.807  1.0459 -0.0031 -0.1213
 5944TIP3   OH239390   4.340   0.329   1.188  0.1426 -0.5296  0.2966
 5944TIP3    H139391   4.398   0.254   1.176 -0.0018 -0.2964 -2.5941
 5944TIP3    H239392   4.398   0.400   1.214  0.6856 -1.0026  0.4075
 5945TIP3   OH239393   1.803   0.192   0.607  0.2882 -0.2854 -0.5634
 5945TIP3    H139394   1.711   0.186   0.582  0.2528 -0.3191 -0.4282
 5945TIP3    H239395   1.820   0.286   0.615  0.1708 -0.2881 -0.2502
 5946TIP3   OH239396   2.798   0.775   7.482  0.3561  0.2952  0.0313
 5946TIP3    H139397   2.848   0.827   7.545 -0.9308  2.0602 -0.3123
 5946TIP3    H239398   2.846   0.784   7.400 -0.2111  1.5837 -0.1867
 5947TIP3   OH239399   1.994   3.049   8.311  0.8548  0.6780 -0.2050
 5947TIP3    H139400   1.999   2.955   8.291  0.4159  0.8328 -1.0851
 5947TIP3    H239401   1.938   3.054   8.388 -0.6173  0.3276 -1.2064
 5948TIP3   OH239402   5.731   5.251   8.687  0.2772 -0.4782  0.0688
 5948TIP3    H139403   5.690   5.317   8.631 -2.0899  0.7568  3.0052
 5948TIP3    H239404   5.658   5.197   8.718  1.8739 -3.0718 -0.3405
 5949TIP3   OH239405   0.779   1.658   2.329 -0.2069  0.0906  0.1178
 5949TIP3    H139406   0.707   1.709   2.365 -2.1567 -3.0086  1.0142
 5949TIP3    H239407   0.769   1.665   2.234 -0.7928  0.8559  0.2299
 5950TIP3   OH239408   6.498   3.911   0.150  0.0794 -0.1493 -0.2091
 5950TIP3    H139409   6.438   3.924   0.223 -0.5343 -1.6459 -0.3983
 5950TIP3    H239410   6.536   3.997   0.133  0.1357  0.2528  1.7762
 5951TIP3   OH239411   5.630   1.438   7.721  0.2080 -0.1324  0.3417
 5951TIP3    H139412   5.639   1.353   7.764 -1.8731 -0.4622  0.2580
 5951TIP3    H239413   5.617   1.416   7.628  0.1623  0.2935  0.2453
 5952TIP3   OH239414   3.442   5.532   0.105 -0.2024  0.0928  0.1524
 5952TIP3    H139415   3.403   5.600   0.051 -0.6921 -0.6638 -0.4711
 5952TIP3    H239416   3.529   5.518   0.067 -0.5358 -0.4192 -0.4355
 5953TIP3   OH239417   0.997   3.068   0.011  0.3857 -0.0436 -0.3592
 5953TIP3    H139418   1.004   3.151  -0.036 -1.5653  0.0784 -0.5214
 5953TIP3    H239419   0.910   3.035  -0.012  0.0649 -0.8396  1.8021
 5954TIP3   OH239420   3.078   2.497   8.198 -0.0712 -0.2424  0.3681
 5954TIP3    H139421   3.113   2.475   8.112 -1.5214 -1.4408  0.0531
 5954TIP3    H239422   3.074   2.592   8.199  1.7674 -0.1080 -0.1205
 5955TIP3   OH239423   5.875   3.045   0.309  0.0493  0.3120 -0.2181
 5955TIP3    H139424   5.817   3.013   0.378  0.2059 -0.3300 -0.3836
 5955TIP3    H239425   5.955   2.994   0.318  0.6390  1.2453  0.0595
 5956TIP3   OH239426   6.129   5.280   0.705 -0.0088  0.1394  0.2302
 5956TIP3    H139427   6.171   5.225   0.772  0.5877 -0.7213 -0.8079
 5956TIP3    H239428   6.041   5.296   0.739  0.2163 -0.4509  1.1319
 5957TIP3   OH239429   3.834   2.825   8.179  0.0476  0.0221  0.1036
 5957TIP3    H139430   3.887   2.748   8.157 -2.0912 -1.2256 -1.0828
 5957TIP3    H239431   3.801   2.807   8.267 -0.9195 -0.7646 -0.3941
 5958TIP3   OH239432   1.226   5.139   2.146 -0.0195  0.0869 -0.1301
 5958TIP3    H139433   1.228   5.164   2.054  1.4679 -2.6912 -0.9469
 5958TIP3    H239434   1.155   5.075   2.153  0.2283 -0.1289  0.5412
 5959TIP3   OH239435   6.512   2.764   1.059 -1.0165 -0.6541  0.4325
 5959TIP3    H139436   6.535   2.703   0.990 -1.9365  0.1594 -0.6247
 5959TIP3    H239437   6.507   2.710   1.138 -2.8669 -2.1588 -0.6406
 5960TIP3   OH239438   5.058   0.760   6.818 -0.0143  0.1705 -0.0749
 5960TIP3    H139439   5.006   0.695   6.866  1.9657 -1.1035  0.4987
 5960TIP3    H239440   5.070   0.832   6.880  1.1116 -0.7215  0.7878
 5961TIP3   OH239441   6.683   6.372   8.146  0.2454  0.8751  0.4137
 5961TIP3    H139442   6.607   6.400   8.096  1.1365  2.8684  0.0701
 5961TIP3    H239443   6.751   6.356   8.080  0.2451 -0.5956  0.7358
 5962TIP3   OH239444   3.092   4.153   8.764  0.4581  0.2299 -0.0637
 5962TIP3    H139445   3.055   4.223   8.711  0.0512  1.0963  1.3127
 5962TIP3    H239446   3.151   4.197   8.825 -0.2681 -0.5195  1.2343
 5963TIP3   OH239447   2.141   3.131   0.022 -0.1132  0.1171  0.0805
 5963TIP3    H139448   2.166   3.173   0.104 -0.6659  1.6022 -0.4967
 5963TIP3    H239449   2.196   3.052   0.019 -0.2822 -0.1261  1.9914
 5964TIP3   OH239450   4.551   1.779   8.121 -0.3038  0.2288 -0.2521
 5964TIP3    H139451   4.604   1.712   8.165  3.2525  2.0984 -1.3030
 5964TIP3    H239452   4.515   1.735   8.044  0.0547 -1.0212  0.2740
 5965TIP3   OH239453   4.045   5.199   1.464 -0.0283  0.0415  0.2819
 5965TIP3    H139454   4.045   5.133   1.394  0.6060 -1.0707  1.2861
 5965TIP3    H239455   4.085   5.276   1.424  0.0564 -0.4748 -0.6633
 5966TIP3   OH239456   6.438   5.207   3.004  0.0543  0.0274  0.0145
 5966TIP3    H139457   6.442   5.127   3.056  0.4851 -0.3879 -0.6402
 5966TIP3    H239458   6.353   5.246   3.026 -0.3385 -0.8198  0.0404
 5967TIP3   OH239459   3.106   1.343   7.205  0.7405 -0.2341 -0.2188
 5967TIP3    H139460   3.056   1.280   7.154  0.6518  0.6732 -1.3077
 5967TIP3    H239461   3.121   1.416   7.144  1.1596  0.6248  0.8763
 5968TIP3   OH239462   5.905   1.951   8.379  0.4848 -0.2022 -0.4307
 5968TIP3    H139463   5.977   1.890   8.392 -0.0775 -0.7961 -0.0630
 5968TIP3    H239464   5.834   1.916   8.432  0.0489  0.5982 -0.4669
 5969TIP3   OH239465   4.888   3.261   1.150 -0.0704  0.3251  0.1283
 5969TIP3    H139466   4.976   3.269   1.113 -1.1214  2.8186 -2.2169
 5969TIP3    H239467   4.858   3.174   1.121  0.4452  0.8108 -2.0698
 5970TIP3   OH239468   3.587   5.287   8.195  0.4931 -0.1262  0.1523
 5970TIP3    H139469   3.646   5.251   8.129  0.3679 -0.9451  0.4700
 5970TIP3    H239470   3.614   5.378   8.205  0.5424 -0.0047 -0.9915
 5971TIP3   OH239471   4.277   6.423   0.354  0.3340  0.2370 -0.1639
 5971TIP3    H139472   4.254   6.446   0.264  0.1633 -0.0049 -0.1835
 5971TIP3    H239473   4.372   6.431   0.357  0.3557  0.0819 -0.4143
 5972TIP3   OH239474   5.648   1.945   0.405 -0.6549 -0.2718  0.6166
 5972TIP3    H139475   5.618   2.027   0.366 -0.6916 -0.3169  0.5489
 5972TIP3    H239476   5.724   1.969   0.457  0.1259 -0.4016 -0.4438
 5973TIP3   OH239477   1.172   6.149   7.591  0.5182 -0.0404 -0.3575
 5973TIP3    H139478   1.096   6.134   7.648  0.1792 -0.6155 -0.9509
 5973TIP3    H239479   1.137   6.196   7.516  1.1091  1.4395  0.2542
 5974TIP3   OH239480   1.426   6.600   2.731  0.0645  0.0617  0.6010
 5974TIP3    H139481   1.508   6.563   2.697 -0.4009  0.3099 -0.8853
 5974TIP3    H239482   1.423   6.573   2.822  1.4893 -0.5030  0.5059
 5975TIP3   OH239483   1.735   1.219   1.294  0.5508 -0.3818 -0.3544
 5975TIP3    H139484   1.690   1.277   1.354  0.9321  0.0585 -0.4872
 5975TIP3    H239485   1.808   1.183   1.345  0.0532 -1.1022 -0.1354
 5976TIP3   OH239486   3.448   0.247   1.535  0.8093  0.0295 -0.3732
 5976TIP3    H139487   3.531   0.270   1.494  0.9539 -0.2561 -0.2441
 5976TIP3    H239488   3.417   0.172   1.485  1.0641 -0.4200  0.1309
 5977TIP3   OH239489   4.625   3.399   0.117 -0.3850 -0.5851  0.1395
 5977TIP3    H139490   4.627   3.388   0.022 -2.6544  1.3495 -0.2418
 5977TIP3    H239491   4.583   3.319   0.149 -0.7116 -0.7378 -0.6340
 5978TIP3   OH239492   3.857   2.026   0.416  0.4905  0.5630  0.0151
 5978TIP3    H139493   3.906   2.106   0.434  0.7285 -0.2357  3.6091
 5978TIP3    H239494   3.915   1.955   0.444 -0.5691 -0.7647 -1.0233
 5979TIP3   OH239495   5.247   4.899   0.142  0.2458  0.5580  0.3379
 5979TIP3    H139496   5.152   4.894   0.131  0.4249  0.0990 -1.1183
 5979TIP3    H239497   5.281   4.821   0.100  1.3337  1.0906  0.1761
 5980TIP3   OH239498   4.798   0.550   0.463  0.5251 -0.1888  1.0021
 5980TIP3    H139499   4.826   0.632   0.422 -0.6817  0.8660  2.1727
 5980TIP3    H239500   4.784   0.573   0.555 -0.7271 -1.4731  1.1632
 5981TIP3   OH239501   3.452   5.660   0.790  0.3362 -0.4577  0.1923
 5981TIP3    H139502   3.431   5.711   0.712 -1.1457 -0.0980  0.7873
 5981TIP3    H239503   3.482   5.576   0.757 -0.3263 -0.3326 -0.7760
 5982TIP3   OH239504   6.200   4.418   8.371  0.1570 -0.0988  0.0606
 5982TIP3    H139505   6.159   4.333   8.388 -1.6292  1.0258  1.8730
 5982TIP3    H239506   6.131   4.469   8.329  0.1947  1.3330  1.6418
 5983TIP3   OH239507   5.802   3.295   1.517 -0.5384  0.7105 -0.4631
 5983TIP3    H139508   5.857   3.226   1.552  1.3075  1.5874 -1.5041
 5983TIP3    H239509   5.713   3.258   1.520  0.0946 -0.8445  0.9961
 5984TIP3   OH239510   1.426   1.127   1.438 -0.0430 -0.0197 -0.0736
 5984TIP3    H139511   1.430   1.141   1.533  1.8825 -0.4348 -0.0624
 5984TIP3    H239512   1.479   1.197   1.402  0.0303 -0.4434 -0.7913
 5985TIP3   OH239513   3.753   4.849   8.485 -0.0813 -0.1468  0.2298
 5985TIP3    H139514   3.813   4.838   8.412 -0.8632 -1.4020 -0.2581
 5985TIP3    H239515   3.672   4.883   8.445  0.0201  0.7650  0.7631
 5986TIP3   OH239516   1.635   2.965   0.257 -0.3776  0.0953  0.1271
 5986TIP3    H139517   1.687   2.884   0.259 -1.0173 -0.3310 -0.0062
 5986TIP3    H239518   1.686   3.025   0.204 -0.7131 -0.8253 -1.3075
 5987TIP3   OH239519   2.673   3.660   0.617  0.1278 -0.3530 -0.5273
 5987TIP3    H139520   2.657   3.747   0.654 -2.0106 -0.7845 -0.3005
 5987TIP3    H239521   2.694   3.605   0.692 -0.6169 -0.4613 -0.3911
 5988TIP3   OH239522   1.508   5.573   0.252 -0.2360  0.3110  0.0979
 5988TIP3    H139523   1.563   5.511   0.204 -1.6091 -0.4443 -0.5692
 5988TIP3    H239524   1.481   5.524   0.330  0.4463  0.8654  0.6928
 5989TIP3   OH239525   1.025   1.852   0.364  0.1067  0.2976  0.2667
 5989TIP3    H139526   0.937   1.813   0.358  0.1448  0.4395 -2.0239
 5989TIP3    H239527   1.056   1.826   0.450 -1.6261 -0.9865  0.5706
 5990TIP3   OH239528   4.072   2.713   2.984  0.1761  0.6318 -0.3371
 5990TIP3    H139529   4.037   2.665   3.059  0.9837 -0.3255 -0.5562
 5990TIP3    H239530   3.997   2.723   2.925 -0.6856  2.1527  0.9302
 5991TIP3   OH239531   5.932   2.030   8.124  0.0842 -0.4422  0.7062
 5991TIP3    H139532   5.911   2.020   8.216  1.5082 -0.4266  1.0614
 5991TIP3    H239533   6.007   1.972   8.110  1.3446  1.2487  0.1320
 5992TIP3   OH239534   4.592   2.033   2.359 -0.7014  0.8153  0.4263
 5992TIP3    H139535   4.520   1.988   2.403 -0.9324  0.3993 -0.3411
 5992TIP3    H239536   4.651   2.058   2.429 -2.1670  2.2428  1.2113
 5993TIP3   OH239537   4.292   6.298   7.734 -0.2107 -0.3032 -0.0661
 5993TIP3    H139538   4.225   6.360   7.705  0.0955  0.1965  0.2684
 5993TIP3    H239539   4.326   6.336   7.815 -1.6396 -2.0869  1.4626
 5994TIP3   OH239540   0.564   1.988   8.305 -0.3949 -0.4222 -0.4162
 5994TIP3    H139541   0.586   1.897   8.284 -1.0628 -1.6734  3.4050
 5994TIP3    H239542   0.472   1.985   8.332  0.1628  0.8276  1.9514
 5995TIP3   OH239543   5.244   1.587   0.488  0.0790 -0.8947 -0.4835
 5995TIP3    H139544   5.209   1.624   0.407  1.0488  2.0443  0.3226
 5995TIP3    H239545   5.334   1.562   0.466  0.7375  1.0049 -0.0803
 5996TIP3   OH239546   1.673   5.804   2.920  0.1623  0.4768  0.2901
 5996TIP3    H139547   1.722   5.886   2.929  0.5327  0.2846  0.0933
 5996TIP3    H239548   1.731   5.737   2.957  1.0175 -0.0807 -1.8855
 5997TIP3   OH239549   3.814   6.317   8.422  0.0602  0.2529 -0.3633
 5997TIP3    H139550   3.849   6.266   8.349  0.3943 -0.7929  0.4985
 5997TIP3    H239551   3.857   6.281   8.500  0.0127  1.6164  0.3147
 5998TIP3   OH239552   3.735   2.068   1.467 -0.0811  0.0352  0.4167
 5998TIP3    H139553   3.676   2.038   1.398 -1.0782  0.4427  1.0831
 5998TIP3    H239554   3.814   2.015   1.454 -0.6260 -0.6161 -0.4009
 5999TIP3   OH239555   5.306   6.777   0.408 -0.1125  1.1362 -0.2201
 5999TIP3    H139556   5.368   6.706   0.393  1.3956  2.1809  0.8468
 5999TIP3    H239557   5.226   6.748   0.363  0.8853 -0.5766 -1.0065
 6000TIP3   OH239558   1.384   1.009   0.243  0.5302 -0.2221  0.1164
 6000TIP3    H139559   1.367   1.060   0.322  0.6456 -0.3766  0.2406
 6000TIP3    H239560   1.475   0.980   0.252  0.4819 -0.4042  0.0201
 6001TIP3   OH239561   6.118   5.286   7.427 -0.2774  0.3337  0.5256
 6001TIP3    H139562   6.210   5.258   7.421 -0.4287 -0.4606  1.5367
 6001TIP3    H239563   6.121   5.381   7.414  0.3346  0.0029 -2.2570
 6002TIP3   OH239564   2.937   1.945   2.559  0.5938  0.6958 -0.2258
 6002TIP3    H139565   3.031   1.944   2.539  1.1376 -0.8823  1.9644
 6002TIP3    H239566   2.894   1.964   2.475  2.8499  1.6123 -1.2474
 6003TIP3   OH239567   0.152   0.693   7.497  0.6121  0.1271  0.2770
 6003TIP3    H139568   0.175   0.701   7.590  2.3376  0.4090 -0.1360
 6003TIP3    H239569   0.118   0.779   7.474 -0.8327 -0.2488  0.8643
 6004TIP3   OH239570   0.450   3.557   1.143 -0.3897  0.0419 -0.1247
 6004TIP3    H139571   0.408   3.614   1.207 -2.2864  0.4550 -1.6507
 6004TIP3    H239572   0.388   3.551   1.071  0.4114 -2.7317 -0.7114
 6005TIP3   OH239573   4.402   0.188   2.491  0.2777 -0.1629  0.0346
 6005TIP3    H139574   4.383   0.097   2.515 -0.8764 -0.2958 -1.2568
 6005TIP3    H239575   4.397   0.236   2.573 -0.3515 -1.0752  0.5441
 6006TIP3   OH239576   3.493   5.599   7.892  0.0191  0.2429  0.0420
 6006TIP3    H139577   3.562   5.548   7.935  1.2247  0.0598 -1.9994
 6006TIP3    H239578   3.509   5.587   7.798 -1.1477  2.4001 -0.5041
 6007TIP3   OH239579   4.638   3.517   2.039  0.0937 -0.0048 -0.1038
 6007TIP3    H139580   4.571   3.449   2.035 -0.8274  0.9159 -3.7912
 6007TIP3    H239581   4.709   3.478   2.090 -1.7419 -2.4012  0.7736
 6008TIP3   OH239582   2.076   6.526   7.824 -0.2795  0.1521  0.0140
 6008TIP3    H139583   2.168   6.502   7.829 -0.3541 -0.3805 -1.0139
 6008TIP3    H239584   2.076   6.620   7.804  0.0089  1.1212  3.7200
 6009TIP3   OH239585   6.136   4.056   3.006  0.0316 -0.5399  0.0431
 6009TIP3    H139586   6.087   4.033   3.085  0.8511  1.2798  1.1315
 6009TIP3    H239587   6.188   4.133   3.030  0.4559 -0.0268 -2.2113
 6010TIP3   OH239588   5.642   5.721   1.481 -0.0218 -0.2460  0.0256
 6010TIP3    H139589   5.622   5.627   1.479 -0.2389 -0.1879 -0.9834
 6010TIP3    H239590   5.644   5.743   1.575 -0.7434 -1.0946  0.2564
 6011TIP3   OH239591   0.657   2.559   8.417  0.1921  0.4381 -0.4255
 6011TIP3    H139592   0.690   2.547   8.506  0.4178  2.0216 -0.2618
 6011TIP3    H239593   0.627   2.472   8.390  3.0724 -0.7871 -0.0109
 6012TIP3   OH239594   2.615   3.490   7.670  0.3619 -0.0002  0.4106
 6012TIP3    H139595   2.643   3.408   7.631 -1.7276  0.6055 -2.7253
 6012TIP3    H239596   2.667   3.557   7.626 -0.6786  0.6001  0.0691
 6013TIP3   OH239597   5.673   6.409   7.058  0.7303  0.2641 -0.1183
 6013TIP3    H139598   5.734   6.354   7.008 -0.5537 -0.8158 -0.5461
 6013TIP3    H239599   5.683   6.496   7.019  0.4567 -0.3570 -1.6247
 6014TIP3   OH239600   4.034   0.109   0.752  0.3338  0.0322 -0.1963
 6014TIP3    H139601   4.086   0.115   0.672  0.0578 -1.2226 -0.4889
 6014TIP3    H239602   4.082   0.162   0.816  0.8057  0.6650 -1.0533
 6015TIP3   OH239603   6.257   0.867   1.801 -0.1315  0.1400  0.4562
 6015TIP3    H139604   6.352   0.884   1.802 -0.4254  1.9957  1.4200
 6015TIP3    H239605   6.230   0.892   1.712  0.0452  1.2929  0.7094
 6016TIP3   OH239606   1.999   3.066   0.325 -0.0932  0.2110  0.6083
 6016TIP3    H139607   2.065   3.129   0.295  0.5693 -0.1701  1.2390
 6016TIP3    H239608   1.995   3.078   0.419  0.1236 -0.7673  0.7535
 6017TIP3   OH239609   1.240   5.173   7.791  0.9052  0.1115 -0.2546
 6017TIP3    H139610   1.302   5.113   7.832  3.3048  2.8358  0.4330
 6017TIP3    H239611   1.270   5.180   7.700  0.9908  0.6666 -0.1867
 6018TIP3   OH239612   6.272   0.680   0.600  0.3846 -0.3009  0.4865
 6018TIP3    H139613   6.353   0.639   0.570  1.1151 -0.6738  2.7109
 6018TIP3    H239614   6.204   0.644   0.543  1.6026 -1.0321 -0.5735
 6019TIP3   OH239615   4.052   6.814   1.558 -0.1013 -0.0532 -0.0471
 6019TIP3    H139616   4.032   6.750   1.626 -1.0660 -0.4905 -0.7155
 6019TIP3    H239617   4.006   6.781   1.480 -0.1935  1.1875 -0.5380
 6020TIP3   OH239618   1.310   4.643   0.473  0.8305 -0.0465 -0.4041
 6020TIP3    H139619   1.291   4.682   0.559  0.7582 -2.6583  0.8580
 6020TIP3    H239620   1.401   4.615   0.479  2.2710  3.3560 -2.7925
 6021TIP3   OH239621   1.845   6.388   7.962 -0.0721  0.2166  0.2104
 6021TIP3    H139622   1.914   6.454   7.962 -1.3719  1.6368  0.6329
 6021TIP3    H239623   1.840   6.358   8.052  0.0604  0.0375  0.1582
 6022TIP3   OH239624   6.509   1.385   8.241  0.3928  0.1116  0.0331
 6022TIP3    H139625   6.505   1.403   8.147 -1.1307  0.0454  0.0671
 6022TIP3    H239626   6.549   1.298   8.247  1.4989  0.5686 -0.4818
 6023TIP3   OH239627   6.732   5.371   1.856 -0.3335 -0.3709  0.9198
 6023TIP3    H139628   6.678   5.321   1.796 -0.5614 -0.8061  1.4739
 6023TIP3    H239629   6.744   5.456   1.813  0.2937 -0.9867 -0.1636
 6024TIP3   OH239630   5.112   5.916   0.506 -0.0109  0.1595 -0.4042
 6024TIP3    H139631   5.186   5.977   0.500  0.3816 -0.3722 -1.0678
 6024TIP3    H239632   5.034   5.970   0.497  0.3341  0.5799 -0.8662
 6025TIP3   OH239633   2.535   3.400   0.357  0.1397  0.0550  0.0259
 6025TIP3    H139634   2.500   3.489   0.353  3.4888  1.4770 -0.9591
 6025TIP3    H239635   2.574   3.394   0.445  0.7993 -0.0381 -0.2659
 6026TIP3   OH239636   1.852   6.746   0.607 -0.2555  0.6950 -0.2158
 6026TIP3    H139637   1.793   6.728   0.680 -2.0782  0.1178 -1.7443
 6026TIP3    H239638   1.836   6.838   0.585 -0.4325  0.6003 -0.4890
 6027TIP3   OH239639   0.053   0.323   0.147 -0.4344 -0.3705  0.0112
 6027TIP3    H139640   0.081   0.402   0.193  0.5443  0.9102 -2.5347
 6027TIP3    H239641  -0.014   0.284   0.203 -0.0398  1.5623  1.9627
 6028TIP3   OH239642   3.029   2.283   1.284  0.5010 -0.2203 -0.2999
 6028TIP3    H139643   3.121   2.291   1.306  0.2583 -1.5242  1.3722
 6028TIP3    H239644   3.026   2.213   1.218  0.6277 -1.0940  0.5859
 6029TIP3   OH239645   4.892   1.685   2.678  0.2780  0.0348 -0.3799
 6029TIP3    H139646   4.926   1.607   2.723  0.0905  0.1238 -0.0825
 6029TIP3    H239647   4.883   1.657   2.586 -2.3803 -1.1788  0.1566
 6030TIP3   OH239648   6.375   3.813   1.434  0.0077  0.5114  0.0266
 6030TIP3    H139649   6.424   3.880   1.386  2.0554 -1.4841 -0.8223
 6030TIP3    H239650   6.346   3.857   1.514  2.2395  2.1105  0.0264
 6031TIP3   OH239651   4.849   1.772   1.102 -0.0885 -0.1224 -0.2543
 6031TIP3    H139652   4.876   1.852   1.147  2.7210 -1.1242  0.1014
 6031TIP3    H239653   4.855   1.704   1.170  3.3997 -1.5299 -1.7197
 6032TIP3   OH239654   6.001   6.495   0.507 -0.2383  0.0046  0.8691
 6032TIP3    H139655   6.078   6.550   0.521  1.1731 -1.3239 -1.0597
 6032TIP3    H239656   6.036   6.406   0.505 -1.8513 -0.6462  0.0701
 6033TIP3   OH239657   5.875   4.791   0.710 -0.4298 -0.6369  0.1636
 6033TIP3    H139658   5.970   4.784   0.714 -0.5108 -2.5120 -0.3172
 6033TIP3    H239659   5.857   4.836   0.627  0.0119 -0.8552 -0.0497
 6034TIP3   OH239660   5.950   0.418   1.652 -0.0487 -0.5075 -0.1364
 6034TIP3    H139661   5.988   0.435   1.738 -0.8805  1.9763 -0.1913
 6034TIP3    H239662   6.026   0.402   1.596  0.7107  0.8354  0.4695
 6035TIP3   OH239663   1.462   6.532   7.305  0.0134  0.1121 -0.1315
 6035TIP3    H139664   1.433   6.582   7.380  0.0731 -1.2270  0.8207
 6035TIP3    H239665   1.406   6.454   7.304  0.2966 -0.1066 -1.2243
 6036TIP3   OH239666   0.090   5.316   7.475 -0.5959 -0.3478  0.2019
 6036TIP3    H139667   0.156   5.251   7.497 -1.0978 -0.8111  0.3558
 6036TIP3    H239668   0.085   5.315   7.379 -0.0882 -0.0084  0.1653
 6037TIP3   OH239669   6.125   4.729   0.785  0.4571  1.1995 -0.0941
 6037TIP3    H139670   6.073   4.758   0.860 -1.7472 -0.6307 -0.7880
 6037TIP3    H239671   6.163   4.646   0.814  0.2277  0.8710 -0.7284
 6038TIP3   OH239672   2.708   5.059   2.350  0.2541  0.1367  0.5520
 6038TIP3    H139673   2.735   5.129   2.291 -0.0439 -2.1850 -2.5627
 6038TIP3    H239674   2.789   5.028   2.390  0.8452  0.0700 -0.6640
 6039TIP3   OH239675   2.122   0.077   1.297 -0.0145 -0.2881  0.0315
 6039TIP3    H139676   2.206   0.052   1.259 -0.7598 -0.8207 -1.3391
 6039TIP3    H239677   2.060   0.015   1.259 -1.1663  0.6548  0.3311
 6040TIP3   OH239678   2.211   1.800   7.402 -0.4593  0.3986  0.4840
 6040TIP3    H139679   2.222   1.890   7.432  0.3073  0.2129  0.7599
 6040TIP3    H239680   2.217   1.806   7.306 -1.5134  0.7889  0.4315
 6041TIP3   OH239681   5.214   0.400   1.710 -0.0974  0.2017 -0.6413
 6041TIP3    H139682   5.193   0.389   1.803 -0.6234  2.3278 -0.4363
 6041TIP3    H239683   5.291   0.458   1.710  0.2750 -0.2792 -1.5276
 6042TIP3   OH239684   0.445   3.518   8.589 -0.2735  0.7443 -0.1335
 6042TIP3    H139685   0.459   3.612   8.602 -0.4628  0.7482  0.0500
 6042TIP3    H239686   0.393   3.491   8.664 -0.5848  0.5758 -0.4050
 6043TIP3   OH239687   1.131   4.442   7.398  0.1437 -0.4504  0.0729
 6043TIP3    H139688   1.219   4.472   7.374 -0.2124  0.1404 -0.5578
 6043TIP3    H239689   1.073   4.508   7.360 -0.5108 -0.0107  1.7846
 6044TIP3   OH239690   6.825   3.944   0.129 -0.2644  0.5512 -0.0502
 6044TIP3    H139691   6.864   4.010   0.186 -0.5457  0.7497 -0.0888
 6044TIP3    H239692   6.770   3.892   0.187 -0.9844  1.0928 -0.2352
 6045TIP3   OH239693   2.192   5.723   8.259  0.7067 -0.5141 -0.2693
 6045TIP3    H139694   2.100   5.749   8.256  1.3425  2.0615  0.1445
 6045TIP3    H239695   2.216   5.733   8.352  1.5757 -0.4567 -0.4912
 6046TIP3   OH239696   1.738   1.701   3.098  0.3593  0.0304 -0.1329
 6046TIP3    H139697   1.805   1.655   3.047 -0.7580  0.9135 -2.5152
 6046TIP3    H239698   1.661   1.645   3.092  0.2221  0.1046  0.7244
 6047TIP3   OH239699   6.514   2.882   1.668  0.0245 -0.0402  0.0426
 6047TIP3    H139700   6.442   2.820   1.681 -0.7924  1.1611  1.4561
 6047TIP3    H239701   6.590   2.838   1.704 -0.4821 -0.3513  0.7450
 6048TIP3   OH239702   2.031   5.857   2.006 -0.1151  0.2914  0.0765
 6048TIP3    H139703   2.023   5.786   2.070  0.9148  0.1660  0.0951
 6048TIP3    H239704   2.003   5.818   1.924  2.5719 -0.9146 -0.3883
 6049TIP3   OH239705   5.725   5.995   1.731 -0.3860  0.2780 -0.1405
 6049TIP3    H139706   5.735   5.900   1.721  1.0139  0.2682  1.0505
 6049TIP3    H239707   5.688   6.024   1.647  1.6395 -0.9737 -1.5440
 6050TIP3   OH239708   4.649   4.235   0.694  0.3878  0.0645  0.2982
 6050TIP3    H139709   4.702   4.291   0.637 -1.4695 -0.0534 -1.6645
 6050TIP3    H239710   4.698   4.231   0.776  2.6208  1.1778 -0.8951
 6051TIP3   OH239711   1.602   3.863   8.408 -0.2521 -0.1294 -0.4980
 6051TIP3    H139712   1.660   3.904   8.473 -1.6307  1.4152 -0.1658
 6051TIP3    H239713   1.515   3.874   8.444 -0.9688 -0.1839 -2.1385
 6052TIP3   OH239714   0.848   3.235   2.131  0.0070  0.0827 -0.6638
 6052TIP3    H139715   0.827   3.319   2.089  1.4725 -0.0056 -1.6272
 6052TIP3    H239716   0.927   3.253   2.181 -1.3079 -0.0017  1.5792
 6053TIP3   OH239717   6.453   5.204   2.550  0.1682  0.3975  0.4047
 6053TIP3    H139718   6.546   5.195   2.530  0.0862 -1.1046  0.5485
 6053TIP3    H239719   6.450   5.223   2.644  0.3130 -1.8795  0.9349
 6054TIP3   OH239720   3.453   2.843   1.703 -0.3494 -0.8111 -0.0410
 6054TIP3    H139721   3.541   2.828   1.668  0.4703  1.5302  0.9097
 6054TIP3    H239722   3.396   2.835   1.626  0.9471 -0.0395 -1.1202
 6055TIP3   OH239723   0.141   0.647   0.774  0.1661 -0.0966  0.7760
 6055TIP3    H139724   0.130   0.657   0.869  1.7287 -0.6206  1.0344
 6055TIP3    H239725   0.173   0.731   0.744 -1.9827  0.6606  0.3841
 6056TIP3   OH239726   1.435   5.683   0.003  0.5475  0.0711 -0.3114
 6056TIP3    H139727   1.439   5.633   0.084 -1.8906 -1.8962 -1.2576
 6056TIP3    H239728   1.514   5.658  -0.045  0.4851 -1.1856  0.1973
 6057TIP3   OH239729   1.741   1.659   1.604  0.1836 -0.0846 -0.1384
 6057TIP3    H139730   1.753   1.754   1.608 -0.4713  0.1928 -3.0912
 6057TIP3    H239731   1.810   1.628   1.546 -0.2735 -1.2975 -0.0626
 6058TIP3   OH239732   6.742   3.235   0.909  0.2148 -0.8457 -0.4815
 6058TIP3    H139733   6.743   3.259   0.817  1.2182 -1.3224 -0.5993
 6058TIP3    H239734   6.698   3.309   0.953 -0.3488 -0.6587 -1.3340
 6059TIP3   OH239735   2.420   0.270   7.670 -0.1628  0.4106 -0.9167
 6059TIP3    H139736   2.404   0.180   7.701 -0.4178  1.2642  1.6577
 6059TIP3    H239737   2.382   0.271   7.582 -2.0620 -1.4405 -0.2240
 6060TIP3   OH239738   1.512   0.141   7.749 -0.0150  0.0193  0.2695
 6060TIP3    H139739   1.517   0.193   7.829  0.3356 -0.4266  0.5450
 6060TIP3    H239740   1.600   0.149   7.710 -0.7093  1.7807 -1.0756
 6061TIP3   OH239741   3.077   2.449   7.347 -0.7057 -0.4952  0.1115
 6061TIP3    H139742   3.034   2.511   7.288  1.9274  2.9165  1.4402
 6061TIP3    H239743   3.119   2.385   7.288 -0.1498  1.3698 -1.6386
 6062TIP3   OH239744   5.107   6.098   2.560  0.4914 -0.0582 -0.0166
 6062TIP3    H139745   5.031   6.118   2.505 -0.0953  0.3416  0.9134
 6062TIP3    H239746   5.081   6.126   2.648  1.0945 -1.4069  0.6235
 6063TIP3   OH239747   4.909   2.401   2.157 -0.4263  0.1420 -0.1462
 6063TIP3    H139748   4.921   2.414   2.062  0.2349  1.8461  0.1195
 6063TIP3    H239749   4.855   2.323   2.164  0.2160 -0.5148 -1.9086
 6064TIP3   OH239750   0.783   4.981   8.371  0.2439  0.5341 -0.1791
 6064TIP3    H139751   0.795   5.073   8.394  0.5802  0.5434 -0.3900
 6064TIP3    H239752   0.811   4.933   8.449  2.9366  0.5022 -1.0696
 6065TIP3   OH239753   6.199   1.639   1.174  0.1768 -0.1107  0.2503
 6065TIP3    H139754   6.189   1.657   1.081 -0.1290  2.9965  0.7941
 6065TIP3    H239755   6.113   1.658   1.212  0.4944 -0.6237  1.2733
 6066TIP3   OH239756   6.031   1.596   1.618  0.0292  0.3931  0.1590
 6066TIP3    H139757   6.001   1.684   1.641  1.5709  1.2700 -1.0117
 6066TIP3    H239758   6.110   1.583   1.670 -1.0803 -1.0380  1.6131
 6067TIP3   OH239759   0.662   6.691   0.899  0.2612  0.3055  0.6243
 6067TIP3    H139760   0.701   6.751   0.835 -1.6839 -0.2276 -1.1712
 6067TIP3    H239761   0.568   6.691   0.878 -0.2781 -0.8216  2.7396
 6068TIP3   OH239762   2.562   6.539   2.703 -0.0047  0.1696  0.2274
 6068TIP3    H139763   2.535   6.620   2.661 -0.1752 -0.1756 -0.3365
 6068TIP3    H239764   2.496   6.524   2.771 -1.3153 -0.6867 -1.1588
 6069TIP3   OH239765   4.747   3.841   8.005  0.3707 -0.2584 -0.0415
 6069TIP3    H139766   4.758   3.936   8.015  0.7000 -0.2389 -0.5431
 6069TIP3    H239767   4.654   3.829   7.989  0.7242  0.2797 -2.9393
 6070TIP3   OH239768   2.781   4.926   7.170  0.5224  0.1283  0.0161
 6070TIP3    H139769   2.793   4.861   7.239 -1.7245  0.0922  0.4517
 6070TIP3    H239770   2.686   4.940   7.166  0.6260  0.6892 -2.5688
 6071TIP3   OH239771   0.912   1.056   8.583  0.0017  0.3549 -0.0620
 6071TIP3    H139772   0.877   1.001   8.513 -0.6743  1.4938 -0.6468
 6071TIP3    H239773   0.970   0.998   8.632  0.1040 -0.5993 -1.2631
 6072TIP3   OH239774   4.423   4.635   1.475 -0.3456 -0.3290 -0.5094
 6072TIP3    H139775   4.403   4.685   1.554 -0.0732 -1.3325  0.2232
 6072TIP3    H239776   4.504   4.674   1.442  0.5089 -0.9805  0.7058
 6073TIP3   OH239777   1.921   1.763   1.129 -0.0739  0.6056 -0.0324
 6073TIP3    H139778   1.988   1.698   1.107 -0.6588  0.1456 -0.4818
 6073TIP3    H239779   1.881   1.785   1.045 -1.7591 -0.5270  0.4293
 6074TIP3   OH239780   2.279   6.317   7.178 -0.1942  0.5120  0.1764
 6074TIP3    H139781   2.356   6.262   7.193 -1.2803 -0.8982  0.8205
 6074TIP3    H239782   2.213   6.258   7.141 -0.9755  1.6920 -0.4104
 6075TIP3   OH239783   5.271   6.830   2.627  0.1308  0.5048 -0.0900
 6075TIP3    H139784   5.181   6.830   2.661 -0.3318 -2.0316 -1.1062
 6075TIP3    H239785   5.326   6.840   2.704 -0.9842  1.2965  0.6337
 6076TIP3   OH239786   1.657   0.352   0.274 -0.1570  0.1973 -0.1463
 6076TIP3    H139787   1.651   0.296   0.351 -2.6480 -1.0775 -1.1293
 6076TIP3    H239788   1.684   0.293   0.203 -0.7957  0.6714 -0.8020
 6077TIP3   OH239789   2.291   4.557   1.672  0.3145  0.1267 -0.5787
 6077TIP3    H139790   2.365   4.566   1.612  0.7871  1.2746  0.1490
 6077TIP3    H239791   2.308   4.475   1.719  2.0603  1.2244  0.8059
 6078TIP3   OH239792   2.369   5.682   0.774 -0.6895 -0.5655 -0.0595
 6078TIP3    H139793   2.378   5.698   0.868 -1.3973 -0.5815  0.0185
 6078TIP3    H239794   2.457   5.660   0.745 -0.4957 -0.7463  0.6382
 6079TIP3   OH239795   4.704   1.971   7.958 -0.3396 -0.0808  0.6600
 6079TIP3    H139796   4.761   1.896   7.939 -0.4598 -0.6258  2.2265
 6079TIP3    H239797   4.625   1.932   7.994 -0.7347  0.7751  0.7417
 6080TIP3   OH239798   6.183   2.368   1.432 -0.3019 -0.3640 -0.1654
 6080TIP3    H139799   6.230   2.448   1.411 -0.2264 -0.4216 -0.2178
 6080TIP3    H239800   6.150   2.381   1.521  0.2191 -0.5148  0.0497
 6081TIP3   OH239801   5.105   6.080   7.875 -0.0063  0.1851  0.1983
 6081TIP3    H139802   5.103   6.173   7.899 -0.0610  0.3589 -0.4719
 6081TIP3    H239803   5.115   6.079   7.780 -0.2714 -0.4947  0.1673
 6082TIP3   OH239804   5.292   0.779   7.516  0.4116  0.0884 -0.3034
 6082TIP3    H139805   5.334   0.859   7.547  0.7003 -0.6160  1.2123
 6082TIP3    H239806   5.202   0.806   7.495  0.5776  0.8654 -0.0455
 6083TIP3   OH239807   0.267   1.968   1.053 -0.3776 -0.1016 -0.2015
 6083TIP3    H139808   0.288   1.919   1.133  1.3162  0.4580 -0.2692
 6083TIP3    H239809   0.349   2.012   1.030 -1.4196  1.4376 -1.0785
 6084TIP3   OH239810   6.739   1.747   1.131  0.2355  0.3595  0.0027
 6084TIP3    H139811   6.662   1.714   1.178 -0.0978  0.0743 -0.7186
 6084TIP3    H239812   6.720   1.839   1.117  0.3467  0.4523  0.4394
 6085TIP3   OH239813   0.879   3.004   1.962  0.2307 -0.1858  0.6608
 6085TIP3    H139814   0.825   2.990   1.884  0.5008 -1.3967  0.6587
 6085TIP3    H239815   0.836   3.074   2.010 -1.1293 -0.8660  0.4616
 6086TIP3   OH239816   2.315   4.113   7.255  0.0689  0.1395  0.0563
 6086TIP3    H139817   2.319   4.088   7.163 -0.6240  0.4161 -0.0614
 6086TIP3    H239818   2.341   4.205   7.256 -0.4312  0.2880  0.0539
 6087TIP3   OH239819   3.563   6.642   1.708 -0.5643  0.2719 -0.0497
 6087TIP3    H139820   3.500   6.583   1.667 -0.0267 -1.4827  1.5191
 6087TIP3    H239821   3.576   6.606   1.796  2.8574  0.3434 -0.4025
 6088TIP3   OH239822   2.347   0.791   2.090 -0.1371  0.1994 -0.7723
 6088TIP3    H139823   2.411   0.724   2.118 -0.1354 -0.1184 -1.5153
 6088TIP3    H239824   2.380   0.872   2.128  0.7693  0.0541 -1.2192
 6089TIP3   OH239825   5.631   2.680   0.116  0.1292  0.3124  0.6578
 6089TIP3    H139826   5.614   2.655   0.207 -0.5799 -2.5028 -0.1458
 6089TIP3    H239827   5.546   2.704   0.081  0.1029 -0.3367  0.2724
 6090TIP3   OH239828   5.781   0.648   8.229  0.1673  0.0219  0.4349
 6090TIP3    H139829   5.771   0.723   8.287  0.6103  0.3312  0.1165
 6090TIP3    H239830   5.746   0.574   8.279 -0.0552  0.3973  0.8401
 6091TIP3   OH239831   0.372   1.968   8.595  0.2991 -0.2461 -0.6859
 6091TIP3    H139832   0.349   1.986   8.504 -0.0894 -0.8207 -0.7002
 6091TIP3    H239833   0.444   2.029   8.613  0.2724 -0.0154 -1.3241
 6092TIP3   OH239834   1.312   4.960   0.381 -0.5080  0.0751  0.6622
 6092TIP3    H139835   1.333   5.041   0.427  2.9226 -1.0086  1.3252
 6092TIP3    H239836   1.376   4.956   0.309 -2.0273 -1.0259 -0.7143
 6093TIP3   OH239837   0.068   5.152   0.872 -0.3804  0.2223 -0.1344
 6093TIP3    H139838   0.091   5.162   0.779 -1.1276 -0.9968 -0.4829
 6093TIP3    H239839   0.148   5.173   0.919  0.4692 -0.6065 -1.1482
 6094TIP3   OH239840   3.857   4.623   7.583  0.1972 -0.7963 -0.4023
 6094TIP3    H139841   3.845   4.668   7.500  0.3790 -2.0337 -1.1264
 6094TIP3    H239842   3.826   4.534   7.567  1.0368 -1.2992  0.5970
 6095TIP3   OH239843   3.224   6.472   1.960 -0.6875 -0.6997 -0.2205
 6095TIP3    H139844   3.226   6.442   2.051 -0.8314 -1.3986 -0.4424
 6095TIP3    H239845   3.252   6.395   1.909  1.7842  0.3653 -0.6027
 6096TIP3   OH239846   6.688   1.242   8.028  0.2650 -0.1488  0.2062
 6096TIP3    H139847   6.626   1.194   8.084 -0.3083  0.0911 -0.2167
 6096TIP3    H239848   6.635   1.276   7.957  0.8070  0.4819  0.0965
 6097TIP3   OH239849   5.941   5.103   0.586  0.1229  0.1501  0.4316
 6097TIP3    H139850   5.885   5.048   0.531  0.3975 -1.9657  2.1233
 6097TIP3    H239851   6.023   5.055   0.594 -0.0769  0.0679  3.0200
 6098TIP3   OH239852   3.444   2.032   0.300 -0.0314 -0.3508  0.0346
 6098TIP3    H139853   3.502   2.042   0.224 -1.2941 -0.1308 -0.9329
 6098TIP3    H239854   3.465   1.946   0.335  0.5176 -0.4932 -0.6162
 6099TIP3   OH239855   1.069   1.109   0.947  0.5504  0.0839 -0.5061
 6099TIP3    H139856   1.164   1.098   0.947  0.7777  1.7549 -0.6695
 6099TIP3    H239857   1.046   1.114   0.854  0.2832 -0.4562 -0.4694
 6100TIP3   OH239858   4.734   3.246   0.385  0.0881  0.3016 -0.1076
 6100TIP3    H139859   4.693   3.331   0.370 -1.3079 -0.4970 -1.0226
 6100TIP3    H239860   4.777   3.225   0.302 -0.3505 -0.2803 -0.1982
 6101TIP3   OH239861   5.558   5.742   1.960 -0.2753  0.4832  0.5449
 6101TIP3    H139862   5.466   5.763   1.980 -1.2575 -2.1001 -0.8426
 6101TIP3    H239863   5.588   5.692   2.035 -0.4452  0.2201  0.4415
 6102TIP3   OH239864   4.392   5.790   8.495  0.1277 -0.5685  0.0992
 6102TIP3    H139865   4.393   5.801   8.400 -0.6444  1.1912  0.2552
 6102TIP3    H239866   4.482   5.807   8.522 -0.5720  4.4645  0.1113
 6103TIP3   OH239867   0.578   2.682   0.422 -0.3718  0.1412  0.2218
 6103TIP3    H139868   0.584   2.593   0.388 -2.3492  0.1781 -0.2992
 6103TIP3    H239869   0.618   2.677   0.509  2.0628 -0.6075 -0.8506
 6104TIP3   OH239870   3.848   0.097   7.655  0.5300  0.5262  0.3084
 6104TIP3    H139871   3.861   0.095   7.561 -0.2483 -0.7605  0.2035
 6104TIP3    H239872   3.914   0.037   7.690 -1.7048 -2.2406  0.1740
 6105TIP3   OH239873   2.239   6.379   2.096  0.4945 -0.2249 -0.3617
 6105TIP3    H139874   2.214   6.305   2.151 -0.8516 -0.5633 -1.3833
 6105TIP3    H239875   2.216   6.456   2.149 -0.3221 -0.5433 -0.2359
 6106TIP3   OH239876   1.958   3.016   2.347  0.5192 -0.0919  0.0336
 6106TIP3    H139877   1.877   3.039   2.392  0.5119  1.6308 -0.7936
 6106TIP3    H239878   2.004   2.958   2.408 -0.0523  1.1644  1.7403
 6107TIP3   OH239879   2.482   2.790   1.884  0.3654  0.3615 -0.2437
 6107TIP3    H139880   2.486   2.793   1.979  0.8144 -1.0522 -0.1909
 6107TIP3    H239881   2.444   2.704   1.864  2.2739 -0.2950 -1.3410
 6108TIP3   OH239882   1.987   4.045   1.545  0.2705 -0.4772 -0.3027
 6108TIP3    H139883   1.980   4.130   1.588  2.4000 -1.0032  1.2422
 6108TIP3    H239884   2.003   4.066   1.453 -0.0582  0.7619 -0.0942
 6109TIP3   OH239885   0.604   4.739   7.910  0.4686  0.4526  0.2181
 6109TIP3    H139886   0.672   4.726   7.844  0.2981  2.0512 -0.3113
 6109TIP3    H239887   0.652   4.753   7.991  0.7027 -0.5339  0.2613
 6110TIP3   OH239888   1.342   4.474   8.701 -0.3916  0.0785  0.1835
 6110TIP3    H139889   1.422   4.526   8.696 -0.3113  0.2980  2.5145
 6110TIP3    H239890   1.272   4.535   8.678 -0.0413  0.3526 -0.1679
 6111TIP3   OH239891   0.617   0.516   8.059  0.3324 -1.0183  0.1942
 6111TIP3    H139892   0.572   0.542   8.139 -0.2952 -2.3160  0.2828
 6111TIP3    H239893   0.643   0.425   8.074 -0.2461 -1.4572 -1.2604
 6112TIP3   OH239894   5.969   3.492   0.966 -0.3871  0.4597  0.3884
 6112TIP3    H139895   5.929   3.569   0.926 -0.2178  1.5577  2.2084
 6112TIP3    H239896   5.898   3.453   1.018 -0.4976 -0.7124 -0.5891
 6113TIP3   OH239897   6.456   6.405   1.722 -0.1928  0.0405 -0.6761
 6113TIP3    H139898   6.413   6.367   1.645  0.0171  0.1163 -0.8305
 6113TIP3    H239899   6.391   6.466   1.757 -1.1372 -1.5279  0.4429
 6114TIP3   OH239900   2.112   4.305   2.414  0.0068 -0.6221  0.0733
 6114TIP3    H139901   2.105   4.214   2.441  0.7908 -0.6977  0.0421
 6114TIP3    H239902   2.147   4.351   2.490  1.1972 -0.6501 -0.4319
 6115TIP3   OH239903   2.770   0.794   0.602 -0.7885  0.1243 -0.1982
 6115TIP3    H139904   2.825   0.748   0.666 -0.3637  1.5937  0.5182
 6115TIP3    H239905   2.831   0.829   0.538 -0.9671  0.8218  0.0013
 6116TIP3   OH239906   4.362   0.699   0.143 -0.2517  0.6206 -0.1159
 6116TIP3    H139907   4.381   0.694   0.049  1.1189 -1.2937  0.2125
 6116TIP3    H239908   4.434   0.752   0.178  0.1366 -0.0058  0.0513
 6117TIP3   OH239909   3.860   2.343   0.696  0.2296 -0.2839  0.1202
 6117TIP3    H139910   3.909   2.327   0.615 -0.7081 -0.3248 -0.4536
 6117TIP3    H239911   3.897   2.425   0.729  1.5763 -0.9711  0.4051
 6118TIP3   OH239912   5.197   0.800   0.092 -0.2479 -0.5131  0.4023
 6118TIP3    H139913   5.195   0.890   0.124 -0.9305 -0.7800  1.1143
 6118TIP3    H239914   5.110   0.765   0.110  0.0175 -1.3299  0.1564
 6119TIP3   OH239915   4.967   3.406   0.888 -0.4756 -0.4085  0.1798
 6119TIP3    H139916   4.894   3.451   0.930  0.8377  2.2722 -0.1795
 6119TIP3    H239917   5.044   3.432   0.939  0.4732 -1.4932 -0.6453
 6120TIP3   OH239918   2.781   6.381   8.278 -0.3827 -0.0663 -0.1303
 6120TIP3    H139919   2.753   6.462   8.235  1.1531 -0.3377 -1.7625
 6120TIP3    H239920   2.877   6.390   8.285 -0.3088 -1.2804  0.6805
 6121TIP3   OH239921   3.322   0.370   8.196  0.0591  0.4009  0.2749
 6121TIP3    H139922   3.316   0.454   8.150  3.1060  0.9791  0.7134
 6121TIP3    H239923   3.277   0.308   8.139 -1.9315  2.2155 -0.2508
 6122TIP3   OH239924   0.693   2.842   2.391 -0.1408 -0.0647  0.0021
 6122TIP3    H139925   0.752   2.794   2.450  0.0154 -0.4503 -0.4620
 6122TIP3    H239926   0.661   2.915   2.444  0.0932 -0.3352  0.5279
 6123TIP3   OH239927   2.819   2.189   8.486  0.0949  0.2774 -0.2733
 6123TIP3    H139928   2.866   2.229   8.413 -0.4148 -1.6720 -1.7514
 6123TIP3    H239929   2.883   2.131   8.527 -0.2689 -0.4260 -0.6812
 6124TIP3   OH239930   6.647   3.470   8.084 -0.0184  0.3304 -0.2564
 6124TIP3    H139931   6.590   3.416   8.029 -1.7543  1.2162  0.5976
 6124TIP3    H239932   6.712   3.408   8.118 -0.1652 -0.6249 -1.5987
 6125TIP3   OH239933   4.410   0.082   1.890  0.3046  0.2589  0.6220
 6125TIP3    H139934   4.344   0.036   1.838 -1.4776  1.1401  1.9690
 6125TIP3    H239935   4.362   0.153   1.932  2.5803  2.3037  0.0150
 6126TIP3   OH239936   6.236   6.666   0.476  0.1206 -0.1359 -0.3793
 6126TIP3    H139937   6.240   6.610   0.397 -0.3578 -1.0969  0.2531
 6126TIP3    H239938   6.275   6.612   0.545 -0.4629  0.2668  0.2761
 6127TIP3   OH239939   2.219   0.686   3.022  0.2423  0.0902  0.2109
 6127TIP3    H139940   2.248   0.709   3.110 -2.4258  1.6260  0.7907
 6127TIP3    H239941   2.241   0.762   2.969  3.7469 -1.6172 -1.0682
 6128TIP3   OH239942   6.592   1.391   7.311 -0.2485  0.0805  0.6496
 6128TIP3    H139943   6.655   1.458   7.285  0.7018 -1.1126 -0.2275
 6128TIP3    H239944   6.516   1.406   7.254  0.5560 -0.5041 -0.6125
 6129TIP3   OH239945   2.782   4.012   7.833  0.9024 -0.3250  0.0720
 6129TIP3    H139946   2.857   3.987   7.887 -0.2065  0.7992  2.3009
 6129TIP3    H239947   2.788   4.107   7.825  0.1876 -0.3144 -0.4366
 6130TIP3   OH239948   4.218   4.437   1.467  0.7036  0.3724 -0.5029
 6130TIP3    H139949   4.232   4.352   1.424  2.7013  0.1839  0.3990
 6130TIP3    H239950   4.303   4.480   1.462 -0.4418  2.6679 -1.5533
 6131TIP3   OH239951   2.146   5.174   7.700 -0.5457  0.3092 -0.5149
 6131TIP3    H139952   2.132   5.139   7.612  0.2461 -3.6124  0.7545
 6131TIP3    H239953   2.073   5.141   7.751 -0.6971  2.0854  0.5092
 6132TIP3   OH239954   2.933   5.874   8.416  0.0328  0.3011 -0.1182
 6132TIP3    H139955   2.955   5.873   8.323  0.8597 -0.4496  0.0726
 6132TIP3    H239956   3.011   5.909   8.459 -0.1596  0.1865  0.3354
 6133TIP3   OH239957   4.363   2.641   1.814 -0.2951  0.1862  0.2876
 6133TIP3    H139958   4.451   2.678   1.819  0.1236 -0.7909  0.3720
 6133TIP3    H239959   4.325   2.659   1.900  0.5985 -1.2244  1.0302
 6134TIP3   OH239960   0.168   6.015   0.798 -0.1716  0.2186  0.3243
 6134TIP3    H139961   0.218   5.942   0.836  0.7419  0.5158 -0.2723
 6134TIP3    H239962   0.233   6.065   0.748 -1.0644  0.6578 -0.4175
 6135TIP3   OH239963   6.351   2.622   1.432  0.0080  0.1053  0.7233
 6135TIP3    H139964   6.444   2.631   1.452  0.3457 -0.9870 -0.2053
 6135TIP3    H239965   6.349   2.595   1.340 -1.2585  0.7370  0.5494
 6136TIP3   OH239966   4.172   4.806   8.680 -0.6862  0.2541  0.5489
 6136TIP3    H139967   4.094   4.856   8.703  0.3704  1.3596  1.9112
 6136TIP3    H239968   4.148   4.714   8.694 -1.6626  0.5934  1.1331
 6137TIP3   OH239969   1.288   6.365   0.955 -0.7246  0.3840 -0.4775
 6137TIP3    H139970   1.346   6.354   0.880 -1.0811 -0.0710 -0.6915
 6137TIP3    H239971   1.342   6.409   1.020 -0.1166 -0.0918 -0.6463
 6138TIP3   OH239972   4.867   3.633   0.428 -0.1698  0.0955 -0.3322
 6138TIP3    H139973   4.879   3.607   0.337 -1.5918  0.7404 -0.7277
 6138TIP3    H239974   4.953   3.663   0.456 -0.0359  1.2794 -1.9183
 6139TIP3   OH239975   2.276   3.239   0.673 -0.0403 -0.6282 -0.1659
 6139TIP3    H139976   2.208   3.304   0.688  0.5742  0.4524 -1.8325
 6139TIP3    H239977   2.308   3.217   0.761 -0.4417  1.1196  0.4563
 6140TIP3   OH239978   1.200   1.047   7.720  0.3114 -0.4870  0.4419
 6140TIP3    H139979   1.269   1.080   7.778 -0.4192  1.7023  0.1716
 6140TIP3    H239980   1.234   1.061   7.632  0.2689 -1.1829  0.3081
 6141TIP3   OH239981   2.669   5.856   1.152 -0.1277  0.9757 -0.5708
 6141TIP3    H139982   2.727   5.862   1.076 -0.5421  0.5194 -0.9368
 6141TIP3    H239983   2.727   5.831   1.224  0.2662  1.3766 -0.7416
 6142TIP3   OH239984   6.608   3.709   2.422  0.9225  0.5725 -0.8787
 6142TIP3    H139985   6.681   3.742   2.475  1.7351 -0.2229 -1.4743
 6142TIP3    H239986   6.543   3.779   2.426  1.8713  1.4777 -0.6546
 6143TIP3   OH239987   2.589   0.991   1.909 -0.1599 -0.2010 -0.0669
 6143TIP3    H139988   2.549   1.069   1.947 -0.8687 -0.2076 -0.7669
 6143TIP3    H239989   2.683   1.008   1.911 -0.2872  0.4728  0.2103
 6144TIP3   OH239990   1.156   0.291   6.757 -0.3304  0.5313  0.0645
 6144TIP3    H139991   1.100   0.220   6.789 -1.7524  1.4009 -0.3863
 6144TIP3    H239992   1.111   0.323   6.679  1.3821  0.5639 -0.9488
 6145TIP3   OH239993   0.316   5.493   7.205  0.0004  0.3693 -0.2123
 6145TIP3    H139994   0.270   5.577   7.203 -0.8859 -0.0702  0.5661
 6145TIP3    H239995   0.298   5.459   7.293  0.8537 -0.3537 -0.3092
 6146TIP3   OH239996   6.746   3.415   7.600  0.0215  0.3652 -0.2233
 6146TIP3    H139997   6.710   3.354   7.536 -0.5272  0.8316 -0.3715
 6146TIP3    H239998   6.818   3.458   7.554  1.9047 -1.7489  0.6113
 6147TIP3   OH239999   3.010   0.765   0.180  0.3028 -0.1090  0.5803
 6147TIP3    H140000   2.925   0.803   0.203 -0.3965 -0.5219 -1.1395
 6147TIP3    H240001   3.012   0.681   0.226 -1.8564 -1.7641 -2.0227
 6148TIP3   OH240002   6.066   1.019   0.884 -0.2528 -0.1643 -0.3709
 6148TIP3    H140003   6.000   0.967   0.838 -1.9696  0.2641  1.5194
 6148TIP3    H240004   6.088   1.089   0.822 -0.3876 -1.1859 -1.6259
 6149TIP3   OH240005   6.581   0.682   0.994 -0.1330 -0.4187  0.1698
 6149TIP3    H140006   6.539   0.745   0.935 -1.2623 -1.6541 -0.3969
 6149TIP3    H240007   6.575   0.599   0.948 -0.3455 -1.2867  1.7097
 6150TIP3   OH240008   2.273   4.713   8.153  0.2466 -0.5302 -0.1589
 6150TIP3    H140009   2.368   4.717   8.161  0.1301  0.3978  1.1753
 6150TIP3    H240010   2.250   4.785   8.094  0.3435 -0.2989  0.0789
 6151TIP3   OH240011   4.274   2.281   0.654 -0.5316  0.1374 -0.0201
 6151TIP3    H140012   4.227   2.285   0.737 -0.4843 -1.2440  0.0896
 6151TIP3    H240013   4.353   2.335   0.669 -0.3376 -0.3897  0.9549
 6152TIP3   OH240014   5.554   4.861   0.262 -0.4577  0.3401 -0.0883
 6152TIP3    H140015   5.509   4.793   0.314 -0.1624  1.1013  1.2083
 6152TIP3    H240016   5.596   4.812   0.191 -1.5240 -0.6450 -0.0756
 6153TIP3   OH240017   3.821   5.515   8.475  0.4722 -0.3044 -0.5741
 6153TIP3    H140018   3.867   5.431   8.479  0.5147 -0.2362  1.5118
 6153TIP3    H240019   3.872   5.574   8.531 -0.0581  0.8628 -1.2795
 6154TIP3   OH240020   4.504   6.536   1.181 -0.1081 -0.1667 -0.7806
 6154TIP3    H140021   4.432   6.600   1.174 -0.3813 -0.4257 -0.3758
 6154TIP3    H240022   4.552   6.545   1.098  0.5319  1.3633 -0.2717
 6155TIP3   OH240023   6.520   2.845   0.785  0.9163  0.7981  0.3318
 6155TIP3    H140024   6.435   2.839   0.828 -0.1562  2.3994 -1.4003
 6155TIP3    H240025   6.567   2.913   0.834  1.9438 -1.2237  2.3283
 6156TIP3   OH240026   5.139   3.077   1.466 -0.1046 -0.9784  0.0194
 6156TIP3    H140027   5.098   3.059   1.382  0.6866  2.1327 -1.1942
 6156TIP3    H240028   5.067   3.077   1.529 -1.3832  0.4708 -1.3697
 6157TIP3   OH240029   6.648   4.802   1.334 -0.1995  0.2497 -0.1743
 6157TIP3    H140030   6.590   4.850   1.393  0.8193 -0.3485  1.3875
 6157TIP3    H240031   6.730   4.852   1.336 -0.7499  1.4234 -2.8143
 6158TIP3   OH240032   1.688   4.597   0.248  0.1446 -0.1861  0.3193
 6158TIP3    H140033   1.650   4.563   0.168  0.1494 -0.0354  0.2519
 6158TIP3    H240034   1.675   4.528   0.313  0.9416 -0.6708 -0.0308
 6159TIP3   OH240035   2.100   3.760   0.609  0.2957  0.4968  0.1394
 6159TIP3    H140036   2.136   3.672   0.615 -2.0165 -0.7307 -2.2091
 6159TIP3    H240037   2.157   3.813   0.666  1.9472 -2.3900  1.3912
 6160TIP3   OH240038   1.593   2.865   7.010 -0.1403 -0.3176 -0.5391
 6160TIP3    H140039   1.573   2.939   6.954  1.9981  0.1551 -0.7789
 6160TIP3    H240040   1.557   2.789   6.965  0.5623  0.1912 -2.0206
 6161TIP3   OH240041   1.807   4.111   2.121 -0.0778  0.5880 -0.0020
 6161TIP3    H140042   1.730   4.054   2.119 -0.3472  0.9768 -1.3015
 6161TIP3    H240043   1.810   4.144   2.211 -1.6468  0.8581 -0.0340
 6162TIP3   OH240044   4.874   6.617   0.608 -0.4481  0.3624 -0.5867
 6162TIP3    H140045   4.860   6.523   0.596 -0.3674  0.3621 -0.6751
 6162TIP3    H240046   4.896   6.649   0.521  1.1932  0.1780 -0.2644
 6163TIP3   OH240047   5.683   6.524   2.551 -0.0667  0.0229  0.0770
 6163TIP3    H140048   5.760   6.469   2.535 -0.4245 -0.2952 -0.6022
 6163TIP3    H240049   5.715   6.614   2.546  0.9081 -0.0443  2.9869
 6164TIP3   OH240050   1.320   1.673   1.117  0.4804  0.0381  0.1385
 6164TIP3    H140051   1.327   1.763   1.086 -1.6184  0.2604  0.1640
 6164TIP3    H240052   1.306   1.680   1.211 -2.0469 -0.0920 -0.1353
 6165TIP3   OH240053   0.313   4.135   0.579  0.5244 -0.7838 -0.0282
 6165TIP3    H140054   0.407   4.146   0.596  0.7793 -1.1057 -1.1219
 6165TIP3    H240055   0.274   4.122   0.665  1.4930 -0.6681  0.4398
 6166TIP3   OH240056   3.719   1.646   0.730  0.3138  0.5154 -0.4278
 6166TIP3    H140057   3.644   1.616   0.783  0.6840  1.5145  0.6997
 6166TIP3    H240058   3.684   1.719   0.679  0.8030  1.9105  1.1314
 6167TIP3   OH240059   1.035   0.842   7.797  0.0316  0.4423  0.7144
 6167TIP3    H140060   1.083   0.900   7.738 -2.6489  1.5001 -0.5762
 6167TIP3    H240061   1.103   0.801   7.851  2.3065  2.0651 -0.7519
 6168TIP3   OH240062   0.796   0.759   0.650 -0.0599  0.2559  0.5515
 6168TIP3    H140063   0.765   0.836   0.698  3.0595  0.1621  3.0301
 6168TIP3    H240064   0.831   0.795   0.568 -1.8835  0.9331  0.0107
 6169TIP3   OH240065   5.214   4.933   8.304 -0.5345  0.3405  0.1517
 6169TIP3    H140066   5.220   4.839   8.290 -1.1413  0.4577 -0.9753
 6169TIP3    H240067   5.121   4.954   8.295 -0.2940  1.1759 -0.5012
 6170TIP3   OH240068   0.584   5.900   1.804  0.2039 -0.3085  0.4765
 6170TIP3    H140069   0.592   5.978   1.858  2.1234  1.3436 -1.9653
 6170TIP3    H240070   0.652   5.841   1.836  0.9692  0.4294  0.2340
 6171TIP3   OH240071   4.173   1.987   0.383  0.6240  0.2227  0.3797
 6171TIP3    H140072   4.173   1.980   0.478  1.1926  0.4011  0.3971
 6171TIP3    H240073   4.205   2.076   0.366 -0.3807  0.5326  0.0403
 6172TIP3   OH240074   4.990   1.767   1.478  0.0731 -0.0425 -0.5128
 6172TIP3    H140075   5.007   1.787   1.570 -1.4646 -2.3702  0.3616
 6172TIP3    H240076   5.048   1.694   1.458 -1.5991 -1.4528 -0.4628
 6173TIP3   OH240077   1.185   4.634   1.162 -0.0163 -0.3210 -0.1076
 6173TIP3    H140078   1.197   4.715   1.113 -0.5056  0.5893  1.1823
 6173TIP3    H240079   1.203   4.564   1.100 -1.3533  0.7373 -1.7872
 6174TIP3   OH240080   1.474   3.303   0.410 -0.2456  0.2663  0.6185
 6174TIP3    H140081   1.490   3.297   0.316  0.4219 -0.4659  0.7730
 6174TIP3    H240082   1.379   3.313   0.418 -0.2746  0.6494 -0.1381
 6175TIP3   OH240083   0.641   1.702   8.353 -0.5253  0.3359  0.0230
 6175TIP3    H140084   0.562   1.649   8.350  0.6809 -1.5457 -1.5029
 6175TIP3    H240085   0.707   1.643   8.390  0.4608  1.3540 -0.0780
 6176TIP3   OH240086   1.400   1.787   8.157  0.3061 -0.1347 -0.5907
 6176TIP3    H140087   1.350   1.868   8.147 -0.3715 -0.4514  0.0948
 6176TIP3    H240088   1.337   1.718   8.138  0.6933 -0.5240 -0.4713
 6177TIP3   OH240089   5.164   6.225   1.564  0.4185  0.2007 -0.1658
 6177TIP3    H140090   5.123   6.140   1.581  0.4749  0.3356  0.7118
 6177TIP3    H240091   5.180   6.226   1.470  0.7547 -0.9065 -0.1296
 6178TIP3   OH240092   6.367   5.068   1.339  0.5568  0.6793 -0.2489
 6178TIP3    H140093   6.378   4.998   1.403  0.2457  0.3828 -0.5150
 6178TIP3    H240094   6.426   5.137   1.369  0.7137  0.3867  0.1307
 6179TIP3   OH240095   3.872   0.584   0.125  0.2398 -0.4961 -0.0022
 6179TIP3    H140096   3.886   0.675   0.153 -1.0252 -0.6316  1.1688
 6179TIP3    H240097   3.786   0.561   0.160  0.0727 -1.8197 -1.1831
 6180TIP3   OH240098   6.489   0.648   7.723  0.5224 -0.3271  0.2404
 6180TIP3    H140099   6.554   0.717   7.711 -0.3937  0.5320  0.1192
 6180TIP3    H240100   6.407   0.686   7.692 -0.4297 -0.7151  2.1105
 6181TIP3   OH240101   0.523   6.650   0.068  0.1715 -0.7484 -0.2619
 6181TIP3    H140102   0.531   6.680   0.159 -1.6200 -2.4687  0.5289
 6181TIP3    H240103   0.471   6.718   0.025 -0.2924 -0.6551  0.4211
 6182TIP3   OH240104   0.401   3.872   1.732 -0.5232 -0.6027 -0.0815
 6182TIP3    H140105   0.444   3.821   1.663  0.0031 -0.9245  0.4660
 6182TIP3    H240106   0.473   3.918   1.775 -0.7094 -1.1525  0.8531
 6183TIP3   OH240107   1.894   1.592   1.833 -0.6937 -0.2855 -0.3313
 6183TIP3    H140108   1.986   1.606   1.812 -0.6048  1.9161  1.1087
 6183TIP3    H240109   1.847   1.647   1.770 -0.8726  0.1530  0.1715
 6184TIP3   OH240110   5.543   4.749   1.851  0.4994 -0.1208  0.6945
 6184TIP3    H140111   5.507   4.703   1.927 -0.8321 -1.2870 -0.5901
 6184TIP3    H240112   5.483   4.729   1.779  3.1600 -1.3312 -1.3726
 6185TIP3   OH240113   5.239   3.426   8.489  0.5465 -0.1935  0.0958
 6185TIP3    H140114   5.313   3.454   8.436  1.2171 -1.4252  0.3508
 6185TIP3    H240115   5.165   3.476   8.454  0.9217 -1.0771 -2.1213
 6186TIP3   OH240116   6.478   2.986   0.558  0.7899  0.5633  0.2137
 6186TIP3    H140117   6.483   2.913   0.620  1.1659  1.1397  0.8757
 6186TIP3    H240118   6.398   3.032   0.582  0.6068  0.4385 -0.1401
 6187TIP3   OH240119   3.582   4.388   7.589  0.1645  0.4861 -0.5542
 6187TIP3    H140120   3.595   4.370   7.682 -0.4578 -2.0332 -0.8847
 6187TIP3    H240121   3.526   4.316   7.559  0.8085  0.9453 -3.0039
 6188TIP3   OH240122   6.336   2.966   1.040 -0.6798 -0.4600 -0.1678
 6188TIP3    H140123   6.388   2.898   1.083 -0.8700 -0.6417 -0.2220
 6188TIP3    H240124   6.257   2.921   1.011 -0.5931 -0.3179 -0.6329
 6189TIP3   OH240125   1.579   0.639   8.456 -0.3347  0.3229 -0.0988
 6189TIP3    H140126   1.574   0.722   8.408  2.4105 -0.2364 -1.5376
 6189TIP3    H240127   1.644   0.655   8.525 -1.3673 -0.0412  0.9873
 6190TIP3   OH240128   3.640   1.337   0.652 -0.0238  0.3440  0.0235
 6190TIP3    H140129   3.639   1.284   0.731 -0.4847 -1.3063 -1.0233
 6190TIP3    H240130   3.733   1.352   0.634  0.1215 -0.1973  0.2975
 6191TIP3   OH240131   5.898   2.142   1.861 -0.0376  0.8024 -0.0949
 6191TIP3    H140132   5.969   2.081   1.881 -0.6052 -0.9364 -2.8014
 6191TIP3    H240133   5.822   2.106   1.907  0.1534  0.8937  0.2967
 6192TIP3   OH240134   3.639   3.122   7.525 -0.2078  0.0232  0.1511
 6192TIP3    H140135   3.618   3.174   7.447 -4.1639 -0.1289  0.8900
 6192TIP3    H240136   3.623   3.031   7.498  1.6562 -0.3742  0.2856
 6193TIP3   OH240137   5.295   1.111   2.259 -0.0835 -0.2274  0.2469
 6193TIP3    H140138   5.209   1.114   2.302 -0.2591 -2.7506  0.2210
 6193TIP3    H240139   5.350   1.062   2.320  0.6551 -0.7354 -0.8143
 6194TIP3   OH240140   5.506   4.972   2.440  0.1488  0.1583 -0.2768
 6194TIP3    H140141   5.515   4.926   2.524  1.0081  3.5870  1.6947
 6194TIP3    H240142   5.412   4.976   2.425 -0.0286 -0.3001  0.6374
 6195TIP3   OH240143   4.876   4.717   7.692 -0.3277 -0.6537  0.0217
 6195TIP3    H140144   4.869   4.808   7.721  0.5943 -0.8828  1.0286
 6195TIP3    H240145   4.890   4.723   7.597 -1.2667  0.2001 -0.0779
 6196TIP3   OH240146   3.301   5.275   8.741 -0.2694 -0.5402 -0.5316
 6196TIP3    H140147   3.336   5.278   8.830 -1.9153 -0.6200  0.1490
 6196TIP3    H240148   3.233   5.343   8.740 -1.2305 -1.4838 -1.2757
 6197TIP3   OH240149   3.935   2.513   1.039  0.2628  0.6742 -0.0351
 6197TIP3    H140150   3.961   2.605   1.032 -0.9931  1.0490 -0.0630
 6197TIP3    H240151   3.923   2.498   1.133  2.0461  0.0466  0.1358
 6198TIP3   OH240152   1.579   6.250   0.417  0.4413  0.6873  0.1534
 6198TIP3    H140153   1.655   6.209   0.457 -0.3315 -1.0047 -0.0302
 6198TIP3    H240154   1.507   6.188   0.433 -0.7887  1.9849 -0.1378
 6199TIP3   OH240155   4.803   3.206   2.363 -0.5834  0.5331  0.9207
 6199TIP3    H140156   4.874   3.143   2.354  1.7577  3.1523 -0.1843
 6199TIP3    H240157   4.828   3.261   2.436 -1.3236  1.6559  0.3641
 6200TIP3   OH240158   5.001   1.962   0.795  0.5270 -0.6617 -0.3153
 6200TIP3    H140159   5.018   2.032   0.857 -0.0500  1.1661 -2.1241
 6200TIP3    H240160   5.083   1.952   0.747 -0.3843  1.4515 -2.5356
 6201TIP3   OH240161   3.649   5.879   7.675 -0.1620  0.1026  0.3743
 6201TIP3    H140162   3.575   5.940   7.681  0.0216  0.4736 -0.8396
 6201TIP3    H240163   3.663   5.867   7.581  1.9509  0.8337  0.5332
 6202TIP3   OH240164   4.333   4.167   7.829 -0.0048 -0.2885 -0.8734
 6202TIP3    H140165   4.282   4.142   7.751  1.0705 -0.4997 -1.5342
 6202TIP3    H240166   4.333   4.089   7.884  1.9592 -1.3192 -2.1836
 6203TIP3   OH240167   6.495   5.549   1.850 -0.1197 -0.6557 -0.3974
 6203TIP3    H140168   6.490   5.615   1.919 -1.0704 -0.4485 -0.6530
 6203TIP3    H240169   6.552   5.587   1.783 -0.5723 -0.1367 -0.4924
 6204TIP3   OH240170   2.921   0.572   8.112  0.0479 -0.2083 -0.0377
 6204TIP3    H140171   2.888   0.533   8.031  0.7289 -0.7559 -0.0637
 6204TIP3    H240172   2.867   0.650   8.125 -0.8794 -0.7893 -0.3547
 6205TIP3   OH240173   6.318   3.663   2.059 -0.1574 -0.0859  0.0175
 6205TIP3    H140174   6.271   3.584   2.087  0.1826 -0.1424  0.4514
 6205TIP3    H240175   6.398   3.663   2.112  0.1537  0.2074 -0.4440
 6206TIP3   OH240176   6.661   2.363   0.608  0.4028  0.3366  1.0022
 6206TIP3    H140177   6.741   2.320   0.639  1.1284  0.8008 -0.1653
 6206TIP3    H240178   6.673   2.371   0.514 -0.6194  1.2444  0.9343
 6207TIP3   OH240179   1.435   6.603   7.036  0.2617 -0.4398  0.2491
 6207TIP3    H140180   1.451   6.570   7.125  0.5488 -2.7237 -0.5895
 6207TIP3    H240181   1.520   6.600   6.993 -0.2728 -1.5512 -0.7730
 6208TIP3   OH240182   5.161   2.403   2.317 -0.0520 -0.0641 -0.0486
 6208TIP3    H140183   5.097   2.450   2.263  0.4178 -0.1155 -0.6569
 6208TIP3    H240184   5.158   2.448   2.402  0.2820  0.9779 -0.5705
 6209TIP3   OH240185   0.710   4.481   8.242 -0.4978  0.3290  0.0130
 6209TIP3    H140186   0.787   4.533   8.220  0.5891 -1.6060 -1.0330
 6209TIP3    H240187   0.698   4.424   8.166 -1.7580 -0.7949  1.0241
 6210TIP3   OH240188   3.741   5.535   2.114 -0.0427  0.1827 -0.0884
 6210TIP3    H140189   3.702   5.554   2.029  0.5459  2.2500  0.0519
 6210TIP3    H240190   3.819   5.484   2.094 -0.5866 -0.4618 -0.6585
 6211TIP3   OH240191   0.912   4.448   7.603  0.0334 -0.4889 -0.0592
 6211TIP3    H140192   0.923   4.364   7.649 -2.3392 -1.5986 -1.3272
 6211TIP3    H240193   0.961   4.437   7.521  1.7328  0.3495  0.7862
 6212TIP3   OH240194   3.751   3.241   8.224  0.7542  0.2429 -0.5195
 6212TIP3    H140195   3.762   3.174   8.292 -0.1494  0.4286 -0.1775
 6212TIP3    H240196   3.762   3.324   8.270 -2.0283  0.4651 -0.0870
 6213TIP3   OH240197   0.383   2.736   7.211 -0.1416 -0.2060  0.1175
 6213TIP3    H140198   0.325   2.786   7.152 -2.1958 -0.7630  1.5573
 6213TIP3    H240199   0.354   2.645   7.202 -1.4526 -0.1562  2.8971
 6214TIP3   OH240200   3.292   4.492   2.056 -0.2929 -0.1161 -0.3775
 6214TIP3    H140201   3.329   4.480   2.143  0.5157  0.5455 -0.6230
 6214TIP3    H240202   3.243   4.411   2.040 -1.2329  0.1335  1.0580
 6215TIP3   OH240203   6.490   1.723   2.301  0.1695  0.1943  0.0966
 6215TIP3    H140204   6.536   1.797   2.340 -0.0180  0.0535  0.5987
 6215TIP3    H240205   6.559   1.660   2.279  0.4712  1.0585 -1.5825
 6216TIP3   OH240206   0.277   4.469   1.900 -0.5865  0.0141 -0.3465
 6216TIP3    H140207   0.185   4.490   1.884 -0.7301 -1.4884 -1.6775
 6216TIP3    H240208   0.277   4.374   1.914  0.6025  0.1864  0.9958
 6217TIP3   OH240209   5.325   1.694   8.083  0.2062 -0.2954 -0.0204
 6217TIP3    H140210   5.276   1.625   8.038 -0.4484 -0.5572  1.0352
 6217TIP3    H240211   5.259   1.757   8.110  0.7134  0.3844 -0.3354
 6218TIP3   OH240212   5.200   3.135   0.236 -0.4145  0.3857 -0.3899
 6218TIP3    H140213   5.282   3.112   0.281  0.3031  1.5748 -1.0293
 6218TIP3    H240214   5.133   3.129   0.303  0.4165  0.7143  0.4955
 6219TIP3   OH240215   1.269   3.235   7.245  0.4460 -0.2837  0.2352
 6219TIP3    H140216   1.272   3.146   7.210  1.2641  0.0202 -0.5042
 6219TIP3    H240217   1.332   3.234   7.317  0.6364 -0.2421  0.0704
 6220TIP3   OH240218   3.583   3.181   0.848 -0.2734  0.6573  0.4516
 6220TIP3    H140219   3.574   3.129   0.767 -1.1891 -0.6173  1.3309
 6220TIP3    H240220   3.571   3.271   0.820 -1.0176  0.2000 -0.7796
 6221TIP3   OH240221   6.108   0.268   8.757 -0.5188  0.1922  0.2250
 6221TIP3    H140222   6.054   0.201   8.799  1.8373 -1.0089  1.5439
 6221TIP3    H240223   6.098   0.251   8.663 -0.5007 -1.6494  0.5083
 6222TIP3   OH240224   3.957   4.118   0.241 -0.1028  0.2384  0.0748
 6222TIP3    H140225   3.993   4.174   0.310 -2.2951  3.3618 -1.0453
 6222TIP3    H240226   3.871   4.092   0.273  0.1755 -1.0769 -0.1838
 6223TIP3   OH240227   1.419   4.958   2.075  0.2388 -0.1390 -0.0654
 6223TIP3    H140228   1.483   5.025   2.100 -1.1276  1.2500 -0.1888
 6223TIP3    H240229   1.336   4.988   2.111 -0.1703 -2.6304  1.3417
 6224TIP3   OH240230   0.910   2.809   2.555 -0.1846 -0.6838  0.2607
 6224TIP3    H140231   0.976   2.877   2.544 -0.8129 -0.2152 -0.7307
 6224TIP3    H240232   0.933   2.766   2.638 -0.6035  1.6608  1.6749
 6225TIP3   OH240233   6.177   6.377   7.493  0.1002 -0.7139  0.4356
 6225TIP3    H140234   6.218   6.458   7.524  0.1997 -0.5139 -0.2005
 6225TIP3    H240235   6.237   6.344   7.425  0.6200 -1.9070  1.4413
 6226TIP3   OH240236   4.528   1.078   8.239 -0.5564 -0.0789  0.0508
 6226TIP3    H140237   4.532   1.028   8.158 -0.9221  1.0365 -0.6803
 6226TIP3    H240238   4.618   1.081   8.270 -0.4144 -0.5078 -0.3097
 6227TIP3   OH240239   4.530   1.732   2.442 -0.2796  0.0078  0.3976
 6227TIP3    H140240   4.520   1.653   2.495  1.4541  0.6956  1.8558
 6227TIP3    H240241   4.444   1.744   2.401 -1.1984 -1.4735  1.7571
 6228TIP3   OH240242   2.516   5.099   6.944  0.2244 -0.3404 -0.4332
 6228TIP3    H140243   2.525   5.007   6.918 -1.0419 -0.6555  0.1407
 6228TIP3    H240244   2.514   5.097   7.040  2.6186  0.5755 -0.3041
 6229TIP3   OH240245   2.596   0.674   0.386 -0.0846 -0.5101 -0.7796
 6229TIP3    H140246   2.669   0.617   0.362 -0.3866 -0.8801 -0.8207
 6229TIP3    H240247   2.581   0.657   0.479  0.0811 -0.2054 -0.6944
 6230TIP3   OH240248   5.599   2.196   0.005  0.0308 -0.3474 -0.0473
 6230TIP3    H140249   5.604   2.263   0.073 -0.8153  0.9944 -1.2325
 6230TIP3    H240250   5.534   2.230  -0.057 -1.2118 -2.7620 -0.1893
 6231TIP3   OH240251   3.860   2.948   7.893 -0.1666 -0.0533 -0.2606
 6231TIP3    H140252   3.895   2.894   7.964  1.3258  1.8758  0.5924
 6231TIP3    H240253   3.840   3.032   7.935 -2.5361  0.0860 -1.4905
 6232TIP3   OH240254   0.528   3.587   2.198 -0.0991  0.1126  0.0643
 6232TIP3    H140255   0.604   3.551   2.151  1.3311  0.4212  2.0024
 6232TIP3    H240256   0.459   3.591   2.132  0.6833 -2.8740 -1.1106
 6233TIP3   OH240257   1.671   3.739   7.474  0.7661  0.9762 -1.1652
 6233TIP3    H140258   1.603   3.782   7.526  1.0718  0.7135 -0.5313
 6233TIP3    H240259   1.750   3.788   7.493  1.9446 -1.9119  2.4752
 6234TIP3   OH240260   5.854   1.544   0.711 -0.2856 -0.0177 -0.0847
 6234TIP3    H140261   5.875   1.511   0.798  1.2398  1.3418  0.1121
 6234TIP3    H240262   5.846   1.639   0.723 -0.6760  0.1257 -1.3199
 6235TIP3   OH240263   1.442   1.958   2.343 -1.3298 -0.3581  0.3381
 6235TIP3    H140264   1.415   1.913   2.423  1.8060 -1.8441  0.7153
 6235TIP3    H240265   1.430   1.893   2.274 -0.1739 -0.5793  0.3154
 6236TIP3   OH240266   5.283   4.244   7.110  0.4580 -0.0217  0.7363
 6236TIP3    H140267   5.355   4.222   7.168  2.4591 -1.1739 -1.9777
 6236TIP3    H240268   5.309   4.327   7.070  0.5247 -0.6618 -0.5889
 6237TIP3   OH240269   4.738   2.632   2.087 -0.1601  0.2767 -0.2927
 6237TIP3    H140270   4.781   2.663   2.167 -1.1564 -1.3125  0.9151
 6237TIP3    H240271   4.667   2.576   2.118 -0.9271  0.0624 -2.2981
 6238TIP3   OH240272   2.929   5.109   7.294  0.2195  0.0939  0.2600
 6238TIP3    H140273   2.898   5.185   7.245  3.5443  0.2538 -1.8972
 6238TIP3    H240274   2.876   5.036   7.261 -0.4845  0.8672 -0.3773
 6239TIP3   OH240275   2.691   3.263   7.204  0.0738  0.7633 -0.6029
 6239TIP3    H140276   2.669   3.271   7.297  1.7588  0.6851 -0.1611
 6239TIP3    H240277   2.607   3.247   7.161 -1.0045  2.5654  0.6703
 6240TIP3   OH240278   5.231   1.706   0.742  0.5333 -0.5842  0.3078
 6240TIP3    H140279   5.252   1.781   0.686  3.4834  0.0035  1.9974
 6240TIP3    H240280   5.224   1.632   0.682  2.1062  0.2780 -1.0093
 6241TIP3   OH240281   0.442   3.208   1.341  0.0995 -0.0115  0.1436
 6241TIP3    H140282   0.443   3.299   1.371 -0.4309 -0.4193  1.5003
 6241TIP3    H240283   0.505   3.163   1.398 -0.1479 -0.6279 -0.0593
 6242TIP3   OH240284   6.175   5.218   8.343 -0.6966  0.4930 -0.0431
 6242TIP3    H140285   6.084   5.246   8.342 -0.9671 -0.3223  0.3922
 6242TIP3    H240286   6.209   5.246   8.428 -0.6939  0.3383  0.0070
 6243TIP3   OH240287   2.275   2.689   8.334  0.5181 -0.3735 -0.1016
 6243TIP3    H140288   2.333   2.615   8.318  0.0935 -1.5523  3.0981
 6243TIP3    H240289   2.187   2.656   8.314  0.5498  0.2467 -1.4017
 6244TIP3   OH240290   4.362   6.353   8.576  0.0258  0.6602 -0.4883
 6244TIP3    H140291   4.398   6.441   8.577  2.3086 -0.1133 -2.6563
 6244TIP3    H240292   4.422   6.301   8.629 -0.5831  0.1755 -0.2612
 6245TIP3   OH240293   3.076   3.992   8.349  0.1873  0.0134 -0.2333
 6245TIP3    H140294   3.117   3.906   8.356 -0.5694 -0.3750 -0.5500
 6245TIP3    H240295   3.142   4.052   8.385  0.6872 -0.6970  0.0666
 6246TIP3   OH240296   0.722   1.261   8.615  0.5161  0.3269  0.3078
 6246TIP3    H140297   0.665   1.240   8.541  0.0700  2.0739  0.1132
 6246TIP3    H240298   0.793   1.197   8.609  0.7738  0.7348 -1.9643
 6247TIP3   OH240299   2.969   2.445   0.019 -0.2609 -0.1229  0.4454
 6247TIP3    H140300   2.982   2.529   0.063 -1.1509  0.2802 -0.0409
 6247TIP3    H240301   2.874   2.433   0.017 -0.2503 -0.1329 -1.3361
 6248TIP3   OH240302   4.836   6.400   8.467  0.1859 -0.2989  0.2182
 6248TIP3    H140303   4.774   6.443   8.525  0.4405 -0.4793  0.6256
 6248TIP3    H240304   4.873   6.471   8.415  0.0186 -0.1275  0.3308
 6249TIP3   OH240305   2.397   3.767   2.166 -0.5826 -0.0930  0.0994
 6249TIP3    H140306   2.316   3.756   2.116  0.0976  0.8669 -1.2703
 6249TIP3    H240307   2.368   3.764   2.258 -1.9060 -1.5311 -0.3223
 6250TIP3   OH240308   3.384   2.990   7.151 -0.2732 -0.3716 -0.5866
 6250TIP3    H140309   3.431   3.037   7.221  0.9592 -1.7554 -0.4336
 6250TIP3    H240310   3.320   2.936   7.198 -1.9399  1.3218 -0.7819
 6251TIP3   OH240311   1.572   3.967   1.848  0.0554 -0.4873  0.4528
 6251TIP3    H140312   1.588   3.937   1.937  0.9101 -2.2742 -0.2573
 6251TIP3    H240313   1.656   3.955   1.803 -0.6029 -0.5037 -0.8260
 6252TIP3   OH240314   4.270   2.012   1.131  0.2563  0.4692  1.1148
 6252TIP3    H140315   4.279   2.019   1.226 -0.5512  2.8990  1.0845
 6252TIP3    H240316   4.177   1.991   1.117  0.6270 -1.1432  0.8473
 6253TIP3   OH240317   2.542   6.634   8.491  0.7589 -0.1959  0.5204
 6253TIP3    H140318   2.553   6.681   8.408 -0.9997  1.0827  0.9566
 6253TIP3    H240319   2.615   6.665   8.545 -0.9121  3.1156  1.1935
 6254TIP3   OH240320   6.538   5.167   0.155  0.9001  0.2004 -0.0485
 6254TIP3    H140321   6.481   5.240   0.176  0.6478  0.3708 -1.2524
 6254TIP3    H240322   6.625   5.206   0.145  0.4847  0.6653 -2.3678
 6255TIP3   OH240323   5.778   4.355   0.466  0.4185 -0.1929 -0.3834
 6255TIP3    H140324   5.854   4.347   0.524 -0.0290 -1.0564  0.0967
 6255TIP3    H240325   5.762   4.266   0.436 -1.4899 -0.3493  0.9398
 6256TIP3   OH240326   2.232   2.959   1.101 -0.0183 -0.1270 -0.3782
 6256TIP3    H140327   2.144   2.922   1.093 -0.2399 -0.2935  2.0809
 6256TIP3    H240328   2.220   3.053   1.095 -0.4732 -0.1150  0.6056
 6257TIP3   OH240329   0.124   0.546   1.432 -0.3216  0.1546 -0.1963
 6257TIP3    H140330   0.055   0.566   1.368 -0.3924 -1.5792 -0.7182
 6257TIP3    H240331   0.078   0.537   1.515 -0.1367  3.2208  0.3756
 6258TIP3   OH240332   4.909   4.383   8.013  0.2552 -0.2138 -0.3022
 6258TIP3    H140333   4.920   4.289   7.997 -0.4650 -0.7558  2.0058
 6258TIP3    H240334   4.853   4.413   7.941  2.5409 -0.9493 -2.5242
 6259TIP3   OH240335   6.703   6.350   7.465 -0.1543 -0.3913  0.0527
 6259TIP3    H140336   6.613   6.368   7.436  0.4913  2.6174 -0.4669
 6259TIP3    H240337   6.737   6.287   7.402 -1.3539 -0.1608 -0.8653
 6260TIP3   OH240338   4.497   1.350   8.422 -0.0355  0.6525  0.1468
 6260TIP3    H140339   4.486   1.258   8.447 -0.1521  0.6890  0.2286
 6260TIP3    H240340   4.584   1.373   8.456  0.4139  0.2977 -0.7139
 6261TIP3   OH240341   6.511   4.438   0.107 -0.5597  0.0980  0.1284
 6261TIP3    H140342   6.501   4.348   0.076 -2.1881  0.4601 -0.5005
 6261TIP3    H240343   6.550   4.484   0.033 -0.9832  0.1875 -0.0400
 6262TIP3   OH240344   2.324   3.190   7.654  0.2355 -0.0500  0.4370
 6262TIP3    H140345   2.299   3.282   7.644  0.9179  0.0401 -0.6124
 6262TIP3    H240346   2.250   3.141   7.619 -0.8517  0.0184  2.5118
 6263TIP3   OH240347   5.994   2.886   2.106 -0.4625  0.2674 -0.3882
 6263TIP3    H140348   6.003   2.826   2.032  0.1577 -0.3071  0.1433
 6263TIP3    H240349   6.079   2.930   2.110 -0.2836 -0.1361  0.3487
 6264TIP3   OH240350   5.067   2.334   8.598  0.4183 -0.6035 -0.4630
 6264TIP3    H140351   5.073   2.389   8.676 -0.1700 -0.7968 -0.2764
 6264TIP3    H240352   5.141   2.361   8.544  1.8457 -1.6482  0.9016
 6265TIP3   OH240353   3.980   3.844   3.149 -0.1734  0.0186 -0.2108
 6265TIP3    H140354   3.899   3.847   3.099 -0.0018 -1.9195 -0.6953
 6265TIP3    H240355   4.049   3.849   3.083  0.0931  0.3431  0.0887
 6266TIP3   OH240356   3.370   4.447   1.485  0.3314  0.2992  0.1106
 6266TIP3    H140357   3.411   4.532   1.473 -0.9049  0.9198  0.1131
 6266TIP3    H240358   3.388   4.399   1.404 -0.4147  1.2020 -0.6069
 6267TIP3   OH240359   1.326   1.060   0.908 -0.6769 -0.4080 -0.0146
 6267TIP3    H140360   1.381   1.018   0.974  0.8237 -0.3609 -1.1988
 6267TIP3    H240361   1.386   1.086   0.839 -1.8111  2.0682 -0.1716
 6268TIP3   OH240362   5.556   1.155   7.404  0.4182 -0.3816 -0.5289
 6268TIP3    H140363   5.478   1.200   7.373  0.0421 -0.2643  0.5267
 6268TIP3    H240364   5.621   1.225   7.415 -0.1811 -0.0156  1.1612
 6269TIP3   OH240365   5.647   2.176   2.269  0.0192  0.2860  0.0373
 6269TIP3    H140366   5.595   2.115   2.322 -1.8170  1.3453 -0.4303
 6269TIP3    H240367   5.693   2.229   2.334  0.3192 -0.5056  0.4857
 6270TIP3   OH240368   6.241   4.003   1.572  0.4264 -0.1698  0.1560
 6270TIP3    H140369   6.259   4.076   1.632  1.1258  0.0941 -0.3672
 6270TIP3    H240370   6.194   4.043   1.499 -0.2614 -0.4602  0.4296
 6271TIP3   OH240371   0.243   2.240   1.921  0.1024 -0.7188 -0.8334
 6271TIP3    H140372   0.306   2.300   1.963 -1.5016  0.6250 -0.2257
 6271TIP3    H240373   0.285   2.214   1.840  1.1438  0.7517 -0.8123
 6272TIP3   OH240374   2.949   0.657   0.801 -0.3524 -0.4736 -0.1627
 6272TIP3    H140375   3.039   0.688   0.798 -0.2885 -0.6427 -2.5393
 6272TIP3    H240376   2.955   0.571   0.841  0.4472 -0.2138  0.3019
 6273TIP3   OH240377   3.066   1.594   0.397 -0.2988  0.0154 -0.0084
 6273TIP3    H140378   3.027   1.675   0.365  1.0446  0.8243  0.3121
 6273TIP3    H240379   3.102   1.552   0.319 -0.1200  0.2409 -0.0516
 6274TIP3   OH240380   1.573   4.172   8.336 -0.0685 -0.5143  0.9240
 6274TIP3    H140381   1.526   4.235   8.390 -1.8315  0.1347 -1.2425
 6274TIP3    H240382   1.522   4.091   8.343  0.6863 -0.9509  1.5753
 6275TIP3   OH240383   0.204   0.175   8.715  0.1299 -0.0115  0.1911
 6275TIP3    H140384   0.149   0.097   8.716  0.4511 -0.2494  1.8930
 6275TIP3    H240385   0.157   0.238   8.769  0.4696  0.5674 -0.1731
 6276TIP3   OH240386   4.853   5.963   7.711 -0.2142  0.1293 -0.1560
 6276TIP3    H140387   4.867   6.007   7.795 -1.1402  0.3320 -0.0922
 6276TIP3    H240388   4.924   5.900   7.705 -0.3423 -0.1536  0.9748
 6277TIP3   OH240389   4.809   5.088   1.715 -0.0173  0.2682 -0.6619
 6277TIP3    H140390   4.821   5.183   1.720  1.0220  0.2683 -2.4038
 6277TIP3    H240391   4.805   5.069   1.621 -0.5336 -1.3881 -0.3468
 6278TIP3   OH240392   5.533   6.310   2.458  0.5530  0.5870 -0.4390
 6278TIP3    H140393   5.582   6.386   2.490  0.3464  1.2645 -1.6794
 6278TIP3    H240394   5.509   6.333   2.368 -2.3359  0.4243  0.2108
 6279TIP3   OH240395   3.699   2.569   0.193  0.0603  0.2125  0.3980
 6279TIP3    H140396   3.662   2.657   0.198  0.6977  0.4237  2.2575
 6279TIP3    H240397   3.726   2.549   0.283  0.1676 -1.7872 -0.0328
 6280TIP3   OH240398   0.573   5.577   2.417 -0.1175 -0.5614 -0.3332
 6280TIP3    H140399   0.581   5.662   2.375 -0.0027 -0.9347 -1.0821
 6280TIP3    H240400   0.664   5.552   2.437 -0.1971 -0.1900  0.5580
 6281TIP3   OH240401   4.937   5.130   8.607  0.5815  0.2683  0.2521
 6281TIP3    H140402   5.032   5.120   8.602  0.6551  0.2085  1.5523
 6281TIP3    H240403   4.904   5.082   8.531  1.6938  2.3238 -1.6534
 6282TIP3   OH240404   2.614   6.121   0.857 -0.8104 -0.5909 -0.0862
 6282TIP3    H140405   2.540   6.102   0.914  0.2300 -2.2228  0.8258
 6282TIP3    H240406   2.657   6.197   0.896 -1.1366 -0.5909  0.2725
 6283TIP3   OH240407   5.251   4.305   1.868  0.0825  0.4487  0.4328
 6283TIP3    H140408   5.156   4.318   1.865 -0.0256 -0.2399  0.7307
 6283TIP3    H240409   5.285   4.388   1.903 -0.3442  0.9303 -0.2658
 6284TIP3   OH240410   4.222   6.104   1.246  0.3778 -0.5158 -0.0000
 6284TIP3    H140411   4.128   6.118   1.231  0.6101  0.7727 -0.3726
 6284TIP3    H240412   4.265   6.163   1.185  1.4225  0.1477  1.3204
 6285TIP3   OH240413   1.318   2.902   8.308  0.2722  0.5103 -0.3651
 6285TIP3    H140414   1.251   2.840   8.336  0.6218  0.3354  0.1044
 6285TIP3    H240415   1.281   2.945   8.232  0.2845 -0.7405 -1.1016
 6286TIP3   OH240416   4.657   0.217   6.486 -0.3909  0.1298  0.2256
 6286TIP3    H140417   4.740   0.171   6.498  0.2736  1.2538  0.1016
 6286TIP3    H240418   4.680   0.310   6.490 -1.5451  0.4721 -0.4765
 6287TIP3   OH240419   1.287   0.604   8.574 -0.3999 -0.0648  0.0585
 6287TIP3    H140420   1.343   0.654   8.514 -0.2858 -0.6150 -0.3068
 6287TIP3    H240421   1.207   0.589   8.525  0.1143 -1.4772 -0.4044
 6288TIP3   OH240422   5.665   0.782   7.757 -0.1552  0.0430  1.0088
 6288TIP3    H140423   5.732   0.833   7.711 -1.0867  0.8908  0.5830
 6288TIP3    H240424   5.709   0.699   7.778  0.5095 -0.1039 -0.8007
 6289TIP3   OH240425   1.692   3.167   7.914 -0.4250 -0.6895  0.1528
 6289TIP3    H140426   1.770   3.175   7.969 -0.0409 -1.9966 -0.1762
 6289TIP3    H240427   1.619   3.191   7.972  0.2231  1.0659  0.3241
 6290TIP3   OH240428   6.244   2.780   0.843  0.2159 -0.3151 -0.1871
 6290TIP3    H140429   6.184   2.810   0.775  1.8548 -1.6735 -2.3356
 6290TIP3    H240430   6.193   2.716   0.893 -1.5268  1.8525  1.0079
 6291TIP3   OH240431   2.730   2.810   1.174 -0.2020  0.1353  0.3194
 6291TIP3    H140432   2.695   2.731   1.133 -1.0193  0.7790 -0.2805
 6291TIP3    H240433   2.822   2.791   1.190 -0.2552 -0.7316 -0.3384
 6292TIP3   OH240434   0.703   5.275   0.722 -0.1337 -0.4148  0.4873
 6292TIP3    H140435   0.709   5.219   0.799 -0.4989 -1.0741  0.0452
 6292TIP3    H240436   0.617   5.256   0.685 -0.5810  1.0038  0.7462
 6293TIP3   OH240437   2.187   3.627   2.045  0.4061 -0.2920 -0.5557
 6293TIP3    H140438   2.094   3.607   2.056  0.2708  0.4351 -0.3215
 6293TIP3    H240439   2.227   3.542   2.026 -0.6942 -0.2450 -3.6188
 6294TIP3   OH240440   4.690   1.108   8.749  0.3258  0.0754 -0.1199
 6294TIP3    H140441   4.625   1.113   8.679 -0.5928  0.4417  0.7252
 6294TIP3    H240442   4.759   1.168   8.722 -0.7481  1.4203 -0.0169
 6295TIP3   OH240443   0.714   0.088   7.490 -0.0495 -0.2139  0.0421
 6295TIP3    H140444   0.700   0.178   7.460  0.9323  0.2130  0.7946
 6295TIP3    H240445   0.629   0.061   7.526 -0.3105  0.4667 -0.0439
 6296TIP3   OH240446   1.831   3.662   7.219 -0.0672  0.2414  0.3778
 6296TIP3    H140447   1.788   3.694   7.298 -0.2415  0.8717  0.0360
 6296TIP3    H240448   1.804   3.571   7.212 -0.4540  0.3219  0.7737
 6297TIP3   OH240449   5.763   6.557   0.611  0.5329  0.1608 -0.4047
 6297TIP3    H140450   5.699   6.486   0.611  0.0464  0.5902 -0.8479
 6297TIP3    H240451   5.839   6.521   0.564  0.4457 -0.1987 -0.2734
 6298TIP3   OH240452   6.478   0.086   2.189 -0.0894  0.1747  0.6695
 6298TIP3    H140453   6.399   0.137   2.170  1.2018  1.5937 -1.2777
 6298TIP3    H240454   6.456  -0.004   2.163 -0.3538  0.9929 -2.2225
 6299TIP3   OH240455   5.644   4.799   0.882 -0.5268  0.0610  0.2312
 6299TIP3    H140456   5.713   4.790   0.817  1.6807  0.3347  2.4038
 6299TIP3    H240457   5.567   4.826   0.831  1.1089  0.4572 -2.2105
 6300TIP3   OH240458   3.979   6.730   1.316  0.1762 -0.0011 -0.3620
 6300TIP3    H140459   3.902   6.770   1.275  1.0782  0.9195 -1.2136
 6300TIP3    H240460   3.971   6.637   1.295 -1.1889 -0.0875  0.3808
 6301TIP3   OH240461   5.278   3.598   1.632 -0.0663  0.5973  0.2927
 6301TIP3    H140462   5.322   3.553   1.704 -0.8511 -1.3089 -0.3521
 6301TIP3    H240463   5.262   3.687   1.665  1.3803  0.3778  1.6924
 6302TIP3   OH240464   3.151   4.592   7.999 -0.6318  0.2477 -0.2921
 6302TIP3    H140465   3.204   4.530   7.951 -1.5916 -0.8656  0.0433
 6302TIP3    H240466   3.103   4.641   7.932 -0.6063 -0.0532 -0.5300
 6303TIP3   OH240467   2.920   3.074   2.812  0.2694  0.1662  0.8985
 6303TIP3    H140468   2.833   3.059   2.774 -0.4848 -0.0811  2.6608
 6303TIP3    H240469   2.959   3.140   2.755 -0.4796 -0.7700 -0.7934
 6304TIP3   OH240470   3.830   3.653   8.463 -0.2612  0.3137 -0.0916
 6304TIP3    H140471   3.856   3.735   8.505 -1.0825  0.4648  0.1518
 6304TIP3    H240472   3.849   3.585   8.527  1.7338  0.1315 -0.8272
 6305TIP3   OH240473   0.279   3.733   0.441 -0.2647 -0.3332  0.5734
 6305TIP3    H140474   0.342   3.804   0.450 -0.9904  0.2259  1.3887
 6305TIP3    H240475   0.225   3.739   0.520 -0.6348 -1.4974  0.4271
 6306TIP3   OH240476   0.207   1.462   1.541  0.3230 -0.2778  0.6302
 6306TIP3    H140477   0.224   1.367   1.543  1.8660 -0.2219 -2.9688
 6306TIP3    H240478   0.294   1.501   1.533 -0.4728  1.1793 -1.4754
 6307TIP3   OH240479   2.870   2.442   1.891 -0.3081  0.2096 -0.3675
 6307TIP3    H140480   2.842   2.498   1.964  0.5069 -0.0191  0.1323
 6307TIP3    H240481   2.947   2.486   1.855 -0.3998  0.0466 -0.7690
 6308TIP3   OH240482   0.112   0.847   0.090 -0.6755  0.4094  0.6800
 6308TIP3    H140483   0.145   0.921   0.140 -0.3907  1.1840 -0.6076
 6308TIP3    H240484   0.030   0.878   0.052 -0.9019 -0.1742  0.6734
 6309TIP3   OH240485   3.742   1.860   2.458 -0.3701 -0.3074 -0.0164
 6309TIP3    H140486   3.759   1.817   2.542 -0.1647  1.1758  0.7411
 6309TIP3    H240487   3.823   1.847   2.408  0.5771  1.0773  1.0684
 6310TIP3   OH240488   2.703   4.265   7.405  0.1867 -0.0962  0.2539
 6310TIP3    H140489   2.753   4.257   7.324  0.5152  1.1441  0.3141
 6310TIP3    H240490   2.628   4.319   7.382  0.6043  0.7836  0.9067
 6311TIP3   OH240491   3.776   0.896   2.405 -0.9610 -0.2927 -0.3310
 6311TIP3    H140492   3.768   0.910   2.499 -2.8311 -1.2747 -0.3036
 6311TIP3    H240493   3.831   0.817   2.398  3.9833  2.6973 -0.3368
 6312TIP3   OH240494   2.964   0.104   7.187  0.0157  0.0056 -0.2898
 6312TIP3    H140495   3.040   0.149   7.149 -0.8664  1.3938 -0.4495
 6312TIP3    H240496   2.906   0.088   7.112  0.2113 -1.2129 -0.1965
 6313TIP3   OH240497   0.687   4.959   2.484  0.2341 -0.1056  0.6973
 6313TIP3    H140498   0.642   5.043   2.473  0.9019  0.1017 -0.5574
 6313TIP3    H240499   0.751   4.975   2.553  1.4852  0.9224 -0.6399
 6314TIP3   OH240500   5.891   3.555   8.717 -0.1468  0.1394 -0.1840
 6314TIP3    H140501   5.974   3.563   8.669 -0.3317 -0.1644 -0.5623
 6314TIP3    H240502   5.826   3.537   8.649 -0.3466 -0.7163  0.2143
 6315TIP3   OH240503   5.128   0.372   7.989  0.0299  0.3131  0.0353
 6315TIP3    H140504   5.198   0.323   8.033  1.1652  2.1776  0.4202
 6315TIP3    H240505   5.171   0.412   7.914 -1.4935 -1.3768 -1.8279
 6316TIP3   OH240506   3.395   2.085   7.656  0.0638  0.5553  0.6934
 6316TIP3    H140507   3.370   2.177   7.649 -0.4410  0.4085  0.5501
 6316TIP3    H240508   3.334   2.038   7.599  0.8770  0.2263  0.0710
 6317TIP3   OH240509   3.309   4.171   2.864  0.7636  0.1098  0.3855
 6317TIP3    H140510   3.332   4.263   2.880  0.8953 -0.2242  2.2968
 6317TIP3    H240511   3.288   4.136   2.950  1.8193 -1.9792 -0.1516
 6318TIP3   OH240512   2.288   4.108   0.535  0.0784 -0.7223 -0.0695
 6318TIP3    H140513   2.360   4.162   0.501 -0.1781  0.6356  1.4299
 6318TIP3    H240514   2.211   4.138   0.487 -0.3229  1.3497  1.7023
 6319TIP3   OH240515   0.454   6.274   1.316 -0.2022  0.0386 -0.6935
 6319TIP3    H140516   0.457   6.183   1.286  1.2906  0.0236 -0.5765
 6319TIP3    H240517   0.386   6.275   1.383 -0.2058 -0.9952 -0.6651
 6320TIP3   OH240518   1.166   1.355   2.468 -0.1107 -0.2679 -0.0116
 6320TIP3    H140519   1.103   1.406   2.415  0.9556  1.1378  0.0231
 6320TIP3    H240520   1.227   1.420   2.501  1.4061 -1.6137 -0.0761
 6321TIP3   OH240521   5.436   3.575   8.357  0.3960 -0.0101  0.1711
 6321TIP3    H140522   5.490   3.588   8.435  0.0001 -0.7993  0.5880
 6321TIP3    H240523   5.368   3.643   8.363  0.7034  0.2971  0.2055
 6322TIP3   OH240524   0.694   4.228   7.670 -0.5723 -0.0568 -0.3461
 6322TIP3    H140525   0.684   4.271   7.585 -0.3085  0.9219  0.1053
 6322TIP3    H240526   0.788   4.233   7.689 -0.0738 -3.1479 -1.4410
 6323TIP3   OH240527   3.446   6.764   8.239 -0.2134  0.6341 -0.2610
 6323TIP3    H140528   3.352   6.779   8.226  0.1968  1.3870 -2.8571
 6323TIP3    H240529   3.473   6.713   8.162  1.5051  0.4052  0.4553
 6324TIP3   OH240530   3.608   5.413   0.763 -0.1409  0.2027 -0.0431
 6324TIP3    H140531   3.682   5.444   0.711 -0.9858  2.6068  0.0727
 6324TIP3    H240532   3.589   5.326   0.727  0.3364  1.0945 -2.6963
 6325TIP3   OH240533   2.687   0.443   0.104 -0.5282  0.4710 -0.1121
 6325TIP3    H140534   2.610   0.416   0.154  0.1676  0.5756  1.0631
 6325TIP3    H240535   2.747   0.478   0.170  1.1484 -0.9917 -0.7884
 6326TIP3   OH240536   2.489   6.329   2.348  0.7020 -0.6572  0.0184
 6326TIP3    H140537   2.510   6.255   2.405  3.8654 -0.8549 -1.1563
 6326TIP3    H240538   2.435   6.292   2.278  1.9384 -1.8559 -0.3513
 6327TIP3   OH240539   4.618   1.679   0.632  0.9916 -0.1356 -0.0898
 6327TIP3    H140540   4.589   1.605   0.685 -0.6616 -0.0657 -0.8515
 6327TIP3    H240541   4.691   1.717   0.682  0.7859 -1.2762  1.1183
 6328TIP3   OH240542   6.623   0.751   3.075  0.3534 -0.4691  0.3752
 6328TIP3    H140543   6.535   0.732   3.109 -0.3509  0.0668 -1.0426
 6328TIP3    H240544   6.670   0.668   3.081  0.1672 -0.4768  2.2871
 6329TIP3   OH240545   0.326   4.677   0.007 -0.1842 -0.1678  0.6201
 6329TIP3    H140546   0.324   4.636   0.093  2.5384 -0.6325  0.5438
 6329TIP3    H240547   0.340   4.770   0.024  0.2869 -0.2499  0.6769
 6330TIP3   OH240548   4.365   1.091   2.293  0.3710 -0.5633  0.2068
 6330TIP3    H140549   4.287   1.035   2.294 -0.2903  0.3259 -0.3689
 6330TIP3    H240550   4.352   1.151   2.366  1.1106 -1.1686  0.8623
 6331TIP3   OH240551   0.488   3.885   0.734  0.6836 -0.0015  0.1679
 6331TIP3    H140552   0.470   3.791   0.735  3.7168 -0.7632 -1.8458
 6331TIP3    H240553   0.489   3.910   0.826  0.4865 -2.0868  0.8060
 6332TIP3   OH240554   5.414   5.081   0.255  0.1009  0.4329  0.1084
 6332TIP3    H140555   5.479   5.012   0.272  0.9990  1.4768  1.1004
 6332TIP3    H240556   5.330   5.036   0.260  0.7021 -0.8636 -0.7055
 6333TIP3   OH240557   1.865   2.943   1.698 -0.4404 -0.1029 -0.0067
 6333TIP3    H140558   1.930   2.951   1.768 -0.4037 -1.6786  0.1721
 6333TIP3    H240559   1.782   2.929   1.744 -0.7597  0.8843 -0.2585
 6334TIP3   OH240560   0.266   0.512   2.762  0.4182 -0.0782 -0.1770
 6334TIP3    H140561   0.353   0.486   2.792 -0.8568 -0.7848  3.3777
 6334TIP3    H240562   0.270   0.608   2.760  1.3242 -0.1057 -0.2592
 6335TIP3   OH240563   6.439   0.974   7.495  0.4294  0.3252 -0.2792
 6335TIP3    H140564   6.353   0.989   7.455  0.3106 -1.1169 -0.6028
 6335TIP3    H240565   6.495   0.947   7.423  0.9586  0.4753  0.0683
 6336TIP3   OH240566   5.871   1.948   0.570 -0.2419 -0.6636  0.5397
 6336TIP3    H140567   5.836   2.016   0.627 -0.7498 -0.3698 -0.1083
 6336TIP3    H240568   5.832   1.867   0.602 -0.2901 -0.5434  0.7881
 6337TIP3   OH240569   1.713   1.903   0.186 -0.2120 -0.4022 -0.6245
 6337TIP3    H140570   1.765   1.832   0.224  0.8599  0.2061 -0.9059
 6337TIP3    H240571   1.701   1.965   0.258  0.0284 -0.2270 -0.7356
 6338TIP3   OH240572   5.399   0.623   8.112 -0.0270  0.3421 -0.0076
 6338TIP3    H140573   5.363   0.649   8.197 -2.6493 -1.1182 -0.5528
 6338TIP3    H240574   5.344   0.668   8.048  2.2662  1.8801 -1.0443
 6339TIP3   OH240575   0.427   5.090   1.646  0.1473 -0.3461 -0.2036
 6339TIP3    H140576   0.405   5.035   1.572  0.5792 -0.3884 -0.3069
 6339TIP3    H240577   0.421   5.032   1.722  1.9184 -0.9150 -0.4516
 6340TIP3   OH240578   2.441   6.281   8.151 -0.4571  0.1974 -0.3048
 6340TIP3    H140579   2.489   6.215   8.102  1.8743  0.9496  0.7968
 6340TIP3    H240580   2.465   6.266   8.242 -2.8785  0.2512  0.4101
 6341TIP3   OH240581   1.717   3.712   2.446 -0.3646  0.6530 -0.9150
 6341TIP3    H140582   1.740   3.802   2.422  1.2255  0.1250 -1.4598
 6341TIP3    H240583   1.699   3.716   2.540  0.5042  1.3942 -0.7636
 6342TIP3   OH240584   2.324   1.483   7.413  0.1229 -0.8396  0.4036
 6342TIP3    H140585   2.326   1.467   7.319 -2.9534 -1.1822  0.2846
 6342TIP3    H240586   2.388   1.422   7.449 -0.6742 -2.7858 -1.2570
 6343TIP3   OH240587   5.624   1.649   1.898 -0.0162 -0.1793  0.1522
 6343TIP3    H140588   5.607   1.650   1.992  1.1718  0.4652  0.3757
 6343TIP3    H240589   5.716   1.625   1.891 -0.2251 -0.7203 -0.8822
 6344TIP3   OH240590   3.252   1.732   1.083  0.3132  0.0818 -0.3573
 6344TIP3    H140591   3.253   1.731   1.179  0.2933  0.5714 -0.3506
 6344TIP3    H240592   3.328   1.680   1.058  1.2434  1.2614 -0.0658
 6345TIP3   OH240593   0.821   2.768   7.603  0.0995  0.8592 -0.4341
 6345TIP3    H140594   0.850   2.855   7.628 -2.4601  1.9598 -0.9820
 6345TIP3    H240595   0.854   2.756   7.514  2.1777  0.3616  0.3491
 6346TIP3   OH240596   3.509   0.746   8.020 -0.3189  0.2362 -0.0013
 6346TIP3    H140597   3.497   0.659   8.059 -2.4929 -0.1687 -1.4085
 6346TIP3    H240598   3.487   0.807   8.090  1.1522 -0.2928  0.9845
 6347TIP3   OH240599   3.719   0.141   8.724  0.3102 -0.7865 -0.3165
 6347TIP3    H140600   3.696   0.175   8.638 -1.0911 -2.8784 -0.8259
 6347TIP3    H240601   3.652   0.176   8.783  1.1925  0.5351 -0.0616
 6348TIP3   OH240602   5.819   3.033   2.300  0.0767  0.0351  0.1616
 6348TIP3    H140603   5.831   3.126   2.278 -0.9491 -0.0372 -0.8294
 6348TIP3    H240604   5.904   2.993   2.284  0.2351  0.6217 -0.5047
 6349TIP3   OH240605   5.497   6.255   7.189 -0.7490 -0.0981 -0.2829
 6349TIP3    H140606   5.456   6.219   7.110 -0.8748  0.0891 -0.3043
 6349TIP3    H240607   5.570   6.308   7.156 -0.6561 -0.2117 -0.2601
 6350TIP3   OH240608   0.348   4.551   0.380  0.1237 -0.2751  0.0037
 6350TIP3    H140609   0.319   4.593   0.461 -2.1542 -2.5159  0.4881
 6350TIP3    H240610   0.384   4.622   0.327  0.2798  1.5091  2.3499
 6351TIP3   OH240611   5.034   1.083   8.695 -0.4443 -0.2986 -0.3184
 6351TIP3    H140612   5.118   1.078   8.741  0.2389  0.4458 -1.4495
 6351TIP3    H240613   5.030   1.172   8.661 -1.8491 -0.2229 -0.0194
 6352TIP3   OH240614   3.884   6.152   8.629 -0.2748 -0.6093 -0.4202
 6352TIP3    H140615   3.862   6.198   8.710 -0.0975 -1.4747  0.1277
 6352TIP3    H240616   3.972   6.118   8.643 -0.5376 -1.4265 -0.6719
 6353TIP3   OH240617   4.978   1.923   6.874 -0.3322 -0.2055  0.0741
 6353TIP3    H140618   4.998   1.890   6.962 -2.7586 -0.8796  0.4480
 6353TIP3    H240619   5.033   1.870   6.816 -0.2526 -1.2137  1.0414
 6354TIP3   OH240620   4.259   4.424   7.676 -0.9076  0.2849 -0.0910
 6354TIP3    H140621   4.259   4.343   7.625  1.5308  1.2183 -1.7988
 6354TIP3    H240622   4.352   4.445   7.687 -1.4515  2.1513  1.5013
 6355TIP3   OH240623   0.887   1.688   3.223 -0.4967 -0.0817 -0.0486
 6355TIP3    H140624   0.966   1.640   3.247 -0.0984 -1.2829 -3.3087
 6355TIP3    H240625   0.817   1.623   3.231 -0.6422  0.0406 -0.3261
 6356TIP3   OH240626   0.968   6.199   8.670 -1.0314  0.3852 -0.3911
 6356TIP3    H140627   0.928   6.285   8.655 -0.0793  0.4401 -3.4060
 6356TIP3    H240628   0.904   6.136   8.637 -0.9221  0.0727 -0.0132
 6357TIP3   OH240629   5.036   6.296   1.807 -0.2384 -0.4941  0.1148
 6357TIP3    H140630   5.089   6.266   1.732 -2.1036 -2.7044 -0.4365
 6357TIP3    H240631   5.058   6.235   1.877  0.7369  0.9469  1.1111
 6358TIP3   OH240632   4.405   4.304   0.620  0.1468  0.1582  0.0564
 6358TIP3    H140633   4.486   4.302   0.671  0.2804  0.1327 -0.1562
 6358TIP3    H240634   4.411   4.227   0.562 -0.4854 -0.4203  0.7406
 6359TIP3   OH240635   1.654   2.121   1.694 -0.2296  0.2268 -0.1079
 6359TIP3    H140636   1.576   2.146   1.743  0.9908 -1.2523  2.9290
 6359TIP3    H240637   1.706   2.202   1.689 -1.7314  1.1615 -1.9463
 6360TIP3   OH240638   6.275   0.422   1.004  0.1382 -0.1442 -0.0674
 6360TIP3    H140639   6.227   0.485   0.950  0.5009  0.3173  0.1448
 6360TIP3    H240640   6.365   0.426   0.972  0.0048 -1.1972 -0.6397
 6361TIP3   OH240641   2.422   1.011   7.989 -0.4778 -0.6046  0.1845
 6361TIP3    H140642   2.383   0.924   7.978 -1.0776 -0.4709  1.1329
 6361TIP3    H240643   2.366   1.054   8.053  0.3452  0.1589  0.4051
 6362TIP3   OH240644   5.591   1.306   2.112  0.1583 -0.3898  0.0493
 6362TIP3    H140645   5.665   1.318   2.054  1.5413 -2.3450  1.2700
 6362TIP3    H240646   5.540   1.235   2.073  0.4518 -0.9098  0.5888
 6363TIP3   OH240647   5.580   4.312   8.653  0.3998  0.1600 -0.8109
 6363TIP3    H140648   5.540   4.369   8.718  1.4735  0.4708 -0.4086
 6363TIP3    H240649   5.521   4.237   8.648  0.1302  0.2766  0.2892
 6364TIP3   OH240650   3.057   5.883   1.633 -0.1181 -0.6561  0.3467
 6364TIP3    H140651   2.966   5.912   1.623  0.4073  1.2262  0.6913
 6364TIP3    H240652   3.059   5.841   1.719 -0.2062  1.3244  1.3699
 6365TIP3   OH240653   4.784   5.793   0.400 -0.4503 -0.7456  0.3152
 6365TIP3    H140654   4.749   5.705   0.389 -1.4437 -0.1183 -1.9073
 6365TIP3    H240655   4.869   5.791   0.357 -0.4780 -0.6065  0.2542
 6366TIP3   OH240656   5.783   6.128   7.966 -0.0821  0.6124 -0.5704
 6366TIP3    H140657   5.866   6.146   8.011 -0.4237  0.8921 -0.0406
 6366TIP3    H240658   5.779   6.033   7.960 -0.4284  0.5093  0.7867
 6367TIP3   OH240659   3.249   0.193   7.972  0.6128 -0.4144 -0.0019
 6367TIP3    H140660   3.180   0.237   7.922 -0.2949  0.4355  1.8921
 6367TIP3    H240661   3.326   0.195   7.914 -0.5015  0.0725 -1.5210
 6368TIP3   OH240662   4.831   0.137   8.735 -0.7681 -0.0994 -0.0820
 6368TIP3    H140663   4.843   0.047   8.706  0.4260 -0.2037  0.6697
 6368TIP3    H240664   4.903   0.152   8.796 -0.7123  1.5012 -0.5098
 6369TIP3   OH240665   4.192   2.196   2.501 -0.1833 -0.2172  0.0166
 6369TIP3    H140666   4.175   2.236   2.586  0.7735  1.6716 -0.6303
 6369TIP3    H240667   4.107   2.196   2.457 -0.4197  0.0507  0.4665
 6370TIP3   OH240668   4.978   3.334   0.592  0.1193 -0.7782 -0.4500
 6370TIP3    H140669   5.003   3.324   0.684  1.5612 -2.5125 -0.9834
 6370TIP3    H240670   4.917   3.408   0.592  1.0401  0.0691  1.7214
 6371TIP3   OH240671   6.452   2.574   2.228 -0.1169 -0.0089 -0.6969
 6371TIP3    H140672   6.404   2.505   2.182 -1.3382  1.1262 -1.2073
 6371TIP3    H240673   6.399   2.653   2.214  1.5819  1.1839 -0.7131
 6372TIP3   OH240674   1.136   0.024   1.945  0.2383  0.2782  0.4811
 6372TIP3    H140675   1.176   0.094   1.996 -0.1372  1.5547 -0.9141
 6372TIP3    H240676   1.129   0.059   1.856  0.3293 -1.6475 -0.3525
 6373TIP3   OH240677   4.401   1.651   8.437 -0.0646  0.0070  0.1339
 6373TIP3    H140678   4.429   1.731   8.392  1.6283  0.6788  2.1706
 6373TIP3    H240679   4.479   1.624   8.486 -2.1371  0.3099  3.9323
 6374TIP3   OH240680   1.722   5.446   1.628  0.4641 -0.3152  0.2700
 6374TIP3    H140681   1.664   5.519   1.608  0.7784 -0.3523 -0.8570
 6374TIP3    H240682   1.804   5.468   1.583  0.2012 -1.8884 -1.0513
 6375TIP3   OH240683   1.679   4.778   2.482  0.1123 -0.4296  0.3784
 6375TIP3    H140684   1.657   4.789   2.389 -0.8331  1.1732  0.7412
 6375TIP3    H240685   1.773   4.760   2.483  0.3051  0.3958 -0.8546
 6376TIP3   OH240686   5.835   5.179   0.855  0.1943 -0.6366 -0.2698
 6376TIP3    H140687   5.857   5.155   0.765 -0.4726  2.3839 -1.3650
 6376TIP3    H240688   5.740   5.176   0.859  0.2086 -0.5267  0.2696
 6377TIP3   OH240689   5.078   3.341   0.106 -0.0752  0.0969 -0.6073
 6377TIP3    H140690   5.138   3.364   0.035  0.5758  0.7721  0.1360
 6377TIP3    H240691   5.112   3.259   0.141 -1.1775 -0.9628 -1.9099
 6378TIP3   OH240692   4.952   1.611   8.270 -0.1838  0.5516 -0.3520
 6378TIP3    H140693   4.930   1.557   8.194 -0.8526  0.4988 -0.1308
 6378TIP3    H240694   4.867   1.635   8.307  0.1259 -0.4464  1.0923
 6379TIP3   OH240695   0.768   2.930   1.215  0.7038 -0.6067  1.2656
 6379TIP3    H140696   0.749   2.844   1.252  0.1310 -1.3986 -0.7077
 6379TIP3    H240697   0.715   2.934   1.135  1.9756  0.9062  0.4260
 6380TIP3   OH240698   3.337   4.109   8.403  0.1172 -0.1671  0.1101
 6380TIP3    H140699   3.371   4.104   8.492  1.9490  1.7196 -0.4166
 6380TIP3    H240700   3.378   4.034   8.358  0.6515 -0.0623  0.4077
 6381TIP3   OH240701   6.738   2.428   7.405  0.3718 -0.4711  0.2484
 6381TIP3    H140702   6.682   2.383   7.342 -2.0865 -0.5118  2.3081
 6381TIP3    H240703   6.815   2.372   7.414  0.6583 -0.6089 -2.3975
 6382TIP3   OH240704   5.536   2.981   8.752 -0.0749  0.2377  0.0124
 6382TIP3    H140705   5.611   3.040   8.738 -0.8243  1.3020  0.3552
 6382TIP3    H240706   5.549   2.947   8.840  0.6682 -0.5865 -0.4005
 6383TIP3   OH240707   6.825   5.024   2.462 -0.2419 -0.4032 -0.0513
 6383TIP3    H140708   6.766   4.952   2.483 -1.7816  1.0858  1.0087
 6383TIP3    H240709   6.779   5.102   2.493  1.3426  1.0490 -1.2026
 6384TIP3   OH240710   4.576   3.155   0.874  0.3591 -0.1132  0.6791
 6384TIP3    H140711   4.559   3.074   0.826 -0.2281  0.4170 -0.0207
 6384TIP3    H240712   4.555   3.133   0.965 -0.2854 -0.6181  0.4223
 6385TIP3   OH240713   1.921   0.422   7.932  0.4701 -0.2378 -0.6888
 6385TIP3    H140714   1.985   0.441   7.863  0.2047 -1.8895 -1.4455
 6385TIP3    H240715   1.963   0.452   8.012  0.3201  2.8183 -1.6227
 6386TIP3   OH240716   5.827   2.656   0.919 -0.4069 -0.0897 -0.3662
 6386TIP3    H140717   5.751   2.710   0.941  0.2040  0.6455 -0.0308
 6386TIP3    H240718   5.861   2.694   0.838 -1.5378 -1.6341 -1.6273
 6387TIP3   OH240719   1.376   0.390   0.173 -0.1718 -0.7420  0.4831
 6387TIP3    H140720   1.377   0.327   0.101  0.8578 -0.3995  0.1856
 6387TIP3    H240721   1.297   0.441   0.159 -0.9339 -1.8415  0.6331
 6388TIP3   OH240722   3.395   3.310   2.008  0.8845 -0.2218  0.0273
 6388TIP3    H140723   3.317   3.342   1.963  0.3934 -1.8998 -0.4000
 6388TIP3    H240724   3.466   3.319   1.944  0.5805 -0.7393 -0.3932
 6389TIP3   OH240725   1.956   0.205   7.230 -0.1384  0.0967  0.1533
 6389TIP3    H140726   2.025   0.151   7.268 -0.2037  0.3275  0.6089
 6389TIP3    H240727   1.972   0.202   7.136  0.5371  0.2083  0.2603
 6390TIP3   OH240728   6.812   3.789   2.575 -0.1505  0.1709  0.3240
 6390TIP3    H140729   6.833   3.738   2.653 -1.4340 -0.1170  0.4911
 6390TIP3    H240730   6.829   3.880   2.600  1.6029 -0.0847  0.2039
 6391TIP3   OH240731   5.033   0.612   3.010 -0.3414  0.1522 -0.1888
 6391TIP3    H140732   5.051   0.548   2.941  1.1041 -1.1098  1.2529
 6391TIP3    H240733   4.955   0.578   3.054  0.1216 -0.3712  0.2501
 6392TIP3   OH240734   5.465   0.335   7.686  0.5090 -0.4386 -0.1923
 6392TIP3    H140735   5.408   0.400   7.727  0.6070  0.4193 -1.3592
 6392TIP3    H240736   5.538   0.325   7.748 -1.2986 -2.3300  1.8286
 6393TIP3   OH240737   5.890   2.758   0.672  0.0103  0.0540 -0.1762
 6393TIP3    H140738   5.878   2.849   0.648  3.9137  0.7220 -0.2787
 6393TIP3    H240739   5.948   2.722   0.605 -0.1729 -2.0708  0.7028
 6394TIP3   OH240740   3.714   0.637   1.902 -0.1365  0.1297  0.8963
 6394TIP3    H140741   3.689   0.729   1.891  0.3381  0.2450  0.7650
 6394TIP3    H240742   3.712   0.600   1.813  3.0060  0.8849  0.3933
 6395TIP3   OH240743   0.159   0.138   1.278  0.0285 -0.6838  0.2817
 6395TIP3    H140744   0.126   0.131   1.367 -3.0231  1.6089 -0.5063
 6395TIP3    H240745   0.210   0.219   1.278 -0.7964 -0.1518 -0.2382
 6396TIP3   OH240746   3.511   4.864   2.459 -0.0882 -0.0777 -0.0190
 6396TIP3    H140747   3.520   4.951   2.421  1.1128  0.3683  1.1704
 6396TIP3    H240748   3.601   4.830   2.461 -0.5702 -1.4554 -0.6947
 6397TIP3   OH240749   1.798   2.402   7.960 -0.1628  0.3303  0.4922
 6397TIP3    H140750   1.753   2.391   7.876  0.8915 -0.2494 -0.0158
 6397TIP3    H240751   1.794   2.496   7.977  0.4904  0.5934 -0.7165
 6398TIP3   OH240752   3.241   4.111   1.213 -0.1011  0.3397 -0.8489
 6398TIP3    H140753   3.261   4.204   1.210  1.0375  0.0805 -1.9600
 6398TIP3    H240754   3.213   4.089   1.124  2.9127 -1.0155 -1.5850
 6399TIP3   OH240755   1.724   5.347   7.787  0.1621 -0.2065  0.7451
 6399TIP3    H140756   1.734   5.367   7.880  2.1288  0.5433  0.4346
 6399TIP3    H240757   1.737   5.253   7.781 -0.8626 -0.3953  1.3126
 6400TIP3   OH240758   1.085   4.954   8.305  0.3003 -0.2076 -0.0899
 6400TIP3    H140759   1.035   4.985   8.230  0.7288  1.0466  0.1208
 6400TIP3    H240760   1.020   4.939   8.373 -0.1653 -1.9219 -0.8484
 6401TIP3   OH240761   4.867   0.900   7.769  0.4333 -0.2903 -0.1125
 6401TIP3    H140762   4.810   0.824   7.755 -0.8385  0.6219 -0.0339
 6401TIP3    H240763   4.873   0.909   7.864 -0.1938  0.2623 -0.1204
 6402TIP3   OH240764   2.182   2.791   7.545 -0.2936  0.1311  0.0857
 6402TIP3    H140765   2.209   2.705   7.513 -0.6578  0.2839 -0.6645
 6402TIP3    H240766   2.110   2.773   7.605  1.2074 -0.2549  1.8603
 6403TIP3   OH240767   5.849   4.745   8.552 -0.5986 -0.1663  0.1214
 6403TIP3    H140768   5.803   4.677   8.502  0.1683 -1.4705  1.1357
 6403TIP3    H240769   5.801   4.750   8.635  0.0472 -0.3058  0.5061
 6404TIP3   OH240770   1.383   1.547   2.553  0.8319 -0.2360 -0.2716
 6404TIP3    H140771   1.418   1.459   2.564  1.4735 -0.0623 -0.8638
 6404TIP3    H240772   1.442   1.602   2.606 -1.1076 -0.4512  2.3126
 6405TIP3   OH240773   4.003   1.354   6.896 -0.1365 -0.1291  0.0017
 6405TIP3    H140774   4.030   1.434   6.941  1.4395 -1.6153  1.9215
 6405TIP3    H240775   3.908   1.351   6.907 -0.0035  0.5212  1.6827
 6406TIP3   OH240776   4.830   1.897   7.509 -0.4793 -0.9978 -0.7477
 6406TIP3    H140777   4.913   1.871   7.467 -0.7978 -1.7700 -0.9153
 6406TIP3    H240778   4.848   1.984   7.546 -0.2681 -0.1238 -2.7661
 6407TIP3   OH240779   1.676   6.175   7.659 -0.6012 -0.3224  0.2526
 6407TIP3    H140780   1.757   6.221   7.681  0.0572 -0.9687 -0.7634
 6407TIP3    H240781   1.656   6.203   7.569  0.9397 -3.4663 -1.2438
 6408TIP3   OH240782   1.622   4.994   8.365 -0.8322  0.2643 -0.0742
 6408TIP3    H140783   1.686   4.933   8.401 -1.9836 -1.0832 -0.1979
 6408TIP3    H240784   1.672   5.046   8.302  0.4059  0.1625  0.7807
 6409TIP3   OH240785   2.150   6.616   2.230  0.0472  0.1512 -0.0413
 6409TIP3    H140786   2.151   6.673   2.154 -2.4720 -0.5765 -0.6998
 6409TIP3    H240787   2.101   6.664   2.297 -0.6447 -0.5556 -0.0321
 6410TIP3   OH240788   0.770   4.491   0.162 -0.0239 -0.1215  0.1590
 6410TIP3    H140789   0.691   4.502   0.109  0.6594 -0.7056 -1.0430
 6410TIP3    H240790   0.751   4.537   0.244 -1.2772  0.4797 -0.4358
 6411TIP3   OH240791   5.872   2.406   1.394 -0.5855  0.1569  0.1577
 6411TIP3    H140792   5.902   2.337   1.334  0.1449  0.1306  0.5388
 6411TIP3    H240793   5.874   2.365   1.480  0.2560  0.7602  0.4431
 6412TIP3   OH240794   1.289   6.665   0.175 -0.0832 -0.7700  0.0494
 6412TIP3    H140795   1.370   6.715   0.178 -0.2711 -0.3605 -1.1829
 6412TIP3    H240796   1.237   6.699   0.248 -0.0315  0.5643 -0.5040
 6413TIP3   OH240797   2.426   5.281   1.338 -0.2551 -0.0607 -0.6847
 6413TIP3    H140798   2.353   5.263   1.397  1.0626 -2.8383  0.2606
 6413TIP3    H240799   2.493   5.217   1.362  1.8548  1.2388 -2.6572
 6414TIP3   OH240800   6.198   5.374   8.005 -0.2307  0.4266 -0.1930
 6414TIP3    H140801   6.262   5.398   8.073  0.2812  0.7734 -0.7835
 6414TIP3    H240802   6.142   5.452   7.997 -2.0119 -0.5787  1.7212
 6415TIP3   OH240803   4.096   5.423   2.676 -0.2315  0.0402  1.2185
 6415TIP3    H140804   4.179   5.386   2.647 -0.0663  1.6617 -0.5833
 6415TIP3    H240805   4.032   5.354   2.659  0.5811 -0.8718  1.7320
 6416TIP3   OH240806   4.166   0.138   7.740 -0.0108 -0.1876 -0.4801
 6416TIP3    H140807   4.139   0.227   7.763 -1.1524 -0.7660  0.4871
 6416TIP3    H240808   4.245   0.123   7.793 -1.1434 -0.5636  1.1747
 6417TIP3   OH240809   2.835   3.465   7.390 -0.3851  0.7846 -0.6702
 6417TIP3    H140810   2.892   3.467   7.314  1.5171  0.7529  0.6733
 6417TIP3    H240811   2.748   3.485   7.356 -0.0382 -1.3963 -3.1778
 6418TIP3   OH240812   6.054   5.288   1.778 -0.0300  0.6411  0.3303
 6418TIP3    H140813   6.149   5.299   1.780 -0.2156  2.4868  1.2683
 6418TIP3    H240814   6.035   5.252   1.691  1.4908  0.4377  0.0584
 6419TIP3   OH240815   2.166   1.448   7.702 -0.3426  0.2932 -0.1219
 6419TIP3    H140816   2.191   1.404   7.784 -0.2288  0.1272 -0.2465
 6419TIP3    H240817   2.071   1.454   7.707 -0.5503 -1.7191 -0.9884
 6420TIP3   OH240818   1.540   2.625   6.859 -0.0638  0.0102 -0.4579
 6420TIP3    H140819   1.553   2.530   6.868 -0.1681 -0.1187 -1.5617
 6420TIP3    H240820   1.606   2.652   6.796  0.1951  0.7495  0.1189
 6421TIP3   OH240821   0.516   2.256   2.205  0.0288 -0.3128 -0.1462
 6421TIP3    H140822   0.473   2.329   2.161  0.9546  0.9831  1.0155
 6421TIP3    H240823   0.447   2.215   2.257 -0.1125  0.9889  0.7427
 6422TIP3   OH240824   6.401   6.737   1.172  0.1598  0.7460  0.3389
 6422TIP3    H140825   6.481   6.788   1.178 -0.2701  1.4701 -0.0209
 6422TIP3    H240826   6.410   6.670   1.240  0.8330  1.1504  0.6536
 6423TIP3   OH240827   1.553   5.927   2.373 -0.1772 -0.2081  0.3748
 6423TIP3    H140828   1.602   6.005   2.345 -1.5140  0.8259  0.8267
 6423TIP3    H240829   1.541   5.938   2.467 -0.2722 -1.0486  0.4711
 6424TIP3   OH240830   4.067   0.174   2.455 -0.0060  0.2456 -0.2750
 6424TIP3    H140831   4.163   0.175   2.449 -0.0448 -0.1125 -1.0567
 6424TIP3    H240832   4.037   0.202   2.369 -0.5958 -1.2526 -0.6021
 6425TIP3   OH240833   0.403   3.830   0.048 -0.2900 -0.9647  0.2838
 6425TIP3    H140834   0.480   3.777   0.066  0.5895  0.2132  0.0539
 6425TIP3    H240835   0.415   3.909   0.100 -0.9380 -0.4032 -0.3981
 6426TIP3   OH240836   3.233   3.418   2.676  0.1561 -0.1393 -0.8612
 6426TIP3    H140837   3.282   3.413   2.594  1.8134 -0.5254  0.1084
 6426TIP3    H240838   3.282   3.480   2.730 -2.6834  2.7064 -1.2355
 6427TIP3   OH240839   5.605   3.804   7.514 -0.7576  0.5357  0.2088
 6427TIP3    H140840   5.586   3.715   7.544  0.4063  0.2964  0.3095
 6427TIP3    H240841   5.520   3.841   7.493 -1.3642 -0.2277  1.2060
 6428TIP3   OH240842   4.286   2.482   1.163  0.3033 -0.3054 -0.9637
 6428TIP3    H140843   4.214   2.446   1.215 -0.8050  1.1427 -1.4606
 6428TIP3    H240844   4.338   2.405   1.139 -0.2844 -1.2290  0.5697
 6429TIP3   OH240845   4.519   2.387   2.758 -0.7183 -1.0302  0.5194
 6429TIP3    H140846   4.492   2.468   2.801 -2.1950 -2.1150  1.7606
 6429TIP3    H240847   4.614   2.386   2.766 -0.4137  1.5948 -1.5087
 6430TIP3   OH240848   4.136   1.445   7.557  0.3879 -0.3057  0.0472
 6430TIP3    H140849   4.069   1.510   7.576 -0.6775 -1.3678  0.0583
 6430TIP3    H240850   4.169   1.469   7.470 -0.1644  0.0970 -0.0573
 6431TIP3   OH240851   2.039   5.633   2.149  0.0587  0.4513  0.3116
 6431TIP3    H140852   2.126   5.651   2.184 -0.7273  0.8624  2.1848
 6431TIP3    H240853   2.032   5.537   2.148  0.2701  0.4315  0.8374
 6432TIP3   OH240854   0.425   5.126   7.809  0.3359  0.4260  0.5049
 6432TIP3    H140855   0.508   5.102   7.849  0.2773 -0.2815  0.2113
 6432TIP3    H240856   0.414   5.064   7.737 -0.0744  1.0072  0.0603
 6433TIP3   OH240857   3.965   5.466   8.124  0.5315  0.1867  0.5068
 6433TIP3    H140858   3.996   5.398   8.064  0.3656  0.1315  0.4845
 6433TIP3    H240859   3.908   5.421   8.185 -1.5814  0.6796 -0.9811
 6434TIP3   OH240860   6.792   2.918   0.947 -0.0955  0.2987  0.6422
 6434TIP3    H140861   6.816   2.994   0.894 -1.4332 -0.2765 -0.8637
 6434TIP3    H240862   6.748   2.955   1.024 -1.9272  1.0874 -0.7034
 6435TIP3   OH240863   4.273   1.691   7.213  0.2075 -0.4083  0.3423
 6435TIP3    H140864   4.198   1.641   7.244 -0.3841  0.4884  0.4155
 6435TIP3    H240865   4.291   1.752   7.285  0.8775 -0.4835  0.2371
 6436TIP3   OH240866   5.599   1.325   7.030  0.4092 -0.1052  0.2866
 6436TIP3    H140867   5.689   1.308   7.005 -0.6730 -1.8025 -3.0605
 6436TIP3    H240868   5.552   1.244   7.009 -2.3824  1.6731 -1.0695
 6437TIP3   OH240869   3.542   0.850   0.990 -0.2249  0.7903  0.5248
 6437TIP3    H140870   3.465   0.808   1.027  0.0300  0.7371  1.0123
 6437TIP3    H240871   3.616   0.810   1.037  0.3762 -1.5371 -2.1350
 6438TIP3   OH240872   1.259   2.226   7.665  0.4034 -0.7712 -0.2604
 6438TIP3    H140873   1.329   2.286   7.689  0.3202  0.2304 -2.3407
 6438TIP3    H240874   1.244   2.174   7.744  0.3949  1.9906  1.6787
 6439TIP3   OH240875   3.749   6.620   0.217 -0.4090  0.2803 -0.0439
 6439TIP3    H140876   3.786   6.544   0.261  2.2965  2.1163  1.0865
 6439TIP3    H240877   3.657   6.622   0.245  0.2623 -0.7561  2.4980
 6440TIP3   OH240878   2.575   0.136   1.857 -0.1705 -0.3524 -0.1004
 6440TIP3    H140879   2.479   0.141   1.856 -0.3474 -1.6394  2.2760
 6440TIP3    H240880   2.600   0.183   1.937  1.0075 -1.5173  0.2440
 6441TIP3   OH240881   0.379   6.547   0.607 -0.1281  0.2039  0.4767
 6441TIP3    H140882   0.460   6.597   0.594 -0.1996  0.2905  0.3523
 6441TIP3    H240883   0.311   6.604   0.572 -0.3422  0.4794  1.3268
 6442TIP3   OH240884   2.021   1.060   0.366  0.0009 -0.0746  0.1075
 6442TIP3    H140885   2.007   0.982   0.311  2.2211 -0.4654 -0.0114
 6442TIP3    H240886   2.115   1.059   0.384 -0.3338  1.2430  2.1674
 6443TIP3   OH240887   0.754   5.526   1.038 -0.2392 -0.5196 -0.1264
 6443TIP3    H140888   0.770   5.597   1.099  0.9596 -0.6642 -0.2479
 6443TIP3    H240889   0.725   5.453   1.093  1.8009 -0.9644  0.4449
 6444TIP3   OH240890   0.075   2.741   2.541 -0.1673 -0.3194  0.7060
 6444TIP3    H140891   0.145   2.761   2.478 -0.7907 -1.7667 -0.5167
 6444TIP3    H240892   0.007   2.699   2.488 -1.8918  0.8625  1.8991
 6445TIP3   OH240893   1.529   5.718   7.857  0.1156 -0.4774  0.2570
 6445TIP3    H140894   1.465   5.777   7.817 -0.1140  0.0604  1.4008
 6445TIP3    H240895   1.614   5.754   7.831  0.0449  1.4929  2.4024
 6446TIP3   OH240896   2.569   6.734   2.295  0.5247  0.1402 -0.4317
 6446TIP3    H140897   2.531   6.816   2.264  0.1315  0.4801  0.8997
 6446TIP3    H240898   2.518   6.666   2.251  1.0287  0.5792 -1.7511
 6447TIP3   OH240899   4.258   2.978   1.110  0.8736 -0.5729  0.1988
 6447TIP3    H140900   4.172   3.001   1.147 -0.3330 -0.9642 -2.1920
 6447TIP3    H240901   4.283   2.898   1.156 -0.9322 -1.4757 -0.3153
 6448TIP3   OH240902   3.191   5.431   1.904 -0.3779 -0.1216 -0.1800
 6448TIP3    H140903   3.192   5.352   1.851 -0.1353  0.0650 -0.4568
 6448TIP3    H240904   3.268   5.423   1.961 -0.1638  0.0706 -0.4409
 6449TIP3   OH240905   4.440   3.432   2.924 -0.5635 -0.3864 -0.1451
 6449TIP3    H140906   4.373   3.484   2.969  0.7674  0.2607  1.1552
 6449TIP3    H240907   4.516   3.490   2.919  0.1224 -1.3240 -1.0322
 6450TIP3   OH240908   1.581   5.481   8.207 -0.0552 -0.3020  0.4208
 6450TIP3    H140909   1.558   5.393   8.238 -0.7334 -0.6250 -0.9033
 6450TIP3    H240910   1.521   5.496   8.134  0.5176  0.9905  0.1974
 6451TIP3   OH240911   3.143   0.906   2.732 -0.9466 -0.0262  0.4561
 6451TIP3    H140912   3.123   0.874   2.644 -2.1752  0.3043  0.5886
 6451TIP3    H240913   3.060   0.897   2.779 -0.8543  1.6387  1.0061
 6452TIP3   OH240914   2.548   6.800   0.034  0.0428  0.3714 -0.3383
 6452TIP3    H140915   2.558   6.761   0.121  0.0739  1.8030  0.3217
 6452TIP3    H240916   2.610   6.873   0.033 -1.0254  1.2937 -1.0179
 6453TIP3   OH240917   5.943   1.807   1.110 -0.1331  0.2169  0.0861
 6453TIP3    H140918   5.857   1.777   1.078 -0.7138  1.4623  0.4090
 6453TIP3    H240919   5.941   1.790   1.204  0.0207  0.1504  0.0775
 6454TIP3   OH240920   2.335   1.882   1.936 -0.0656 -0.0724  0.9048
 6454TIP3    H140921   2.265   1.944   1.958 -3.0527 -2.8151  0.0617
 6454TIP3    H240922   2.415   1.923   1.967 -1.8265  3.9622  0.7424
 6455TIP3   OH240923   6.342   2.333   8.644 -0.5606 -0.1684  0.3688
 6455TIP3    H140924   6.286   2.410   8.650 -0.3206  0.0410 -0.0522
 6455TIP3    H240925   6.387   2.343   8.560 -0.8088 -0.9554  0.1313
 6456TIP3   OH240926   0.113   2.523   1.444 -0.4188 -0.2333  0.0214
 6456TIP3    H140927   0.179   2.453   1.438 -0.9975 -0.7198 -0.8268
 6456TIP3    H240928   0.122   2.571   1.362  0.5318  1.2213  0.9399
 6457TIP3   OH240929   6.620   1.830   7.734 -0.4595 -0.0230  0.2834
 6457TIP3    H140930   6.675   1.767   7.688 -1.3387 -1.0233  0.5641
 6457TIP3    H240931   6.646   1.915   7.699  0.6998 -0.5425 -0.1538
 6458TIP3   OH240932   5.461   5.991   7.787 -0.6166  0.2359 -0.2194
 6458TIP3    H140933   5.421   5.904   7.783  1.3411 -0.8091  1.0199
 6458TIP3    H240934   5.437   6.023   7.874  1.6951 -0.7207  0.8424
 6459TIP3   OH240935   6.119   4.149   8.371  0.3885 -0.7690 -0.1042
 6459TIP3    H140936   6.148   4.087   8.305  1.2274 -3.5844  2.6638
 6459TIP3    H240937   6.024   4.135   8.378  0.1005  0.3468 -1.3875
 6460TIP3   OH240938   5.558   6.001   1.222 -0.3892 -0.0243 -0.0800
 6460TIP3    H140939   5.536   5.911   1.245  0.1034 -0.1889 -0.2361
 6460TIP3    H240940   5.626   5.992   1.156  1.8571  0.4614  2.0313
 6461TIP3   OH240941   6.007   6.696   8.550  0.6517 -0.2451 -0.2387
 6461TIP3    H140942   5.977   6.700   8.459  1.5659  2.3698 -0.5183
 6461TIP3    H240943   6.050   6.611   8.557  0.2681 -0.6550 -2.1587
 6462TIP3   OH240944   3.618   2.355   7.895  0.0127 -0.4486  0.1357
 6462TIP3    H140945   3.646   2.263   7.887 -2.1568 -1.3293  1.8028
 6462TIP3    H240946   3.537   2.359   7.845  0.0627  0.5724  0.1280
 6463TIP3   OH240947   5.438   5.172   2.165  0.4362 -0.1587  0.0985
 6463TIP3    H140948   5.430   5.085   2.202  0.0268 -0.6191 -1.0158
 6463TIP3    H240949   5.413   5.161   2.073 -0.4628  1.2817  0.1300
 6464TIP3   OH240950   1.969   3.972   0.915  0.1135  0.3612 -0.4619
 6464TIP3    H140951   2.023   4.033   0.866  0.1940  1.6480  1.1550
 6464TIP3    H240952   2.031   3.917   0.962  0.0409  1.1363  0.5581
 6465TIP3   OH240953   4.530   2.664   2.851  0.2990  0.4981  0.2619
 6465TIP3    H140954   4.464   2.721   2.810 -0.0442  0.0919  0.2486
 6465TIP3    H240955   4.555   2.711   2.931  3.2294  2.8470 -1.8236
 6466TIP3   OH240956   1.487   5.625   7.042 -0.3814 -0.3639  0.0874
 6466TIP3    H140957   1.544   5.557   7.077  0.5359  0.5712  0.4644
 6466TIP3    H240958   1.530   5.655   6.962 -1.8706 -1.6722 -1.2722
 6467TIP3   OH240959   5.484   4.429   7.907  0.5745 -0.3155  0.0550
 6467TIP3    H140960   5.553   4.392   7.962  0.4831  1.8934  1.7907
 6467TIP3    H240961   5.405   4.382   7.932  0.9206 -0.8320  0.1916
 6468TIP3   OH240962   2.853   2.525   0.531 -0.0154  0.4641  0.2392
 6468TIP3    H140963   2.791   2.585   0.490  0.0598 -0.4177 -1.2394
 6468TIP3    H240964   2.868   2.561   0.619 -1.8073  1.2470  0.2531
 6469TIP3   OH240965   3.484   4.499   1.120  0.5685  1.0499 -0.1376
 6469TIP3    H140966   3.492   4.590   1.147 -0.4019  0.6361  1.6949
 6469TIP3    H240967   3.549   4.452   1.172  0.5818  0.6008 -0.5505
 6470TIP3   OH240968   5.804   0.232   2.610  0.1347  0.3489  0.1379
 6470TIP3    H140969   5.762   0.260   2.529  1.0748 -0.1692 -0.5531
 6470TIP3    H240970   5.870   0.299   2.628  0.7003 -0.1221 -0.1563
 6471TIP3   OH240971   6.798   0.506   1.656 -0.3312  0.2561 -0.8344
 6471TIP3    H140972   6.705   0.511   1.634 -0.7593 -3.3696 -0.5220
 6471TIP3    H240973   6.800   0.509   1.752 -0.1612 -0.0132 -0.8291
 6472TIP3   OH240974   6.822   3.248   7.847  0.5202  0.0386 -0.3967
 6472TIP3    H140975   6.863   3.192   7.780  2.2797 -0.2106  0.7995
 6472TIP3    H240976   6.773   3.313   7.797  2.1366  0.1433 -1.9784
 6473TIP3   OH240977   4.617   1.535   8.262  0.0789  0.2598 -0.2348
 6473TIP3    H140978   4.638   1.591   8.336  1.8429  0.6043 -0.9437
 6473TIP3    H240979   4.551   1.474   8.296 -0.0933  1.2082  1.2303
 6474TIP3   OH240980   4.605   4.957   8.307 -0.8578  0.5923  0.1629
 6474TIP3    H140981   4.582   4.910   8.227  0.4127  1.8069 -0.9461
 6474TIP3    H240982   4.630   5.044   8.278  2.5789  0.1918  1.5133
 6475TIP3   OH240983   3.560   4.911   0.947 -0.9326  0.2401 -0.6261
 6475TIP3    H140984   3.620   4.891   0.875 -0.7347 -1.3523 -0.0663
 6475TIP3    H240985   3.474   4.884   0.915 -0.8379 -0.5104 -0.2614
 6476TIP3   OH240986   6.269   5.494   2.072 -0.2876  0.1686  0.1370
 6476TIP3    H140987   6.246   5.572   2.022  0.2778  0.9534  1.0555
 6476TIP3    H240988   6.240   5.421   2.017  0.7136  0.9642 -1.5213
 6477TIP3   OH240989   2.754   6.078   8.540  0.0317  0.3012 -0.0227
 6477TIP3    H140990   2.732   6.069   8.633 -1.3753 -1.4918 -0.4813
 6477TIP3    H240991   2.811   6.004   8.521  0.6608  0.8966 -0.5265
 6478TIP3   OH240992   1.433   6.038   2.150 -0.1594 -0.1094  0.1516
 6478TIP3    H140993   1.454   6.111   2.208 -1.2843 -0.4088  0.9627
 6478TIP3    H240994   1.362   6.069   2.094 -0.1734 -0.3559  0.0275
 6479TIP3   OH240995   2.571   6.428   1.293 -0.3093 -0.1392  0.3893
 6479TIP3    H140996   2.488   6.475   1.282 -0.3851 -0.5446 -0.8931
 6479TIP3    H240997   2.638   6.495   1.279 -0.4200 -0.2918 -1.0577
 6480TIP3   OH240998   5.841   4.138   8.377 -0.2028  0.0947  0.6487
 6480TIP3    H140999   5.795   4.075   8.432 -1.3170  1.2602  1.0979
 6480TIP3    H241000   5.821   4.223   8.416 -1.3127  1.0000 -1.7106
 6481TIP3   OH241001   6.329   5.392   1.021 -0.3022 -0.1567  0.6150
 6481TIP3    H141002   6.328   5.461   0.955  1.0636  0.6027  1.3475
 6481TIP3    H241003   6.298   5.314   0.974 -3.4376  1.1888  0.1575
 6482TIP3   OH241004   3.893   1.185   1.750  0.1345 -0.1998  0.5715
 6482TIP3    H141005   3.947   1.144   1.818  0.2975 -0.4933  0.2738
 6482TIP3    H241006   3.902   1.126   1.674  0.6759  0.5864  0.0098
 6483TIP3   OH241007   3.648   4.857   0.672  0.0438  0.0089 -0.0365
 6483TIP3    H141008   3.609   4.864   0.584  1.0672 -1.6022 -0.6714
 6483TIP3    H241009   3.718   4.792   0.661  1.0939  0.8013  1.6762
 6484TIP3   OH241010   5.006   2.954   7.899 -0.0847  0.0548 -0.0605
 6484TIP3    H141011   5.067   3.014   7.856 -0.5482  0.3206 -0.3569
 6484TIP3    H241012   5.054   2.921   7.974  0.1762  0.8222  0.1222
 6485TIP3   OH241013   6.740   5.235   8.708  0.1444  0.4065  0.5563
 6485TIP3    H141014   6.793   5.258   8.632  0.2297  0.0659  0.5145
 6485TIP3    H241015   6.718   5.143   8.695  1.1114  0.0257  1.5197
 6486TIP3   OH241016   0.549   5.569   2.078 -0.6189  0.0004  0.7138
 6486TIP3    H141017   0.537   5.661   2.056  0.4061  0.2471  1.1516
 6486TIP3    H241018   0.623   5.567   2.138  0.0088 -1.2108 -0.0464
 6487TIP3   OH241019   4.403   1.395   0.520  0.2957 -0.8353  0.7594
 6487TIP3    H141020   4.401   1.458   0.592 -1.1634 -1.1801  1.0563
 6487TIP3    H241021   4.318   1.351   0.524  0.4123 -1.2677 -0.8323
 6488TIP3   OH241022   1.788   5.061   1.547  0.1629 -0.1055  0.2874
 6488TIP3    H141023   1.704   5.021   1.528 -0.4738  0.7735  1.1248
 6488TIP3    H241024   1.852   4.992   1.530 -0.8388 -1.3010  1.1572
 6489TIP3   OH241025   0.919   5.860   2.466  0.1487  0.3693 -0.4908
 6489TIP3    H141026   0.827   5.887   2.469  0.3056  0.9773 -0.8547
 6489TIP3    H241027   0.920   5.771   2.500 -0.7656 -0.1299 -1.7061
 6490TIP3   OH241028   1.323   3.746   2.378  0.1225 -0.2345  0.8345
 6490TIP3    H141029   1.285   3.797   2.307  6.0854  0.0739 -2.8088
 6490TIP3    H241030   1.361   3.811   2.437  2.1383 -0.2732 -0.3150
 6491TIP3   OH241031   5.888   0.858   7.601  0.5126  0.6712  0.1901
 6491TIP3    H141032   5.875   0.949   7.574 -0.3055  0.7403  0.7594
 6491TIP3    H241033   5.958   0.826   7.545  0.8193  1.6580 -0.0109
 6492TIP3   OH241034   1.419   5.258   8.300  0.1097 -0.0777 -0.0703
 6492TIP3    H141035   1.364   5.310   8.358 -0.6192  0.2287 -1.0194
 6492TIP3    H241036   1.436   5.177   8.349 -0.7344  0.0531  0.4523
 6493TIP3   OH241037   4.685   2.007   8.399 -0.2081 -0.2033  0.3814
 6493TIP3    H141038   4.616   2.039   8.341  1.3479  0.6927 -1.0864
 6493TIP3    H241039   4.666   1.914   8.410 -1.3222 -0.0962 -0.4503
 6494TIP3   OH241040   3.762   2.308   7.104  0.0300 -0.1264  0.5348
 6494TIP3    H141041   3.746   2.247   7.033 -0.5340 -2.8385  2.7975
 6494TIP3    H241042   3.833   2.267   7.154  0.5542  1.7873  1.4411
 6495TIP3   OH241043   3.593   5.865   0.026  0.2349  0.1223 -0.4865
 6495TIP3    H141044   3.679   5.873   0.066 -0.8581 -1.1952  2.4405
 6495TIP3    H241045   3.553   5.789   0.070 -2.2578  0.4049 -2.0374
 6496TIP3   OH241046   2.171   0.682   1.676 -0.0756 -0.5184 -0.1800
 6496TIP3    H141047   2.198   0.749   1.739 -0.4602  0.3947 -0.9545
 6496TIP3    H241048   2.251   0.660   1.628 -0.4938  1.9153 -2.2275
 6497TIP3   OH241049   0.524   2.194   8.637  0.5702  0.2140  0.3996
 6497TIP3    H141050   0.615   2.220   8.652  0.8060 -0.9100  1.0110
 6497TIP3    H241051   0.495   2.251   8.566  1.2329  1.7046  1.2806
 6498TIP3   OH241052   3.989   0.695   1.316  0.2292 -0.1681  0.1400
 6498TIP3    H141053   4.058   0.759   1.333  0.1582 -0.0596  0.0234
 6498TIP3    H241054   4.022   0.644   1.242  0.8178 -1.0495  0.9776
 6499TIP3   OH241055   4.882   0.639   8.261 -0.0009 -0.6132  0.1843
 6499TIP3    H141056   4.915   0.552   8.282  1.0312 -0.1090  0.7220
 6499TIP3    H241057   4.836   0.628   8.178  3.8089 -0.8822 -2.1342
 6500TIP3   OH241058   3.872   3.715   1.459  0.2808  0.1425  0.0544
 6500TIP3    H141059   3.846   3.632   1.417  0.2519  0.0970  0.1609
 6500TIP3    H241060   3.818   3.719   1.538  1.2665 -0.4255  0.7942
 6501TIP3   OH241061   0.319   3.594   7.649  0.0792  0.0217  0.3928
 6501TIP3    H141062   0.247   3.653   7.671  0.0316 -0.9344  3.2568
 6501TIP3    H241063   0.294   3.555   7.565 -1.8281  1.0672  0.4247
 6502TIP3   OH241064   0.422   0.998   8.562 -0.5214 -0.3495 -0.2533
 6502TIP3    H141065   0.371   1.072   8.531 -0.0742 -0.4482 -1.2687
 6502TIP3    H241066   0.479   1.035   8.630 -0.7548  0.1010 -0.3014
 6503TIP3   OH241067   4.042   3.807   8.220  0.5693  0.1814  0.0526
 6503TIP3    H141068   4.064   3.894   8.189 -0.5965 -0.3357 -2.5044
 6503TIP3    H241069   3.987   3.821   8.296 -0.2307  1.7302 -0.7723
 6504TIP3   OH241070   5.217   5.234   7.744  0.4584 -0.0018 -0.0629
 6504TIP3    H141071   5.193   5.164   7.683 -0.5924 -2.2093  2.6983
 6504TIP3    H241072   5.142   5.293   7.744  0.3827 -0.0870 -0.7142
 6505TIP3   OH241073   0.177   0.817   1.258  0.8890  0.2896  0.2860
 6505TIP3    H141074   0.167   0.729   1.295  0.9950 -0.5136 -1.4399
 6505TIP3    H241075   0.130   0.812   1.174  1.4366  1.6816 -0.1216
 6506TIP3   OH241076   2.324   5.821   1.974  0.8698 -0.2617  0.0790
 6506TIP3    H141077   2.338   5.911   2.003  1.0529 -0.1005 -0.5070
 6506TIP3    H241078   2.229   5.811   1.973  0.6973  0.8294 -2.5170
 6507TIP3   OH241079   1.233   5.901   1.884  0.0117  0.2573  0.2732
 6507TIP3    H141080   1.157   5.933   1.835  0.0906 -1.6335 -1.1878
 6507TIP3    H241081   1.260   5.976   1.938  0.0692  2.5726 -2.7250
 6508TIP3   OH241082   4.382   1.762   0.520 -0.1554  0.2420  0.4198
 6508TIP3    H141083   4.328   1.711   0.580  1.2574 -0.5922  1.0377
 6508TIP3    H241084   4.471   1.755   0.555  0.5166  0.7781 -1.0744
 6509TIP3   OH241085   0.399   1.349   7.235  0.0846 -0.5819  0.3637
 6509TIP3    H141086   0.393   1.328   7.142  0.0896  0.3874  0.1255
 6509TIP3    H241087   0.490   1.329   7.258  0.4231  0.2880 -0.1505
 6510TIP3   OH241088   1.817   5.767   0.404 -0.3518 -0.8296 -0.0521
 6510TIP3    H141089   1.745   5.812   0.360 -0.1616  1.0240  1.4560
 6510TIP3    H241090   1.798   5.674   0.390 -2.1405 -0.3615 -1.0672
 6511TIP3   OH241091   3.309   4.340   7.939 -0.4235  0.3474  0.3950
 6511TIP3    H141092   3.346   4.277   8.001 -0.3602 -1.1820 -1.1401
 6511TIP3    H241093   3.375   4.348   7.870 -0.3557  2.2616  0.6069
 6512TIP3   OH241094   2.896   3.244   7.514  0.3209  0.2038 -0.5544
 6512TIP3    H141095   2.940   3.277   7.593 -0.0039 -1.3175  0.3092
 6512TIP3    H241096   2.855   3.321   7.475 -3.3190  0.4548  3.1872
 6513TIP3   OH241097   6.147   1.178   2.242  0.1803 -0.1157 -0.1475
 6513TIP3    H141098   6.084   1.168   2.171 -1.8484 -1.7624  1.7692
 6513TIP3    H241099   6.209   1.106   2.230 -0.5369 -0.7841  0.0896
 6514TIP3   OH241100   2.396   2.425   1.998  0.0577 -0.0519 -0.4886
 6514TIP3    H141101   2.315   2.380   2.022  0.0744 -0.2387 -0.7902
 6514TIP3    H241102   2.453   2.413   2.074  0.1187 -0.6689 -0.6332
 6515TIP3   OH241103   6.116   0.255   6.915  0.2388  0.2173  0.0670
 6515TIP3    H141104   6.174   0.234   6.988 -2.3666 -0.9933  1.9333
 6515TIP3    H241105   6.080   0.341   6.936  0.5959  0.5323 -0.5801
 6516TIP3   OH241106   2.262   0.732   8.336  0.4610 -0.5169 -0.2076
 6516TIP3    H141107   2.200   0.797   8.303  0.8622  0.3440  0.6790
 6516TIP3    H241108   2.326   0.722   8.266  0.6091  0.3490 -0.2080
 6517TIP3   OH241109   2.473   1.781   2.899 -0.1508 -0.4748 -0.7117
 6517TIP3    H141110   2.507   1.723   2.966  0.0303 -0.9797 -1.2349
 6517TIP3    H241111   2.436   1.723   2.833 -2.4388  0.0195  0.0103
 6518TIP3   OH241112   4.890   2.031   2.132 -0.3935 -0.8617 -0.5202
 6518TIP3    H141113   4.975   2.039   2.175 -0.3136 -1.5023 -0.5516
 6518TIP3    H241114   4.834   2.094   2.178 -0.3438 -1.6260  0.6226
 6519TIP3   OH241115   3.705   3.949   1.664 -0.0951  0.3278  0.4698
 6519TIP3    H141116   3.703   3.854   1.679  1.1255  0.2861  0.4138
 6519TIP3    H241117   3.706   3.987   1.751 -0.4630  0.2903  0.4921
 6520TIP3   OH241118   1.892   3.074   8.577  0.2586  0.2096  0.2170
 6520TIP3    H141119   1.898   3.019   8.655  0.1887  1.6554  1.2856
 6520TIP3    H241120   1.810   3.123   8.588  0.4785  0.7811 -0.5367
 6521TIP3   OH241121   2.920   2.645   3.393  0.3115  0.0857 -0.4939
 6521TIP3    H141122   2.977   2.688   3.329 -1.7440  0.7780 -2.0039
 6521TIP3    H241123   2.879   2.574   3.343 -1.5588  0.8157 -0.1027
 6522TIP3   OH241124   1.196   0.409   0.522  0.1202  1.0925 -0.5705
 6522TIP3    H141125   1.286   0.403   0.490  1.0572  0.2599  1.9459
 6522TIP3    H241126   1.205   0.438   0.613 -2.1584  0.9217 -0.2264
 6523TIP3   OH241127   4.599   4.752   8.082  0.3505 -0.1856 -0.0757
 6523TIP3    H141128   4.677   4.697   8.085 -0.5632 -1.4999  2.9238
 6523TIP3    H241129   4.541   4.708   8.021  0.9256 -0.6416 -0.3022
 6524TIP3   OH241130   5.166   6.623   2.437  0.0749  0.1654  0.0808
 6524TIP3    H141131   5.180   6.696   2.498  1.8184  0.4546 -0.6175
 6524TIP3    H241132   5.201   6.654   2.354 -0.1229 -1.0892 -0.4880
 6525TIP3   OH241133   4.349   6.147   1.631  0.2661  1.1015  0.0487
 6525TIP3    H141134   4.427   6.139   1.685 -0.8206  0.4227  1.5986
 6525TIP3    H241135   4.338   6.241   1.619  0.3167  1.3052  1.4002
 6526TIP3   OH241136   3.444   2.981   2.370  0.4359  0.4164  0.4695
 6526TIP3    H141137   3.385   2.976   2.445 -1.6874 -1.8955 -1.1831
 6526TIP3    H241138   3.491   2.898   2.372 -1.6552 -0.9848 -2.1431
 6527TIP3   OH241139   4.306   1.742   2.254  0.5209 -0.6434 -0.4400
 6527TIP3    H141140   4.343   1.801   2.189 -1.4213 -1.5458 -2.5193
 6527TIP3    H241141   4.267   1.800   2.320 -0.8577  0.4758 -2.1450
 6528TIP3   OH241142   2.839   0.113   0.721  0.1795  0.2293 -0.1103
 6528TIP3    H141143   2.843   0.033   0.668  1.2801  1.2719 -1.6904
 6528TIP3    H241144   2.745   0.131   0.730 -0.0686  0.4001 -2.3797
 6529TIP3   OH241145   0.619   3.401   7.838 -0.0774  0.4413  0.0684
 6529TIP3    H141146   0.621   3.484   7.790  0.2182  0.7970  0.6793
 6529TIP3    H241147   0.656   3.337   7.778 -1.3614  0.5147 -0.8358
 6530TIP3   OH241148   2.056   6.115   1.149  0.3647  0.4503 -0.3371
 6530TIP3    H141149   2.027   6.123   1.058 -0.0665  2.1379 -0.0994
 6530TIP3    H241150   2.009   6.040   1.183 -1.7137  1.4921 -0.7315
 6531TIP3   OH241151   0.865   0.996   8.104 -0.1841  0.3780  0.2643
 6531TIP3    H141152   0.953   0.991   8.066 -0.4052  0.1376 -0.2425
 6531TIP3    H241153   0.815   0.929   8.055 -1.1281  1.7798 -0.7794
 6532TIP3   OH241154   6.161   1.118   1.132 -0.9471 -0.7015  0.4188
 6532TIP3    H141155   6.230   1.060   1.161 -0.4536  1.0328  3.0249
 6532TIP3    H241156   6.114   1.068   1.064  1.8659 -2.4864 -0.3665
 6533TIP3   OH241157   3.228   2.420   8.477  0.0272  0.0640 -0.3420
 6533TIP3    H141158   3.311   2.447   8.517  0.1366  0.3009 -0.7196
 6533TIP3    H241159   3.230   2.325   8.481  1.2466 -0.0359 -2.1472
 6534TIP3   OH241160   1.294   5.829   2.826  0.0638  0.0313  0.3117
 6534TIP3    H141161   1.345   5.770   2.881 -1.7216 -1.4034  0.5085
 6534TIP3    H241162   1.228   5.865   2.885  0.7189  1.7948  0.0405
 6535TIP3   OH241163   6.768   5.539   7.520  0.1187  0.2033 -0.1102
 6535TIP3    H141164   6.752   5.563   7.429  1.1491  0.6685 -0.1826
 6535TIP3    H241165   6.825   5.462   7.515  0.2263  0.2667  0.1520
 6536TIP3   OH241166   4.090   2.063   1.992  0.3296 -0.0186 -0.0413
 6536TIP3    H141167   4.029   1.989   1.985 -0.3752  0.6954 -1.8696
 6536TIP3    H241168   4.155   2.034   2.057 -0.8777 -1.5482  0.5406
 6537TIP3   OH241169   6.822   0.409   0.871 -0.7072  0.0840 -0.7241
 6537TIP3    H141170   6.896   0.470   0.866 -0.2486 -0.3341  0.5767
 6537TIP3    H241171   6.863   0.323   0.869 -1.0329 -0.1502  1.2526
 6538TIP3   OH241172   1.274   4.342   6.912  0.7534 -0.4207 -0.4175
 6538TIP3    H141173   1.207   4.354   6.844  0.0094  1.0344  0.5257
 6538TIP3    H241174   1.305   4.431   6.930  0.5557 -0.7100  1.5062
 6539TIP3   OH241175   1.315   2.381   8.729  0.2181 -0.5410  0.1331
 6539TIP3    H141176   1.379   2.440   8.691 -0.3933  0.0670  0.0194
 6539TIP3    H241177   1.270   2.342   8.654 -0.3405 -0.0662  0.2155
 6540TIP3   OH241178   0.805   1.279   0.589  0.1476  0.7358 -0.4168
 6540TIP3    H141179   0.897   1.278   0.562 -0.0475  0.0694 -1.0874
 6540TIP3    H241180   0.778   1.370   0.576  1.2380  1.4573  1.7359
 6541TIP3   OH241181   2.795   6.258   0.045 -0.5903  0.2624 -0.1728
 6541TIP3    H141182   2.802   6.291  -0.044  0.5683 -0.1277 -0.2495
 6541TIP3    H241183   2.885   6.258   0.078 -0.6048 -2.1049  0.0621
 6542TIP3   OH241184   0.398   0.149   1.603  0.2444  0.5258  0.2284
 6542TIP3    H141185   0.303   0.146   1.618  0.0826 -0.4134 -0.8608
 6542TIP3    H241186   0.434   0.187   1.684 -0.8595 -1.1187  1.5765
 6543TIP3   OH241187   5.535   1.247   0.658 -0.0387 -0.5636  0.2224
 6543TIP3    H141188   5.506   1.207   0.576  0.3204  0.1157 -0.2411
 6543TIP3    H241189   5.564   1.335   0.633  1.4762 -0.8690  0.8437
 6544TIP3   OH241190   0.891   3.534   8.640 -0.0317  0.2149 -0.5900
 6544TIP3    H141191   0.948   3.528   8.716  1.4243 -1.4381 -1.7305
 6544TIP3    H241192   0.802   3.528   8.676  0.6339 -1.2596  0.9432
 6545TIP3   OH241193   6.516   5.394   8.360  0.3862 -0.1394 -0.4354
 6545TIP3    H141194   6.442   5.453   8.343  0.8547  0.6644  0.2453
 6545TIP3    H241195   6.495   5.353   8.444  0.5769 -0.1187 -0.3774
 6546TIP3   OH241196   5.446   3.368   8.167  0.3441 -0.2320 -0.5734
 6546TIP3    H141197   5.454   3.447   8.222  2.5296 -0.0442 -1.0529
 6546TIP3    H241198   5.479   3.297   8.222 -1.9097 -0.9247 -0.0361
 6547TIP3   OH241199   0.731   1.959   1.928 -0.6826 -0.1148 -0.5221
 6547TIP3    H141200   0.645   1.990   1.901 -0.1983  1.4603 -0.3647
 6547TIP3    H241201   0.741   1.990   2.018  0.1337 -0.0729 -0.6170
 6548TIP3   OH241202   4.715   3.203   2.708 -0.1702  0.9461  0.1647
 6548TIP3    H141203   4.774   3.249   2.648  0.5258  1.4135  1.1872
 6548TIP3    H241204   4.731   3.243   2.793  0.4424 -1.1369  1.1020
 6549TIP3   OH241205   6.187   1.225   7.634  0.1010  0.1057  0.0298
 6549TIP3    H141206   6.176   1.147   7.689 -1.8215  2.2306  2.9274
 6549TIP3    H241207   6.281   1.229   7.618  0.9793 -0.2361  4.0281
 6550TIP3   OH241208   0.782   5.671   1.532 -0.3568 -0.0302 -0.5298
 6550TIP3    H141209   0.867   5.713   1.541 -0.2922 -0.3632  0.5985
 6550TIP3    H241210   0.741   5.715   1.458 -1.0555  3.3264  1.6409
 6551TIP3   OH241211   6.418   0.951   0.568  0.2646  0.3295  0.6730
 6551TIP3    H141212   6.420   1.019   0.635 -0.6312  1.1666 -0.1092
 6551TIP3    H241213   6.376   0.993   0.493  0.4865 -0.8339 -0.1321
 6552TIP3   OH241214   5.301   1.081   0.023 -0.4300 -0.6500  0.3556
 6552TIP3    H141215   5.292   1.173   0.046 -0.4115 -0.5366 -0.0818
 6552TIP3    H241216   5.393   1.060   0.044 -0.4528 -0.5860  0.5162
 6553TIP3   OH241217   0.511   4.630   0.688 -0.3064  0.2891  0.3893
 6553TIP3    H141218   0.565   4.560   0.651 -1.1630 -0.1378 -0.0739
 6553TIP3    H241219   0.574   4.698   0.714  0.6315 -1.0525  1.7780
 6554TIP3   OH241220   4.572   0.942   8.002 -0.1688  0.3655 -0.2119
 6554TIP3    H141221   4.667   0.927   8.000 -0.2291  0.0320 -1.5182
 6554TIP3    H241222   4.558   1.012   7.937 -0.6923  1.2824  0.8528
 6555TIP3   OH241223   2.875   6.828   8.046  0.5363  0.3375 -0.2263
 6555TIP3    H141224   2.880   6.921   8.070  2.0452  0.4036 -0.6782
 6555TIP3    H241225   2.855   6.783   8.129  2.6161  0.8385  0.6220
 6556TIP3   OH241226   2.564   3.133   1.567  0.2872 -0.2779  0.4242
 6556TIP3    H141227   2.542   3.110   1.657  1.1941 -1.3847  0.3845
 6556TIP3    H241228   2.586   3.049   1.526  1.6921  0.4229 -0.3063
 6557TIP3   OH241229   5.036   2.667   1.244  0.5205 -1.1633 -0.2295
 6557TIP3    H141230   5.061   2.594   1.187  0.6851 -1.8493  0.6878
 6557TIP3    H241231   4.943   2.680   1.227  0.3653 -1.9391 -0.0425
 6558TIP3   OH241232   0.519   4.032   1.255 -0.3523 -0.0524  0.4334
 6558TIP3    H141233   0.584   3.973   1.293  0.5024 -0.9512 -2.1719
 6558TIP3    H241234   0.438   4.014   1.303  1.0616  0.6061  3.3091
 6559TIP3   OH241235   6.749   6.819   7.219 -0.0494 -0.5044 -0.1364
 6559TIP3    H141236   6.782   6.906   7.242  0.2381 -0.6622  0.0554
 6559TIP3    H241237   6.654   6.827   7.226 -0.0171 -0.2469  0.0294
 6560TIP3   OH241238   3.790   5.154   2.315 -1.1690 -0.0782  0.3801
 6560TIP3    H141239   3.799   5.248   2.330  0.2930  0.0371 -0.9818
 6560TIP3    H241240   3.798   5.143   2.220 -1.2999 -1.5854  0.5042
 6561TIP3   OH241241   5.224   1.857   0.335 -0.7876 -0.1859  0.1363
 6561TIP3    H141242   5.130   1.870   0.325 -0.8615 -1.0636 -0.3986
 6561TIP3    H241243   5.262   1.888   0.252 -0.6900 -0.6570  0.0044
 6562TIP3   OH241244   3.530   2.373   2.637 -0.2360  0.1546  0.2375
 6562TIP3    H141245   3.465   2.315   2.597 -1.1516  0.9222  0.5631
 6562TIP3    H241246   3.531   2.450   2.580  1.0769 -0.2138 -0.2769
 6563TIP3   OH241247   5.711   3.897   7.775 -0.2548  0.1337  0.3685
 6563TIP3    H141248   5.617   3.905   7.791 -0.5200  0.7078 -1.3246
 6563TIP3    H241249   5.720   3.899   7.680  1.3619 -1.2646  0.4321
 6564TIP3   OH241250   4.367   2.954   2.168 -0.5115  0.0960  0.0616
 6564TIP3    H141251   4.366   2.869   2.124 -0.0942  0.3418 -0.4322
 6564TIP3    H241252   4.460   2.973   2.181 -0.5750  0.7367 -0.3455
 6565TIP3   OH241253   2.398   1.626   1.454  0.2094  0.6374  0.4985
 6565TIP3    H141254   2.406   1.640   1.359  1.0266  1.3979  0.6584
 6565TIP3    H241255   2.382   1.533   1.464  3.5007 -0.1284 -0.2624
 6566TIP3   OH241256   4.149   2.852   8.357 -0.3738 -0.3676  0.1185
 6566TIP3    H141257   4.158   2.807   8.273  0.5706  1.4072 -0.7890
 6566TIP3    H241258   4.229   2.829   8.405  1.5977  2.4734 -1.4978
 6567TIP3   OH241259   3.079   4.777   8.502 -0.1623  0.1889 -0.1945
 6567TIP3    H141260   3.119   4.812   8.423 -0.6153 -0.3894 -0.6856
 6567TIP3    H241261   3.152   4.742   8.553  0.1067  0.3892 -0.4449
 6568TIP3   OH241262   2.464   4.480   2.567 -0.0961 -0.2744 -0.2736
 6568TIP3    H141263   2.508   4.396   2.576  5.0679  2.2654  2.6939
 6568TIP3    H241264   2.506   4.523   2.493  1.2525  1.4712  1.3809
 6569TIP3   OH241265   0.361   4.979   1.403  0.0889 -0.1104 -0.2755
 6569TIP3    H141266   0.270   4.951   1.409 -0.3538  1.0721 -1.0770
 6569TIP3    H241267   0.404   4.912   1.350  0.0583 -1.4615  1.3369
 6570TIP3   OH241268   0.360   0.320   1.364 -0.4201 -0.3745 -0.3661
 6570TIP3    H141269   0.437   0.270   1.338 -0.2720 -0.4535  0.2130
 6570TIP3    H241270   0.341   0.291   1.454 -1.4561 -0.7753 -0.6941
 6571TIP3   OH241271   2.179   0.442   1.490  0.5052  0.6105 -0.1244
 6571TIP3    H141272   2.151   0.497   1.563 -1.5100  0.3240 -0.6298
 6571TIP3    H241273   2.214   0.363   1.532  0.4802  0.9449  0.5388
 6572TIP3   OH241274   3.209   1.654   2.393  0.5167  0.1210 -0.1240
 6572TIP3    H141275   3.168   1.568   2.405  1.4439 -0.3456 -0.1980
 6572TIP3    H241276   3.212   1.666   2.299 -1.0900  0.9803 -0.0882
 6573TIP3   OH241277   2.511   1.867   0.905  0.1215 -0.0200 -0.7029
 6573TIP3    H141278   2.487   1.782   0.869  0.0672 -0.7805  1.0360
 6573TIP3    H241279   2.448   1.882   0.976  0.9943  0.8004 -0.0756
 6574TIP3   OH241280   6.287   5.928   2.761 -0.3818  0.1335  0.0434
 6574TIP3    H141281   6.319   5.854   2.709 -0.6905  0.6744 -0.9483
 6574TIP3    H241282   6.194   5.909   2.775 -0.3798  0.1592  0.0908
 6575TIP3   OH241283   4.941   1.800   7.925  0.3588  0.4818  0.2317
 6575TIP3    H141284   4.983   1.803   8.010  3.3223  0.2312 -1.1068
 6575TIP3    H241285   4.918   1.708   7.912 -0.4839  0.5863  0.8769
 6576TIP3   OH241286   5.981   4.800   1.001  0.6437 -0.7807  0.3153
 6576TIP3    H141287   5.956   4.785   1.092  1.1055  0.1683  0.6026
 6576TIP3    H241288   5.999   4.894   0.996  0.1711 -0.7373 -0.8658
 6577TIP3   OH241289   3.767   4.840   2.312  0.3644 -0.6643  0.4836
 6577TIP3    H141290   3.821   4.883   2.246  0.5156 -0.4898  0.7215
 6577TIP3    H241291   3.767   4.748   2.286  1.9020 -0.9148  1.2354
 6578TIP3   OH241292   5.992   3.884   8.302 -0.0171 -0.0697 -0.1471
 6578TIP3    H141293   5.906   3.843   8.312  0.2382 -1.0120 -1.5692
 6578TIP3    H241294   6.054   3.817   8.329  0.3285  0.1245 -0.4465
 6579TIP3   OH241295   4.693   1.821   7.141 -0.4965 -0.4899  0.1536
 6579TIP3    H141296   4.648   1.901   7.111  0.5287 -0.8028 -2.4828
 6579TIP3    H241297   4.784   1.849   7.155  0.0130 -1.2603 -1.3933
 6580TIP3   OH241298   5.809   5.833   7.981  0.4705 -0.7805 -0.4021
 6580TIP3    H141299   5.722   5.793   7.977  0.0214  0.1962 -0.5462
 6580TIP3    H241300   5.846   5.817   7.894  0.1295 -0.5409 -0.5970
 6581TIP3   OH241301   5.741   3.218   7.913  0.0667 -0.5483  0.5785
 6581TIP3    H141302   5.660   3.255   7.878  0.8092  0.2563 -0.3631
 6581TIP3    H241303   5.716   3.178   7.996 -1.2713 -0.2334  0.3451
 6582TIP3   OH241304   6.146   2.299   0.712 -0.0779  0.1110  0.0897
 6582TIP3    H141305   6.195   2.381   0.724  1.6248 -0.9582  0.6965
 6582TIP3    H241306   6.091   2.293   0.791  0.7300  0.0573  0.6593
 6583TIP3   OH241307   5.518   5.093   8.751  0.7262  0.2512  0.2539
 6583TIP3    H141308   5.484   5.023   8.696 -0.5339  0.9288  0.1419
 6583TIP3    H241309   5.503   5.064   8.841 -0.0841  0.5017  0.2061
 6584TIP3   OH241310   5.136   2.716   8.632  0.6404 -0.1413  0.1774
 6584TIP3    H141311   5.158   2.770   8.707  1.6905  0.3034 -0.4231
 6584TIP3    H241312   5.169   2.629   8.655  1.8517  0.2103 -0.1404
 6585TIP3   OH241313   2.028   4.877   7.636  0.0418  0.1905 -0.8068
 6585TIP3    H141314   1.972   4.809   7.598  0.6117 -0.4318 -0.5710
 6585TIP3    H241315   2.114   4.835   7.641 -0.0936  0.0696  1.5757
 6586TIP3   OH241316   3.671   1.694   8.358  1.2767 -0.1817 -0.2269
 6586TIP3    H141317   3.710   1.772   8.396 -1.5050  0.7679  0.9566
 6586TIP3    H241318   3.587   1.724   8.323 -0.1476 -2.6918  0.7689
 6587TIP3   OH241319   6.499   3.411   0.455 -0.3358 -0.6023  0.1224
 6587TIP3    H141320   6.489   3.344   0.387  0.5365 -0.5358 -0.0876
 6587TIP3    H241321   6.453   3.375   0.531  1.2528 -2.1002  0.4546
 6588TIP3   OH241322   1.191   1.115   2.332 -0.1166  0.3553  0.3137
 6588TIP3    H141323   1.199   1.204   2.366 -0.9050  0.5543 -0.0168
 6588TIP3    H241324   1.245   1.063   2.392 -0.7662  0.8380  1.3605
 6589TIP3   OH241325   2.694   1.590   1.655 -0.0549  0.0615  0.9110
 6589TIP3    H141326   2.787   1.611   1.658  0.1587 -0.9801  2.9746
 6589TIP3    H241327   2.667   1.588   1.747 -2.5640  2.1708  0.3368
 6590TIP3   OH241328   0.979   0.958   2.617  0.2702  0.4563 -0.0597
 6590TIP3    H141329   1.003   1.045   2.651  1.3758  0.0611  0.2014
 6590TIP3    H241330   1.048   0.900   2.649 -0.5294 -0.5539 -0.1194
 6591TIP3   OH241331   1.795   0.898   1.150 -0.2328 -0.0215  0.0317
 6591TIP3    H141332   1.744   0.959   1.203  1.4037  0.7759  0.7661
 6591TIP3    H241333   1.882   0.938   1.145  0.0324 -0.7292 -2.1661
 6592TIP3   OH241334   5.234   1.645   8.646  0.5211  0.7201  0.4293
 6592TIP3    H141335   5.214   1.600   8.564  1.1769 -3.4673  2.3085
 6592TIP3    H241336   5.162   1.706   8.657 -1.1442 -0.6445 -1.8942
 6593TIP3   OH241337   4.127   3.894   1.459  0.2289 -0.5063 -0.3250
 6593TIP3    H141338   4.050   3.839   1.445 -1.9631  2.2268  0.1137
 6593TIP3    H241339   4.144   3.933   1.374  0.1768  0.0419 -0.0878
 6594TIP3   OH241340   4.998   0.095   1.036 -0.0834 -0.1328  0.3349
 6594TIP3    H141341   4.992   0.170   1.094  1.7620  0.1428  0.2098
 6594TIP3    H241342   4.999   0.132   0.948  0.5595 -0.3103  0.2629
 6595TIP3   OH241343   4.105   3.524   8.337  0.1246 -0.1742 -0.5068
 6595TIP3    H141344   4.064   3.603   8.301  1.6832 -0.7160 -3.7903
 6595TIP3    H241345   4.124   3.547   8.428 -1.9441  2.1988 -0.5709
 6596TIP3   OH241346   4.878   0.437   8.663 -0.3609  0.1709  0.3617
 6596TIP3    H141347   4.817   0.463   8.732  0.9928 -1.4941  2.3482
 6596TIP3    H241348   4.882   0.341   8.670  1.1338  0.0984 -0.8609
 6597TIP3   OH241349   3.165   6.708   1.166  0.1302 -0.1465  0.0095
 6597TIP3    H141350   3.073   6.734   1.172  0.2980  0.6086 -0.5310
 6597TIP3    H241351   3.163   6.623   1.122 -0.2616  0.2274 -0.7102
 6598TIP3   OH241352   6.504   3.537   2.252 -0.0707 -0.1453 -0.4900
 6598TIP3    H141353   6.580   3.500   2.207  0.6820 -3.9999  3.2977
 6598TIP3    H241354   6.540   3.605   2.309  0.3902 -1.0254  0.2947
 6599TIP3   OH241355   2.273   0.704   0.922  0.1184 -0.8553  0.4655
 6599TIP3    H141356   2.301   0.630   0.976  0.1516 -2.8485 -2.1226
 6599TIP3    H241357   2.319   0.692   0.839 -1.6810  0.7558 -0.8399
 6600TIP3   OH241358   4.426   5.751   8.167 -0.1191 -0.8876  0.7572
 6600TIP3    H141359   4.332   5.740   8.158 -0.0767 -0.5028 -0.2949
 6600TIP3    H241360   4.451   5.805   8.093  0.8965 -0.7690  1.1689
 6601TIP3   OH241361   1.923   1.275   7.957 -0.2015 -0.2131  0.3552
 6601TIP3    H141362   1.910   1.352   7.901 -0.0031 -0.7106 -0.3876
 6601TIP3    H241363   1.955   1.207   7.898  1.7593 -0.2569  1.3707
 6602TIP3   OH241364   2.812   6.717   8.576  0.5390 -0.0327  0.1635
 6602TIP3    H141365   2.834   6.763   8.496  1.0732 -0.2803  0.1621
 6602TIP3    H241366   2.863   6.761   8.644  1.5915 -1.0359  0.0554
 6603TIP3   OH241367   0.137   3.242   2.480 -0.2148  0.4555 -0.3466
 6603TIP3    H141368   0.082   3.177   2.524 -0.8140  1.3467  0.2295
 6603TIP3    H241369   0.135   3.318   2.537 -0.4792  1.4080 -1.6005
 6604TIP3   OH241370   3.621   2.230   0.699 -1.2468 -0.3491  0.1349
 6604TIP3    H141371   3.630   2.263   0.610 -2.3202  0.6089  0.3618
 6604TIP3    H241372   3.705   2.251   0.741 -1.0652 -0.0015 -0.3998
 6605TIP3   OH241373   3.910   3.269   2.160  0.5017  0.2424 -0.2358
 6605TIP3    H141374   3.934   3.341   2.218  0.0502 -1.1067  1.7721
 6605TIP3    H241375   3.823   3.241   2.191  0.5797 -1.0293 -1.0589
 6606TIP3   OH241376   3.092   2.470   1.024  0.0660 -0.2731  0.0718
 6606TIP3    H141377   3.165   2.520   0.988 -1.0432  0.1274 -1.7273
 6606TIP3    H241378   3.061   2.524   1.097 -0.8719  1.5832 -1.5972
 6607TIP3   OH241379   1.687   2.708   0.853 -0.4382  0.7526 -0.1736
 6607TIP3    H141380   1.604   2.661   0.869 -0.3483  1.6340  4.1050
 6607TIP3    H241381   1.754   2.642   0.871 -0.2094  0.8615 -0.6190
 6608TIP3   OH241382   1.032   6.400   2.056 -0.0349 -0.1168 -0.0309
 6608TIP3    H141383   1.012   6.477   2.003 -0.6066 -1.0177 -1.1802
 6608TIP3    H241384   1.002   6.423   2.144 -0.1475  0.9894 -0.3488
 6609TIP3   OH241385   5.234   1.969   1.579  0.3015  0.1296  0.4036
 6609TIP3    H141386   5.277   1.993   1.497 -1.0528 -1.1411 -0.7315
 6609TIP3    H241387   5.158   2.027   1.584 -0.0341 -0.3023  0.3715
 6610TIP3   OH241388   0.929   6.725   2.251 -0.0424  0.6607  0.0637
 6610TIP3    H141389   1.019   6.756   2.253 -0.0058  0.7205 -1.4154
 6610TIP3    H241390   0.931   6.643   2.299  1.0595  0.0741 -0.9162
 6611TIP3   OH241391   5.288   6.538   8.665  0.4512 -0.3662  0.0177
 6611TIP3    H141392   5.368   6.583   8.690  0.8941 -0.3389 -1.3569
 6611TIP3    H241393   5.244   6.598   8.605 -0.5772 -0.4156  0.6835
 6612TIP3   OH241394   2.827   5.939   0.036  0.1520 -0.4331 -0.4651
 6612TIP3    H141395   2.803   6.022   0.077 -0.6676 -0.3233 -1.1312
 6612TIP3    H241396   2.922   5.937   0.038  0.1493 -0.2855  1.1318
 6613TIP3   OH241397   4.611   1.299   0.803 -0.1031 -0.3573 -0.0106
 6613TIP3    H141398   4.607   1.393   0.825  1.0381 -0.3509  0.2211
 6613TIP3    H241399   4.532   1.262   0.843 -1.5500  0.7872 -1.6236
 6614TIP3   OH241400   4.491   0.136   0.866  0.1969  0.0781  0.0681
 6614TIP3    H141401   4.574   0.134   0.914  0.3575 -0.1277 -0.2141
 6614TIP3    H241402   4.453   0.049   0.879 -0.0066  0.1920  0.2477
 6615TIP3   OH241403   4.928   0.451   2.567  0.4716 -0.1719 -0.0385
 6615TIP3    H141404   4.845   0.411   2.593  0.3690  0.2753  0.3378
 6615TIP3    H241405   4.974   0.383   2.518 -1.2789  0.3990 -2.7217
 6616TIP3   OH241406   0.971   5.229   2.359  0.1112 -0.2886 -0.0347
 6616TIP3    H141407   1.006   5.146   2.328 -0.1668 -0.8529  1.1178
 6616TIP3    H241408   0.993   5.231   2.452 -3.2604 -0.9193  0.9101
 6617TIP3   OH241409   4.202   1.418   2.968  0.7289 -0.6318 -0.1882
 6617TIP3    H141410   4.215   1.328   2.997 -0.4434 -0.7577 -0.0177
 6617TIP3    H241411   4.134   1.453   3.025  0.4345  0.0322 -0.9156
 6618TIP3   OH241412   2.950   2.883   1.842 -0.6993  0.1879  0.8157
 6618TIP3    H141413   3.035   2.922   1.823  0.2274 -1.4516  1.3760
 6618TIP3    H241414   2.919   2.850   1.758  0.6252 -1.8193  1.0706
 6619TIP3   OH241415   3.943   4.802   2.643 -0.4131  0.3581  0.1331
 6619TIP3    H141416   3.947   4.763   2.730 -3.6281 -1.5671 -0.3948
 6619TIP3    H241417   4.002   4.748   2.590 -1.0767 -0.7180  0.4517
 6620TIP3   OH241418   0.733   3.361   0.950  0.1428  0.0187  0.1028
 6620TIP3    H141419   0.779   3.438   0.916  0.9230 -0.2282  0.5661
 6620TIP3    H241420   0.643   3.391   0.963 -0.5507 -0.1844 -3.2774
 6621TIP3   OH241421   1.419   1.818   1.614 -0.2312  0.3962  0.0856
 6621TIP3    H141422   1.414   1.777   1.700 -0.9682 -1.6760 -0.8769
 6621TIP3    H241423   1.340   1.872   1.609 -1.1389 -0.8873  0.0667
 6622TIP3   OH241424   5.184   6.163   7.621  0.0525  0.5464  0.4668
 6622TIP3    H141425   5.214   6.105   7.551 -0.3235  0.9189 -0.0068
 6622TIP3    H241426   5.264   6.204   7.654  0.2136  0.4683  0.1710
 6623TIP3   OH241427   5.579   6.664   2.092 -0.4549  0.2068  0.0652
 6623TIP3    H141428   5.550   6.703   2.009 -0.9995  1.1563  0.6763
 6623TIP3    H241429   5.668   6.634   2.075 -0.2991  1.0401 -0.6715
 6624TIP3   OH241430   1.668   4.113   1.200  0.0949  0.3518 -0.0418
 6624TIP3    H141431   1.606   4.056   1.244  2.2245 -1.4149  0.8238
 6624TIP3    H241432   1.649   4.101   1.106 -0.9333 -0.0213  0.1953
 6625TIP3   OH241433   4.931   0.613   2.108  0.0379  0.3375 -0.2759
 6625TIP3    H141434   4.965   0.690   2.154  0.9389  0.6156 -1.3443
 6625TIP3    H241435   4.903   0.647   2.023  1.0388 -0.5873 -1.0068
 6626TIP3   OH241436   2.766   5.407   0.565 -0.2486 -0.3624  0.0834
 6626TIP3    H141437   2.684   5.357   0.576  0.4770 -1.3906  1.0452
 6626TIP3    H241438   2.818   5.354   0.505 -0.0515 -0.0156 -0.0504
 6627TIP3   OH241439   6.831   2.111   2.281  0.3734  0.0558 -0.2248
 6627TIP3    H141440   6.907   2.062   2.249 -1.3991 -2.7668 -0.4826
 6627TIP3    H241441   6.834   2.099   2.376  0.8506  0.8975 -0.1322
 6628TIP3   OH241442   2.028   0.168   0.782 -0.0746  0.2979 -0.0320
 6628TIP3    H141443   1.991   0.180   0.869  0.6001 -3.3566  0.9607
 6628TIP3    H241444   1.953   0.179   0.723 -1.4794 -0.8650  1.3975
 6629TIP3   OH241445   1.916   6.599   8.453  0.1855 -0.1533  0.2378
 6629TIP3    H141446   1.990   6.554   8.412  1.4689  1.7606  0.3202
 6629TIP3    H241447   1.931   6.590   8.547 -0.7951 -1.4491  0.2917
 6630TIP3   OH241448   1.870   1.930   0.591 -0.5909  0.3227 -0.3666
 6630TIP3    H141449   1.927   1.856   0.570  0.9544  1.5332 -0.6452
 6630TIP3    H241450   1.895   1.998   0.527 -0.9671  1.5522  0.7568
 6631TIP3   OH241451   3.652   5.440   1.553 -0.2433 -0.2073  0.4301
 6631TIP3    H141452   3.745   5.440   1.574  0.8095  1.1398 -3.3547
 6631TIP3    H241453   3.647   5.400   1.466 -2.6161  2.9389 -1.0781
 6632TIP3   OH241454   6.739   1.483   8.543  0.3423  0.2753  0.1260
 6632TIP3    H141455   6.721   1.391   8.562  0.6274 -0.1312 -1.4428
 6632TIP3    H241456   6.832   1.494   8.565 -0.1062  0.6522  1.9310
 6633TIP3   OH241457   4.207   2.737   2.348  0.1194 -0.7227 -0.2042
 6633TIP3    H141458   4.173   2.804   2.407  0.9820 -0.7308  0.3191
 6633TIP3    H241459   4.167   2.655   2.379  0.0387 -0.6302 -0.0644
 6634TIP3   OH241460   2.708   2.489   8.646  0.6081  0.0816  0.6407
 6634TIP3    H141461   2.650   2.483   8.570  1.0989 -0.5993  0.3189
 6634TIP3    H241462   2.705   2.582   8.670 -1.8437 -0.1794  1.6037
 6635TIP3   OH241463   1.565   2.499   8.268  0.1290 -0.0130 -0.5256
 6635TIP3    H141464   1.559   2.428   8.204 -2.0594  1.5188 -2.1661
 6635TIP3    H241465   1.534   2.576   8.221  2.0832  2.0240  1.2792
 6636TIP3   OH241466   5.689   2.036   1.040  0.0078  0.0316 -0.2229
 6636TIP3    H141467   5.757   2.015   1.104  1.0533  0.2622 -1.2260
 6636TIP3    H241468   5.607   2.024   1.087  0.7598  0.8184  1.3476
 6637TIP3   OH241469   5.335   5.953   2.792  0.0354 -0.0174  0.2719
 6637TIP3    H141470   5.424   5.947   2.756 -0.8974  0.1357 -2.3153
 6637TIP3    H241471   5.279   5.927   2.719 -2.0353 -0.7832  2.0547
 6638TIP3   OH241472   1.575   6.378   2.524  0.2317  0.1507 -0.1207
 6638TIP3    H141473   1.605   6.396   2.613  1.9555 -1.9871 -0.1826
 6638TIP3    H241474   1.618   6.296   2.500 -2.1443 -0.6835 -2.0112
 6639TIP3   OH241475   0.498   5.413   7.783  0.0899 -0.1470  0.1829
 6639TIP3    H141476   0.511   5.318   7.781  1.2901 -0.1216  2.4837
 6639TIP3    H241477   0.406   5.424   7.808 -0.2694 -0.6758 -0.8696
 6640TIP3   OH241478   3.555   4.857   2.029 -0.5923 -0.2512 -0.4810
 6640TIP3    H141479   3.616   4.788   2.005 -0.9629 -0.2912 -1.3194
 6640TIP3    H241480   3.610   4.934   2.042 -0.4484 -0.0002 -2.3253
 6641TIP3   OH241481   3.295   4.574   1.790  0.4286  0.0668 -0.0697
 6641TIP3    H141482   3.305   4.580   1.885 -0.7392  1.2411  0.0086
 6641TIP3    H241483   3.211   4.530   1.777  0.7302 -0.3795 -0.5776
 6642TIP3   OH241484   6.703   0.202   0.558 -0.1766  0.1504  0.2331
 6642TIP3    H141485   6.742   0.168   0.638  1.5122  0.8352 -0.2570
 6642TIP3    H241486   6.739   0.290   0.549 -2.7209  1.2756  0.3146
 6643TIP3   OH241487   4.616   1.479   3.411  0.6124 -0.1922  0.4429
 6643TIP3    H141488   4.570   1.534   3.475  0.3696 -1.2575  1.2131
 6643TIP3    H241489   4.705   1.471   3.446  0.1770 -1.7151  1.3009
 6644TIP3   OH241490   3.790   4.431   7.987  0.4153  0.1101  0.3194
 6644TIP3    H141491   3.864   4.393   7.941 -0.0909 -1.6088  0.8695
 6644TIP3    H241492   3.783   4.520   7.951  0.2741 -0.9857 -2.6228
 6645TIP3   OH241493   3.763   6.473   7.172  0.3453 -0.0527  0.1052
 6645TIP3    H141494   3.683   6.450   7.218  0.5339 -1.6517 -0.3048
 6645TIP3    H241495   3.776   6.566   7.190  0.4186 -0.5692  3.3087
 6646TIP3   OH241496   5.191   5.485   1.966  0.4819  0.2851  0.7674
 6646TIP3    H141497   5.233   5.479   2.052  0.4732 -0.3737  0.7304
 6646TIP3    H241498   5.259   5.460   1.904  0.9870  2.3418  0.4176
 6647TIP3   OH241499   5.965   3.857   0.138 -0.1934  0.3739  0.8911
 6647TIP3    H141500   5.940   3.893   0.052 -0.2800 -0.2944  0.6297
 6647TIP3    H241501   6.039   3.799   0.119 -1.0169 -0.7758  1.0641
 6648TIP3   OH241502   5.113   0.156   0.799 -0.2369  0.9625  0.0000
 6648TIP3    H141503   5.110   0.175   0.705 -0.4868  0.3685 -0.1190
 6648TIP3    H241504   5.207   0.160   0.821  0.1320 -1.2962 -0.8202
 6649TIP3   OH241505   4.981   1.202   8.175 -0.2869 -0.3231 -0.3299
 6649TIP3    H141506   5.050   1.255   8.215 -1.6090  0.7316  0.6733
 6649TIP3    H241507   4.928   1.265   8.126 -1.6892 -0.7460  0.5846
 6650TIP3   OH241508   3.154   5.527   0.801 -0.5281 -0.4101  0.2990
 6650TIP3    H141509   3.102   5.474   0.860  0.4177 -1.4036  0.2677
 6650TIP3    H241510   3.155   5.614   0.842 -2.3881 -0.2765  0.1615
 6651TIP3   OH241511   1.980   2.161   0.423 -0.0483 -0.0268 -0.0108
 6651TIP3    H141512   2.049   2.188   0.483  0.6958  0.0375 -0.8761
 6651TIP3    H241513   2.026   2.128   0.346 -0.9354 -3.1370  0.6835
 6652TIP3   OH241514   2.991   2.597   0.784  0.1526 -0.0883  0.3932
 6652TIP3    H141515   3.018   2.539   0.855  1.4161 -0.5492 -0.4169
 6652TIP3    H241516   3.048   2.674   0.793  2.2938 -1.2904 -1.6475
 6653TIP3   OH241517   0.194   2.567   0.122  0.0406 -0.1115  0.2790
 6653TIP3    H141518   0.268   2.520   0.084 -0.4133  0.0075 -0.7787
 6653TIP3    H241519   0.205   2.556   0.217  0.6056 -1.3237  0.0927
 6654TIP3   OH241520   2.313   0.339   1.829  0.1261  0.2918 -0.1128
 6654TIP3    H141521   2.238   0.396   1.845  0.9254  1.2559  0.3047
 6654TIP3    H241522   2.389   0.398   1.830  1.1665 -0.9845  1.9135
 6655TIP3   OH241523   1.744   6.428   2.177 -0.0490  0.0312  0.6986
 6655TIP3    H141524   1.799   6.476   2.239  0.5814  0.1948  0.0260
 6655TIP3    H241525   1.776   6.456   2.091 -1.1023  0.0295  0.2982
 6656TIP3   OH241526   0.757   4.895   3.068 -0.6235  0.4622  0.1602
 6656TIP3    H141527   0.668   4.861   3.075 -0.7914  0.4403 -1.6107
 6656TIP3    H241528   0.746   4.989   3.052 -0.3042  0.5195  0.2670
 6657TIP3   OH241529   4.209   1.493   2.227 -0.1740 -0.1510  0.0288
 6657TIP3    H141530   4.242   1.582   2.238  0.3129 -0.3681  0.3893
 6657TIP3    H241531   4.248   1.444   2.300  0.4851 -0.9069 -0.7961
 6658TIP3   OH241532   6.338   2.483   0.856 -0.6695 -0.2827  0.0016
 6658TIP3    H141533   6.332   2.543   0.781 -1.7208 -1.6443 -1.0755
 6658TIP3    H241534   6.432   2.481   0.877  0.0181 -1.3776 -2.6431
 6659TIP3   OH241535   6.633   4.071   7.123  0.1957 -0.0878  0.4739
 6659TIP3    H141536   6.718   4.110   7.103  0.4135 -1.2380 -1.0665
 6659TIP3    H241537   6.569   4.136   7.094  0.5392  0.5184  1.0661
 6660TIP3   OH241538   3.303   3.495   0.537 -0.2659  0.6089 -0.1137
 6660TIP3    H141539   3.269   3.572   0.582  0.3447  0.7338  0.1429
 6660TIP3    H241540   3.394   3.517   0.517 -0.4059  0.3922 -1.0450
 6661TIP3   OH241541   2.352   4.066   1.894 -0.6282 -0.1571  0.0524
 6661TIP3    H141542   2.440   4.098   1.915 -0.8922  0.7046 -0.1021
 6661TIP3    H241543   2.328   4.011   1.968 -0.4598  0.6296  0.7043
 6662TIP3   OH241544   6.254   3.307   7.520 -0.0368  0.4060  0.2345
 6662TIP3    H141545   6.277   3.390   7.562  1.5522  0.6826 -1.0564
 6662TIP3    H241546   6.164   3.290   7.547  0.3365  1.4283  2.2725
 6663TIP3   OH241547   6.524   2.944   0.294  0.2649 -0.1853  0.2666
 6663TIP3    H141548   6.495   2.956   0.384  0.7722 -1.8939  0.6923
 6663TIP3    H241549   6.450   2.902   0.251  0.0770  0.4980 -0.0866
 6664TIP3   OH241550   0.235   1.348   3.219  0.4122  0.4215 -0.5518
 6664TIP3    H141551   0.221   1.254   3.230 -2.6098  1.0139  2.7136
 6664TIP3    H241552   0.207   1.367   3.130 -0.7484 -1.5640 -0.6673
 6665TIP3   OH241553   1.940   4.333   8.483 -0.3865  0.2019  0.0050
 6665TIP3    H141554   2.035   4.337   8.474 -0.4405 -0.6392 -1.1746
 6665TIP3    H241555   1.915   4.253   8.437 -1.5576 -0.2462  1.3550
 6666TIP3   OH241556   1.256   0.052   7.784  0.8923 -0.4074 -0.1557
 6666TIP3    H141557   1.254   0.105   7.704  1.9956 -0.1135 -0.0050
 6666TIP3    H241558   1.349   0.041   7.803  0.6503 -0.3805  1.1489
 6667TIP3   OH241559   6.740   1.641   7.225 -0.5336 -0.2476 -0.1677
 6667TIP3    H141560   6.791   1.686   7.293 -0.8134  1.5508 -1.0784
 6667TIP3    H241561   6.800   1.633   7.151 -1.0196  0.3023 -0.6363
 6668TIP3   OH241562   4.960   0.338   1.182  0.0349  0.1780  0.3446
 6668TIP3    H141563   4.935   0.355   1.092 -0.1660  1.0060  0.5519
 6668TIP3    H241564   5.038   0.391   1.197  0.2213 -0.1577  0.5757
 6669TIP3   OH241565   5.191   0.201   7.624 -0.0106 -0.0613 -0.4163
 6669TIP3    H141566   5.200   0.179   7.531  1.2671 -1.8665  0.0967
 6669TIP3    H241567   5.263   0.262   7.641 -0.2948  0.3374 -0.5939
 6670TIP3   OH241568   5.015   5.666   8.738 -0.2127  0.0311 -0.1056
 6670TIP3    H141569   5.013   5.577   8.775 -0.6995  0.3140  0.5667
 6670TIP3    H241570   5.051   5.720   8.808  3.3665 -0.1243 -1.6324
 6671TIP3   OH241571   4.680   5.530   0.379 -0.3682 -0.1776  0.1635
 6671TIP3    H141572   4.647   5.559   0.294 -0.1986 -0.9519 -0.1675
 6671TIP3    H241573   4.644   5.443   0.391 -0.4030 -0.0696  0.8991
 6672TIP3   OH241574   0.360   6.769   8.587  0.1598  0.0459  0.3827
 6672TIP3    H141575   0.378   6.839   8.524 -0.1788 -0.6159 -0.4734
 6672TIP3    H241576   0.365   6.689   8.535 -2.0851 -0.3961  0.7774
 6673TIP3   OH241577   6.817   6.091   7.711  0.2932  0.2178 -0.2652
 6673TIP3    H141578   6.881   6.132   7.653  1.2074  0.1543  0.6561
 6673TIP3    H241579   6.760   6.041   7.653 -0.1458  1.8357 -1.3087
 6674TIP3   OH241580   1.422   5.734   1.987 -0.2358  0.4090 -0.4948
 6674TIP3    H141581   1.359   5.789   1.940 -0.5786  1.3366  0.9797
 6674TIP3    H241582   1.414   5.648   1.946 -0.8997  1.0420 -1.7534
 6675TIP3   OH241583   6.429   3.514   3.414  0.0491 -0.0792  0.1172
 6675TIP3    H141584   6.499   3.577   3.433  0.0684  0.1755 -0.7489
 6675TIP3    H241585   6.399   3.538   3.327 -1.0279 -0.2840  0.4232
 6676TIP3   OH241586   3.353   5.202   1.386  0.1363  0.0505  0.0795
 6676TIP3    H141587   3.377   5.277   1.440 -1.0119  1.1480 -0.8450
 6676TIP3    H241588   3.272   5.169   1.425 -1.1509  1.3567 -1.3547
 6677TIP3   OH241589   5.619   1.512   1.363 -0.7310  0.7368  0.4774
 6677TIP3    H141590   5.589   1.431   1.322 -3.1290  1.4226  0.7024
 6677TIP3    H241591   5.636   1.488   1.454  0.6415  0.0727  0.0638
 6678TIP3   OH241592   5.740   5.585   0.346 -0.0494  0.0413 -0.4458
 6678TIP3    H141593   5.646   5.597   0.358 -0.0431  0.3272 -0.6682
 6678TIP3    H241594   5.764   5.519   0.410  0.1083  1.9206  1.5210
 6679TIP3   OH241595   0.867   0.318   1.912  0.3176  0.2710 -0.5775
 6679TIP3    H141596   0.798   0.290   1.853  0.0101  2.1225 -1.1623
 6679TIP3    H241597   0.862   0.257   1.986 -3.4273  1.5475  0.4836
 6680TIP3   OH241598   6.415   1.362   1.296  0.0321 -0.4590 -1.2156
 6680TIP3    H141599   6.486   1.305   1.325 -0.0198  0.4381  0.8352
 6680TIP3    H241600   6.349   1.355   1.365 -1.4140 -0.3809 -2.5152
 6681TIP3   OH241601   1.803   5.069   8.173 -0.2964 -0.3468  0.3595
 6681TIP3    H141602   1.878   5.096   8.227  0.5734 -1.4165 -0.2722
 6681TIP3    H241603   1.841   5.012   8.106 -1.9491 -2.5921  1.2298
 6682TIP3   OH241604   5.294   5.708   0.228  0.1723 -0.4321 -0.4363
 6682TIP3    H141605   5.322   5.619   0.204 -2.0633 -0.7344 -2.2248
 6682TIP3    H241606   5.270   5.701   0.321  3.7477 -0.6210  0.6363
 6683TIP3   OH241607   5.183   3.412   1.090 -0.6734 -0.4803 -0.4108
 6683TIP3    H141608   5.264   3.461   1.098 -1.0591  0.0962  0.0310
 6683TIP3    H241609   5.211   3.323   1.067  0.0428 -0.1144 -1.0214
 6684TIP3   OH241610   5.481   6.564   0.411 -0.2356  0.0655  0.7157
 6684TIP3    H141611   5.529   6.646   0.422  0.1247 -0.1335  0.6307
 6684TIP3    H241612   5.495   6.517   0.492 -0.4359  0.0858  0.7610
 6685TIP3   OH241613   3.185   4.549   7.605  0.2210 -0.1788  0.4943
 6685TIP3    H141614   3.152   4.566   7.693 -0.4622  0.0915  0.1855
 6685TIP3    H241615   3.233   4.628   7.582  0.0212 -0.0718  0.4460
 6686TIP3   OH241616   1.425   3.356   7.798  0.9827  0.0053  0.1259
 6686TIP3    H141617   1.392   3.272   7.765  1.3010  0.0989 -0.4462
 6686TIP3    H241618   1.421   3.348   7.893  0.7246 -0.5459  0.0714
 6687TIP3   OH241619   4.227   0.264   1.976  0.2968 -0.2257 -0.4067
 6687TIP3    H141620   4.175   0.312   1.912  0.0889 -0.5671 -0.4950
 6687TIP3    H241621   4.236   0.325   2.050 -2.1326 -0.9127  0.5691
 6688TIP3   OH241622   0.750   3.086   2.519 -0.0163  0.0872 -0.2739
 6688TIP3    H141623   0.835   3.044   2.534  0.3722  0.8282 -0.3785
 6688TIP3    H241624   0.741   3.150   2.590 -1.2795 -1.1666  0.7725
 6689TIP3   OH241625   5.511   1.546   0.730 -0.6509  0.4171 -0.3670
 6689TIP3    H141626   5.423   1.583   0.732  0.2016  2.6940 -1.3366
 6689TIP3    H241627   5.521   1.504   0.816 -2.1415  1.4309  0.3450
 6690TIP3   OH241628   1.634   6.634   0.350  0.2387 -0.3888 -0.0492
 6690TIP3    H141629   1.688   6.584   0.411 -0.8974  1.3988  2.6237
 6690TIP3    H241630   1.544   6.608   0.370 -0.1653 -2.1355 -3.3182
 6691TIP3   OH241631   3.136   1.166   0.349 -0.3104 -0.0935 -0.2669
 6691TIP3    H141632   3.061   1.216   0.317 -0.2562 -0.4689 -1.0194
 6691TIP3    H241633   3.202   1.232   0.370  0.0303  0.1562 -1.9340
 6692TIP3   OH241634   5.014   5.293   0.934 -1.0739  0.2008  0.2848
 6692TIP3    H141635   5.084   5.228   0.930  1.0203  2.3729 -2.2246
 6692TIP3    H241636   4.944   5.257   0.880 -0.3159 -0.3523 -0.3519
 6693TIP3   OH241637   5.172   4.941   0.883 -0.0112 -0.3122  0.0867
 6693TIP3    H141638   5.085   4.946   0.843 -0.1138  0.0892  0.3417
 6693TIP3    H241639   5.155   4.913   0.973 -0.0022  0.9512  0.5012
 6694TIP3   OH241640   0.622   0.344   2.175  0.1109  0.6611 -0.1758
 6694TIP3    H141641   0.541   0.366   2.221 -0.9426 -0.0287 -1.5903
 6694TIP3    H241642   0.661   0.274   2.227 -0.2298  0.9622  0.4939
 6695TIP3   OH241643   0.082   0.060   1.907 -0.2085  0.1934 -0.7472
 6695TIP3    H141644   0.175   0.044   1.924 -0.7122  0.0125  2.5182
 6695TIP3    H241645   0.078   0.151   1.880  0.8736  0.4347 -0.1693
 6696TIP3   OH241646   6.751   6.318   0.055  0.0197 -0.7417  0.1525
 6696TIP3    H141647   6.707   6.336  -0.028  2.8740  0.0747 -1.3193
 6696TIP3    H241648   6.792   6.232   0.042  3.8652  1.0736 -1.0231
 6697TIP3   OH241649   3.382   3.083   0.492  0.2257 -0.2940  0.4010
 6697TIP3    H141650   3.379   3.104   0.398  0.4565 -1.3430  0.1482
 6697TIP3    H241651   3.368   3.167   0.535 -0.2683  0.1491 -0.5765
 6698TIP3   OH241652   0.181   2.128   1.333  0.5140  0.0275  0.4044
 6698TIP3    H141653   0.147   2.196   1.276 -0.0197  0.6136  1.3858
 6698TIP3    H241654   0.104   2.076   1.357  1.0117 -1.3780 -0.8815
 6699TIP3   OH241655   4.193   2.430   8.027 -0.3232 -0.5739  0.8247
 6699TIP3    H141656   4.205   2.355   8.085 -0.4837 -0.4139  1.0661
 6699TIP3    H241657   4.133   2.399   7.959  1.0421 -1.2442 -0.1422
 6700TIP3   OH241658   5.134   6.054   0.153  0.0411  0.2669  0.2283
 6700TIP3    H141659   5.184   6.036   0.074 -0.0192 -1.2639  0.5106
 6700TIP3    H241660   5.117   6.148   0.150  0.1056  0.2504 -1.5218
 6701TIP3   OH241661   6.750   3.645   1.779  0.1831 -0.2360  0.1951
 6701TIP3    H141662   6.790   3.674   1.861  0.5100  2.0116 -0.6804
 6701TIP3    H241663   6.824   3.633   1.719 -0.2043  0.8862 -0.5383
 6702TIP3   OH241664   6.515   1.254   7.798 -0.1617  0.0904  0.3178
 6702TIP3    H141665   6.518   1.259   7.702  0.6716 -0.5315  0.3104
 6702TIP3    H241666   6.483   1.166   7.816 -0.7389  0.3528  0.6210
 6703TIP3   OH241667   6.131   4.888   7.490 -0.1096 -0.3576  0.9203
 6703TIP3    H141668   6.060   4.943   7.525 -1.2583 -0.2229 -1.3992
 6703TIP3    H241669   6.178   4.946   7.430  0.0424 -1.3080  0.1028
 6704TIP3   OH241670   1.911   3.219   3.093 -0.2678  0.0193  0.0034
 6704TIP3    H141671   1.882   3.136   3.131 -0.2855  1.0047  2.3017
 6704TIP3    H241672   1.877   3.217   3.004 -0.6018 -2.2519  0.1082
 6705TIP3   OH241673   5.515   0.417   6.823 -0.0382 -0.0806  0.1460
 6705TIP3    H141674   5.589   0.454   6.872  0.1785 -1.1850  0.6935
 6705TIP3    H241675   5.438   0.451   6.868  0.1517  0.1071  0.3326
 6706TIP3   OH241676   0.438   0.600   0.786 -0.1992 -0.4548  0.0775
 6706TIP3    H141677   0.484   0.599   0.702  0.6818 -0.8905  0.5512
 6706TIP3    H241678   0.347   0.617   0.763  0.1484  0.1597 -0.9074
 6707TIP3   OH241679   2.124   3.057   7.553 -0.2458  0.0551 -0.0161
 6707TIP3    H141680   2.166   2.972   7.544  1.3500  0.5850  1.7853
 6707TIP3    H241681   2.096   3.080   7.464  0.4776 -1.7466 -0.7438
 6708TIP3   OH241682   6.088   0.816   3.201 -0.0361 -0.1743  0.0189
 6708TIP3    H141683   6.101   0.725   3.172 -4.0003 -0.9520  0.0869
 6708TIP3    H241684   6.059   0.807   3.291 -0.2304  1.2107  0.1030
 6709TIP3   OH241685   0.962   2.232   1.906 -0.1771 -0.1254 -0.1741
 6709TIP3    H141686   0.986   2.304   1.964  0.9557  0.6540 -1.5382
 6709TIP3    H241687   0.998   2.154   1.948 -1.0547  0.1219  1.1106
 6710TIP3   OH241688   1.230   2.903   0.019  0.2054  0.4554  0.1123
 6710TIP3    H141689   1.265   2.915   0.108 -1.1899 -0.5850  0.8395
 6710TIP3    H241690   1.149   2.953   0.018 -0.2038 -0.2004 -0.2976
 6711TIP3   OH241691   5.036   5.761   2.189  0.6326 -0.1331 -0.4914
 6711TIP3    H141692   5.097   5.826   2.226  0.1452  0.6123 -0.9829
 6711TIP3    H241693   4.982   5.810   2.128  0.8427 -1.1785 -1.5670
 6712TIP3   OH241694   2.901   4.833   8.716  0.3513  0.7998  0.0357
 6712TIP3    H141695   2.959   4.789   8.653  2.6231  0.6020  2.1062
 6712TIP3    H241696   2.949   4.913   8.739 -0.6752  1.1264  1.1016
 6713TIP3   OH241697   5.017   1.300   0.787  0.3634 -0.3941 -0.7535
 6713TIP3    H141698   4.960   1.374   0.766  0.7095 -0.1932 -1.0002
 6713TIP3    H241699   4.958   1.226   0.796  0.0571 -0.1757 -0.9541
 6714TIP3   OH241700   1.145   4.212   1.617 -0.0045 -0.1001 -0.2527
 6714TIP3    H141701   1.234   4.185   1.597 -0.3690 -0.3604 -1.6483
 6714TIP3    H241702   1.155   4.292   1.668  1.0520  1.1950 -2.3244
 6715TIP3   OH241703   2.484   3.668   0.424 -0.1142 -0.1551 -0.4455
 6715TIP3    H141704   2.460   3.754   0.390 -1.4509 -0.1283  0.5196
 6715TIP3    H241705   2.532   3.686   0.504  0.6490 -0.2918 -0.8639
 6716TIP3   OH241706   4.351   0.321   8.694  0.1332  0.2540  0.6119
 6716TIP3    H141707   4.315   0.234   8.676 -0.0591  0.4005  0.2836
 6716TIP3    H241708   4.416   0.306   8.763  1.4404 -0.4339 -0.7158
 6717TIP3   OH241709   1.595   1.961   3.135 -0.5748 -0.4147 -0.8446
 6717TIP3    H141710   1.540   1.942   3.059 -0.0357 -0.5626 -1.2055
 6717TIP3    H241711   1.657   1.887   3.139  1.0820  0.8369 -1.8205
 6718TIP3   OH241712   2.869   3.004   0.520 -0.4003 -0.1566 -0.7979
 6718TIP3    H141713   2.826   2.931   0.475  1.8924 -2.4054  0.3753
 6718TIP3    H241714   2.860   2.984   0.613  1.6463  0.1580 -0.4777
 6719TIP3   OH241715   1.195   2.047   1.394  0.3227  0.5279 -0.4869
 6719TIP3    H141716   1.136   2.121   1.410  1.6248  1.6533 -0.6364
 6719TIP3    H241717   1.282   2.087   1.394  1.0248 -0.9559 -1.0223
 6720TIP3   OH241718   3.590   1.458   0.017 -0.2546 -0.3513 -0.8415
 6720TIP3    H141719   3.681   1.429   0.017 -0.4537 -1.0196 -0.1109
 6720TIP3    H241720   3.568   1.471  -0.075  0.4778 -0.5119 -1.0412
 6721TIP3   OH241721   4.093   2.492   2.354  0.2103 -0.0748  0.5380
 6721TIP3    H141722   4.014   2.499   2.300  1.5492  0.6177 -1.4529
 6721TIP3    H241723   4.124   2.402   2.339  1.4583  0.5945 -1.2513
 6722TIP3   OH241724   2.757   4.146   1.461 -0.5004 -0.0123  0.0375
 6722TIP3    H141725   2.673   4.127   1.502 -0.4325 -0.5466 -0.0753
 6722TIP3    H241726   2.822   4.134   1.530 -0.4545 -0.2030 -0.0400
 6723TIP3   OH241727   0.176   2.967   0.514 -0.1049 -0.1082  0.0834
 6723TIP3    H141728   0.236   2.975   0.440 -0.1701 -0.7324 -0.0370
 6723TIP3    H241729   0.100   2.920   0.480  0.0456 -0.7765  0.6403
 6724TIP3   OH241730   5.179   3.852   1.740 -0.0568  0.0767  0.1098
 6724TIP3    H141731   5.157   3.888   1.826  0.1155 -0.4467  0.3826
 6724TIP3    H241732   5.099   3.808   1.711 -0.1617  0.3846 -0.0663
 6725TIP3   OH241733   1.248   2.913   1.614 -0.4900  0.0987  0.1372
 6725TIP3    H141734   1.194   2.982   1.650  1.0964  0.4628  1.9766
 6725TIP3    H241735   1.333   2.954   1.598  0.4946 -1.3479  1.2873
 6726TIP3   OH241736   4.180   1.047   8.734  0.1239  0.0009 -0.0694
 6726TIP3    H141737   4.085   1.035   8.737  0.1553 -0.2900  2.2906
 6726TIP3    H241738   4.210   0.985   8.668 -1.3114 -0.1029 -0.6535
 6727TIP3   OH241739   1.614   6.553   8.202 -0.1782  0.8302  0.5988
 6727TIP3    H141740   1.690   6.496   8.194 -0.7515  0.0386  0.6237
 6727TIP3    H241741   1.634   6.628   8.146 -0.2390 -0.3251 -1.0555
 6728TIP3   OH241742   0.459   1.907   2.089  0.3474  0.3471  0.0339
 6728TIP3    H141743   0.432   1.827   2.043  0.0639 -0.0639  0.9025
 6728TIP3    H241744   0.470   1.971   2.019 -0.8352 -0.0507 -0.5542
 6729TIP3   OH241745   3.407   3.466   7.198 -0.2448  0.2946 -0.0359
 6729TIP3    H141746   3.479   3.529   7.194  0.3185 -0.3999 -2.1263
 6729TIP3    H241747   3.338   3.504   7.143 -1.0075  0.3708  0.9493
 6730TIP3   OH241748   2.720   3.134   2.288  0.0619 -0.6517 -0.4670
 6730TIP3    H141749   2.804   3.088   2.277  0.5679  0.0379  0.3952
 6730TIP3    H241750   2.669   3.108   2.211  0.6421 -1.9764 -0.4362
 6731TIP3   OH241751   4.785   1.607   1.312  0.1491 -0.3043  0.3170
 6731TIP3    H141752   4.825   1.530   1.270 -0.8015 -0.5504 -0.1787
 6731TIP3    H241753   4.762   1.577   1.400  1.1178 -0.1304  0.6426
 6732TIP3   OH241754   5.211   5.951   2.256 -0.1059  0.7206 -0.1896
 6732TIP3    H141755   5.214   6.043   2.231 -0.9414  1.4445  2.1345
 6732TIP3    H241756   5.293   5.937   2.305  0.2466  0.0709 -0.9393
 6733TIP3   OH241757   0.419   5.193   8.080  0.2073  0.1471 -0.2782
 6733TIP3    H141758   0.493   5.254   8.072  1.5336 -1.4408 -0.6445
 6733TIP3    H241759   0.390   5.179   7.990  0.0874  0.0423 -0.2222
 6734TIP3   OH241760   6.627   5.651   2.519 -0.9297  0.2318 -0.3855
 6734TIP3    H141761   6.668   5.580   2.568 -1.9600  0.5285  0.9499
 6734TIP3    H241762   6.592   5.608   2.441 -2.4263 -0.9519  0.8796
 6735TIP3   OH241763   6.367   5.668   2.948  0.1218 -0.6226 -0.0555
 6735TIP3    H141764   6.375   5.709   2.861  0.4446 -1.1409 -0.2729
 6735TIP3    H241765   6.393   5.577   2.934 -0.1019 -0.7803  0.5312
 6736TIP3   OH241766   2.177   6.703   8.218  0.1963 -0.0460  0.3632
 6736TIP3    H141767   2.090   6.744   8.216 -0.7000 -1.8073  0.6871
 6736TIP3    H241768   2.163   6.621   8.266  1.9046 -0.6711 -0.1464
 6737TIP3   OH241769   1.736   2.510   8.481 -0.2273  0.0421  0.3830
 6737TIP3    H141770   1.672   2.482   8.415  2.2532 -2.0926 -1.3290
 6737TIP3    H241771   1.773   2.591   8.446  2.2606 -1.9223 -1.9407
 6738TIP3   OH241772   0.552   2.467   2.575 -0.2590  0.4122 -0.7502
 6738TIP3    H141773   0.604   2.499   2.649  0.2831 -0.2324 -0.8491
 6738TIP3    H241774   0.558   2.372   2.580 -0.1367  0.3560 -1.6745
 6739TIP3   OH241775   6.436   1.947   0.941  0.0357  0.2025  0.3329
 6739TIP3    H141776   6.415   2.014   0.877  0.7016  0.1964  0.1024
 6739TIP3    H241777   6.526   1.965   0.967  1.5251 -2.5997 -2.2844
 6740TIP3   OH241778   5.264   4.351   8.614  0.1825 -0.3313 -0.4288
 6740TIP3    H141779   5.252   4.297   8.535 -1.1646 -0.5095 -0.1364
 6740TIP3    H241780   5.231   4.296   8.685 -0.1068  0.4279  0.0371
 6741TIP3   OH241781   2.669   0.273   1.625  0.2195  0.3525 -0.0715
 6741TIP3    H141782   2.628   0.211   1.685  0.3146  1.1247  0.8092
 6741TIP3    H241783   2.757   0.238   1.611 -0.1682 -0.4105 -0.6322
 6742TIP3   OH241784   4.059   5.126   1.204 -0.2178 -0.0587  0.0749
 6742TIP3    H141785   4.005   5.092   1.132 -0.8593  1.9769 -0.4779
 6742TIP3    H241786   4.096   5.207   1.169  2.9472 -1.1635  0.5696
 6743TIP3   OH241787   3.173   4.750   2.141  0.3203 -0.4214  0.0415
 6743TIP3    H141788   3.236   4.805   2.187  0.1323  0.0612 -0.2764
 6743TIP3    H241789   3.227   4.691   2.088  0.5126 -0.2817  0.0804
 6744TIP3   OH241790   5.714   1.660   8.690 -0.4179 -0.0699 -0.7652
 6744TIP3    H141791   5.726   1.737   8.745  0.6909 -0.9607  0.3048
 6744TIP3    H241792   5.803   1.634   8.666 -0.5595 -2.3023  0.7958
 6745TIP3   OH241793   5.847   5.979   7.303 -0.5305  0.4394  0.2870
 6745TIP3    H141794   5.870   5.937   7.385 -1.0689  0.6477  0.5451
 6745TIP3    H241795   5.923   6.034   7.283  0.3253 -0.8757 -0.2250
 6746TIP3   OH241796   3.324   5.368   0.277 -0.1183  0.1981 -0.1898
 6746TIP3    H141797   3.243   5.394   0.321 -1.0639 -0.5638 -1.4157
 6746TIP3    H241798   3.342   5.439   0.216 -0.3157  0.0159 -0.4676
 6747TIP3   OH241799   5.012   5.694   1.889  0.4922  0.0598  0.2200
 6747TIP3    H141800   5.071   5.632   1.931  0.2923  0.0857  0.5508
 6747TIP3    H241801   5.000   5.661   1.801  2.0784  0.8026 -0.3104
 6748TIP3   OH241802   2.257   5.253   6.982  0.0436  0.1743  0.1722
 6748TIP3    H141803   2.347   5.235   6.955 -0.2706  0.4472 -1.0947
 6748TIP3    H241804   2.221   5.166   7.002 -0.2264 -0.2728 -1.9944
 6749TIP3   OH241805   0.427   1.268   2.612 -0.1109  0.4406 -0.3157
 6749TIP3    H141806   0.344   1.292   2.572 -0.0727 -0.4294 -0.9433
 6749TIP3    H241807   0.418   1.294   2.704 -1.0177  0.4835 -0.4085
 6750TIP3   OH241808   1.434   2.835   0.638 -0.0557 -0.3044  0.2241
 6750TIP3    H141809   1.367   2.850   0.705  1.0712  0.2021  1.2879
 6750TIP3    H241810   1.480   2.756   0.667 -0.6641 -1.0937 -0.9104
 6751TIP3   OH241811   6.101   2.881   7.997  0.6359 -0.0908  0.0065
 6751TIP3    H141812   6.026   2.932   7.968  1.1739  1.0030  0.5005
 6751TIP3    H241813   6.086   2.793   7.961 -0.2028  0.4527 -0.9981
 6752TIP3   OH241814   3.016   1.388   8.303 -0.2284  0.5343 -0.0100
 6752TIP3    H141815   2.921   1.390   8.293 -0.0818  0.3105 -1.7319
 6752TIP3    H241816   3.049   1.447   8.235  0.9166 -0.5952 -0.4804
 6753TIP3   OH241817   2.875   5.558   2.146 -0.6541  0.2435 -0.7184
 6753TIP3    H141818   2.946   5.578   2.207  0.0763 -1.9621 -0.7487
 6753TIP3    H241819   2.845   5.643   2.114  2.2881  1.2594 -1.0615
 6754TIP3   OH241820   5.940   3.371   2.637  0.5897  0.1320 -0.3136
 6754TIP3    H141821   6.004   3.303   2.615 -1.5092 -1.9307 -0.3729
 6754TIP3    H241822   5.857   3.340   2.601 -0.4080  3.0201 -0.8026
 6755TIP3   OH241823   0.916   6.460   8.639  0.1088  0.0435 -0.0373
 6755TIP3    H141824   0.963   6.504   8.710  2.3527 -2.0140 -0.1439
 6755TIP3    H241825   0.826   6.494   8.645  0.5536  0.9342  2.8915
 6756TIP3   OH241826   5.630   3.541   2.487 -0.5380 -0.9542 -0.2369
 6756TIP3    H141827   5.622   3.542   2.392 -2.0482 -0.5745 -0.1272
 6756TIP3    H241828   5.685   3.617   2.507 -0.5361 -0.8057 -0.7859
 6757TIP3   OH241829   4.808   5.535   2.027 -0.3657  0.0820 -0.7717
 6757TIP3    H141830   4.727   5.580   2.004 -0.3696 -0.0867 -1.0942
 6757TIP3    H241831   4.875   5.604   2.027 -0.4646  0.1782 -0.7444
 6758TIP3   OH241832   1.072   0.618   1.379  0.2635 -0.2137 -0.4205
 6758TIP3    H141833   1.015   0.674   1.432  1.7452  1.0604 -0.1050
 6758TIP3    H241834   1.026   0.612   1.295 -1.1171 -0.5730  0.3169
 6759TIP3   OH241835   3.970   2.778   1.523  0.0208  0.7047  0.6485
 6759TIP3    H141836   4.048   2.726   1.507 -0.5717  0.4191 -1.7078
 6759TIP3    H241837   3.965   2.838   1.449 -1.5641  1.2294  1.1287
 6760TIP3   OH241838   6.343   5.345   1.761  0.2273 -0.0377 -0.4597
 6760TIP3    H141839   6.381   5.414   1.815 -0.1861 -0.3124  0.1811
 6760TIP3    H241840   6.321   5.389   1.678  0.7177  0.4135 -0.3524
 6761TIP3   OH241841   2.237   4.041   8.197 -0.0595  0.7038 -0.4019
 6761TIP3    H141842   2.219   4.135   8.188  0.7733  0.8811 -0.2415
 6761TIP3    H241843   2.156   4.005   8.233 -0.1234  1.4787  0.2518
 6762TIP3   OH241844   1.601   5.210   1.671 -0.8638 -0.4905  0.7552
 6762TIP3    H141845   1.672   5.154   1.639 -0.0095  0.8290  0.3006
 6762TIP3    H241846   1.632   5.299   1.657 -1.9950  0.1167  1.9348
 6763TIP3   OH241847   0.336   5.883   0.046  0.3082  0.0415  0.5512
 6763TIP3    H141848   0.317   5.824  -0.027 -0.3199  0.3352  0.4670
 6763TIP3    H241849   0.267   5.950   0.040 -0.6850 -0.7565  2.3195
 6764TIP3   OH241850   4.106   6.473   7.642 -0.1918  0.1092  0.3647
 6764TIP3    H141851   4.045   6.470   7.568  1.3475  2.5062 -1.1610
 6764TIP3    H241852   4.098   6.563   7.676  0.7564 -0.2698  1.6653
 6765TIP3   OH241853   2.386   1.617   1.167 -0.1550 -0.6357  0.0160
 6765TIP3    H141854   2.382   1.627   1.072  0.2574 -0.5882  0.0038
 6765TIP3    H241855   2.479   1.611   1.187 -0.2275 -0.3567  0.4491
 6766TIP3   OH241856   2.030   0.618   0.194  0.2351  0.1382  0.0977
 6766TIP3    H141857   2.005   0.526   0.199 -1.8637  0.4593 -2.3347
 6766TIP3    H241858   2.124   0.617   0.175 -0.2007 -1.6802 -2.4453
 6767TIP3   OH241859   4.500   6.643   8.204  0.1033  0.2787  0.1620
 6767TIP3    H141860   4.524   6.733   8.179 -1.1525  0.4882 -0.3980
 6767TIP3    H241861   4.404   6.643   8.203 -0.0322 -1.8325 -2.9409
 6768TIP3   OH241862   4.993   4.747   0.608 -0.2481 -0.8566  0.1669
 6768TIP3    H141863   4.994   4.762   0.513  2.3154  1.0067  0.3780
 6768TIP3    H241864   5.002   4.834   0.646 -0.5370 -1.6393  2.1350
 6769TIP3   OH241865   1.788   2.961   3.175 -0.5822  0.1010 -0.2157
 6769TIP3    H141866   1.756   2.901   3.242 -2.0992  0.8321 -0.2508
 6769TIP3    H241867   1.752   2.927   3.093 -2.4912  1.6703 -0.1031
 6770TIP3   OH241868   4.719   4.930   0.031 -0.7153 -0.4372  0.4912
 6770TIP3    H141869   4.655   4.863   0.055  0.1510 -2.0258 -1.3386
 6770TIP3    H241870   4.686   4.966  -0.051  0.4179 -0.8693 -0.1695
 6771TIP3   OH241871   0.939   1.093   1.801  0.0823  0.2907  0.0643
 6771TIP3    H141872   0.892   1.023   1.846  0.4242  0.1858  0.2601
 6771TIP3    H241873   0.996   1.047   1.739 -0.3617  0.4322 -0.4551
 6772TIP3   OH241874   2.821   2.767   8.406 -0.0028  0.1810 -0.1213
 6772TIP3    H141875   2.870   2.685   8.415 -1.0119 -0.3977  0.2956
 6772TIP3    H241876   2.856   2.807   8.327 -1.0369 -1.7848 -1.6992
 6773TIP3   OH241877   6.669   3.107   7.605  0.3719 -0.1334  0.0269
 6773TIP3    H141878   6.579   3.089   7.634  0.2674  1.3229  0.6925
 6773TIP3    H241879   6.723   3.047   7.656 -0.0507  0.4966  1.2534
 6774TIP3   OH241880   3.460   0.146   2.215 -0.3788  0.5914  0.5289
 6774TIP3    H141881   3.372   0.107   2.206 -0.6615  1.5700 -1.4169
 6774TIP3    H241882   3.520   0.074   2.195 -0.7233  0.0505  1.3551
 6775TIP3   OH241883   1.891   4.514   8.701 -0.0627 -0.0380 -0.3181
 6775TIP3    H141884   1.977   4.549   8.723  0.1227 -0.5335 -0.2468
 6775TIP3    H241885   1.904   4.468   8.618 -0.4038  0.4421 -0.6442
 6776TIP3   OH241886   1.875   4.038   0.122 -0.0332 -0.0444 -0.4831
 6776TIP3    H141887   1.804   4.096   0.150  1.7131  0.9298  2.4553
 6776TIP3    H241888   1.904   4.074   0.038 -0.0992  2.3732  0.4455
 6777TIP3   OH241889   3.753   2.889   1.884  0.3904 -0.0374  0.1084
 6777TIP3    H141890   3.715   2.907   1.970  2.1056  1.5065  0.6117
 6777TIP3    H241891   3.765   2.794   1.882 -1.7417 -0.3763  0.6072
 6778TIP3   OH241892   0.719   1.224   2.954 -0.4406  0.2887  0.1100
 6778TIP3    H141893   0.755   1.141   2.983 -0.9240  0.6676  1.9420
 6778TIP3    H241894   0.626   1.206   2.938 -0.9283  0.7458  2.0658
 6779TIP3   OH241895   2.043   1.975   1.578  0.1878 -0.3454  0.1605
 6779TIP3    H141896   2.089   2.040   1.632 -2.3902 -1.8336  4.6701
 6779TIP3    H241897   2.102   1.900   1.575  0.5316 -0.1002  0.6328
 6780TIP3   OH241898   0.435   2.314   0.383 -0.3018 -0.5700 -0.4026
 6780TIP3    H141899   0.361   2.373   0.398 -0.6255 -0.3001 -2.7326
 6780TIP3    H241900   0.396   2.231   0.357  0.1831 -1.6370  1.9784
 6781TIP3   OH241901   2.517   3.232   7.440 -0.1191  0.5642  0.3721
 6781TIP3    H141902   2.479   3.319   7.425 -1.7256 -0.2508 -0.6777
 6781TIP3    H241903   2.446   3.183   7.482  0.6498 -0.3194  0.6536
 6782TIP3   OH241904   4.858   6.456   0.319  0.3672  0.1566  0.9713
 6782TIP3    H141905   4.867   6.361   0.324 -0.7383  0.0309  0.7846
 6782TIP3    H241906   4.764   6.472   0.328  0.6979  1.3448  2.7089
 6783TIP3   OH241907   1.124   2.653   8.281  0.5211 -0.5185 -0.1717
 6783TIP3    H141908   1.036   2.690   8.276  1.2026  1.6290  1.7476
 6783TIP3    H241909   1.161   2.668   8.194  0.0985  1.6905 -0.0219
 6784TIP3   OH241910   1.862   6.058   0.933 -0.2870 -0.3466  0.0670
 6784TIP3    H141911   1.845   5.967   0.955 -0.6765 -0.2191  0.3241
 6784TIP3    H241912   1.917   6.055   0.855 -1.7779 -0.7935 -1.0045
 6785TIP3   OH241913   6.755   5.570   2.197  0.0443  1.0870  0.0272
 6785TIP3    H141914   6.702   5.618   2.133 -0.8333 -0.2270 -0.2865
 6785TIP3    H241915   6.831   5.541   2.147  0.5722  2.1135  0.2159
 6786TIP3   OH241916   3.782   0.354   7.728 -0.7394 -0.3818  0.6289
 6786TIP3    H141917   3.723   0.369   7.655 -0.9317 -0.3149  0.7985
 6786TIP3    H241918   3.816   0.265   7.714  0.8544  0.3801 -0.7024
 6787TIP3   OH241919   1.872   1.057   8.716  0.7320 -0.0296 -0.7014
 6787TIP3    H141920   1.900   1.034   8.627 -1.1633  2.0463 -1.9057
 6787TIP3    H241921   1.935   1.123   8.744 -0.1877  1.3034 -1.6316
 6788TIP3   OH241922   0.720   5.998   2.268 -0.4273  0.0120 -0.2272
 6788TIP3    H141923   0.662   5.924   2.248  0.3913 -0.9239  0.7133
 6788TIP3    H241924   0.759   6.021   2.184 -0.5256 -0.7776 -0.4978
 6789TIP3   OH241925   1.540   5.303   7.577 -0.2283  0.1174  0.0843
 6789TIP3    H141926   1.587   5.330   7.656 -0.1225 -2.0444  0.8185
 6789TIP3    H241927   1.609   5.277   7.515 -0.2411  2.7949 -1.2332
 6790TIP3   OH241928   2.603   3.362   2.030  0.8712  0.0038  0.4219
 6790TIP3    H141929   2.688   3.342   2.070  0.7948  1.1030  1.1650
 6790TIP3    H241930   2.589   3.455   2.047 -0.4249 -0.1278  0.1934
 6791TIP3   OH241931   1.323   0.780   8.330  0.5530  0.4264 -0.6227
 6791TIP3    H141932   1.341   0.780   8.236  1.4768  1.9612 -0.4918
 6791TIP3    H241933   1.393   0.835   8.367  0.9073 -1.1076  1.1156
 6792TIP3   OH241934   5.697   4.599   0.598 -0.1269 -0.1203 -0.0319
 6792TIP3    H141935   5.783   4.631   0.624  0.1712  2.1859 -3.1785
 6792TIP3    H241936   5.714   4.516   0.554  0.4910  0.2024 -0.4162
 6793TIP3   OH241937   3.848   4.373   0.783  0.3155  0.0541 -0.2411
 6793TIP3    H141938   3.815   4.334   0.702 -0.9534  0.2845  0.1444
 6793TIP3    H241939   3.932   4.413   0.758  0.4459 -0.7691 -1.1955
 6794TIP3   OH241940   0.574   4.291   2.878 -0.1977 -0.5225 -0.1202
 6794TIP3    H141941   0.554   4.198   2.893  1.9648 -1.2092 -0.9739
 6794TIP3    H241942   0.657   4.304   2.923 -0.6323  1.1094  0.2431
 6795TIP3   OH241943   2.214   5.462   1.911 -0.2419 -0.5672  0.5359
 6795TIP3    H141944   2.279   5.392   1.906  0.0631 -0.4080  1.9742
 6795TIP3    H241945   2.176   5.454   1.998 -1.1738  0.2188  0.2234
 6796TIP3   OH241946   5.450   0.518   8.542 -0.1810  0.4147 -0.4437
 6796TIP3    H141947   5.409   0.433   8.524  0.2645 -0.2258  1.3167
 6796TIP3    H241948   5.379   0.581   8.536 -0.8348 -0.2973 -0.3208
 6797TIP3   OH241949   4.666   3.786   8.344 -0.3471 -0.1342  0.2826
 6797TIP3    H141950   4.643   3.817   8.257 -0.9079  1.7450  1.0384
 6797TIP3    H241951   4.755   3.752   8.336 -1.7926 -4.1053 -1.9154
 6798TIP3   OH241952   6.472   5.124   8.524 -0.4004  0.5555  0.3854
 6798TIP3    H141953   6.481   5.129   8.429  2.9730  1.5637  0.6082
 6798TIP3    H241954   6.548   5.072   8.552 -0.7669  1.0984  2.6036
 6799TIP3   OH241955   4.643   4.868   0.545  0.5360  0.1635  0.2796
 6799TIP3    H141956   4.642   4.900   0.635  0.2961 -0.5663  0.5426
 6799TIP3    H241957   4.615   4.777   0.551 -0.5870  0.4228 -0.6662
 6800TIP3   OH241958   5.042   2.249   1.281  0.7027  0.6037 -0.4475
 6800TIP3    H141959   5.015   2.166   1.242  3.2376 -0.2969 -0.4578
 6800TIP3    H241960   4.960   2.292   1.306 -0.7109 -1.4521 -1.3110
 6801TIP3   OH241961   0.530   6.187   8.480 -0.5160  0.0848  0.4562
 6801TIP3    H141962   0.571   6.202   8.565  0.9317 -0.3778 -0.1208
 6801TIP3    H241963   0.489   6.270   8.458  1.0214  0.9224  0.6111
 6802TIP3   OH241964   2.571   4.116   1.246  0.3939  0.4542 -0.1130
 6802TIP3    H141965   2.516   4.038   1.256  0.0043  0.7939  0.4374
 6802TIP3    H241966   2.646   4.099   1.303  1.3601 -0.4264 -1.5754
 6803TIP3   OH241967   5.775   5.048   2.516  0.1658  0.3738  0.3234
 6803TIP3    H141968   5.768   4.992   2.593 -1.1522  0.8668  0.5906
 6803TIP3    H241969   5.718   5.007   2.451  2.4652 -0.9119 -0.9907
 6804TIP3   OH241970   0.996   3.884   1.356  0.0904  0.4409  0.1508
 6804TIP3    H141971   1.069   3.848   1.306 -0.5667  0.0676 -0.5412
 6804TIP3    H241972   0.988   3.826   1.432  2.8131  2.4909  2.2378
 6805TIP3   OH241973   5.034   4.213   0.216 -0.0406 -0.2015 -0.3983
 6805TIP3    H141974   5.031   4.308   0.221  2.2679 -0.1293  0.9255
 6805TIP3    H241975   4.991   4.184   0.297  3.8135 -0.0315  1.9402
 6806TIP3   OH241976   3.384   5.454   1.519  0.0655 -0.0131  0.1504
 6806TIP3    H141977   3.468   5.455   1.565 -0.3064 -0.0273  0.8450
 6806TIP3    H241978   3.393   5.521   1.451  0.1260  1.0622  1.1828
 6807TIP3   OH241979   6.831   1.595   8.048  0.1329 -0.1130  0.6565
 6807TIP3    H141980   6.742   1.606   8.015 -0.0880 -1.3177  0.7756
 6807TIP3    H241981   6.842   1.665   8.113 -0.5544  0.3307  0.3058
 6808TIP3   OH241982   0.591   0.310   7.433  0.4073 -0.2477  0.3796
 6808TIP3    H141983   0.589   0.369   7.509  2.6477 -0.3647  0.5950
 6808TIP3    H241984   0.551   0.361   7.362 -1.9368 -0.2166  1.6183
 6809TIP3   OH241985   0.209   0.712   7.761  0.6953  1.2585 -0.0732
 6809TIP3    H141986   0.172   0.798   7.782 -1.0187 -0.0314  2.7064
 6809TIP3    H241987   0.296   0.713   7.800  0.4620  1.5362  0.4441
 6810TIP3   OH241988   1.866   5.771   0.025  0.6670  0.8410 -0.0838
 6810TIP3    H141989   1.888   5.679   0.013 -0.0745  0.8244 -1.6284
 6810TIP3    H241990   1.950   5.815   0.032  1.0370  0.1201  0.0976
 6811TIP3   OH241991   5.163   6.166   8.178 -0.0333 -0.5984  0.8929
 6811TIP3    H141992   5.150   6.216   8.259 -0.9471  0.3417  0.2055
 6811TIP3    H241993   5.102   6.093   8.185 -0.4593 -0.2541  0.8679
 6812TIP3   OH241994   4.495   1.833   7.742 -0.0938  0.3302 -0.0308
 6812TIP3    H141995   4.578   1.789   7.726 -0.4298 -0.1786 -0.4186
 6812TIP3    H241996   4.437   1.763   7.773 -0.6708  0.4697 -0.7670
 6813TIP3   OH241997   3.840   3.923   2.262 -0.8347 -0.2818 -0.2359
 6813TIP3    H141998   3.911   3.970   2.219 -1.2683 -0.7979 -1.5747
 6813TIP3    H241999   3.844   3.834   2.226  0.2945 -1.4921  2.6220
 6814TIP3   OH242000   4.007   2.890   2.000 -0.0491  0.2095  0.6914
 6814TIP3    H142001   4.060   2.963   2.031 -1.9761  1.6181  0.8737
 6814TIP3    H242002   4.005   2.901   1.905  1.1069 -0.6872  0.5450
 6815TIP3   OH242003   5.947   5.404   2.102  0.0911 -0.1424 -0.0707
 6815TIP3    H142004   5.855   5.376   2.105  0.1388 -0.2492  0.8236
 6815TIP3    H242005   5.948   5.489   2.145  0.6441 -0.9033  1.5351
 6816TIP3   OH242006   3.898   6.093   7.204 -0.2999 -0.4128  0.1131
 6816TIP3    H142007   3.931   6.051   7.124  0.4301  0.4973 -0.0891
 6816TIP3    H242008   3.844   6.165   7.171  1.2077  0.9049  0.3856
 6817TIP3   OH242009   4.131   3.406   7.914  0.5207  0.5641  0.4367
 6817TIP3    H142010   4.199   3.340   7.901  0.4132  0.7859 -1.6436
 6817TIP3    H242011   4.158   3.479   7.857 -0.5321  1.3912  0.9596
 6818TIP3   OH242012   2.094   1.274   7.133  0.6137 -0.2237 -0.0435
 6818TIP3    H142013   2.171   1.323   7.164  0.9839 -0.6488 -0.2790
 6818TIP3    H242014   2.019   1.327   7.162  0.9798 -0.0531  0.6250
 6819TIP3   OH242015   3.034   1.195   1.431 -0.2814 -0.1933 -0.1302
 6819TIP3    H142016   3.060   1.239   1.512  2.0462  0.4530 -1.1512
 6819TIP3    H242017   3.050   1.260   1.362 -3.8065 -0.1181 -1.0501
 6820TIP3   OH242018   2.878   2.999   7.948  0.7893  0.1532  0.3745
 6820TIP3    H142019   2.893   3.091   7.968 -1.1052  0.4310  0.7723
 6820TIP3    H242020   2.842   2.962   8.029 -0.7709 -0.3018 -0.4656
 6821TIP3   OH242021   1.396   3.215   7.494  0.2833 -0.1216  0.5695
 6821TIP3    H142022   1.444   3.148   7.543  0.2013 -0.1009  0.6791
 6821TIP3    H242023   1.335   3.252   7.558  0.7853  0.5174  0.6961
 6822TIP3   OH242024   4.628   4.051   7.779 -0.3020 -0.4659  0.1521
 6822TIP3    H142025   4.549   4.064   7.831 -0.7913  1.1453 -0.9361
 6822TIP3    H242026   4.642   3.956   7.781 -2.6328 -0.8817 -0.1507
 6823TIP3   OH242027   1.723   4.751   8.476  0.3610  0.1726 -0.6211
 6823TIP3    H142028   1.804   4.802   8.479  0.5413 -0.0122 -1.7126
 6823TIP3    H242029   1.746   4.673   8.426 -0.1021 -0.6379  0.4078
 6824TIP3   OH242030   1.089   3.401   7.958  0.2939 -0.1298 -0.2369
 6824TIP3    H142031   1.033   3.479   7.965 -0.6553 -0.8735  0.6858
 6824TIP3    H242032   1.051   3.339   8.020  1.3302 -1.1624 -0.6158
 6825TIP3   OH242033   3.264   3.563   6.989 -0.0057 -0.1311  0.4546
 6825TIP3    H142034   3.288   3.655   6.979 -1.7815  0.3871  0.4783
 6825TIP3    H242035   3.186   3.553   6.933  0.4538 -1.7560  0.0621
 6826TIP3   OH242036   0.676   4.321   7.410  0.2396  0.2226  0.0772
 6826TIP3    H142037   0.689   4.415   7.405 -2.2206  0.5800 -1.9032
 6826TIP3    H242038   0.739   4.284   7.348  0.7492  0.6129  0.3570
 6827TIP3   OH242039   1.748   1.784   8.005  0.1679  0.1935  0.3102
 6827TIP3    H142040   1.694   1.862   7.988 -0.6521 -0.6407 -1.1292
 6827TIP3    H242041   1.822   1.817   8.055  0.8684  2.2923 -1.9056
 6828TIP3   OH242042   0.647   0.247   1.700 -0.1843  0.4250  0.0273
 6828TIP3    H142043   0.668   0.254   1.607  1.3024 -1.3260  0.1906
 6828TIP3    H242044   0.573   0.307   1.712 -0.2832  0.8370 -2.2221
 6829TIP3   OH242045   0.691   5.147   1.832  0.9660  0.1174  0.4443
 6829TIP3    H142046   0.637   5.112   1.903  0.3739 -1.6009 -0.7589
 6829TIP3    H242047   0.750   5.209   1.874 -1.2136  1.2937  1.9890
 6830TIP3   OH242048   0.886   0.909   0.185  0.2093  0.2278  0.3416
 6830TIP3    H142049   0.816   0.958   0.143 -0.2790  0.5461  1.4911
 6830TIP3    H242050   0.936   0.871   0.113 -0.8898  0.3471 -0.4999
 6831TIP3   OH242051   5.916   6.605   1.316 -0.5237  0.4455 -0.0761
 6831TIP3    H142052   5.979   6.665   1.274 -0.2846  0.1155 -0.1950
 6831TIP3    H242053   5.952   6.590   1.404 -0.5482  0.4259 -0.0695
 6832TIP3   OH242054   5.189   5.525   1.069  0.0896  0.1731 -0.1325
 6832TIP3    H142055   5.195   5.480   0.984 -1.1160 -0.2848  0.0032
 6832TIP3    H242056   5.276   5.564   1.081  0.2169  0.4604 -1.6873
 6833TIP3   OH242057   0.504   0.396   6.983 -0.4618 -0.2128  0.0891
 6833TIP3    H142058   0.509   0.460   6.912 -0.4244  0.2113  0.4739
 6833TIP3    H242059   0.587   0.405   7.030 -0.4945 -0.4784  0.1999
 6834TIP3   OH242060   5.942   0.238   3.568 -0.0459 -0.3049 -0.3220
 6834TIP3    H142061   5.998   0.231   3.491  1.0011  0.2584  0.3599
 6834TIP3    H242062   5.867   0.181   3.549 -0.5336  0.9042 -2.3592
 6835TIP3   OH242063   0.546   3.565   1.755  0.2985  0.2038  0.5850
 6835TIP3    H142064   0.503   3.515   1.824  1.0078 -0.2732  0.6943
 6835TIP3    H242065   0.630   3.591   1.794 -0.4655  2.3825  0.9037
 6836TIP3   OH242066   3.323   0.433   0.274  0.0310 -0.3334 -0.1355
 6836TIP3    H142067   3.404   0.437   0.224 -0.3905 -1.3284 -0.9164
 6836TIP3    H242068   3.342   0.375   0.347  0.4431  0.5917  0.5171
 6837TIP3   OH242069   0.905   2.013   0.728 -0.1071  0.3064 -0.4057
 6837TIP3    H142070   0.845   2.008   0.654 -1.8781  0.7833  0.9391
 6837TIP3    H242071   0.906   2.106   0.753  1.3278  0.3421 -0.4842
 6838TIP3   OH242072   0.379   1.562   8.036 -0.5372  0.1574  0.1204
 6838TIP3    H142073   0.427   1.609   7.967 -0.6271 -0.0375 -0.0750
 6838TIP3    H242074   0.333   1.631   8.084  0.9604  0.5011  1.1310
 6839TIP3   OH242075   4.282   2.215   8.153 -0.0269 -0.0179 -0.0695
 6839TIP3    H142076   4.369   2.206   8.193 -0.3152 -0.5486  0.4671
 6839TIP3    H242077   4.282   2.151   8.082 -0.7546 -1.7416  1.3783
 6840TIP3   OH242078   2.455   2.171   1.856  0.3577 -0.2045  0.0018
 6840TIP3    H142079   2.495   2.095   1.899 -0.6408 -0.1351  1.0923
 6840TIP3    H242080   2.387   2.200   1.917  0.4497  1.3249 -0.5831
 6841TIP3   OH242081   6.469   1.125   1.977 -0.1864  0.4080 -0.2584
 6841TIP3    H142082   6.555   1.088   1.992 -0.7448 -0.5789  0.6564
 6841TIP3    H242083   6.445   1.165   2.061 -0.6017  0.7190 -0.5173
 6842TIP3   OH242084   5.857   3.932   8.655  0.2934 -0.1112 -0.1171
 6842TIP3    H142085   5.780   3.888   8.619  1.2163 -1.0504 -1.0092
 6842TIP3    H242086   5.922   3.927   8.585  0.8701  1.5225  0.2483
 6843TIP3   OH242087   4.081   5.278   7.959 -0.0210  0.1105 -0.3558
 6843TIP3    H142088   4.083   5.212   8.029 -0.4611  0.3099 -0.1505
 6843TIP3    H242089   4.030   5.237   7.889  0.4291 -0.0935 -0.5689
 6844TIP3   OH242090   1.657   5.446   7.207 -0.3108  0.2463 -0.3741
 6844TIP3    H142091   1.659   5.389   7.283 -0.4685  0.0357 -0.5241
 6844TIP3    H242092   1.748   5.468   7.190 -0.4135  2.0855  1.2025
 6845TIP3   OH242093   5.814   0.358   7.600  0.7009  0.3140  0.3407
 6845TIP3    H142094   5.784   0.288   7.658 -0.1041  1.3403  1.1824
 6845TIP3    H242095   5.815   0.317   7.513 -1.5361 -0.2539  0.5307
 6846TIP3   OH242096   1.039   2.745   8.570 -0.2665  0.4472 -0.2930
 6846TIP3    H142097   1.057   2.833   8.536  0.7374  0.3048 -0.1765
 6846TIP3    H242098   1.123   2.716   8.607 -0.8423 -0.1712  0.5575
 6847TIP3   OH242099   4.127   5.813   7.661 -0.2856 -0.2943  0.3563
 6847TIP3    H142100   4.043   5.787   7.624 -0.0846  0.3462 -0.6079
 6847TIP3    H242101   4.114   5.903   7.691  0.1198 -0.0757 -0.0881
 6848TIP3   OH242102   5.305   5.272   8.737  0.2787 -0.3130 -0.2005
 6848TIP3    H142103   5.368   5.201   8.745 -1.5632 -2.0083  0.1385
 6848TIP3    H242104   5.298   5.290   8.643 -1.5731 -2.9215 -0.6681
 6849TIP3   OH242105   2.522   2.005   2.074  1.0039  0.0253 -0.6536
 6849TIP3    H142106   2.546   2.096   2.092 -1.8506  0.5064  1.5292
 6849TIP3    H242107   2.605   1.957   2.077  2.2281  2.0663  1.7106
 6850TIP3   OH242108   3.564   5.151   0.687  0.1182 -0.7757  0.4410
 6850TIP3    H142109   3.581   5.057   0.679 -2.0787 -1.2026 -0.0038
 6850TIP3    H242110   3.469   5.157   0.695  0.2561  1.3981  1.0124
 6851TIP3   OH242111   5.391   6.098   8.033  0.1103  0.1391  0.2131
 6851TIP3    H142112   5.299   6.105   8.058 -0.2870 -2.3927 -0.3481
 6851TIP3    H242113   5.438   6.094   8.116 -0.3221  0.8229  0.4993
 6852TIP3   OH242114   6.677   1.147   7.092 -0.4121  0.1560  0.1640
 6852TIP3    H142115   6.742   1.195   7.142 -1.5861 -0.1861  2.1319
 6852TIP3    H242116   6.612   1.213   7.067  0.5856  0.4910 -1.7643
 6853TIP3   OH242117   2.428   0.006   1.648  0.4509  0.0505  0.6337
 6853TIP3    H142118   2.446  -0.030   1.561 -0.6078 -0.0806  0.4574
 6853TIP3    H242119   2.513   0.006   1.692  1.4825  2.2321 -1.1663
 6854TIP3   OH242120   4.370   5.860   0.752  0.1011  0.3253  0.1218
 6854TIP3    H142121   4.399   5.939   0.798  0.0756 -0.0596  0.8208
 6854TIP3    H242122   4.441   5.841   0.691 -0.1770  1.2440 -0.5179
 6855TIP3   OH242123   4.171   1.060   0.516  0.0308 -0.1312 -0.7240
 6855TIP3    H142124   4.077   1.044   0.524 -0.2623  2.0056  1.0065
 6855TIP3    H242125   4.178   1.136   0.459  0.8936 -1.4279 -2.4512
 6856TIP3   OH242126   4.157   5.453   0.953  0.0809  0.2219 -0.1784
 6856TIP3    H142127   4.107   5.464   1.034  1.3652  1.9007  0.4467
 6856TIP3    H242128   4.200   5.368   0.963  0.3822  0.4902  1.0198
 6857TIP3   OH242129   0.427   2.676   8.213 -0.1468  0.1025 -0.1767
 6857TIP3    H142130   0.494   2.658   8.279 -1.1351 -5.2380 -0.1857
 6857TIP3    H242131   0.451   2.622   8.138 -1.3450  2.7562 -2.6567
 6858TIP3   OH242132   1.836   3.927   2.891  0.7416 -0.6184 -0.7490
 6858TIP3    H142133   1.896   3.997   2.867  0.1419  1.3145  2.7745
 6858TIP3    H242134   1.847   3.916   2.985 -1.7252 -2.8417 -0.5871
 6859TIP3   OH242135   4.533   4.088   0.448 -0.2498 -0.3223  0.1014
 6859TIP3    H142136   4.594   4.023   0.412  0.7793  0.4564  0.3862
 6859TIP3    H242137   4.493   4.043   0.523 -0.8571 -1.2242 -0.7378
 6860TIP3   OH242138   2.298   1.906   2.227  0.4297  0.0409  0.0285
 6860TIP3    H142139   2.356   1.959   2.173  1.7393 -0.6685  0.6910
 6860TIP3    H242140   2.212   1.914   2.185  0.7193  2.1031 -0.2676
 6861TIP3   OH242141   5.610   6.700   8.430  0.0873  0.2216 -0.4490
 6861TIP3    H142142   5.666   6.622   8.436 -0.2323 -0.0405 -0.8101
 6861TIP3    H242143   5.660   6.769   8.474  0.5076 -0.1125 -0.3938
 6862TIP3   OH242144   0.859   0.854   1.457  0.1744  0.0035 -0.7807
 6862TIP3    H142145   0.795   0.797   1.500  3.2362 -1.5439  2.1549
 6862TIP3    H242146   0.850   0.938   1.502  1.0680 -0.6380  0.6914
 6863TIP3   OH242147   1.167   2.974   0.381 -0.2735  0.7182  0.5844
 6863TIP3    H142148   1.163   2.974   0.477  0.1276  2.8733  0.6640
 6863TIP3    H242149   1.200   2.887   0.358  0.2809  0.3942  2.4423
 6864TIP3   OH242150   2.388   3.849   8.083 -0.2991  0.0999 -0.6821
 6864TIP3    H142151   2.443   3.906   8.029  0.5102 -0.0408 -0.0407
 6864TIP3    H242152   2.332   3.909   8.132 -0.0116  0.3126 -0.6065
 6865TIP3   OH242153   6.073   2.735   2.711  0.0989  0.3318 -0.8510
 6865TIP3    H142154   6.110   2.647   2.706 -1.7918 -0.7573  1.6990
 6865TIP3    H242155   6.142   2.788   2.752  1.1112 -0.0293 -2.0420
 6866TIP3   OH242156   3.224   3.066   1.908 -0.0045 -0.9664 -0.5696
 6866TIP3    H142157   3.193   3.115   1.984  3.7408  0.7480  0.0391
 6866TIP3    H242158   3.212   3.127   1.834  1.7271 -0.2594 -0.3181
 6867TIP3   OH242159   2.151   6.367   0.786 -0.5513  0.2505  0.5145
 6867TIP3    H142160   2.192   6.382   0.871  0.8937 -0.4644 -0.0245
 6867TIP3    H242161   2.141   6.454   0.748 -0.8013  0.5379  1.2181
 6868TIP3   OH242162   2.571   6.568   0.244 -0.0660 -0.0873  0.1244
 6868TIP3    H142163   2.611   6.642   0.290  0.3714  1.2324 -2.2275
 6868TIP3    H242164   2.602   6.491   0.292  1.3776  1.1274  1.2569
 6869TIP3   OH242165   2.428   1.988   7.565 -0.0057 -0.4578 -0.3529
 6869TIP3    H142166   2.441   1.896   7.588 -1.6253 -0.1040  2.3575
 6869TIP3    H242167   2.386   2.027   7.642 -0.0463  2.4066 -1.6877
 6870TIP3   OH242168   0.016   4.719   7.482  0.2470 -0.4287  1.0621
 6870TIP3    H142169   0.048   4.772   7.409 -4.0870  1.5651  0.2720
 6870TIP3    H242170   0.034   4.772   7.560  1.7818 -0.9538  1.0906
 6871TIP3   OH242171   6.648   4.670   2.971 -0.0149  0.2441  0.0063
 6871TIP3    H142172   6.613   4.595   2.924  1.0032 -0.5043  0.4100
 6871TIP3    H242173   6.601   4.670   3.055 -1.7202  1.4899 -0.8787
 6872TIP3   OH242174   0.274   3.008   1.196 -0.0807  0.1128 -0.3865
 6872TIP3    H142175   0.201   3.069   1.187 -0.3692  0.0537  1.2331
 6872TIP3    H242176   0.339   3.055   1.248 -0.0750 -0.7259  0.4088
 6873TIP3   OH242177   3.683   5.445   7.982  0.2294  0.7060  0.1733
 6873TIP3    H142178   3.773   5.436   7.950  0.3157  0.4320  0.4882
 6873TIP3    H242179   3.691   5.489   8.067  0.0854  0.4732  0.3087
 6874TIP3   OH242180   4.331   5.721   0.994 -0.6339 -0.5864 -0.0282
 6874TIP3    H142181   4.298   5.788   0.933 -0.2946 -0.1063  0.3086
 6874TIP3    H242182   4.341   5.643   0.939 -2.3805 -0.7829 -0.1295
 6875TIP3   OH242183   6.091   5.782   7.784 -0.2761  0.7512 -0.4205
 6875TIP3    H142184   6.013   5.746   7.742  0.0878 -0.2902 -0.2429
 6875TIP3    H242185   6.098   5.735   7.867 -0.0997  1.6534  0.0827
 6876TIP3   OH242186   6.008   2.244   2.903  0.1226  0.2456 -0.3151
 6876TIP3    H142187   6.027   2.335   2.925 -0.9585  0.3779  0.1078
 6876TIP3    H242188   6.088   2.197   2.924  0.1835  0.8633  0.9041
 6877TIP3   OH242189   3.984   5.530   2.399 -0.0232 -0.1483 -0.0953
 6877TIP3    H142190   4.026   5.520   2.485 -0.9229  0.1544  0.3991
 6877TIP3    H242191   4.050   5.571   2.344 -0.0279  1.3719  0.9756
 6878TIP3   OH242192   3.339   3.146   7.466  0.4647  0.3392  0.1663
 6878TIP3    H142193   3.374   3.061   7.490  1.4879  0.1984 -1.6205
 6878TIP3    H242194   3.403   3.209   7.500  0.2753  0.3360  0.5328
 6879TIP3   OH242195   2.469   5.718   1.655 -0.3219  0.0682 -0.3047
 6879TIP3    H142196   2.520   5.716   1.575  1.1638 -0.8558  0.6252
 6879TIP3    H242197   2.404   5.649   1.644 -1.4436  1.2532 -1.4974
 6880TIP3   OH242198   1.149   3.548   1.607 -0.2734 -0.2026 -0.0797
 6880TIP3    H142199   1.178   3.474   1.553  1.9019 -1.5191  2.6401
 6880TIP3    H242200   1.203   3.621   1.578  2.1992 -1.3379  1.3473
 6881TIP3   OH242201   5.657   4.786   7.563 -0.6913 -0.0259  0.0532
 6881TIP3    H142202   5.720   4.855   7.539 -1.9302  1.3762  0.6494
 6881TIP3    H242203   5.711   4.717   7.601  0.6561  0.3702 -1.0640
 6882TIP3   OH242204   1.105   3.450   7.301  0.2667  0.7682 -0.0523
 6882TIP3    H142205   1.167   3.377   7.288  1.6163  2.0222 -1.0085
 6882TIP3    H242206   1.161   3.527   7.311 -1.1602  1.9047 -0.5166
 6883TIP3   OH242207   4.793   0.271   0.646  0.1053 -0.2436 -0.3403
 6883TIP3    H142208   4.793   0.178   0.667 -0.9097 -0.0723  0.4979
 6883TIP3    H242209   4.866   0.282   0.584  2.3054 -1.0298  1.9672
 6884TIP3   OH242210   1.729   2.514   2.744  0.0507  0.3280  0.4088
 6884TIP3    H142211   1.694   2.555   2.665  0.4016 -0.0344  0.0594
 6884TIP3    H242212   1.671   2.542   2.815 -0.8546 -0.1643 -0.1370
 6885TIP3   OH242213   2.018   1.829   2.799 -0.1267  0.3746 -0.0889
 6885TIP3    H142214   2.043   1.921   2.798  0.6627  0.1762  0.4285
 6885TIP3    H242215   1.996   1.812   2.890 -0.2405  0.0455 -0.1779
 6886TIP3   OH242216   3.757   5.797   2.193 -0.8135 -0.1321 -0.1723
 6886TIP3    H142217   3.852   5.802   2.182 -0.7743  0.0718  0.2458
 6886TIP3    H242218   3.740   5.706   2.215 -0.6288 -0.0035  0.5292
 6887TIP3   OH242219   5.432   4.008   1.033 -0.5655 -0.4406  0.3259
 6887TIP3    H142220   5.426   3.979   1.125 -0.9824  2.0177  1.1325
 6887TIP3    H242221   5.526   4.004   1.013 -0.6663 -3.1914  0.0308
 6888TIP3   OH242222   5.161   6.672   1.758  0.4407 -0.6030 -0.2992
 6888TIP3    H142223   5.083   6.656   1.811  0.4224  0.6773  0.0956
 6888TIP3    H242224   5.171   6.592   1.706 -0.7783 -1.0312  0.0766
 6889TIP3   OH242225   1.872   2.003   8.719 -0.0747 -0.3039  0.0346
 6889TIP3    H142226   1.802   2.016   8.783  1.4084  0.7382  1.5376
 6889TIP3    H242227   1.861   2.076   8.657 -1.8289 -1.6072 -1.3018
 6890TIP3   OH242228   5.245   3.396   0.436 -0.6758  0.0501  0.7715
 6890TIP3    H142229   5.229   3.368   0.346  1.0948 -1.1799  0.8053
 6890TIP3    H242230   5.158   3.398   0.476 -1.5870  1.2834 -1.1091
 6891TIP3   OH242231   1.685   2.293   1.999 -0.0219  0.7744  0.3697
 6891TIP3    H142232   1.717   2.349   1.928 -1.2268  1.7366  0.5691
 6891TIP3    H242233   1.590   2.291   1.987 -0.0731 -0.6574  0.8028
 6892TIP3   OH242234   6.250   5.715   1.644 -0.3053 -0.1432  0.0597
 6892TIP3    H142235   6.333   5.668   1.655  1.2562  2.3994  0.0221
 6892TIP3    H242236   6.222   5.695   1.555  0.3545 -0.9135  0.0119
 6893TIP3   OH242237   2.788   6.740   1.966 -0.0725  0.0005  0.1806
 6893TIP3    H142238   2.698   6.712   1.949 -0.0715  0.6231 -0.9366
 6893TIP3    H242239   2.781   6.833   1.987  0.3053  0.0801 -0.0286
 6894TIP3   OH242240   5.114   6.022   1.080 -0.0228  0.0529  0.2618
 6894TIP3    H142241   5.123   5.940   1.128  0.2469  0.3774  0.7817
 6894TIP3    H242242   5.030   6.058   1.108  0.8436  1.0269  1.7680
 6895TIP3   OH242243   4.968   5.502   8.065  0.0232 -0.1500 -0.6303
 6895TIP3    H142244   4.938   5.426   8.016 -1.2262  0.4122 -0.7809
 6895TIP3    H242245   4.888   5.545   8.095  0.6728  1.2587 -0.7917
 6896TIP3   OH242246   0.041   1.841   1.971  0.1941  0.1398 -0.3805
 6896TIP3    H142247   0.092   1.899   2.028 -0.4904  0.7847 -0.4043
 6896TIP3    H242248   0.099   1.821   1.898  0.5715  0.4990 -0.1816
 6897TIP3   OH242249   2.899   5.043   2.566 -0.0373  0.1748 -0.4060
 6897TIP3    H142250   2.963   4.983   2.604  0.3120  1.8203  1.8710
 6897TIP3    H242251   2.928   5.130   2.596 -3.9599  0.9445  1.9065
 6898TIP3   OH242252   4.789   0.838   8.670  0.1497 -0.2074 -0.1949
 6898TIP3    H142253   4.734   0.831   8.592 -0.1356 -1.5518  0.1127
 6898TIP3    H242254   4.787   0.931   8.692 -1.5522 -0.1460 -0.5113
 6899TIP3   OH242255   5.182   5.781   1.185  0.0834  0.2591 -0.2855
 6899TIP3    H142256   5.158   5.706   1.131  0.2855  0.3576 -0.5113
 6899TIP3    H242257   5.274   5.768   1.207 -0.4725 -0.7942  1.6758
 6900TIP3   OH242258   0.334   1.648   1.357  0.3529  0.2108  0.0322
 6900TIP3    H142259   0.256   1.704   1.362 -0.3948 -0.7898 -0.2924
 6900TIP3    H242260   0.300   1.559   1.356  1.4018 -0.2227 -1.8959
 6901TIP3   OH242261   0.788   2.164   1.191 -0.0578  0.2023 -0.1288
 6901TIP3    H142262   0.843   2.205   1.124 -1.1125  0.5194 -0.8157
 6901TIP3    H242263   0.830   2.080   1.209  2.0035  1.4098  1.1118
 6902TIP3   OH242264   5.544   2.458   8.213 -0.1462 -0.1991  0.0491
 6902TIP3    H142265   5.586   2.510   8.145  0.2981  2.3563  2.1162
 6902TIP3    H242266   5.616   2.429   8.269 -0.7294  1.6170  1.8896
 6903TIP3   OH242267   1.793   5.546   1.882 -0.1247 -0.1022  0.6073
 6903TIP3    H142268   1.778   5.506   1.797  0.6913  1.6742 -0.4448
 6903TIP3    H242269   1.862   5.611   1.866 -0.0315  0.3645  2.5968
 6904TIP3   OH242270   3.326   1.304   2.037  0.0285  0.0445 -0.4503
 6904TIP3    H142271   3.410   1.262   2.051 -0.6940 -1.8153 -1.3142
 6904TIP3    H242272   3.340   1.396   2.061  1.7318 -0.6266  1.3559
 6905TIP3   OH242273   0.650   4.545   8.506 -0.2370  0.0816 -0.0027
 6905TIP3    H142274   0.613   4.628   8.478 -1.4422 -0.4636 -0.1005
 6905TIP3    H242275   0.702   4.515   8.431 -0.7461  0.2056 -0.4141
 6906TIP3   OH242276   0.503   1.451   8.627 -0.1636  0.4443 -0.0823
 6906TIP3    H142277   0.474   1.464   8.537  1.7128  0.7666 -0.6842
 6906TIP3    H242278   0.598   1.445   8.621 -0.1219 -3.1763  1.4322
 6907TIP3   OH242279   4.223   6.672   8.253 -0.1995  0.3179  0.0216
 6907TIP3    H142280   4.262   6.721   8.326 -0.2085  2.5887 -1.4173
 6907TIP3    H242281   4.139   6.640   8.288  1.2169 -1.5775  2.0074
 6908TIP3   OH242282   0.165   6.092   0.006 -0.7154  0.7159  0.6370
 6908TIP3    H142283   0.238   6.123   0.061  0.4289 -2.4247  1.1102
 6908TIP3    H242284   0.188   6.121  -0.082 -0.1285  1.7636  1.1065
 6909TIP3   OH242285   3.407   0.657   8.376  0.0994 -0.1272  0.4073
 6909TIP3    H142286   3.394   0.741   8.333  2.1290 -0.3305 -0.7520
 6909TIP3    H242287   3.414   0.678   8.469 -0.9762  0.7616  0.3034
 6910TIP3   OH242288   2.664   4.290   0.839  0.1082  0.0649  0.2340
 6910TIP3    H142289   2.573   4.261   0.841  0.2538 -0.5636 -1.1194
 6910TIP3    H242290   2.659   4.385   0.842 -0.4964  0.0115  1.9840
 6911TIP3   OH242291   4.731   3.926   0.335 -0.2501 -0.1621  0.0596
 6911TIP3    H142292   4.774   3.845   0.363  0.6501 -0.3777 -1.8075
 6911TIP3    H242293   4.797   3.994   0.348 -0.6515  0.1220  0.6583
 6912TIP3   OH242294   2.944   1.326   0.950 -0.1287 -0.1124  0.0024
 6912TIP3    H142295   2.894   1.406   0.933 -0.9888 -0.8462 -1.0308
 6912TIP3    H242296   3.008   1.351   1.017  1.6933  2.2918 -2.4289
 6913TIP3   OH242297   1.094   2.751   1.976 -0.0905 -0.1670 -0.2811
 6913TIP3    H142298   1.073   2.842   1.953 -0.8976  0.5712  2.9384
 6913TIP3    H242299   1.018   2.720   2.024  0.4328 -2.3845 -0.7934
 6914TIP3   OH242300   3.318   5.534   0.587 -0.3570 -0.3568  0.4543
 6914TIP3    H142301   3.262   5.535   0.664  0.9397  1.0827  1.4329
 6914TIP3    H242302   3.335   5.441   0.570 -1.5230 -0.7332  1.2236
 6915TIP3   OH242303   4.992   0.617   0.113  0.4463 -0.0514  0.1550
 6915TIP3    H142304   5.016   0.536   0.067  0.5929  0.4638 -0.6908
 6915TIP3    H242305   4.898   0.624   0.101  0.6729  0.8092 -1.2950
 6916TIP3   OH242306   3.900   3.514   8.696  0.3157 -0.3488  0.1477
 6916TIP3    H142307   3.848   3.472   8.764 -0.9821  0.2968 -0.4226
 6916TIP3    H242308   3.942   3.588   8.740 -3.2440  2.2400 -0.3383
 6917TIP3   OH242309   1.277   4.305   2.224  0.7037  0.8684  0.8724
 6917TIP3    H142310   1.217   4.270   2.158  1.6626  2.6812 -1.1008
 6917TIP3    H242311   1.259   4.399   2.226  2.7875  1.3302  0.9060
 6918TIP3   OH242312   5.219   1.302   8.302  0.1366 -0.1560 -0.2075
 6918TIP3    H142313   5.240   1.300   8.395  0.8403 -2.0622 -0.3699
 6918TIP3    H242314   5.299   1.274   8.258 -0.0748  1.0380 -1.4341
 6919TIP3   OH242315   3.362   6.771   1.330 -0.2857 -0.6039 -0.3623
 6919TIP3    H142316   3.300   6.733   1.268 -0.6384 -1.2200  0.3527
 6919TIP3    H242317   3.391   6.852   1.288 -3.0599  0.7683  0.1106
 6920TIP3   OH242318   0.952   6.222   1.012  0.3419  0.0076  0.1366
 6920TIP3    H142319   1.027   6.222   0.952  0.5458  0.6996  0.3857
 6920TIP3    H242320   0.979   6.279   1.084 -0.7496  0.9480 -0.1740
 6921TIP3   OH242321   2.510   3.751   1.701  0.2445  0.1503  0.4081
 6921TIP3    H142322   2.434   3.794   1.739 -1.1010  0.0715 -2.0273
 6921TIP3    H242323   2.522   3.672   1.755 -0.3728  0.9587  1.7949
 6922TIP3   OH242324   0.930   4.609   8.108  0.3096  0.3798 -0.6871
 6922TIP3    H142325   0.990   4.679   8.133  2.4944 -1.4536 -0.4044
 6922TIP3    H242326   0.930   4.608   8.013 -0.5486  1.3660 -0.7146
 6923TIP3   OH242327   4.050   0.696   7.938 -0.0992  0.4219  0.0594
 6923TIP3    H142328   4.081   0.716   7.849  1.4019 -1.5015  0.0964
 6923TIP3    H242329   3.962   0.662   7.925 -0.7847  2.2815 -0.4424
 6924TIP3   OH242330   0.322   4.923   0.637  0.5257  0.2880 -0.3818
 6924TIP3    H142331   0.401   4.871   0.649  1.1968  1.3230 -0.2142
 6924TIP3    H242332   0.338   5.003   0.686 -0.5969  0.5561 -0.4220
 6925TIP3   OH242333   1.576   6.397   7.873  0.0333  0.0325 -0.2079
 6925TIP3    H142334   1.534   6.325   7.824  0.0645 -0.4472  0.4632
 6925TIP3    H242335   1.665   6.365   7.890 -0.0289  0.1332  0.2982
 6926TIP3   OH242336   6.087   1.920   0.417  0.9650 -0.3080 -0.5010
 6926TIP3    H142337   6.034   1.866   0.358  0.5157 -0.9200  0.4292
 6926TIP3    H242338   6.024   1.953   0.482  1.2590  1.2213 -0.9542
 6927TIP3   OH242339   4.548   2.263   8.492 -0.2326 -0.3488  0.1166
 6927TIP3    H142340   4.547   2.343   8.438  1.4141 -0.8326 -0.7256
 6927TIP3    H242341   4.641   2.247   8.508 -0.4787 -2.4637 -0.2997
 6928TIP3   OH242342   1.137   6.591   8.548 -0.0222  0.3820  0.0830
 6928TIP3    H142343   1.205   6.653   8.575 -0.7682  1.8879 -1.3083
 6928TIP3    H242344   1.135   6.527   8.619  2.8401  0.2344  0.1633
 6929TIP3   OH242345   6.475   1.250   7.529  0.1017  0.5975 -0.3019
 6929TIP3    H142346   6.470   1.156   7.510  4.1973 -0.1958  1.5073
 6929TIP3    H242347   6.500   1.289   7.445  0.1401 -0.2134 -0.6828
 6930TIP3   OH242348   2.253   0.617   1.304 -0.2989 -0.0692  0.3029
 6930TIP3    H142349   2.244   0.543   1.365 -0.9118 -0.8504 -0.7060
 6930TIP3    H242350   2.299   0.580   1.229 -1.3159  0.3588 -0.5556
 6931TIP3   OH242351   6.728   4.438   8.617 -0.5741  0.2444  0.2152
 6931TIP3    H142352   6.765   4.396   8.539 -1.5672  2.3013 -1.4741
 6931TIP3    H242353   6.799   4.493   8.650  0.1674 -1.3556  1.4160
 6932TIP3   OH242354   6.453   6.051   8.150 -0.1836  0.2195 -0.2750
 6932TIP3    H142355   6.523   6.023   8.091 -1.1814 -0.3307 -1.2135
 6932TIP3    H242356   6.391   6.098   8.094 -0.9251  0.0748  0.4120
 6933TIP3   OH242357   3.004   3.071   2.250  0.0413  0.1072 -0.1913
 6933TIP3    H142358   2.972   3.104   2.166 -0.4606  0.6235  0.1945
 6933TIP3    H242359   3.095   3.100   2.254  0.7853 -1.9078 -1.5720
 6934TIP3   OH242360   6.784   5.778   0.715  0.1702 -0.1628 -0.1571
 6934TIP3    H142361   6.801   5.827   0.635 -2.4768  1.2829  0.0526
 6934TIP3    H242362   6.869   5.768   0.756  1.4828 -0.2076 -2.7114
 6935TIP3   OH242363   5.132   6.052   1.886 -0.3807 -0.1885  0.4391
 6935TIP3    H142364   5.196   6.043   1.957 -0.9940  3.1393  1.6059
 6935TIP3    H242365   5.053   6.008   1.919 -0.1266 -0.1722  1.0832
 6936TIP3   OH242366   0.360   3.493   7.916 -0.4099  0.2235  0.4013
 6936TIP3    H142367   0.432   3.448   7.872  0.1659  0.5690  0.9726
 6936TIP3    H242368   0.329   3.557   7.852  1.4610  1.8273  1.0008
 6937TIP3   OH242369   2.892   3.908   1.336 -0.1412  0.4835  0.4908
 6937TIP3    H142370   2.841   3.983   1.364  0.2866  0.9118  0.1394
 6937TIP3    H242371   2.904   3.920   1.242 -0.9155 -0.5436  0.2403
 6938TIP3   OH242372   0.325   6.095   1.716 -0.1984 -0.0821 -0.1291
 6938TIP3    H142373   0.401   6.072   1.663  0.0074  1.3101 -0.4746
 6938TIP3    H242374   0.354   6.169   1.769 -1.6360  1.2484 -1.1254
 6939TIP3   OH242375   1.012   0.287   0.320 -0.2810 -0.0842  0.1650
 6939TIP3    H142376   1.058   0.362   0.359 -0.5424  0.8397 -1.2189
 6939TIP3    H242377   1.033   0.214   0.378 -0.3468  1.1157  1.8015
 6940TIP3   OH242378   1.349   6.758   8.575  0.6612  0.6247 -0.4074
 6940TIP3    H142379   1.403   6.701   8.521 -0.7766  0.4925 -1.8043
 6940TIP3    H242380   1.323   6.829   8.516 -0.8886  0.5300  0.1018
 6941TIP3   OH242381   5.724   2.448   0.768  0.0940 -0.5851 -0.3288
 6941TIP3    H142382   5.751   2.517   0.828  0.7779 -0.3231 -0.9083
 6941TIP3    H242383   5.738   2.367   0.816 -0.8305 -0.3212  0.3996
 6942TIP3   OH242384   5.757   0.940   1.317  0.3905 -0.3736 -0.1136
 6942TIP3    H142385   5.677   0.993   1.312  0.1601 -0.6870  0.1962
 6942TIP3    H242386   5.766   0.904   1.229  0.0065 -0.5945 -0.0674
 6943TIP3   OH242387   1.043   2.304   1.057  0.3917 -0.0462  0.4430
 6943TIP3    H142388   1.015   2.345   0.975 -1.1509 -1.9689 -0.0671
 6943TIP3    H242389   1.015   2.365   1.125 -0.5364  0.4393 -0.3443
 6944TIP3   OH242390   1.765   2.058   2.846  0.0553 -0.5704 -0.3857
 6944TIP3    H142391   1.775   1.979   2.899 -3.3599 -0.1525  1.1680
 6944TIP3    H242392   1.778   2.130   2.907  0.2809  0.0203 -1.1155
 6945TIP3   OH242393   5.832   4.891   0.445 -0.2698 -0.4554 -0.1114
 6945TIP3    H142394   5.747   4.866   0.408 -1.6626  3.3764  0.1072
 6945TIP3    H242395   5.894   4.875   0.374 -1.3823 -1.9348 -0.8000
 6946TIP3   OH242396   3.788   5.939   1.644  0.0418  0.6336  0.2109
 6946TIP3    H142397   3.731   5.996   1.695  0.6402  1.4207  0.0104
 6946TIP3    H242398   3.730   5.869   1.614 -1.0668  1.9269 -0.7964
 6947TIP3   OH242399   5.765   4.632   1.341 -0.2140 -0.1539  0.0254
 6947TIP3    H142400   5.769   4.722   1.373  0.0146 -0.0959 -0.1665
 6947TIP3    H242401   5.747   4.580   1.419  1.4223 -0.1409  0.4474
 6948TIP3   OH242402   6.228   1.331   2.996  0.4385  0.0882 -0.3684
 6948TIP3    H142403   6.154   1.274   2.972  1.3112 -0.8037 -1.0352
 6948TIP3    H242404   6.222   1.404   2.934  0.1207  0.0148 -0.4297
 6949TIP3   OH242405   5.450   5.749   8.491  0.1559  0.3617 -0.1316
 6949TIP3    H142406   5.484   5.708   8.571 -1.2664  1.1033  0.9041
 6949TIP3    H242407   5.355   5.740   8.499 -0.1155  2.3471 -0.6928
 6950TIP3   OH242408   3.929   0.892   1.813 -0.1321 -0.6534  0.0961
 6950TIP3    H142409   3.842   0.922   1.840  0.0822  1.1128 -1.0285
 6950TIP3    H242410   3.922   0.885   1.718  0.5204 -2.0431  0.1314
 6951TIP3   OH242411   5.995   4.414   7.756 -0.1173  0.1305 -0.3124
 6951TIP3    H142412   6.070   4.451   7.804  0.7069  1.4982 -2.5000
 6951TIP3    H242413   6.027   4.404   7.666 -1.7577 -1.8416 -0.7407
 6952TIP3   OH242414   2.108   6.104   0.807  0.2189 -0.0453  0.4022
 6952TIP3    H142415   2.164   6.076   0.735  1.5666 -0.5435  1.5811
 6952TIP3    H242416   2.110   6.199   0.804  0.0931 -0.0608 -0.3346
 6953TIP3   OH242417   1.858   4.899   1.017  0.2285  0.1211 -0.3576
 6953TIP3    H142418   1.864   4.804   1.016  0.0194  0.0667 -2.9395
 6953TIP3    H242419   1.944   4.929   1.048  0.3959 -0.9045  0.1740
 6954TIP3   OH242420   1.225   6.308   0.519  0.1516 -0.2890 -0.2327
 6954TIP3    H142421   1.149   6.286   0.574 -0.5158 -2.6434 -1.9624
 6954TIP3    H242422   1.190   6.312   0.430  1.8221  0.0223 -0.9114
 6955TIP3   OH242423   5.692   4.162   0.987 -0.2849  0.2535  0.0582
 6955TIP3    H142424   5.622   4.226   0.997 -0.3728  0.0817  0.5914
 6955TIP3    H242425   5.752   4.201   0.923 -0.6055  0.6242 -0.0215
 6956TIP3   OH242426   5.350   4.252   2.136  0.0163  0.1254 -0.0934
 6956TIP3    H142427   5.405   4.230   2.060 -1.3131 -0.7737 -0.8358
 6956TIP3    H242428   5.316   4.167   2.165 -0.0688  0.5510  1.0706
 6957TIP3   OH242429   5.863   2.314   8.158 -0.0113  0.0473 -0.4101
 6957TIP3    H142430   5.887   2.222   8.163  0.9708  0.3291  0.6375
 6957TIP3    H242431   5.880   2.339   8.067  4.0765  0.2603  0.2197
 6958TIP3   OH242432   3.106   5.689   1.874 -0.1748  0.4785  0.0858
 6958TIP3    H142433   3.014   5.687   1.845 -0.5171  2.0757  0.9354
 6958TIP3    H242434   3.130   5.597   1.885 -0.7196 -0.1345 -2.9967
 6959TIP3   OH242435   5.037   1.160   2.350  0.0013  0.4000 -0.0186
 6959TIP3    H142436   5.016   1.246   2.312 -1.4195 -0.0063 -0.2202
 6959TIP3    H242437   4.987   1.158   2.431 -2.4394 -1.3790 -1.4429
 6960TIP3   OH242438   3.046   0.984   0.518 -0.1622  0.2824  0.5379
 6960TIP3    H142439   3.068   1.052   0.581 -1.8370  1.6070 -0.2187
 6960TIP3    H242440   3.082   1.016   0.435  0.1618 -0.3907  0.4153
 6961TIP3   OH242441   1.044   5.252   0.666  0.2088  0.3312 -0.0783
 6961TIP3    H142442   1.099   5.226   0.740 -1.2017 -0.1799  0.8299
 6961TIP3    H242443   0.994   5.327   0.699  0.8767  1.2957 -1.1514
 6962TIP3   OH242444   3.613   0.369   0.812  0.1888  0.5072 -0.0285
 6962TIP3    H142445   3.647   0.289   0.773  0.7316  0.6968  0.0549
 6962TIP3    H242446   3.518   0.358   0.811  0.1814  0.5566 -1.5148
 6963TIP3   OH242447   4.760   6.510   7.563  0.2757 -0.8183  0.7042
 6963TIP3    H142448   4.776   6.475   7.475  0.0446  1.3782 -0.2929
 6963TIP3    H242449   4.681   6.464   7.593 -0.9533 -0.0563 -1.1967
 6964TIP3   OH242450   5.700   3.871   1.166 -0.9376  0.2552 -0.2622
 6964TIP3    H142451   5.761   3.811   1.209 -2.2522 -0.1517  1.1010
 6964TIP3    H242452   5.680   3.937   1.232 -0.6551  1.4004 -1.2702
 6965TIP3   OH242453   2.664   1.438   1.398 -0.1383 -0.6038  0.0666
 6965TIP3    H142454   2.573   1.453   1.420 -0.2753  1.5257 -1.6656
 6965TIP3    H242455   2.713   1.480   1.468 -0.4566 -1.4960  0.8434
 6966TIP3   OH242456   5.177   4.645   0.802  0.8353 -0.4987 -0.4597
 6966TIP3    H142457   5.238   4.719   0.799 -1.6806  2.0150  2.7865
 6966TIP3    H242458   5.112   4.664   0.735 -0.4125  0.9706  1.0897
 6967TIP3   OH242459   1.034   2.121   0.378 -0.1363 -0.1586  0.1292
 6967TIP3    H142460   1.060   2.035   0.409  1.2621  0.9475  2.3153
 6967TIP3    H242461   1.094   2.141   0.306  1.5186  0.0952  1.5036
 6968TIP3   OH242462   3.827   3.204   8.592  0.4173  0.0771 -0.5378
 6968TIP3    H142463   3.816   3.119   8.633  0.5251  0.0428 -0.5786
 6968TIP3    H242464   3.890   3.189   8.521 -0.4941 -0.0685 -1.3430
 6969TIP3   OH242465   4.120   1.134   1.960  0.1910 -0.0517 -0.5572
 6969TIP3    H142466   4.187   1.105   1.898  1.9208  1.0721  0.6758
 6969TIP3    H242467   4.117   1.066   2.027  2.4746  1.2783  1.0405
 6970TIP3   OH242468   0.935   5.031   8.080 -0.2611 -0.0618 -0.0223
 6970TIP3    H142469   0.963   5.018   7.990 -1.1835  0.6707 -0.4352
 6970TIP3    H242470   0.921   5.126   8.087  1.4786  0.1331  1.4030
 6971TIP3   OH242471   2.735   5.700   7.912  0.3473 -0.0521  0.1660
 6971TIP3    H142472   2.776   5.786   7.925 -0.6084  0.5975 -0.9994
 6971TIP3    H242473   2.727   5.664   8.001  1.9310  0.4866  0.5626
 6972TIP3   OH242474   2.570   5.652   8.429 -0.0856  0.1249 -0.2769
 6972TIP3    H142475   2.636   5.682   8.492  0.4032  0.4615 -0.9327
 6972TIP3    H242476   2.496   5.624   8.483  1.5949 -2.9612  0.6868
 6973TIP3   OH242477   3.845   1.869   0.011  0.2966  0.0297 -0.1118
 6973TIP3    H142478   3.773   1.811   0.036 -1.9869  2.9140  0.6796
 6973TIP3    H242479   3.818   1.904  -0.074  1.9681 -0.5479 -0.9161
 6974TIP3   OH242480   2.109   4.874   0.188  0.0598 -0.4425  0.1644
 6974TIP3    H142481   2.137   4.787   0.159  0.6365  0.3567 -1.8994
 6974TIP3    H242482   2.073   4.915   0.109  0.3642  1.4163  0.9356
 6975TIP3   OH242483   1.480   4.245   8.729  0.2278  0.6772  0.1418
 6975TIP3    H142484   1.571   4.242   8.700  0.3682  0.4733  0.5910
 6975TIP3    H242485   1.446   4.328   8.695  0.6856  0.9219  0.2755
 6976TIP3   OH242486   4.996   0.708   0.841  0.2404  0.2273 -0.2747
 6976TIP3    H142487   5.038   0.626   0.867  1.3585  0.3491 -1.6312
 6976TIP3    H242488   5.054   0.777   0.875 -1.7557  0.6104  2.7488
 6977TIP3   OH242489   5.150   1.109   7.628 -0.1583  0.0676  0.3391
 6977TIP3    H142490   5.094   1.047   7.580 -0.4792 -0.6840  1.6430
 6977TIP3    H242491   5.239   1.076   7.617 -0.3254 -0.6304  1.0001
 6978TIP3   OH242492   6.102   5.367   0.421 -0.0678  0.0940  0.3449
 6978TIP3    H142493   6.094   5.336   0.511 -0.6231  2.9172  1.3821
 6978TIP3    H242494   6.013   5.370   0.388  0.0935 -0.4993 -0.1661
 6979TIP3   OH242495   4.556   4.873   2.073 -0.0371 -0.6070  0.0767
 6979TIP3    H142496   4.597   4.879   1.987 -1.7135 -0.5106 -0.7561
 6979TIP3    H242497   4.626   4.895   2.134  0.9648  0.2529 -1.3111
 6980TIP3   OH242498   6.408   0.653   2.219 -0.1497 -0.0142  0.1358
 6980TIP3    H142499   6.375   0.582   2.273 -0.3027  1.5781  2.2971
 6980TIP3    H242500   6.346   0.659   2.146 -2.4216  0.3110  1.9543
 6981TIP3   OH242501   2.636   5.070   1.961 -0.5332  0.1362  0.0288
 6981TIP3    H142502   2.548   5.035   1.968 -0.5856  0.2056 -0.2854
 6981TIP3    H242503   2.624   5.164   1.953 -0.3604  0.3486  1.8173
 6982TIP3   OH242504   4.617   5.251   7.876 -0.3520  0.5189  0.2295
 6982TIP3    H142505   4.595   5.179   7.818  0.0581 -1.0902  1.9762
 6982TIP3    H242506   4.533   5.290   7.900 -0.5355  1.0523 -1.1887
 6983TIP3   OH242507   0.829   5.086   7.367 -0.3067 -0.0999  0.4333
 6983TIP3    H142508   0.756   5.148   7.373 -1.8959 -1.3858 -3.0213
 6983TIP3    H242509   0.791   5.002   7.391  0.3161 -0.6280 -0.4124
 6984TIP3   OH242510   4.971   5.184   0.131  0.0104  0.7227 -0.8519
 6984TIP3    H142511   4.980   5.127   0.207 -1.3502 -0.5809 -1.6200
 6984TIP3    H242512   4.978   5.124   0.056  2.9289  2.1507 -1.8792
 6985TIP3   OH242513   5.215   1.502   2.070 -0.1105 -0.3794  0.1675
 6985TIP3    H142514   5.234   1.425   2.124  0.5359  0.5470  1.3114
 6985TIP3    H242515   5.296   1.554   2.074  0.0547 -0.3906 -1.9220
 6986TIP3   OH242516   2.624   0.768   7.861 -0.1848  0.5631 -0.3775
 6986TIP3    H142517   2.535   0.732   7.864 -0.2089  0.4996 -1.4422
 6986TIP3    H242518   2.680   0.692   7.845  0.0115  0.6801 -0.2537
 6987TIP3   OH242519   5.466   2.547   0.738  0.3539  0.4346  0.2003
 6987TIP3    H142520   5.422   2.485   0.796 -1.4931 -0.4386 -1.9694
 6987TIP3    H242521   5.554   2.512   0.727  0.2390 -0.2180  1.2092
 6988TIP3   OH242522   2.683   1.618   1.177  0.0333  0.0221 -0.0168
 6988TIP3    H142523   2.739   1.686   1.213  1.8767 -1.1178 -0.6077
 6988TIP3    H242524   2.674   1.554   1.247 -1.5317  0.7079  0.4674
 6989TIP3   OH242525   6.238   0.118   8.099 -0.5367  0.1912 -0.6521
 6989TIP3    H142526   6.271   0.062   8.170 -2.2082  0.1668  0.1382
 6989TIP3    H242527   6.289   0.090   8.022  1.6219  0.5161  0.5740
 6990TIP3   OH242528   1.280   6.310   7.304  0.0379  0.0060 -0.6275
 6990TIP3    H142529   1.191   6.301   7.338  0.8663 -0.8543  1.4404
 6990TIP3    H242530   1.293   6.231   7.251  0.4035 -1.2200  1.1941
 6991TIP3   OH242531   0.940   1.235   8.207  0.0016  0.4892  0.0808
 6991TIP3    H142532   0.960   1.242   8.301 -2.4582  0.0303  0.7188
 6991TIP3    H242533   0.945   1.141   8.189 -0.0867  0.5218 -0.1069
 6992TIP3   OH242534   0.634   5.377   8.080  0.7125 -0.5830  0.3581
 6992TIP3    H142535   0.585   5.434   8.021 -1.6484 -2.7291  0.0878
 6992TIP3    H242536   0.639   5.427   8.162  0.4051  0.7491 -0.3950
 6993TIP3   OH242537   1.116   5.661   7.890 -0.4458 -0.5347 -0.0449
 6993TIP3    H142538   1.161   5.640   7.972  0.4464 -0.9345 -0.6234
 6993TIP3    H242539   1.122   5.580   7.838  0.3919  0.1762 -1.1124
 6994TIP3   OH242540   5.937   3.956   0.894 -0.2614  0.3753 -0.4147
 6994TIP3    H142541   5.869   3.969   0.959 -0.6879 -1.1808 -0.5143
 6994TIP3    H242542   5.940   4.039   0.846 -0.9705  1.0138  0.6008
 6995TIP3   OH242543   0.481   3.144   0.773 -0.0620  0.0365  0.7950
 6995TIP3    H142544   0.486   3.172   0.865  0.3916 -2.0566  1.4519
 6995TIP3    H242545   0.394   3.107   0.763 -0.1715  0.4089  0.3105
 6996TIP3   OH242546   5.226   4.248   0.962  0.7118  0.3690 -0.1255
 6996TIP3    H142547   5.274   4.167   0.983  1.3395  0.3673 -1.4670
 6996TIP3    H242548   5.159   4.254   1.031 -1.1399 -2.7568 -1.4229
 6997TIP3   OH242549   0.098   4.920   1.409 -0.2924  0.1574  0.0865
 6997TIP3    H142550   0.077   4.903   1.501  2.4848 -0.0393  0.7745
 6997TIP3    H242551   0.040   4.992   1.384 -0.7707  0.5541  2.1540
 6998TIP3   OH242552   3.384   4.563   8.368 -0.8823 -0.6635  0.5541
 6998TIP3    H142553   3.411   4.573   8.276 -0.8014  1.1289  0.7306
 6998TIP3    H242554   3.313   4.499   8.366 -0.0787 -1.5619 -0.5897
 6999TIP3   OH242555   5.228   0.823   1.796 -0.1444 -0.5601 -0.1413
 6999TIP3    H142556   5.193   0.889   1.855  1.1946 -0.2783  0.3668
 6999TIP3    H242557   5.274   0.872   1.729 -1.0341 -0.9105 -1.0294
 7000TIP3   OH242558   0.782   5.749   1.235 -0.5039 -0.2623  0.0043
 7000TIP3    H142559   0.873   5.777   1.231  0.0646 -1.9137  0.7703
 7000TIP3    H242560   0.742   5.808   1.300 -0.0613  0.6220 -0.5058
 7001TIP3   OH242561   0.524   6.037   7.905 -0.0671 -0.7776 -0.1916
 7001TIP3    H142562   0.516   6.051   7.999  0.9355 -2.6050  0.2056
 7001TIP3    H242563   0.456   6.093   7.867  0.1032  0.6833  1.5329
 7002TIP3   OH242564   6.417   0.491   8.238 -0.3598 -0.2182 -0.0542
 7002TIP3    H142565   6.416   0.421   8.304 -1.4579  1.3767  1.7459
 7002TIP3    H242566   6.345   0.468   8.179 -0.2082 -1.0152  0.0531
 7003TIP3   OH242567   3.040   6.479   8.361  0.2848  0.5318  0.2917
 7003TIP3    H142568   3.090   6.453   8.284  1.8828  1.6324  0.8915
 7003TIP3    H242569   3.025   6.573   8.349 -0.1275  0.5580  0.9532
 7004TIP3   OH242570   4.590   2.251   0.639 -0.1225 -0.4685  0.0550
 7004TIP3    H142571   4.612   2.277   0.550 -0.3936 -0.2687  0.0481
 7004TIP3    H242572   4.651   2.179   0.658 -0.5660 -1.0115 -0.5592
 7005TIP3   OH242573   1.369   2.218   8.397 -0.4463  0.0148 -0.1399
 7005TIP3    H142574   1.423   2.182   8.467 -1.1857 -0.8920 -0.0135
 7005TIP3    H242575   1.343   2.305   8.429  1.6508  0.8554 -0.6048
 7006TIP3   OH242576   4.483   0.499   1.329  0.1302 -0.4644 -0.8385
 7006TIP3    H142577   4.534   0.492   1.410 -1.4022 -0.7434  0.1383
 7006TIP3    H242578   4.549   0.511   1.260  1.4219  0.7920  0.5432
 7007TIP3   OH242579   1.067   6.646   8.265  0.1377  0.8099  0.2914
 7007TIP3    H142580   1.151   6.602   8.250 -0.2425  0.0949  0.1832
 7007TIP3    H242581   1.072   6.675   8.356  0.3994  0.5262  0.3732
 7008TIP3   OH242582   2.500   5.004   8.130  0.9198 -0.5076 -0.1966
 7008TIP3    H142583   2.437   5.027   8.062  0.2096 -2.2653 -0.1690
 7008TIP3    H242584   2.499   5.080   8.189 -0.9775 -0.3714 -0.3396
 7009TIP3   OH242585   3.547   0.857   0.731 -0.0885  0.0611 -0.0279
 7009TIP3    H142586   3.524   0.872   0.823 -2.6160 -0.6849 -0.4493
 7009TIP3    H242587   3.588   0.771   0.730  0.5990  0.3708  0.4625
 7010TIP3   OH242588   6.621   1.242   0.637 -0.0386 -0.3412  0.4743
 7010TIP3    H142589   6.567   1.320   0.642 -1.3091 -1.0732 -1.0466
 7010TIP3    H242590   6.678   1.257   0.561  1.3131  0.0257  1.5098
 7011TIP3   OH242591   2.207   5.733   1.210 -0.4890  0.4366 -0.4340
 7011TIP3    H142592   2.269   5.680   1.260 -0.6797  0.6268  0.0041
 7011TIP3    H242593   2.260   5.775   1.143 -0.2807 -0.0503 -0.5812
 7012TIP3   OH242594   6.775   2.120   0.302 -0.1783 -0.6711  0.2412
 7012TIP3    H142595   6.715   2.097   0.373 -0.3841 -1.7621 -0.2606
 7012TIP3    H242596   6.805   2.208   0.323 -1.8223 -0.1640  0.6049
 7013TIP3   OH242597   5.528   4.297   8.374 -0.3774  0.3495  0.1652
 7013TIP3    H142598   5.559   4.295   8.465 -0.9541  0.7614  0.3800
 7013TIP3    H242599   5.441   4.338   8.380 -0.8006 -0.4348 -0.4564
 7014TIP3   OH242600   4.397   2.162   1.867 -0.8004  0.0552  0.4743
 7014TIP3    H142601   4.356   2.112   1.797 -0.7337  1.2874 -0.4820
 7014TIP3    H242602   4.368   2.252   1.853 -1.9481  0.1494  2.8937
 7015TIP3   OH242603   2.334   3.111   8.009  0.0858  0.0291  0.3852
 7015TIP3    H142604   2.318   3.180   7.944  1.6078  2.5278  2.5174
 7015TIP3    H242605   2.351   3.158   8.090  0.6843 -2.9227  2.0841
 7016TIP3   OH242606   2.083   3.823   1.148  0.1075  0.0558 -0.0528
 7016TIP3    H142607   2.161   3.842   1.201 -1.3003  0.7171  1.9137
 7016TIP3    H242608   2.065   3.731   1.164 -0.3203  0.2566  0.6715
 7017TIP3   OH242609   3.972   5.997   1.459  0.0771 -0.2486  0.5418
 7017TIP3    H142610   3.928   5.962   1.536 -1.2118  0.0904 -0.0052
 7017TIP3    H242611   4.057   6.027   1.490 -0.7699  0.7192  2.0080
 7018TIP3   OH242612   3.705   3.172   0.567 -0.4021  0.3645  0.5729
 7018TIP3    H142613   3.792   3.205   0.585 -0.5438  0.1924  1.6331
 7018TIP3    H242614   3.718   3.079   0.548 -0.2234  0.5996 -0.5507
 7019TIP3   OH242615   3.891   5.176   1.969  0.2240 -0.1143 -0.0784
 7019TIP3    H142616   3.958   5.236   2.000 -0.1235  0.8128 -1.0507
 7019TIP3    H242617   3.926   5.141   1.888  0.6835 -1.7277  0.7770
 7020TIP3   OH242618   1.298   3.680   0.696 -0.0155  0.1092  0.3454
 7020TIP3    H142619   1.256   3.734   0.764 -1.1648 -0.1040 -0.1777
 7020TIP3    H242620   1.333   3.744   0.634  1.5891  0.3298  1.4129
 7021TIP3   OH242621   3.059   3.255   0.806  0.0654  0.0008  0.2130
 7021TIP3    H142622   3.002   3.178   0.812  0.1664  0.0309  2.5672
 7021TIP3    H242623   3.050   3.285   0.716 -0.7188 -2.2033 -0.4968
 7022TIP3   OH242624   1.645   3.711   0.942 -0.3074 -0.2366  0.8653
 7022TIP3    H142625   1.635   3.806   0.952 -0.5912 -0.2801  0.9964
 7022TIP3    H242626   1.622   3.695   0.850  1.1656  0.0080  0.4196
 7023TIP3   OH242627   4.839   1.371   1.188 -0.2796 -0.1433 -0.1842
 7023TIP3    H142628   4.879   1.285   1.178 -1.0997 -0.7709  1.5527
 7023TIP3    H242629   4.839   1.408   1.100  2.9449 -0.5762 -0.4989
 7024TIP3   OH242630   0.884   1.436   0.077 -0.2307 -0.6711  0.2651
 7024TIP3    H142631   0.860   1.496   0.148 -0.2406  0.0889 -0.3625
 7024TIP3    H242632   0.859   1.350   0.109 -1.7816 -0.1524  0.5328
 7025TIP3   OH242633   2.322   0.099   1.942 -0.0482 -0.2921  0.5940
 7025TIP3    H142634   2.305   0.192   1.928  1.0039 -0.2930 -0.9398
 7025TIP3    H242635   2.241   0.056   1.916  0.1953  0.0792 -0.9208
 7026TIP3   OH242636   1.089   6.322   0.293  0.2593  0.1646  0.2566
 7026TIP3    H142637   1.106   6.366   0.210 -0.7610 -1.6490 -0.9713
 7026TIP3    H242638   1.000   6.288   0.285 -0.0187  0.3095  2.2743
 7027TIP3   OH242639   6.040   5.643   2.514  0.1776 -0.2563  0.6171
 7027TIP3    H142640   5.968   5.580   2.515 -0.6672  0.6574  2.3406
 7027TIP3    H242641   6.026   5.695   2.435 -0.8533 -0.3214  0.7494
 7028TIP3   OH242642   3.231   6.434   2.286 -0.4130  0.0702  0.4416
 7028TIP3    H142643   3.214   6.361   2.346 -0.9389  0.6870  1.0543
 7028TIP3    H242644   3.313   6.472   2.318  1.0335 -1.5289 -1.1632
 7029TIP3   OH242645   0.300   3.335   7.176 -0.0724  0.4742  0.2410
 7029TIP3    H142646   0.390   3.357   7.153 -0.5041  1.8058 -0.2828
 7029TIP3    H242647   0.259   3.420   7.196 -1.2303 -0.0992  0.3662
 7030TIP3   OH242648   2.491   2.662   8.553 -0.0502 -0.3097 -0.2951
 7030TIP3    H142649   2.426   2.615   8.606  0.4836 -1.6641 -0.8148
 7030TIP3    H242650   2.442   2.690   8.476 -0.0350 -1.2753 -0.6581
 7031TIP3   OH242651   6.299   4.660   1.204 -0.1188 -0.4881 -0.5698
 7031TIP3    H142652   6.272   4.752   1.195 -0.6578 -0.8044 -2.9822
 7031TIP3    H242653   6.219   4.614   1.228  0.1756 -0.3270  0.7494
 7032TIP3   OH242654   1.467   4.838   1.019  0.0026 -0.3502  0.3253
 7032TIP3    H142655   1.530   4.910   1.020 -0.6197  0.2785 -1.4623
 7032TIP3    H242656   1.382   4.882   1.029 -0.3523 -0.8850 -0.3144
 7033TIP3   OH242657   6.507   0.298   0.034  0.3927 -0.1460 -0.7550
 7033TIP3    H142658   6.569   0.248  -0.018 -0.1641 -0.2930 -1.2912
 7033TIP3    H242659   6.448   0.233   0.072 -0.1997  0.0703 -1.2768
 7034TIP3   OH242660   1.466   2.987   8.059 -0.5058 -0.1980  0.3535
 7034TIP3    H142661   1.518   3.051   8.108 -0.5317 -0.0779  0.2230
 7034TIP3    H242662   1.376   3.005   8.085 -0.4401 -0.7432  0.9763
 7035TIP3   OH242663   1.607   5.969   1.875  1.0003 -0.0570 -0.5655
 7035TIP3    H142664   1.669   6.026   1.920  0.2366  1.4181 -1.3256
 7035TIP3    H242665   1.544   5.943   1.942  1.6927 -0.5431 -0.0804
 7036TIP3   OH242666   6.519   1.270   1.646 -0.3957 -0.2398 -0.0225
 7036TIP3    H142667   6.516   1.295   1.738  3.5683  1.2464 -0.0726
 7036TIP3    H242668   6.501   1.352   1.599 -0.9662 -0.6693 -0.5680
 7037TIP3   OH242669   4.686   3.778   0.877 -0.1303  0.5682  0.1084
 7037TIP3    H142670   4.627   3.736   0.815  0.8596  1.1827 -1.2935
 7037TIP3    H242671   4.773   3.772   0.837  0.4868  1.3099  1.2608
 7038TIP3   OH242672   3.588   1.185   8.519  0.1082 -0.3380 -0.1084
 7038TIP3    H142673   3.544   1.115   8.566  2.1653 -1.4184  0.3365
 7038TIP3    H242674   3.534   1.262   8.533 -0.9688 -1.3271  1.3863
 7039TIP3   OH242675   5.130   6.401   0.573  0.3117 -0.5059  0.3842
 7039TIP3    H142676   5.166   6.490   0.581  0.3508 -0.6047  1.3822
 7039TIP3    H242677   5.188   6.347   0.627 -0.9610 -0.7736  1.5507
 7040TIP3   OH242678   3.910   1.312   0.590 -0.2651 -0.2229  0.0391
 7040TIP3    H142679   3.923   1.392   0.641 -0.8222  1.2196 -1.9595
 7040TIP3    H242680   3.950   1.330   0.505  0.7826 -2.6070 -0.0376
 7041TIP3   OH242681   2.117   5.488   6.987  0.4611 -0.2534  0.1178
 7041TIP3    H142682   2.046   5.466   7.047  1.1583 -0.2096  0.9701
 7041TIP3    H242683   2.168   5.407   6.980 -0.6586 -0.8599 -1.9238
 7042TIP3   OH242684   0.702   2.580   0.122  0.1670  0.1846 -0.3613
 7042TIP3    H142685   0.718   2.663   0.169 -2.4521  0.7960 -0.3885
 7042TIP3    H242686   0.719   2.512   0.187  1.3649  0.7696 -0.0316
 7043TIP3   OH242687   1.082   5.706   2.062 -0.2746 -0.9510 -0.2605
 7043TIP3    H142688   1.134   5.687   1.984 -0.4534 -0.4501 -0.5124
 7043TIP3    H242689   1.083   5.625   2.113  2.8526 -0.2206  1.0064
 7044TIP3   OH242690   5.667   5.512   2.948  0.0897 -0.2314 -0.1269
 7044TIP3    H142691   5.653   5.606   2.960  3.9385  0.6554 -1.0727
 7044TIP3    H242692   5.689   5.479   3.035 -0.7600 -0.1671  0.1179
 7045TIP3   OH242693   3.602   5.097   7.510  0.2126  0.1689 -0.3039
 7045TIP3    H142694   3.628   5.011   7.479  0.4589 -0.6345  1.9057
 7045TIP3    H242695   3.607   5.090   7.606  0.4542  2.7006 -0.0609
 7046TIP3   OH242696   1.414   5.516   2.604 -0.4452  0.1081 -0.0821
 7046TIP3    H142697   1.439   5.556   2.687 -2.1180 -0.7949  0.9156
 7046TIP3    H242698   1.343   5.455   2.627 -2.6047  1.5047 -2.4520
 7047TIP3   OH242699   5.385   3.158   0.544 -0.4505  0.0430 -0.2142
 7047TIP3    H142700   5.310   3.135   0.600 -0.3204  0.3243  0.0794
 7047TIP3    H242701   5.374   3.251   0.526 -1.2910 -0.3503 -1.8849
 7048TIP3   OH242702   0.209   1.735   8.177 -0.3678 -0.0116  0.0890
 7048TIP3    H142703   0.211   1.810   8.117 -1.6208 -1.4398 -1.8701
 7048TIP3    H242704   0.132   1.750   8.231  0.1511  0.7555  0.6306
 7049TIP3   OH242705   6.479   2.377   8.393  0.2460  0.4004 -0.2226
 7049TIP3    H142706   6.445   2.299   8.349 -1.1531  1.8895 -1.9459
 7049TIP3    H242707   6.560   2.347   8.435  0.6722 -1.5984 -2.2565
 7050TIP3   OH242708   0.796   2.510   7.793 -0.4791  0.6961  0.5139
 7050TIP3    H142709   0.786   2.599   7.758 -1.1916  0.3593 -0.1496
 7050TIP3    H242710   0.869   2.473   7.743 -1.3569  0.2899 -0.5128
 7051TIP3   OH242711   3.924   4.413   7.012  0.6344 -0.1838 -0.4880
 7051TIP3    H142712   3.977   4.344   6.972 -1.2778 -0.9709 -1.7737
 7051TIP3    H242713   3.878   4.454   6.939 -1.1414 -0.0691  0.6498
 7052TIP3   OH242714   0.391   2.479   2.120 -0.4863 -0.0272 -0.3154
 7052TIP3    H142715   0.437   2.556   2.150 -0.3796  0.3273 -1.3438
 7052TIP3    H242716   0.299   2.507   2.114 -0.3470  0.2454 -1.3553
 7053TIP3   OH242717   0.329   6.737   2.197  0.5751 -0.8042 -0.1639
 7053TIP3    H142718   0.246   6.737   2.244  1.0767  0.9461  0.8133
 7053TIP3    H242719   0.388   6.684   2.251  0.4603 -0.9366 -0.1679
 7054TIP3   OH242720   1.559   1.359   1.930  0.4449  0.2932  0.3406
 7054TIP3    H142721   1.540   1.347   2.024 -1.9309  1.2809  0.0508
 7054TIP3    H242722   1.603   1.278   1.905 -0.1035 -0.5856  2.0147
 7055TIP3   OH242723   2.968   0.400   0.911  0.5952  0.1697  0.2739
 7055TIP3    H142724   2.920   0.418   0.991  0.6906  1.9553 -0.0360
 7055TIP3    H242725   2.985   0.306   0.914 -0.7471 -0.0646  1.5802
 7056TIP3   OH242726   6.001   1.652   1.370  1.0460 -0.2178 -0.2951
 7056TIP3    H142727   5.942   1.577   1.358  1.8076 -0.7241 -1.0582
 7056TIP3    H242728   6.049   1.633   1.450  1.6179 -0.8368 -0.7687
 7057TIP3   OH242729   3.005   3.932   0.149  0.5304 -0.7795 -0.0695
 7057TIP3    H142730   2.999   4.018   0.107  0.8818  0.4665  2.2454
 7057TIP3    H242731   2.974   3.870   0.083 -0.6955  1.2254 -1.4833
 7058TIP3   OH242732   4.738   4.649   1.919  0.5193  0.1408 -0.4048
 7058TIP3    H142733   4.707   4.718   1.861  0.7303  0.3050 -0.3267
 7058TIP3    H242734   4.807   4.691   1.971  2.0890 -0.6560 -1.7482
 7059TIP3   OH242735   4.513   4.056   7.166  0.3940  0.0050 -0.1637
 7059TIP3    H142736   4.513   4.152   7.166  1.9497  0.0355 -0.1144
 7059TIP3    H242737   4.606   4.033   7.167  0.0526 -1.5072 -1.1182
 7060TIP3   OH242738   6.314   2.832   8.145 -0.1968 -0.0131  0.0590
 7060TIP3    H142739   6.220   2.844   8.139 -0.4625 -1.9359 -0.2297
 7060TIP3    H242740   6.337   2.861   8.233 -1.2874 -0.7702  0.6061
 7061TIP3   OH242741   3.155   6.818   2.801  0.1504 -0.3124  0.4562
 7061TIP3    H142742   3.084   6.756   2.819 -0.6831  1.1724  2.6171
 7061TIP3    H242743   3.217   6.805   2.873  0.9994 -0.0350 -0.2059
 7062TIP3   OH242744   2.135   3.061   6.776 -0.1377 -0.4520  0.4670
 7062TIP3    H142745   2.137   2.979   6.727 -1.3171 -1.3067  1.7904
 7062TIP3    H242746   2.118   3.035   6.867  1.1455  1.1361  1.2241
 7063TIP3   OH242747   1.623   6.165   7.109  0.2221  0.0409  0.2887
 7063TIP3    H142748   1.527   6.171   7.110  0.3405  3.0606  0.4710
 7063TIP3    H242749   1.644   6.119   7.191 -1.0648 -1.7816 -0.3389
 7064LIG     O142750   3.119   0.575   3.682  0.2136 -0.1251  0.1953
 7064LIG     O242751   2.779   0.823   3.880 -0.4023  0.0198 -0.4345
 7064LIG     N142752   2.942   0.746   4.023 -0.6093 -0.2265  0.5585
 7064LIG     N242753   3.232   0.555   3.965 -0.4888 -0.5138 -0.7730
 7064LIG     N342754   2.957   0.709   3.787  0.7090  0.5250 -0.0586
 7064LIG     N442755   3.123   0.640   4.140  0.4044  1.2138  0.2443
 7064LIG     C142756   3.124   0.614   3.914 -0.0762 -0.7174 -0.0492
 7064LIG     C242757   3.060   0.672   4.027  0.8206 -0.9987  0.5479
 7064LIG     C342758   3.073   0.625   3.785  0.6060 -0.3618  0.1789
 7064LIG     C442759   2.886   0.760   3.898  0.8606 -0.4866  0.1077
 7064LIG     C542760   3.228   0.572   4.099 -0.2166  0.0664 -0.6071
 7064LIG     C642761   2.872   0.795   4.143 -0.4797  0.4849  0.1361
 7064LIG     C742762   3.339   0.490   3.890  0.1442  0.1083 -0.0993
 7064LIG     C842763   2.882   0.720   3.660 -0.2650  0.5552  0.5454
 7064LIG     H142764   3.303   0.537   4.170  0.0423  1.9765  0.1104
 7064LIG     H242765   2.950   0.803   4.222 -0.2730 -3.3128  0.5247
 7064LIG     H342766   2.791   0.722   4.168 -0.6461 -0.0482 -1.8237
 7064LIG     H442767   2.826   0.894   4.127 -2.8129 -0.7546 -1.4758
 7064LIG     H542768   3.288   0.419   3.821 -1.6185 -1.1551  2.3476
 7064LIG     H642769   3.408   0.428   3.951 -0.3725 -1.5174 -1.0787
 7064LIG     H742770   3.401   0.560   3.831  2.3980 -0.6629  1.2344
 7064LIG     H842771   2.844   0.820   3.633  1.1579  0.7833 -0.7611
 7064LIG     H942772   2.797   0.648   3.659 -1.5140  1.9442 -2.2782
 7064LIG    H1042773   2.948   0.692   3.575  2.5432 -0.5709  2.8994
   6.83258   6.83258   8.76728
